Title
82350
    1SAPS     N    1   3.647   3.697   9.484  0.2446  0.6934  0.4054
    1SAPS   HN1    2   3.563   3.730   9.433 -1.8684 -3.6672  0.5771
    1SAPS   HN2    3   3.731   3.742   9.443  0.2737  0.4674  0.2104
    1SAPS   HN3    4   3.655   3.594   9.471 -2.6350 -0.2031  4.1318
    1SAPS   C12    5   3.626   3.707   9.631 -0.6067 -0.6950  0.0069
    1SAPS  H12A    6   3.640   3.610   9.676  1.9429  0.0646  1.0593
    1SAPS   C13    7   3.715   3.801   9.699 -0.8631 -0.4790 -0.4173
    1SAPS  O13A    8   3.804   3.868   9.639 -0.4280 -0.3961  0.1994
    1SAPS  O13B    9   3.703   3.795   9.826  0.1531  0.2069 -0.1957
    1SAPS   C11   10   3.483   3.745   9.644 -0.0719  0.0163 -0.1501
    1SAPS  H11A   11   3.475   3.853   9.618  1.5913 -0.2990 -2.2709
    1SAPS  H11B   12   3.456   3.740   9.751  3.1406 -0.7785  0.7150
    1SAPS     P   13   3.332   3.539   9.632  0.0858 -0.0090 -0.3875
    1SAPS   O13   14   3.432   3.485   9.732 -0.2682  1.5367  0.1588
    1SAPS   O14   15   3.208   3.579   9.697  1.1239  0.0125  0.6002
    1SAPS   O12   16   3.395   3.665   9.557 -0.4542 -0.2532  0.2513
    1SAPS   O11   17   3.305   3.425   9.527 -0.2024 -0.1584  0.2028
    1SAPS    C1   18   3.266   3.457   9.393  0.2027  0.5461 -0.0491
    1SAPS    HA   19   3.187   3.386   9.361  0.6482 -0.0184  0.0786
    1SAPS    HB   20   3.223   3.558   9.379 -2.9665 -0.8259 -0.9827
    1SAPS    C2   21   3.381   3.432   9.293 -0.6188  0.0862 -0.0320
    1SAPS    HS   22   3.473   3.475   9.338  0.8056  0.5502 -3.1433
    1SAPS   O21   23   3.353   3.494   9.165  0.1375 -0.0866 -0.0070
    1SAPS   C21   24   3.377   3.626   9.164  0.2163  0.0655  0.0402
    1SAPS   O22   25   3.426   3.693   9.252 -0.7767 -0.2120 -0.8542
    1SAPS   C22   26   3.328   3.687   9.030  0.5388 -0.5873  0.4104
    1SAPS   H2R   27   3.340   3.616   8.945  0.1791  1.5247 -1.4868
    1SAPS   H2S   28   3.220   3.713   9.039  0.3847 -0.2645 -1.9463
    1SAPS    C3   29   3.405   3.277   9.279 -0.6983  0.1587  0.4047
    1SAPS    HX   30   3.437   3.238   9.378  2.0305  1.5657  0.1929
    1SAPS    HY   31   3.488   3.258   9.207 -0.7200 -1.1882  0.6977
    1SAPS   O31   32   3.285   3.203   9.230 -0.5307  0.2478  0.7964
    1SAPS   C31   33   3.310   3.069   9.241  0.3201  0.5026 -0.2154
    1SAPS   O32   34   3.417   3.017   9.272 -0.2790 -0.4749  0.4093
    1SAPS   C32   35   3.172   3.000   9.245 -0.4082  0.3221 -0.2072
    1SAPS   H2X   36   3.083   3.063   9.225 -1.7946 -1.6627 -0.5909
    1SAPS   H2Y   37   3.156   2.981   9.354 -2.6204 -0.7453 -0.6550
    1SAPS   C23   38   3.410   3.816   8.987 -0.1802  0.0685  0.1753
    1SAPS   H3R   39   3.429   3.875   9.079  0.4652  1.0248 -0.5480
    1SAPS   H3S   40   3.349   3.871   8.912  0.0933 -1.2140 -1.0430
    1SAPS   C24   41   3.558   3.788   8.941 -0.4698 -0.1982 -0.0725
    1SAPS   H4R   42   3.565   3.728   8.848  1.8355  0.4336 -0.3626
    1SAPS   H4S   43   3.630   3.741   9.011  0.2864 -1.5699 -1.7040
    1SAPS   C25   44   3.613   3.924   8.901 -0.1621  0.6290  0.3620
    1SAPS   H5R   45   3.644   3.979   8.990  1.5444 -0.5535  0.5447
    1SAPS   C26   46   3.632   3.972   8.777 -0.0781  0.1977 -0.3370
    1SAPS   H6R   47   3.687   4.066   8.763  1.4650 -0.8482 -1.5944
    1SAPS   C27   48   3.602   3.896   8.651 -0.1962  0.1251  0.0747
    1SAPS   H7R   49   3.525   3.818   8.666 -0.9172  0.0872 -3.0558
    1SAPS   H7S   50   3.693   3.840   8.622 -0.1193  0.9883 -1.4805
    1SAPS   C28   51   3.552   3.974   8.534 -0.4233  0.1940 -0.2698
    1SAPS   H8R   52   3.445   3.999   8.537 -0.7349 -1.1442  0.5336
    1SAPS   C29   53   3.636   4.001   8.425  0.2386  0.0757  0.6687
    1SAPS   H9R   54   3.599   4.053   8.335  3.8308  0.4490 -0.7506
    1SAPS  C210   55   3.779   3.974   8.411 -0.3639  0.2406 -0.1888
    1SAPS  H10R   56   3.833   3.946   8.504 -0.2594 -1.3038 -0.6861
    1SAPS  H10S   57   3.829   4.063   8.366 -0.9413  1.3636  1.3076
    1SAPS  C211   58   3.796   3.852   8.319  0.1750 -0.2267 -0.4324
    1SAPS  H11R   59   3.710   3.784   8.324  0.4033 -0.7168 -2.4168
    1SAPS  C212   60   3.903   3.829   8.237  0.1712  0.7608 -0.4471
    1SAPS  H12R   61   3.903   3.736   8.178 -1.1238  1.7874 -2.1670
    1SAPS  C213   62   4.024   3.908   8.225  0.0254 -0.5644 -0.7867
    1SAPS  H13R   63   4.105   3.857   8.170  2.0867  0.9308  0.6992
    1SAPS  H13S   64   4.071   3.929   8.324  1.0660 -0.0094 -1.3853
    1SAPS  C214   65   4.012   4.039   8.150 -0.0787  0.5577  0.8426
    1SAPS  H14R   66   3.926   4.107   8.163 -2.0923 -1.3842 -1.2381
    1SAPS  C215   67   4.106   4.103   8.077 -0.4404 -0.2057 -0.1486
    1SAPS  H15R   68   4.079   4.202   8.037 -1.3130  0.2007  1.3690
    1SAPS  C216   69   4.250   4.074   8.057 -0.6656  0.2501  0.4905
    1SAPS  H16R   70   4.275   3.966   8.051  1.0309  0.5409  1.8731
    1SAPS  H16S   71   4.300   4.112   8.148  0.1149 -0.9460  0.5727
    1SAPS  C217   72   4.313   4.153   7.935 -0.0897 -0.1073 -0.0005
    1SAPS  H17R   73   4.423   4.139   7.942 -0.1320  0.3222  2.5429
    1SAPS  H17S   74   4.288   4.260   7.954 -1.2904 -0.3511 -0.0996
    1SAPS  C218   75   4.259   4.105   7.800 -0.1844  0.4298  0.0124
    1SAPS  H18R   76   4.148   4.099   7.805 -0.4646  2.1943 -2.3008
    1SAPS  H18S   77   4.295   4.001   7.790  2.6583  1.3403 -0.1041
    1SAPS  C219   78   4.296   4.184   7.673  0.0207 -0.0016  0.5997
    1SAPS  H19R   79   4.250   4.123   7.594  1.4994  0.0820 -0.3728
    1SAPS  H19S   80   4.404   4.167   7.653 -0.0710 -2.4399  1.8488
    1SAPS  C220   81   4.249   4.320   7.653  0.2484  0.0448 -0.0122
    1SAPS  H20R   82   4.298   4.381   7.574  1.3908 -2.2941 -1.2349
    1SAPS  H20S   83   4.263   4.374   7.749 -0.3993 -2.4855  1.5953
    1SAPS  H20T   84   4.139   4.322   7.642  0.2059 -0.1447  0.3708
    1SAPS   C33   85   3.163   2.861   9.170 -0.4528  0.1421 -0.2937
    1SAPS   H3X   86   3.081   2.803   9.219 -0.4210  1.0709  0.9094
    1SAPS   H3Y   87   3.253   2.799   9.191 -0.6157  0.4579  1.5398
    1SAPS   C34   88   3.138   2.872   9.024  0.2625 -0.2277  0.4006
    1SAPS   H4X   89   3.223   2.929   8.979  0.7665  0.8466  2.5880
    1SAPS   H4Y   90   3.041   2.922   9.006 -0.7921 -1.6820  1.7641
    1SAPS   C35   91   3.130   2.737   8.949 -0.8470  0.2845  0.0117
    1SAPS   H5X   92   3.044   2.681   8.993  0.4376 -0.6953  1.3951
    1SAPS   H5Y   93   3.222   2.676   8.961 -1.1190  0.0613  1.2059
    1SAPS   C36   94   3.105   2.756   8.801  0.3999  0.2435 -0.2733
    1SAPS   H6X   95   3.027   2.680   8.781 -0.5752  1.2369 -0.3806
    1SAPS   H6Y   96   3.186   2.711   8.740 -0.5379 -1.7778 -0.1005
    1SAPS   C37   97   3.069   2.893   8.746 -0.8701  0.3500 -0.0264
    1SAPS   H7X   98   3.161   2.953   8.764  0.0832 -1.3522  1.0258
    1SAPS   H7Y   99   2.987   2.930   8.812  1.1145  0.2231  2.7246
    1SAPS   C38  100   3.044   2.906   8.588 -0.5006  0.7122 -0.1960
    1SAPS   H8X  101   2.967   2.831   8.560  2.1889 -1.5714 -1.9572
    1SAPS   H8Y  102   3.144   2.883   8.545  1.1078  1.5341  2.7928
    1SAPS   C39  103   3.008   3.046   8.556 -0.1251 -0.1201  0.5926
    1SAPS   H9X  104   3.087   3.112   8.599  0.3619  0.1511 -0.6867
    1SAPS   H9Y  105   2.921   3.083   8.614 -1.3255 -0.1049 -1.1351
    1SAPS  C310  106   2.988   3.073   8.404  0.0389  0.4673  0.4358
    1SAPS  H10X  107   2.936   2.988   8.354  2.0184 -0.4402 -0.1867
    1SAPS  H10Y  108   3.088   3.086   8.357  0.9681  1.0751  2.4735
    1SAPS  C311  109   2.920   3.204   8.369 -0.1319 -0.0886 -0.3969
    1SAPS  H11X  110   2.959   3.267   8.451 -1.6021  0.7097 -0.2715
    1SAPS  H11Y  111   2.809   3.200   8.378 -0.2991 -1.5189 -2.4508
    1SAPS  C312  112   2.966   3.260   8.233  0.5430 -0.7348 -0.0430
    1SAPS  H12X  113   3.075   3.278   8.222  0.1168  0.8522 -2.3488
    1SAPS  H12Y  114   2.921   3.361   8.229  0.8876 -0.5797 -0.0097
    1SAPS  C313  115   2.906   3.175   8.125 -0.0186 -0.2597  0.9252
    1SAPS  H13X  116   2.901   3.067   8.150 -1.0273 -0.3579  0.3925
    1SAPS  H13Y  117   2.973   3.195   8.039 -0.8947 -1.4760 -0.0857
    1SAPS  C314  118   2.760   3.217   8.096  0.4251 -0.2225 -0.3254
    1SAPS  H14X  119   2.768   3.326   8.077 -0.0662 -0.1021  0.1224
    1SAPS  H14Y  120   2.702   3.200   8.189  0.7581  1.6968  0.2768
    1SAPS  C315  121   2.700   3.150   7.973 -0.0647 -0.0542 -0.5559
    1SAPS  H15X  122   2.768   3.162   7.886  0.1380 -1.3573 -0.5899
    1SAPS  H15Y  123   2.609   3.209   7.951  1.0733  2.7299  1.4954
    1SAPS  C316  124   2.657   2.999   7.982 -0.1587  0.0021  0.6112
    1SAPS  H16X  125   2.640   2.984   8.091  1.9190 -0.5932  0.8922
    1SAPS  H16Y  126   2.735   2.924   7.960 -1.3102 -1.5588  1.6659
    1SAPS  C317  127   2.534   2.955   7.892 -0.8509 -0.5494  0.0865
    1SAPS  H17X  128   2.555   2.986   7.787 -1.4088  1.1902  0.4520
    1SAPS  H17Y  129   2.445   3.017   7.916 -1.0252 -0.3832 -0.9203
    1SAPS  C318  130   2.497   2.807   7.895  0.2378 -0.1731  0.0710
    1SAPS  H18X  131   2.452   2.789   7.995  0.4484  2.1032  0.6117
    1SAPS  H18Y  132   2.589   2.745   7.890 -0.4201 -1.1773  0.0522
    1SAPS  H18Z  133   2.436   2.775   7.807 -0.5257 -1.3240  0.9899
    2SAPS     N  134   1.859   3.261  10.094  0.4361 -0.9650  0.0973
    2SAPS   HN1  135   1.951   3.304  10.115 -0.3081  2.8275 -3.2217
    2SAPS   HN2  136   1.823   3.217  10.182  0.6421 -0.1083  0.6187
    2SAPS   HN3  137   1.877   3.177  10.035 -0.7931 -0.9886 -0.2638
    2SAPS   C12  138   1.760   3.351  10.029  0.0062 -0.1957 -0.4801
    2SAPS  H12A  139   1.697   3.284   9.972  1.1058  0.7871 -3.0518
    2SAPS   C13  140   1.674   3.448  10.124  0.4200  0.6565  0.3446
    2SAPS  O13A  141   1.682   3.445  10.248  0.1317  0.8873 -0.0435
    2SAPS  O13B  142   1.592   3.522  10.069  0.1934  0.0773 -0.5951
    2SAPS   C11  143   1.849   3.441   9.928  0.1108  0.4563 -0.3359
    2SAPS  H11A  144   1.906   3.516   9.986 -0.3955 -0.0805  0.8878
    2SAPS  H11B  145   1.769   3.504   9.885 -0.4959  0.3577  0.6180
    2SAPS     P  146   1.850   3.317   9.697  0.2121  0.2929 -0.2196
    2SAPS   O13  147   1.737   3.234   9.746  0.4227 -0.5580 -0.4018
    2SAPS   O14  148   1.811   3.431   9.616  0.0112  0.2986  0.1164
    2SAPS   O12  149   1.933   3.370   9.830 -0.0490 -0.1845  0.1312
    2SAPS   O11  150   1.929   3.211   9.616 -0.5539 -0.1557  0.2855
    2SAPS    C1  151   2.074   3.213   9.629  0.0870  0.1361 -0.4014
    2SAPS    HA  152   2.105   3.201   9.735 -0.7998 -1.2789 -0.2702
    2SAPS    HB  153   2.107   3.127   9.566  1.4239  0.5559 -0.2913
    2SAPS    C2  154   2.146   3.340   9.561 -0.4896 -0.2333 -0.7082
    2SAPS    HS  155   2.118   3.428   9.623  0.4564 -0.7996  0.5548
    2SAPS   O21  156   2.104   3.367   9.419 -0.5881  0.0536  0.0277
    2SAPS   C21  157   2.111   3.492   9.373 -0.3501  0.2910 -0.4915
    2SAPS   O22  158   2.135   3.596   9.437  0.4003 -0.3674  0.4203
    2SAPS   C22  159   2.111   3.484   9.222  0.3488  0.8086  0.3232
    2SAPS   H2R  160   2.182   3.405   9.191 -0.6271 -0.3537  0.9875
    2SAPS   H2S  161   2.009   3.451   9.196 -0.8300  1.9437  3.1238
    2SAPS    C3  162   2.301   3.325   9.579 -0.0158 -0.2417 -0.1550
    2SAPS    HX  163   2.326   3.299   9.685  1.4182 -1.9967 -0.8614
    2SAPS    HY  164   2.356   3.418   9.554  0.4372 -0.4668 -0.0127
    2SAPS   O31  165   2.354   3.214   9.500  0.6365  0.3011  0.0187
    2SAPS   C31  166   2.373   3.247   9.373  0.4117 -0.7671 -0.0906
    2SAPS   O32  167   2.374   3.359   9.324 -0.6415  0.1000 -0.5072
    2SAPS   C32  168   2.425   3.133   9.293  0.1976  0.7156  0.2063
    2SAPS   H2X  169   2.508   3.084   9.348  1.7479  1.7288 -1.1244
    2SAPS   H2Y  170   2.469   3.175   9.199  1.3570 -1.1909 -0.1696
    2SAPS   C23  171   2.115   3.634   9.162 -0.5707  0.1465  0.3367
    2SAPS   H3R  172   2.206   3.686   9.200  0.6458  0.8018 -3.1195
    2SAPS   H3S  173   2.026   3.689   9.197 -1.1011 -0.0184 -0.7233
    2SAPS   C24  174   2.125   3.637   9.007 -0.0632 -0.1660 -0.5124
    2SAPS   H4R  175   2.096   3.740   8.977  0.3860  0.3401  0.7155
    2SAPS   H4S  176   2.053   3.577   8.948 -0.0198 -0.2472 -0.4840
    2SAPS   C25  177   2.267   3.602   8.960 -0.0742 -0.5238  0.0306
    2SAPS   H5R  178   2.284   3.496   8.935 -1.9208 -0.3959 -2.1279
    2SAPS   C26  179   2.359   3.701   8.939 -0.9578 -0.4365 -0.2613
    2SAPS   H6R  180   2.460   3.669   8.910 -1.3657 -2.3574  0.3149
    2SAPS   C27  181   2.344   3.851   8.958 -0.1377  0.1056 -0.2667
    2SAPS   H7R  182   2.262   3.865   9.032 -1.3562 -1.8309 -1.1555
    2SAPS   H7S  183   2.298   3.894   8.866 -0.2991 -2.1923 -1.3515
    2SAPS   C28  184   2.465   3.931   8.997  0.9067  0.0120  0.0791
    2SAPS   H8R  185   2.470   3.927   9.107 -0.2674  1.2765  0.1992
    2SAPS   C29  186   2.541   3.988   8.903  0.1904 -0.0697 -0.4741
    2SAPS   H9R  187   2.620   4.052   8.944 -1.1841  0.1886  1.9381
    2SAPS  C210  188   2.511   3.982   8.758  1.1106  0.4170  0.4063
    2SAPS  H10R  189   2.554   4.074   8.712 -0.4640  0.3910 -1.2434
    2SAPS  H10S  190   2.403   3.986   8.732  0.9215 -3.0083  0.1621
    2SAPS  C211  191   2.584   3.870   8.701  0.1100 -0.5178  0.6272
    2SAPS  H11R  192   2.640   3.806   8.772 -1.8788 -1.7046  1.2140
    2SAPS  C212  193   2.594   3.848   8.571  0.3659  0.0622 -0.2167
    2SAPS  H12R  194   2.661   3.772   8.527 -1.2164 -0.2039 -2.3268
    2SAPS  C213  195   2.519   3.925   8.463 -0.0773  0.0127 -0.3494
    2SAPS  H13R  196   2.438   3.985   8.510  0.8381 -0.2230  1.6162
    2SAPS  H13S  197   2.470   3.846   8.401 -1.5747 -0.0566  0.8614
    2SAPS  C214  198   2.614   4.010   8.383  0.2065  0.3445  0.1047
    2SAPS  H14R  199   2.677   4.077   8.443  2.8753 -2.0564  0.2553
    2SAPS  C215  200   2.623   4.015   8.250  0.2396 -0.2479  0.8270
    2SAPS  H15R  201   2.696   4.075   8.194  1.0219 -0.0964  1.9678
    2SAPS  C216  202   2.533   3.924   8.161 -0.3734 -0.8760  0.1426
    2SAPS  H16R  203   2.424   3.944   8.154 -0.3007  0.2408  1.7788
    2SAPS  H16S  204   2.527   3.828   8.218 -3.0957 -0.2526  1.0249
    2SAPS  C217  205   2.601   3.889   8.025 -0.6366 -0.6437  0.1399
    2SAPS  H17R  206   2.562   3.800   7.971  0.2088  0.3343 -2.2437
    2SAPS  H17S  207   2.705   3.865   8.055 -0.0098  1.4780 -0.1843
    2SAPS  C218  208   2.619   4.004   7.925 -0.0479  0.1529 -0.2209
    2SAPS  H18R  209   2.716   3.994   7.872 -0.4765 -1.2117 -0.7950
    2SAPS  H18S  210   2.640   4.095   7.985  1.6922  1.1740 -2.2347
    2SAPS  C219  211   2.511   4.034   7.826  0.7180 -0.1897 -0.1704
    2SAPS  H19R  212   2.413   4.057   7.874 -0.0913  0.1431 -1.8872
    2SAPS  H19S  213   2.491   3.944   7.764  0.0918 -1.0691  1.2747
    2SAPS  C220  214   2.534   4.149   7.731 -1.3699  0.1123 -0.2890
    2SAPS  H20R  215   2.529   4.243   7.791  2.7341 -0.5029  1.3319
    2SAPS  H20S  216   2.461   4.141   7.648  0.1868 -1.9013 -1.5358
    2SAPS  H20T  217   2.636   4.142   7.689 -2.0219 -4.6150 -1.6466
    2SAPS   C33  218   2.311   3.029   9.266  0.3982 -0.6200  0.5911
    2SAPS   H3X  219   2.290   2.981   9.364  3.2041 -1.8417  0.6978
    2SAPS   H3Y  220   2.350   2.948   9.200  1.1517  0.4581 -0.3087
    2SAPS   C34  221   2.186   3.092   9.202  0.2022 -0.9681  0.2759
    2SAPS   H4X  222   2.136   3.163   9.271 -0.7031 -2.2526  0.9799
    2SAPS   H4Y  223   2.110   3.012   9.193  0.4679 -1.3057  0.9498
    2SAPS   C35  224   2.199   3.142   9.059  0.4603 -0.1121 -0.1245
    2SAPS   H5X  225   2.234   3.053   9.002 -0.7025  0.5772 -1.9868
    2SAPS   H5Y  226   2.275   3.223   9.057  0.4738 -0.0843 -3.0188
    2SAPS   C36  227   2.063   3.196   9.008  0.0205  0.5060 -0.6712
    2SAPS   H6X  228   2.025   3.261   9.090  0.8901  2.3515 -1.6631
    2SAPS   H6Y  229   1.990   3.114   8.997  1.4803 -1.1146  0.9162
    2SAPS   C37  230   2.085   3.270   8.874  0.1250  0.7402  0.7963
    2SAPS   H7X  231   2.145   3.364   8.883 -1.0827  1.5121  1.1115
    2SAPS   H7Y  232   1.983   3.284   8.832  1.3207 -1.1394 -3.1976
    2SAPS   C38  233   2.149   3.183   8.768 -0.6419 -0.6866  0.1536
    2SAPS   H8X  234   2.109   3.079   8.776 -0.4425 -0.7939 -0.2047
    2SAPS   H8Y  235   2.258   3.172   8.787 -0.2632 -0.1460 -1.5651
    2SAPS   C39  236   2.127   3.242   8.627 -0.6161 -0.2846 -0.5792
    2SAPS   H9X  237   2.038   3.308   8.634  0.9842  1.8541  0.7731
    2SAPS   H9Y  238   2.113   3.154   8.560  0.5792 -3.0211  2.4619
    2SAPS  C310  239   2.247   3.320   8.576  0.5386 -0.3316 -0.7736
    2SAPS  H10X  240   2.340   3.260   8.583  0.4374 -0.5300 -1.0783
    2SAPS  H10Y  241   2.257   3.420   8.623 -1.5172 -0.4609  0.0573
    2SAPS  C311  242   2.217   3.349   8.428 -0.1088 -0.1339  0.6279
    2SAPS  H11X  243   2.141   3.430   8.421 -2.4790 -2.4035 -2.8018
    2SAPS  H11Y  244   2.188   3.257   8.373  1.0434 -0.2906  0.2677
    2SAPS  C312  245   2.335   3.394   8.344 -0.1095 -1.2385  0.0235
    2SAPS  H12X  246   2.427   3.336   8.370  0.2935 -0.4574  0.3948
    2SAPS  H12Y  247   2.352   3.498   8.380 -1.8401 -1.1258  0.6267
    2SAPS  C313  248   2.317   3.386   8.193  0.3999  0.5562 -0.7519
    2SAPS  H13X  249   2.207   3.397   8.189 -0.1287 -3.4753 -1.1935
    2SAPS  H13Y  250   2.336   3.280   8.164  0.8158  0.9842 -2.1165
    2SAPS  C314  251   2.401   3.488   8.110 -0.9636  0.0312  0.1768
    2SAPS  H14X  252   2.509   3.487   8.132 -1.1482  0.0100  1.1056
    2SAPS  H14Y  253   2.364   3.590   8.134  0.8291  0.2847  2.0256
    2SAPS  C315  254   2.391   3.446   7.959  0.1437 -0.1902 -0.9449
    2SAPS  H15X  255   2.400   3.336   7.947 -0.1954 -0.5549  1.5879
    2SAPS  H15Y  256   2.482   3.495   7.918  1.0277 -0.8357  0.1773
    2SAPS  C316  257   2.248   3.476   7.903 -0.7795 -0.4973 -0.5392
    2SAPS  H16X  258   2.224   3.573   7.953 -2.0299 -0.8544 -0.4394
    2SAPS  H16Y  259   2.171   3.400   7.926 -1.0290  0.2319  1.2292
    2SAPS  C317  260   2.260   3.506   7.761  0.9493  0.5703  0.1627
    2SAPS  H17X  261   2.329   3.590   7.742  2.0427 -0.3004  0.2035
    2SAPS  H17Y  262   2.158   3.534   7.725  0.3489 -1.2471  0.3174
    2SAPS  C318  263   2.302   3.391   7.669  0.1034  0.0198 -0.3581
    2SAPS  H18X  264   2.395   3.343   7.706 -0.9267 -0.5066  1.6914
    2SAPS  H18Y  265   2.305   3.421   7.562 -1.3363 -0.1534 -0.4689
    2SAPS  H18Z  266   2.230   3.307   7.671 -1.8011  1.5582 -0.9543
    3SAPS     N  267   2.149   5.478   9.771 -0.2887  0.2418 -0.6329
    3SAPS   HN1  268   2.195   5.447   9.683 -0.9518 -1.6798 -0.3661
    3SAPS   HN2  269   2.056   5.516   9.745 -0.1655  1.3606  0.4870
    3SAPS   HN3  270   2.214   5.551   9.806 -0.6523  0.4678 -0.4225
    3SAPS   C12  271   2.131   5.368   9.874  0.9829  0.2874  0.2589
    3SAPS  H12A  272   2.226   5.320   9.892  0.4640  0.0207  2.6202
    3SAPS   C13  273   2.086   5.425  10.015  0.2118  0.2786  0.1024
    3SAPS  O13A  274   2.072   5.549  10.031  0.0988  0.0488  0.3407
    3SAPS  O13B  275   2.080   5.346  10.112 -0.2648  0.2879 -0.3921
    3SAPS   C11  276   2.036   5.266   9.815 -0.1798  0.0656 -0.0784
    3SAPS  H11A  277   1.943   5.321   9.788  1.2512  2.2838 -0.7819
    3SAPS  H11B  278   2.009   5.188   9.889  2.9530 -3.0218 -1.8948
    3SAPS     P  279   2.055   5.051   9.679 -0.1796 -0.1802 -0.1892
    3SAPS   O13  280   2.109   5.010   9.546  0.1306  0.4280 -0.0452
    3SAPS   O14  281   2.096   4.965   9.793  0.1454  0.0335 -0.1092
    3SAPS   O12  282   2.101   5.201   9.705  0.3331 -0.3774  0.9211
    3SAPS   O11  283   1.888   5.046   9.666  0.2277 -0.4676 -0.2002
    3SAPS    C1  284   1.828   5.105   9.555 -0.1048 -0.1487 -0.2262
    3SAPS    HA  285   1.735   5.153   9.591  0.4346 -0.5517  1.8183
    3SAPS    HB  286   1.892   5.183   9.509  1.7502 -1.8361 -0.6509
    3SAPS    C2  287   1.799   5.001   9.440 -0.5779 -0.1561 -0.0092
    3SAPS    HS  288   1.835   4.904   9.480  0.9244  1.2779  2.3840
    3SAPS   O21  289   1.873   5.046   9.328  0.3322 -0.3606  0.4251
    3SAPS   C21  290   1.903   4.945   9.247 -0.3489 -0.4035  0.1286
    3SAPS   O22  291   1.876   4.830   9.262  0.6894  0.4024 -0.2492
    3SAPS   C22  292   1.959   5.014   9.117  0.3267 -0.2157  0.0661
    3SAPS   H2R  293   1.906   5.111   9.104 -1.4380 -1.4214 -2.4830
    3SAPS   H2S  294   2.065   5.031   9.147 -0.7842  2.2079  3.1364
    3SAPS    C3  295   1.645   4.988   9.419  0.1139 -0.0595  0.7687
    3SAPS    HX  296   1.599   4.930   9.502 -1.0714 -1.9434 -1.0925
    3SAPS    HY  297   1.624   4.912   9.340 -0.1984 -0.5958  1.3618
    3SAPS   O31  298   1.574   5.114   9.395  0.1821 -0.0987  0.1495
    3SAPS   C31  299   1.571   5.157   9.261  0.5576 -0.2828  0.0292
    3SAPS   O32  300   1.630   5.104   9.171  0.0965 -0.1590 -0.0043
    3SAPS   C32  301   1.494   5.285   9.247  0.3794  0.2241  0.4973
    3SAPS   H2X  302   1.548   5.366   9.300 -4.2424  2.6747  1.9868
    3SAPS   H2Y  303   1.405   5.261   9.310 -0.0270 -1.1174 -0.5321
    3SAPS   C23  304   1.942   4.926   8.990 -0.4009 -0.2716  0.1542
    3SAPS   H3R  305   1.978   4.824   9.012 -2.1618 -0.9570  0.0200
    3SAPS   H3S  306   1.997   4.967   8.902 -0.9591  0.2694  0.0464
    3SAPS   C24  307   1.796   4.922   8.956  0.3604  0.1820 -0.0971
    3SAPS   H4R  308   1.758   5.022   8.926  0.7382  0.6062  0.8002
    3SAPS   H4S  309   1.737   4.890   9.044  0.6628  0.1823  0.1087
    3SAPS   C25  310   1.769   4.824   8.846 -0.3063  0.2252 -0.1519
    3SAPS   H5R  311   1.734   4.725   8.879  1.8493 -2.3778 -4.6326
    3SAPS   C26  312   1.799   4.846   8.719  0.2775  0.4727  0.3707
    3SAPS   H6R  313   1.793   4.759   8.652  4.2249  1.3857 -1.4789
    3SAPS   C27  314   1.852   4.975   8.654 -0.9208 -0.3440  0.3492
    3SAPS   H7R  315   1.955   4.977   8.611 -1.3064  2.1682 -0.6247
    3SAPS   H7S  316   1.864   5.064   8.720  0.9212 -0.6194  0.4436
    3SAPS   C28  317   1.766   5.007   8.532  0.8641 -0.7500 -0.3024
    3SAPS   H8R  318   1.686   5.079   8.555  1.5118  0.5815 -1.9629
    3SAPS   C29  319   1.754   4.937   8.414 -0.4653  0.4818  0.4270
    3SAPS   H9R  320   1.680   4.968   8.339  0.3725 -0.0610 -0.6364
    3SAPS  C210  321   1.846   4.816   8.386  0.7252 -0.7034  0.2202
    3SAPS  H10R  322   1.778   4.729   8.375 -0.7117  0.2734  1.0127
    3SAPS  H10S  323   1.917   4.812   8.472  0.2896  2.8808  0.9226
    3SAPS  C211  324   1.932   4.861   8.271 -0.1731  0.0091  0.5124
    3SAPS  H11R  325   1.983   4.957   8.285 -0.6433  0.3518 -0.1155
    3SAPS  C212  326   1.947   4.788   8.158  0.2024 -0.2591  0.0970
    3SAPS  H12R  327   2.000   4.846   8.081  0.7209 -2.0666 -0.9388
    3SAPS  C213  328   1.893   4.657   8.122 -0.2500 -0.6493 -0.9829
    3SAPS  H13R  329   1.783   4.675   8.117 -0.1871  0.1093  0.0759
    3SAPS  H13S  330   1.909   4.580   8.200 -1.1852 -1.1042 -1.2248
    3SAPS  C214  331   1.945   4.613   7.985 -0.1341 -0.0835 -0.0034
    3SAPS  H14R  332   2.050   4.638   7.965 -0.0417 -1.3837 -1.2600
    3SAPS  C215  333   1.871   4.563   7.880  0.4075  0.6680  0.1175
    3SAPS  H15R  334   1.928   4.516   7.799  2.0444  1.8637  0.5082
    3SAPS  C216  335   1.720   4.537   7.881 -0.1993 -0.3150 -0.3773
    3SAPS  H16R  336   1.673   4.578   7.972 -0.6972 -1.7612  0.0536
    3SAPS  H16S  337   1.715   4.426   7.880  1.5858 -0.4856 -3.2484
    3SAPS  C217  338   1.636   4.575   7.764 -0.1571 -0.3103  0.5514
    3SAPS  H17R  339   1.639   4.685   7.746  2.0147 -0.4726 -0.3395
    3SAPS  H17S  340   1.529   4.553   7.785  0.3451 -0.8894  2.7284
    3SAPS  C218  341   1.667   4.506   7.625  0.4386 -0.4741  0.4013
    3SAPS  H18R  342   1.661   4.395   7.637  4.6124 -1.1918 -2.0826
    3SAPS  H18S  343   1.770   4.528   7.588 -0.7514  5.2268 -0.4747
    3SAPS  C219  344   1.556   4.561   7.528  0.5173  0.2292 -0.1866
    3SAPS  H19R  345   1.577   4.668   7.507 -2.6373  1.2477  1.2704
    3SAPS  H19S  346   1.459   4.554   7.580  1.5835 -2.1251  1.6561
    3SAPS  C220  347   1.550   4.491   7.393 -0.1414 -0.5311  0.0161
    3SAPS  H20R  348   1.447   4.511   7.358 -0.2942 -1.3520 -0.0251
    3SAPS  H20S  349   1.566   4.382   7.404  0.5944 -0.5739 -1.3125
    3SAPS  H20T  350   1.640   4.532   7.342  0.3880  0.2409  1.4870
    3SAPS   C33  351   1.460   5.335   9.105  0.5477  0.7571 -0.5745
    3SAPS   H3X  352   1.553   5.327   9.045  2.3010  0.0478  2.0150
    3SAPS   H3Y  353   1.440   5.443   9.120  0.6037  0.5622  1.1431
    3SAPS   C34  354   1.327   5.288   9.038 -0.8357 -0.0269 -0.1060
    3SAPS   H4X  355   1.254   5.268   9.120 -2.1723  0.0472 -1.2450
    3SAPS   H4Y  356   1.341   5.187   8.995  1.2723  0.6414 -1.1165
    3SAPS   C35  357   1.269   5.387   8.942 -0.4510  0.4430  0.4483
    3SAPS   H5X  358   1.244   5.477   9.003  1.9061  1.9875 -0.7293
    3SAPS   H5Y  359   1.169   5.343   8.920  0.3250 -1.5331  0.6846
    3SAPS   C36  360   1.351   5.403   8.812 -0.2145 -0.8025 -0.2904
    3SAPS   H6X  361   1.457   5.422   8.843  0.2067  2.2300 -3.0559
    3SAPS   H6Y  362   1.314   5.502   8.777 -2.9152 -1.3120  0.8801
    3SAPS   C37  363   1.340   5.292   8.708 -0.1243 -0.3292 -0.1099
    3SAPS   H7X  364   1.233   5.287   8.680  0.5318  2.8537 -4.1223
    3SAPS   H7Y  365   1.375   5.200   8.760 -2.5672 -1.5457 -0.4550
    3SAPS   C38  366   1.432   5.315   8.586  0.1535 -0.0080  0.8118
    3SAPS   H8X  367   1.541   5.309   8.606  0.1983  1.9189  1.3678
    3SAPS   H8Y  368   1.410   5.416   8.544  0.1339 -0.2019  0.3496
    3SAPS   C39  369   1.406   5.218   8.473 -0.6589 -0.2485  0.4570
    3SAPS   H9X  370   1.305   5.221   8.428 -0.0620  1.6513 -0.8811
    3SAPS   H9Y  371   1.420   5.120   8.524 -0.2257 -1.5430 -1.9950
    3SAPS  C310  372   1.503   5.229   8.350  0.7957 -0.3005  0.0471
    3SAPS  H10X  373   1.609   5.238   8.380  0.3227  1.8070  1.2063
    3SAPS  H10Y  374   1.477   5.327   8.305  1.7555  0.6446  1.4846
    3SAPS  C311  375   1.468   5.116   8.251  0.2089 -0.4931 -0.5441
    3SAPS  H11X  376   1.366   5.145   8.219  0.4650  0.0814 -0.8596
    3SAPS  H11Y  377   1.455   5.017   8.300 -1.6416  0.4267  0.9702
    3SAPS  C312  378   1.560   5.109   8.124 -0.7897 -0.0060 -0.1254
    3SAPS  H12X  379   1.664   5.097   8.161 -0.4732  0.1535 -0.9478
    3SAPS  H12Y  380   1.546   5.209   8.076 -0.9522 -0.4557 -1.0430
    3SAPS  C313  381   1.531   4.989   8.040  0.3753  0.3487  0.4410
    3SAPS  H13X  382   1.425   4.984   8.005 -0.4082  1.1597  2.5397
    3SAPS  H13Y  383   1.550   4.900   8.102 -3.1148 -1.4730 -0.8035
    3SAPS  C314  384   1.611   4.975   7.909  0.9443  0.1990  0.1342
    3SAPS  H14X  385   1.585   4.877   7.865  2.2477 -0.4787  0.8329
    3SAPS  H14Y  386   1.720   4.964   7.922  0.8292 -0.3038  0.7191
    3SAPS  C315  387   1.580   5.090   7.814 -0.4732 -1.0071  0.3107
    3SAPS  H15X  388   1.627   5.186   7.844 -0.7535 -1.3193  1.8591
    3SAPS  H15Y  389   1.472   5.119   7.819 -0.8600 -1.8668 -1.9541
    3SAPS  C316  390   1.612   5.050   7.666 -0.9512  0.7020 -0.0397
    3SAPS  H16X  391   1.541   5.104   7.600 -1.4928  1.4519  1.1097
    3SAPS  H16Y  392   1.596   4.941   7.649 -0.4453  0.4696  0.9190
    3SAPS  C317  393   1.761   5.080   7.626  0.4871 -0.4657 -0.0336
    3SAPS  H17X  394   1.803   5.172   7.674  1.1176 -0.8620  0.1818
    3SAPS  H17Y  395   1.764   5.093   7.516 -0.9220 -0.2589 -0.0661
    3SAPS  C318  396   1.870   4.972   7.663  0.3985  0.2761  0.1971
    3SAPS  H18X  397   1.845   4.870   7.628 -0.4786  0.1474  1.1740
    3SAPS  H18Y  398   1.890   4.975   7.772 -0.5428  0.1850  0.3749
    3SAPS  H18Z  399   1.965   4.993   7.609 -0.0955 -2.0410 -1.7494
    4SAPS     N  400   3.651   6.101   9.799  0.6067 -0.1534  0.9542
    4SAPS   HN1  401   3.606   6.038   9.868 -1.8355 -0.3017 -0.6444
    4SAPS   HN2  402   3.615   6.077   9.704 -0.0575  0.1732  1.1129
    4SAPS   HN3  403   3.753   6.084   9.794  0.5237 -0.3198 -0.6025
    4SAPS   C12  404   3.602   6.240   9.836  0.3546 -0.8723 -0.3727
    4SAPS  H12A  405   3.494   6.241   9.836  0.3544 -0.7405 -0.8023
    4SAPS   C13  406   3.655   6.283   9.980  0.4377 -0.4882  0.0690
    4SAPS  O13A  407   3.732   6.206  10.046 -0.0739  0.3215  0.9575
    4SAPS  O13B  408   3.596   6.385  10.032  0.6818  0.0714  0.3319
    4SAPS   C11  409   3.654   6.343   9.730  0.1167 -0.4743  0.0479
    4SAPS  H11A  410   3.614   6.443   9.757 -1.5155 -1.3073  0.8715
    4SAPS  H11B  411   3.612   6.307   9.634 -1.7858 -1.4238  1.1894
    4SAPS     P  412   3.863   6.455   9.631  0.2905  0.4308  0.1225
    4SAPS   O13  413   3.823   6.591   9.678  0.2097 -0.0846 -0.1329
    4SAPS   O14  414   4.008   6.426   9.636 -0.1153  0.0076 -0.2007
    4SAPS   O12  415   3.795   6.341   9.723  0.0207  0.1458 -0.5877
    4SAPS   O11  416   3.799   6.413   9.502  0.1122  0.2457 -0.2834
    4SAPS    C1  417   3.836   6.278   9.459 -0.1640 -0.7698  0.1443
    4SAPS    HA  418   3.916   6.226   9.516 -1.9527 -0.5529  3.0899
    4SAPS    HB  419   3.753   6.204   9.467 -0.7129 -0.1545  0.2209
    4SAPS    C2  420   3.897   6.270   9.315  0.9266  0.0045 -0.6849
    4SAPS    HS  421   3.911   6.163   9.287 -0.8221 -0.3786 -0.2302
    4SAPS   O21  422   4.016   6.351   9.321 -0.0348 -0.4375 -0.3854
    4SAPS   C21  423   4.135   6.286   9.327 -0.5555 -0.2350 -0.2263
    4SAPS   O22  424   4.150   6.166   9.325  0.6588 -0.1416  0.5116
    4SAPS   C22  425   4.256   6.384   9.340  0.6750 -0.0593 -0.3172
    4SAPS   H2R  426   4.223   6.485   9.308  0.2248  0.9481  2.9324
    4SAPS   H2S  427   4.285   6.400   9.446 -1.2400 -0.7880  0.3419
    4SAPS    C3  428   3.802   6.327   9.214 -0.1071 -0.1215  0.2424
    4SAPS    HX  429   3.795   6.438   9.222  1.5527 -0.0214  0.6326
    4SAPS    HY  430   3.697   6.295   9.230 -0.2358 -0.4251 -1.1579
    4SAPS   O31  431   3.835   6.300   9.074 -0.7972 -0.0353  0.1094
    4SAPS   C31  432   3.804   6.175   9.028  0.5442 -0.7281 -0.7004
    4SAPS   O32  433   3.743   6.098   9.103  0.1487  0.2573 -0.1427
    4SAPS   C32  434   3.846   6.167   8.882  1.1376 -0.1404 -0.3520
    4SAPS   H2X  435   3.957   6.174   8.878  1.2737 -2.0677 -0.6854
    4SAPS   H2Y  436   3.802   6.258   8.836  2.7468 -0.0083 -1.7278
    4SAPS   C23  437   4.378   6.344   9.259 -0.2482 -0.0973  0.0755
    4SAPS   H3R  438   4.364   6.333   9.150 -1.5883  0.9863  0.1090
    4SAPS   H3S  439   4.407   6.249   9.309  1.0568 -0.4865 -1.3424
    4SAPS   C24  440   4.497   6.441   9.282 -0.5967 -0.3792  0.1848
    4SAPS   H4R  441   4.581   6.385   9.236 -0.4020 -1.1291  1.3994
    4SAPS   H4S  442   4.524   6.445   9.390 -2.2505 -0.2144  0.6206
    4SAPS   C25  443   4.478   6.573   9.217 -0.4366  0.3299  0.5242
    4SAPS   H5R  444   4.388   6.630   9.242  0.3408  2.9818 -2.0587
    4SAPS   C26  445   4.553   6.624   9.119 -0.0802 -0.5124 -0.2697
    4SAPS   H6R  446   4.526   6.725   9.083  0.6410 -0.6786 -1.3055
    4SAPS   C27  447   4.677   6.581   9.056  0.2028 -0.0292 -0.0048
    4SAPS   H7R  448   4.737   6.511   9.117 -0.5641 -0.0926  0.6879
    4SAPS   H7S  449   4.743   6.668   9.032 -0.2369 -0.3514 -2.7013
    4SAPS   C28  450   4.650   6.505   8.931 -0.1945  0.6147 -0.1750
    4SAPS   H8R  451   4.608   6.406   8.956 -1.6836  1.3142  0.1913
    4SAPS   C29  452   4.665   6.537   8.800 -0.8226 -0.3304 -0.1232
    4SAPS   H9R  453   4.650   6.457   8.726 -1.4562  0.2369 -0.6130
    4SAPS  C210  454   4.729   6.660   8.735  0.9067  0.1414 -0.1406
    4SAPS  H10R  455   4.764   6.734   8.810  0.5932 -0.7854  0.9575
    4SAPS  H10S  456   4.637   6.704   8.690  1.1068 -0.3672 -1.0793
    4SAPS  C211  457   4.831   6.625   8.635 -0.5054  0.9989  0.0427
    4SAPS  H11R  458   4.910   6.557   8.669 -1.6018 -0.2788  0.1424
    4SAPS  C212  459   4.824   6.650   8.500 -0.4336 -0.3446 -0.5676
    4SAPS  H12R  460   4.910   6.628   8.434  0.8691  1.7606  0.3459
    4SAPS  C213  461   4.702   6.719   8.437  0.5668 -0.1256  0.1776
    4SAPS  H13R  462   4.660   6.803   8.497  0.2150 -0.7671  0.8467
    4SAPS  H13S  463   4.622   6.642   8.437  1.0421 -0.6201 -0.1358
    4SAPS  C214  464   4.720   6.754   8.290 -1.0707 -0.4098  0.3140
    4SAPS  H14R  465   4.822   6.779   8.256 -1.2377 -1.4383 -1.0569
    4SAPS  C215  466   4.623   6.791   8.209  0.9892  0.2719  0.1219
    4SAPS  H15R  467   4.642   6.832   8.108 -0.2941  2.4433  0.7085
    4SAPS  C216  468   4.474   6.786   8.247 -0.0716  1.0252  0.1271
    4SAPS  H16R  469   4.465   6.716   8.333 -0.7081  1.3440  0.3238
    4SAPS  H16S  470   4.420   6.740   8.162  1.7662 -0.4148 -0.3358
    4SAPS  C217  471   4.404   6.920   8.284  0.9370 -0.4197  0.2229
    4SAPS  H17R  472   4.466   6.975   8.358  1.4925 -1.4236  0.5161
    4SAPS  H17S  473   4.314   6.890   8.342 -0.5972  3.2191 -0.0248
    4SAPS  C218  474   4.347   7.014   8.169  1.1779  0.8614 -0.1795
    4SAPS  H18R  475   4.319   7.115   8.205  2.4367  0.4870  2.0486
    4SAPS  H18S  476   4.256   6.968   8.125  1.1106 -0.8061  1.5508
    4SAPS  C219  477   4.440   7.032   8.049 -0.0533 -0.0474  0.3116
    4SAPS  H19R  478   4.470   6.938   7.999  1.2324  1.3116 -1.6090
    4SAPS  H19S  479   4.531   7.080   8.091  1.0697 -0.7242 -1.2694
    4SAPS  C220  480   4.374   7.110   7.934 -0.8266  0.2729  0.2026
    4SAPS  H20R  481   4.349   7.212   7.969  1.4356  1.6371 -1.8351
    4SAPS  H20S  482   4.277   7.063   7.906  0.0715  0.0351 -2.8558
    4SAPS  H20T  483   4.437   7.112   7.842  0.1027  0.1332  0.8173
    4SAPS   C33  484   3.800   6.036   8.816 -0.1142  0.1250  0.1127
    4SAPS   H3X  485   3.690   6.039   8.805 -0.3517  1.7986  2.3668
    4SAPS   H3Y  486   3.827   5.951   8.883  1.3490 -0.3597 -1.0261
    4SAPS   C34  487   3.862   6.024   8.673 -0.2751  0.0421 -0.6862
    4SAPS   H4X  488   3.973   6.036   8.675 -0.1948 -0.0450 -2.4629
    4SAPS   H4Y  489   3.813   6.105   8.614 -1.8418  0.6006  1.2745
    4SAPS   C35  490   3.818   5.889   8.620 -0.1868 -0.3333  0.1092
    4SAPS   H5X  491   3.712   5.915   8.601  0.4723  3.0965  0.4166
    4SAPS   H5Y  492   3.827   5.820   8.706 -0.8035 -1.1204 -0.4531
    4SAPS   C36  493   3.895   5.839   8.500 -0.2224  0.0243  0.4475
    4SAPS   H6X  494   3.947   5.742   8.516 -0.0498  0.2150  1.0616
    4SAPS   H6Y  495   3.969   5.919   8.481 -0.5419  0.5507  1.3701
    4SAPS   C37  496   3.808   5.829   8.376  0.5661  0.4051  0.9808
    4SAPS   H7X  497   3.762   5.930   8.371  2.2069  1.1243 -2.4767
    4SAPS   H7Y  498   3.727   5.758   8.402 -0.0687  0.3866 -0.9004
    4SAPS   C38  499   3.885   5.813   8.238 -0.5202  0.1289 -0.2593
    4SAPS   H8X  500   3.949   5.899   8.212 -0.7568 -0.1455 -1.7990
    4SAPS   H8Y  501   3.809   5.820   8.158  0.4930 -1.9479 -1.4639
    4SAPS   C39  502   3.974   5.691   8.224  0.0814 -0.1151  0.0621
    4SAPS   H9X  503   3.911   5.601   8.213  0.5819 -0.4662  0.0181
    4SAPS   H9Y  504   4.028   5.663   8.317 -1.4532 -2.8256  0.2438
    4SAPS  C310  505   4.057   5.709   8.098  0.5540  0.3334 -0.1632
    4SAPS  H10X  506   4.116   5.803   8.113 -0.7248  0.8973  1.6163
    4SAPS  H10Y  507   3.989   5.731   8.012 -1.0668 -1.9935  0.4331
    4SAPS  C311  508   4.152   5.596   8.070 -0.9603 -0.8140 -0.2607
    4SAPS  H11X  509   4.080   5.512   8.078 -1.7037 -0.1088  0.6675
    4SAPS  H11Y  510   4.222   5.594   8.156 -0.1683 -0.2433 -0.8668
    4SAPS  C312  511   4.234   5.633   7.945 -0.4101  0.0570  0.6298
    4SAPS  H12X  512   4.292   5.725   7.972 -1.8079  1.3190 -0.4826
    4SAPS  H12Y  513   4.164   5.641   7.859 -0.1557  0.5640  0.4605
    4SAPS  C313  514   4.337   5.518   7.908  0.0952  0.4211 -0.2034
    4SAPS  H13X  515   4.281   5.442   7.849 -0.4428  2.0791 -1.9097
    4SAPS  H13Y  516   4.376   5.488   8.007 -1.2441  2.4588  1.0137
    4SAPS  C314  517   4.457   5.559   7.818  0.0352  0.2549 -0.5806
    4SAPS  H14X  518   4.498   5.463   7.779  1.6722  0.1987  1.1079
    4SAPS  H14Y  519   4.527   5.609   7.889 -0.7782  0.6476 -0.0426
    4SAPS  C315  520   4.420   5.636   7.688  0.3278 -0.4549 -0.5588
    4SAPS  H15X  521   4.502   5.705   7.661  0.7501 -0.9071 -0.4530
    4SAPS  H15Y  522   4.338   5.710   7.699 -0.4985 -1.5032  0.8612
    4SAPS  C316  523   4.403   5.540   7.570  0.2892 -0.4375  0.3457
    4SAPS  H16X  524   4.320   5.468   7.585  1.0113 -1.7862 -1.6197
    4SAPS  H16Y  525   4.486   5.469   7.553  2.1464  0.9508  2.9719
    4SAPS  C317  526   4.367   5.624   7.444  0.5667 -0.6600  0.8943
    4SAPS  H17X  527   4.315   5.721   7.459 -1.1296 -1.4859  0.6924
    4SAPS  H17Y  528   4.287   5.568   7.390  0.9979 -1.6954  1.2974
    4SAPS  C318  529   4.491   5.643   7.361 -0.4431  0.1753 -0.3224
    4SAPS  H18X  530   4.575   5.695   7.412  0.0753 -1.1102  0.1648
    4SAPS  H18Y  531   4.477   5.708   7.272  2.4196  1.5046  0.0831
    4SAPS  H18Z  532   4.527   5.546   7.321 -1.0231 -0.4221  0.5714
    5SAPS     N  533   6.645   4.471   9.779  0.4809 -0.4222  0.5758
    5SAPS   HN1  534   6.631   4.380   9.828  0.9365 -0.9056 -0.1787
    5SAPS   HN2  535   6.675   4.449   9.682  1.2913 -1.4562  1.0368
    5SAPS   HN3  536   6.717   4.530   9.825  1.6722  1.8642 -3.7330
    5SAPS   C12  537   6.523   4.550   9.762 -0.0573 -0.4742 -0.6957
    5SAPS  H12A  538   6.448   4.472   9.764  0.7600 -1.2535  0.2190
    5SAPS   C13  539   6.501   4.650   9.882  0.0676 -0.6022 -0.2894
    5SAPS  O13A  540   6.573   4.646   9.983  0.0024 -0.3546 -0.3590
    5SAPS  O13B  541   6.382   4.704   9.896 -0.7625 -0.4961  0.4208
    5SAPS   C11  542   6.527   4.641   9.629 -0.4301 -0.0141 -0.5737
    5SAPS  H11A  543   6.438   4.706   9.619  0.8478  1.8514 -0.4552
    5SAPS  H11B  544   6.521   4.568   9.546  0.6995 -3.0956  1.8506
    5SAPS     P  545   6.655   4.862   9.558  0.0353  0.1810  0.2468
    5SAPS   O13  546   6.535   4.939   9.604  0.2090 -0.4399  0.4170
    5SAPS   O14  547   6.779   4.932   9.584 -0.0099 -0.4607  0.2986
    5SAPS   O12  548   6.650   4.715   9.616  0.5226 -0.2107  0.2546
    5SAPS   O11  549   6.640   4.845   9.401  0.4712  0.9695 -0.1407
    5SAPS    C1  550   6.690   4.724   9.332  0.4542 -0.5744 -0.5095
    5SAPS    HA  551   6.675   4.634   9.395 -1.4190  1.1997  1.7768
    5SAPS    HB  552   6.625   4.707   9.243  0.6217 -0.7000 -0.6082
    5SAPS    C2  553   6.828   4.752   9.265 -0.4034 -0.6080  0.1103
    5SAPS    HS  554   6.896   4.766   9.351  0.0050 -0.9396 -0.1516
    5SAPS   O21  555   6.815   4.869   9.183  0.2651 -0.0638  0.1414
    5SAPS   C21  556   6.908   4.964   9.208  0.7058  0.3706  0.4095
    5SAPS   O22  557   7.012   4.947   9.266 -0.4502  0.0544  0.3553
    5SAPS   C22  558   6.858   5.095   9.160  0.3567  0.0146 -0.6407
    5SAPS   H2R  559   6.773   5.117   9.228  0.1590  1.2129 -1.2419
    5SAPS   H2S  560   6.934   5.176   9.170  1.1336 -0.7941  0.0615
    5SAPS    C3  561   6.883   4.633   9.171 -0.0525  0.3040 -0.7003
    5SAPS    HX  562   6.794   4.613   9.109 -0.4198  2.6197 -1.0098
    5SAPS    HY  563   6.896   4.544   9.237  1.1139  0.7700 -0.2732
    5SAPS   O31  564   7.003   4.666   9.087  0.5385  0.4918  0.4096
    5SAPS   C31  565   7.122   4.668   9.149  0.0797 -0.1097 -0.3654
    5SAPS   O32  566   7.138   4.644   9.270 -0.3691  0.2407  0.1450
    5SAPS   C32  567   7.234   4.689   9.044 -0.1271  0.1548 -0.0714
    5SAPS   H2X  568   7.320   4.631   9.083  0.3931  0.6241 -0.5114
    5SAPS   H2Y  569   7.268   4.794   9.059 -1.6930  0.7093 -0.1645
    5SAPS   C23  570   6.799   5.096   9.017  0.2146  0.4499 -0.4574
    5SAPS   H3R  571   6.714   5.026   9.006  0.7118 -0.6224  1.8626
    5SAPS   H3S  572   6.878   5.059   8.949  0.7675 -0.7629  0.7944
    5SAPS   C24  573   6.753   5.226   8.962 -0.2006  0.1153 -0.0317
    5SAPS   H4R  574   6.745   5.236   8.851 -1.1473  0.7654  0.0795
    5SAPS   H4S  575   6.831   5.302   8.986 -0.7666  0.4888  0.6389
    5SAPS   C25  576   6.624   5.276   9.017 -0.3868  0.3421 -0.3635
    5SAPS   H5R  577   6.613   5.329   9.113 -0.8864 -0.2283 -0.0965
    5SAPS   C26  578   6.504   5.234   8.967  0.0487 -0.0465  0.3440
    5SAPS   H6R  579   6.411   5.276   9.009 -0.4433 -0.4846 -0.2795
    5SAPS   C27  580   6.483   5.155   8.837 -0.0164 -0.5954 -0.2613
    5SAPS   H7R  581   6.567   5.092   8.802  2.7174  1.2193  2.5130
    5SAPS   H7S  582   6.473   5.223   8.749  0.4587 -0.4517 -0.2048
    5SAPS   C28  583   6.358   5.079   8.859  0.4837  0.3542  0.3238
    5SAPS   H8R  584   6.270   5.139   8.888  0.3253  0.9495 -1.2930
    5SAPS   C29  585   6.338   4.950   8.829  0.2602 -0.0662 -0.0991
    5SAPS   H9R  586   6.239   4.903   8.840  0.6245 -0.4479  1.7862
    5SAPS  C210  587   6.438   4.852   8.778  0.0311  0.9012  0.0727
    5SAPS  H10R  588   6.506   4.902   8.705  1.4666 -1.1012 -0.0315
    5SAPS  H10S  589   6.377   4.778   8.723 -1.1942  2.5540 -0.9001
    5SAPS  C211  590   6.528   4.786   8.871  0.7343 -0.2851 -0.4407
    5SAPS  H11R  591   6.484   4.784   8.972 -1.8517 -0.8514 -1.4804
    5SAPS  C212  592   6.642   4.710   8.858  0.1958  0.2612 -0.3676
    5SAPS  H12R  593   6.697   4.674   8.947  2.5191 -0.2449 -1.9199
    5SAPS  C213  594   6.706   4.685   8.725 -0.1450  0.2449  0.4504
    5SAPS  H13R  595   6.629   4.641   8.658  0.3966 -1.6838  1.0358
    5SAPS  H13S  596   6.778   4.602   8.738  0.1512  0.5853  1.0579
    5SAPS  C214  597   6.781   4.807   8.679  0.5156 -0.7331 -0.5239
    5SAPS  H14R  598   6.748   4.907   8.711 -0.1507 -0.7097 -1.2613
    5SAPS  C215  599   6.887   4.802   8.600  1.1929  0.8271  0.2005
    5SAPS  H15R  600   6.936   4.898   8.579  1.2987  1.1835  1.9449
    5SAPS  C216  601   6.946   4.676   8.539 -0.7450  0.6971  0.3086
    5SAPS  H16R  602   6.894   4.584   8.573  0.1828  0.1189  0.1868
    5SAPS  H16S  603   7.048   4.670   8.582  0.3338 -0.5059 -2.2196
    5SAPS  C217  604   6.985   4.681   8.389 -0.7223  1.0404  0.5479
    5SAPS  H17R  605   7.056   4.762   8.360  0.9806 -0.4804  0.2804
    5SAPS  H17S  606   6.895   4.693   8.324  0.3100  0.7539 -0.9851
    5SAPS  C218  607   7.064   4.551   8.349  0.5850 -0.7926  0.2962
    5SAPS  H18R  608   7.135   4.514   8.426  0.6715 -3.5054 -0.9478
    5SAPS  H18S  609   6.992   4.468   8.329  0.5956 -0.6697 -0.2557
    5SAPS  C219  610   7.142   4.556   8.216  0.3966 -0.5424 -0.1196
    5SAPS  H19R  611   7.218   4.635   8.235 -1.3003  0.7303  1.7854
    5SAPS  H19S  612   7.078   4.593   8.134  0.0441  2.4893  1.3666
    5SAPS  C220  613   7.193   4.421   8.164  0.0720 -0.7344 -0.0674
    5SAPS  H20R  614   7.256   4.366   8.237  0.0478  0.7851  1.1498
    5SAPS  H20S  615   7.269   4.434   8.084  0.3704  1.7778  0.5307
    5SAPS  H20T  616   7.109   4.361   8.123 -0.5118  1.2247 -1.9448
    5SAPS   C33  617   7.195   4.650   8.900  0.2196  0.3066 -0.1128
    5SAPS   H3X  618   7.140   4.738   8.860 -1.4090 -0.5265  0.2015
    5SAPS   H3Y  619   7.131   4.559   8.899 -0.4404  0.7473  0.5146
    5SAPS   C34  620   7.313   4.649   8.804 -0.0052 -0.4654 -0.9976
    5SAPS   H4X  621   7.376   4.733   8.838 -1.4955  0.0612  0.6445
    5SAPS   H4Y  622   7.279   4.681   8.703 -1.4894  0.9258 -0.1030
    5SAPS   C35  623   7.385   4.518   8.813 -0.1249  0.1851  0.2384
    5SAPS   H5X  624   7.313   4.437   8.790 -0.9386  0.7434  0.7579
    5SAPS   H5Y  625   7.422   4.497   8.915 -0.9644 -1.9920  0.1349
    5SAPS   C36  626   7.511   4.507   8.721 -0.0223 -0.3314  0.0099
    5SAPS   H6X  627   7.586   4.432   8.752 -1.2035 -0.8624  1.6982
    5SAPS   H6Y  628   7.566   4.604   8.731  0.9880 -0.9437  0.5367
    5SAPS   C37  629   7.464   4.476   8.580 -0.3422 -0.6098  0.8855
    5SAPS   H7X  630   7.406   4.566   8.550 -0.1985 -0.3687  1.3261
    5SAPS   H7Y  631   7.402   4.384   8.573  0.9446 -1.4158 -0.5640
    5SAPS   C38  632   7.580   4.452   8.473 -0.2378  0.1925  0.0340
    5SAPS   H8X  633   7.651   4.371   8.501 -0.7054 -0.0592  0.5187
    5SAPS   H8Y  634   7.646   4.542   8.473 -0.4114  0.3357  1.0155
    5SAPS   C39  635   7.512   4.433   8.332 -0.2967 -0.2896 -0.8280
    5SAPS   H9X  636   7.461   4.528   8.304 -1.1490 -0.0727  1.2701
    5SAPS   H9Y  637   7.429   4.359   8.336 -2.2636  1.8435  0.3658
    5SAPS  C310  638   7.614   4.380   8.222  1.4810  0.0332  0.0317
    5SAPS  H10X  639   7.555   4.389   8.129  0.1403  3.1810  1.0290
    5SAPS  H10Y  640   7.638   4.276   8.250 -0.3914 -0.2541  0.7200
    5SAPS  C311  641   7.734   4.477   8.210  0.0607  0.0671 -0.7379
    5SAPS  H11X  642   7.795   4.439   8.125 -0.2330  1.3097 -1.5315
    5SAPS  H11Y  643   7.797   4.466   8.300  1.2581  0.9583 -1.4362
    5SAPS  C312  644   7.700   4.626   8.185 -0.0552 -0.1993 -0.4147
    5SAPS  H12X  645   7.668   4.684   8.274  0.5020 -1.5870  0.7146
    5SAPS  H12Y  646   7.615   4.629   8.113 -0.2409 -1.6943 -0.2853
    5SAPS  C313  647   7.818   4.703   8.118 -0.7376  0.9699 -0.9040
    5SAPS  H13X  648   7.847   4.647   8.026  0.5959  1.3749 -0.7466
    5SAPS  H13Y  649   7.899   4.692   8.193  0.7703 -1.5181 -2.7344
    5SAPS  C314  650   7.760   4.836   8.091 -0.0437 -0.0584 -0.0716
    5SAPS  H14X  651   7.720   4.871   8.189  2.0685 -0.7912  1.1102
    5SAPS  H14Y  652   7.677   4.824   8.018 -1.7115  2.1724  1.3471
    5SAPS  C315  653   7.876   4.937   8.070  0.1227 -1.1036  0.2877
    5SAPS  H15X  654   7.937   4.902   7.984 -1.6680 -1.5320 -0.8729
    5SAPS  H15Y  655   7.925   4.931   8.169  0.7094  0.1525  0.0832
    5SAPS  C316  656   7.822   5.079   8.040  0.7202  0.2300  0.4315
    5SAPS  H16X  657   7.748   5.108   8.118  0.3765 -1.4153  0.7497
    5SAPS  H16Y  658   7.766   5.079   7.944  0.7051 -1.4949  0.4100
    5SAPS  C317  659   7.940   5.169   8.006 -0.0520 -0.2584  0.3447
    5SAPS  H17X  660   7.984   5.123   7.915  0.5325 -0.7505  0.8755
    5SAPS  H17Y  661   8.012   5.159   8.090  1.3026 -1.1858 -0.8748
    5SAPS  C318  662   7.898   5.313   7.971  0.2413 -0.9455  0.0916
    5SAPS  H18X  663   7.839   5.361   8.052 -2.7888  3.0402 -3.9794
    5SAPS  H18Y  664   7.817   5.312   7.894  0.3477 -0.5124 -0.0281
    5SAPS  H18Z  665   7.987   5.371   7.942  0.8210 -1.3615  0.9912
    6SAPS     N  666   0.037   3.332   9.732  0.4604  0.1581  0.0362
    6SAPS   HN1  667  -0.051   3.371   9.693  0.5603  1.5215  1.0771
    6SAPS   HN2  668   0.120   3.388   9.702 -0.3196  1.8098  0.8122
    6SAPS   HN3  669   0.047   3.232   9.706  0.2377 -0.2897  1.5352
    6SAPS   C12  670   0.017   3.344   9.874  0.6221  0.2077 -0.4066
    6SAPS  H12A  671  -0.085   3.313   9.887  0.8422 -0.0648  0.8104
    6SAPS   C13  672   0.115   3.251   9.962 -1.0053 -0.2244 -0.0420
    6SAPS  O13A  673   0.212   3.190   9.911  0.4532 -0.1771  0.0125
    6SAPS  O13B  674   0.097   3.247  10.083  0.1980  0.1173 -0.1868
    6SAPS   C11  675   0.033   3.495   9.916  1.0711  0.4972 -0.1386
    6SAPS  H11A  676   0.137   3.512   9.953  1.6540 -2.7547  0.0349
    6SAPS  H11B  677  -0.028   3.506  10.007 -0.4965  1.6173 -1.2746
    6SAPS     P  678   0.010   3.742   9.843 -0.4717 -0.0662  0.0390
    6SAPS   O13  679  -0.105   3.811   9.906 -0.2542  0.4571 -0.0521
    6SAPS   O14  680   0.136   3.760   9.915  0.2114  0.3441  0.2782
    6SAPS   O12  681  -0.016   3.586   9.808  0.1839 -0.3506 -0.2980
    6SAPS   O11  682   0.027   3.803   9.701  0.2776  0.3789  0.4117
    6SAPS    C1  683  -0.080   3.768   9.601 -0.2684 -0.7022 -0.2285
    6SAPS    HA  684  -0.067   3.664   9.566 -0.4223 -1.5679  2.1123
    6SAPS    HB  685  -0.179   3.778   9.650 -0.1084  1.3497 -0.2066
    6SAPS    C2  686  -0.077   3.873   9.483 -0.0780 -0.1068  0.5665
    6SAPS    HS  687  -0.170   3.853   9.425 -1.0800 -1.7144  2.6210
    6SAPS   O21  688   0.036   3.862   9.395 -0.3664  0.2027  0.2647
    6SAPS   C21  689   0.050   3.745   9.344  0.3702 -0.4192 -0.1520
    6SAPS   O22  690  -0.034   3.655   9.343  0.2664 -0.2010  0.2395
    6SAPS   C22  691   0.180   3.743   9.255  0.2319 -0.9534 -0.0667
    6SAPS   H2R  692   0.241   3.822   9.303 -0.8193  0.3474 -0.7861
    6SAPS   H2S  693   0.214   3.637   9.257 -0.1141 -1.1793 -2.5612
    6SAPS    C3  694  -0.077   4.019   9.544 -0.0431  0.7476 -0.3840
    6SAPS    HX  695   0.017   4.027   9.604 -1.3904 -0.3153  1.9986
    6SAPS    HY  696  -0.155   4.030   9.622 -1.9861  0.4052 -2.1983
    6SAPS   O31  697  -0.101   4.119   9.447 -0.5403 -1.1246  0.0329
    6SAPS   C31  698   0.007   4.207   9.432  0.6392  0.6817  0.1073
    6SAPS   O32  699   0.111   4.197   9.490 -0.3468 -0.6023 -0.1818
    6SAPS   C32  700  -0.030   4.310   9.325 -0.6209  0.1121 -0.1272
    6SAPS   H2X  701   0.004   4.405   9.371  1.2153 -0.6636  0.2221
    6SAPS   H2Y  702  -0.139   4.308   9.304 -0.1281 -1.6946 -2.9853
    6SAPS   C23  703   0.146   3.801   9.112  0.5821  0.1044  0.4749
    6SAPS   H3R  704   0.249   3.819   9.075  0.5068  0.8613  0.6073
    6SAPS   H3S  705   0.106   3.905   9.112  1.5320  0.4987 -1.0791
    6SAPS   C24  706   0.057   3.712   9.023 -0.7690  0.7663  0.1680
    6SAPS   H4R  707  -0.031   3.673   9.080  0.8075 -0.5370  1.8237
    6SAPS   H4S  708   0.121   3.623   9.002 -1.2840  0.9956 -2.8048
    6SAPS   C25  709   0.032   3.770   8.885  0.0262  0.5118 -0.4523
    6SAPS   H5R  710  -0.024   3.865   8.890 -0.1300  0.3751  0.3621
    6SAPS   C26  711   0.066   3.728   8.764 -0.6740 -0.5376  0.4461
    6SAPS   H6R  712   0.043   3.790   8.677  0.8660  0.6469  0.8237
    6SAPS   C27  713   0.132   3.599   8.731  0.2434  0.3485 -0.1089
    6SAPS   H7R  714   0.056   3.518   8.726  0.2983  0.1602  1.5140
    6SAPS   H7S  715   0.204   3.562   8.807  1.8216 -1.9204 -2.5272
    6SAPS   C28  716   0.207   3.607   8.598  0.8419 -0.3266 -0.4654
    6SAPS   H8R  717   0.302   3.662   8.606  0.4941  0.6067 -2.2234
    6SAPS   C29  718   0.167   3.565   8.480 -0.1370 -0.0794  0.4190
    6SAPS   H9R  719   0.232   3.591   8.396  0.0391  2.5466  1.2651
    6SAPS  C210  720   0.041   3.494   8.439 -0.4198 -0.6219 -0.1663
    6SAPS  H10R  721  -0.040   3.561   8.477 -0.0822  0.2315 -0.9233
    6SAPS  H10S  722   0.040   3.405   8.505  0.2376  1.1386  2.3837
    6SAPS  C211  723   0.030   3.461   8.289 -0.0100 -0.0466 -0.2930
    6SAPS  H11R  724   0.099   3.378   8.269  0.0179 -0.5427  1.5984
    6SAPS  C212  725  -0.064   3.500   8.203  0.3062 -0.2191  0.2499
    6SAPS  H12R  726  -0.037   3.464   8.102 -0.9906  0.0262 -0.2054
    6SAPS  C213  727  -0.187   3.590   8.212  0.0324 -0.3180 -0.5673
    6SAPS  H13R  728  -0.170   3.682   8.153  3.6618 -2.3109 -3.0050
    6SAPS  H13S  729  -0.202   3.628   8.316  0.4308  0.1631 -0.6829
    6SAPS  C214  730  -0.316   3.525   8.163 -0.7367  0.5246  0.2054
    6SAPS  H14R  731  -0.332   3.437   8.226 -0.3249  1.9904  2.4603
    6SAPS  C215  732  -0.384   3.544   8.052  0.4329 -1.0179 -0.0182
    6SAPS  H15R  733  -0.463   3.470   8.029  1.1307 -2.0550  0.8512
    6SAPS  C216  734  -0.369   3.651   7.945  0.8444 -0.4929  0.8451
    6SAPS  H16R  735  -0.262   3.677   7.936  1.0006 -1.2272  0.5879
    6SAPS  H16S  736  -0.441   3.734   7.966  1.6254  0.9789 -1.8533
    6SAPS  C217  737  -0.412   3.615   7.797 -0.3939  0.3117  0.4738
    6SAPS  H17R  738  -0.373   3.511   7.791  1.2942  0.9798 -1.5565
    6SAPS  H17S  739  -0.345   3.676   7.732 -0.9507  0.4204 -0.0081
    6SAPS  C218  740  -0.555   3.612   7.758 -0.1272  0.4460  0.6719
    6SAPS  H18R  741  -0.587   3.715   7.733 -0.4289  0.4029  0.8825
    6SAPS  H18S  742  -0.630   3.575   7.831 -0.6577  1.8610  0.8667
    6SAPS  C219  743  -0.586   3.516   7.634 -0.4612 -0.0890 -0.1610
    6SAPS  H19R  744  -0.500   3.531   7.566 -0.6553  2.0785 -0.0115
    6SAPS  H19S  745  -0.683   3.556   7.596 -0.3835  0.6390  0.3688
    6SAPS  C220  746  -0.604   3.367   7.667  0.0875 -0.6586  0.0404
    6SAPS  H20R  747  -0.673   3.350   7.752  0.6428 -0.0118  0.6288
    6SAPS  H20S  748  -0.509   3.324   7.706  0.1662  0.1439  0.7662
    6SAPS  H20T  749  -0.631   3.310   7.576  1.4312  0.1477 -0.9103
    6SAPS   C33  750   0.071   4.309   9.207  0.9161  0.1693  0.0804
    6SAPS   H3X  751   0.174   4.335   9.238  1.7768  0.6912 -2.9550
    6SAPS   H3Y  752   0.026   4.381   9.136 -0.6698 -1.2911 -0.4589
    6SAPS   C34  753   0.076   4.172   9.145  0.0928  0.6455  0.9868
    6SAPS   H4X  754  -0.017   4.118   9.172 -0.2742  1.2105  0.8603
    6SAPS   H4Y  755   0.163   4.108   9.174 -0.3473  0.4995  2.0024
    6SAPS   C35  756   0.066   4.170   8.988 -0.4053 -0.5808 -0.1119
    6SAPS   H5X  757   0.004   4.257   8.958 -1.8297 -0.5384  2.6865
    6SAPS   H5Y  758   0.016   4.075   8.959  0.0336 -0.6312 -0.7198
    6SAPS   C36  759   0.207   4.173   8.919 -0.3421  0.7568 -0.0533
    6SAPS   H6X  760   0.270   4.099   8.972 -1.5683 -1.5610 -1.6650
    6SAPS   H6Y  761   0.249   4.275   8.933  2.6014 -0.3380 -0.1506
    6SAPS   C37  762   0.193   4.122   8.771  0.1718  0.2678  0.2312
    6SAPS   H7X  763   0.112   4.183   8.725  0.2977 -0.8218 -1.5324
    6SAPS   H7Y  764   0.166   4.014   8.785 -0.0240  0.5151  1.9967
    6SAPS   C38  765   0.321   4.128   8.695 -0.1227  0.0540  0.5508
    6SAPS   H8X  766   0.393   4.073   8.760  0.9948  2.9755  1.9783
    6SAPS   H8Y  767   0.364   4.231   8.690 -0.1682  0.0764  0.6195
    6SAPS   C39  768   0.318   4.065   8.550 -0.1407 -0.2707  0.3188
    6SAPS   H9X  769   0.350   3.959   8.540 -3.5675 -1.3245 -0.7740
    6SAPS   H9Y  770   0.377   4.135   8.486  0.2689  0.6952  1.7089
    6SAPS  C310  771   0.175   4.071   8.495  0.5306  0.3983  1.0235
    6SAPS  H10X  772   0.122   4.167   8.511 -3.1319 -1.2778  0.1281
    6SAPS  H10Y  773   0.110   3.993   8.541 -1.4093  0.1340 -1.9320
    6SAPS  C311  774   0.151   4.040   8.345  0.0328 -0.0271  0.8081
    6SAPS  H11X  775   0.175   4.132   8.288 -0.2020 -1.1243 -1.1158
    6SAPS  H11Y  776   0.048   4.013   8.314  0.0054  0.0893  0.7952
    6SAPS  C312  777   0.239   3.920   8.299  0.5269 -0.2452  0.2247
    6SAPS  H12X  778   0.218   3.830   8.360  3.1140 -0.8621  0.3425
    6SAPS  H12Y  779   0.344   3.947   8.324 -0.1297  0.3210  2.6773
    6SAPS  C313  780   0.233   3.891   8.142  0.4084  0.0778 -0.3640
    6SAPS  H13X  781   0.268   3.986   8.096  1.6002 -0.4762 -0.6242
    6SAPS  H13Y  782   0.130   3.854   8.120 -0.0338 -0.0974  1.7465
    6SAPS  C314  783   0.325   3.779   8.103  0.1295  1.5547  0.2656
    6SAPS  H14X  784   0.276   3.685   8.137  0.6677  0.4988 -1.6932
    6SAPS  H14Y  785   0.425   3.792   8.148  0.6945 -1.8583  0.2630
    6SAPS  C315  786   0.349   3.751   7.953 -1.0956 -0.1416  0.6561
    6SAPS  H15X  787   0.380   3.847   7.906  1.5411 -1.4346 -0.4576
    6SAPS  H15Y  788   0.252   3.712   7.916  0.2962 -0.5744 -2.8433
    6SAPS  C316  789   0.477   3.657   7.930 -0.7281  0.9279 -0.3099
    6SAPS  H16X  790   0.464   3.557   7.977 -0.6403  0.3852 -1.4145
    6SAPS  H16Y  791   0.562   3.701   7.988 -2.8234  2.1691  2.0089
    6SAPS  C317  792   0.507   3.641   7.783  0.3861 -0.3740 -0.5960
    6SAPS  H17X  793   0.546   3.737   7.744 -2.5521  0.5680 -1.4963
    6SAPS  H17Y  794   0.412   3.619   7.730  0.4802 -0.9466 -0.5369
    6SAPS  C318  795   0.607   3.525   7.756 -0.0435 -0.6266 -0.2854
    6SAPS  H18X  796   0.556   3.434   7.795 -1.3750  0.4142  0.5027
    6SAPS  H18Y  797   0.709   3.540   7.797  0.6819 -3.0889 -0.9992
    6SAPS  H18Z  798   0.615   3.500   7.648 -1.8972 -1.8687 -0.1873
    7SAPS     N  799   1.894   6.789   9.726 -0.0924  0.4485 -0.6742
    7SAPS   HN1  800   1.923   6.852   9.803  1.1687 -0.5683 -0.2688
    7SAPS   HN2  801   1.904   6.692   9.763 -3.4511 -0.1382 -0.9962
    7SAPS   HN3  802   1.953   6.810   9.643  0.7886 -2.0503 -0.7788
    7SAPS   C12  803   1.752   6.816   9.709  0.8297  0.0105  0.3517
    7SAPS  H12A  804   1.708   6.809   9.807 -0.1379  0.6751 -0.0265
    7SAPS   C13  805   1.718   6.952   9.638  1.0136  0.2758 -0.6812
    7SAPS  O13A  806   1.818   7.020   9.599  0.4092 -0.4379  0.2357
    7SAPS  O13B  807   1.602   6.978   9.596 -0.2539  0.0304  0.2643
    7SAPS   C11  808   1.698   6.702   9.629  0.1266  0.1976 -0.3328
    7SAPS  H11A  809   1.763   6.699   9.539  1.7526 -0.6198  0.8037
    7SAPS  H11B  810   1.596   6.727   9.595 -0.5028  0.1675  1.4198
    7SAPS     P  811   1.598   6.479   9.719 -0.1748 -0.1012 -0.4594
    7SAPS   O13  812   1.654   6.361   9.778  0.3052  0.0137 -0.1509
    7SAPS   O14  813   1.491   6.548   9.792 -0.4168 -0.5190  0.2707
    7SAPS   O12  814   1.713   6.572   9.692  0.3424 -0.1941  0.2848
    7SAPS   O11  815   1.546   6.440   9.577  0.0251  0.3628  0.1354
    7SAPS    C1  816   1.633   6.377   9.482 -0.0797 -0.2352  0.0919
    7SAPS    HA  817   1.741   6.389   9.505  0.1437 -0.8486 -0.6062
    7SAPS    HB  818   1.611   6.268   9.486 -2.1891  0.1158 -0.9825
    7SAPS    C2  819   1.599   6.435   9.332 -0.7302  0.0780  0.4916
    7SAPS    HS  820   1.611   6.350   9.260  0.0734  1.5134 -1.1300
    7SAPS   O21  821   1.689   6.543   9.291  0.1715 -0.1758 -0.0811
    7SAPS   C21  822   1.804   6.497   9.251  0.4181  0.6489  0.4223
    7SAPS   O22  823   1.842   6.379   9.250  0.1391 -0.1382  0.3088
    7SAPS   C22  824   1.888   6.601   9.185  0.6850  0.0335 -0.2967
    7SAPS   H2R  825   1.853   6.618   9.081  1.1998 -4.6244 -1.4305
    7SAPS   H2S  826   1.872   6.695   9.242  0.1207 -0.0108 -0.3782
    7SAPS    C3  827   1.449   6.485   9.334 -0.6040 -0.2770  0.8697
    7SAPS    HX  828   1.448   6.572   9.403  0.6804  1.6207 -1.3726
    7SAPS    HY  829   1.375   6.413   9.375  0.8104 -2.4637 -0.2150
    7SAPS   O31  830   1.401   6.562   9.218  0.4178  0.4023  0.1417
    7SAPS   C31  831   1.365   6.468   9.120  0.7116 -0.4351 -0.1594
    7SAPS   O32  832   1.346   6.352   9.142 -0.1926  0.2762 -0.5181
    7SAPS   C32  833   1.363   6.535   8.983  0.9415 -0.1616  0.1674
    7SAPS   H2X  834   1.381   6.644   9.000 -0.4536  0.1768 -0.3905
    7SAPS   H2Y  835   1.260   6.520   8.946 -0.0678  1.0167  2.2724
    7SAPS   C23  836   2.043   6.562   9.196 -0.8799  0.7341  0.0199
    7SAPS   H3R  837   2.044   6.472   9.131  1.7156  1.8919 -1.7072
    7SAPS   H3S  838   2.067   6.526   9.299 -0.2858  0.6279 -0.1493
    7SAPS   C24  839   2.132   6.674   9.156  0.4264  0.2374  0.1306
    7SAPS   H4R  840   2.235   6.665   9.196  0.7533  0.0227 -0.7196
    7SAPS   H4S  841   2.080   6.761   9.200 -1.9307 -0.4277 -1.1491
    7SAPS   C25  842   2.139   6.694   9.003  0.4123  0.0807 -0.3416
    7SAPS   H5R  843   2.223   6.649   8.948 -1.3820  0.7486 -4.0102
    7SAPS   C26  844   2.074   6.795   8.930  0.0350 -0.1537  0.0535
    7SAPS   H6R  845   2.091   6.797   8.821  0.7233  0.0189  0.1617
    7SAPS   C27  846   1.974   6.896   8.979  0.6881  0.4283  0.4711
    7SAPS   H7R  847   1.984   6.884   9.089 -1.2772  0.7294  0.7229
    7SAPS   H7S  848   1.874   6.859   8.947  1.0453  0.7013 -1.0413
    7SAPS   C28  849   1.988   7.047   8.947  0.6596 -0.2324  0.4431
    7SAPS   H8R  850   2.009   7.116   9.030 -0.3172  1.6718 -0.8046
    7SAPS   C29  851   1.990   7.102   8.822 -0.2563 -0.5348 -0.1078
    7SAPS   H9R  852   1.980   7.212   8.823  2.5856 -0.1544 -1.6192
    7SAPS  C210  853   1.975   7.046   8.682  0.7003  0.4247  0.4294
    7SAPS  H10R  854   1.880   7.080   8.634 -0.5211 -1.7925  1.1209
    7SAPS  H10S  855   1.965   6.937   8.700 -0.5973  0.1294 -1.7931
    7SAPS  C211  856   2.096   7.082   8.596 -0.8061  0.0961 -0.9978
    7SAPS  H11R  857   2.188   7.107   8.650 -1.7657 -0.0981  0.8338
    7SAPS  C212  858   2.100   7.092   8.464 -0.2513  0.2374  0.1812
    7SAPS  H12R  859   2.201   7.106   8.424  1.4189 -1.3737  3.4298
    7SAPS  C213  860   1.999   7.062   8.364  0.1876  0.1989  0.0103
    7SAPS  H13R  861   1.907   7.006   8.393 -2.4507  3.1535 -2.0141
    7SAPS  H13S  862   2.040   6.998   8.283 -2.3887 -1.5728 -0.0060
    7SAPS  C214  863   1.958   7.196   8.309 -0.1718 -0.3756 -0.0834
    7SAPS  H14R  864   1.918   7.267   8.382 -0.6650 -1.1002  0.3551
    7SAPS  C215  865   1.946   7.212   8.173 -0.2081 -0.7210 -0.2692
    7SAPS  H15R  866   1.928   7.316   8.144  0.4764 -0.7064 -0.6590
    7SAPS  C216  867   1.974   7.109   8.067  0.6801 -0.3489 -0.5566
    7SAPS  H16R  868   1.923   7.014   8.092  0.1130  0.3216  0.9568
    7SAPS  H16S  869   2.081   7.081   8.059  0.8684  0.3291 -0.4918
    7SAPS  C217  870   1.920   7.149   7.934 -0.0574  0.3596  0.1189
    7SAPS  H17R  871   1.811   7.170   7.938  0.1034  1.0678  1.2159
    7SAPS  H17S  872   1.935   7.064   7.864  1.9279  1.7661 -1.2749
    7SAPS  C218  873   1.985   7.280   7.882 -0.0911 -0.8522  0.8147
    7SAPS  H18R  874   2.094   7.286   7.902 -0.1306 -0.2472  0.8826
    7SAPS  H18S  875   1.948   7.363   7.946  3.0493  0.6894  0.8352
    7SAPS  C219  876   1.959   7.321   7.734  0.4935  0.2490  0.1193
    7SAPS  H19R  877   2.030   7.264   7.670  3.6357  2.5541  1.3119
    7SAPS  H19S  878   1.984   7.429   7.725 -3.6938  1.4335  0.6590
    7SAPS  C220  879   1.812   7.304   7.685 -0.6476  0.3183  0.2960
    7SAPS  H20R  880   1.796   7.361   7.591 -1.0264 -0.2505  0.0104
    7SAPS  H20S  881   1.736   7.327   7.762 -2.0763 -1.0704 -0.6226
    7SAPS  H20T  882   1.791   7.197   7.660  0.4171 -0.6422  3.0895
    7SAPS   C33  883   1.474   6.482   8.888  0.4911  0.2187 -0.4229
    7SAPS   H3X  884   1.436   6.499   8.785 -0.6061 -2.3674 -0.4901
    7SAPS   H3Y  885   1.474   6.373   8.905 -1.8479  0.3411  0.6831
    7SAPS   C34  886   1.612   6.546   8.895 -0.4357 -0.0994  0.4939
    7SAPS   H4X  887   1.661   6.496   8.982 -0.3256 -0.8930 -0.0198
    7SAPS   H4Y  888   1.607   6.656   8.910  0.8346 -0.2635  2.6547
    7SAPS   C35  889   1.686   6.537   8.765  0.3452  1.1253  0.2343
    7SAPS   H5X  890   1.644   6.601   8.684  0.6401 -1.4409 -2.1072
    7SAPS   H5Y  891   1.694   6.431   8.733 -0.6375  1.0293  0.2862
    7SAPS   C36  892   1.831   6.580   8.771  0.3129 -0.6865 -0.4031
    7SAPS   H6X  893   1.891   6.523   8.845  2.8604  0.3788 -1.5069
    7SAPS   H6Y  894   1.829   6.688   8.797  0.6352 -0.1422 -2.4223
    7SAPS   C37  895   1.898   6.564   8.634 -0.5104 -0.2582  0.4724
    7SAPS   H7X  896   1.850   6.629   8.558  0.5984  1.6425  1.3206
    7SAPS   H7Y  897   1.907   6.457   8.608  1.1469 -1.0490  3.7751
    7SAPS   C38  898   2.045   6.603   8.637 -0.6027 -0.1762 -0.0536
    7SAPS   H8X  899   2.102   6.579   8.729  0.0474 -0.3736 -0.5010
    7SAPS   H8Y  900   2.034   6.713   8.642  0.6032 -0.0540  0.1272
    7SAPS   C39  901   2.124   6.555   8.515  0.3306 -0.1974 -0.3204
    7SAPS   H9X  902   2.111   6.447   8.492 -0.6849  0.2661 -2.1495
    7SAPS   H9Y  903   2.232   6.563   8.539  0.3255 -1.2095  0.0919
    7SAPS  C310  904   2.101   6.638   8.391  0.0033  0.3678 -0.5186
    7SAPS  H10X  905   2.101   6.745   8.422  0.5279 -0.1390  1.3334
    7SAPS  H10Y  906   1.995   6.615   8.368 -0.2641 -0.3125  1.3063
    7SAPS  C311  907   2.192   6.601   8.281 -0.6325  0.1087 -0.1320
    7SAPS  H11X  908   2.179   6.494   8.253  0.6694 -0.6716  2.0199
    7SAPS  H11Y  909   2.299   6.607   8.311  0.1256 -1.3564 -2.2864
    7SAPS  C312  910   2.170   6.680   8.151 -0.2891 -0.7483  0.3265
    7SAPS  H12X  911   2.216   6.778   8.175 -1.1387  0.1826 -1.5924
    7SAPS  H12Y  912   2.065   6.690   8.117 -0.1755 -1.3252 -0.2040
    7SAPS  C313  913   2.244   6.620   8.026 -0.4100 -0.3658 -0.1597
    7SAPS  H13X  914   2.177   6.543   7.985 -1.3222 -0.0279  0.6461
    7SAPS  H13Y  915   2.342   6.580   8.061 -1.1456 -0.3867  2.0654
    7SAPS  C314  916   2.256   6.720   7.908  0.3825  0.9515  0.0384
    7SAPS  H14X  917   2.329   6.679   7.835  2.7297  1.9910  1.6595
    7SAPS  H14Y  918   2.288   6.817   7.952  1.7185 -0.1817  1.6924
    7SAPS  C315  919   2.118   6.746   7.840 -0.2170  0.6296  0.4136
    7SAPS  H15X  920   2.063   6.821   7.899  0.1471  1.8149 -0.6914
    7SAPS  H15Y  921   2.054   6.655   7.844  0.0686  0.4514  1.0568
    7SAPS  C316  922   2.134   6.803   7.694  0.0862 -0.2522 -0.8676
    7SAPS  H16X  923   2.043   6.786   7.633 -0.0543  2.7410 -1.6886
    7SAPS  H16Y  924   2.219   6.755   7.642  0.3019 -1.8812  0.8554
    7SAPS  C317  925   2.152   6.953   7.678 -0.5632  0.6171 -0.2701
    7SAPS  H17X  926   2.250   6.979   7.722 -1.3388  2.3032  0.5691
    7SAPS  H17Y  927   2.073   7.003   7.738 -1.4529 -1.1040  0.0539
    7SAPS  C318  928   2.143   7.001   7.533  0.1922 -0.6888 -1.0722
    7SAPS  H18X  929   2.131   7.111   7.532 -2.4515 -0.9071 -2.9834
    7SAPS  H18Y  930   2.049   6.963   7.487 -0.9444  0.9027 -0.1684
    7SAPS  H18Z  931   2.234   6.972   7.476 -0.0745 -0.5207 -1.5910
    8SAPS     N  932   6.293   6.212   9.526  0.8025 -0.1100 -0.0461
    8SAPS   HN1  933   6.345   6.302   9.528 -0.2216  0.4824  0.8665
    8SAPS   HN2  934   6.323   6.148   9.450 -1.4786 -0.6965 -0.5429
    8SAPS   HN3  935   6.194   6.238   9.509  1.4691  1.1463 -2.6220
    8SAPS   C12  936   6.308   6.153   9.659  0.2145 -0.1688  0.2054
    8SAPS  H12A  937   6.415   6.137   9.660  0.5871  1.1538 -3.3474
    8SAPS   C13  938   6.247   6.249   9.769 -0.9162 -0.2809  0.0577
    8SAPS  O13A  939   6.196   6.364   9.746 -0.7319 -0.0072  0.5180
    8SAPS  O13B  940   6.246   6.204   9.889 -0.2853 -0.3217  0.4640
    8SAPS   C11  941   6.240   6.010   9.657 -0.6651  0.1196  1.0724
    8SAPS  H11A  942   6.133   5.997   9.633 -0.2459 -0.2590 -0.6681
    8SAPS  H11B  943   6.253   5.960   9.756 -0.5963 -0.9564  0.5314
    8SAPS     P  944   6.362   5.795   9.550 -0.4241 -0.1157  0.0495
    8SAPS   O13  945   6.507   5.801   9.521  0.0598  0.2142  0.4149
    8SAPS   O14  946   6.329   5.714   9.663  0.2462  0.8283  0.3713
    8SAPS   O12  947   6.311   5.942   9.559  0.0027  0.1501  0.5230
    8SAPS   O11  948   6.284   5.726   9.435 -0.0702 -0.3587  0.6785
    8SAPS    C1  949   6.177   5.790   9.355  0.2509 -0.0339  0.0534
    8SAPS    HA  950   6.097   5.716   9.334  2.8636 -3.2114  0.5021
    8SAPS    HB  951   6.133   5.880   9.403 -0.0969 -0.2666  0.1744
    8SAPS    C2  952   6.254   5.829   9.219  0.4758  0.5984 -0.4892
    8SAPS    HS  953   6.361   5.827   9.248 -0.3049 -1.3350  2.7499
    8SAPS   O21  954   6.196   5.949   9.165 -0.5870  0.1449  0.1327
    8SAPS   C21  955   6.237   6.061   9.215  1.0465  0.6660  0.7864
    8SAPS   O22  956   6.333   6.082   9.291 -0.3227 -0.6426  0.5513
    8SAPS   C22  957   6.139   6.170   9.165 -0.8578 -0.7958  0.2337
    8SAPS   H2R  958   6.044   6.147   9.218 -0.4153  0.5946  1.7220
    8SAPS   H2S  959   6.172   6.266   9.208 -2.3108 -0.1966  0.0870
    8SAPS    C3  960   6.242   5.708   9.115 -0.1265 -0.2003  0.4228
    8SAPS    HX  961   6.136   5.706   9.082  0.6472 -2.1721 -2.3213
    8SAPS    HY  962   6.271   5.613   9.166 -0.0233 -0.2194  0.3280
    8SAPS   O31  963   6.327   5.733   8.995  0.2630  0.6235  0.3808
    8SAPS   C31  964   6.459   5.725   9.009  0.4579 -0.1493 -0.4413
    8SAPS   O32  965   6.525   5.684   9.106 -0.0422 -0.0365  0.3780
    8SAPS   C32  966   6.515   5.781   8.883  0.0984 -0.2009 -1.1328
    8SAPS   H2X  967   6.513   5.892   8.886  0.3468 -0.1732 -1.7910
    8SAPS   H2Y  968   6.452   5.746   8.798 -2.1980  2.4488 -0.6656
    8SAPS   C23  969   6.107   6.161   9.008  0.4543  1.0009  0.0919
    8SAPS   H3R  970   6.002   6.193   8.992  0.1981 -0.0324 -0.3963
    8SAPS   H3S  971   6.107   6.059   8.964  0.3330  0.7684  0.6206
    8SAPS   C24  972   6.201   6.244   8.929 -0.4892  0.3385  0.1138
    8SAPS   H4R  973   6.299   6.195   8.949 -1.4966 -2.3777 -1.0224
    8SAPS   H4S  974   6.195   6.342   8.981 -0.5820  0.0115  0.7330
    8SAPS   C25  975   6.171   6.249   8.785 -0.7544  0.2980  0.0433
    8SAPS   H5R  976   6.091   6.317   8.754 -0.5942  0.2165 -0.5696
    8SAPS   C26  977   6.217   6.169   8.691  0.2284 -0.2329  0.1654
    8SAPS   H6R  978   6.167   6.173   8.594 -1.2326  1.1144  0.9297
    8SAPS   C27  979   6.314   6.055   8.718 -0.1356  1.0454 -0.5142
    8SAPS   H7R  980   6.308   6.029   8.826  2.2523  1.7118 -0.1636
    8SAPS   H7S  981   6.420   6.082   8.700  0.8859 -3.1712 -1.9734
    8SAPS   C28  982   6.271   5.933   8.637 -0.2552 -0.4393  0.7686
    8SAPS   H8R  983   6.167   5.902   8.654  0.0961 -1.5640  0.9723
    8SAPS   C29  984   6.346   5.860   8.552  0.1594  0.0835 -0.7056
    8SAPS   H9R  985   6.291   5.783   8.495  1.5806 -2.3892  1.0958
    8SAPS  C210  986   6.489   5.864   8.518 -0.2640 -0.0478 -0.5321
    8SAPS  H10R  987   6.504   5.778   8.449  0.7899  0.5427 -1.0519
    8SAPS  H10S  988   6.549   5.845   8.609  0.5951  2.4705 -0.5023
    8SAPS  C211  989   6.527   5.996   8.465  0.3874  0.3376 -0.0407
    8SAPS  H11R  990   6.453   6.073   8.492 -1.6402 -1.5490  0.0129
    8SAPS  C212  991   6.632   6.032   8.391  0.0673  0.7046 -0.1687
    8SAPS  H12R  992   6.637   6.140   8.370  0.6175  0.9013  0.9367
    8SAPS  C213  993   6.727   5.944   8.320 -0.1362  0.3100  0.0099
    8SAPS  H13R  994   6.827   5.958   8.366  0.3501  0.0066 -0.9356
    8SAPS  H13S  995   6.735   5.978   8.215 -1.2933 -0.3166 -0.3034
    8SAPS  C214  996   6.714   5.789   8.316  0.2634  0.5050 -0.2834
    8SAPS  H14R  997   6.700   5.748   8.418  0.7368  2.2293  0.5154
    8SAPS  C215  998   6.720   5.703   8.216 -0.2811  0.3498  0.9216
    8SAPS  H15R  999   6.709   5.594   8.221  0.5365 -0.0470 -2.8384
    8SAPS  C216 1000   6.724   5.743   8.067 -0.4345  0.5916  0.0404
    8SAPS  H16R 1001   6.822   5.789   8.044  1.5117 -1.3501  3.5029
    8SAPS  H16S 1002   6.643   5.815   8.046 -2.7552 -1.1824  2.2307
    8SAPS  C217 1003   6.714   5.624   7.962  0.3917 -0.1530 -0.0443
    8SAPS  H17R 1004   6.607   5.595   7.958 -0.1155  1.7544 -1.7942
    8SAPS  H17S 1005   6.771   5.538   8.003  0.7664  0.5111  0.8613
    8SAPS  C218 1006   6.761   5.671   7.827  0.2096 -0.3103  0.4310
    8SAPS  H18R 1007   6.871   5.662   7.815 -0.1065 -2.7129 -1.5525
    8SAPS  H18S 1008   6.740   5.776   7.799  1.0313 -0.7241 -1.9965
    8SAPS  C219 1009   6.713   5.574   7.719  0.5161 -0.7549 -0.0618
    8SAPS  H19R 1010   6.602   5.581   7.716  0.5518 -0.4162 -1.8706
    8SAPS  H19S 1011   6.748   5.474   7.754  0.3279 -0.3427  1.3554
    8SAPS  C220 1012   6.765   5.605   7.579  0.0614 -0.5071 -0.5224
    8SAPS  H20R 1013   6.729   5.517   7.521 -0.2847 -1.0107  0.4197
    8SAPS  H20S 1014   6.876   5.597   7.580  0.2211  1.3388  0.4106
    8SAPS  H20T 1015   6.720   5.702   7.550  1.4707  0.3878  0.1412
    8SAPS   C33 1016   6.666   5.754   8.867  0.2015 -0.4446 -0.1507
    8SAPS   H3X 1017   6.716   5.762   8.966  2.1174  1.8274 -1.1880
    8SAPS   H3Y 1018   6.721   5.814   8.792  0.7144 -2.5024 -1.5080
    8SAPS   C34 1019   6.699   5.611   8.813 -0.3120  0.0067  0.1815
    8SAPS   H4X 1020   6.632   5.540   8.867 -0.3966  1.1873  1.7119
    8SAPS   H4Y 1021   6.803   5.575   8.826  0.2247  0.6212 -2.0910
    8SAPS   C35 1022   6.676   5.592   8.659 -0.0166 -0.1672  0.2630
    8SAPS   H5X 1023   6.751   5.651   8.602 -0.5628 -0.2700 -0.5792
    8SAPS   H5Y 1024   6.583   5.641   8.623  0.3469  2.0220  2.0820
    8SAPS   C36 1025   6.684   5.443   8.620 -0.2211 -0.0981 -0.2523
    8SAPS   H6X 1026   6.617   5.379   8.681  1.0487 -1.6469 -0.4147
    8SAPS   H6Y 1027   6.783   5.408   8.657  0.1047  1.6890  0.7095
    8SAPS   C37 1028   6.672   5.424   8.464 -0.7099  0.1828  0.2629
    8SAPS   H7X 1029   6.744   5.501   8.427 -0.3428 -0.5337 -0.5408
    8SAPS   H7Y 1030   6.573   5.463   8.434 -0.0877  0.3839 -1.7205
    8SAPS   C38 1031   6.707   5.281   8.435 -0.0240 -0.4748  0.6918
    8SAPS   H8X 1032   6.640   5.220   8.500  0.6649  0.6997  2.5667
    8SAPS   H8Y 1033   6.809   5.263   8.475  1.2416  3.1228 -0.5325
    8SAPS   C39 1034   6.710   5.248   8.285  0.0447  0.1867 -0.4563
    8SAPS   H9X 1035   6.783   5.310   8.228 -0.2793  1.1625  0.1510
    8SAPS   H9Y 1036   6.608   5.270   8.247 -0.5220  1.5906  1.6924
    8SAPS  C310 1037   6.755   5.103   8.262 -0.1189 -0.1945  0.3612
    8SAPS  H10X 1038   6.694   5.036   8.326 -0.0617 -0.0101  0.6093
    8SAPS  H10Y 1039   6.860   5.086   8.294  0.3535  0.3202 -0.8496
    8SAPS  C311 1040   6.743   5.069   8.107  0.3405 -0.7402  0.8688
    8SAPS  H11X 1041   6.812   5.130   8.047 -0.6972 -0.0485  0.3474
    8SAPS  H11Y 1042   6.638   5.094   8.079  0.5859 -0.1560  0.4716
    8SAPS  C312 1043   6.790   4.933   8.057 -0.3580 -0.4382 -0.9093
    8SAPS  H12X 1044   6.733   4.857   8.114 -2.8254 -0.3123 -3.0199
    8SAPS  H12Y 1045   6.900   4.916   8.049 -0.6002 -2.3468 -0.6958
    8SAPS  C313 1046   6.743   4.907   7.911  0.2461  0.1731 -0.5465
    8SAPS  H13X 1047   6.632   4.901   7.905  0.0882  1.3062  0.6095
    8SAPS  H13Y 1048   6.784   4.811   7.874 -0.8385 -0.4680 -0.1531
    8SAPS  C314 1049   6.772   5.013   7.805  0.1574  0.0985  0.3603
    8SAPS  H14X 1050   6.883   5.027   7.801  0.3593 -1.2309  0.8918
    8SAPS  H14Y 1051   6.720   5.104   7.841 -1.1845 -1.0219  1.3017
    8SAPS  C315 1052   6.734   4.977   7.663  0.4373  0.2192 -0.2439
    8SAPS  H15X 1053   6.632   4.934   7.659  1.5945 -2.6510 -1.8141
    8SAPS  H15Y 1054   6.812   4.903   7.637  0.9971  0.2351  1.2762
    8SAPS  C316 1055   6.746   5.091   7.565 -0.1172  0.1976  0.0934
    8SAPS  H16X 1056   6.739   5.192   7.611  0.5634  1.0647 -1.6284
    8SAPS  H16Y 1057   6.654   5.082   7.503 -1.0372 -2.9894  1.6999
    8SAPS  C317 1058   6.863   5.074   7.458 -0.4453  0.0189 -0.3137
    8SAPS  H17X 1059   6.831   4.986   7.398  0.3838  1.0178 -2.2914
    8SAPS  H17Y 1060   6.955   5.040   7.511  2.5415  2.4524 -3.4955
    8SAPS  C318 1061   6.878   5.202   7.378 -0.1963 -0.3612  0.6969
    8SAPS  H18X 1062   6.790   5.226   7.314  1.3519 -0.7072 -1.6879
    8SAPS  H18Y 1063   6.965   5.199   7.308  0.0933 -0.1099  1.0416
    8SAPS  H18Z 1064   6.906   5.290   7.440 -0.5948 -1.1378  2.0201
    9SAPS     N 1065   4.218   3.837   5.560 -0.2770  0.4156  0.0677
    9SAPS   HN1 1066   4.257   3.811   5.652 -2.3996 -1.0249  0.6332
    9SAPS   HN2 1067   4.163   3.924   5.571  2.2506  2.2767 -0.8740
    9SAPS   HN3 1068   4.163   3.757   5.522 -0.9055  0.4947  0.8013
    9SAPS   C12 1069   4.328   3.857   5.457 -0.0829 -0.4246 -0.2200
    9SAPS  H12A 1070   4.268   3.874   5.369  0.7838 -0.1735 -0.7798
    9SAPS   C13 1071   4.415   3.983   5.494  0.1568  0.3031  0.2039
    9SAPS  O13A 1072   4.398   4.035   5.609  0.2156  0.0342 -0.1116
    9SAPS  O13B 1073   4.498   4.023   5.409  0.3413  0.2320 -0.2482
    9SAPS   C11 1074   4.418   3.732   5.430  0.4509 -0.4802  0.2476
    9SAPS  H11A 1075   4.475   3.704   5.521  0.3727 -1.1959  0.0787
    9SAPS  H11B 1076   4.506   3.751   5.365  1.7809 -2.8384  1.2298
    9SAPS     P 1077   4.290   3.502   5.465  0.1888 -0.3486  0.1526
    9SAPS   O13 1078   4.185   3.578   5.540 -0.4160 -0.5000  0.0360
    9SAPS   O14 1079   4.251   3.386   5.384 -0.2647 -0.3898  0.9127
    9SAPS   O12 1080   4.356   3.612   5.367 -0.2114 -0.0558 -0.0669
    9SAPS   O11 1081   4.415   3.467   5.558  0.4085 -0.0564 -0.1531
    9SAPS    C1 1082   4.538   3.415   5.517  0.2170  0.3733  0.3038
    9SAPS    HA 1083   4.523   3.316   5.470  0.6289 -0.5675  2.0441
    9SAPS    HB 1084   4.589   3.482   5.444  0.4049 -0.5578 -0.4239
    9SAPS    C2 1085   4.624   3.389   5.640 -0.8713  0.1149 -0.6818
    9SAPS    HS 1086   4.732   3.367   5.627 -0.7699  0.0377  0.2246
    9SAPS   O21 1087   4.574   3.283   5.727  0.2044 -0.0297 -0.3858
    9SAPS   C21 1088   4.596   3.162   5.680  0.3736 -0.6542 -0.0576
    9SAPS   O22 1089   4.642   3.140   5.571  0.5630 -0.2734 -0.1676
    9SAPS   C22 1090   4.567   3.052   5.791 -0.0574 -0.8390  0.3011
    9SAPS   H2R 1091   4.567   2.948   5.750  0.7675 -0.6640 -0.1637
    9SAPS   H2S 1092   4.646   3.061   5.869  0.7002 -1.6875 -0.3430
    9SAPS    C3 1093   4.619   3.524   5.730  0.0696 -0.2245  0.0582
    9SAPS    HX 1094   4.515   3.545   5.763  0.1721 -0.9064  0.8705
    9SAPS    HY 1095   4.645   3.611   5.666  1.5312 -0.8110 -0.1935
    9SAPS   O31 1096   4.709   3.521   5.843  0.4201 -0.3305  0.3060
    9SAPS   C31 1097   4.652   3.462   5.944 -0.1817 -0.3291 -0.1077
    9SAPS   O32 1098   4.533   3.434   5.956  0.0714  0.6928  0.3940
    9SAPS   C32 1099   4.760   3.450   6.053 -0.4392  0.1960  0.5291
    9SAPS   H2X 1100   4.847   3.519   6.040  0.2156 -0.2591  2.2101
    9SAPS   H2Y 1101   4.803   3.348   6.048  0.4848  0.5696  0.6275
    9SAPS   C23 1102   4.434   3.062   5.876  0.1520 -0.0357 -0.1450
    9SAPS   H3R 1103   4.348   3.045   5.808  0.5064  2.0550 -1.1949
    9SAPS   H3S 1104   4.429   3.166   5.915  2.0347  0.0546 -0.0644
    9SAPS   C24 1105   4.423   2.952   5.974  0.6232  0.4247 -0.5049
    9SAPS   H4R 1106   4.418   2.855   5.920 -1.2189  0.2123 -0.0338
    9SAPS   H4S 1107   4.324   2.959   6.024  0.1663  2.2161 -1.5925
    9SAPS   C25 1108   4.530   2.956   6.079  0.4082 -0.2324 -0.2892
    9SAPS   H5R 1109   4.634   2.928   6.055 -0.2441 -1.8017 -1.4407
    9SAPS   C26 1110   4.506   3.022   6.194  0.3818 -0.2939 -0.3502
    9SAPS   H6R 1111   4.592   3.025   6.263  2.3173 -1.1438 -2.5858
    9SAPS   C27 1112   4.373   3.081   6.236 -0.2329 -0.1759  0.9145
    9SAPS   H7R 1113   4.306   3.001   6.274 -1.2321 -0.5819 -1.5176
    9SAPS   H7S 1114   4.319   3.120   6.147  1.1306  0.4462  0.3323
    9SAPS   C28 1115   4.394   3.200   6.326 -0.4140  1.1042 -0.1466
    9SAPS   H8R 1116   4.435   3.290   6.278  2.1587  0.6007  0.9394
    9SAPS   C29 1117   4.349   3.220   6.445  0.0753  0.8602 -0.0879
    9SAPS   H9R 1118   4.366   3.317   6.493 -2.4733  0.8036  1.1083
    9SAPS  C210 1119   4.281   3.123   6.535  0.5271  0.0891  0.0237
    9SAPS  H10R 1120   4.197   3.072   6.484  1.3979 -0.5493 -0.8098
    9SAPS  H10S 1121   4.238   3.182   6.619 -1.2485  0.9426 -1.4250
    9SAPS  C211 1122   4.376   3.013   6.581  0.3906 -0.0883  0.7893
    9SAPS  H11R 1123   4.428   2.949   6.507  2.9673  1.1481  1.4220
    9SAPS  C212 1124   4.410   2.997   6.710 -0.0520 -0.2614  0.0576
    9SAPS  H12R 1125   4.485   2.918   6.728  0.1905 -0.8175 -2.8954
    9SAPS  C213 1126   4.374   3.085   6.829  0.1330  0.0556 -0.4037
    9SAPS  H13R 1127   4.274   3.129   6.811 -0.3467 -1.0252 -0.4735
    9SAPS  H13S 1128   4.451   3.163   6.846 -1.4206  1.5187  0.1251
    9SAPS  C214 1129   4.369   3.005   6.952  0.1975 -0.0382 -0.7023
    9SAPS  H14R 1130   4.435   2.916   6.949 -0.1880 -0.3135 -1.1722
    9SAPS  C215 1131   4.284   3.022   7.057 -0.0455  0.4046  0.6771
    9SAPS  H15R 1132   4.284   2.945   7.135 -0.0329  0.8535  1.1290
    9SAPS  C216 1133   4.179   3.132   7.065  0.5714 -0.2866 -0.0841
    9SAPS  H16R 1134   4.074   3.098   7.066  0.0647  1.2284  0.5050
    9SAPS  H16S 1135   4.192   3.203   6.980  0.6275  2.5264  2.1242
    9SAPS  C217 1136   4.205   3.212   7.196  0.3427 -0.5578 -0.8493
    9SAPS  H17R 1137   4.308   3.252   7.203  0.2714 -0.5083  0.1608
    9SAPS  H17S 1138   4.196   3.153   7.290  1.7046 -0.8235 -0.8753
    9SAPS  C218 1139   4.114   3.338   7.213 -0.0555 -0.4670 -0.1106
    9SAPS  H18R 1140   4.020   3.317   7.159 -1.8173  1.6768  1.8727
    9SAPS  H18S 1141   4.166   3.429   7.179 -2.2897  0.8808 -0.1305
    9SAPS  C219 1142   4.073   3.360   7.362  0.3258 -0.8673 -0.0503
    9SAPS  H19R 1143   4.170   3.391   7.407 -0.1985  1.9840 -0.6824
    9SAPS  H19S 1144   4.053   3.262   7.411  0.8826 -0.4613  1.0300
    9SAPS  C220 1145   3.977   3.469   7.388 -0.1894 -0.2430 -0.5762
    9SAPS  H20R 1146   3.872   3.438   7.367 -1.2078  0.5554  2.7416
    9SAPS  H20S 1147   3.995   3.562   7.330  1.8962  0.6714  1.4037
    9SAPS  H20T 1148   3.992   3.505   7.492 -0.6659  1.1258 -0.9598
    9SAPS   C33 1149   4.703   3.456   6.199  0.3373  0.7886 -0.0148
    9SAPS   H3X 1150   4.776   3.414   6.272 -1.5866 -0.8307  1.0674
    9SAPS   H3Y 1151   4.614   3.390   6.195  1.2369 -0.4147 -1.5676
    9SAPS   C34 1152   4.674   3.602   6.253 -0.0241  0.1350 -0.5694
    9SAPS   H4X 1153   4.644   3.669   6.170 -0.4908 -0.5150 -0.9308
    9SAPS   H4Y 1154   4.779   3.632   6.274 -0.3800  0.4183  0.9519
    9SAPS   C35 1155   4.591   3.607   6.382  0.5053 -0.3748  0.3556
    9SAPS   H5X 1156   4.490   3.562   6.370  1.4164 -2.0237 -1.8497
    9SAPS   H5Y 1157   4.573   3.713   6.408 -1.2097 -0.0457 -1.8405
    9SAPS   C36 1158   4.649   3.528   6.503 -0.9364 -0.3164 -0.7194
    9SAPS   H6X 1159   4.755   3.561   6.513 -1.3627  0.8208  0.3132
    9SAPS   H6Y 1160   4.659   3.419   6.481 -0.3217 -0.6276  0.9385
    9SAPS   C37 1161   4.571   3.542   6.643  0.2131  0.6666  0.5802
    9SAPS   H7X 1162   4.473   3.489   6.644  0.1920  0.6933  2.0827
    9SAPS   H7Y 1163   4.567   3.652   6.654  2.4269  0.9439 -0.7810
    9SAPS   C38 1164   4.656   3.482   6.754  0.0953 -0.9608 -0.1621
    9SAPS   H8X 1165   4.750   3.540   6.768 -1.0918  0.5608  2.1039
    9SAPS   H8Y 1166   4.691   3.380   6.727 -1.4785 -1.1987 -1.4611
    9SAPS   C39 1167   4.580   3.470   6.896  0.2419 -0.1417  0.1170
    9SAPS   H9X 1168   4.651   3.415   6.961 -3.4346 -1.4958  3.3815
    9SAPS   H9Y 1169   4.493   3.401   6.881  0.2592  0.2937 -2.4463
    9SAPS  C310 1170   4.539   3.607   6.964  0.1438  1.0008 -0.5047
    9SAPS  H10X 1171   4.469   3.655   6.892 -0.0197  0.1977 -0.8914
    9SAPS  H10Y 1172   4.625   3.677   6.969 -0.1149  1.3648 -0.9777
    9SAPS  C311 1173   4.471   3.588   7.100 -0.4541  0.0242 -0.1820
    9SAPS  H11X 1174   4.534   3.541   7.178  1.5478  1.7914 -0.6399
    9SAPS  H11Y 1175   4.379   3.528   7.082  1.8356 -3.9154  0.2929
    9SAPS  C312 1176   4.421   3.717   7.161  0.5892  0.3423 -0.6162
    9SAPS  H12X 1177   4.357   3.769   7.086  0.7346 -2.1326 -2.5946
    9SAPS  H12Y 1178   4.512   3.774   7.189 -0.4317  2.6671 -1.6967
    9SAPS  C313 1179   4.336   3.698   7.288  0.9080  0.4732 -0.1596
    9SAPS  H13X 1180   4.402   3.643   7.358 -1.4679 -0.5889  1.3709
    9SAPS  H13Y 1181   4.253   3.628   7.265  0.5998  0.4287  1.0286
    9SAPS  C314 1182   4.283   3.829   7.352  0.0739  0.2182  0.7883
    9SAPS  H14X 1183   4.362   3.906   7.368 -0.3517  1.1970 -1.4015
    9SAPS  H14Y 1184   4.231   3.812   7.448 -2.1873  0.5141 -0.3231
    9SAPS  C315 1185   4.180   3.921   7.277  0.3066  0.4814 -0.1292
    9SAPS  H15X 1186   4.079   3.876   7.264 -0.0635  1.4885 -0.8011
    9SAPS  H15Y 1187   4.228   3.960   7.184  1.3819  2.9871  1.3630
    9SAPS  C316 1188   4.141   4.051   7.350  0.6948 -0.5544  0.2637
    9SAPS  H16X 1189   4.233   4.112   7.363 -0.8423  2.5258 -1.9502
    9SAPS  H16Y 1190   4.104   4.014   7.448 -0.3354  0.0957  0.1324
    9SAPS  C317 1191   4.036   4.142   7.285 -0.2910 -0.9262 -0.4167
    9SAPS  H17X 1192   3.944   4.083   7.262 -0.9009  0.2058 -0.9734
    9SAPS  H17Y 1193   4.061   4.176   7.182  3.6024  3.5569  1.6192
    9SAPS  C318 1194   3.991   4.269   7.370  0.1323  0.9718  0.2341
    9SAPS  H18X 1195   4.085   4.328   7.384  1.8317 -1.4219 -0.3552
    9SAPS  H18Y 1196   3.939   4.245   7.465 -0.1562  1.0218  0.0868
    9SAPS  H18Z 1197   3.913   4.332   7.323  0.6374  1.1598 -0.3605
   10SAPS     N 1198   6.240   2.269   5.501 -0.2246  0.5732  0.1547
   10SAPS   HN1 1199   6.237   2.176   5.546  1.8835  0.6124  0.4629
   10SAPS   HN2 1200   6.307   2.272   5.422 -0.9287  2.1128 -0.4350
   10SAPS   HN3 1201   6.271   2.332   5.578  0.9380 -0.6743  0.7481
   10SAPS   C12 1202   6.098   2.305   5.464  0.2240 -0.2520 -0.5367
   10SAPS  H12A 1203   6.104   2.403   5.418  2.0136 -0.9932 -2.0278
   10SAPS   C13 1204   6.030   2.196   5.378  0.2002  0.1509  0.2362
   10SAPS  O13A 1205   6.085   2.104   5.318 -0.7749  0.4366 -0.4716
   10SAPS  O13B 1206   5.905   2.212   5.354 -0.1525 -0.1520  0.2464
   10SAPS   C11 1207   6.018   2.312   5.600 -0.2249 -0.3550  0.6084
   10SAPS  H11A 1208   6.027   2.221   5.663 -0.3013  0.4632  1.8136
   10SAPS  H11B 1209   5.911   2.319   5.569  0.5282  0.0454 -2.2606
   10SAPS     P 1210   5.986   2.564   5.677  0.2435  0.1229  0.2990
   10SAPS   O13 1211   6.060   2.658   5.762 -0.2976 -0.2144 -0.1062
   10SAPS   O14 1212   5.949   2.596   5.531  0.2876 -0.0553 -0.2577
   10SAPS   O12 1213   6.068   2.433   5.672  0.1632  0.8434  0.3782
   10SAPS   O11 1214   5.854   2.520   5.755  0.4972  0.3784  0.5603
   10SAPS    C1 1215   5.868   2.432   5.871  0.0338  0.4733  0.3515
   10SAPS    HA 1216   5.951   2.358   5.867 -1.9275 -1.9943  2.3078
   10SAPS    HB 1217   5.888   2.487   5.965 -1.7850 -1.2332  1.8191
   10SAPS    C2 1218   5.738   2.349   5.887 -0.4300  0.2217  0.5105
   10SAPS    HS 1219   5.702   2.336   5.783  0.5382  2.1153 -0.1179
   10SAPS   O21 1220   5.639   2.422   5.953 -0.4704 -0.0426  0.2689
   10SAPS   C21 1221   5.512   2.370   5.945 -0.3970  0.0032 -0.0579
   10SAPS   O22 1222   5.486   2.274   5.876  0.6576 -0.7309  0.0440
   10SAPS   C22 1223   5.419   2.448   6.034 -0.0182 -0.2760  0.6543
   10SAPS   H2R 1224   5.383   2.532   5.971 -2.1439 -1.4148  0.2289
   10SAPS   H2S 1225   5.325   2.389   6.032 -0.0200 -0.2590 -0.3642
   10SAPS    C3 1226   5.767   2.215   5.951  0.4372 -0.3569  0.5094
   10SAPS    HX 1227   5.840   2.170   5.880  2.3276  3.3520 -0.1255
   10SAPS    HY 1228   5.680   2.147   5.942  0.6050 -0.2697 -2.7602
   10SAPS   O31 1229   5.839   2.219   6.075 -0.2460 -0.1095  0.3711
   10SAPS   C31 1230   5.756   2.237   6.181  0.1317  0.1666 -0.5416
   10SAPS   O32 1231   5.635   2.238   6.176  0.3135 -0.1028  0.0517
   10SAPS   C32 1232   5.827   2.219   6.309 -0.1534 -0.7884  0.2341
   10SAPS   H2X 1233   5.928   2.259   6.287 -0.8037 -0.1718 -1.8859
   10SAPS   H2Y 1234   5.833   2.113   6.341  0.7479 -0.6517  0.5448
   10SAPS   C23 1235   5.460   2.491   6.179 -0.3716 -0.0613  0.3380
   10SAPS   H3R 1236   5.559   2.541   6.180  0.0303 -0.8011 -0.7153
   10SAPS   H3S 1237   5.489   2.404   6.243  0.4719  0.1213  0.2138
   10SAPS   C24 1238   5.363   2.586   6.252  0.7737 -0.5457 -0.0844
   10SAPS   H4R 1239   5.343   2.673   6.186  1.2761  0.1747  0.6925
   10SAPS   H4S 1240   5.416   2.621   6.343  0.8507  0.6278 -0.5679
   10SAPS   C25 1241   5.224   2.533   6.289  0.5919  0.0152  1.1420
   10SAPS   H5R 1242   5.153   2.533   6.205  1.5593 -0.4455  0.2971
   10SAPS   C26 1243   5.181   2.479   6.401 -0.3090  0.4056  0.5768
   10SAPS   H6R 1244   5.084   2.426   6.399  0.1835 -0.4986 -1.3725
   10SAPS   C27 1245   5.268   2.460   6.527  0.3220 -0.3937  0.3571
   10SAPS   H7R 1246   5.376   2.442   6.504  0.3581  0.3364 -0.1038
   10SAPS   H7S 1247   5.238   2.364   6.574  1.9229 -0.6132  0.9979
   10SAPS   C28 1248   5.254   2.570   6.620  0.6954  0.2010 -0.4646
   10SAPS   H8R 1249   5.212   2.657   6.568  1.2276  1.1932  0.6860
   10SAPS   C29 1250   5.297   2.575   6.745 -0.2638 -0.8673 -0.1414
   10SAPS   H9R 1251   5.280   2.667   6.802  0.6388 -0.2485 -0.8439
   10SAPS  C210 1252   5.388   2.472   6.810 -0.6279  0.1404 -0.6289
   10SAPS  H10R 1253   5.428   2.403   6.732  0.8350  1.8315 -1.4425
   10SAPS  H10S 1254   5.324   2.395   6.859 -0.1968 -0.9179 -1.6737
   10SAPS  C211 1255   5.496   2.508   6.908 -0.2588 -0.0536 -0.4516
   10SAPS  H11R 1256   5.468   2.592   6.973  0.9851 -1.2658  1.8142
   10SAPS  C212 1257   5.607   2.440   6.931  0.2663  0.4000  0.1079
   10SAPS  H12R 1258   5.670   2.468   7.017  1.2601  0.1593 -0.5322
   10SAPS  C213 1259   5.670   2.312   6.880  0.5555 -1.0614  0.0247
   10SAPS  H13R 1260   5.626   2.292   6.780 -1.1675 -3.1362  1.1072
   10SAPS  H13S 1261   5.641   2.233   6.952  2.8256 -0.8537  1.2474
   10SAPS  C214 1262   5.821   2.305   6.857  0.0918  0.0521 -0.4260
   10SAPS  H14R 1263   5.861   2.311   6.755  1.7383 -0.3127  0.1552
   10SAPS  C215 1264   5.902   2.265   6.957  0.2889 -0.9355  0.0619
   10SAPS  H15R 1265   6.007   2.246   6.928  1.0961  1.7535  0.9364
   10SAPS  C216 1266   5.863   2.254   7.103 -0.4269  0.3253  0.0794
   10SAPS  H16R 1267   5.880   2.152   7.144  0.0083  0.2727 -0.2124
   10SAPS  H16S 1268   5.763   2.295   7.123 -0.5145 -0.0328  0.3855
   10SAPS  C217 1269   5.961   2.338   7.189  0.1785 -0.2920 -0.1471
   10SAPS  H17R 1270   5.950   2.445   7.161  1.4669  0.2276  1.1892
   10SAPS  H17S 1271   6.067   2.309   7.175  1.1052  2.7386 -0.0588
   10SAPS  C218 1272   5.923   2.323   7.334  0.4009 -0.0977 -0.4001
   10SAPS  H18R 1273   5.920   2.219   7.374 -0.6044  0.0083 -0.1621
   10SAPS  H18S 1274   5.819   2.360   7.328  1.4800  2.9707 -1.8984
   10SAPS  C219 1275   5.993   2.416   7.443 -0.0703 -0.1849  0.3178
   10SAPS  H19R 1276   5.967   2.518   7.407  0.8893 -0.2766 -0.7008
   10SAPS  H19S 1277   6.103   2.403   7.441 -0.1008 -0.4073 -0.6335
   10SAPS  C220 1278   5.934   2.401   7.583  0.0026 -0.3850 -0.3120
   10SAPS  H20R 1279   5.991   2.469   7.650 -1.4663  0.6849 -0.0875
   10SAPS  H20S 1280   5.953   2.300   7.626 -3.2676 -1.0808 -0.2629
   10SAPS  H20T 1281   5.825   2.420   7.583  0.3556  1.8977 -0.5191
   10SAPS   C33 1282   5.776   2.300   6.425 -0.8702  0.2027 -0.1421
   10SAPS   H3X 1283   5.826   2.277   6.521 -2.3070 -0.8418  0.4041
   10SAPS   H3Y 1284   5.677   2.258   6.454 -0.1706 -1.0386  0.5615
   10SAPS   C34 1285   5.773   2.448   6.394 -0.3872  0.0466 -0.4110
   10SAPS   H4X 1286   5.713   2.459   6.300 -0.9537  1.3710  0.0835
   10SAPS   H4Y 1287   5.874   2.479   6.362 -0.1666  0.2291  0.4390
   10SAPS   C35 1288   5.723   2.527   6.510 -0.7121  0.1512  0.7244
   10SAPS   H5X 1289   5.796   2.528   6.594 -1.0405 -1.3559  1.0583
   10SAPS   H5Y 1290   5.639   2.472   6.557  0.6382 -0.4495  2.5720
   10SAPS   C36 1291   5.686   2.673   6.473  0.7327  0.1480 -0.4712
   10SAPS   H6X 1292   5.623   2.671   6.382  2.4223 -0.6735 -1.6741
   10SAPS   H6Y 1293   5.777   2.726   6.437  0.7288 -0.6789 -1.7714
   10SAPS   C37 1294   5.624   2.747   6.595 -0.5971 -0.0339 -0.2833
   10SAPS   H7X 1295   5.548   2.689   6.650  0.5958 -1.8997 -0.5162
   10SAPS   H7Y 1296   5.574   2.841   6.562  1.5584  1.1615 -0.3641
   10SAPS   C38 1297   5.730   2.773   6.698  0.9718 -0.3506  0.5135
   10SAPS   H8X 1298   5.819   2.835   6.670  1.1073 -0.1870  1.2946
   10SAPS   H8Y 1299   5.760   2.670   6.728 -1.3977 -0.8418  1.4212
   10SAPS   C39 1300   5.660   2.829   6.825 -1.0934  0.4851 -0.1913
   10SAPS   H9X 1301   5.561   2.788   6.852 -0.4938 -1.3776 -0.6725
   10SAPS   H9Y 1302   5.654   2.940   6.816  0.7861  0.6951  0.6547
   10SAPS  C310 1303   5.750   2.789   6.951 -0.2602 -0.1349  0.2500
   10SAPS  H10X 1304   5.857   2.810   6.930 -0.5428  0.0906 -1.0069
   10SAPS  H10Y 1305   5.739   2.679   6.966 -2.1778 -0.2779 -1.7706
   10SAPS  C311 1306   5.706   2.846   7.083 -0.3589 -0.2906  0.1166
   10SAPS  H11X 1307   5.599   2.822   7.095 -0.6471  1.8248  3.0242
   10SAPS  H11Y 1308   5.721   2.956   7.086 -2.1392  0.0064 -0.9563
   10SAPS  C312 1309   5.785   2.796   7.212 -0.1402  0.0582  0.5428
   10SAPS  H12X 1310   5.886   2.842   7.206  0.2910 -0.6141  2.2133
   10SAPS  H12Y 1311   5.790   2.685   7.209 -1.4106 -0.1455  3.3554
   10SAPS  C313 1312   5.726   2.844   7.342 -0.4331  0.1498  0.7130
   10SAPS  H13X 1313   5.629   2.792   7.356  0.0587 -0.5928  1.4264
   10SAPS  H13Y 1314   5.710   2.954   7.345  0.7296  0.4080 -0.9480
   10SAPS  C314 1315   5.822   2.801   7.461 -0.0360 -0.6202 -0.1589
   10SAPS  H14X 1316   5.915   2.860   7.444 -0.7520  0.2206 -1.2134
   10SAPS  H14Y 1317   5.850   2.693   7.461  1.0644 -0.3562  0.2560
   10SAPS  C315 1318   5.766   2.836   7.597 -0.1699  0.2277  0.0953
   10SAPS  H15X 1319   5.659   2.808   7.603 -0.0639 -0.0842  0.6124
   10SAPS  H15Y 1320   5.761   2.947   7.610 -0.4770  0.3778 -1.1526
   10SAPS  C316 1321   5.828   2.756   7.713  0.8283 -0.2470  0.3149
   10SAPS  H16X 1322   5.810   2.646   7.710  2.2866 -0.5235  0.6121
   10SAPS  H16Y 1323   5.781   2.800   7.803  1.3293 -2.8658  1.9594
   10SAPS  C317 1324   5.985   2.773   7.724 -0.1318  0.5427  0.0046
   10SAPS  H17X 1325   6.015   2.880   7.725  0.8318  0.2770  0.4458
   10SAPS  H17Y 1326   6.026   2.718   7.636 -2.3978 -0.7941 -0.2935
   10SAPS  C318 1327   6.034   2.719   7.863 -0.2732  0.1457  0.0314
   10SAPS  H18X 1328   5.974   2.755   7.949  0.8742  1.0776  0.4713
   10SAPS  H18Y 1329   6.141   2.748   7.872 -0.2887  0.5686 -0.9794
   10SAPS  H18Z 1330   6.026   2.608   7.863 -2.4547  0.2331 -1.5631
   11SAPS     N 1331   6.284   4.002   5.441  0.0218 -0.7620 -0.4561
   11SAPS   HN1 1332   6.285   3.949   5.352  1.6715 -0.3611 -0.7100
   11SAPS   HN2 1333   6.229   3.949   5.511 -1.9078 -0.9694 -2.0640
   11SAPS   HN3 1334   6.230   4.091   5.433 -1.0261 -1.2514  0.7841
   11SAPS   C12 1335   6.424   4.038   5.480 -0.6634  0.3957  0.1149
   11SAPS  H12A 1336   6.465   3.940   5.498 -0.6925  0.0890 -1.3333
   11SAPS   C13 1337   6.509   4.105   5.376 -1.1702 -0.5791 -0.2239
   11SAPS  O13A 1338   6.454   4.131   5.266  0.0392 -0.3187  0.6468
   11SAPS  O13B 1339   6.634   4.106   5.387 -0.2687  0.3563  0.3297
   11SAPS   C11 1340   6.418   4.119   5.606  0.7391  0.2601 -0.0585
   11SAPS  H11A 1341   6.363   4.215   5.594  1.5495  0.7220 -0.2160
   11SAPS  H11B 1342   6.521   4.153   5.633  0.2985  0.8052  1.0217
   11SAPS     P 1343   6.370   4.103   5.862 -0.0864  0.1257  0.4152
   11SAPS   O13 1344   6.296   4.013   5.950  0.0756  0.2310 -0.9464
   11SAPS   O14 1345   6.511   4.129   5.898 -0.2223 -0.0924 -0.2572
   11SAPS   O12 1346   6.377   4.043   5.717 -0.1438  0.0710 -0.6464
   11SAPS   O11 1347   6.294   4.238   5.845 -0.5470 -0.0729 -0.3294
   11SAPS    C1 1348   6.153   4.249   5.879  0.3413  0.2949 -1.1006
   11SAPS    HA 1349   6.100   4.182   5.809 -3.0273  0.7991  0.7358
   11SAPS    HB 1350   6.143   4.224   5.987 -0.0994  0.1437 -1.1759
   11SAPS    C2 1351   6.096   4.392   5.861 -0.0296  0.3013  0.3793
   11SAPS    HS 1352   6.088   4.402   5.751 -0.9653 -0.4027  0.3706
   11SAPS   O21 1353   6.186   4.491   5.924  0.2822  0.7995  0.1696
   11SAPS   C21 1354   6.159   4.619   5.878 -0.3176  0.3789  0.5346
   11SAPS   O22 1355   6.106   4.645   5.773 -0.2969  0.3874  0.1701
   11SAPS   C22 1356   6.207   4.722   5.977  0.3676 -0.0783 -0.5904
   11SAPS   H2R 1357   6.133   4.732   6.059  0.1244 -0.6412 -0.7403
   11SAPS   H2S 1358   6.307   4.697   6.019  0.2116 -0.1095 -0.2359
   11SAPS    C3 1359   5.948   4.420   5.903 -0.1575  0.3086 -0.3681
   11SAPS    HX 1360   5.871   4.370   5.841  2.6146 -1.9348 -2.2714
   11SAPS    HY 1361   5.921   4.525   5.877 -1.5523 -0.2136 -1.1544
   11SAPS   O31 1362   5.924   4.385   6.046 -0.4329  0.0839  0.0028
   11SAPS   C31 1363   5.936   4.488   6.133 -0.1758  0.0002 -0.4135
   11SAPS   O32 1364   5.953   4.602   6.092 -0.6501 -0.4410 -0.1084
   11SAPS   C32 1365   5.931   4.460   6.280  0.4429  1.1241 -0.6471
   11SAPS   H2X 1366   5.948   4.352   6.300 -2.6957  0.6944  0.2678
   11SAPS   H2Y 1367   5.829   4.496   6.304  0.2905 -0.3303  1.1544
   11SAPS   C23 1368   6.226   4.855   5.897  0.1226 -0.2378 -0.0482
   11SAPS   H3R 1369   6.143   4.878   5.828  0.1745 -0.1643 -0.0855
   11SAPS   H3S 1370   6.317   4.846   5.835  0.7847  0.9366  0.7122
   11SAPS   C24 1371   6.255   4.984   5.981  0.2272 -0.3304  0.2344
   11SAPS   H4R 1372   6.295   5.057   5.907 -0.8887  0.2073  0.1297
   11SAPS   H4S 1373   6.332   4.964   6.058 -0.6316  1.1878  1.5565
   11SAPS   C25 1374   6.128   5.035   6.040  0.0874  0.2313 -0.0105
   11SAPS   H5R 1375   6.041   5.059   5.977 -0.5870  1.6109  1.3745
   11SAPS   C26 1376   6.117   5.093   6.163  0.4316 -0.3710 -0.4920
   11SAPS   H6R 1377   6.025   5.137   6.203  1.5739  2.4718 -0.8186
   11SAPS   C27 1378   6.228   5.099   6.265 -0.0952  0.0204  0.5678
   11SAPS   H7R 1379   6.215   5.185   6.334 -0.3928 -0.1213  0.6913
   11SAPS   H7S 1380   6.327   5.117   6.218  0.0967 -3.1944 -0.5256
   11SAPS   C28 1381   6.252   4.971   6.329  0.6436  0.6637 -0.1788
   11SAPS   H8R 1382   6.320   4.900   6.281  0.0577 -0.3048  0.3813
   11SAPS   C29 1383   6.205   4.919   6.447 -0.1053 -0.7489  0.4387
   11SAPS   H9R 1384   6.229   4.819   6.485  1.5576 -0.9050 -0.8835
   11SAPS  C210 1385   6.113   5.012   6.525  0.4213 -0.6510  0.2385
   11SAPS  H10R 1386   6.030   4.950   6.563  0.6262 -0.8343  0.3892
   11SAPS  H10S 1387   6.061   5.081   6.456 -0.2046  0.1073  1.4340
   11SAPS  C211 1388   6.171   5.072   6.653 -0.1750 -0.6504 -0.9344
   11SAPS  H11R 1389   6.234   5.159   6.627 -1.1371  0.2045 -0.4711
   11SAPS  C212 1390   6.154   5.029   6.785  0.3128  0.6024  0.1317
   11SAPS  H12R 1391   6.208   5.075   6.869  1.3601 -1.8441  0.9022
   11SAPS  C213 1392   6.077   4.910   6.834 -0.5517  0.3884 -0.3577
   11SAPS  H13R 1393   6.147   4.864   6.907  1.3670  1.1471 -1.6623
   11SAPS  H13S 1394   6.050   4.842   6.751 -2.0538  3.1921 -2.3134
   11SAPS  C214 1395   5.946   4.942   6.903 -0.2581  0.6066  0.3352
   11SAPS  H14R 1396   5.883   5.007   6.840 -0.6186 -0.8732 -0.9138
   11SAPS  C215 1397   5.895   4.892   7.016  0.8187  0.1834  0.6309
   11SAPS  H15R 1398   5.796   4.922   7.055  0.0530 -1.0276 -0.3006
   11SAPS  C216 1399   5.962   4.781   7.098  0.7799  0.4757  0.0357
   11SAPS  H16R 1400   6.039   4.724   7.042  1.8571  2.7779 -0.9605
   11SAPS  H16S 1401   5.880   4.713   7.128  1.1611 -0.7974 -1.6721
   11SAPS  C217 1402   6.038   4.831   7.223 -0.3223 -0.5340  0.1208
   11SAPS  H17R 1403   6.124   4.891   7.187 -0.8478 -0.9368 -1.9264
   11SAPS  H17S 1404   6.077   4.739   7.273 -0.1357 -2.0874 -2.6586
   11SAPS  C218 1405   5.965   4.902   7.331  0.0814 -0.4383 -0.6492
   11SAPS  H18R 1406   5.887   4.829   7.364 -1.3932  1.4288  0.1683
   11SAPS  H18S 1407   5.922   4.986   7.273 -1.8020 -1.4987 -0.8785
   11SAPS  C219 1408   6.049   4.970   7.441  0.2952  0.4888 -0.5907
   11SAPS  H19R 1409   6.127   4.893   7.458 -0.4784 -0.3323 -0.7097
   11SAPS  H19S 1410   5.987   4.994   7.530 -0.8257 -0.1694 -1.1700
   11SAPS  C220 1411   6.122   5.096   7.393 -0.2631  0.0117 -0.2168
   11SAPS  H20R 1412   6.169   5.148   7.479  2.2807 -1.6761 -0.4634
   11SAPS  H20S 1413   6.051   5.153   7.329 -0.3204 -0.8073 -0.9146
   11SAPS  H20T 1414   6.213   5.078   7.331  0.2816 -0.9331  0.8185
   11SAPS   C33 1415   6.034   4.536   6.374 -0.5571  0.3323  0.2419
   11SAPS   H3X 1416   6.025   4.504   6.480  0.9020 -1.8444 -0.2194
   11SAPS   H3Y 1417   6.015   4.645   6.364  0.3012  0.4326 -0.3879
   11SAPS   C34 1418   6.184   4.531   6.339 -1.0737  0.4197 -0.6554
   11SAPS   H4X 1419   6.248   4.590   6.409 -0.3196 -0.5576 -0.5091
   11SAPS   H4Y 1420   6.209   4.553   6.233 -0.2957 -0.4020 -0.6498
   11SAPS   C35 1421   6.249   4.389   6.355  0.5313  0.2363  0.3731
   11SAPS   H5X 1422   6.355   4.390   6.323  0.3199 -0.2372 -0.3693
   11SAPS   H5Y 1423   6.199   4.329   6.276  0.8164  0.2800  0.1569
   11SAPS   C36 1424   6.209   4.316   6.487 -0.0899  0.7061 -0.5985
   11SAPS   H6X 1425   6.099   4.322   6.503  0.0237  2.3734 -0.2571
   11SAPS   H6Y 1426   6.259   4.383   6.561  1.6743  1.1191 -2.0737
   11SAPS   C37 1427   6.258   4.170   6.512 -0.1444  0.2574 -0.1860
   11SAPS   H7X 1428   6.367   4.162   6.531  0.1811 -0.3371 -2.1740
   11SAPS   H7Y 1429   6.226   4.120   6.418 -0.0642  1.4436 -0.8658
   11SAPS   C38 1430   6.199   4.118   6.647 -0.1503 -0.3779 -0.3836
   11SAPS   H8X 1431   6.203   4.008   6.640 -1.6425 -0.7500  2.9107
   11SAPS   H8Y 1432   6.091   4.144   6.656 -0.0139 -0.3876  1.9407
   11SAPS   C39 1433   6.287   4.146   6.769 -0.1874  0.1699  0.4135
   11SAPS   H9X 1434   6.274   4.254   6.787  0.9583  0.0153  2.3734
   11SAPS   H9Y 1435   6.396   4.128   6.757 -0.1920 -0.4996  1.2498
   11SAPS  C310 1436   6.222   4.067   6.893 -0.3626 -0.3382 -0.3724
   11SAPS  H10X 1437   6.198   3.961   6.870  0.5439 -0.7239  0.3819
   11SAPS  H10Y 1438   6.122   4.113   6.908 -0.5813 -1.6450  3.0325
   11SAPS  C311 1439   6.306   4.080   7.022  0.6592 -0.3169  0.1397
   11SAPS  H11X 1440   6.400   4.027   6.996  1.3036  0.8971 -0.0776
   11SAPS  H11Y 1441   6.257   4.030   7.109 -0.1573 -0.7864 -0.5798
   11SAPS  C312 1442   6.342   4.225   7.057 -0.0061 -0.1043 -0.2834
   11SAPS  H12X 1443   6.251   4.286   7.045 -0.0706  0.1919  1.4223
   11SAPS  H12Y 1444   6.409   4.264   6.977 -2.4404  0.0249 -2.3802
   11SAPS  C313 1445   6.397   4.245   7.198 -0.2649 -0.1508 -0.2062
   11SAPS  H13X 1446   6.324   4.213   7.276 -0.6360  0.5643 -0.2532
   11SAPS  H13Y 1447   6.420   4.353   7.216 -0.0481 -0.3062  0.4774
   11SAPS  C314 1448   6.523   4.163   7.227  0.1767  0.2931  0.3141
   11SAPS  H14X 1449   6.621   4.188   7.181  0.9320  0.8713  2.1082
   11SAPS  H14Y 1450   6.497   4.064   7.186 -0.4347  1.0356 -1.1417
   11SAPS  C315 1451   6.560   4.149   7.377 -0.3462 -0.0835 -0.7205
   11SAPS  H15X 1452   6.481   4.093   7.431 -0.1301  0.7746  0.5374
   11SAPS  H15Y 1453   6.556   4.256   7.409  0.5080 -0.0510 -0.7152
   11SAPS  C316 1454   6.692   4.092   7.414 -0.2529  0.4263 -0.5484
   11SAPS  H16X 1455   6.687   4.058   7.520 -0.2017 -0.1374 -0.7251
   11SAPS  H16Y 1456   6.780   4.159   7.404  1.3100 -1.5064 -0.3373
   11SAPS  C317 1457   6.727   3.958   7.345  0.2581  0.2092  0.3271
   11SAPS  H17X 1458   6.725   3.975   7.235  1.5183 -1.6920 -0.0302
   11SAPS  H17Y 1459   6.663   3.876   7.382  2.4929 -0.2437  3.6372
   11SAPS  C318 1460   6.871   3.914   7.393 -0.0834 -0.2535 -0.1430
   11SAPS  H18X 1461   6.939   3.997   7.364  0.8958 -0.9252  0.1723
   11SAPS  H18Y 1462   6.901   3.814   7.355  0.6048 -0.1120  0.0177
   11SAPS  H18Z 1463   6.868   3.901   7.504  0.2112  1.3505  0.0836
   12SAPS     N 1464   4.226   6.916   5.718 -0.6229 -0.2369  0.1801
   12SAPS   HN1 1465   4.138   6.910   5.773 -0.2650  2.5710  1.2308
   12SAPS   HN2 1466   4.297   6.941   5.790  0.7649  1.1123 -1.5558
   12SAPS   HN3 1467   4.213   7.002   5.662 -2.4014  0.1051  1.0651
   12SAPS   C12 1468   4.286   6.800   5.649  0.3926  0.8250  0.5341
   12SAPS  H12A 1469   4.223   6.799   5.561 -1.1860  1.1344  1.6070
   12SAPS   C13 1470   4.429   6.812   5.593  0.2775  0.8694  0.0695
   12SAPS  O13A 1471   4.502   6.885   5.660  0.5432 -0.4711  0.0155
   12SAPS  O13B 1472   4.479   6.713   5.527  0.0581 -0.3944 -0.2196
   12SAPS   C11 1473   4.286   6.681   5.750  0.7443  0.7287  0.0482
   12SAPS  H11A 1474   4.336   6.701   5.847 -1.4571  0.8886  1.2139
   12SAPS  H11B 1475   4.333   6.596   5.696  1.5257  1.6668 -0.7835
   12SAPS     P 1476   4.061   6.548   5.688  0.2486  0.0781 -0.2416
   12SAPS   O13 1477   3.925   6.531   5.753 -0.2086  0.1404  1.2158
   12SAPS   O14 1478   4.066   6.590   5.546 -0.3991 -0.4142 -0.1946
   12SAPS   O12 1479   4.145   6.652   5.772  0.1748 -0.6445 -0.1558
   12SAPS   O11 1480   4.149   6.417   5.709 -0.4706  0.5672  0.6706
   12SAPS    C1 1481   4.162   6.354   5.834 -0.0867  0.5624  0.2370
   12SAPS    HA 1482   4.195   6.438   5.899 -2.1139  1.3737  0.2671
   12SAPS    HB 1483   4.065   6.320   5.874 -0.3239  0.5851 -0.3061
   12SAPS    C2 1484   4.271   6.235   5.848 -0.0937 -0.3321 -0.1492
   12SAPS    HS 1485   4.232   6.146   5.796  2.4569 -0.6206 -1.7556
   12SAPS   O21 1486   4.300   6.218   5.988  0.3958  0.4473 -0.1140
   12SAPS   C21 1487   4.375   6.115   6.020 -0.4540  0.0404 -0.3505
   12SAPS   O22 1488   4.423   6.034   5.939 -0.0854  0.3480  0.2219
   12SAPS   C22 1489   4.394   6.126   6.168 -0.2388  0.0928  0.3242
   12SAPS   H2R 1490   4.476   6.197   6.192  2.3745 -2.5760 -0.1144
   12SAPS   H2S 1491   4.301   6.153   6.224 -0.0022 -1.6822  1.6649
   12SAPS    C3 1492   4.398   6.273   5.769  0.1981  0.2169  0.5382
   12SAPS    HX 1493   4.378   6.296   5.662  0.7529  1.0438  0.6018
   12SAPS    HY 1494   4.468   6.187   5.763 -0.7546 -0.4635 -1.8752
   12SAPS   O31 1495   4.446   6.397   5.830 -0.0730  0.1572  0.0597
   12SAPS   C31 1496   4.565   6.400   5.890  0.6429  0.8666 -0.3223
   12SAPS   O32 1497   4.630   6.297   5.916  0.3880  0.3105 -0.0908
   12SAPS   C32 1498   4.610   6.542   5.917 -0.6259  0.0961 -0.8633
   12SAPS   H2X 1499   4.556   6.600   5.839 -2.9045 -1.0685 -0.2719
   12SAPS   H2Y 1500   4.719   6.542   5.898 -0.7886 -0.4254 -1.8547
   12SAPS   C23 1501   4.439   5.986   6.226 -0.4890 -0.7288  0.0351
   12SAPS   H3R 1502   4.521   5.940   6.166 -1.0191 -1.4253 -0.1778
   12SAPS   H3S 1503   4.347   5.925   6.238 -1.4298  0.4395 -1.0078
   12SAPS   C24 1504   4.503   6.011   6.368 -0.7623 -0.1669 -0.3811
   12SAPS   H4R 1505   4.600   6.063   6.355 -0.4709 -0.1988  1.3973
   12SAPS   H4S 1506   4.548   5.918   6.409 -0.9345 -0.9706 -1.9063
   12SAPS   C25 1507   4.416   6.052   6.477  0.2451  0.4715 -0.3771
   12SAPS   H5R 1508   4.335   5.978   6.477  1.4565 -0.9219 -0.4813
   12SAPS   C26 1509   4.415   6.162   6.546  0.8030 -0.2106  0.3183
   12SAPS   H6R 1510   4.342   6.179   6.627  0.3830  1.0140 -0.2922
   12SAPS   C27 1511   4.510   6.278   6.539 -0.1481  0.5071 -0.4456
   12SAPS   H7R 1512   4.530   6.319   6.438  1.1395  2.5114  0.5375
   12SAPS   H7S 1513   4.608   6.236   6.572 -0.4499  0.4557  0.4213
   12SAPS   C28 1514   4.473   6.378   6.645  0.0211 -0.0275  0.0663
   12SAPS   H8R 1515   4.394   6.451   6.623  0.8899  0.4558 -1.6173
   12SAPS   C29 1516   4.537   6.410   6.760 -0.2587  0.7383 -0.2845
   12SAPS   H9R 1517   4.511   6.507   6.804  0.1270  0.2808  0.9911
   12SAPS  C210 1518   4.659   6.340   6.810 -0.1810 -0.3571  0.6125
   12SAPS  H10R 1519   4.638   6.232   6.793 -2.6636  0.4029 -1.8647
   12SAPS  H10S 1520   4.674   6.365   6.917 -0.3386  2.5784  0.0253
   12SAPS  C211 1521   4.777   6.385   6.729  0.4576  0.1754 -0.2478
   12SAPS  H11R 1522   4.773   6.362   6.622 -0.2935 -2.0245  0.1968
   12SAPS  C212 1523   4.890   6.442   6.777 -0.0869  0.0290  0.4260
   12SAPS  H12R 1524   4.956   6.480   6.697 -0.1446 -2.3966 -0.8547
   12SAPS  C213 1525   4.914   6.480   6.926  0.1230 -0.0841  0.4324
   12SAPS  H13R 1526   4.916   6.383   6.980 -2.0941 -0.3367  0.1468
   12SAPS  H13S 1527   4.824   6.529   6.970  0.7971  2.5400 -0.8774
   12SAPS  C214 1528   5.036   6.564   6.964  0.1915 -0.1127  0.2276
   12SAPS  H14R 1529   5.126   6.503   6.981  0.8753  0.7557 -0.2175
   12SAPS  C215 1530   5.036   6.696   6.966 -0.3773 -0.2429 -0.3679
   12SAPS  H15R 1531   5.120   6.749   7.013  0.2256 -1.7223  0.2633
   12SAPS  C216 1532   4.911   6.789   6.943 -0.3631  0.2735  0.7346
   12SAPS  H16R 1533   4.823   6.728   6.913 -0.6049  0.7940  0.3642
   12SAPS  H16S 1534   4.931   6.851   6.853  1.7234 -0.0768  0.9222
   12SAPS  C217 1535   4.865   6.872   7.060 -0.6513  0.1178  0.7523
   12SAPS  H17R 1536   4.780   6.939   7.036  0.7363  1.6573 -0.0614
   12SAPS  H17S 1537   4.942   6.939   7.103  0.2315  1.0317 -2.0413
   12SAPS  C218 1538   4.814   6.775   7.182 -0.0826  0.1027 -0.4124
   12SAPS  H18R 1539   4.893   6.703   7.213 -3.0591 -3.3034 -0.0599
   12SAPS  H18S 1540   4.734   6.703   7.156  0.5240 -1.8181  2.5232
   12SAPS  C219 1541   4.770   6.856   7.305  0.3171  0.6745  0.0534
   12SAPS  H19R 1542   4.698   6.794   7.363 -0.5085  2.5910  1.2044
   12SAPS  H19S 1543   4.715   6.950   7.281  1.8588  1.5188 -0.3301
   12SAPS  C220 1544   4.882   6.898   7.404 -0.1001  0.6797 -0.6752
   12SAPS  H20R 1545   4.842   6.952   7.493 -1.9813  0.5432 -1.4009
   12SAPS  H20S 1546   4.959   6.967   7.364 -1.2559  1.0442 -2.3777
   12SAPS  H20T 1547   4.927   6.805   7.446 -0.3539  1.2927  1.0605
   12SAPS   C33 1548   4.584   6.603   6.054  0.1441  0.2918 -0.3332
   12SAPS   H3X 1549   4.643   6.547   6.129 -0.3022  0.0649 -0.1433
   12SAPS   H3Y 1550   4.479   6.582   6.085  0.9424  2.3636  4.5358
   12SAPS   C34 1551   4.612   6.757   6.056 -0.2744  0.1671 -0.0952
   12SAPS   H4X 1552   4.554   6.799   5.971 -0.9812  0.7574  0.6532
   12SAPS   H4Y 1553   4.722   6.759   6.045 -0.2880 -1.4741 -0.8110
   12SAPS   C35 1554   4.595   6.820   6.194 -0.7758  0.4058 -0.4611
   12SAPS   H5X 1555   4.647   6.766   6.275  0.1589  2.5237  0.4390
   12SAPS   H5Y 1556   4.487   6.808   6.220 -0.9078  0.7951 -0.8105
   12SAPS   C36 1557   4.637   6.968   6.193 -0.2242  0.1371 -0.4503
   12SAPS   H6X 1558   4.600   7.014   6.099  1.1935  1.8983 -0.1877
   12SAPS   H6Y 1559   4.746   6.980   6.174 -0.4616  2.1540 -0.7363
   12SAPS   C37 1560   4.584   7.051   6.307  0.0513 -0.3836 -0.0371
   12SAPS   H7X 1561   4.474   7.046   6.313 -0.0022 -0.6459 -1.0435
   12SAPS   H7Y 1562   4.611   7.158   6.298 -1.7294  0.2113  1.3013
   12SAPS   C38 1563   4.640   7.003   6.443  0.2023 -0.0063  0.2393
   12SAPS   H8X 1564   4.750   7.018   6.437  0.2390 -0.3369  0.0657
   12SAPS   H8Y 1565   4.603   6.900   6.462  0.0698  0.0478  0.2774
   12SAPS   C39 1566   4.587   7.093   6.559 -0.0664  0.1801  0.1468
   12SAPS   H9X 1567   4.478   7.074   6.557 -0.7242  3.2070  1.7058
   12SAPS   H9Y 1568   4.605   7.196   6.524  0.8716 -0.1012 -0.2473
   12SAPS  C310 1569   4.635   7.059   6.693  0.3223  0.0397 -0.2217
   12SAPS  H10X 1570   4.740   7.096   6.696  0.2923  0.0695  1.0332
   12SAPS  H10Y 1571   4.644   6.948   6.695  1.2977  0.0132 -2.6133
   12SAPS  C311 1572   4.553   7.129   6.795 -0.4511 -0.0453 -0.1951
   12SAPS  H11X 1573   4.450   7.087   6.795  0.1319 -1.6901  1.5810
   12SAPS  H11Y 1574   4.550   7.238   6.777  0.1108 -0.0296 -0.1995
   12SAPS  C312 1575   4.597   7.105   6.939  0.8404 -0.2525 -0.1576
   12SAPS  H12X 1576   4.703   7.134   6.952  0.8697 -0.3243 -0.2414
   12SAPS  H12Y 1577   4.579   6.997   6.956  0.3957 -0.0223  0.9254
   12SAPS  C313 1578   4.498   7.195   7.028 -0.3329 -0.0483 -0.3288
   12SAPS  H13X 1579   4.391   7.167   7.021 -1.3191  2.5740  2.1738
   12SAPS  H13Y 1580   4.521   7.300   7.000  0.1342  0.0412  0.3455
   12SAPS  C314 1581   4.545   7.187   7.176 -0.9956 -0.3512 -0.8179
   12SAPS  H14X 1582   4.652   7.218   7.182 -0.9419 -0.7706  0.8699
   12SAPS  H14Y 1583   4.554   7.081   7.208  1.8693  0.0229 -0.0684
   12SAPS  C315 1584   4.451   7.275   7.266  0.0950  0.1238 -0.1610
   12SAPS  H15X 1585   4.359   7.223   7.300 -0.9783  1.5357 -0.7877
   12SAPS  H15Y 1586   4.423   7.368   7.213  2.5694  1.7534  1.1483
   12SAPS  C316 1587   4.538   7.329   7.382 -0.9428 -0.5454  0.5817
   12SAPS  H16X 1588   4.484   7.410   7.435 -0.4235 -0.3378  0.8027
   12SAPS  H16Y 1589   4.625   7.385   7.341  0.0890 -1.4417  1.4777
   12SAPS  C317 1590   4.583   7.216   7.483 -0.2178 -0.3413 -0.1882
   12SAPS  H17X 1591   4.669   7.164   7.435  1.7291  0.2895  2.3874
   12SAPS  H17Y 1592   4.500   7.142   7.486  0.6774 -1.4061 -0.7704
   12SAPS  C318 1593   4.650   7.256   7.613 -0.3516 -0.0061  0.0115
   12SAPS  H18X 1594   4.589   7.339   7.655 -2.1462 -0.1712 -2.1079
   12SAPS  H18Y 1595   4.752   7.294   7.591  0.6732 -1.2214  2.2615
   12SAPS  H18Z 1596   4.664   7.171   7.683 -1.8604  0.7431  1.2930
   13SAPS     N 1597   6.803   2.122   5.408  0.2487 -0.3344  0.1289
   13SAPS   HN1 1598   6.839   2.083   5.497  1.1189  1.7829  0.7619
   13SAPS   HN2 1599   6.805   2.033   5.354 -0.9522 -0.9658  1.0926
   13SAPS   HN3 1600   6.870   2.188   5.364 -1.2402 -0.2863 -2.2759
   13SAPS   C12 1601   6.666   2.172   5.444 -0.0275  0.3406  0.1188
   13SAPS  H12A 1602   6.677   2.262   5.503  1.8138  0.2424 -0.0245
   13SAPS   C13 1603   6.563   2.197   5.326  0.0916  0.4954  0.8897
   13SAPS  O13A 1604   6.589   2.152   5.211 -0.2424 -0.5355  0.4112
   13SAPS  O13B 1605   6.462   2.266   5.351 -0.2676 -0.3078 -0.5971
   13SAPS   C11 1606   6.592   2.067   5.528 -0.4632 -0.0422  0.6418
   13SAPS  H11A 1607   6.570   1.973   5.473  0.1127  0.5632 -0.6425
   13SAPS  H11B 1608   6.489   2.107   5.541 -0.9063 -1.2727  1.0970
   13SAPS     P 1609   6.620   1.904   5.732  0.0047 -0.0780 -0.0798
   13SAPS   O13 1610   6.481   1.866   5.704  0.2479  0.3473 -0.3925
   13SAPS   O14 1611   6.734   1.814   5.694 -0.2997  0.4768  0.5136
   13SAPS   O12 1612   6.652   2.044   5.662  0.1352  0.1439 -0.1777
   13SAPS   O11 1613   6.638   1.939   5.888  0.5015 -0.4629  0.5085
   13SAPS    C1 1614   6.687   2.069   5.921 -0.6134 -0.3838 -0.2474
   13SAPS    HA 1615   6.624   2.154   5.887 -0.0671  0.7748  1.5014
   13SAPS    HB 1616   6.675   2.070   6.032 -1.0213  0.5593 -0.2854
   13SAPS    C2 1617   6.839   2.098   5.907  0.0389  0.1114 -0.4030
   13SAPS    HS 1618   6.862   2.114   5.800 -0.1155  0.6538 -0.3591
   13SAPS   O21 1619   6.910   1.996   5.973 -0.6442 -0.2201  0.4207
   13SAPS   C21 1620   7.041   1.998   5.956 -0.2325 -0.4125 -0.4298
   13SAPS   O22 1621   7.098   2.064   5.867 -0.2251 -0.5470 -0.1904
   13SAPS   C22 1622   7.116   1.914   6.063 -0.1887  0.3880 -0.0702
   13SAPS   H2R 1623   7.048   1.908   6.151 -1.2404  3.1349 -0.5987
   13SAPS   H2S 1624   7.125   1.809   6.028  1.6684 -0.0509  1.5080
   13SAPS    C3 1625   6.876   2.236   5.971  0.2823 -0.9351 -0.5059
   13SAPS    HX 1626   6.836   2.316   5.905  2.2959 -0.6922 -1.5011
   13SAPS    HY 1627   6.986   2.248   5.961  0.0235  1.0898 -1.3341
   13SAPS   O31 1628   6.826   2.250   6.107 -0.3689 -0.1995  0.0428
   13SAPS   C31 1629   6.837   2.371   6.155 -0.8867 -0.2087  0.5033
   13SAPS   O32 1630   6.906   2.461   6.094  0.4968  0.5727 -0.4093
   13SAPS   C32 1631   6.759   2.401   6.278 -0.0955  0.2376 -0.0327
   13SAPS   H2X 1632   6.785   2.322   6.351 -0.0566  0.6579  0.4103
   13SAPS   H2Y 1633   6.653   2.380   6.249 -0.1542  0.7442 -0.1927
   13SAPS   C23 1634   7.255   1.979   6.102  0.6620 -0.0721  0.0453
   13SAPS   H3R 1635   7.307   2.028   6.017  1.6086 -1.3100 -0.1255
   13SAPS   H3S 1636   7.322   1.895   6.129  1.8062  1.4148  2.1595
   13SAPS   C24 1637   7.241   2.068   6.230 -0.5682  0.4193  0.0472
   13SAPS   H4R 1638   7.164   2.144   6.203 -0.9764 -0.1198 -0.3407
   13SAPS   H4S 1639   7.338   2.121   6.236 -0.6191  0.3529  2.0081
   13SAPS   C25 1640   7.215   2.004   6.363  0.8541  0.0516  0.4128
   13SAPS   H5R 1641   7.283   1.920   6.381 -0.7806 -1.1784  1.0183
   13SAPS   C26 1642   7.109   2.018   6.452 -0.0451  0.5171  0.2256
   13SAPS   H6R 1643   7.117   1.964   6.548 -0.4215 -1.2417 -0.6941
   13SAPS   C27 1644   7.000   2.115   6.447  0.5706 -0.1686  0.4709
   13SAPS   H7R 1645   7.003   2.164   6.348  1.7456 -0.6934  0.2396
   13SAPS   H7S 1646   7.025   2.194   6.521  0.0642  0.3784  0.0733
   13SAPS   C28 1647   6.865   2.057   6.475  0.0442  0.1432  0.1139
   13SAPS   H8R 1648   6.837   1.970   6.414  0.3041 -0.1350  0.3898
   13SAPS   C29 1649   6.778   2.107   6.564  0.0751 -0.0387 -0.4334
   13SAPS   H9R 1650   6.695   2.040   6.593  0.9582 -0.8650  0.2630
   13SAPS  C210 1651   6.786   2.230   6.647 -0.2805 -1.4627 -0.5726
   13SAPS  H10R 1652   6.809   2.304   6.568 -0.5317 -0.5700  0.1828
   13SAPS  H10S 1653   6.882   2.234   6.704 -0.5989 -0.5628 -0.0942
   13SAPS  C211 1654   6.662   2.264   6.725  0.3870  0.8099  0.4408
   13SAPS  H11R 1655   6.576   2.251   6.658  0.7539  0.3707  0.0463
   13SAPS  C212 1656   6.647   2.318   6.846  0.1514 -0.6095  0.5132
   13SAPS  H12R 1657   6.547   2.344   6.882  0.3895 -0.0875  0.8089
   13SAPS  C213 1658   6.769   2.353   6.920 -0.0752 -0.4737 -0.3540
   13SAPS  H13R 1659   6.741   2.439   6.986  0.6062 -1.1831  0.9037
   13SAPS  H13S 1660   6.847   2.401   6.857 -0.5415 -0.7519 -1.1550
   13SAPS  C214 1661   6.827   2.245   7.011 -0.2846 -0.0973 -0.2574
   13SAPS  H14R 1662   6.908   2.191   6.960 -0.5823  0.4055 -1.2938
   13SAPS  C215 1663   6.823   2.227   7.142  1.0464  0.6430  0.3002
   13SAPS  H15R 1664   6.861   2.134   7.188  0.0277 -0.5135 -1.1083
   13SAPS  C216 1665   6.741   2.301   7.246  0.0300 -0.1164 -0.0134
   13SAPS  H16R 1666   6.685   2.383   7.195  1.4289  0.1537 -1.1889
   13SAPS  H16S 1667   6.812   2.349   7.317 -0.1031 -0.2481  0.2070
   13SAPS  C217 1668   6.632   2.220   7.316 -0.3255  1.1217  0.4872
   13SAPS  H17R 1669   6.614   2.271   7.413 -1.2960  0.3461  0.7399
   13SAPS  H17S 1670   6.657   2.114   7.340 -1.5665  0.4253 -1.1075
   13SAPS  C218 1671   6.493   2.216   7.239  0.5622 -0.1111  0.0824
   13SAPS  H18R 1672   6.458   2.319   7.215  0.6454 -0.1915 -0.3939
   13SAPS  H18S 1673   6.419   2.181   7.314 -0.3328 -1.0551 -1.1922
   13SAPS  C219 1674   6.481   2.122   7.122 -0.3965  0.0559  0.2138
   13SAPS  H19R 1675   6.498   2.017   7.156  1.4338 -0.5655 -2.3319
   13SAPS  H19S 1676   6.566   2.136   7.052  0.5318 -1.1817  1.0433
   13SAPS  C220 1677   6.349   2.152   7.052  0.0153  0.9035 -0.3747
   13SAPS  H20R 1678   6.352   2.262   7.040  0.2493  0.9306 -0.0715
   13SAPS  H20S 1679   6.272   2.119   7.125 -0.5713 -0.4227 -1.5417
   13SAPS  H20T 1680   6.344   2.102   6.953  0.5961  0.7050 -0.3062
   13SAPS   C33 1681   6.773   2.541   6.332  0.4458 -0.0114  0.5926
   13SAPS   H3X 1682   6.733   2.607   6.253 -0.5480 -3.7608 -2.3171
   13SAPS   H3Y 1683   6.880   2.571   6.333  0.2179  1.0145 -1.4211
   13SAPS   C34 1684   6.722   2.573   6.477  0.1632 -0.3986  0.0417
   13SAPS   H4X 1685   6.788   2.528   6.554  1.4616  2.5733  0.8309
   13SAPS   H4Y 1686   6.616   2.539   6.481  0.3282 -1.1386 -1.2819
   13SAPS   C35 1687   6.724   2.729   6.503  0.2022  0.0375  0.6308
   13SAPS   H5X 1688   6.655   2.778   6.431 -0.9869 -1.1790  0.8952
   13SAPS   H5Y 1689   6.821   2.769   6.468 -0.6868  2.0293  0.2647
   13SAPS   C36 1690   6.702   2.780   6.647 -0.5661 -0.4582 -0.5183
   13SAPS   H6X 1691   6.595   2.799   6.670 -0.0079  1.2780  0.8954
   13SAPS   H6Y 1692   6.744   2.883   6.640  2.9115 -1.7283 -0.6049
   13SAPS   C37 1693   6.764   2.691   6.755  0.1458 -0.2882 -0.2282
   13SAPS   H7X 1694   6.874   2.681   6.738  0.3707 -0.9883  1.4338
   13SAPS   H7Y 1695   6.718   2.590   6.749 -0.4533 -0.0401  0.1215
   13SAPS   C38 1696   6.740   2.757   6.893  0.3018  0.2095 -0.3814
   13SAPS   H8X 1697   6.647   2.712   6.933  0.8686 -0.6366  0.0135
   13SAPS   H8Y 1698   6.730   2.867   6.904  4.5252  0.8306 -0.8624
   13SAPS   C39 1699   6.863   2.738   6.982 -0.6940 -0.3269  0.0042
   13SAPS   H9X 1700   6.960   2.773   6.939  0.1907 -0.1242  2.0752
   13SAPS   H9Y 1701   6.873   2.627   6.983 -3.2572 -0.6185  0.3979
   13SAPS  C310 1702   6.841   2.786   7.121 -0.0298  0.3563 -0.1331
   13SAPS  H10X 1703   6.791   2.886   7.118  0.6263  0.6723 -1.7372
   13SAPS  H10Y 1704   6.941   2.797   7.167 -0.7905  2.7543  1.1643
   13SAPS  C311 1705   6.756   2.701   7.213  0.5835 -0.4120  0.2673
   13SAPS  H11X 1706   6.786   2.595   7.196 -1.7256 -0.9054 -1.1844
   13SAPS  H11Y 1707   6.649   2.704   7.183  0.4800  1.5097  0.6963
   13SAPS  C312 1708   6.774   2.741   7.357 -0.1971 -0.5141  0.4368
   13SAPS  H12X 1709   6.732   2.843   7.372 -1.2273 -0.5758 -1.6452
   13SAPS  H12Y 1710   6.883   2.741   7.376  0.0516  2.5392 -0.5181
   13SAPS  C313 1711   6.715   2.636   7.455  0.4042  0.4225  0.8629
   13SAPS  H13X 1712   6.777   2.543   7.452 -1.1086 -0.6364  0.9991
   13SAPS  H13Y 1713   6.617   2.606   7.411  1.1013  0.6979 -0.9829
   13SAPS  C314 1714   6.683   2.681   7.592  0.2942 -0.7784 -0.3764
   13SAPS  H14X 1715   6.599   2.752   7.595  0.5711 -0.4523 -0.2102
   13SAPS  H14Y 1716   6.772   2.731   7.636 -0.8341 -0.3417  1.5414
   13SAPS  C315 1717   6.664   2.563   7.685  0.4956 -0.4572  0.3791
   13SAPS  H15X 1718   6.686   2.595   7.789  0.8123  3.6533 -0.7845
   13SAPS  H15Y 1719   6.732   2.481   7.653  0.0767 -0.2504 -1.1003
   13SAPS  C316 1720   6.519   2.507   7.682  0.2559  0.5761 -0.1787
   13SAPS  H16X 1721   6.520   2.435   7.597 -4.1272 -0.4235  0.3795
   13SAPS  H16Y 1722   6.447   2.584   7.647 -2.9618 -2.6806 -1.4263
   13SAPS  C317 1723   6.473   2.435   7.804  0.1429 -0.7431  0.2322
   13SAPS  H17X 1724   6.392   2.364   7.776 -2.1764  1.8981 -0.1782
   13SAPS  H17Y 1725   6.431   2.511   7.873  0.6881  0.5123 -0.7646
   13SAPS  C318 1726   6.593   2.359   7.878  0.5816 -0.1425  0.0537
   13SAPS  H18X 1727   6.661   2.315   7.801  1.6018 -1.3952  1.6167
   13SAPS  H18Y 1728   6.555   2.269   7.931 -2.2630  0.5603 -0.5992
   13SAPS  H18Z 1729   6.659   2.431   7.930  2.5581 -1.5379 -0.4238
   14SAPS     N 1730   6.140   6.449   5.516 -0.3769  0.7480 -0.0942
   14SAPS   HN1 1731   6.078   6.484   5.440  1.0553  1.5732 -0.9425
   14SAPS   HN2 1732   6.081   6.438   5.600 -0.2427 -0.0464 -0.0973
   14SAPS   HN3 1733   6.220   6.514   5.536  1.6828 -1.7198  0.1599
   14SAPS   C12 1734   6.199   6.328   5.454 -0.2028  0.2835 -0.2190
   14SAPS  H12A 1735   6.146   6.241   5.487 -0.2336  0.4828  0.2637
   14SAPS   C13 1736   6.182   6.315   5.301 -0.0356 -0.6617 -0.0926
   14SAPS  O13A 1737   6.113   6.399   5.243 -0.3987 -0.0770 -0.0751
   14SAPS  O13B 1738   6.231   6.223   5.232  0.1427  0.1229 -0.1720
   14SAPS   C11 1739   6.356   6.317   5.480  0.7032 -0.3232  0.0093
   14SAPS  H11A 1740   6.411   6.396   5.424  1.1823 -0.8668 -0.2959
   14SAPS  H11B 1741   6.384   6.224   5.426 -0.4220 -0.5766 -0.1540
   14SAPS     P 1742   6.511   6.252   5.678  0.3016 -0.0296  0.2500
   14SAPS   O13 1743   6.624   6.245   5.581 -0.0543  0.1235 -0.3301
   14SAPS   O14 1744   6.536   6.325   5.799  0.1760  0.0282  0.8169
   14SAPS   O12 1745   6.385   6.320   5.618  0.6207  0.1740 -0.1816
   14SAPS   O11 1746   6.456   6.109   5.720 -0.3499 -0.3500  0.0010
   14SAPS    C1 1747   6.326   6.097   5.783  0.2444 -0.4166 -0.4003
   14SAPS    HA 1748   6.247   6.162   5.740 -0.5504 -1.0615  0.0433
   14SAPS    HB 1749   6.287   5.994   5.767 -0.4527 -0.2901  0.4656
   14SAPS    C2 1750   6.340   6.121   5.941 -1.2550 -0.4898  0.3624
   14SAPS    HS 1751   6.356   6.228   5.966  1.9545 -0.3674 -1.6617
   14SAPS   O21 1752   6.456   6.048   5.993 -0.1303 -0.1598  0.0955
   14SAPS   C21 1753   6.528   6.095   6.087 -0.2431  0.2337  0.7785
   14SAPS   O22 1754   6.518   6.204   6.138  0.0697 -0.2453  0.5616
   14SAPS   C22 1755   6.646   5.996   6.131  0.6470  0.0474  0.4003
   14SAPS   H2R 1756   6.682   5.955   6.034 -1.5968 -1.6072  0.1789
   14SAPS   H2S 1757   6.726   6.054   6.181 -0.7414  0.5026  2.1658
   14SAPS    C3 1758   6.203   6.094   6.010  0.0655  0.3566 -0.7561
   14SAPS    HX 1759   6.178   5.987   5.998  1.1263 -0.3413  2.4033
   14SAPS    HY 1760   6.127   6.163   5.968  0.1688  1.3484  0.5875
   14SAPS   O31 1761   6.216   6.113   6.154 -0.1666  0.4721  0.3429
   14SAPS   C31 1762   6.101   6.103   6.221  0.6833 -0.8191 -0.1859
   14SAPS   O32 1763   5.991   6.093   6.171  0.5061  0.2424  0.1298
   14SAPS   C32 1764   6.124   6.114   6.375  0.1506  1.2152  0.7667
   14SAPS   H2X 1765   6.226   6.154   6.392  0.8923 -0.5435  0.6478
   14SAPS   H2Y 1766   6.135   6.010   6.412  1.1729  0.8593 -0.4479
   14SAPS   C23 1767   6.594   5.872   6.220 -0.2559 -0.8934  0.2864
   14SAPS   H3R 1768   6.669   5.790   6.221 -0.7702 -1.4803 -2.1948
   14SAPS   H3S 1769   6.506   5.820   6.175 -0.1213  0.0370 -1.1233
   14SAPS   C24 1770   6.563   5.919   6.363 -0.3053 -0.0646 -1.2330
   14SAPS   H4R 1771   6.465   5.971   6.364  0.4467  1.4990  1.5122
   14SAPS   H4S 1772   6.635   6.001   6.384 -0.4626  0.1083 -1.3632
   14SAPS   C25 1773   6.557   5.797   6.465 -0.7679 -0.1485  0.5921
   14SAPS   H5R 1774   6.624   5.714   6.443 -1.2160 -0.3297 -0.1303
   14SAPS   C26 1775   6.465   5.789   6.564 -0.3014  0.9084 -0.4514
   14SAPS   H6R 1776   6.461   5.691   6.614 -0.8965  1.1365 -0.0341
   14SAPS   C27 1777   6.366   5.892   6.606  0.1790  0.0942  0.1496
   14SAPS   H7R 1778   6.308   5.841   6.686 -1.5541  1.6821 -0.0091
   14SAPS   H7S 1779   6.304   5.905   6.514  0.5898 -0.8185 -0.2681
   14SAPS   C28 1780   6.410   6.029   6.653  0.1815 -0.4295  0.1990
   14SAPS   H8R 1781   6.447   6.097   6.576 -1.2777  0.2794  0.1011
   14SAPS   C29 1782   6.400   6.075   6.784  0.2238  0.2342 -0.2467
   14SAPS   H9R 1783   6.451   6.170   6.808  1.9447 -0.6697 -0.1357
   14SAPS  C210 1784   6.360   5.991   6.904  0.4537 -0.9016 -0.3124
   14SAPS  H10R 1785   6.417   6.024   6.993  0.4711 -0.0334 -0.6357
   14SAPS  H10S 1786   6.380   5.882   6.897 -1.3376 -1.2350 -0.7371
   14SAPS  C211 1787   6.210   6.003   6.932  1.5462  0.0507  0.2380
   14SAPS  H11R 1788   6.143   5.949   6.864  2.9310 -1.5328  0.0846
   14SAPS  C212 1789   6.158   6.067   7.037  0.0434 -0.0227  0.1589
   14SAPS  H12R 1790   6.050   6.086   7.043 -0.0171 -0.3784  0.2432
   14SAPS  C213 1791   6.219   6.146   7.149 -0.8823  0.7507 -0.3545
   14SAPS  H13R 1792   6.188   6.252   7.142  1.5899  1.5426 -0.3151
   14SAPS  H13S 1793   6.330   6.147   7.153 -0.8374  2.1816 -1.2479
   14SAPS  C214 1794   6.174   6.080   7.273  0.1800 -0.9657 -0.6096
   14SAPS  H14R 1795   6.229   5.993   7.311  0.5968  0.7636  3.1566
   14SAPS  C215 1796   6.094   6.124   7.364  0.6237  0.0248 -0.8320
   14SAPS  H15R 1797   6.068   6.057   7.447  1.5945  1.2629  0.5078
   14SAPS  C216 1798   6.011   6.252   7.361 -0.0563  0.1349  0.5500
   14SAPS  H16R 1799   6.060   6.324   7.291 -0.7745 -0.5380 -0.6734
   14SAPS  H16S 1800   6.010   6.309   7.457  1.7461  1.3390 -0.1022
   14SAPS  C217 1801   5.852   6.221   7.346 -0.7007 -0.4485  0.0804
   14SAPS  H17R 1802   5.840   6.204   7.237  0.8947 -3.2251  0.2466
   14SAPS  H17S 1803   5.800   6.313   7.382  1.5604  1.2382 -0.7224
   14SAPS  C218 1804   5.806   6.110   7.433  0.0229  0.4945 -0.5460
   14SAPS  H18R 1805   5.834   6.122   7.539  0.5710  1.1474 -0.7577
   14SAPS  H18S 1806   5.860   6.022   7.392 -1.4652  0.0161 -1.5810
   14SAPS  C219 1807   5.650   6.076   7.418 -0.1566  0.8105  0.1254
   14SAPS  H19R 1808   5.627   5.989   7.482  4.2313 -0.5108  0.1793
   14SAPS  H19S 1809   5.633   6.043   7.313  0.6241 -1.3952  0.6345
   14SAPS  C220 1810   5.560   6.192   7.457  0.5074 -0.1984 -0.5383
   14SAPS  H20R 1811   5.456   6.155   7.462  0.5448 -0.3000 -0.5104
   14SAPS  H20S 1812   5.568   6.282   7.393 -0.8218 -0.3928 -1.0057
   14SAPS  H20T 1813   5.577   6.226   7.561 -3.2777 -1.2112  0.5631
   14SAPS   C33 1814   6.028   6.204   6.456 -0.4138  0.1694 -0.0091
   14SAPS   H3X 1815   5.931   6.151   6.472 -0.6555  0.5557 -0.1662
   14SAPS   H3Y 1816   6.006   6.292   6.393 -0.2818  1.5099  1.7310
   14SAPS   C34 1817   6.069   6.243   6.597 -0.1319  0.1753  0.2243
   14SAPS   H4X 1818   6.166   6.297   6.595 -0.9040  1.5575 -1.3268
   14SAPS   H4Y 1819   6.073   6.147   6.654  0.8003 -0.4664 -0.8702
   14SAPS   C35 1820   5.984   6.335   6.677  0.5335 -0.7343 -0.1751
   14SAPS   H5X 1821   5.884   6.295   6.702  1.0018 -1.3715  0.7516
   14SAPS   H5Y 1822   5.974   6.430   6.620  1.9015 -0.0229  0.7075
   14SAPS   C36 1823   6.058   6.383   6.806  0.2171  0.9320 -0.3110
   14SAPS   H6X 1824   6.165   6.399   6.779  0.8426 -2.4590 -0.3160
   14SAPS   H6Y 1825   6.044   6.298   6.876  0.8976 -0.4578 -1.7951
   14SAPS   C37 1826   6.018   6.513   6.874 -0.0351 -0.2374  0.1400
   14SAPS   H7X 1827   5.911   6.534   6.852  0.0113  0.1107  0.2461
   14SAPS   H7Y 1828   6.088   6.588   6.832  0.6121 -0.8152  0.1726
   14SAPS   C38 1829   6.022   6.506   7.023  0.3011 -1.1878  0.0761
   14SAPS   H8X 1830   6.125   6.504   7.065  0.2015  0.1193  0.4150
   14SAPS   H8Y 1831   5.977   6.410   7.056  1.1363 -2.2866 -1.8178
   14SAPS   C39 1832   5.959   6.629   7.084  0.4385 -1.0456 -1.0426
   14SAPS   H9X 1833   5.861   6.649   7.036  0.2169 -0.5337 -0.4003
   14SAPS   H9Y 1834   6.006   6.729   7.068 -2.6867  0.5119 -1.3926
   14SAPS  C310 1835   5.941   6.626   7.237  0.5021 -0.2108  0.4722
   14SAPS  H10X 1836   6.038   6.626   7.290  1.2590  0.8928 -0.8337
   14SAPS  H10Y 1837   5.897   6.529   7.270  0.4380 -0.0359  0.9019
   14SAPS  C311 1838   5.853   6.737   7.297  0.0001 -0.1788  0.0948
   14SAPS  H11X 1839   5.753   6.729   7.251  0.7000  1.2643 -1.8243
   14SAPS  H11Y 1840   5.896   6.837   7.272  0.3373 -0.1066  0.9057
   14SAPS  C312 1841   5.856   6.723   7.452  0.0892 -1.0058  0.2459
   14SAPS  H12X 1842   5.803   6.806   7.503  0.5189 -0.5577 -0.0344
   14SAPS  H12Y 1843   5.956   6.720   7.501 -1.1209 -0.5846  2.9333
   14SAPS  C313 1844   5.781   6.595   7.499 -0.0806  0.1832  0.7633
   14SAPS  H13X 1845   5.828   6.498   7.474  2.4858  0.2997  4.4556
   14SAPS  H13Y 1846   5.684   6.597   7.445 -0.4471  0.8047  1.4318
   14SAPS  C314 1847   5.756   6.601   7.652 -0.5212  0.7415  0.3984
   14SAPS  H14X 1848   5.716   6.702   7.679 -2.3327 -0.3424  2.0669
   14SAPS  H14Y 1849   5.854   6.584   7.701  0.3435 -2.4216 -2.1485
   14SAPS  C315 1850   5.661   6.498   7.713  0.0673  0.4270 -0.0175
   14SAPS  H15X 1851   5.664   6.508   7.824 -0.4505 -0.4098  0.0720
   14SAPS  H15Y 1852   5.703   6.398   7.692 -1.1079  0.3619 -2.2954
   14SAPS  C316 1853   5.519   6.520   7.658 -0.0270 -0.3049  0.8146
   14SAPS  H16X 1854   5.468   6.425   7.687 -1.7780  0.1760 -0.5320
   14SAPS  H16Y 1855   5.515   6.536   7.548 -2.1065  2.7679  1.2332
   14SAPS  C317 1856   5.429   6.629   7.713 -0.1231 -0.1518 -0.6745
   14SAPS  H17X 1857   5.337   6.631   7.652 -0.2103  0.4141 -0.5333
   14SAPS  H17Y 1858   5.475   6.728   7.691 -0.6279  0.2637  0.0738
   14SAPS  C318 1859   5.386   6.621   7.862 -1.0893  0.1375 -0.4902
   14SAPS  H18X 1860   5.339   6.523   7.887  1.7652 -0.5626  3.0590
   14SAPS  H18Y 1861   5.324   6.709   7.889  1.5658  2.5176 -1.6816
   14SAPS  H18Z 1862   5.477   6.632   7.924 -0.6560  1.9391 -1.3835
   15SAPS     N 1863   7.007   5.893   5.490 -0.4982  0.0382 -0.6673
   15SAPS   HN1 1864   7.042   5.957   5.564  1.3221  0.1889 -1.6311
   15SAPS   HN2 1865   7.042   5.930   5.400  0.1489 -0.1956 -0.5149
   15SAPS   HN3 1866   6.903   5.898   5.487 -0.4499  4.1906 -0.5955
   15SAPS   C12 1867   7.048   5.750   5.497 -0.5640  0.1163  0.5406
   15SAPS  H12A 1868   6.986   5.709   5.418 -0.4965 -0.6393  0.8757
   15SAPS   C13 1869   7.200   5.712   5.482 -1.0233  0.5976  0.6069
   15SAPS  O13A 1870   7.282   5.810   5.467  0.9617 -0.3600  0.0743
   15SAPS  O13B 1871   7.235   5.590   5.478 -0.5166  0.6020 -0.3166
   15SAPS   C11 1872   7.000   5.692   5.638 -0.5358  0.1175 -0.4495
   15SAPS  H11A 1873   7.060   5.753   5.708 -0.1570  0.6913 -1.2588
   15SAPS  H11B 1874   7.032   5.586   5.650  0.7645  0.4805 -0.5667
   15SAPS     P 1875   6.789   5.788   5.772  0.3166 -0.6430  0.1562
   15SAPS   O13 1876   6.837   5.925   5.745 -0.5066 -0.3506  0.1706
   15SAPS   O14 1877   6.644   5.767   5.774 -0.5082 -0.3554  0.0038
   15SAPS   O12 1878   6.856   5.703   5.653  0.4916  0.6335 -0.0543
   15SAPS   O11 1879   6.862   5.739   5.904 -0.1198 -0.2197  0.1212
   15SAPS    C1 1880   6.840   5.609   5.956 -0.0024  0.1022  0.2018
   15SAPS    HA 1881   6.759   5.617   6.031 -0.3250 -1.5872  0.0696
   15SAPS    HB 1882   6.813   5.534   5.878  0.4678  0.4536 -0.3130
   15SAPS    C2 1883   6.962   5.544   6.026  0.9327  0.3889  0.2051
   15SAPS    HS 1884   6.932   5.454   6.083 -0.2497 -1.0228 -2.4418
   15SAPS   O21 1885   7.023   5.647   6.104  0.3122 -0.3195 -0.0598
   15SAPS   C21 1886   6.961   5.668   6.219  0.6223  0.7701 -0.4112
   15SAPS   O22 1887   6.871   5.601   6.266  0.0346  0.3234  0.6231
   15SAPS   C22 1888   7.034   5.778   6.292 -0.1562  0.5123  0.7021
   15SAPS   H2R 1889   7.061   5.736   6.391 -1.9850  0.3657  1.1795
   15SAPS   H2S 1890   7.125   5.812   6.237  0.7388  0.6515  2.2094
   15SAPS    C3 1891   7.063   5.478   5.923 -0.4423  0.2577 -0.2524
   15SAPS    HX 1892   7.099   5.556   5.853 -2.9256  1.4195 -0.3504
   15SAPS    HY 1893   7.005   5.412   5.855 -0.3780 -0.1055  0.0411
   15SAPS   O31 1894   7.161   5.392   5.991  0.2744  0.5684 -0.9248
   15SAPS   C31 1895   7.274   5.454   6.021 -0.1812  0.0993  0.4054
   15SAPS   O32 1896   7.301   5.565   5.990 -0.5602  0.4011 -0.3677
   15SAPS   C32 1897   7.365   5.363   6.098 -0.2611 -0.4819 -0.1710
   15SAPS   H2X 1898   7.466   5.361   6.053  0.1777 -0.5737  0.7952
   15SAPS   H2Y 1899   7.331   5.258   6.087  1.9368 -1.1200 -1.4164
   15SAPS   C23 1900   6.961   5.910   6.320  0.6681 -0.5060 -0.0565
   15SAPS   H3R 1901   6.854   5.889   6.342 -0.4086  2.5467 -1.7718
   15SAPS   H3S 1902   6.961   5.959   6.220 -0.7481  0.4352  0.3919
   15SAPS   C24 1903   7.034   5.991   6.430 -0.0557  0.1792  0.2172
   15SAPS   H4R 1904   7.142   5.972   6.411 -0.7904 -1.8905 -2.3370
   15SAPS   H4S 1905   7.002   5.943   6.525 -2.3667 -3.2440 -2.0703
   15SAPS   C25 1906   7.011   6.132   6.423 -0.0968 -0.3880 -0.2694
   15SAPS   H5R 1907   7.007   6.178   6.323  1.3016 -0.6445 -0.4724
   15SAPS   C26 1908   6.999   6.201   6.541  0.1451 -0.4292  0.1856
   15SAPS   H6R 1909   6.973   6.308   6.544 -1.4925 -0.7999  0.1808
   15SAPS   C27 1910   7.017   6.147   6.680  0.4721  0.3247 -0.4769
   15SAPS   H7R 1911   7.069   6.221   6.746 -0.1827 -1.2698  1.9805
   15SAPS   H7S 1912   7.091   6.064   6.671 -0.1099 -0.1729 -0.6728
   15SAPS   C28 1913   6.890   6.103   6.744  0.3012 -0.8307 -0.8093
   15SAPS   H8R 1914   6.829   6.053   6.667  0.3030 -1.4773 -0.3996
   15SAPS   C29 1915   6.847   6.092   6.873 -0.7485  0.7654 -0.3673
   15SAPS   H9R 1916   6.747   6.051   6.895  0.0001 -0.7427  0.3743
   15SAPS  C210 1917   6.930   6.105   6.998  0.2893 -0.4737  0.0289
   15SAPS  H10R 1918   6.889   6.026   7.064 -0.0359 -1.4654 -1.3089
   15SAPS  H10S 1919   6.906   6.199   7.053 -2.3370 -1.1828  0.2570
   15SAPS  C211 1920   7.079   6.088   6.997 -0.4978 -0.7271 -0.7104
   15SAPS  H11R 1921   7.139   6.130   6.915  0.4593 -1.8398 -0.6064
   15SAPS  C212 1922   7.148   6.020   7.091 -0.3918  0.1391 -1.1537
   15SAPS  H12R 1923   7.257   6.006   7.078 -0.2633  0.4038 -0.4001
   15SAPS  C213 1924   7.095   5.957   7.217  0.5378 -0.3443  0.1853
   15SAPS  H13R 1925   7.031   5.869   7.192 -0.8508  0.5944  0.3128
   15SAPS  H13S 1926   7.021   6.026   7.263  1.5063  0.8036  0.0587
   15SAPS  C214 1927   7.185   5.940   7.329  0.0724  0.2150  0.5442
   15SAPS  H14R 1928   7.238   6.035   7.344 -0.2071  0.5977 -0.7903
   15SAPS  C215 1929   7.209   5.830   7.404  0.7468 -0.0909 -0.0607
   15SAPS  H15R 1930   7.275   5.845   7.491 -0.8964  1.8995  0.9366
   15SAPS  C216 1931   7.146   5.695   7.384  0.3897 -0.7056  0.1128
   15SAPS  H16R 1932   7.191   5.646   7.295  2.8228 -2.3834  2.1117
   15SAPS  H16S 1933   7.035   5.700   7.382  0.4005  1.5486  1.5371
   15SAPS  C217 1934   7.191   5.603   7.500  0.2951  0.5452  0.3452
   15SAPS  H17R 1935   7.157   5.650   7.595 -2.2213  0.7747 -0.5897
   15SAPS  H17S 1936   7.300   5.584   7.505  0.2159  0.3898  1.7265
   15SAPS  C218 1937   7.134   5.461   7.482  1.2965 -0.0474 -0.1211
   15SAPS  H18R 1938   7.173   5.407   7.393  1.3222 -0.8968  0.3875
   15SAPS  H18S 1939   7.024   5.475   7.474  1.2477 -0.8484 -1.1191
   15SAPS  C219 1940   7.154   5.376   7.608  0.4966  0.4525  0.2808
   15SAPS  H19R 1941   7.251   5.398   7.658  2.0132 -2.8771 -0.8420
   15SAPS  H19S 1942   7.164   5.274   7.566 -0.0337  0.8679 -0.8797
   15SAPS  C220 1943   7.033   5.385   7.700 -0.9327  0.3562  0.4756
   15SAPS  H20R 1944   7.048   5.333   7.797  1.1880  1.3972  0.7573
   15SAPS  H20S 1945   6.940   5.354   7.647 -0.6331  1.4440 -0.7342
   15SAPS  H20T 1946   7.032   5.492   7.729  0.6012  0.4675  0.1652
   15SAPS   C33 1947   7.367   5.406   6.242 -0.2776  0.6046 -0.1659
   15SAPS   H3X 1948   7.382   5.313   6.301 -1.0585  1.0217  0.7101
   15SAPS   H3Y 1949   7.272   5.439   6.289 -0.6806 -2.3739  1.3074
   15SAPS   C34 1950   7.483   5.506   6.266  0.3107  0.1210  0.1613
   15SAPS   H4X 1951   7.505   5.551   6.167  1.6103  1.6941  1.1293
   15SAPS   H4Y 1952   7.578   5.472   6.313  1.8012  2.2320 -1.1128
   15SAPS   C35 1953   7.443   5.615   6.366 -0.3552 -1.0004 -0.8009
   15SAPS   H5X 1954   7.349   5.669   6.340  0.8072  0.3361 -2.3743
   15SAPS   H5Y 1955   7.525   5.689   6.364  0.4622 -1.8957 -2.2945
   15SAPS   C36 1956   7.430   5.562   6.511  0.2830  0.7862  0.8340
   15SAPS   H6X 1957   7.529   5.526   6.546 -0.2009 -0.7262  0.7448
   15SAPS   H6Y 1958   7.361   5.475   6.522 -0.1630  1.3216  2.6392
   15SAPS   C37 1959   7.397   5.668   6.616 -0.0869 -0.6361  0.1496
   15SAPS   H7X 1960   7.311   5.732   6.587  1.2845  1.6061  0.7964
   15SAPS   H7Y 1961   7.480   5.742   6.620 -1.0973  0.4575  1.7451
   15SAPS   C38 1962   7.364   5.609   6.756 -0.0748 -0.8487 -0.0439
   15SAPS   H8X 1963   7.446   5.549   6.802 -0.0754  0.9855  2.5391
   15SAPS   H8Y 1964   7.274   5.544   6.746 -0.6823  0.1050 -0.9783
   15SAPS   C39 1965   7.313   5.721   6.850 -0.5393 -0.3239 -0.8119
   15SAPS   H9X 1966   7.243   5.781   6.789  0.4278 -0.6498 -2.2845
   15SAPS   H9Y 1967   7.395   5.790   6.880 -0.0628 -1.0615 -0.3925
   15SAPS  C310 1968   7.245   5.669   6.978  0.7267  0.1990  0.3410
   15SAPS  H10X 1969   7.165   5.599   6.947 -0.9391  0.5289  3.4964
   15SAPS  H10Y 1970   7.195   5.743   7.044 -0.5957 -2.8414  3.0064
   15SAPS  C311 1971   7.334   5.577   7.066  0.4753  0.1452 -0.4356
   15SAPS  H11X 1972   7.378   5.484   7.024  1.1703  0.1691  0.2246
   15SAPS  H11Y 1973   7.277   5.535   7.151 -0.0009  2.4693  0.4726
   15SAPS  C312 1974   7.443   5.650   7.148  0.4947  0.2509 -0.0760
   15SAPS  H12X 1975   7.392   5.746   7.171 -0.5015  0.5270 -3.0411
   15SAPS  H12Y 1976   7.527   5.672   7.078 -1.2894 -0.4418 -2.5759
   15SAPS  C313 1977   7.508   5.580   7.268  1.1030  0.2459 -0.1687
   15SAPS  H13X 1978   7.571   5.495   7.232  2.5407  2.5281 -3.5015
   15SAPS  H13Y 1979   7.427   5.547   7.337  2.1504 -0.7496  0.6151
   15SAPS  C314 1980   7.582   5.692   7.336  0.4427  0.5266 -0.1071
   15SAPS  H14X 1981   7.514   5.776   7.362  0.6483  1.2703 -1.8504
   15SAPS  H14Y 1982   7.657   5.722   7.260 -1.6649 -1.7052 -3.3357
   15SAPS  C315 1983   7.660   5.647   7.461 -0.5301  0.3856 -0.3381
   15SAPS  H15X 1984   7.716   5.738   7.494 -0.2524  0.0985 -0.0161
   15SAPS  H15Y 1985   7.738   5.576   7.427  1.2006  0.4281  3.1291
   15SAPS  C316 1986   7.564   5.604   7.574 -0.2690  0.2017  0.0201
   15SAPS  H16X 1987   7.500   5.520   7.541  0.2805  0.5264 -1.9844
   15SAPS  H16Y 1988   7.493   5.684   7.605  0.3920  0.1036  1.9203
   15SAPS  C317 1989   7.652   5.559   7.693  0.3162 -0.2552 -0.6225
   15SAPS  H17X 1990   7.717   5.646   7.714 -1.0804  1.6393 -3.4632
   15SAPS  H17Y 1991   7.722   5.476   7.671 -0.3878 -0.6957 -1.2862
   15SAPS  C318 1992   7.574   5.531   7.819  0.3902  1.0347  0.1621
   15SAPS  H18X 1993   7.523   5.432   7.815  1.2038  0.6181 -0.4791
   15SAPS  H18Y 1994   7.503   5.611   7.848 -0.5881 -0.5476  2.3850
   15SAPS  H18Z 1995   7.652   5.506   7.894  1.7484 -1.2594 -1.8656
   16SAPS     N 1996   7.084   0.478   5.574  0.5077  0.0995  0.6700
   16SAPS   HN1 1997   7.068   0.563   5.515 -3.6725 -1.4390 -0.8223
   16SAPS   HN2 1998   7.016   0.475   5.652  0.8278  0.4549  0.9646
   16SAPS   HN3 1999   7.179   0.483   5.614  0.5177  1.9880  0.5036
   16SAPS   C12 2000   7.084   0.347   5.503 -0.0535 -0.0412  0.9993
   16SAPS  H12A 2001   6.995   0.350   5.441  0.5031 -0.1422  0.1677
   16SAPS   C13 2002   7.202   0.320   5.402 -0.4564  0.0940 -0.1020
   16SAPS  O13A 2003   7.294   0.402   5.376 -0.0203  0.6850 -0.0705
   16SAPS  O13B 2004   7.215   0.213   5.346  0.1000  0.0429  0.5273
   16SAPS   C11 2005   7.078   0.227   5.597 -0.0646  0.2929  0.2283
   16SAPS  H11A 2006   7.180   0.219   5.638  1.9185  0.1706 -4.1687
   16SAPS  H11B 2007   7.061   0.134   5.538  2.2286  0.0032 -0.0420
   16SAPS     P 2008   6.832   0.194   5.655  0.2924 -0.1617  0.1574
   16SAPS   O13 2009   6.775   0.280   5.549 -0.0787  0.2633 -0.0989
   16SAPS   O14 2010   6.842   0.054   5.616  0.1494  0.1620 -0.5458
   16SAPS   O12 2011   6.979   0.237   5.698  0.2437 -0.2485  0.1675
   16SAPS   O11 2012   6.743   0.205   5.786  0.0504 -0.1900 -0.0749
   16SAPS    C1 2013   6.786   0.160   5.916 -0.2148  0.4820 -0.0731
   16SAPS    HA 2014   6.897   0.163   5.926 -0.1951  1.3725 -0.4434
   16SAPS    HB 2015   6.752   0.237   5.989 -2.4376 -1.1486  0.6920
   16SAPS    C2 2016   6.730   0.026   5.967 -0.4435  0.2312  0.0680
   16SAPS    HS 2017   6.747  -0.051   5.888 -0.8290  1.7061 -1.5312
   16SAPS   O21 2018   6.589   0.048   6.007 -0.0154 -0.2941  0.0832
   16SAPS   C21 2019   6.509  -0.060   6.027 -0.3268  0.0359  1.0147
   16SAPS   O22 2020   6.551  -0.174   5.998  0.2329  0.6005  0.0353
   16SAPS   C22 2021   6.354  -0.031   6.057  0.1289 -0.3195 -0.2603
   16SAPS   H2R 2022   6.343   0.075   6.024  0.3111 -0.2920 -0.2324
   16SAPS   H2S 2023   6.297  -0.094   5.985 -3.8386  2.9881 -0.3965
   16SAPS    C3 2024   6.812  -0.039   6.081  0.1674  0.0545 -0.2275
   16SAPS    HX 2025   6.909  -0.079   6.043  1.4543 -0.2434  3.0356
   16SAPS    HY 2026   6.762  -0.126   6.129 -0.8369  1.3956  1.2522
   16SAPS   O31 2027   6.849   0.069   6.172  0.1021  0.1582 -0.6747
   16SAPS   C31 2028   6.912   0.024   6.283 -0.8391 -0.2632 -0.3408
   16SAPS   O32 2029   6.950  -0.088   6.306 -0.4058 -0.4347 -0.1561
   16SAPS   C32 2030   6.924   0.150   6.376  0.2571  0.5125  0.4696
   16SAPS   H2X 2031   6.836   0.214   6.354  0.9264  0.9554 -1.0837
   16SAPS   H2Y 2032   7.020   0.203   6.356 -1.4757  3.2954 -1.1534
   16SAPS   C23 2033   6.318  -0.062   6.206  0.0714 -0.0245  1.1613
   16SAPS   H3R 2034   6.371  -0.155   6.236  1.0916 -0.1178 -0.7625
   16SAPS   H3S 2035   6.211  -0.088   6.193  0.5177 -1.1844 -0.5678
   16SAPS   C24 2036   6.342   0.056   6.303  0.4343  0.4101 -0.2066
   16SAPS   H4R 2037   6.293   0.148   6.263 -0.6547  0.5278  1.2951
   16SAPS   H4S 2038   6.446   0.092   6.313  0.0750  2.4181 -2.7451
   16SAPS   C25 2039   6.279   0.019   6.434 -0.3199  0.4117  0.8315
   16SAPS   H5R 2040   6.169   0.015   6.431 -0.3454  1.0219 -1.5877
   16SAPS   C26 2041   6.346  -0.008   6.542  0.1055 -0.5124  0.7729
   16SAPS   H6R 2042   6.282  -0.053   6.619 -2.6538 -1.7157 -2.0588
   16SAPS   C27 2043   6.501  -0.002   6.555 -0.0914 -0.2055 -0.7261
   16SAPS   H7R 2044   6.531   0.030   6.657  0.6903  0.0833 -1.0331
   16SAPS   H7S 2045   6.541   0.071   6.481 -2.0576  0.7461 -0.9149
   16SAPS   C28 2046   6.579  -0.132   6.529 -0.4917 -0.4856  0.5758
   16SAPS   H8R 2047   6.598  -0.150   6.422  1.3519 -0.9667  0.9500
   16SAPS   C29 2048   6.651  -0.205   6.617  0.0592  0.0048  0.3142
   16SAPS   H9R 2049   6.719  -0.276   6.567  0.5989 -0.6134  1.8654
   16SAPS  C210 2050   6.682  -0.178   6.763  0.0892 -0.4548  0.0437
   16SAPS  H10R 2051   6.648  -0.252   6.838  2.2192  0.1994  1.7694
   16SAPS  H10S 2052   6.643  -0.081   6.801 -0.0126  0.5109 -2.3575
   16SAPS  C211 2053   6.833  -0.168   6.774  0.0793  0.3555  0.2953
   16SAPS  H11R 2054   6.878  -0.094   6.706  0.7983 -0.6224 -0.3226
   16SAPS  C212 2055   6.904  -0.237   6.874 -0.4583  0.4194  0.2811
   16SAPS  H12R 2056   7.012  -0.217   6.872 -0.4180  0.1548 -0.5741
   16SAPS  C213 2057   6.839  -0.330   6.979  0.0986  0.1048 -0.2572
   16SAPS  H13R 2058   6.777  -0.409   6.930 -1.0274  0.9424 -0.2427
   16SAPS  H13S 2059   6.765  -0.268   7.035 -0.8994 -0.2273 -1.1669
   16SAPS  C214 2060   6.933  -0.395   7.079 -0.2836  0.3706 -0.1573
   16SAPS  H14R 2061   6.967  -0.492   7.040  0.4793  0.3470  0.5279
   16SAPS  C215 2062   6.982  -0.351   7.191 -0.0004 -0.1338  0.6371
   16SAPS  H15R 2063   7.064  -0.409   7.237  2.1645  0.3064 -2.3853
   16SAPS  C216 2064   6.953  -0.220   7.258 -0.6488  0.0549  0.6598
   16SAPS  H16R 2065   6.938  -0.240   7.366 -0.2965  0.2210  0.7400
   16SAPS  H16S 2066   6.868  -0.165   7.212 -0.6404 -1.9783 -2.0758
   16SAPS  C217 2067   7.077  -0.126   7.259  0.0253 -0.3958  0.0771
   16SAPS  H17R 2068   7.151  -0.178   7.324 -0.3922  0.9773  1.7579
   16SAPS  H17S 2069   7.027  -0.039   7.308 -0.5222 -0.4276 -0.4105
   16SAPS  C218 2070   7.137  -0.091   7.119  0.4015  0.5638  0.1618
   16SAPS  H18R 2071   7.045  -0.066   7.061  0.0092 -0.3103  0.3891
   16SAPS  H18S 2072   7.180  -0.178   7.065 -3.6408 -1.3307 -0.4018
   16SAPS  C219 2073   7.230   0.040   7.120 -0.3514 -0.3785  0.2353
   16SAPS  H19R 2074   7.309   0.023   7.197 -1.5682 -1.1408  1.3649
   16SAPS  H19S 2075   7.167   0.119   7.166  1.4108  0.8747  0.6056
   16SAPS  C220 2076   7.279   0.084   6.977  0.1089 -0.1499  0.0080
   16SAPS  H20R 2077   7.321   0.187   6.979  0.0976 -0.1545  0.8073
   16SAPS  H20S 2078   7.202   0.099   6.899  1.6723  1.0765 -1.3896
   16SAPS  H20T 2079   7.363   0.019   6.942  0.3787  0.0409  0.2991
   16SAPS   C33 2080   6.914   0.111   6.524  0.3320  0.4033  0.3844
   16SAPS   H3X 2081   6.998   0.041   6.544 -2.4097 -2.3817  3.3718
   16SAPS   H3Y 2082   6.818   0.056   6.529  0.4742  0.1501  0.3682
   16SAPS   C34 2083   6.928   0.230   6.614  0.2146 -0.6793  0.2297
   16SAPS   H4X 2084   6.854   0.309   6.590  1.3943  0.5118  0.3895
   16SAPS   H4Y 2085   7.026   0.281   6.600  0.0738 -0.3711  0.3609
   16SAPS   C35 2086   6.916   0.189   6.763  0.1511 -0.3032  0.2487
   16SAPS   H5X 2087   6.980   0.103   6.793 -0.8012 -0.2500  2.6217
   16SAPS   H5Y 2088   6.813   0.150   6.779 -0.4511  1.5282  1.0976
   16SAPS   C36 2089   6.955   0.308   6.856  0.9380  0.1253  0.2044
   16SAPS   H6X 2090   6.888   0.395   6.847 -1.0330 -1.2359  1.0431
   16SAPS   H6Y 2091   7.060   0.331   6.827  0.3776  0.3778 -1.7760
   16SAPS   C37 2092   6.955   0.268   6.999  0.4656  0.6003 -0.4707
   16SAPS   H7X 2093   7.030   0.188   7.016 -0.6688 -0.3900  0.0795
   16SAPS   H7Y 2094   6.863   0.220   7.039  0.4889  1.1965  0.3441
   16SAPS   C38 2095   6.976   0.386   7.094 -0.1993 -0.3099 -0.5865
   16SAPS   H8X 2096   7.013   0.353   7.193 -0.1179  0.3241 -0.4001
   16SAPS   H8Y 2097   6.876   0.430   7.116 -0.9403 -1.9487 -0.5224
   16SAPS   C39 2098   7.083   0.494   7.061  0.1946 -0.3575  0.1471
   16SAPS   H9X 2099   7.070   0.568   7.142  0.5295 -1.2754  1.0684
   16SAPS   H9Y 2100   7.050   0.533   6.962 -0.6023 -2.8150 -0.6447
   16SAPS  C310 2101   7.229   0.448   7.054 -0.4246  0.2589 -0.1938
   16SAPS  H10X 2102   7.247   0.395   6.958 -0.3127 -1.6104  0.8080
   16SAPS  H10Y 2103   7.251   0.366   7.125  1.6075  1.6590  0.8886
   16SAPS  C311 2104   7.324   0.563   7.079 -0.7939 -0.1009 -0.4175
   16SAPS  H11X 2105   7.293   0.611   7.174 -1.9043 -3.7048  1.2480
   16SAPS  H11Y 2106   7.322   0.643   7.003 -1.5772  1.2587  0.9669
   16SAPS  C312 2107   7.464   0.508   7.105 -0.3977 -0.3457 -0.1785
   16SAPS  H12X 2108   7.505   0.434   7.033 -0.2261 -2.2555  1.7952
   16SAPS  H12Y 2109   7.451   0.446   7.196 -2.8284 -2.2497 -1.6936
   16SAPS  C313 2110   7.569   0.623   7.120 -0.0768  0.6120 -0.0730
   16SAPS  H13X 2111   7.523   0.711   7.070 -0.3173  0.7382  0.3704
   16SAPS  H13Y 2112   7.653   0.594   7.053 -0.8316 -0.9539 -0.4006
   16SAPS  C314 2113   7.621   0.646   7.266  0.7215 -0.1578 -0.0361
   16SAPS  H14X 2114   7.711   0.711   7.258 -0.8850  2.2921  0.5883
   16SAPS  H14Y 2115   7.646   0.547   7.309  0.2132  0.1261  0.9338
   16SAPS  C315 2116   7.526   0.721   7.359  0.2150  0.3611 -0.0333
   16SAPS  H15X 2117   7.428   0.670   7.362  0.5999 -0.3468  1.8363
   16SAPS  H15Y 2118   7.526   0.827   7.325 -1.1952  0.2451 -0.4383
   16SAPS  C316 2119   7.582   0.725   7.502 -0.0221 -0.0364 -0.3593
   16SAPS  H16X 2120   7.683   0.771   7.507  0.0948 -0.3377  0.1004
   16SAPS  H16Y 2121   7.585   0.626   7.551 -0.1385  0.1004 -0.0731
   16SAPS  C317 2122   7.508   0.819   7.596  0.5170  0.1461 -0.4674
   16SAPS  H17X 2123   7.403   0.781   7.600 -0.6652  3.0751 -0.9569
   16SAPS  H17Y 2124   7.504   0.914   7.539 -0.5000 -0.0027 -0.6826
   16SAPS  C318 2125   7.570   0.849   7.734 -0.2735  0.7682 -0.1923
   16SAPS  H18X 2126   7.534   0.941   7.784  0.2348 -0.5827  2.8555
   16SAPS  H18Y 2127   7.680   0.857   7.720 -0.1339  1.4610  1.1814
   16SAPS  H18Z 2128   7.555   0.769   7.810  0.8766 -0.6213 -1.3583
   17SAPC     N 2129   4.550   3.182   9.729  0.3073  0.3631 -0.1506
   17SAPC   C12 2130   4.519   3.104   9.601 -0.6159  0.5787 -0.4436
   17SAPC  H12A 2131   4.475   3.013   9.640 -1.4484  0.8286 -0.7653
   17SAPC  H12B 2132   4.613   3.092   9.549 -0.0200  2.8808  0.0022
   17SAPC   C13 2133   4.651   3.091   9.806  0.7409 -1.3084  1.0101
   17SAPC  H13A 2134   4.596   3.000   9.824 -1.5209 -0.0986  0.5723
   17SAPC  H13B 2135   4.735   3.074   9.740 -0.3903 -1.1038 -0.5187
   17SAPC  H13C 2136   4.670   3.147   9.897  0.7735  3.0972 -1.4004
   17SAPC   C14 2137   4.612   3.307   9.694  0.1662  0.2091  0.0020
   17SAPC  H14A 2138   4.669   3.354   9.773  0.4201  0.6179 -0.4236
   17SAPC  H14B 2139   4.688   3.286   9.620  0.2458 -0.0726  0.1625
   17SAPC  H14C 2140   4.537   3.370   9.649  2.2690  1.6765 -1.6303
   17SAPC   C15 2141   4.435   3.203   9.823 -0.0315 -0.3223 -0.1957
   17SAPC  H15A 2142   4.471   3.255   9.911 -1.1750  0.5593 -0.2248
   17SAPC  H15B 2143   4.360   3.268   9.780 -1.7510 -0.9116  1.7330
   17SAPC  H15C 2144   4.388   3.110   9.850 -0.6244  0.2174  0.6786
   17SAPC   C11 2145   4.411   3.161   9.499  0.2604  0.3194 -0.5278
   17SAPC  H11A 2146   4.426   3.117   9.399  1.4190 -1.8489  0.5326
   17SAPC  H11B 2147   4.432   3.270   9.496 -2.1206  0.9006  0.8576
   17SAPC     P 2148   4.212   3.005   9.573 -0.0885 -0.3272 -0.2367
   17SAPC   O13 2149   4.288   2.936   9.677  0.2561 -0.0910 -0.2770
   17SAPC   O14 2150   4.069   3.021   9.611  0.5085  0.0457 -0.3589
   17SAPC   O12 2151   4.279   3.145   9.546 -0.5598  0.2365  0.1407
   17SAPC   O11 2152   4.222   2.938   9.433 -0.0552  0.4968 -0.0988
   17SAPC    C1 2153   4.331   2.845   9.417 -0.2414 -0.0197  0.0813
   17SAPC    HA 2154   4.426   2.871   9.469 -1.0014 -1.1729  2.1439
   17SAPC    HB 2155   4.301   2.750   9.467  1.2661 -0.5200  0.0938
   17SAPC    C2 2156   4.342   2.800   9.266 -0.5136 -0.2143 -0.3457
   17SAPC    HS 2157   4.389   2.699   9.267 -0.8352 -0.3672  0.4922
   17SAPC   O21 2158   4.422   2.891   9.188  0.0873 -0.2472 -0.2859
   17SAPC   C21 2159   4.540   2.908   9.232 -0.3823  0.3531  0.0002
   17SAPC   O22 2160   4.599   2.828   9.304  0.4186 -0.7189  0.2444
   17SAPC   C22 2161   4.607   3.027   9.162  0.4768  0.8123 -0.0660
   17SAPC   H2R 2162   4.530   3.093   9.116 -0.2116 -0.0684 -0.1907
   17SAPC   H2S 2163   4.644   3.096   9.241  0.3645  1.6173 -0.6998
   17SAPC    C3 2164   4.199   2.790   9.204  0.0012  0.8352  0.0709
   17SAPC    HX 2165   4.157   2.893   9.213  0.4501  1.0522 -0.2325
   17SAPC    HY 2166   4.153   2.711   9.266  0.2159 -0.8429 -1.7919
   17SAPC   O31 2167   4.217   2.744   9.068  0.2277 -0.1915 -0.2486
   17SAPC   C31 2168   4.106   2.749   8.995  0.1107 -0.2508  0.6202
   17SAPC   O32 2169   3.993   2.785   9.034  0.1855  0.1685  0.0360
   17SAPC   C32 2170   4.138   2.703   8.852  0.3111 -0.0882  0.3825
   17SAPC   H2X 2171   4.178   2.600   8.861 -0.6162 -0.5599 -0.6317
   17SAPC   H2Y 2172   4.219   2.767   8.811  0.5709 -0.3153  0.5326
   17SAPC   C23 2173   4.717   2.990   9.065 -0.2749 -0.1733 -0.3544
   17SAPC   H3R 2174   4.661   2.943   8.981 -1.8960  1.1544 -0.0567
   17SAPC   H3S 2175   4.795   2.915   9.088  0.4480  0.6257 -0.1457
   17SAPC   C24 2176   4.776   3.118   8.995  0.5483  0.5364  0.0084
   17SAPC   H4R 2177   4.687   3.169   8.953  0.4326 -0.3538 -0.8636
   17SAPC   H4S 2178   4.845   3.086   8.914  1.5386  0.3041  0.9061
   17SAPC   C25 2179   4.852   3.200   9.091  0.2493 -0.3520 -0.7418
   17SAPC   H5R 2180   4.954   3.170   9.117 -0.4008 -2.9998 -0.9105
   17SAPC   C26 2181   4.809   3.313   9.154 -0.0821 -0.0670 -0.1145
   17SAPC   H6R 2182   4.895   3.355   9.208  1.0967 -1.9894 -0.3863
   17SAPC   C27 2183   4.671   3.383   9.147 -0.9536 -0.1850  0.5175
   17SAPC   H7R 2184   4.582   3.327   9.183 -0.8730  0.0045  1.0223
   17SAPC   H7S 2185   4.648   3.398   9.040 -0.5967 -1.5077  0.2477
   17SAPC   C28 2186   4.690   3.510   9.221  0.1263 -0.3305  0.2623
   17SAPC   H8R 2187   4.730   3.500   9.323  0.9312  0.3583  0.0197
   17SAPC   C29 2188   4.658   3.633   9.176 -0.7038  0.1740 -0.2933
   17SAPC   H9R 2189   4.654   3.714   9.250 -4.5775  0.1157 -0.2059
   17SAPC  C210 2190   4.607   3.679   9.037  0.3351 -0.1904  0.4719
   17SAPC  H10R 2191   4.667   3.640   8.952  0.2938  3.2293 -1.2854
   17SAPC  H10S 2192   4.598   3.790   9.040  0.0103 -0.2328  1.4135
   17SAPC  C211 2193   4.470   3.626   9.004  0.0035  0.1695 -0.2609
   17SAPC  H11R 2194   4.436   3.543   9.068  2.2500  0.6441  1.6985
   17SAPC  C212 2195   4.393   3.661   8.902  0.6278 -0.6448 -0.1423
   17SAPC  H12R 2196   4.304   3.603   8.873  0.8197 -1.4348  0.8127
   17SAPC  C213 2197   4.435   3.774   8.803 -0.0928  0.2585 -0.4484
   17SAPC  H13R 2198   4.528   3.828   8.833  0.3108 -0.9577  0.5930
   17SAPC  H13S 2199   4.363   3.858   8.816 -0.1892 -0.3096  4.4110
   17SAPC  C214 2200   4.437   3.725   8.660 -0.3535 -0.2987 -0.5986
   17SAPC  H14R 2201   4.531   3.670   8.652 -0.4403 -0.9888  2.1172
   17SAPC  C215 2202   4.332   3.711   8.573  0.9891 -0.4175  0.1299
   17SAPC  H15R 2203   4.359   3.665   8.476 -0.2338  1.7268 -1.2977
   17SAPC  C216 2204   4.180   3.751   8.599 -0.6294 -1.3188  0.1264
   17SAPC  H16R 2205   4.149   3.828   8.526  0.6529 -0.4123  0.4897
   17SAPC  H16S 2206   4.159   3.787   8.702 -1.2375  1.0772 -0.7568
   17SAPC  C217 2207   4.091   3.629   8.562 -0.0856  0.0248  0.3776
   17SAPC  H17R 2208   4.145   3.537   8.593  0.8305  0.3246 -0.2977
   17SAPC  H17S 2209   4.069   3.633   8.453 -2.7821 -1.2886  0.7930
   17SAPC  C218 2210   3.956   3.636   8.646 -0.1138 -0.0418  0.5999
   17SAPC  H18R 2211   3.886   3.559   8.607 -2.1359  1.3689  1.3098
   17SAPC  H18S 2212   3.907   3.731   8.615  1.2047  1.1564  1.9783
   17SAPC  C219 2213   3.970   3.630   8.798 -0.1014 -0.3241  0.2716
   17SAPC  H19R 2214   3.868   3.637   8.842  0.4994 -2.9087  2.3359
   17SAPC  H19S 2215   4.035   3.712   8.834  1.4014 -1.8036  1.0766
   17SAPC  C220 2216   4.027   3.503   8.859 -0.1830  0.7105  0.8488
   17SAPC  H20R 2217   3.947   3.427   8.848 -1.5293  1.7507  2.7251
   17SAPC  H20S 2218   4.036   3.518   8.969 -2.4152  3.0226  0.8043
   17SAPC  H20T 2219   4.118   3.472   8.804 -0.3238 -1.5129  1.7822
   17SAPC   C33 2220   4.018   2.713   8.755  0.2416  0.5763 -0.0099
   17SAPC   H3X 2221   3.915   2.708   8.795  0.9248  2.3899  2.2480
   17SAPC   H3Y 2222   4.033   2.631   8.682 -1.0839 -2.4243  2.8260
   17SAPC   C34 2223   4.021   2.834   8.666 -0.3164  0.1726  0.2092
   17SAPC   H4X 2224   4.002   2.803   8.561 -0.4201  1.8260 -0.2894
   17SAPC   H4Y 2225   4.120   2.884   8.666  1.5236 -3.1497 -2.4342
   17SAPC   C35 2226   3.920   2.935   8.709  0.7272 -0.1841 -0.6623
   17SAPC   H5X 2227   3.944   2.947   8.817 -0.4783  0.1449 -0.4165
   17SAPC   H5Y 2228   3.815   2.914   8.681  1.1723 -0.7548 -1.9828
   17SAPC   C36 2229   3.952   3.081   8.655  0.0823  0.0600 -0.0569
   17SAPC   H6X 2230   4.059   3.111   8.656  0.2084 -0.3858  0.3579
   17SAPC   H6Y 2231   3.894   3.153   8.716  0.7971 -0.3030  1.0963
   17SAPC   C37 2232   3.888   3.095   8.509 -0.3517 -1.2536 -0.0126
   17SAPC   H7X 2233   3.777   3.089   8.509 -0.4114 -0.3165  0.3671
   17SAPC   H7Y 2234   3.920   3.002   8.456  3.9466 -0.4005  0.7091
   17SAPC   C38 2235   3.941   3.220   8.437  0.5946 -1.0725 -0.2199
   17SAPC   H8X 2236   4.047   3.229   8.467  0.5733 -1.9539  0.1509
   17SAPC   H8Y 2237   3.884   3.307   8.478  0.0087 -1.7045  0.3352
   17SAPC   C39 2238   3.907   3.215   8.290  0.2449  0.4220 -1.1729
   17SAPC   H9X 2239   3.797   3.210   8.273  0.3271 -1.7159 -1.3929
   17SAPC   H9Y 2240   3.965   3.132   8.243 -0.1277  0.1027 -1.0761
   17SAPC  C310 2241   3.954   3.346   8.228  0.3926 -0.7434 -0.0548
   17SAPC  H10X 2242   4.056   3.386   8.250 -0.1732  2.0234 -1.9860
   17SAPC  H10Y 2243   3.881   3.423   8.260  1.0204 -0.8916  1.8425
   17SAPC  C311 2244   3.932   3.335   8.075 -0.0241 -0.1144  0.1762
   17SAPC  H11X 2245   3.822   3.325   8.062  0.0623 -0.1418 -0.5648
   17SAPC  H11Y 2246   3.970   3.241   8.031 -4.2504 -1.8855 -0.2004
   17SAPC  C312 2247   3.989   3.458   7.999 -0.5085  0.3707 -0.2656
   17SAPC  H12X 2248   4.098   3.470   8.014 -0.9655  0.6079  4.1348
   17SAPC  H12Y 2249   3.953   3.546   8.056  0.5729  1.1860 -0.8062
   17SAPC  C313 2250   3.935   3.470   7.856  0.3685 -0.5192  0.0674
   17SAPC  H13X 2251   3.829   3.497   7.879  0.1645 -2.4134  1.6281
   17SAPC  H13Y 2252   3.943   3.375   7.799 -1.0652 -0.9968  0.6203
   17SAPC  C314 2253   4.002   3.579   7.777 -0.2515  0.6750  0.6743
   17SAPC  H14X 2254   3.965   3.580   7.672  0.7000 -3.8945  0.1013
   17SAPC  H14Y 2255   4.112   3.567   7.771 -0.1378  0.7044  2.2730
   17SAPC  C315 2256   3.976   3.724   7.830  0.6700  0.3622 -0.8264
   17SAPC  H15X 2257   4.005   3.796   7.751 -1.0080  1.2675 -0.6540
   17SAPC  H15Y 2258   4.035   3.753   7.919  1.2193  0.2275 -1.1401
   17SAPC  C316 2259   3.830   3.762   7.851 -0.3898  1.1857  0.9090
   17SAPC  H16X 2260   3.793   3.706   7.940  1.1540  0.9791  1.4450
   17SAPC  H16Y 2261   3.779   3.735   7.756 -0.4759 -0.7499  1.4714
   17SAPC  C317 2262   3.793   3.907   7.872 -0.5751 -0.6126  0.2712
   17SAPC  H17X 2263   3.834   3.967   7.788 -1.2449  0.3428  0.6101
   17SAPC  H17Y 2264   3.857   3.939   7.957 -0.3286 -1.2946  0.3519
   17SAPC  C318 2265   3.646   3.942   7.893  0.0423 -0.2102 -0.0476
   17SAPC  H18X 2266   3.597   3.967   7.796 -0.9140 -1.2950  0.1296
   17SAPC  H18Y 2267   3.589   3.858   7.937 -0.9245  0.1425 -0.5817
   17SAPC  H18Z 2268   3.635   4.029   7.962 -1.5362  0.7492 -1.4190
   18SAPC     N 2269   4.201   2.375   9.851 -0.3775  0.0349  1.1654
   18SAPC   C12 2270   4.345   2.399   9.820  0.6741  0.3958  0.0253
   18SAPC  H12A 2271   4.394   2.303   9.827  0.9780  0.6068  0.9896
   18SAPC  H12B 2272   4.375   2.459   9.904 -0.6784  0.0099  0.8213
   18SAPC   C13 2273   4.181   2.329   9.995  0.1746 -0.2155  0.1996
   18SAPC  H13A 2274   4.226   2.398  10.064  1.2013 -0.9313  0.2569
   18SAPC  H13B 2275   4.076   2.324  10.021 -0.0093  2.3088  0.1739
   18SAPC  H13C 2276   4.225   2.232  10.016 -0.0980 -0.9408 -2.1866
   18SAPC   C14 2277   4.121   2.501   9.837 -0.1429 -0.7144  0.5008
   18SAPC  H14A 2278   4.144   2.578   9.909  0.4140  1.5686 -1.9687
   18SAPC  H14B 2279   4.125   2.530   9.733 -0.3587 -0.8887  0.4440
   18SAPC  H14C 2280   4.018   2.475   9.855  0.2323 -0.8770  2.6846
   18SAPC   C15 2281   4.141   2.272   9.761  0.1543  0.3362 -0.1098
   18SAPC  H15A 2282   4.197   2.180   9.767 -0.5593 -0.3804 -2.8279
   18SAPC  H15B 2283   4.041   2.253   9.799  0.5032 -2.1239 -0.2530
   18SAPC  H15C 2284   4.140   2.299   9.657 -0.2112 -1.3726 -0.5940
   18SAPC   C11 2285   4.381   2.466   9.685  0.3763  0.5581  0.0646
   18SAPC  H11A 2286   4.487   2.500   9.681  0.6446 -0.3152 -1.1172
   18SAPC  H11B 2287   4.324   2.557   9.659  0.9892  1.4122  1.6179
   18SAPC     P 2288   4.438   2.251   9.555  0.7116  0.0721  0.4022
   18SAPC   O13 2289   4.522   2.219   9.669  0.7338  0.4277 -0.4194
   18SAPC   O14 2290   4.366   2.134   9.502  0.6063  0.3279  0.2415
   18SAPC   O12 2291   4.347   2.377   9.582 -0.6270  0.1022 -0.3322
   18SAPC   O11 2292   4.523   2.294   9.431 -0.0959  0.2286 -0.4660
   18SAPC    C1 2293   4.595   2.414   9.445 -0.0256  0.6472 -0.7735
   18SAPC    HA 2294   4.534   2.506   9.450 -1.8005 -0.4675 -0.8015
   18SAPC    HB 2295   4.661   2.407   9.534 -1.1690  0.2604  0.0822
   18SAPC    C2 2296   4.692   2.447   9.326  0.3295  0.2651 -0.0624
   18SAPC    HS 2297   4.737   2.546   9.348  0.5511  0.9540 -3.1624
   18SAPC   O21 2298   4.612   2.461   9.202  0.1725 -0.3048  0.2558
   18SAPC   C21 2299   4.657   2.551   9.118  0.6309  0.3525 -0.3797
   18SAPC   O22 2300   4.746   2.629   9.143 -0.0478 -0.6486 -0.3610
   18SAPC   C22 2301   4.566   2.545   8.991  0.8541 -0.0862 -0.4291
   18SAPC   H2R 2302   4.605   2.466   8.924 -0.1484 -0.9505 -0.0321
   18SAPC   H2S 2303   4.461   2.522   9.022  0.2604  1.7832 -0.8994
   18SAPC    C3 2304   4.796   2.335   9.305  0.6078 -0.0835  0.3013
   18SAPC    HX 2305   4.750   2.237   9.279  0.0096  0.0220  0.9372
   18SAPC    HY 2306   4.860   2.320   9.395  1.3553 -0.1449 -0.2247
   18SAPC   O31 2307   4.886   2.357   9.194 -0.1127  0.2079  0.1987
   18SAPC   C31 2308   4.993   2.436   9.218  0.9675  0.1390  0.1048
   18SAPC   O32 2309   5.005   2.496   9.328 -0.3644 -0.4847 -0.1836
   18SAPC   C32 2310   5.092   2.438   9.107 -0.0251 -0.7620  0.0262
   18SAPC   H2X 2311   5.055   2.398   9.011 -0.6845 -0.5178  0.1765
   18SAPC   H2Y 2312   5.182   2.378   9.131 -0.3756 -1.9552 -1.5318
   18SAPC   C23 2313   4.569   2.679   8.917  0.7714  0.1340  0.3271
   18SAPC   H3R 2314   4.673   2.717   8.910  0.9107  0.0694  1.6866
   18SAPC   H3S 2315   4.521   2.753   8.985  0.2759  1.1544 -1.0966
   18SAPC   C24 2316   4.497   2.669   8.781 -1.0889 -0.3462  0.2734
   18SAPC   H4R 2317   4.467   2.769   8.743 -2.1747 -0.6627  0.2826
   18SAPC   H4S 2318   4.404   2.614   8.804 -0.7470 -0.6891  0.8435
   18SAPC   C25 2319   4.579   2.593   8.678  0.2780 -0.3111 -0.1514
   18SAPC   H5R 2320   4.655   2.523   8.716 -0.8628 -1.9726 -0.7956
   18SAPC   C26 2321   4.549   2.580   8.545  0.6495  0.2190 -0.5102
   18SAPC   H6R 2322   4.622   2.536   8.475  1.9395 -2.2731  2.1836
   18SAPC   C27 2323   4.437   2.641   8.475  0.3866 -0.7652  0.0831
   18SAPC   H7R 2324   4.405   2.729   8.536 -0.7728 -1.6404  0.8070
   18SAPC   H7S 2325   4.355   2.566   8.474 -0.5976  0.2767 -0.7474
   18SAPC   C28 2326   4.473   2.673   8.332 -0.8510 -0.0016  0.0479
   18SAPC   H8R 2327   4.527   2.599   8.271  0.3712  2.6233 -2.2737
   18SAPC   C29 2328   4.424   2.782   8.269 -0.3425  0.2215 -0.1887
   18SAPC   H9R 2329   4.451   2.795   8.163 -2.1948 -2.9315 -1.1900
   18SAPC  C210 2330   4.334   2.887   8.337 -0.6962 -0.1408  0.7399
   18SAPC  H10R 2331   4.391   2.953   8.405 -0.4803 -1.2930  1.7234
   18SAPC  H10S 2332   4.265   2.836   8.407  2.1683 -3.9101  1.1505
   18SAPC  C211 2333   4.255   2.965   8.231  0.1497 -0.6257 -0.0871
   18SAPC  H11R 2334   4.170   2.910   8.189  0.8513 -1.1526 -0.8499
   18SAPC  C212 2335   4.289   3.080   8.169 -0.5605 -0.0338  0.4380
   18SAPC  H12R 2336   4.216   3.131   8.105  0.4618  0.8364 -0.0857
   18SAPC  C213 2337   4.403   3.171   8.181  0.0835  0.1612 -0.9409
   18SAPC  H13R 2338   4.482   3.144   8.108  1.5978  3.2652 -0.6033
   18SAPC  H13S 2339   4.444   3.146   8.282 -0.7867 -1.2129 -0.8936
   18SAPC  C214 2340   4.374   3.319   8.182  0.6067  0.3762  0.9870
   18SAPC  H14R 2341   4.279   3.344   8.233  0.8237 -0.5569  1.8865
   18SAPC  C215 2342   4.442   3.417   8.126 -0.1356 -0.2485 -0.3961
   18SAPC  H15R 2343   4.396   3.516   8.135 -1.8805 -1.0138 -0.4679
   18SAPC  C216 2344   4.581   3.401   8.054  0.4587 -0.3957  0.8949
   18SAPC  H16R 2345   4.591   3.468   7.966  1.0100 -1.5080  0.0811
   18SAPC  H16S 2346   4.597   3.298   8.014  3.2527 -0.9172  3.0479
   18SAPC  C217 2347   4.690   3.427   8.154  0.2597 -0.4522 -0.2199
   18SAPC  H17R 2348   4.662   3.381   8.251 -0.3072 -1.6594 -0.9300
   18SAPC  H17S 2349   4.708   3.533   8.182 -2.0403 -0.0554 -0.0260
   18SAPC  C218 2350   4.828   3.357   8.127 -0.6569  0.1375  0.2260
   18SAPC  H18R 2351   4.832   3.254   8.085  3.5693  0.9540 -1.9840
   18SAPC  H18S 2352   4.874   3.354   8.229  1.2235  0.7923 -0.5554
   18SAPC  C219 2353   4.921   3.439   8.038 -0.4958 -0.1203 -0.5809
   18SAPC  H19R 2354   5.019   3.421   8.087  0.2278  0.4463 -1.7807
   18SAPC  H19S 2355   4.888   3.545   8.041  2.0893  0.7246  0.9260
   18SAPC  C220 2356   4.932   3.399   7.894 -0.6464 -0.2232  0.3986
   18SAPC  H20R 2357   5.019   3.456   7.857  0.9468 -1.3524  2.2168
   18SAPC  H20S 2358   4.835   3.410   7.841 -0.3010 -0.3289 -0.2669
   18SAPC  H20T 2359   4.968   3.295   7.883 -0.2534  0.0948 -1.5786
   18SAPC   C33 2360   5.147   2.577   9.084 -0.1308 -0.0218  0.4179
   18SAPC   H3X 2361   5.250   2.571   9.042 -0.0150  1.5689  0.4072
   18SAPC   H3Y 2362   5.156   2.635   9.178  2.8998  0.3855 -0.0121
   18SAPC   C34 2363   5.070   2.649   8.969  0.9638 -0.5499 -0.3253
   18SAPC   H4X 2364   5.107   2.754   8.972 -1.3310  0.3638 -1.4956
   18SAPC   H4Y 2365   4.964   2.638   9.000  0.8139  0.7626 -0.3152
   18SAPC   C35 2366   5.097   2.593   8.832  0.3285 -0.1861  0.3085
   18SAPC   H5X 2367   5.102   2.482   8.829  1.2814 -0.1482  0.0964
   18SAPC   H5Y 2368   5.199   2.619   8.797  0.2018 -0.5850 -0.3675
   18SAPC   C36 2369   5.003   2.644   8.729 -0.1987 -1.3495 -0.6293
   18SAPC   H6X 2370   5.001   2.755   8.733 -1.2793 -1.3848  1.2166
   18SAPC   H6Y 2371   4.896   2.622   8.753 -0.6284 -0.4768 -1.6990
   18SAPC   C37 2372   5.038   2.615   8.581  0.0065  1.2445  1.6951
   18SAPC   H7X 2373   5.012   2.511   8.555 -0.8550  2.3374 -2.6221
   18SAPC   H7Y 2374   5.145   2.623   8.555  0.1409  0.1034  1.8769
   18SAPC   C38 2375   4.962   2.717   8.488  0.1751  0.2088  0.0560
   18SAPC   H8X 2376   5.012   2.816   8.490  3.1456 -1.2060  0.7832
   18SAPC   H8Y 2377   4.859   2.736   8.525  0.7555  1.9555  0.8923
   18SAPC   C39 2378   4.950   2.662   8.347  0.2672 -0.5162  0.0255
   18SAPC   H9X 2379   4.897   2.565   8.358 -1.3214  0.2405 -0.6533
   18SAPC   H9Y 2380   5.052   2.643   8.307 -0.4517 -1.3822 -1.4523
   18SAPC  C310 2381   4.867   2.752   8.248  0.3459  0.5827  0.5386
   18SAPC  H10X 2382   4.760   2.757   8.278  0.3968  1.6153  0.5801
   18SAPC  H10Y 2383   4.866   2.695   8.153  0.2978  0.5531  0.5571
   18SAPC  C311 2384   4.925   2.892   8.214 -0.7045 -0.3926  0.1554
   18SAPC  H11X 2385   4.918   2.957   8.303  0.8756 -0.8694  0.6647
   18SAPC  H11Y 2386   4.880   2.939   8.124 -0.2936  1.0286  0.6727
   18SAPC  C312 2387   5.076   2.884   8.175 -0.7003 -0.9908  0.3617
   18SAPC  H12X 2388   5.086   2.814   8.089 -0.2031 -1.3060  0.6726
   18SAPC  H12Y 2389   5.136   2.832   8.252  1.5487 -3.3109 -2.6739
   18SAPC  C313 2390   5.126   3.021   8.140 -0.4279 -0.0413  0.1023
   18SAPC  H13X 2391   5.109   3.089   8.226  2.2696  0.0600  0.6261
   18SAPC  H13Y 2392   5.066   3.061   8.054  0.7094  2.5065  0.4081
   18SAPC  C314 2393   5.277   3.036   8.115 -0.1408 -0.2493  0.2994
   18SAPC  H14X 2394   5.306   2.955   8.045  0.0631 -1.0144  1.2421
   18SAPC  H14Y 2395   5.332   3.015   8.209 -1.1203  0.2320  1.0063
   18SAPC  C315 2396   5.300   3.180   8.060  0.1337  0.3517  0.3918
   18SAPC  H15X 2397   5.397   3.206   8.108  1.1158 -2.5554  0.2416
   18SAPC  H15Y 2398   5.221   3.249   8.095 -0.3716  1.2209 -2.2512
   18SAPC  C316 2399   5.321   3.197   7.907  0.3806 -0.2316 -0.0006
   18SAPC  H16X 2400   5.232   3.146   7.864  0.0784  1.2952 -1.3151
   18SAPC  H16Y 2401   5.418   3.148   7.883  0.9149  0.6041  0.3828
   18SAPC  C317 2402   5.352   3.342   7.871 -0.3106  0.5366 -0.2419
   18SAPC  H17X 2403   5.458   3.364   7.896 -1.0324  1.6725  2.0238
   18SAPC  H17Y 2404   5.279   3.409   7.919 -0.7199  0.8134 -1.2144
   18SAPC  C318 2405   5.346   3.365   7.719  0.5432  0.0250  0.0460
   18SAPC  H18X 2406   5.385   3.462   7.680 -2.6698  1.8972  1.1372
   18SAPC  H18Y 2407   5.242   3.354   7.683  0.0620  1.7630  0.7890
   18SAPC  H18Z 2408   5.404   3.293   7.657 -0.1089  0.4233 -1.0570
   19SAPC     N 2409   4.070   6.833  10.007 -0.2483  0.1543  0.2142
   19SAPC   C12 2410   4.176   6.862   9.900  0.4508  0.8720 -0.0875
   19SAPC  H12A 2411   4.157   6.791   9.821  1.7769  0.9775 -0.5235
   19SAPC  H12B 2412   4.273   6.840   9.942 -0.5404 -1.8203  1.0318
   19SAPC   C13 2413   4.059   6.933  10.120 -0.7188  0.3731  0.4588
   19SAPC  H13A 2414   4.031   7.031  10.083  0.1225  0.1285 -0.8839
   19SAPC  H13B 2415   4.021   6.908  10.218  1.3097 -1.2467  0.8942
   19SAPC  H13C 2416   4.160   6.963  10.141 -0.4653  0.3376 -0.6407
   19SAPC   C14 2417   3.937   6.839   9.939  0.1700 -0.1472 -0.5186
   19SAPC  H14A 2418   3.913   6.932   9.889  2.5469  0.9237  0.1857
   19SAPC  H14B 2419   3.923   6.751   9.878 -1.1102 -0.3694  0.0543
   19SAPC  H14C 2420   3.860   6.832  10.015  0.4135 -0.9225 -0.3388
   19SAPC   C15 2421   4.088   6.689  10.053  0.6809  0.3586 -0.0820
   19SAPC  H15A 2422   4.000   6.655  10.107  0.3475  1.9290  0.4061
   19SAPC  H15B 2423   4.108   6.620   9.972  2.1027 -0.1335  0.6449
   19SAPC  H15C 2424   4.173   6.678  10.119 -0.0334 -0.4391  0.7384
   19SAPC   C11 2425   4.178   7.002   9.832 -0.0697 -0.2233  0.1079
   19SAPC  H11A 2426   4.079   7.024   9.785  0.9162 -1.0734 -2.5791
   19SAPC  H11B 2427   4.244   7.006   9.743  1.5067  2.7278  1.2642
   19SAPC     P 2428   4.365   7.133   9.960 -0.0988  0.0784 -0.1238
   19SAPC   O13 2429   4.384   7.281   9.988  0.2916  0.3332  0.2573
   19SAPC   O14 2430   4.397   7.046  10.076  0.2448  0.2114 -0.5143
   19SAPC   O12 2431   4.212   7.106   9.925  0.1271  0.8068  0.2355
   19SAPC   O11 2432   4.449   7.089   9.827 -0.1965 -0.9455 -0.8095
   19SAPC    C1 2433   4.500   7.181   9.737 -0.5180  0.0449  0.2029
   19SAPC    HA 2434   4.532   7.277   9.783 -1.8611  0.8601 -0.4947
   19SAPC    HB 2435   4.591   7.143   9.687 -1.9118 -1.5138 -1.2935
   19SAPC    C2 2436   4.403   7.215   9.623 -0.2036  0.2794  0.4659
   19SAPC    HS 2437   4.313   7.268   9.661 -0.2184  0.8954 -0.3993
   19SAPC   O21 2438   4.365   7.089   9.555 -0.4741 -0.9550 -0.0050
   19SAPC   C21 2439   4.256   7.081   9.476  0.3821  0.1058 -0.1604
   19SAPC   O22 2440   4.167   7.166   9.474 -0.6969 -0.1473 -0.0745
   19SAPC   C22 2441   4.260   6.948   9.393  0.6144 -0.4746  0.9033
   19SAPC   H2R 2442   4.366   6.919   9.374 -0.1752 -1.8542 -1.9853
   19SAPC   H2S 2443   4.201   6.865   9.437 -0.9631 -0.9874 -1.9263
   19SAPC    C3 2444   4.462   7.317   9.521 -0.5161 -0.0146 -0.1108
   19SAPC    HX 2445   4.493   7.395   9.594 -1.1173  0.8930 -0.8070
   19SAPC    HY 2446   4.388   7.364   9.453 -1.0787 -3.0182 -1.7343
   19SAPC   O31 2447   4.574   7.261   9.452  0.0525 -0.2782  0.0687
   19SAPC   C31 2448   4.550   7.231   9.321 -0.3281  0.1067  0.5502
   19SAPC   O32 2449   4.442   7.222   9.268 -0.5578  0.6226 -0.2649
   19SAPC   C32 2450   4.682   7.243   9.244 -0.4062 -0.0374 -0.4350
   19SAPC   H2X 2451   4.768   7.189   9.288 -1.5456 -1.3773  0.2083
   19SAPC   H2Y 2452   4.720   7.347   9.248 -0.8079  0.0805  0.9181
   19SAPC   C23 2453   4.182   6.975   9.260 -0.0797 -0.0413 -0.0926
   19SAPC   H3R 2454   4.219   6.901   9.186 -1.5276 -0.1965 -0.7133
   19SAPC   H3S 2455   4.212   7.074   9.220 -1.4450  1.6997  2.8293
   19SAPC   C24 2456   4.024   6.956   9.265 -0.0825 -0.0081 -0.3707
   19SAPC   H4R 2457   3.989   6.993   9.167 -0.1506 -0.9020 -0.6987
   19SAPC   H4S 2458   3.990   7.013   9.354 -0.7925 -0.8557 -0.0840
   19SAPC   C25 2459   3.980   6.810   9.294  0.1747  0.4608 -0.4547
   19SAPC   H5R 2460   3.941   6.781   9.392 -2.4099 -0.2579 -1.6051
   19SAPC   C26 2461   3.971   6.721   9.197 -0.1825  0.7519 -0.3729
   19SAPC   H6R 2462   3.946   6.616   9.221 -0.1494 -0.2563 -4.1912
   19SAPC   C27 2463   4.008   6.738   9.052 -0.8343 -0.6976  0.8043
   19SAPC   H7R 2464   4.118   6.746   9.037 -0.6905  0.1825  2.1939
   19SAPC   H7S 2465   3.977   6.842   9.027 -1.0432 -0.5898  1.5096
   19SAPC   C28 2466   3.946   6.642   8.952  0.4701 -0.7250  0.3009
   19SAPC   H8R 2467   3.843   6.672   8.929  1.0513  3.4286  2.1191
   19SAPC   C29 2468   4.010   6.537   8.894 -0.2485  0.2419  0.0762
   19SAPC   H9R 2469   3.955   6.461   8.837  1.0855 -1.9302  1.5248
   19SAPC  C210 2470   4.152   6.492   8.928  1.3029 -0.2654 -0.6156
   19SAPC  H10R 2471   4.166   6.502   9.037 -0.3516 -0.0129 -0.4042
   19SAPC  H10S 2472   4.228   6.561   8.885  1.6180 -0.1669  0.0896
   19SAPC  C211 2473   4.189   6.344   8.902 -0.1274 -0.2040  0.0315
   19SAPC  H11R 2474   4.123   6.281   8.963 -0.8465  0.1680 -0.3526
   19SAPC  C212 2475   4.276   6.294   8.817  0.0953  0.0315 -0.0274
   19SAPC  H12R 2476   4.294   6.186   8.831 -1.7884 -0.5648 -1.7078
   19SAPC  C213 2477   4.345   6.373   8.709  1.0587  0.0935  0.4965
   19SAPC  H13R 2478   4.436   6.316   8.678  1.0216  0.2203  0.1498
   19SAPC  H13S 2479   4.389   6.461   8.760 -0.9282  2.4303 -1.5420
   19SAPC  C214 2480   4.258   6.433   8.597 -0.0002  0.1361  0.2018
   19SAPC  H14R 2481   4.167   6.489   8.622 -0.5933 -1.2357  1.3007
   19SAPC  C215 2482   4.285   6.423   8.463  0.0081 -0.2121  0.7147
   19SAPC  H15R 2483   4.218   6.471   8.390  1.8304 -0.5809 -1.2716
   19SAPC  C216 2484   4.409   6.360   8.404 -0.4121  0.5437  0.3292
   19SAPC  H16R 2485   4.420   6.255   8.439  0.8752  1.0585  1.5876
   19SAPC  H16S 2486   4.501   6.415   8.433 -0.3644  0.2421  0.7572
   19SAPC  C217 2487   4.395   6.350   8.248  0.5677 -0.1217 -0.6129
   19SAPC  H17R 2488   4.481   6.293   8.207  0.4415  0.3054 -1.4987
   19SAPC  H17S 2489   4.388   6.453   8.206 -0.9686  0.3156  0.5860
   19SAPC  C218 2490   4.274   6.271   8.194 -0.2544  0.0152 -0.3600
   19SAPC  H18R 2491   4.182   6.321   8.233  0.7666  2.1261 -0.5222
   19SAPC  H18S 2492   4.273   6.176   8.251 -3.8785  1.0515  1.6196
   19SAPC  C219 2493   4.273   6.241   8.047  0.3727  0.0128 -0.4818
   19SAPC  H19R 2494   4.371   6.195   8.022  1.2261 -0.9500  3.8374
   19SAPC  H19S 2495   4.257   6.336   7.990 -4.7246 -0.4312 -0.1592
   19SAPC  C220 2496   4.162   6.152   8.008 -0.8944  1.0581 -0.0170
   19SAPC  H20R 2497   4.179   6.113   7.905  1.1223  0.5342  0.4810
   19SAPC  H20S 2498   4.067   6.210   8.004 -0.8695  1.1540  0.6298
   19SAPC  H20T 2499   4.149   6.061   8.071  0.5353  0.6110 -0.3458
   19SAPC   C33 2500   4.662   7.190   9.099  0.2426 -0.3278 -1.0713
   19SAPC   H3X 2501   4.752   7.230   9.047  0.4984  1.9749  0.9409
   19SAPC   H3Y 2502   4.568   7.236   9.063  0.0258 -1.0735 -1.4738
   19SAPC   C34 2503   4.650   7.031   9.099 -0.1661 -0.7495  0.0925
   19SAPC   H4X 2504   4.574   6.990   9.170  0.1925  1.5232  1.9175
   19SAPC   H4Y 2505   4.753   6.999   9.123  0.0753 -0.1489 -0.1317
   19SAPC   C35 2506   4.617   6.970   8.966  0.3392 -0.4076  0.1032
   19SAPC   H5X 2507   4.645   6.863   8.979 -1.5905 -1.1617 -1.4856
   19SAPC   H5Y 2508   4.669   7.006   8.874 -2.8492  1.3745 -1.1769
   19SAPC   C36 2509   4.469   6.970   8.930 -0.6313 -0.2383  0.3501
   19SAPC   H6X 2510   4.442   7.077   8.924 -1.4439 -0.4855 -0.5822
   19SAPC   H6Y 2511   4.414   6.922   9.014 -0.8279  4.0123  2.9436
   19SAPC   C37 2512   4.430   6.914   8.799 -0.0837  0.1492 -0.0248
   19SAPC   H7X 2513   4.465   6.809   8.785  0.6394  0.2041  1.2122
   19SAPC   H7Y 2514   4.470   6.966   8.710 -2.2978  0.7889 -0.7106
   19SAPC   C38 2515   4.279   6.908   8.778 -0.0701  0.5650  0.3792
   19SAPC   H8X 2516   4.253   7.013   8.754 -1.1032  0.3764  0.6497
   19SAPC   H8Y 2517   4.219   6.871   8.864 -3.4202 -2.4908 -2.8854
   19SAPC   C39 2518   4.228   6.838   8.643  0.3820 -0.2137  0.2609
   19SAPC   H9X 2519   4.249   6.729   8.644  1.2450 -0.1718 -2.8325
   19SAPC   H9Y 2520   4.273   6.883   8.552 -1.8773 -1.2495 -1.4733
   19SAPC  C310 2521   4.075   6.872   8.636 -0.3483  0.9875  0.1349
   19SAPC  H10X 2522   4.063   6.974   8.594  1.4225  1.9390  1.7790
   19SAPC  H10Y 2523   4.022   6.864   8.734 -0.6172  0.3521 -0.0542
   19SAPC  C311 2524   4.007   6.767   8.546 -0.1392 -0.0290  0.3544
   19SAPC  H11X 2525   3.897   6.785   8.544 -0.4282 -1.6162  0.5011
   19SAPC  H11Y 2526   4.017   6.664   8.585 -0.8519 -0.3266 -0.2220
   19SAPC  C312 2527   4.059   6.766   8.403 -0.3581 -0.1012 -0.1774
   19SAPC  H12X 2528   4.154   6.708   8.402 -0.1892  0.1527 -1.6301
   19SAPC  H12Y 2529   4.095   6.867   8.374 -0.5639  0.4432  1.3571
   19SAPC  C313 2530   3.973   6.709   8.291 -0.6288 -0.2412 -0.0281
   19SAPC  H13X 2531   3.883   6.774   8.290  0.9359  2.1915 -4.1280
   19SAPC  H13Y 2532   3.943   6.602   8.299 -2.1767  0.2932  2.8953
   19SAPC  C314 2533   4.027   6.749   8.153 -0.2668  0.3161  0.1887
   19SAPC  H14X 2534   4.076   6.848   8.157 -1.3630  0.8518  1.0072
   19SAPC  H14Y 2535   3.941   6.770   8.085  0.7778  1.3886 -0.8250
   19SAPC  C315 2536   4.125   6.646   8.090  0.5056 -0.3025 -0.1247
   19SAPC  H15X 2537   4.082   6.548   8.119  0.6226 -0.4033 -0.2938
   19SAPC  H15Y 2538   4.224   6.659   8.140 -0.1904  0.4119  1.1161
   19SAPC  C316 2539   4.137   6.657   7.936 -0.4815  1.0161 -0.4274
   19SAPC  H16X 2540   4.033   6.650   7.900 -0.9442 -1.1027  1.1688
   19SAPC  H16Y 2541   4.183   6.559   7.909 -0.7427  0.6463  0.4211
   19SAPC  C317 2542   4.225   6.773   7.886 -0.1111  0.0735 -0.0391
   19SAPC  H17X 2543   4.317   6.780   7.948 -0.4471 -1.7735  0.7348
   19SAPC  H17Y 2544   4.166   6.866   7.898 -1.1165 -0.3602 -1.3711
   19SAPC  C318 2545   4.260   6.762   7.735  0.2422  0.3736  0.5824
   19SAPC  H18X 2546   4.334   6.839   7.706  0.4042 -0.4554 -1.3180
   19SAPC  H18Y 2547   4.158   6.772   7.690 -1.1041 -0.4636  3.2220
   19SAPC  H18Z 2548   4.291   6.659   7.709  1.5445  0.5870  1.2295
   20SAPC     N 2549   4.432   0.952   9.657  0.5765  0.9954 -0.7995
   20SAPC   C12 2550   4.291   0.925   9.615  0.5179  0.0321  0.3302
   20SAPC  H12A 2551   4.265   0.967   9.519 -1.6580  2.5335  1.8746
   20SAPC  H12B 2552   4.228   0.979   9.684  0.2973 -0.8988  0.8626
   20SAPC   C13 2553   4.531   0.869   9.583 -0.2287 -0.1700 -0.4540
   20SAPC  H13A 2554   4.632   0.893   9.612  0.3814 -0.6186 -2.0660
   20SAPC  H13B 2555   4.516   0.766   9.611  0.7253 -0.4593 -0.9514
   20SAPC  H13C 2556   4.518   0.883   9.477 -1.0096  0.3467 -0.2946
   20SAPC   C14 2557   4.457   1.092   9.642  0.2618  0.0819  0.0397
   20SAPC  H14A 2558   4.384   1.144   9.702 -1.2089 -0.9844 -0.7521
   20SAPC  H14B 2559   4.556   1.125   9.669  0.8984 -2.5324  1.1914
   20SAPC  H14C 2560   4.428   1.129   9.544 -2.2284 -0.5036  0.4947
   20SAPC   C15 2561   4.443   0.921   9.802  0.2631 -0.4722  0.2568
   20SAPC  H15A 2562   4.370   0.959   9.871 -0.1245  2.0862 -1.4271
   20SAPC  H15B 2563   4.434   0.815   9.820  0.6038 -0.2970  1.5094
   20SAPC  H15C 2564   4.531   0.969   9.840  0.6203 -1.2100  0.3789
   20SAPC   C11 2565   4.257   0.772   9.608 -0.6272 -0.3758 -0.3788
   20SAPC  H11A 2566   4.328   0.713   9.670 -1.0038 -0.4100  0.0244
   20SAPC  H11B 2567   4.272   0.758   9.498 -1.6561 -0.2573 -0.5429
   20SAPC     P 2568   4.074   0.611   9.692 -0.3260 -0.1934  0.0773
   20SAPC   O13 2569   4.159   0.553   9.798  0.1799 -0.6539  0.1550
   20SAPC   O14 2570   3.930   0.606   9.718 -0.2927 -0.0215 -0.8250
   20SAPC   O12 2571   4.123   0.756   9.656 -0.0393 -0.5449  0.3487
   20SAPC   O11 2572   4.112   0.530   9.564  0.1832  0.1457  1.1445
   20SAPC    C1 2573   4.076   0.578   9.428  0.3961  0.2866  0.4819
   20SAPC    HA 2574   4.001   0.660   9.430  0.0393 -0.0027 -0.4531
   20SAPC    HB 2575   4.167   0.614   9.376  0.8947  0.8718  1.7160
   20SAPC    C2 2576   4.007   0.463   9.353 -0.0446 -0.0225 -0.5465
   20SAPC    HS 2577   3.940   0.422   9.430  0.6964 -1.7428 -0.7796
   20SAPC   O21 2578   4.104   0.356   9.328 -0.5005  0.2961  0.2462
   20SAPC   C21 2579   4.055   0.251   9.272 -0.0391 -0.2129  0.1876
   20SAPC   O22 2580   3.934   0.223   9.271 -0.1709  0.8249 -0.2659
   20SAPC   C22 2581   4.170   0.165   9.221 -0.2982 -0.7017  0.5523
   20SAPC   H2R 2582   4.261   0.223   9.193  0.5527 -3.1549 -2.3132
   20SAPC   H2S 2583   4.205   0.083   9.287  1.9056 -0.2951 -0.0076
   20SAPC    C3 2584   3.935   0.510   9.224 -0.3654 -0.4800 -0.1488
   20SAPC    HX 2585   3.878   0.604   9.244 -0.0374 -0.2404 -0.3183
   20SAPC    HY 2586   3.859   0.440   9.184  0.0792 -0.4079 -1.1747
   20SAPC   O31 2587   4.036   0.541   9.122  0.2960  0.0394  0.6729
   20SAPC   C31 2588   4.075   0.673   9.111 -0.0508 -0.1137 -0.0350
   20SAPC   O32 2589   4.028   0.765   9.173 -0.0439  0.0558  0.5701
   20SAPC   C32 2590   4.186   0.689   9.007 -0.7151 -0.1612  0.1471
   20SAPC   H2X 2591   4.280   0.693   9.066  2.1807  2.0752 -4.0944
   20SAPC   H2Y 2592   4.180   0.788   8.957  0.2893  0.6552  1.5622
   20SAPC   C23 2593   4.134   0.100   9.083 -0.1106  0.1843 -0.4938
   20SAPC   H3R 2594   4.026   0.077   9.088 -0.4184  1.2298 -1.7826
   20SAPC   H3S 2595   4.198   0.010   9.068 -0.2569  0.2633 -1.6588
   20SAPC   C24 2596   4.159   0.184   8.952  0.1970  0.1830  0.1587
   20SAPC   H4R 2597   4.265   0.217   8.958  0.2100 -0.0606  1.6083
   20SAPC   H4S 2598   4.106   0.282   8.959 -0.1707 -0.0185  0.2269
   20SAPC   C25 2599   4.104   0.107   8.834 -0.4572  0.3964 -0.4421
   20SAPC   H5R 2600   3.995   0.098   8.819 -0.3833 -0.2350 -0.6038
   20SAPC   C26 2601   4.182   0.063   8.730  0.4066 -0.4908 -0.9038
   20SAPC   H6R 2602   4.141  -0.023   8.675 -1.1820  0.5508 -1.4297
   20SAPC   C27 2603   4.332   0.080   8.720 -0.2825  0.6400 -0.6124
   20SAPC   H7R 2604   4.376  -0.016   8.753  0.0190  1.5639  1.8562
   20SAPC   H7S 2605   4.371   0.162   8.785 -0.4466  2.0992 -2.2592
   20SAPC   C28 2606   4.386   0.122   8.591  0.8150 -0.7757  0.0297
   20SAPC   H8R 2607   4.322   0.160   8.510 -1.1089 -1.5152  1.1477
   20SAPC   C29 2608   4.520   0.103   8.558  0.2761  0.3858  0.1700
   20SAPC   H9R 2609   4.538   0.125   8.452 -1.8800 -1.8328 -0.7490
   20SAPC  C210 2610   4.634   0.048   8.646  0.1630  0.0082 -0.0854
   20SAPC  H10R 2611   4.608   0.055   8.753  1.3309  1.6160  0.1228
   20SAPC  H10S 2612   4.724   0.111   8.631  1.3832 -1.5302  0.5114
   20SAPC  C211 2613   4.690  -0.096   8.602 -0.6380 -0.1391 -0.1034
   20SAPC  H11R 2614   4.665  -0.175   8.675  0.5591  0.3549  0.8792
   20SAPC  C212 2615   4.767  -0.121   8.494 -0.3454 -0.2401 -0.9154
   20SAPC  H12R 2616   4.820  -0.218   8.490  0.6141  0.2139  0.2606
   20SAPC  C213 2617   4.827  -0.028   8.391  0.4126  0.1063  0.2292
   20SAPC  H13R 2618   4.937  -0.046   8.390  0.0034 -2.9349  0.7642
   20SAPC  H13S 2619   4.812   0.078   8.419 -1.9153  0.1892 -1.0579
   20SAPC  C214 2620   4.780  -0.044   8.246  0.4161  0.2314  0.1530
   20SAPC  H14R 2621   4.742  -0.144   8.220  2.3557 -0.1600 -1.4184
   20SAPC  C215 2622   4.778   0.051   8.150  0.2024  0.4195 -0.2540
   20SAPC  H15R 2623   4.743   0.030   8.048  0.5747  0.9847 -0.5094
   20SAPC  C216 2624   4.826   0.194   8.156 -0.1855 -0.6051  0.5384
   20SAPC  H16R 2625   4.900   0.222   8.234  0.5445  1.9089 -0.9236
   20SAPC  H16S 2626   4.734   0.256   8.160 -0.1786 -0.6643  1.9876
   20SAPC  C217 2627   4.893   0.231   8.020  0.3808  0.0142  0.1568
   20SAPC  H17R 2628   4.926   0.334   8.043  0.3699  0.3291 -1.1657
   20SAPC  H17S 2629   4.813   0.233   7.943  0.6691 -1.5811 -0.2326
   20SAPC  C218 2630   5.011   0.140   7.974  0.4139 -0.7700 -0.2568
   20SAPC  H18R 2631   4.976   0.036   7.957  1.1701 -0.7695 -1.9616
   20SAPC  H18S 2632   5.084   0.130   8.058 -0.1213 -0.8523  0.2042
   20SAPC  C219 2633   5.080   0.193   7.850 -0.8724 -0.7988  0.3066
   20SAPC  H19R 2634   5.100   0.300   7.874  0.0783 -0.4736 -1.7107
   20SAPC  H19S 2635   5.019   0.183   7.758  2.2138  0.3209 -2.0550
   20SAPC  C220 2636   5.207   0.123   7.814  0.1409  1.0841  1.0366
   20SAPC  H20R 2637   5.290   0.168   7.873  0.9513  0.7496  0.1911
   20SAPC  H20S 2638   5.232   0.141   7.707 -0.2952  0.2570  0.7886
   20SAPC  H20T 2639   5.197   0.014   7.835  0.1892  0.9313  0.3209
   20SAPC   C33 2640   4.200   0.576   8.904  0.1510  0.2223  0.0436
   20SAPC   H3X 2641   4.098   0.556   8.864  0.5801  0.5532 -1.2494
   20SAPC   H3Y 2642   4.244   0.483   8.947  1.0295  1.7231  2.6515
   20SAPC   C34 2643   4.279   0.612   8.781 -0.1955 -0.1609 -0.2539
   20SAPC   H4X 2644   4.384   0.624   8.813  0.9107 -1.8830 -2.8835
   20SAPC   H4Y 2645   4.231   0.704   8.741 -0.9303 -0.4279 -0.0116
   20SAPC   C35 2646   4.271   0.506   8.665 -0.6823  0.0657 -0.1684
   20SAPC   H5X 2647   4.163   0.499   8.641 -0.8708  0.0511  0.6564
   20SAPC   H5Y 2648   4.305   0.406   8.700 -0.2493  0.6946  1.2674
   20SAPC   C36 2649   4.339   0.530   8.532 -0.3898 -0.3226 -0.0849
   20SAPC   H6X 2650   4.446   0.553   8.549 -0.8162  1.6714  0.1297
   20SAPC   H6Y 2651   4.290   0.625   8.502 -2.6188 -2.0146 -2.2593
   20SAPC   C37 2652   4.321   0.416   8.427 -0.0203  0.1413 -0.4049
   20SAPC   H7X 2653   4.223   0.366   8.441  0.0873  0.5056  2.0205
   20SAPC   H7Y 2654   4.399   0.344   8.461  0.7406  0.6255 -1.0786
   20SAPC   C38 2655   4.355   0.454   8.279  0.0279  0.4906 -0.0877
   20SAPC   H8X 2656   4.448   0.513   8.264  1.1365 -1.8107 -3.4157
   20SAPC   H8Y 2657   4.277   0.521   8.237 -1.1021  0.3588  1.6952
   20SAPC   C39 2658   4.378   0.331   8.182  0.2455 -0.1130  0.2246
   20SAPC   H9X 2659   4.291   0.263   8.189  1.9756 -2.3943  0.7007
   20SAPC   H9Y 2660   4.464   0.277   8.227  0.9017  1.1239  0.5025
   20SAPC  C310 2661   4.417   0.380   8.040 -0.0014 -0.1932 -0.1296
   20SAPC  H10X 2662   4.512   0.437   8.051 -0.4295  0.5560 -0.2378
   20SAPC  H10Y 2663   4.335   0.446   8.004 -0.6148  0.6197  2.5253
   20SAPC  C311 2664   4.452   0.286   7.935  0.1092 -0.3894 -0.1812
   20SAPC  H11X 2665   4.384   0.199   7.939 -2.6852  1.5007 -2.7772
   20SAPC  H11Y 2666   4.556   0.251   7.954 -0.2129 -1.4084 -0.2884
   20SAPC  C312 2667   4.444   0.352   7.800 -0.4206  0.4597 -0.1194
   20SAPC  H12X 2668   4.344   0.398   7.786 -1.3956 -0.6204  2.6677
   20SAPC  H12Y 2669   4.451   0.268   7.728  1.0158  0.5096 -0.0592
   20SAPC  C313 2670   4.547   0.461   7.769  0.1899  0.5683  0.4631
   20SAPC  H13X 2671   4.650   0.422   7.760 -0.0182 -0.3720  1.8988
   20SAPC  H13Y 2672   4.534   0.528   7.857 -0.7266  1.8671 -0.6096
   20SAPC  C314 2673   4.513   0.553   7.654  0.3811 -0.7672 -0.2143
   20SAPC  H14X 2674   4.601   0.619   7.640  1.0040 -1.4883  0.2378
   20SAPC  H14Y 2675   4.422   0.608   7.688  1.6823  0.6395  1.1400
   20SAPC  C315 2676   4.488   0.481   7.522 -0.4564 -0.2155 -0.2556
   20SAPC  H15X 2677   4.420   0.396   7.542 -1.4982  0.6050 -0.2065
   20SAPC  H15Y 2678   4.588   0.445   7.489  0.1777 -0.5681  1.8820
   20SAPC  C316 2679   4.427   0.565   7.409 -0.3249 -0.1898  0.4089
   20SAPC  H16X 2680   4.492   0.653   7.395  2.5607 -2.1790  0.5384
   20SAPC  H16Y 2681   4.329   0.603   7.446 -0.5362 -0.9653  0.6858
   20SAPC  C317 2682   4.409   0.481   7.280 -0.2582 -1.1653 -0.3866
   20SAPC  H17X 2683   4.325   0.410   7.296 -0.5004 -0.8954 -0.4448
   20SAPC  H17Y 2684   4.499   0.417   7.270 -1.6543 -2.9607 -2.3572
   20SAPC  C318 2685   4.387   0.541   7.145  0.8205 -1.0071  0.1438
   20SAPC  H18X 2686   4.311   0.621   7.156  3.2164  1.1711  2.2934
   20SAPC  H18Y 2687   4.354   0.467   7.068 -2.0036  0.7433 -0.4763
   20SAPC  H18Z 2688   4.481   0.577   7.097  0.6538 -0.5620  0.1435
   21SAPC     N 2689   3.743   0.304   9.765  0.0443  0.1007  0.0654
   21SAPC   C12 2690   3.662   0.175   9.755 -0.2590 -0.0042 -0.8698
   21SAPC  H12A 2691   3.587   0.172   9.832 -0.5171  1.3601 -1.0492
   21SAPC  H12B 2692   3.723   0.090   9.780 -1.2833 -0.5896 -0.3142
   21SAPC   C13 2693   3.816   0.317   9.888 -0.5556 -0.2141 -0.3295
   21SAPC  H13A 2694   3.757   0.332   9.977  0.9052 -0.6415  0.7534
   21SAPC  H13B 2695   3.887   0.240   9.913  0.3636  1.1044  1.3053
   21SAPC  H13C 2696   3.874   0.407   9.875 -0.1026 -0.6200 -1.1753
   21SAPC   C14 2697   3.843   0.320   9.651  0.3715  0.0881 -0.0665
   21SAPC  H14A 2698   3.914   0.239   9.647 -1.0195 -1.1765  0.2674
   21SAPC  H14B 2699   3.785   0.320   9.560  0.9677  0.3968 -0.4620
   21SAPC  H14C 2700   3.893   0.416   9.659 -1.0706  0.7794  1.0832
   21SAPC   C15 2701   3.654   0.422   9.745 -0.0300 -0.4470 -0.2974
   21SAPC  H15A 2702   3.704   0.518   9.739 -1.2813  0.3711  1.3768
   21SAPC  H15B 2703   3.583   0.415   9.663 -1.5929 -1.0980  1.0531
   21SAPC  H15C 2704   3.594   0.432   9.834  0.4815 -2.4968  0.3181
   21SAPC   C11 2705   3.585   0.144   9.627  0.2293  0.4106  0.4014
   21SAPC  H11A 2706   3.560   0.036   9.636  3.1264 -0.4349 -0.4263
   21SAPC  H11B 2707   3.662   0.148   9.546  0.1614 -2.1504  0.1436
   21SAPC     P 2708   3.342   0.209   9.693  0.0235 -0.5311  0.1379
   21SAPC   O13 2709   3.385   0.218   9.837  0.1254  0.3717  0.2633
   21SAPC   O14 2710   3.240   0.302   9.652  0.5394 -0.1181 -0.4652
   21SAPC   O12 2711   3.476   0.229   9.598  0.3747 -0.3852  0.2281
   21SAPC   O11 2712   3.298   0.063   9.660 -0.2466 -0.4848 -0.6357
   21SAPC    C1 2713   3.205   0.035   9.559  0.1123  0.6046  0.0281
   21SAPC    HA 2714   3.105   0.071   9.591 -0.8860 -0.2786 -1.9267
   21SAPC    HB 2715   3.237   0.094   9.470 -2.5022  2.6472  0.3044
   21SAPC    C2 2716   3.189  -0.122   9.518 -0.6796 -0.7885 -0.1877
   21SAPC    HS 2717   3.177  -0.167   9.619 -1.8001  1.3691  0.6896
   21SAPC   O21 2718   3.317  -0.158   9.456  0.5757 -0.0803 -0.0769
   21SAPC   C21 2719   3.355  -0.284   9.453  0.2182 -0.1262  0.8092
   21SAPC   O22 2720   3.296  -0.372   9.513 -0.0612  0.4296  0.6776
   21SAPC   C22 2721   3.478  -0.310   9.367 -0.0441  0.0139 -0.4340
   21SAPC   H2R 2722   3.553  -0.334   9.445  0.1597  0.9980 -0.3101
   21SAPC   H2S 2723   3.450  -0.393   9.299 -1.8405  0.2042  0.0180
   21SAPC    C3 2724   3.073  -0.169   9.436 -0.2918 -0.5304 -0.1620
   21SAPC    HX 2725   2.980  -0.131   9.485 -1.4970  1.3093 -3.5306
   21SAPC    HY 2726   3.058  -0.279   9.443  0.0228 -0.4831  4.0397
   21SAPC   O31 2727   3.071  -0.102   9.312  0.8550 -0.0404  1.1188
   21SAPC   C31 2728   3.118  -0.176   9.203  0.1158  0.0415  0.2523
   21SAPC   O32 2729   3.181  -0.277   9.212 -0.1534  0.5302  0.2301
   21SAPC   C32 2730   3.093  -0.098   9.077  0.2754 -0.0444 -0.1619
   21SAPC   H2X 2731   3.123   0.009   9.084  2.3318 -0.5911  0.0904
   21SAPC   H2Y 2732   2.987  -0.118   9.049 -0.0255 -2.8477  2.4754
   21SAPC   C23 2733   3.523  -0.190   9.287 -0.3001  0.1536  0.6215
   21SAPC   H3R 2734   3.532  -0.095   9.345 -0.2949  0.5000  0.0581
   21SAPC   H3S 2735   3.434  -0.162   9.226 -0.3624  1.1322  1.1292
   21SAPC   C24 2736   3.656  -0.219   9.214  0.6848  0.4239 -0.0277
   21SAPC   H4R 2737   3.635  -0.290   9.131 -0.7649  0.3690  0.3530
   21SAPC   H4S 2738   3.721  -0.274   9.286 -1.0771  0.9976  2.1240
   21SAPC   C25 2739   3.723  -0.095   9.173 -0.3313 -0.0348 -0.1295
   21SAPC   H5R 2740   3.769  -0.047   9.261 -0.7761 -0.4683  0.3446
   21SAPC   C26 2741   3.736  -0.043   9.051  0.3733  0.1779  0.0932
   21SAPC   H6R 2742   3.778   0.058   9.041  1.5586 -0.1285  1.6820
   21SAPC   C27 2743   3.689  -0.113   8.923  0.3048 -0.6575 -0.2708
   21SAPC   H7R 2744   3.614  -0.044   8.879  0.6187 -0.0917  0.0658
   21SAPC   H7S 2745   3.626  -0.202   8.947  0.0314 -0.5246 -0.4865
   21SAPC   C28 2746   3.803  -0.155   8.823  0.5330  0.0366 -0.5787
   21SAPC   H8R 2747   3.908  -0.173   8.853 -0.4024 -3.4345  1.0658
   21SAPC   C29 2748   3.779  -0.157   8.692  0.6065  0.2199  0.3971
   21SAPC   H9R 2749   3.859  -0.190   8.624 -0.4076  0.1785 -0.8090
   21SAPC  C210 2750   3.660  -0.130   8.609  0.3485 -0.4338 -0.2236
   21SAPC  H10R 2751   3.688  -0.047   8.541  0.0468  0.9555  1.2728
   21SAPC  H10S 2752   3.572  -0.084   8.660 -0.9669 -1.2602 -1.6581
   21SAPC  C211 2753   3.621  -0.263   8.545 -0.2368 -1.0201 -0.1635
   21SAPC  H11R 2754   3.590  -0.337   8.620  0.6327 -1.4498 -0.2246
   21SAPC  C212 2755   3.605  -0.291   8.414  0.1146  0.4021  0.4393
   21SAPC  H12R 2756   3.607  -0.398   8.388 -1.8214  0.4552 -0.0931
   21SAPC  C213 2757   3.651  -0.204   8.297 -0.4741 -0.8027  1.0047
   21SAPC  H13R 2758   3.688  -0.267   8.214  3.1624 -0.3005  2.0915
   21SAPC  H13S 2759   3.740  -0.146   8.328  0.9756 -1.0011 -2.4115
   21SAPC  C214 2760   3.537  -0.122   8.235 -0.4882  0.6240 -0.4590
   21SAPC  H14R 2761   3.518  -0.021   8.275 -1.8259 -0.0599  0.6926
   21SAPC  C215 2762   3.470  -0.160   8.126 -0.0632  0.0353  0.4672
   21SAPC  H15R 2763   3.406  -0.084   8.078 -0.0483 -0.7330 -0.8237
   21SAPC  C216 2764   3.484  -0.285   8.035 -0.8993 -0.3350 -0.6281
   21SAPC  H16R 2765   3.553  -0.362   8.076 -0.4813  0.5845  0.4287
   21SAPC  H16S 2766   3.520  -0.263   7.932  1.5552  0.8362  0.4094
   21SAPC  C217 2767   3.360  -0.375   8.014 -0.0325 -0.2028 -0.5638
   21SAPC  H17R 2768   3.264  -0.323   7.994 -0.8046 -1.8509 -1.2693
   21SAPC  H17S 2769   3.346  -0.427   8.111 -1.4956 -0.5518 -0.9396
   21SAPC  C218 2770   3.377  -0.465   7.890  0.0947  0.0168  0.1353
   21SAPC  H18R 2771   3.471  -0.522   7.908  0.1553  0.6210  1.9454
   21SAPC  H18S 2772   3.399  -0.413   7.794  0.1632 -0.3429 -0.0461
   21SAPC  C219 2773   3.251  -0.548   7.864 -0.4263  0.0542 -0.4739
   21SAPC  H19R 2774   3.207  -0.575   7.962 -2.2014 -1.1168 -1.5534
   21SAPC  H19S 2775   3.292  -0.639   7.816  1.8381  1.7127 -1.9179
   21SAPC  C220 2776   3.146  -0.479   7.780 -0.3703 -0.0714 -0.2901
   21SAPC  H20R 2777   3.144  -0.369   7.799  0.1710 -0.3496  1.5231
   21SAPC  H20S 2778   3.046  -0.527   7.789 -0.6635  0.6342  0.3060
   21SAPC  H20T 2779   3.184  -0.488   7.676  1.4328  1.3256  0.1826
   21SAPC   C33 2780   3.165  -0.159   8.956 -0.7780  0.0661  0.4928
   21SAPC   H3X 2781   3.128  -0.264   8.955 -0.8187  0.0825  0.2000
   21SAPC   H3Y 2782   3.275  -0.158   8.967 -0.7330 -1.7389  0.5665
   21SAPC   C34 2783   3.128  -0.094   8.825 -0.0803  0.0433  0.7747
   21SAPC   H4X 2784   3.143   0.016   8.831  0.3834  0.2116 -2.1472
   21SAPC   H4Y 2785   3.022  -0.107   8.797  0.6306 -0.8708 -1.8019
   21SAPC   C35 2786   3.211  -0.133   8.703 -0.2710 -0.4025  0.2195
   21SAPC   H5X 2787   3.319  -0.108   8.707 -0.3513  0.2642 -1.1900
   21SAPC   H5Y 2788   3.169  -0.085   8.612  0.1935 -0.7151 -0.1628
   21SAPC   C36 2789   3.197  -0.280   8.669 -0.0868  0.6970 -0.5055
   21SAPC   H6X 2790   3.134  -0.335   8.742  1.3739 -2.3772 -1.4256
   21SAPC   H6Y 2791   3.295  -0.331   8.679 -0.4372  0.0279 -0.4555
   21SAPC   C37 2792   3.133  -0.308   8.542 -0.0033  1.0147 -0.2680
   21SAPC   H7X 2793   3.033  -0.262   8.533  0.7043  2.7985  0.5043
   21SAPC   H7Y 2794   3.126  -0.418   8.556  1.1052  1.1139  1.3404
   21SAPC   C38 2795   3.212  -0.274   8.412  0.3626  0.2139 -0.3741
   21SAPC   H8X 2796   3.212  -0.364   8.348  0.8761 -1.1400  1.4357
   21SAPC   H8Y 2797   3.318  -0.261   8.443 -0.4216 -0.3682  2.8978
   21SAPC   C39 2798   3.161  -0.139   8.350 -0.4285  0.3932  0.2019
   21SAPC   H9X 2799   3.244  -0.098   8.289  1.5472 -1.9681  1.1313
   21SAPC   H9Y 2800   3.137  -0.063   8.427 -0.0585  2.1062 -1.2891
   21SAPC  C310 2801   3.036  -0.171   8.264  0.6060 -0.4248  0.6844
   21SAPC  H10X 2802   2.946  -0.179   8.328 -0.8778  1.5793 -1.0149
   21SAPC  H10Y 2803   3.062  -0.267   8.215 -1.6396 -0.9536  0.4349
   21SAPC  C311 2804   3.023  -0.073   8.139 -0.3291 -0.2553 -0.3229
   21SAPC  H11X 2805   3.115  -0.105   8.085 -0.9005 -1.8684 -0.3791
   21SAPC  H11Y 2806   3.015   0.036   8.159 -3.4731 -0.2721 -1.0657
   21SAPC  C312 2807   2.903  -0.104   8.051  0.1162  0.4478  0.1126
   21SAPC  H12X 2808   2.812  -0.077   8.109 -1.1146  0.5072 -1.7671
   21SAPC  H12Y 2809   2.911  -0.208   8.014 -0.3291  0.6694 -0.6457
   21SAPC  C313 2810   2.905  -0.036   7.910  0.3444 -0.0326 -0.6206
   21SAPC  H13X 2811   2.995  -0.070   7.855  0.6126 -1.2380  0.4986
   21SAPC  H13Y 2812   2.906   0.074   7.919 -0.7650  0.1277 -2.1564
   21SAPC  C314 2813   2.773  -0.070   7.838  0.3702  0.4987  0.3527
   21SAPC  H14X 2814   2.702   0.014   7.852  0.4612  0.7198 -0.4222
   21SAPC  H14Y 2815   2.729  -0.159   7.887  0.7207  0.7499  1.1429
   21SAPC  C315 2816   2.809  -0.107   7.692 -0.7136 -0.9725  0.2508
   21SAPC  H15X 2817   2.727  -0.162   7.642  1.7136 -2.7029 -2.0718
   21SAPC  H15Y 2818   2.881  -0.190   7.709 -1.4977 -1.3749  1.7310
   21SAPC  C316 2819   2.856   0.009   7.599  0.1274 -0.1029  0.1867
   21SAPC  H16X 2820   2.939   0.062   7.651 -0.3710 -1.5166  2.5409
   21SAPC  H16Y 2821   2.779   0.083   7.569 -0.7073 -0.9302  0.2634
   21SAPC  C317 2822   2.911  -0.040   7.468  0.6870 -0.1381 -0.2444
   21SAPC  H17X 2823   2.987  -0.117   7.492 -0.1673 -0.5712  1.1688
   21SAPC  H17Y 2824   2.961   0.045   7.417  1.9133  0.4701  1.8707
   21SAPC  C318 2825   2.787  -0.087   7.380 -0.4767 -0.8113 -0.0041
   21SAPC  H18X 2826   2.726   0.005   7.367 -0.4128 -0.5637  1.2923
   21SAPC  H18Y 2827   2.723  -0.159   7.436 -1.2255  0.1523  0.4172
   21SAPC  H18Z 2828   2.821  -0.122   7.280  0.6345  1.8306 -0.6217
   22SAPC     N 2829   0.234   6.982   9.652 -0.0026 -0.3593  0.3710
   22SAPC   C12 2830   0.360   6.980   9.567  0.6769 -0.3867  0.4172
   22SAPC  H12A 2831   0.444   6.960   9.632 -0.5554  0.7676  2.4929
   22SAPC  H12B 2832   0.386   7.079   9.533 -0.6583 -0.3694 -0.6640
   22SAPC   C13 2833   0.107   6.999   9.569 -0.1176  0.3836 -0.0382
   22SAPC  H13A 2834   0.026   7.036   9.629  0.7969  2.3340  0.0713
   22SAPC  H13B 2835   0.120   7.067   9.486  2.0571  2.2303  1.6764
   22SAPC  H13C 2836   0.078   6.900   9.537  1.2480 -0.3767  0.9709
   22SAPC   C14 2837   0.235   6.855   9.734 -0.3367  0.7001  0.5873
   22SAPC  H14A 2838   0.224   6.768   9.670  1.2545 -0.3940  1.7177
   22SAPC  H14B 2839   0.326   6.847   9.792 -1.4232  0.7095  2.3481
   22SAPC  H14C 2840   0.154   6.851   9.805 -0.5157  0.4112  0.3658
   22SAPC   C15 2841   0.252   7.103   9.741 -0.4513 -0.5107 -0.0880
   22SAPC  H15A 2842   0.344   7.103   9.799 -1.6044  0.8536  1.8759
   22SAPC  H15B 2843   0.266   7.197   9.691  0.3172 -0.9611 -0.7496
   22SAPC  H15C 2844   0.171   7.103   9.813 -0.5039 -2.9147 -0.0693
   22SAPC   C11 2845   0.365   6.886   9.440  0.1595 -0.8326 -0.8025
   22SAPC  H11A 2846   0.450   6.908   9.371 -0.1987 -0.3097 -1.0810
   22SAPC  H11B 2847   0.276   6.898   9.375 -1.6392 -0.9975  1.4930
   22SAPC     P 2848   0.502   6.693   9.541  0.3025  0.2703  0.4415
   22SAPC   O13 2849   0.546   6.772   9.656 -0.0190 -0.0465 -0.3800
   22SAPC   O14 2850   0.478   6.551   9.570  0.0167  0.5554  0.1908
   22SAPC   O12 2851   0.373   6.748   9.489  0.2677 -0.4362 -0.1980
   22SAPC   O11 2852   0.603   6.707   9.430  0.2368  0.9920  0.0220
   22SAPC    C1 2853   0.574   6.714   9.287  0.0678  0.4323 -0.5118
   22SAPC    HA 2854   0.469   6.738   9.260 -0.6110 -0.9252  0.7465
   22SAPC    HB 2855   0.632   6.796   9.240 -0.3539  1.2287  0.3301
   22SAPC    C2 2856   0.616   6.583   9.209 -0.6019  0.1859  0.6288
   22SAPC    HS 2857   0.593   6.595   9.101 -0.8291 -0.4694  0.5984
   22SAPC   O21 2858   0.548   6.470   9.263 -0.2634  0.1169  0.4052
   22SAPC   C21 2859   0.421   6.458   9.228  0.0161 -0.5679 -0.0818
   22SAPC   O22 2860   0.361   6.531   9.148 -0.4297 -0.5231 -0.0407
   22SAPC   C22 2861   0.351   6.353   9.309 -0.7804 -0.2597 -0.3436
   22SAPC   H2R 2862   0.435   6.284   9.332  1.4647  1.7759 -2.0411
   22SAPC   H2S 2863   0.306   6.396   9.401  0.6832  1.3369 -0.3380
   22SAPC    C3 2864   0.770   6.565   9.210  0.0252  0.7665  0.0727
   22SAPC    HX 2865   0.806   6.584   9.314 -0.5487 -1.7276  0.7890
   22SAPC    HY 2866   0.808   6.647   9.146  0.0633  2.5353  2.2031
   22SAPC   O31 2867   0.818   6.431   9.164  0.4314 -0.1361  0.0690
   22SAPC   C31 2868   0.955   6.417   9.174  0.2165 -0.3205 -0.9098
   22SAPC   O32 2869   1.033   6.497   9.220  0.1462  1.0479 -0.0714
   22SAPC   C32 2870   0.989   6.306   9.081 -0.2209  0.5648  0.5049
   22SAPC   H2X 2871   0.913   6.227   9.102 -0.4719 -0.1316 -2.5804
   22SAPC   H2Y 2872   1.088   6.260   9.103 -0.5756 -0.4739  0.0019
   22SAPC   C23 2873   0.242   6.270   9.231  0.1146  0.1498  0.0698
   22SAPC   H3R 2874   0.158   6.336   9.202  0.0438 -0.5076 -1.3005
   22SAPC   H3S 2875   0.204   6.196   9.305 -0.7845  2.6973  2.3379
   22SAPC   C24 2876   0.295   6.204   9.104 -0.3999  0.1248  0.2827
   22SAPC   H4R 2877   0.356   6.280   9.049  1.3661 -1.6553 -0.3602
   22SAPC   H4S 2878   0.210   6.182   9.037 -0.6447  2.7722 -0.4098
   22SAPC   C25 2879   0.372   6.074   9.119 -0.6146  0.4736 -0.0215
   22SAPC   H5R 2880   0.344   6.002   9.197  2.7042 -1.0433 -0.0879
   22SAPC   C26 2881   0.465   6.034   9.029  0.2049 -0.5870 -0.0920
   22SAPC   H6R 2882   0.490   5.927   9.026 -0.2671 -0.6755 -1.0077
   22SAPC   C27 2883   0.499   6.100   8.902  0.0034 -0.1230 -0.3587
   22SAPC   H7R 2884   0.401   6.109   8.849 -2.3283 -3.7820  2.7697
   22SAPC   H7S 2885   0.553   6.024   8.842 -0.1554 -0.2837 -0.3004
   22SAPC   C28 2886   0.574   6.228   8.906 -0.7645  0.0736  0.2030
   22SAPC   H8R 2887   0.663   6.226   8.970 -0.3376  1.8518 -0.2847
   22SAPC   C29 2888   0.549   6.335   8.829 -0.1455  0.3671  0.9121
   22SAPC   H9R 2889   0.603   6.425   8.862 -0.3169  0.5432  0.7135
   22SAPC  C210 2890   0.432   6.357   8.741  0.6552  0.1596  0.0398
   22SAPC  H10R 2891   0.392   6.258   8.710  2.6014 -0.0349 -2.1024
   22SAPC  H10S 2892   0.454   6.398   8.640 -2.7128 -0.4552 -1.0805
   22SAPC  C211 2893   0.336   6.441   8.813 -0.1043 -0.5116  0.1695
   22SAPC  H11R 2894   0.271   6.389   8.885 -0.2840 -1.0751 -0.3897
   22SAPC  C212 2895   0.333   6.572   8.812  0.3285 -0.5465  0.5510
   22SAPC  H12R 2896   0.251   6.611   8.874  0.3707 -1.1905  1.0211
   22SAPC  C213 2897   0.419   6.670   8.746  0.3167 -0.1677  0.4411
   22SAPC  H13R 2898   0.358   6.740   8.684  2.8599 -0.5247 -2.7423
   22SAPC  H13S 2899   0.486   6.622   8.672 -0.2420  0.1730 -0.3026
   22SAPC  C214 2900   0.499   6.758   8.839 -0.2992 -0.4308  0.0886
   22SAPC  H14R 2901   0.444   6.800   8.925 -0.6896 -1.2282  0.2364
   22SAPC  C215 2902   0.631   6.788   8.826 -0.1998  0.2975  0.3836
   22SAPC  H15R 2903   0.672   6.862   8.897 -0.2640  0.7651 -0.0634
   22SAPC  C216 2904   0.733   6.750   8.723  0.2008  0.2410  0.0134
   22SAPC  H16R 2905   0.775   6.838   8.670 -3.2902  1.8343 -0.3969
   22SAPC  H16S 2906   0.693   6.680   8.647 -0.6649  0.0484  0.6227
   22SAPC  C217 2907   0.849   6.679   8.787  0.2391  0.3735  0.4584
   22SAPC  H17R 2908   0.922   6.658   8.706 -1.7642  1.1819 -1.6818
   22SAPC  H17S 2909   0.819   6.579   8.827  2.0553  0.1222  1.2849
   22SAPC  C218 2910   0.911   6.758   8.902 -0.4993  0.0915 -0.5481
   22SAPC  H18R 2911   0.839   6.781   8.984  0.3952 -1.4586  0.7400
   22SAPC  H18S 2912   0.929   6.860   8.860  0.5749  0.8204  1.5184
   22SAPC  C219 2913   1.046   6.704   8.955  0.3856 -0.2251  0.0921
   22SAPC  H19R 2914   1.100   6.651   8.873  0.5722  0.5683 -0.3081
   22SAPC  H19S 2915   1.016   6.626   9.028 -0.8850  1.0870  1.0330
   22SAPC  C220 2916   1.117   6.815   9.035 -0.6943  0.1760 -0.0445
   22SAPC  H20R 2917   1.218   6.784   9.068 -0.8065 -0.1180  0.0290
   22SAPC  H20S 2918   1.051   6.854   9.115 -0.6299  1.1829 -0.4675
   22SAPC  H20T 2919   1.136   6.899   8.965  0.1991  1.6874  1.9302
   22SAPC   C33 2920   0.962   6.339   8.932 -0.0091  0.2903  0.1612
   22SAPC   H3X 2921   1.047   6.401   8.896  0.2933 -0.5026 -0.5636
   22SAPC   H3Y 2922   0.872   6.403   8.929 -0.4508 -0.3515 -2.0180
   22SAPC   C34 2923   0.938   6.216   8.853 -0.0975 -0.4744  0.0240
   22SAPC   H4X 2924   0.854   6.149   8.881  1.8037 -2.6835  0.6993
   22SAPC   H4Y 2925   1.031   6.156   8.864 -0.2791 -0.5771  1.1308
   22SAPC   C35 2926   0.930   6.255   8.705 -0.7104 -0.3086  0.3891
   22SAPC   H5X 2927   1.030   6.297   8.683 -1.7599  1.6014 -1.0712
   22SAPC   H5Y 2928   0.858   6.339   8.691  1.9359  2.2574  1.3217
   22SAPC   C36 2929   0.898   6.145   8.612  0.5043  0.0662 -0.9560
   22SAPC   H6X 2930   0.959   6.053   8.614  2.3468  1.2226 -1.2993
   22SAPC   H6Y 2931   0.918   6.183   8.509 -1.5715 -1.5049 -2.0185
   22SAPC   C37 2932   0.754   6.094   8.626  0.8264  0.2309 -0.4106
   22SAPC   H7X 2933   0.694   6.187   8.633 -1.8719 -1.4630  0.7225
   22SAPC   H7Y 2934   0.755   6.039   8.723  2.0386 -0.7218 -0.9284
   22SAPC   C38 2935   0.695   6.000   8.514 -0.1834 -0.1819  0.1698
   22SAPC   H8X 2936   0.594   5.962   8.541 -0.4492 -0.7661 -1.5522
   22SAPC   H8Y 2937   0.765   5.913   8.514  2.2906  1.6998 -0.5369
   22SAPC   C39 2938   0.676   6.083   8.384  0.2209  0.3829  0.0766
   22SAPC   H9X 2939   0.761   6.145   8.349 -0.8440  1.0901 -1.4069
   22SAPC   H9Y 2940   0.592   6.153   8.401  0.7423  1.2993 -0.9728
   22SAPC  C310 2941   0.641   5.988   8.266  0.6823  0.1835  0.4835
   22SAPC  H10X 2942   0.550   5.947   8.314 -0.4297  1.5058 -0.4248
   22SAPC  H10Y 2943   0.716   5.907   8.256  0.0104 -0.5548  1.2469
   22SAPC  C311 2944   0.615   6.069   8.139 -0.0832  0.1097  0.5221
   22SAPC  H11X 2945   0.708   6.115   8.099  0.0993 -0.0317  0.7772
   22SAPC  H11Y 2946   0.543   6.150   8.164 -0.3246 -0.5900  2.2142
   22SAPC  C312 2947   0.548   5.969   8.041 -0.5426  0.4164  0.4488
   22SAPC  H12X 2948   0.455   5.917   8.073 -0.9299  0.5336 -0.4398
   22SAPC  H12Y 2949   0.622   5.898   7.998 -0.3494  1.3757 -0.8754
   22SAPC  C313 2950   0.496   6.034   7.909  0.1022  0.9577 -0.1532
   22SAPC  H13X 2951   0.584   6.069   7.852  1.3145 -0.7310  0.6249
   22SAPC  H13Y 2952   0.428   6.121   7.928 -2.2593 -0.8211  0.0022
   22SAPC  C314 2953   0.410   5.932   7.831  0.8554 -0.2530  0.2926
   22SAPC  H14X 2954   0.320   5.907   7.890  0.3979  0.4439 -0.1078
   22SAPC  H14Y 2955   0.463   5.836   7.811  0.3155 -0.1931 -1.6105
   22SAPC  C315 2956   0.371   5.974   7.693  0.2253 -0.0905 -0.0775
   22SAPC  H15X 2957   0.314   5.898   7.635 -0.5439  0.2814  0.1824
   22SAPC  H15Y 2958   0.462   5.994   7.633  0.1716  0.5340  0.0364
   22SAPC  C316 2959   0.300   6.113   7.682 -0.0133  0.3527  0.2497
   22SAPC  H16X 2960   0.369   6.192   7.719  1.6051 -1.3801  1.0642
   22SAPC  H16Y 2961   0.213   6.119   7.752  0.0541 -1.8268  0.6031
   22SAPC  C317 2962   0.235   6.136   7.546  0.1403  0.3221 -0.3726
   22SAPC  H17X 2963   0.168   6.049   7.529 -2.5431  2.1991  0.0269
   22SAPC  H17Y 2964   0.327   6.134   7.483  0.0855  1.6282 -0.5209
   22SAPC  C318 2965   0.163   6.266   7.527  0.1277 -0.7994 -0.0721
   22SAPC  H18X 2966   0.089   6.268   7.611  3.1567 -1.0018  2.8200
   22SAPC  H18Y 2967   0.119   6.271   7.425  1.8154  1.6409 -0.7709
   22SAPC  H18Z 2968   0.232   6.351   7.546 -0.9472 -0.4406  2.7324
   23SAPC     N 2969   5.078   6.820   9.877  0.1729  0.2215  0.5192
   23SAPC   C12 2970   4.973   6.808   9.763 -0.5322 -0.4732 -0.3774
   23SAPC  H12A 2971   4.932   6.708   9.757  0.2301 -0.7201 -2.0014
   23SAPC  H12B 2972   5.032   6.818   9.673  0.2957 -2.2110 -0.0672
   23SAPC   C13 2973   5.135   6.961   9.889  0.3072  0.2768  0.7807
   23SAPC  H13A 2974   5.128   6.989   9.993  2.7878 -3.3327  2.1422
   23SAPC  H13B 2975   5.240   6.960   9.862 -0.0688 -2.5566 -0.9914
   23SAPC  H13C 2976   5.081   7.029   9.825 -0.1125 -0.0098  0.8223
   23SAPC   C14 2977   5.015   6.789  10.008 -0.0001 -0.0649 -1.0039
   23SAPC  H14A 2978   5.077   6.794  10.097 -1.0962  1.2754 -0.2658
   23SAPC  H14B 2979   4.939   6.865  10.022  2.5026  2.2061  1.5015
   23SAPC  H14C 2980   4.959   6.697  10.003  1.3566 -0.9127 -1.0049
   23SAPC   C15 2981   5.178   6.715   9.851 -0.3417 -0.1814 -0.4680
   23SAPC  H15A 2982   5.242   6.741   9.768 -0.9889 -2.3371 -1.7418
   23SAPC  H15B 2983   5.231   6.699   9.943 -0.9402 -0.4987 -0.1689
   23SAPC  H15C 2984   5.128   6.625   9.819 -0.5378 -0.2572  0.0460
   23SAPC   C11 2985   4.853   6.911   9.752 -1.3204  0.2777 -0.3103
   23SAPC  H11A 2986   4.802   6.910   9.850 -2.0021  1.4242 -0.6364
   23SAPC  H11B 2987   4.784   6.862   9.681  0.4651 -1.8650 -0.7039
   23SAPC     P 2988   4.917   7.080   9.563  0.0448  0.1337 -0.1947
   23SAPC   O13 2989   4.793   7.068   9.484 -0.5922  0.3602  0.0931
   23SAPC   O14 2990   4.981   7.214   9.556 -0.1315 -0.5023 -0.0636
   23SAPC   O12 2991   4.893   7.042   9.712  0.0757  0.5845  0.5835
   23SAPC   O11 2992   5.017   6.973   9.503 -0.4845 -0.2392  0.1838
   23SAPC    C1 2993   5.162   6.995   9.506  0.4554 -0.0642  0.5080
   23SAPC    HA 2994   5.207   7.054   9.589  1.1117  0.8251 -0.4559
   23SAPC    HB 2995   5.204   6.893   9.517 -4.0070 -2.2195 -0.1789
   23SAPC    C2 2996   5.223   7.063   9.376  0.5215 -0.0294  0.3295
   23SAPC    HS 2997   5.161   7.153   9.358 -2.7217 -1.9644  0.9784
   23SAPC   O21 2998   5.211   6.977   9.265  0.4772 -0.0897 -0.4335
   23SAPC   C21 2999   5.106   6.993   9.181  0.6875 -0.9484 -0.3480
   23SAPC   O22 3000   5.031   7.093   9.175  0.3865 -0.2696 -0.3427
   23SAPC   C22 3001   5.087   6.866   9.098 -0.4927  0.0567 -0.4292
   23SAPC   H2R 3002   5.165   6.793   9.128 -0.8249  0.3263  1.1525
   23SAPC   H2S 3003   4.986   6.829   9.123 -0.2585 -1.7742 -1.9806
   23SAPC    C3 3004   5.374   7.105   9.399  0.1575 -0.2234  0.1258
   23SAPC    HX 3005   5.425   7.016   9.442  0.1709 -1.4293 -2.1749
   23SAPC    HY 3006   5.385   7.181   9.479 -0.0946  0.1762 -0.2145
   23SAPC   O31 3007   5.437   7.139   9.268  0.4092  0.0094  0.1057
   23SAPC   C31 3008   5.556   7.186   9.280  0.1805  0.0245 -0.7543
   23SAPC   O32 3009   5.616   7.203   9.389 -0.6997  0.3816 -0.0262
   23SAPC   C32 3010   5.612   7.214   9.138  0.9007  0.5528 -0.3434
   23SAPC   H2X 3011   5.702   7.276   9.156  1.2868 -0.5335  1.8441
   23SAPC   H2Y 3012   5.526   7.268   9.092 -2.4285 -3.4829  0.5515
   23SAPC   C23 3013   5.097   6.904   8.954 -0.4991  0.0518 -0.4264
   23SAPC   H3R 3014   5.184   6.968   8.928 -1.2716 -0.0246 -3.4908
   23SAPC   H3S 3015   5.014   6.975   8.935  0.6506  1.1704 -1.4326
   23SAPC   C24 3016   5.091   6.793   8.854  0.1730 -0.1219  0.7809
   23SAPC   H4R 3017   5.043   6.840   8.766  3.0301  1.6370  0.0202
   23SAPC   H4S 3018   5.021   6.718   8.898 -1.4997  1.4834  0.9694
   23SAPC   C25 3019   5.227   6.738   8.819  0.2493 -0.4952  0.0803
   23SAPC   H5R 3020   5.286   6.710   8.907 -1.0404 -1.1059  0.7876
   23SAPC   C26 3021   5.275   6.715   8.695  0.1276  0.4561 -0.1356
   23SAPC   H6R 3022   5.377   6.674   8.691  0.9548  2.1077  1.9218
   23SAPC   C27 3023   5.194   6.730   8.564  0.2253  0.0576  0.2426
   23SAPC   H7R 3024   5.088   6.697   8.577 -0.1058 -1.0343 -3.7996
   23SAPC   H7S 3025   5.229   6.655   8.490 -0.5852 -0.8537  0.7645
   23SAPC   C28 3026   5.194   6.875   8.517 -0.3605 -0.6803 -0.0036
   23SAPC   H8R 3027   5.131   6.942   8.577 -3.0038 -0.6346 -2.5900
   23SAPC   C29 3028   5.239   6.924   8.397 -0.9747  0.1510 -0.3610
   23SAPC   H9R 3029   5.215   7.029   8.372 -1.5116  0.7632  2.3939
   23SAPC  C210 3030   5.307   6.853   8.279  0.5599 -0.5343  0.0630
   23SAPC  H10R 3031   5.410   6.826   8.308  0.4466 -1.5196 -0.4011
   23SAPC  H10S 3032   5.320   6.930   8.201 -2.6440  1.5346  1.3440
   23SAPC  C211 3033   5.237   6.730   8.225  0.1504 -0.5539  0.0598
   23SAPC  H11R 3034   5.274   6.635   8.265 -0.1675 -0.8628 -0.3736
   23SAPC  C212 3035   5.137   6.728   8.137 -0.5139 -0.0570 -0.7506
   23SAPC  H12R 3036   5.096   6.629   8.110 -1.5472  0.6161 -1.7385
   23SAPC  C213 3037   5.062   6.852   8.084 -0.5256  0.5202  0.4006
   23SAPC  H13R 3038   5.101   6.951   8.118 -0.1152 -0.0528  1.6636
   23SAPC  H13S 3039   4.961   6.838   8.129 -0.0931 -3.8455  0.4097
   23SAPC  C214 3040   5.070   6.855   7.936 -0.3024 -0.0364  0.1830
   23SAPC  H14R 3041   5.169   6.851   7.888  0.5451  0.4731  1.8038
   23SAPC  C215 3042   4.960   6.851   7.858  0.0980  0.4784  0.8250
   23SAPC  H15R 3043   4.975   6.828   7.751  1.2295  0.0319  1.0696
   23SAPC  C216 3044   4.812   6.835   7.898 -0.3624 -0.7564  0.1001
   23SAPC  H16R 3045   4.759   6.901   7.827  1.5451 -0.0103 -0.6794
   23SAPC  H16S 3046   4.794   6.861   8.005  0.1677  0.5387 -0.1170
   23SAPC  C217 3047   4.767   6.687   7.890  0.1120  0.5183  0.0117
   23SAPC  H17R 3048   4.781   6.642   7.990  1.7119 -2.2211 -1.3167
   23SAPC  H17S 3049   4.839   6.633   7.825 -1.3765 -2.3528  0.5888
   23SAPC  C218 3050   4.611   6.673   7.861  0.4211  0.3242  0.7592
   23SAPC  H18R 3051   4.594   6.718   7.761 -3.0100 -1.0513  0.5913
   23SAPC  H18S 3052   4.558   6.734   7.937  0.6305  2.6493 -0.8472
   23SAPC  C219 3053   4.544   6.531   7.853 -0.1884 -0.0914  0.4403
   23SAPC  H19R 3054   4.579   6.480   7.760 -0.4957  1.5725 -0.6313
   23SAPC  H19S 3055   4.435   6.551   7.852 -0.2532 -0.4373 -0.1961
   23SAPC  C220 3056   4.569   6.444   7.977 -0.6022  0.4077  0.7475
   23SAPC  H20R 3057   4.505   6.353   7.983  3.2691 -2.5793  0.7996
   23SAPC  H20S 3058   4.548   6.507   8.066 -1.4148 -0.0414  0.8887
   23SAPC  H20T 3059   4.672   6.405   7.989 -1.0389 -0.7296  0.9304
   23SAPC   C33 3060   5.655   7.092   9.060  0.7906  0.4503  0.3205
   23SAPC   H3X 3061   5.713   7.019   9.120  0.9457 -1.8070 -2.3417
   23SAPC   H3Y 3062   5.730   7.116   8.982  0.7417 -0.9164 -0.1652
   23SAPC   C34 3063   5.534   7.022   9.000  0.6184 -0.3549 -0.9484
   23SAPC   H4X 3064   5.448   7.084   8.966 -1.2406 -0.3000  3.1484
   23SAPC   H4Y 3065   5.481   6.973   9.085 -0.8452  2.2991 -0.2348
   23SAPC   C35 3066   5.558   6.927   8.884 -0.0214  0.2952  0.4450
   23SAPC   H5X 3067   5.473   6.865   8.847 -1.4386  2.2456  0.2879
   23SAPC   H5Y 3068   5.641   6.856   8.904 -0.6464 -1.4368 -2.4222
   23SAPC   C36 3069   5.612   6.996   8.757  0.5734 -0.3320  0.0696
   23SAPC   H6X 3070   5.699   7.062   8.775 -0.3548  0.9780 -0.0524
   23SAPC   H6Y 3071   5.529   7.063   8.725  0.7224  1.2306  2.6515
   23SAPC   C37 3072   5.633   6.896   8.644  0.6431  1.1222  0.2947
   23SAPC   H7X 3073   5.548   6.825   8.638  0.1119  1.8304 -0.9777
   23SAPC   H7Y 3074   5.719   6.836   8.681  0.5456 -0.4224 -1.7811
   23SAPC   C38 3075   5.649   6.951   8.503 -0.9176  0.1907 -0.3331
   23SAPC   H8X 3076   5.714   7.040   8.514 -2.5929  1.1125  4.6477
   23SAPC   H8Y 3077   5.552   6.978   8.457 -0.2516  1.7337 -0.8804
   23SAPC   C39 3078   5.716   6.850   8.415 -0.0679  0.4583 -0.1279
   23SAPC   H9X 3079   5.656   6.760   8.390  0.1603 -0.2019  1.5328
   23SAPC   H9Y 3080   5.807   6.809   8.465 -0.7038 -0.0684  0.6306
   23SAPC  C310 3081   5.754   6.925   8.285 -0.1743  0.3711  0.4249
   23SAPC  H10X 3082   5.823   7.008   8.312 -2.1444  1.6132  1.9833
   23SAPC  H10Y 3083   5.668   6.977   8.238  0.9971  2.6838  0.6503
   23SAPC  C311 3084   5.829   6.835   8.189  0.4548 -0.5827  0.6206
   23SAPC  H11X 3085   5.774   6.745   8.154 -1.4969  1.1855 -1.1565
   23SAPC  H11Y 3086   5.925   6.808   8.239  1.9428  2.4440 -0.3506
   23SAPC  C312 3087   5.880   6.921   8.065 -0.1358 -0.0717 -0.3594
   23SAPC  H12X 3088   5.964   6.867   8.017 -0.3565 -1.2825  0.5818
   23SAPC  H12Y 3089   5.909   7.023   8.100 -1.8178 -0.0188  0.9836
   23SAPC  C313 3090   5.773   6.930   7.956 -0.2155 -0.2454 -0.0285
   23SAPC  H13X 3091   5.674   6.966   7.994 -0.2584 -0.2675 -0.1212
   23SAPC  H13Y 3092   5.749   6.825   7.930 -1.9014  0.0146  0.2906
   23SAPC  C314 3093   5.814   7.004   7.828  0.2273 -0.2747  0.0758
   23SAPC  H14X 3094   5.901   6.954   7.781  0.8709  0.6355  0.2676
   23SAPC  H14Y 3095   5.839   7.103   7.872  0.3148  1.1265 -2.9011
   23SAPC  C315 3096   5.690   7.019   7.732 -0.7185  0.1658 -0.2317
   23SAPC  H15X 3097   5.606   7.040   7.800 -1.3273  0.5853 -1.0999
   23SAPC  H15Y 3098   5.664   6.928   7.674  0.0718  0.3431 -0.8826
   23SAPC  C316 3099   5.718   7.141   7.645 -0.5647 -0.1338 -0.1445
   23SAPC  H16X 3100   5.818   7.136   7.597 -0.4750  1.9370 -0.2808
   23SAPC  H16Y 3101   5.730   7.226   7.715 -0.9701 -2.6253  3.1827
   23SAPC  C317 3102   5.614   7.159   7.532 -0.0772  0.0292  0.3781
   23SAPC  H17X 3103   5.572   7.065   7.489 -0.3578  0.4390 -0.2614
   23SAPC  H17Y 3104   5.657   7.216   7.446 -4.2271  2.7424 -0.2118
   23SAPC  C318 3105   5.493   7.238   7.582  0.1202  0.1659  0.1445
   23SAPC  H18X 3106   5.419   7.254   7.501 -0.9225 -0.7990  0.8736
   23SAPC  H18Y 3107   5.522   7.333   7.632  0.5114  0.5705 -0.8408
   23SAPC  H18Z 3108   5.452   7.170   7.661 -1.7513  0.0502 -0.8811
   24SAPC     N 3109   0.045   0.302   9.880 -0.5457 -0.1815 -0.0722
   24SAPC   C12 3110   0.055   0.213   9.999 -0.2923  0.4998 -0.0201
   24SAPC  H12A 3111  -0.039   0.210  10.052 -0.0923  0.6248  0.3449
   24SAPC  H12B 3112   0.126   0.249  10.072 -0.2299  2.5661 -1.0404
   24SAPC   C13 3113  -0.053   0.249   9.785  0.1604  0.1632  0.2686
   24SAPC  H13A 3114  -0.068   0.328   9.712  1.1681  0.3696  0.2659
   24SAPC  H13B 3115  -0.016   0.161   9.735  2.8105  1.2213  0.1813
   24SAPC  H13C 3116  -0.143   0.223   9.837 -0.4654 -0.2057 -0.9641
   24SAPC   C14 3117  -0.012   0.430   9.930 -0.0979  0.4633  0.8255
   24SAPC  H14A 3118  -0.115   0.428   9.965 -0.2527  1.5029  0.4874
   24SAPC  H14B 3119   0.044   0.482  10.007  0.4793  0.8631  0.1440
   24SAPC  H14C 3120  -0.023   0.501   9.850  3.2109 -1.2178 -1.2986
   24SAPC   C15 3121   0.174   0.318   9.812 -0.6121  0.9680  0.2423
   24SAPC  H15A 3122   0.251   0.340   9.885 -1.7798  0.4373  1.6830
   24SAPC  H15B 3123   0.205   0.227   9.761  1.7950  2.3091 -0.8775
   24SAPC  H15C 3124   0.177   0.391   9.732 -1.2552  0.1218 -0.5718
   24SAPC   C11 3125   0.103   0.069   9.967 -0.6440  0.0380 -0.3002
   24SAPC  H11A 3126   0.121   0.024  10.067 -1.2942  2.0765  0.8002
   24SAPC  H11B 3127   0.198   0.083   9.912 -0.5891  0.1508 -0.1750
   24SAPC     P 3128  -0.107  -0.086   9.929  0.1251 -0.3489 -0.2568
   24SAPC   O13 3129  -0.089  -0.235   9.928 -0.2185  0.4337  0.6269
   24SAPC   O14 3130  -0.150  -0.040  10.062  0.2322 -0.1906  0.3663
   24SAPC   O12 3131   0.023  -0.009   9.872 -0.1763  0.2671 -0.6331
   24SAPC   O11 3132  -0.226  -0.039   9.834 -0.0322 -0.3043  0.0539
   24SAPC    C1 3133  -0.242  -0.061   9.695 -0.0525 -0.5257 -0.0936
   24SAPC    HA 3134  -0.306   0.013   9.644  0.2224 -0.9999 -1.1472
   24SAPC    HB 3135  -0.147  -0.046   9.641  0.5171 -0.7677  0.8128
   24SAPC    C2 3136  -0.306  -0.202   9.670 -1.1281 -0.2357  0.3962
   24SAPC    HS 3137  -0.263  -0.268   9.749 -1.0926  0.0724  0.6381
   24SAPC   O21 3138  -0.265  -0.247   9.538 -0.5404  0.5966 -0.3652
   24SAPC   C21 3139  -0.283  -0.382   9.523 -0.1003  0.0726  0.0824
   24SAPC   O22 3140  -0.318  -0.463   9.611 -0.4369  0.4417 -0.2551
   24SAPC   C22 3141  -0.244  -0.431   9.387 -0.3816  0.5450 -0.4261
   24SAPC   H2R 3142  -0.144  -0.388   9.365  0.6789 -1.8629 -0.6153
   24SAPC   H2S 3143  -0.233  -0.541   9.400  0.5829  0.7169  0.3694
   24SAPC    C3 3144  -0.460  -0.199   9.680 -0.3388 -0.0608 -0.3149
   24SAPC    HX 3145  -0.467  -0.163   9.785 -0.6224  1.2327 -0.7607
   24SAPC    HY 3146  -0.507  -0.299   9.672 -1.2073  0.4658 -2.4020
   24SAPC   O31 3147  -0.523  -0.111   9.587 -0.8056 -0.4804  0.1956
   24SAPC   C31 3148  -0.585  -0.178   9.488 -0.6928 -0.6229  0.5076
   24SAPC   O32 3149  -0.588  -0.296   9.474 -0.4064  0.7464 -0.5546
   24SAPC   C32 3150  -0.652  -0.079   9.399  0.1642 -0.3780 -0.1526
   24SAPC   H2X 3151  -0.585   0.009   9.390  0.0063 -0.0356  1.6677
   24SAPC   H2Y 3152  -0.748  -0.045   9.444  0.5223  0.6302 -0.1295
   24SAPC   C23 3153  -0.352  -0.382   9.289 -0.1710  0.5652 -0.5960
   24SAPC   H3R 3154  -0.367  -0.274   9.310 -1.9948 -0.1625  2.4953
   24SAPC   H3S 3155  -0.445  -0.439   9.312 -0.5611  0.3053 -2.5788
   24SAPC   C24 3156  -0.310  -0.403   9.140 -0.0482 -0.4623 -0.3406
   24SAPC   H4R 3157  -0.227  -0.329   9.138 -0.9749  0.7257  1.7269
   24SAPC   H4S 3158  -0.397  -0.361   9.084  0.2532 -1.3647 -1.5362
   24SAPC   C25 3159  -0.276  -0.546   9.105  0.5931  0.5915  0.0525
   24SAPC   H5R 3160  -0.218  -0.590   9.187  1.9415  0.6797 -0.8273
   24SAPC   C26 3161  -0.312  -0.611   8.991 -0.0078 -0.4774 -0.7135
   24SAPC   H6R 3162  -0.273  -0.708   8.959 -0.5657 -0.5453 -1.2080
   24SAPC   C27 3163  -0.408  -0.540   8.892  0.9032  0.0122 -0.1242
   24SAPC   H7R 3164  -0.464  -0.455   8.937  0.8275  0.0172 -0.2281
   24SAPC   H7S 3165  -0.482  -0.598   8.833 -1.6453  2.9900 -0.1203
   24SAPC   C28 3166  -0.315  -0.471   8.800 -0.2351 -0.1232  0.2532
   24SAPC   H8R 3167  -0.213  -0.444   8.832 -0.4987  0.4261  0.6437
   24SAPC   C29 3168  -0.353  -0.422   8.677 -0.3380  0.1775  0.1359
   24SAPC   H9R 3169  -0.272  -0.387   8.611  0.8072 -1.0538  0.8432
   24SAPC  C210 3170  -0.488  -0.429   8.604 -0.4228  0.5165 -0.2474
   24SAPC  H10R 3171  -0.534  -0.333   8.571  0.0878  0.9143  0.1762
   24SAPC  H10S 3172  -0.560  -0.457   8.684  0.0198 -1.4595 -0.5090
   24SAPC  C211 3173  -0.485  -0.539   8.495 -0.4055 -0.3613  0.7855
   24SAPC  H11R 3174  -0.455  -0.641   8.523 -0.8647 -1.8822 -3.5167
   24SAPC  C212 3175  -0.509  -0.520   8.362  0.0377  0.2537 -1.0457
   24SAPC  H12R 3176  -0.497  -0.610   8.299 -0.0467 -1.9864  1.9019
   24SAPC  C213 3177  -0.558  -0.393   8.305 -0.5893 -0.2065  1.0097
   24SAPC  H13R 3178  -0.542  -0.300   8.364 -1.3299 -0.0137  0.9111
   24SAPC  H13S 3179  -0.667  -0.401   8.283 -0.5845  0.4993  0.7119
   24SAPC  C214 3180  -0.508  -0.385   8.160  0.4073 -0.7073 -0.3355
   24SAPC  H14R 3181  -0.577  -0.334   8.091  1.3585  2.2304  0.7515
   24SAPC  C215 3182  -0.384  -0.407   8.112  0.0275 -0.1391  0.1760
   24SAPC  H15R 3183  -0.382  -0.425   8.004 -1.1524 -2.0694  0.4265
   24SAPC  C216 3184  -0.251  -0.444   8.179  0.2435  0.1882 -0.1726
   24SAPC  H16R 3185  -0.263  -0.441   8.289  0.3775 -1.3328 -0.0903
   24SAPC  H16S 3186  -0.171  -0.370   8.155  1.1177 -0.6943 -0.0497
   24SAPC  C217 3187  -0.200  -0.582   8.146  0.2253 -0.7350 -0.2907
   24SAPC  H17R 3188  -0.286  -0.652   8.158 -1.1541  0.6767 -1.4364
   24SAPC  H17S 3189  -0.129  -0.605   8.228 -0.3368 -2.3706 -0.2204
   24SAPC  C218 3190  -0.131  -0.590   8.014  0.9667  0.0565  0.4311
   24SAPC  H18R 3191  -0.033  -0.537   8.018  2.3809 -2.3016 -0.7286
   24SAPC  H18S 3192  -0.192  -0.547   7.932  1.1120  0.7448  0.6804
   24SAPC  C219 3193  -0.096  -0.744   7.996 -0.0840  0.1149  0.6348
   24SAPC  H19R 3194  -0.185  -0.809   8.012  0.3368 -0.2869  1.3833
   24SAPC  H19S 3195  -0.028  -0.771   8.079 -0.4202 -0.1335  0.8352
   24SAPC  C220 3196  -0.037  -0.774   7.867 -0.3043 -0.4256 -0.5846
   24SAPC  H20R 3197  -0.111  -0.768   7.785  0.2456 -0.4883 -1.0862
   24SAPC  H20S 3198   0.006  -0.877   7.868  0.7564 -0.0422 -2.5310
   24SAPC  H20T 3199   0.045  -0.700   7.853  1.4221 -1.6450  2.1232
   24SAPC   C33 3200  -0.652  -0.130   9.256  0.3718  0.1337 -0.2022
   24SAPC   H3X 3201  -0.730  -0.210   9.257  1.1262 -0.6150  1.0774
   24SAPC   H3Y 3202  -0.560  -0.182   9.222  0.4921  0.4699 -0.3902
   24SAPC   C34 3203  -0.679  -0.025   9.150 -0.2742 -0.3231 -0.1648
   24SAPC   H4X 3204  -0.582   0.027   9.138 -0.0541 -0.4240  1.0625
   24SAPC   H4Y 3205  -0.753   0.052   9.180 -0.9980 -1.3165  0.6848
   24SAPC   C35 3206  -0.715  -0.069   9.005 -0.4176  0.6242  0.1122
   24SAPC   H5X 3207  -0.721   0.021   8.940 -0.0407  0.0973 -0.6668
   24SAPC   H5Y 3208  -0.807  -0.128   8.991  1.2644 -1.4227 -3.5757
   24SAPC   C36 3209  -0.606  -0.144   8.926 -0.3697 -0.0322 -0.2333
   24SAPC   H6X 3210  -0.612  -0.249   8.962 -0.4890  0.3139  0.8040
   24SAPC   H6Y 3211  -0.505  -0.110   8.960  0.0515 -2.1248  0.7774
   24SAPC   C37 3212  -0.598  -0.117   8.773 -0.1771 -0.0484 -0.5197
   24SAPC   H7X 3213  -0.526  -0.191   8.732  1.6260  1.4958 -0.2233
   24SAPC   H7Y 3214  -0.544  -0.021   8.759  0.0510 -0.4286 -2.7311
   24SAPC   C38 3215  -0.719  -0.105   8.688  0.2140  0.1683 -0.3083
   24SAPC   H8X 3216  -0.798  -0.041   8.733 -0.2509 -1.0505  0.6690
   24SAPC   H8Y 3217  -0.766  -0.206   8.677 -0.8820  0.6926 -0.5923
   24SAPC   C39 3218  -0.674  -0.056   8.548  0.0615  0.6730  0.2193
   24SAPC   H9X 3219  -0.595  -0.117   8.501  0.2686  2.9976 -2.7353
   24SAPC   H9Y 3220  -0.623   0.042   8.562 -0.9697  1.2275  0.1992
   24SAPC  C310 3221  -0.795  -0.041   8.451  0.6679 -0.1855  0.0294
   24SAPC  H10X 3222  -0.844   0.057   8.471  0.9425  0.2690 -1.4248
   24SAPC  H10Y 3223  -0.869  -0.121   8.475  1.0499 -0.2114  1.1934
   24SAPC  C311 3224  -0.750  -0.044   8.305 -0.1803 -0.1901 -0.3031
   24SAPC  H11X 3225  -0.674  -0.121   8.282 -2.1521 -2.1234 -0.7738
   24SAPC  H11Y 3226  -0.695   0.050   8.284  0.4133 -0.5666 -0.4563
   24SAPC  C312 3227  -0.879  -0.058   8.207 -0.4887  0.5455 -0.3347
   24SAPC  H12X 3228  -0.911   0.048   8.202  0.2295  0.8535  1.0196
   24SAPC  H12Y 3229  -0.957  -0.110   8.268 -0.3858  2.0541  1.1851
   24SAPC  C313 3230  -0.846  -0.138   8.082 -0.0497  0.2743 -0.5430
   24SAPC  H13X 3231  -0.810  -0.238   8.115 -1.9716  0.3575  2.1340
   24SAPC  H13Y 3232  -0.767  -0.085   8.025  0.1992 -0.7942 -1.2237
   24SAPC  C314 3233  -0.976  -0.160   7.994 -0.0355  0.0451  0.2753
   24SAPC  H14X 3234  -0.993  -0.057   7.956 -3.0986 -0.8653 -1.1773
   24SAPC  H14Y 3235  -1.062  -0.188   8.059 -0.3297 -0.8388 -0.4672
   24SAPC  C315 3236  -0.972  -0.254   7.873 -0.9211 -0.7333  0.9175
   24SAPC  H15X 3237  -0.886  -0.221   7.812 -0.7083 -0.4183  1.3815
   24SAPC  H15Y 3238  -1.067  -0.244   7.816 -0.9152  2.3436  1.3063
   24SAPC  C316 3239  -0.959  -0.400   7.916 -0.1837 -0.2224  0.7186
   24SAPC  H16X 3240  -1.042  -0.428   7.984 -0.4163 -2.2542 -0.3469
   24SAPC  H16Y 3241  -0.865  -0.429   7.968  0.8496 -0.1348 -1.0182
   24SAPC  C317 3242  -0.950  -0.498   7.797 -0.0338  0.5869 -0.1664
   24SAPC  H17X 3243  -0.922  -0.599   7.832  0.9171  0.2519 -1.8072
   24SAPC  H17Y 3244  -0.879  -0.451   7.726 -1.6648  3.1380 -0.2478
   24SAPC  C318 3245  -1.078  -0.514   7.722  0.5003 -0.5328 -0.4754
   24SAPC  H18X 3246  -1.086  -0.595   7.646 -4.0641 -0.3130 -0.4778
   24SAPC  H18Y 3247  -1.100  -0.423   7.663 -0.8026 -1.3355 -1.2890
   24SAPC  H18Z 3248  -1.157  -0.518   7.800 -0.4534 -1.6949 -1.4609
   25SAPC     N 3249   4.953   3.778   5.538 -0.0793 -0.4809 -0.5390
   25SAPC   C12 3250   4.967   3.924   5.478 -0.2284 -0.5610  0.5194
   25SAPC  H12A 3251   4.866   3.959   5.464 -0.3654 -1.3125 -0.5286
   25SAPC  H12B 3252   5.013   3.915   5.380 -3.4669  0.6067 -1.2652
   25SAPC   C13 3253   4.878   3.694   5.445  0.2238 -0.4412 -0.2028
   25SAPC  H13A 3254   4.774   3.718   5.430 -0.3732 -3.3814 -1.3815
   25SAPC  H13B 3255   4.925   3.699   5.348 -0.9980 -2.3252 -0.9514
   25SAPC  H13C 3256   4.895   3.590   5.467 -0.9164 -0.5743  0.1190
   25SAPC   C14 3257   5.084   3.714   5.573  0.5128  0.0192  0.2064
   25SAPC  H14A 3258   5.062   3.625   5.629  1.3228  1.1413  2.4554
   25SAPC  H14B 3259   5.144   3.680   5.489 -1.5088 -0.8569 -0.9530
   25SAPC  H14C 3260   5.145   3.780   5.633  0.5968 -0.9157  1.1640
   25SAPC   C15 3261   4.883   3.772   5.673  0.3642  0.1303  0.2926
   25SAPC  H15A 3262   4.939   3.833   5.742  1.0902  0.8278 -0.8694
   25SAPC  H15B 3263   4.787   3.820   5.665  1.1820  1.8100  0.1394
   25SAPC  H15C 3264   4.879   3.671   5.711  1.2355 -0.2476 -0.5663
   25SAPC   C11 3265   5.048   4.030   5.562  0.2319  0.2344 -0.1664
   25SAPC  H11A 3266   5.084   4.115   5.500  2.4940 -1.5363 -1.4496
   25SAPC  H11B 3267   5.143   3.977   5.585 -0.1614 -1.5674 -2.3198
   25SAPC     P 3268   4.890   4.190   5.705  0.0979 -0.0718  0.1048
   25SAPC   O13 3269   4.945   4.290   5.614 -0.0216 -0.5797 -0.6572
   25SAPC   O14 3270   4.743   4.164   5.687 -0.1226 -0.7675  0.0114
   25SAPC   O12 3271   4.972   4.059   5.681 -0.0227 -0.0099  0.3223
   25SAPC   O11 3272   4.916   4.230   5.858  0.2640 -0.1277  0.2405
   25SAPC    C1 3273   4.841   4.154   5.956  0.4470  0.9199 -0.1221
   25SAPC    HA 3274   4.734   4.134   5.933 -0.2452  2.0803  1.8837
   25SAPC    HB 3275   4.887   4.053   5.968  1.5060  1.5300  1.1702
   25SAPC    C2 3276   4.846   4.208   6.101  0.2411 -0.1407  0.4725
   25SAPC    HS 3277   4.948   4.195   6.143  0.9230 -1.9086 -1.5173
   25SAPC   O21 3278   4.766   4.108   6.165  0.3087 -0.4203 -0.1189
   25SAPC   C21 3279   4.743   4.130   6.290 -0.2582  0.0943 -0.3830
   25SAPC   O22 3280   4.806   4.205   6.361  0.1536  0.7098 -0.3620
   25SAPC   C22 3281   4.624   4.055   6.335  0.0100  0.5426  0.1847
   25SAPC   H2R 3282   4.619   3.957   6.283  0.8758  0.6985 -0.2211
   25SAPC   H2S 3283   4.624   4.040   6.445  1.6187 -0.8986  0.0244
   25SAPC    C3 3284   4.801   4.356   6.111 -0.0364  0.4523  0.3271
   25SAPC    HX 3285   4.865   4.411   6.038  1.6471  0.7837  1.9846
   25SAPC    HY 3286   4.838   4.388   6.210  1.5057  1.8171 -0.6284
   25SAPC   O31 3287   4.654   4.382   6.104 -0.3250  0.0429 -0.6271
   25SAPC   C31 3288   4.608   4.480   6.022 -0.1263 -0.0395 -0.5779
   25SAPC   O32 3289   4.677   4.557   5.956  0.8475  0.2958  0.1519
   25SAPC   C32 3290   4.458   4.483   6.033  0.3013 -0.2428  0.0664
   25SAPC   H2X 3291   4.434   4.400   6.103  0.8592 -0.3856  0.0883
   25SAPC   H2Y 3292   4.417   4.453   5.934 -1.1979 -1.6395  1.0503
   25SAPC   C23 3293   4.497   4.143   6.306 -0.6086 -0.1989  0.1606
   25SAPC   H3R 3294   4.459   4.116   6.205 -1.5637  1.7658 -0.0546
   25SAPC   H3S 3295   4.524   4.250   6.317  0.8516 -0.1263 -3.0713
   25SAPC   C24 3296   4.383   4.129   6.415  0.0576  0.3475 -0.0196
   25SAPC   H4R 3297   4.309   4.211   6.401  1.0259  1.5243  1.4780
   25SAPC   H4S 3298   4.439   4.138   6.510  0.3743 -3.2466  0.2845
   25SAPC   C25 3299   4.320   3.996   6.405  1.0224 -0.0085  0.1342
   25SAPC   H5R 3300   4.261   3.977   6.314 -0.2307 -2.6011  1.3739
   25SAPC   C26 3301   4.283   3.933   6.520 -0.0560  0.6351  0.1140
   25SAPC   H6R 3302   4.240   3.833   6.504  0.2707  0.2872  1.3075
   25SAPC   C27 3303   4.313   3.972   6.661  0.0385  0.5834 -0.1362
   25SAPC   H7R 3304   4.257   4.066   6.682 -0.0740  0.5859 -0.4383
   25SAPC   H7S 3305   4.421   3.997   6.668  0.4078 -0.0660 -2.4824
   25SAPC   C28 3306   4.275   3.863   6.759 -0.2265  0.3377 -0.5167
   25SAPC   H8R 3307   4.349   3.783   6.773 -0.3340  0.2906 -0.2230
   25SAPC   C29 3308   4.168   3.874   6.834 -0.6398  0.0808 -0.2243
   25SAPC   H9R 3309   4.128   3.800   6.905  1.4370  0.6864  1.7002
   25SAPC  C210 3310   4.072   3.994   6.837 -0.6498  0.4184 -0.6181
   25SAPC  H10R 3311   4.037   4.025   6.736  1.5122 -0.4883 -1.6948
   25SAPC  H10S 3312   4.132   4.080   6.875 -1.2799  1.3591 -1.6580
   25SAPC  C211 3313   3.949   3.967   6.926 -0.5416 -0.6839  0.2614
   25SAPC  H11R 3314   3.926   3.865   6.961  0.1226  0.5796  5.1872
   25SAPC  C212 3315   3.858   4.059   6.961  0.3327 -0.3542  0.2486
   25SAPC  H12R 3316   3.772   4.036   7.025  0.8302 -3.2029  0.0208
   25SAPC  C213 3317   3.855   4.202   6.908  0.6444 -0.1114  0.6520
   25SAPC  H13R 3318   3.755   4.212   6.860  1.9178  1.5021 -1.9076
   25SAPC  H13S 3319   3.919   4.206   6.817 -1.5530  2.0007 -0.9239
   25SAPC  C214 3320   3.882   4.300   7.014  0.4934 -0.8673 -0.7806
   25SAPC  H14R 3321   3.811   4.288   7.097  1.1591  1.6026  0.2223
   25SAPC  C215 3322   3.974   4.399   7.026 -0.6717  0.7800 -0.1580
   25SAPC  H15R 3323   3.980   4.451   7.123  0.8866  0.3263  0.0122
   25SAPC  C216 3324   4.071   4.441   6.914  0.4163  0.8122 -0.5199
   25SAPC  H16R 3325   4.056   4.549   6.893 -1.9955  0.6144 -0.0967
   25SAPC  H16S 3326   4.045   4.391   6.818  1.4579 -0.5185 -0.1316
   25SAPC  C217 3327   4.223   4.428   6.959 -0.0732  0.3177  0.3402
   25SAPC  H17R 3328   4.243   4.322   6.987  0.3960  0.3145  0.0145
   25SAPC  H17S 3329   4.233   4.475   7.059 -1.8251  2.3683 -0.3819
   25SAPC  C218 3330   4.321   4.475   6.848 -0.6476 -0.4974 -0.7665
   25SAPC  H18R 3331   4.415   4.514   6.892  0.5244 -1.2001 -2.5354
   25SAPC  H18S 3332   4.286   4.564   6.791  0.1071  0.8903  0.8407
   25SAPC  C219 3333   4.357   4.357   6.752 -0.1811  0.3618  0.0017
   25SAPC  H19R 3334   4.265   4.317   6.706 -1.1599 -0.1699  2.2891
   25SAPC  H19S 3335   4.391   4.273   6.817  0.4296  0.4495 -0.1917
   25SAPC  C220 3336   4.479   4.386   6.656 -0.2372  0.1247  0.1860
   25SAPC  H20R 3337   4.562   4.431   6.715  0.7083  0.8736 -1.6216
   25SAPC  H20S 3338   4.456   4.470   6.586 -1.1712  1.5988  2.1745
   25SAPC  H20T 3339   4.506   4.295   6.598 -1.6114  0.3031 -0.7996
   25SAPC   C33 3340   4.383   4.612   6.079  0.0290 -0.3071  0.2838
   25SAPC   H3X 3341   4.279   4.602   6.041 -0.1031 -1.2529  0.8470
   25SAPC   H3Y 3342   4.424   4.704   6.033 -1.5731  0.0625 -0.4639
   25SAPC   C34 3343   4.385   4.621   6.233 -0.0703 -0.3809  0.5824
   25SAPC   H4X 3344   4.485   4.663   6.258 -0.1137  0.6895 -0.9314
   25SAPC   H4Y 3345   4.376   4.520   6.280  0.4234  0.7819  3.3668
   25SAPC   C35 3346   4.275   4.724   6.286 -0.1495  0.7364 -0.2654
   25SAPC   H5X 3347   4.185   4.695   6.227  0.0641  1.4030 -0.9437
   25SAPC   H5Y 3348   4.298   4.826   6.247 -0.0855  1.3905  1.4133
   25SAPC   C36 3349   4.249   4.702   6.439  0.0017  0.2871  0.8438
   25SAPC   H6X 3350   4.347   4.683   6.486 -1.2083 -2.8989  2.3318
   25SAPC   H6Y 3351   4.202   4.602   6.451  0.5567 -0.0141  0.5349
   25SAPC   C37 3352   4.167   4.809   6.514 -0.4412 -0.1107  0.0787
   25SAPC   H7X 3353   4.076   4.819   6.452 -1.0254 -0.6163  0.8389
   25SAPC   H7Y 3354   4.229   4.902   6.510  2.6285 -2.0334 -0.9535
   25SAPC   C38 3355   4.148   4.782   6.660 -1.0570 -0.4347 -0.0853
   25SAPC   H8X 3356   4.248   4.754   6.700 -0.3311 -1.1847 -2.2827
   25SAPC   H8Y 3357   4.084   4.692   6.674 -0.9491 -0.1760  2.5856
   25SAPC   C39 3358   4.083   4.904   6.719  0.3249  0.0242  0.4190
   25SAPC   H9X 3359   3.991   4.928   6.661  1.2985 -3.0076 -2.7105
   25SAPC   H9Y 3360   4.141   4.999   6.716  0.2105  0.1245  1.2926
   25SAPC  C310 3361   4.034   4.859   6.858  0.0635 -0.7006 -0.1776
   25SAPC  H10X 3362   4.126   4.836   6.915  0.2796  1.2476  0.3448
   25SAPC  H10Y 3363   3.965   4.773   6.842 -1.1499 -0.1142  1.6455
   25SAPC  C311 3364   3.961   4.975   6.934  0.8734 -0.4019  0.1397
   25SAPC  H11X 3365   3.861   5.011   6.902  0.8362  0.9762  1.7237
   25SAPC  H11Y 3366   4.039   5.053   6.934  1.6309 -1.1326 -0.6746
   25SAPC  C312 3367   3.948   4.925   7.078 -0.7007 -0.2848  0.4354
   25SAPC  H12X 3368   3.909   5.011   7.137 -4.2766 -1.4022 -0.0617
   25SAPC  H12Y 3369   4.052   4.891   7.100 -0.3734  0.0889 -0.4711
   25SAPC  C313 3370   3.846   4.806   7.089 -0.8876  0.7627 -0.0025
   25SAPC  H13X 3371   3.902   4.710   7.080  0.9928  1.7937  0.2978
   25SAPC  H13Y 3372   3.769   4.803   7.009 -1.2573  2.3018  0.2612
   25SAPC  C314 3373   3.779   4.816   7.226 -0.0389  0.8083  0.3607
   25SAPC  H14X 3374   3.686   4.877   7.236 -0.1663  0.4334  1.6642
   25SAPC  H14Y 3375   3.860   4.860   7.288  0.4332 -0.4698  0.6795
   25SAPC  C315 3376   3.747   4.682   7.286 -0.1083  0.2069  0.1766
   25SAPC  H15X 3377   3.827   4.606   7.284 -0.5948 -0.3299  0.7376
   25SAPC  H15Y 3378   3.659   4.629   7.244  0.3583 -0.2341 -0.2591
   25SAPC  C316 3379   3.717   4.700   7.440 -0.3374 -0.0458  0.4724
   25SAPC  H16X 3380   3.813   4.736   7.485 -0.1056 -0.9326  0.6989
   25SAPC  H16Y 3381   3.689   4.599   7.475 -0.0487 -0.6170 -0.8809
   25SAPC  C317 3382   3.611   4.798   7.484 -0.5997  0.2613 -0.2479
   25SAPC  H17X 3383   3.514   4.744   7.475  0.3476 -1.2847 -2.1174
   25SAPC  H17Y 3384   3.600   4.885   7.415  2.9077  2.1860  1.4087
   25SAPC  C318 3385   3.639   4.864   7.622  0.1068  0.4008  0.2649
   25SAPC  H18X 3386   3.631   4.778   7.692 -3.4534 -0.4807 -1.0202
   25SAPC  H18Y 3387   3.567   4.943   7.652  0.0514  0.1124  0.9144
   25SAPC  H18Z 3388   3.742   4.907   7.626 -0.3440  1.5427  0.1926
   26SAPC     N 3389   4.455   4.876   5.420 -0.0299 -0.8375 -0.3651
   26SAPC   C12 3390   4.521   4.966   5.526  0.5715 -0.0410  0.1851
   26SAPC  H12A 3391   4.557   5.055   5.477  1.5857  0.1435  1.2415
   26SAPC  H12B 3392   4.597   4.908   5.576 -0.0362 -0.6693  0.4039
   26SAPC   C13 3393   4.410   4.748   5.484  0.2236 -0.2429  0.1652
   26SAPC  H13A 3394   4.356   4.772   5.574  0.8224  0.0086  0.4602
   26SAPC  H13B 3395   4.345   4.690   5.420 -0.5812 -1.4934  2.0187
   26SAPC  H13C 3396   4.498   4.690   5.508  0.3840  0.4915  1.4093
   26SAPC   C14 3397   4.344   4.944   5.349 -0.6959 -1.0992 -0.2963
   26SAPC  H14A 3398   4.287   5.001   5.420 -1.0016 -0.2404 -1.2148
   26SAPC  H14B 3399   4.387   5.023   5.289 -0.1163 -1.3063 -0.1686
   26SAPC  H14C 3400   4.276   4.881   5.293  0.1871 -2.6788  0.3244
   26SAPC   C15 3401   4.558   4.853   5.309  0.0275  0.0682  0.3472
   26SAPC  H15A 3402   4.652   4.819   5.351  0.1673  0.5320  0.4194
   26SAPC  H15B 3403   4.517   4.775   5.247 -2.3696  1.0570  0.5948
   26SAPC  H15C 3404   4.594   4.941   5.258  4.7385 -0.7758  1.6616
   26SAPC   C11 3405   4.431   5.012   5.644 -0.2972 -0.0080  1.2674
   26SAPC  H11A 3406   4.491   5.070   5.717 -0.8706 -0.9656  2.5330
   26SAPC  H11B 3407   4.394   4.917   5.689  0.5669 -1.6466 -1.2133
   26SAPC     P 3408   4.328   5.236   5.542 -0.0771 -0.0803  0.3807
   26SAPC   O13 3409   4.473   5.273   5.522  0.2626  0.6023  0.4613
   26SAPC   O14 3410   4.240   5.237   5.423  0.3799 -0.4859 -0.5410
   26SAPC   O12 3411   4.315   5.090   5.600 -0.0071  0.9356  0.0707
   26SAPC   O11 3412   4.271   5.343   5.639 -0.0894  0.0145 -0.3967
   26SAPC    C1 3413   4.158   5.312   5.721 -0.3022 -0.3049 -0.7268
   26SAPC    HA 3414   4.061   5.329   5.669 -0.7519 -0.0466  0.1734
   26SAPC    HB 3415   4.164   5.207   5.757 -0.6897 -0.2228 -0.4124
   26SAPC    C2 3416   4.158   5.403   5.846  0.3682 -0.2557 -0.1061
   26SAPC    HS 3417   4.125   5.502   5.810 -0.5622 -0.6085 -0.2499
   26SAPC   O21 3418   4.289   5.410   5.900  0.2674 -0.1106  0.0606
   26SAPC   C21 3419   4.308   5.496   5.996 -0.2841 -0.1290 -0.3801
   26SAPC   O22 3420   4.241   5.595   6.028 -0.2074 -0.4351  0.3386
   26SAPC   C22 3421   4.443   5.470   6.060 -0.0801 -0.8558 -0.0681
   26SAPC   H2R 3422   4.472   5.367   6.028  0.6668 -0.5382 -0.4440
   26SAPC   H2S 3423   4.517   5.539   6.013 -0.2177  0.1680  1.1680
   26SAPC    C3 3424   4.050   5.370   5.955 -0.4161  0.3407 -0.3059
   26SAPC    HX 3425   3.965   5.328   5.897 -0.2711  0.0426 -0.3075
   26SAPC    HY 3426   4.018   5.471   5.988  0.5403  0.2942  0.8600
   26SAPC   O31 3427   4.109   5.290   6.061  0.0758  0.0392  0.2745
   26SAPC   C31 3428   4.080   5.159   6.044 -0.5122  0.0753  0.5008
   26SAPC   O32 3429   4.036   5.113   5.939  0.3400 -0.3078 -0.1052
   26SAPC   C32 3430   4.131   5.086   6.160  0.3038 -0.0134  0.4611
   26SAPC   H2X 3431   4.179   5.156   6.231  0.0041  1.2939 -0.5907
   26SAPC   H2Y 3432   4.196   4.999   6.134  0.9211 -0.4001  3.0259
   26SAPC   C23 3433   4.434   5.477   6.213  0.1042 -0.6247  0.5847
   26SAPC   H3R 3434   4.522   5.426   6.258  0.5887  0.3785  0.7879
   26SAPC   H3S 3435   4.350   5.415   6.253 -0.7634  0.6446  0.7853
   26SAPC   C24 3436   4.445   5.624   6.260 -0.4032 -0.7504  0.4590
   26SAPC   H4R 3437   4.346   5.669   6.239  0.2637 -0.6527 -3.2316
   26SAPC   H4S 3438   4.527   5.668   6.199 -0.1937 -1.2073  0.4049
   26SAPC   C25 3439   4.473   5.638   6.408 -0.4462  0.5848  0.1150
   26SAPC   H5R 3440   4.577   5.652   6.439 -0.6342  1.5512  0.3645
   26SAPC   C26 3441   4.387   5.651   6.504 -0.5870 -0.2987 -0.1456
   26SAPC   H6R 3442   4.416   5.681   6.606 -0.5428  0.3001 -0.3271
   26SAPC   C27 3443   4.237   5.651   6.479  0.2293 -0.3408  0.9701
   26SAPC   H7R 3444   4.215   5.740   6.416  3.1044 -0.1940  0.0259
   26SAPC   H7S 3445   4.186   5.665   6.576  0.4912 -0.9258  1.2010
   26SAPC   C28 3446   4.168   5.528   6.431  0.2845 -0.1149  0.0069
   26SAPC   H8R 3447   4.131   5.537   6.328 -1.6513 -2.0656  0.4736
   26SAPC   C29 3448   4.158   5.414   6.498 -0.2184  0.2051 -0.4453
   26SAPC   H9R 3449   4.095   5.337   6.450  1.2280  0.7183 -3.3203
   26SAPC  C210 3450   4.206   5.379   6.636  0.1273 -0.4814 -0.5835
   26SAPC  H10R 3451   4.228   5.469   6.696 -0.1452 -0.3718 -0.6436
   26SAPC  H10S 3452   4.302   5.323   6.633  1.6958  1.8012  2.3205
   26SAPC  C211 3453   4.103   5.292   6.713 -0.5202 -0.0755 -0.4552
   26SAPC  H11R 3454   4.091   5.188   6.680  0.0363 -0.3357  0.1361
   26SAPC  C212 3455   4.053   5.328   6.834  0.3451  0.3147 -0.2013
   26SAPC  H12R 3456   3.994   5.246   6.879  2.8453 -2.3219 -1.4241
   26SAPC  C213 3457   4.082   5.456   6.910 -0.3774 -0.3637 -0.0212
   26SAPC  H13R 3458   3.994   5.476   6.974 -1.8608 -0.3511 -1.9485
   26SAPC  H13S 3459   4.080   5.546   6.844 -2.2476 -0.6071 -0.3458
   26SAPC  C214 3460   4.199   5.445   6.997 -0.8929  0.3544 -0.2827
   26SAPC  H14R 3461   4.200   5.351   7.054  0.4855  1.4325  1.5926
   26SAPC  C215 3462   4.310   5.524   7.006 -0.2157  0.3741 -0.3508
   26SAPC  H15R 3463   4.389   5.490   7.074 -2.2109 -3.1526  0.4715
   26SAPC  C216 3464   4.337   5.642   6.920  0.1335  0.0927 -0.4970
   26SAPC  H16R 3465   4.248   5.664   6.858 -0.3145  0.1837  0.1678
   26SAPC  H16S 3466   4.410   5.609   6.843  1.1770  0.7269  0.1925
   26SAPC  C217 3467   4.382   5.772   6.977  0.0009  0.0405 -0.9121
   26SAPC  H17R 3468   4.476   5.766   7.037  0.1582  2.3825 -0.8339
   26SAPC  H17S 3469   4.307   5.814   7.047  1.2254  1.2677 -0.2655
   26SAPC  C218 3470   4.414   5.888   6.877  0.2912 -0.3062  0.3732
   26SAPC  H18R 3471   4.333   5.885   6.801  1.9371  2.2140 -1.6405
   26SAPC  H18S 3472   4.514   5.862   6.836 -0.0240  1.0622 -1.3623
   26SAPC  C219 3473   4.416   6.026   6.941  0.5329 -0.9862  0.1137
   26SAPC  H19R 3474   4.315   6.050   6.981  0.8288  0.3358  0.1153
   26SAPC  H19S 3475   4.443   6.094   6.859 -1.5997 -1.8569 -1.4096
   26SAPC  C220 3476   4.513   6.028   7.063 -0.0410  0.1558  0.0925
   26SAPC  H20R 3477   4.600   5.968   7.029 -0.4996  0.2567 -1.3037
   26SAPC  H20S 3478   4.457   5.976   7.143 -1.1133  0.9272 -0.1353
   26SAPC  H20T 3479   4.553   6.121   7.109  1.1411 -1.0540  1.6142
   26SAPC   C33 3480   4.004   5.026   6.230 -0.4818 -0.3616  0.7078
   26SAPC   H3X 3481   4.034   4.952   6.307 -0.3501 -2.8758 -1.5914
   26SAPC   H3Y 3482   3.950   4.967   6.152  2.1356 -1.0092 -0.7499
   26SAPC   C34 3483   3.913   5.122   6.302 -0.2870  0.3174  0.3214
   26SAPC   H4X 3484   3.870   5.192   6.226  1.5775 -0.9780 -2.0506
   26SAPC   H4Y 3485   3.970   5.183   6.376  0.4882 -2.1252  1.8378
   26SAPC   C35 3486   3.802   5.045   6.372 -0.8379 -0.3714 -0.2624
   26SAPC   H5X 3487   3.861   4.976   6.436 -2.0284 -0.5650  0.6604
   26SAPC   H5Y 3488   3.735   4.991   6.303  0.2055  0.9410 -2.4181
   26SAPC   C36 3489   3.723   5.126   6.477  0.0375  0.0140 -0.1985
   26SAPC   H6X 3490   3.658   5.197   6.422 -1.0444 -0.2094  0.7512
   26SAPC   H6Y 3491   3.795   5.184   6.539 -0.6040 -1.1434  1.7223
   26SAPC   C37 3492   3.649   5.038   6.586 -0.5021 -0.8122 -0.5541
   26SAPC   H7X 3493   3.724   5.011   6.663 -0.1867 -0.9358 -0.9058
   26SAPC   H7Y 3494   3.621   4.947   6.529 -0.1460 -1.7589  0.7404
   26SAPC   C38 3495   3.529   5.106   6.644  0.0843  0.2318 -0.1010
   26SAPC   H8X 3496   3.467   5.043   6.711  0.6156 -0.4811 -0.2791
   26SAPC   H8Y 3497   3.456   5.125   6.562 -0.2612  1.0487  0.3760
   26SAPC   C39 3498   3.571   5.235   6.721  0.1239  1.2384 -0.3588
   26SAPC   H9X 3499   3.481   5.273   6.775  0.3709  2.2288 -0.6237
   26SAPC   H9Y 3500   3.620   5.311   6.657  3.7379 -1.5389 -1.2072
   26SAPC  C310 3501   3.668   5.193   6.834  0.2862 -0.1332 -0.8446
   26SAPC  H10X 3502   3.775   5.185   6.804  0.6077  1.2764 -0.1695
   26SAPC  H10Y 3503   3.643   5.095   6.880 -1.2513  1.5631  2.1995
   26SAPC  C311 3504   3.668   5.294   6.950  0.3156 -0.4003  0.2290
   26SAPC  H11X 3505   3.561   5.308   6.977  0.1171  0.4336 -0.9236
   26SAPC  H11Y 3506   3.704   5.387   6.902 -1.5602  0.6840  0.8163
   26SAPC  C312 3507   3.756   5.261   7.070  0.5622  0.8753 -0.5413
   26SAPC  H12X 3508   3.854   5.232   7.027  0.0710 -2.6204  0.4284
   26SAPC  H12Y 3509   3.709   5.170   7.112 -0.6792  0.7485 -2.0903
   26SAPC  C313 3510   3.767   5.383   7.157 -0.0421  0.0521 -0.2609
   26SAPC  H13X 3511   3.670   5.425   7.191 -0.1890 -0.2803 -0.2564
   26SAPC  H13Y 3512   3.811   5.463   7.093  0.9858  1.5314  2.1688
   26SAPC  C314 3513   3.868   5.366   7.273 -0.6854 -0.0022 -0.0216
   26SAPC  H14X 3514   3.966   5.366   7.221 -0.6828  2.1592 -0.1130
   26SAPC  H14Y 3515   3.844   5.264   7.308 -0.5834 -0.8696 -2.2926
   26SAPC  C315 3516   3.856   5.479   7.376  0.6142  0.2889 -0.3527
   26SAPC  H15X 3517   3.755   5.503   7.416 -0.5274 -0.1898 -2.7480
   26SAPC  H15Y 3518   3.887   5.569   7.320  0.0803  1.2710  0.8563
   26SAPC  C316 3519   3.959   5.469   7.485  0.1386  0.3017 -0.2928
   26SAPC  H16X 3520   4.062   5.462   7.444  0.4616  0.0037  0.5561
   26SAPC  H16Y 3521   3.934   5.376   7.541  0.6331 -0.5777 -1.4857
   26SAPC  C317 3522   3.968   5.588   7.579 -0.1899  0.6904 -0.8049
   26SAPC  H17X 3523   3.957   5.673   7.509  1.2360  0.1820 -1.6961
   26SAPC  H17Y 3524   4.073   5.598   7.615 -0.2217  0.6172 -0.6934
   26SAPC  C318 3525   3.869   5.574   7.693  0.6916  0.3246 -0.4509
   26SAPC  H18X 3526   3.769   5.544   7.656 -0.0389  0.2948  1.4183
   26SAPC  H18Y 3527   3.853   5.667   7.752  0.3001  0.9634 -1.5456
   26SAPC  H18Z 3528   3.908   5.490   7.754  1.7216  0.3663 -1.0395
   27SAPC     N 3529   2.798   1.121   5.585  0.0659  0.0337 -0.7258
   27SAPC   C12 3530   2.718   1.008   5.518  0.2358  0.1039 -0.4604
   27SAPC  H12A 3531   2.636   1.043   5.457  0.0014 -1.5779 -1.1356
   27SAPC  H12B 3532   2.659   0.953   5.590  0.5915  2.0411  1.4454
   27SAPC   C13 3533   2.712   1.224   5.658 -0.9795  0.1912 -0.3273
   27SAPC  H13A 3534   2.632   1.259   5.596 -1.2543 -1.8332 -1.1876
   27SAPC  H13B 3535   2.685   1.189   5.757  1.3880 -2.8749 -0.6081
   27SAPC  H13C 3536   2.777   1.309   5.673  0.1922 -0.4722 -1.4245
   27SAPC   C14 3537   2.898   1.058   5.676 -0.2256 -0.3480 -0.0589
   27SAPC  H14A 3538   2.845   1.016   5.760 -0.9584 -1.0073 -0.8334
   27SAPC  H14B 3539   2.944   0.973   5.628 -1.3916 -0.7375 -0.5261
   27SAPC  H14C 3540   2.966   1.126   5.725 -0.5145 -0.7869  0.9696
   27SAPC   C15 3541   2.869   1.193   5.481  0.3627 -0.1563 -0.2183
   27SAPC  H15A 3542   2.924   1.120   5.423 -0.8383 -1.1576 -0.1320
   27SAPC  H15B 3543   2.798   1.236   5.411 -0.1348  1.5889  1.2867
   27SAPC  H15C 3544   2.918   1.276   5.529  0.0625 -0.9098  1.4334
   27SAPC   C11 3545   2.797   0.909   5.430 -0.4088  0.2111 -0.2456
   27SAPC  H11A 3546   2.859   0.960   5.352  0.4673 -1.6533 -0.8277
   27SAPC  H11B 3547   2.720   0.851   5.374  0.0974  0.2364 -0.9851
   27SAPC     P 3548   2.824   0.687   5.572  0.2129  0.0753  0.2930
   27SAPC   O13 3549   2.777   0.598   5.466 -0.0200 -0.3415 -0.7687
   27SAPC   O14 3550   2.926   0.631   5.663 -0.3344 -0.0416  0.1694
   27SAPC   O12 3551   2.878   0.822   5.509 -0.0550  0.2378 -0.5566
   27SAPC   O11 3552   2.708   0.740   5.654  0.4363 -0.2265 -0.0088
   27SAPC    C1 3553   2.717   0.764   5.793 -0.4945 -0.5326 -0.7272
   27SAPC    HA 3554   2.800   0.833   5.820 -3.2505  2.9173 -0.4090
   27SAPC    HB 3555   2.623   0.808   5.832 -1.2389 -2.3719 -0.3579
   27SAPC    C2 3556   2.723   0.638   5.885  0.1396  0.2194  0.0683
   27SAPC    HS 3557   2.792   0.568   5.835 -0.8224  0.7047 -2.0376
   27SAPC   O21 3558   2.592   0.576   5.888 -0.2198 -0.3987  0.3232
   27SAPC   C21 3559   2.585   0.468   5.962  0.2151  0.4494  1.0371
   27SAPC   O22 3560   2.677   0.418   6.018  0.1866 -0.2576  0.3109
   27SAPC   C22 3561   2.437   0.412   5.941 -0.4111  0.0778  0.0778
   27SAPC   H2R 3562   2.376   0.502   5.918  0.9099  0.8232 -0.6097
   27SAPC   H2S 3563   2.442   0.336   5.859 -2.0815 -0.3601  0.3318
   27SAPC    C3 3564   2.776   0.676   6.034  0.1722 -0.3198  0.1066
   27SAPC    HX 3565   2.834   0.769   6.015  0.3303 -0.7473 -1.7284
   27SAPC    HY 3566   2.857   0.606   6.062 -0.2398  0.1927  2.8267
   27SAPC   O31 3567   2.681   0.666   6.138  0.2648  0.2306 -0.4577
   27SAPC   C31 3568   2.593   0.767   6.155 -0.4314 -0.7782  0.3904
   27SAPC   O32 3569   2.602   0.879   6.102  0.0898 -0.0250  0.8624
   27SAPC   C32 3570   2.486   0.727   6.251 -0.1260 -0.1522  0.4144
   27SAPC   H2X 3571   2.464   0.621   6.225 -1.3195 -0.3727  2.1284
   27SAPC   H2Y 3572   2.391   0.781   6.228 -1.4308 -2.2834  0.5030
   27SAPC   C23 3573   2.376   0.367   6.067  0.7850  0.7339 -0.5080
   27SAPC   H3R 3574   2.359   0.461   6.124  2.8283  0.6306  0.3668
   27SAPC   H3S 3575   2.448   0.307   6.128  0.2042  0.6185  0.0750
   27SAPC   C24 3576   2.242   0.293   6.046 -0.3311 -0.0602 -0.2961
   27SAPC   H4R 3577   2.216   0.262   6.149  2.3461 -0.0743  0.4607
   27SAPC   H4S 3578   2.270   0.203   5.986 -1.7958 -0.7370  0.0053
   27SAPC   C25 3579   2.123   0.359   5.992  0.3667 -1.0601  0.7483
   27SAPC   H5R 3580   2.102   0.349   5.884  0.6171  0.4961  0.5435
   27SAPC   C26 3581   2.024   0.423   6.059 -0.0956  0.1424  0.1018
   27SAPC   H6R 3582   1.938   0.457   5.999  0.1855  2.0134  0.6828
   27SAPC   C27 3583   2.014   0.448   6.208 -0.9052 -0.5092  0.1978
   27SAPC   H7R 3584   2.118   0.452   6.246 -0.6409  2.5621 -0.5624
   27SAPC   H7S 3585   1.960   0.371   6.268  0.3639 -1.6930 -0.1415
   27SAPC   C28 3586   1.957   0.585   6.235  0.0404  0.8704 -0.7510
   27SAPC   H8R 3587   1.887   0.628   6.162  0.9515 -0.4537 -2.4856
   27SAPC   C29 3588   2.000   0.673   6.330  0.4970 -0.5894  1.1432
   27SAPC   H9R 3589   1.941   0.765   6.338  2.1605  0.5615  0.6160
   27SAPC  C210 3590   2.120   0.663   6.428 -0.1506 -0.1902 -0.0487
   27SAPC  H10R 3591   2.181   0.755   6.414  0.3780 -0.5128  0.0848
   27SAPC  H10S 3592   2.186   0.583   6.387  0.0984  0.4714 -0.9874
   27SAPC  C211 3593   2.100   0.649   6.575  0.0238 -0.3468  0.1713
   27SAPC  H11R 3594   2.022   0.714   6.619 -2.1890 -1.5337 -1.7909
   27SAPC  C212 3595   2.158   0.567   6.660 -0.2179 -0.6660 -0.1335
   27SAPC  H12R 3596   2.156   0.586   6.768  0.4848 -1.8317  0.1034
   27SAPC  C213 3597   2.263   0.464   6.633  0.7325  0.0724  0.3826
   27SAPC  H13R 3598   2.354   0.489   6.692  0.2427 -1.1856  1.7426
   27SAPC  H13S 3599   2.290   0.450   6.526 -0.6541 -0.2692  0.0563
   27SAPC  C214 3600   2.222   0.326   6.686 -0.8833  0.3076  0.5307
   27SAPC  H14R 3601   2.160   0.265   6.619 -3.1574  1.4182  1.5100
   27SAPC  C215 3602   2.254   0.266   6.805 -0.2001  0.1279  0.6051
   27SAPC  H15R 3603   2.221   0.164   6.830 -1.6357  0.9742  2.4176
   27SAPC  C216 3604   2.332   0.330   6.911 -0.6814  0.0442  0.6027
   27SAPC  H16R 3605   2.325   0.441   6.904  2.3353  0.3934  1.2981
   27SAPC  H16S 3606   2.439   0.305   6.895 -1.0808 -0.9721 -0.6273
   27SAPC  C217 3607   2.278   0.303   7.054 -0.3961  0.5750 -0.2588
   27SAPC  H17R 3608   2.167   0.304   7.054 -0.3960  1.8055 -0.4212
   27SAPC  H17S 3609   2.315   0.377   7.128 -2.1176  0.4482  0.7825
   27SAPC  C218 3610   2.323   0.163   7.105 -0.0823 -0.6804  0.1008
   27SAPC  H18R 3611   2.433   0.170   7.097  0.0845 -1.5132  1.4509
   27SAPC  H18S 3612   2.295   0.083   7.033  1.1868 -0.2592 -0.8914
   27SAPC  C219 3613   2.270   0.144   7.244 -0.7585 -0.1428  0.1931
   27SAPC  H19R 3614   2.162   0.170   7.244 -0.2959  2.3192  2.6035
   27SAPC  H19S 3615   2.304   0.222   7.316 -2.3243  0.5025  0.2847
   27SAPC  C220 3616   2.307   0.008   7.303  1.0785  0.1646 -0.6393
   27SAPC  H20R 3617   2.418  -0.001   7.301  0.9847 -1.2558 -0.5787
   27SAPC  H20S 3618   2.264  -0.074   7.242 -1.2397  0.2161  0.8258
   27SAPC  H20T 3619   2.252   0.004   7.400 -0.8367 -2.0220 -1.7197
   27SAPC   C33 3620   2.517   0.743   6.400 -0.1651  0.9852 -0.5169
   27SAPC   H3X 3621   2.425   0.722   6.458 -0.9104  1.0981 -1.6243
   27SAPC   H3Y 3622   2.545   0.849   6.412 -2.3695  1.4897  0.6292
   27SAPC   C34 3623   2.632   0.648   6.448 -0.5839  0.0478  0.2209
   27SAPC   H4X 3624   2.661   0.663   6.554  1.4270  0.8399 -0.3780
   27SAPC   H4Y 3625   2.732   0.654   6.399  0.8520  0.6308  3.0124
   27SAPC   C35 3626   2.595   0.502   6.454  0.1466  0.0776  0.5644
   27SAPC   H5X 3627   2.582   0.451   6.356 -2.9428 -1.7178  1.7391
   27SAPC   H5Y 3628   2.496   0.496   6.505  0.6450  0.2350  1.5721
   27SAPC   C36 3629   2.708   0.418   6.516  0.2103 -0.0561 -0.0149
   27SAPC   H6X 3630   2.731   0.440   6.623 -1.9709  0.3907  0.3978
   27SAPC   H6Y 3631   2.800   0.457   6.466 -0.5262 -0.2368 -1.5480
   27SAPC   C37 3632   2.703   0.266   6.486 -0.4003  0.4403  1.0382
   27SAPC   H7X 3633   2.800   0.216   6.466 -0.5580  0.3998  0.3447
   27SAPC   H7Y 3634   2.652   0.241   6.390 -0.6356  4.2497  0.0313
   27SAPC   C38 3635   2.639   0.184   6.598 -0.2422  0.4611  0.1425
   27SAPC   H8X 3636   2.538   0.222   6.626  0.2868  0.6336  1.9584
   27SAPC   H8Y 3637   2.704   0.188   6.688 -0.0020 -3.0539  0.2612
   27SAPC   C39 3638   2.612   0.037   6.566  0.1737 -0.1260 -0.0563
   27SAPC   H9X 3639   2.709  -0.017   6.558  0.7412  0.9283 -0.5303
   27SAPC   H9Y 3640   2.548   0.044   6.475 -0.1873  0.7361  0.2559
   27SAPC  C310 3641   2.519  -0.018   6.671  0.2959  0.4017 -0.2824
   27SAPC  H10X 3642   2.422   0.036   6.673 -1.3248 -2.2036  3.1722
   27SAPC  H10Y 3643   2.558  -0.004   6.774 -1.2594  2.0985  0.1261
   27SAPC  C311 3644   2.503  -0.169   6.651  0.0832 -0.1968 -0.3818
   27SAPC  H11X 3645   2.604  -0.214   6.666  0.1672 -0.2711 -1.1325
   27SAPC  H11Y 3646   2.486  -0.199   6.545  0.3267 -0.6147 -0.3062
   27SAPC  C312 3647   2.402  -0.233   6.744 -0.2584  0.5013  0.3487
   27SAPC  H12X 3648   2.302  -0.187   6.731  0.1444  1.4157  0.3509
   27SAPC  H12Y 3649   2.431  -0.202   6.847  1.7678  0.5885 -0.2095
   27SAPC  C313 3650   2.404  -0.386   6.734  0.4492 -0.4346 -0.3740
   27SAPC  H13X 3651   2.510  -0.419   6.724  1.2296  1.9153 -0.4623
   27SAPC  H13Y 3652   2.365  -0.419   6.635  3.3702  0.3729 -1.9306
   27SAPC  C314 3653   2.335  -0.452   6.854 -0.8965 -0.5434  0.6159
   27SAPC  H14X 3654   2.310  -0.558   6.832 -1.2327 -0.7846  2.0454
   27SAPC  H14Y 3655   2.243  -0.390   6.863 -0.3796  0.0375  2.2176
   27SAPC  C315 3656   2.415  -0.443   6.981 -0.0046 -0.0695  0.2772
   27SAPC  H15X 3657   2.466  -0.344   6.978 -0.2791  0.1291  1.6213
   27SAPC  H15Y 3658   2.492  -0.523   6.986  1.0577  0.8456 -0.6713
   27SAPC  C316 3659   2.330  -0.442   7.113  0.3183  0.4217  0.7075
   27SAPC  H16X 3660   2.287  -0.544   7.118 -1.8811  1.2934  0.6586
   27SAPC  H16Y 3661   2.253  -0.362   7.099 -0.8976 -0.9066 -0.5757
   27SAPC  C317 3662   2.403  -0.412   7.244  0.4605 -0.1489  0.6030
   27SAPC  H17X 3663   2.480  -0.491   7.256  1.4406  0.6744 -0.0907
   27SAPC  H17Y 3664   2.337  -0.430   7.332 -0.2250 -1.6853 -0.1908
   27SAPC  C318 3665   2.465  -0.272   7.248  0.2966  0.5985 -0.0392
   27SAPC  H18X 3666   2.570  -0.268   7.212  0.2750 -2.3309 -0.6583
   27SAPC  H18Y 3667   2.455  -0.236   7.353 -1.2586  0.6534 -0.1857
   27SAPC  H18Z 3668   2.398  -0.206   7.190 -3.3486 -0.3598  2.6879
   28SAPC     N 3669   6.987   4.099   5.569  0.1945 -0.3033  0.4035
   28SAPC   C12 3670   7.050   4.041   5.698 -0.3061  0.4337  0.4550
   28SAPC  H12A 3671   6.993   3.954   5.728 -0.4260  0.2880 -0.1789
   28SAPC  H12B 3672   7.034   4.116   5.773  0.8066  1.0772  0.0810
   28SAPC   C13 3673   6.846   4.137   5.588  0.2469  0.4412 -0.1562
   28SAPC  H13A 3674   6.785   4.049   5.602  0.6347  0.3397  1.0640
   28SAPC  H13B 3675   6.840   4.217   5.661 -1.8378 -0.0189  0.2523
   28SAPC  H13C 3676   6.810   4.175   5.494 -1.7733 -1.6961 -0.3367
   28SAPC   C14 3677   7.067   4.216   5.516 -0.1192  0.0105 -0.5801
   28SAPC  H14A 3678   7.154   4.186   5.459 -0.7199  1.3294 -2.2638
   28SAPC  H14B 3679   7.017   4.275   5.441 -0.4481 -1.2691 -1.3925
   28SAPC  H14C 3680   7.117   4.279   5.588 -0.2737  1.0928 -1.3825
   28SAPC   C15 3681   6.995   4.001   5.464 -0.0966  0.1672  0.8094
   28SAPC  H15A 3682   6.932   3.914   5.476  1.7276 -1.2883  0.2372
   28SAPC  H15B 3683   6.969   4.042   5.367  1.6172 -0.4641  0.0392
   28SAPC  H15C 3684   7.097   3.965   5.455  0.8162  2.1517  2.5274
   28SAPC   C11 3685   7.205   4.002   5.700  0.0164  0.3998 -0.2100
   28SAPC  H11A 3686   7.225   3.982   5.807 -0.1381 -0.1843 -0.2901
   28SAPC  H11B 3687   7.273   4.082   5.663 -0.0194  0.5652  0.0777
   28SAPC     P 3688   7.217   3.732   5.672  0.1698  0.1046 -0.3329
   28SAPC   O13 3689   7.079   3.711   5.716 -0.0662 -0.3291  0.3058
   28SAPC   O14 3690   7.264   3.659   5.554 -0.0668  0.1951  0.1631
   28SAPC   O12 3691   7.237   3.881   5.622  0.4865  0.2010  0.2921
   28SAPC   O11 3692   7.318   3.710   5.795 -0.6381 -0.1747 -0.1893
   28SAPC    C1 3693   7.449   3.765   5.783 -0.2596  0.7178 -0.0630
   28SAPC    HA 3694   7.452   3.847   5.708 -0.8645 -0.0618 -0.9673
   28SAPC    HB 3695   7.494   3.803   5.877  0.6400  1.5002 -0.7838
   28SAPC    C2 3696   7.548   3.655   5.731  0.2577  0.1500  0.3715
   28SAPC    HS 3697   7.508   3.612   5.636  0.6557  2.5402 -0.9725
   28SAPC   O21 3698   7.563   3.555   5.834  0.0799 -0.7884 -0.0214
   28SAPC   C21 3699   7.609   3.441   5.792 -0.1576 -0.3322  0.3187
   28SAPC   O22 3700   7.612   3.410   5.674 -0.6385  0.3045  0.0202
   28SAPC   C22 3701   7.663   3.363   5.915 -0.7337  0.5968  0.7275
   28SAPC   H2R 3702   7.730   3.429   5.974 -0.1049 -0.4781  1.2418
   28SAPC   H2S 3703   7.577   3.334   5.980 -1.0536 -2.1294 -0.7517
   28SAPC    C3 3704   7.684   3.711   5.692 -0.4686 -0.5877 -0.2591
   28SAPC    HX 3705   7.659   3.779   5.608 -0.1957 -0.1730 -0.0100
   28SAPC    HY 3706   7.755   3.641   5.643  2.4049  2.8394 -1.4102
   28SAPC   O31 3707   7.751   3.781   5.793 -0.2283 -0.4280 -0.0571
   28SAPC   C31 3708   7.844   3.709   5.866 -0.2074  0.2950  0.1534
   28SAPC   O32 3709   7.895   3.608   5.833  0.1869  0.5867  0.9239
   28SAPC   C32 3710   7.878   3.782   6.002  0.1390 -0.4377  0.2650
   28SAPC   H2X 3711   7.836   3.885   6.001  1.2432  0.0227 -0.2461
   28SAPC   H2Y 3712   7.989   3.784   6.003  0.1820 -1.8302  1.3427
   28SAPC   C23 3713   7.726   3.229   5.869  0.0439  0.1642 -0.4667
   28SAPC   H3R 3714   7.804   3.253   5.794 -0.6120 -0.1493 -1.2566
   28SAPC   H3S 3715   7.641   3.172   5.827 -0.6255  0.8699 -0.1003
   28SAPC   C24 3716   7.795   3.143   5.982 -0.8318  0.0351 -0.0452
   28SAPC   H4R 3717   7.839   3.052   5.935 -2.3900 -1.2880  0.9421
   28SAPC   H4S 3718   7.883   3.197   6.024  0.6159 -3.2441  1.4677
   28SAPC   C25 3719   7.698   3.113   6.096  0.2242 -0.9316  0.4433
   28SAPC   H5R 3720   7.602   3.078   6.056  1.1642 -1.4387 -1.5167
   28SAPC   C26 3721   7.712   3.134   6.229 -0.1404 -0.0507 -0.2800
   28SAPC   H6R 3722   7.626   3.098   6.287  0.5260 -1.8187 -0.3436
   28SAPC   C27 3723   7.843   3.176   6.302  0.0965  0.5454 -0.8940
   28SAPC   H7R 3724   7.915   3.210   6.225  1.5830 -2.1939 -0.8425
   28SAPC   H7S 3725   7.900   3.093   6.349  1.2360  1.4870 -0.5755
   28SAPC   C28 3726   7.828   3.278   6.408  0.3356 -0.4151  0.1419
   28SAPC   H8R 3727   7.804   3.381   6.376  0.5225 -0.4114  0.0179
   28SAPC   C29 3728   7.841   3.266   6.545  0.4948  0.6553  0.5209
   28SAPC   H9R 3729   7.823   3.350   6.613  0.9062  1.3433 -0.2028
   28SAPC  C210 3730   7.888   3.144   6.625  0.5474  1.0205 -0.0886
   28SAPC  H10R 3731   7.995   3.149   6.653  0.4619 -1.5817  0.9674
   28SAPC  H10S 3732   7.894   3.047   6.572 -0.1103  0.1878  1.3138
   28SAPC  C211 3733   7.806   3.131   6.752  0.0961 -0.8644 -0.0376
   28SAPC  H11R 3734   7.718   3.066   6.747  0.9895 -2.0412 -1.0146
   28SAPC  C212 3735   7.819   3.212   6.865  0.2519 -0.3199  0.0873
   28SAPC  H12R 3736   7.743   3.209   6.944  1.2342  0.9521  1.1118
   28SAPC  C213 3737   7.921   3.320   6.894 -0.4860 -0.4961 -0.6290
   28SAPC  H13R 3738   7.865   3.415   6.881 -0.6419 -0.4377  0.4199
   28SAPC  H13S 3739   7.994   3.320   6.810  1.6936 -2.2465  1.1410
   28SAPC  C214 3740   7.987   3.305   7.026  0.8933  0.7330 -0.6590
   28SAPC  H14R 3741   7.917   3.314   7.110  0.4161  1.4035 -1.1237
   28SAPC  C215 3742   8.115   3.272   7.049  0.0884 -0.0352  1.1707
   28SAPC  H15R 3743   8.146   3.248   7.151  0.9064 -0.5684  0.8082
   28SAPC  C216 3744   8.222   3.252   6.941  0.8526  0.0772 -0.4131
   28SAPC  H16R 3745   8.324   3.270   6.982  0.4831 -2.6313  2.0685
   28SAPC  H16S 3746   8.212   3.308   6.846 -1.1591  0.4790 -0.0211
   28SAPC  C217 3747   8.224   3.098   6.891 -0.5863 -0.5647  0.3389
   28SAPC  H17R 3748   8.306   3.081   6.818  1.1885 -2.6719  2.6177
   28SAPC  H17S 3749   8.127   3.094   6.837 -0.7323  0.2566  0.5333
   28SAPC  C218 3750   8.230   2.999   7.006 -0.3395 -0.2064  0.6042
   28SAPC  H18R 3751   8.163   3.032   7.089  0.4237  1.0615  0.7379
   28SAPC  H18S 3752   8.331   3.007   7.051 -0.5274  0.2025  0.9607
   28SAPC  C219 3753   8.202   2.853   6.967  0.1541 -0.1382 -0.2602
   28SAPC  H19R 3754   8.246   2.831   6.868  0.2520 -1.3777  0.0441
   28SAPC  H19S 3755   8.092   2.837   6.973  0.0472  0.7134  0.3501
   28SAPC  C220 3756   8.263   2.749   7.063 -0.1762  0.0899  0.1030
   28SAPC  H20R 3757   8.371   2.768   7.079  0.1524 -0.6388 -1.0743
   28SAPC  H20S 3758   8.260   2.650   7.012 -1.5456  0.9759 -1.6323
   28SAPC  H20T 3759   8.211   2.729   7.159 -1.4478  1.1864 -0.3256
   28SAPC   C33 3760   7.808   3.714   6.118  0.1319  0.2890 -0.1124
   28SAPC   H3X 3761   7.824   3.604   6.120  1.7960  0.5202  1.4903
   28SAPC   H3Y 3762   7.700   3.739   6.103  0.1577 -0.3257 -1.5205
   28SAPC   C34 3763   7.850   3.769   6.257 -0.3401 -0.4351 -0.0602
   28SAPC   H4X 3764   7.837   3.879   6.255  0.6272 -0.2856  0.5861
   28SAPC   H4Y 3765   7.956   3.742   6.277 -0.4370 -0.9773 -0.2739
   28SAPC   C35 3766   7.764   3.721   6.368 -0.3402  0.0345  0.4821
   28SAPC   H5X 3767   7.718   3.623   6.344  1.0046 -1.1417  2.4792
   28SAPC   H5Y 3768   7.685   3.799   6.381  0.9405  2.3025 -3.5768
   28SAPC   C36 3769   7.850   3.711   6.498  0.0088  0.0443  0.4106
   28SAPC   H6X 3770   7.889   3.809   6.532 -2.4586  0.6769  1.6822
   28SAPC   H6Y 3771   7.939   3.649   6.473 -1.8024 -1.4874 -2.8865
   28SAPC   C37 3772   7.776   3.633   6.611  0.2543 -0.1218  0.1338
   28SAPC   H7X 3773   7.837   3.621   6.703 -1.3363  0.2449  1.2931
   28SAPC   H7Y 3774   7.759   3.535   6.562  1.9478  1.0309 -3.0059
   28SAPC   C38 3775   7.649   3.706   6.651  0.1049 -0.0104  0.2470
   28SAPC   H8X 3776   7.581   3.704   6.563  1.7403  0.8769 -1.1159
   28SAPC   H8Y 3777   7.666   3.813   6.677 -0.9147  0.3979 -0.6902
   28SAPC   C39 3778   7.575   3.640   6.769 -0.1294 -0.7216 -0.2324
   28SAPC   H9X 3779   7.565   3.529   6.762 -2.7000 -0.6545  1.1345
   28SAPC   H9Y 3780   7.471   3.680   6.770  0.3257  0.4917  0.8198
   28SAPC  C310 3781   7.637   3.662   6.911 -0.8671 -0.4546  0.7220
   28SAPC  H10X 3782   7.746   3.642   6.899 -0.4916  2.4900 -2.1312
   28SAPC  H10Y 3783   7.592   3.585   6.978 -0.2615 -1.0676  0.4365
   28SAPC  C311 3784   7.615   3.798   6.976  0.2745 -0.7078 -0.1861
   28SAPC  H11X 3785   7.510   3.831   6.970 -0.3373 -2.3511  0.8601
   28SAPC  H11Y 3786   7.675   3.872   6.918  0.6324 -2.2740 -1.9166
   28SAPC  C312 3787   7.666   3.798   7.127 -0.0471 -1.0449 -0.0329
   28SAPC  H12X 3788   7.633   3.706   7.181  0.3320 -1.5859 -0.7076
   28SAPC  H12Y 3789   7.615   3.881   7.179 -0.8231 -2.1208  0.9711
   28SAPC  C313 3790   7.822   3.817   7.143 -0.0298 -0.1080  0.4309
   28SAPC  H13X 3791   7.838   3.908   7.082 -2.5594  0.3115  0.2746
   28SAPC  H13Y 3792   7.873   3.727   7.103 -0.0432  0.4323 -0.8300
   28SAPC  C314 3793   7.873   3.838   7.290 -0.7830 -0.4582 -0.2494
   28SAPC  H14X 3794   7.785   3.842   7.357 -1.8103  1.3085 -1.6095
   28SAPC  H14Y 3795   7.936   3.928   7.302 -1.5682 -0.0948  1.3356
   28SAPC  C315 3796   7.960   3.721   7.352  1.0600 -0.6172  0.0371
   28SAPC  H15X 3797   8.014   3.670   7.269  0.1600 -1.1680 -0.2149
   28SAPC  H15Y 3798   7.894   3.641   7.389 -0.4733  0.9134  0.7366
   28SAPC  C316 3799   8.050   3.765   7.475  0.3479  0.2737 -0.0858
   28SAPC  H16X 3800   8.097   3.674   7.519 -1.1274 -0.2388  0.5007
   28SAPC  H16Y 3801   7.970   3.817   7.533 -1.6437 -0.3534 -2.1019
   28SAPC  C317 3802   8.170   3.850   7.430  0.4869 -0.2169  0.2940
   28SAPC  H17X 3803   8.241   3.854   7.516 -1.1087  0.2999  1.6488
   28SAPC  H17Y 3804   8.133   3.952   7.409 -0.5675 -0.8651 -1.1239
   28SAPC  C318 3805   8.245   3.806   7.310  0.0925  0.6652 -0.2329
   28SAPC  H18X 3806   8.186   3.797   7.217  1.5592 -1.6315 -1.0451
   28SAPC  H18Y 3807   8.298   3.711   7.332 -0.5086  0.2832 -0.4100
   28SAPC  H18Z 3808   8.327   3.879   7.291 -0.5647  1.2563 -0.8581
   29SAPC     N 3809   2.933   0.067   5.849 -0.5483 -0.4492 -0.3841
   29SAPC   C12 3810   3.028   0.182   5.897  0.7301  0.4245 -0.3212
   29SAPC  H12A 3811   3.023   0.177   6.005  0.8031 -3.2617 -0.3522
   29SAPC  H12B 3812   2.972   0.273   5.881 -0.6955  0.3325  3.3095
   29SAPC   C13 3813   2.916   0.069   5.698 -0.4145  1.0632 -0.2508
   29SAPC  H13A 3814   2.848  -0.007   5.662  1.7357  0.5687 -3.7359
   29SAPC  H13B 3815   2.888   0.171   5.672  0.9380  1.4454 -0.2855
   29SAPC  H13C 3816   3.008   0.034   5.655 -0.9800 -1.2013  0.2765
   29SAPC   C14 3817   2.990  -0.055   5.901 -0.5779  0.0537 -0.0035
   29SAPC  H14A 3818   2.932  -0.145   5.888  0.1378 -0.5610  0.9366
   29SAPC  H14B 3819   3.094  -0.071   5.874 -0.7480 -0.2864 -0.4759
   29SAPC  H14C 3820   2.981  -0.047   6.008  1.4094 -0.3756  0.2283
   29SAPC   C15 3821   2.801   0.089   5.910  0.5438 -0.1849 -0.1236
   29SAPC  H15A 3822   2.768   0.182   5.866  2.1878  0.7755  0.5806
   29SAPC  H15B 3823   2.732   0.011   5.886  1.3638 -0.5346 -1.4554
   29SAPC  H15C 3824   2.799   0.103   6.017 -2.1252  0.1276 -0.1405
   29SAPC   C11 3825   3.169   0.201   5.857 -0.4166  0.4486 -0.3696
   29SAPC  H11A 3826   3.202   0.283   5.924  2.7037  0.9015 -2.2778
   29SAPC  H11B 3827   3.175   0.236   5.751 -2.7245 -1.3671 -1.1911
   29SAPC     P 3828   3.398   0.097   5.903 -0.5584  0.2479 -0.0125
   29SAPC   O13 3829   3.466   0.008   5.806 -0.5220 -0.2716 -0.4998
   29SAPC   O14 3830   3.435   0.238   5.906  0.5767  0.9123 -0.1275
   29SAPC   O12 3831   3.246   0.082   5.883  0.0304  0.0248 -0.1312
   29SAPC   O11 3832   3.417   0.048   6.051  0.2931 -0.2179  0.6836
   29SAPC    C1 3833   3.328   0.106   6.150 -0.5220  1.1351 -0.2852
   29SAPC    HA 3834   3.231   0.149   6.115 -1.7666  0.1908  1.7663
   29SAPC    HB 3835   3.307   0.020   6.218  1.4498 -0.7620 -1.9127
   29SAPC    C2 3836   3.395   0.218   6.238  0.3743 -0.9122  0.2532
   29SAPC    HS 3837   3.416   0.305   6.172 -0.6565 -0.1626  0.8884
   29SAPC   O21 3838   3.523   0.164   6.293  0.2010 -0.2031  0.5499
   29SAPC   C21 3839   3.601   0.262   6.342 -0.0704 -0.5715 -0.2266
   29SAPC   O22 3840   3.569   0.381   6.336 -0.5781 -0.6853  0.4584
   29SAPC   C22 3841   3.732   0.201   6.403 -0.4535  0.1093  0.1266
   29SAPC   H2R 3842   3.814   0.188   6.329 -2.1661 -0.5004 -1.7667
   29SAPC   H2S 3843   3.769   0.263   6.487  1.1223 -1.6747  0.8122
   29SAPC    C3 3844   3.291   0.270   6.350 -1.0095 -0.0874  0.0529
   29SAPC    HX 3845   3.190   0.290   6.309 -1.1150 -1.1303 -0.2365
   29SAPC    HY 3846   3.324   0.370   6.386  2.3772 -0.2496 -2.1154
   29SAPC   O31 3847   3.284   0.181   6.470 -0.1239  0.5675 -0.1913
   29SAPC   C31 3848   3.193   0.076   6.468  0.3043 -0.3698  0.3286
   29SAPC   O32 3849   3.129   0.045   6.373  0.1505 -0.6115 -0.1353
   29SAPC   C32 3850   3.162   0.017   6.607 -0.1447  0.9975  0.4038
   29SAPC   H2X 3851   3.242   0.048   6.677 -0.2400  0.9001  0.5569
   29SAPC   H2Y 3852   3.170  -0.093   6.590  0.0213  0.9929  0.5110
   29SAPC   C23 3853   3.702   0.063   6.472  0.0413  0.3644  0.1739
   29SAPC   H3R 3854   3.803   0.031   6.508 -0.3326  1.3059  2.1850
   29SAPC   H3S 3855   3.659  -0.004   6.395 -0.9766  0.7463  0.3939
   29SAPC   C24 3856   3.627   0.089   6.600 -0.1069  0.7842  0.1054
   29SAPC   H4R 3857   3.527   0.133   6.579 -0.1107 -0.0907 -1.9635
   29SAPC   H4S 3858   3.696   0.152   6.661  1.5641 -1.1919  0.3936
   29SAPC   C25 3859   3.607  -0.029   6.687  0.2676 -0.5323 -0.3108
   29SAPC   H5R 3860   3.642  -0.129   6.655  0.7473 -1.0989  1.8223
   29SAPC   C26 3861   3.549  -0.027   6.808 -0.4534 -0.2986  0.3040
   29SAPC   H6R 3862   3.538  -0.118   6.869  1.3704 -0.7416  0.0381
   29SAPC   C27 3863   3.491   0.100   6.873 -0.5037  0.3593 -0.0708
   29SAPC   H7R 3864   3.392   0.116   6.825  0.3747 -1.2236 -2.6035
   29SAPC   H7S 3865   3.546   0.194   6.852 -0.4530  0.1314 -0.9736
   29SAPC   C28 3866   3.478   0.089   7.018  0.1547 -0.1973 -0.4558
   29SAPC   H8R 3867   3.552   0.027   7.071 -1.0103  0.2919  1.8856
   29SAPC   C29 3868   3.379   0.130   7.096 -0.3598 -0.2166  0.1138
   29SAPC   H9R 3869   3.378   0.108   7.204 -3.7576  0.3036  0.3139
   29SAPC  C210 3870   3.258   0.214   7.046 -0.0188 -0.5014  0.3528
   29SAPC  H10R 3871   3.255   0.211   6.935 -1.8735  1.5066  0.2683
   29SAPC  H10S 3872   3.274   0.323   7.065  0.9480 -0.2212 -1.8609
   29SAPC  C211 3873   3.122   0.160   7.089 -0.1971 -0.0225  0.0432
   29SAPC  H11R 3874   3.125   0.053   7.115  0.6379 -0.2019 -0.7574
   29SAPC  C212 3875   3.005   0.233   7.089 -0.0967 -0.7070  0.7077
   29SAPC  H12R 3876   2.912   0.179   7.109 -1.6740  1.1550 -1.0879
   29SAPC  C213 3877   2.988   0.380   7.046  0.1616 -0.5478 -0.2269
   29SAPC  H13R 3878   3.087   0.428   7.029  0.4677 -0.5654  1.3481
   29SAPC  H13S 3879   2.947   0.433   7.135  1.1285 -0.2318  0.0429
   29SAPC  C214 3880   2.909   0.402   6.925  0.5853 -0.5807 -0.3386
   29SAPC  H14R 3881   2.960   0.374   6.832  1.0621  0.1626 -0.3077
   29SAPC  C215 3882   2.780   0.450   6.918 -0.0405 -0.1049 -0.3057
   29SAPC  H15R 3883   2.739   0.469   6.817 -2.5001  0.0909  0.6702
   29SAPC  C216 3884   2.691   0.498   7.032 -0.1610 -0.1443  0.0374
   29SAPC  H16R 3885   2.749   0.490   7.126 -1.2113 -0.4431  0.6675
   29SAPC  H16S 3886   2.598   0.441   7.049  1.0192 -2.2064 -0.1012
   29SAPC  C217 3887   2.645   0.649   7.010 -0.7947 -0.1200 -0.6247
   29SAPC  H17R 3888   2.734   0.715   7.006  0.6825 -1.8500  1.2571
   29SAPC  H17S 3889   2.577   0.665   7.096  0.3236 -1.0462  0.4669
   29SAPC  C218 3890   2.562   0.669   6.890 -0.4151  0.0786  0.5095
   29SAPC  H18R 3891   2.528   0.573   6.844  0.2960 -0.4661  1.1162
   29SAPC  H18S 3892   2.620   0.720   6.810 -1.4301  1.0918  0.3899
   29SAPC  C219 3893   2.430   0.748   6.894 -0.7391 -0.1757 -0.6617
   29SAPC  H19R 3894   2.380   0.679   6.965 -1.3797  1.4111  0.4847
   29SAPC  H19S 3895   2.385   0.751   6.792 -0.7834  1.7425 -0.6318
   29SAPC  C220 3896   2.447   0.887   6.951 -0.4722  0.6482  0.7023
   29SAPC  H20R 3897   2.469   0.961   6.871 -1.7555  1.3832  0.9948
   29SAPC  H20S 3898   2.525   0.887   7.031  1.9746 -2.1464 -1.4305
   29SAPC  H20T 3899   2.349   0.916   6.994 -1.5977 -2.0448  0.1674
   29SAPC   C33 3900   3.026   0.061   6.661 -0.1213  0.8748  0.0103
   29SAPC   H3X 3901   2.944   0.042   6.588 -0.1027  3.7856 -0.8717
   29SAPC   H3Y 3902   3.030   0.167   6.693  0.0561  0.4969  1.2934
   29SAPC   C34 3903   2.993  -0.006   6.794  0.4102 -0.3084 -0.2141
   29SAPC   H4X 3904   2.921   0.052   6.856  0.8610 -0.3903  0.3942
   29SAPC   H4Y 3905   3.083   0.009   6.857  0.1153  4.1479 -0.4748
   29SAPC   C35 3906   2.949  -0.152   6.779  0.9642  0.7107 -0.7352
   29SAPC   H5X 3907   3.018  -0.214   6.718 -0.0903  0.3313 -1.5535
   29SAPC   H5Y 3908   2.850  -0.159   6.730 -1.4722 -0.2024  3.7110
   29SAPC   C36 3909   2.928  -0.221   6.915 -0.0130  0.0284 -0.1789
   29SAPC   H6X 3910   2.888  -0.324   6.902 -0.4809  0.3719 -1.7279
   29SAPC   H6Y 3911   2.849  -0.165   6.971 -1.6244 -3.2550  1.0782
   29SAPC   C37 3912   3.062  -0.228   6.995  0.6742  0.0764 -0.1800
   29SAPC   H7X 3913   3.107  -0.128   7.013 -0.6556  0.5732  0.5463
   29SAPC   H7Y 3914   3.131  -0.286   6.929 -0.9636 -2.0740 -0.1303
   29SAPC   C38 3915   3.039  -0.304   7.130  0.3944 -0.0735 -0.1066
   29SAPC   H8X 3916   2.980  -0.399   7.129 -2.2987  1.4928 -0.8884
   29SAPC   H8Y 3917   2.980  -0.240   7.199  0.3225 -0.7126  0.4329
   29SAPC   C39 3918   3.170  -0.337   7.206  0.5359 -0.8447 -0.5300
   29SAPC   H9X 3919   3.241  -0.397   7.146  1.6506  0.3239 -0.4174
   29SAPC   H9Y 3920   3.137  -0.392   7.297  1.5599  0.2876  0.5660
   29SAPC  C310 3921   3.246  -0.212   7.254 -0.5246 -0.3296  0.1977
   29SAPC  H10X 3922   3.169  -0.161   7.316 -1.3583 -1.6645  0.3304
   29SAPC  H10Y 3923   3.284  -0.148   7.172 -2.5074  0.5125 -0.1249
   29SAPC  C311 3924   3.354  -0.252   7.362 -0.8280 -0.2591  0.2596
   29SAPC  H11X 3925   3.417  -0.325   7.308 -0.1179 -0.1242  0.8858
   29SAPC  H11Y 3926   3.307  -0.292   7.454  0.7356 -1.3220  0.6220
   29SAPC  C312 3927   3.442  -0.138   7.422 -0.5509  0.1812  0.4528
   29SAPC  H12X 3928   3.472  -0.071   7.339 -2.4101  2.1311  1.2451
   29SAPC  H12Y 3929   3.527  -0.187   7.474 -1.4325 -0.1662  1.6263
   29SAPC  C313 3930   3.373  -0.046   7.521  0.5338 -0.2037 -0.6297
   29SAPC  H13X 3931   3.323  -0.098   7.606 -2.0027  1.0527 -1.2446
   29SAPC  H13Y 3932   3.280  -0.009   7.472  0.4575 -0.5946 -0.7841
   29SAPC  C314 3933   3.465   0.063   7.571 -0.2567 -0.8419  0.0520
   29SAPC  H14X 3934   3.389   0.138   7.603  0.5801  0.1945 -0.3408
   29SAPC  H14Y 3935   3.524   0.107   7.488 -2.3149  0.7684 -0.6511
   29SAPC  C315 3936   3.553   0.031   7.691 -0.5217  0.1579  0.0074
   29SAPC  H15X 3937   3.619  -0.056   7.670  0.9871  1.1478  0.4739
   29SAPC  H15Y 3938   3.484   0.003   7.773  0.7940 -1.6976  0.5476
   29SAPC  C316 3939   3.634   0.146   7.747 -0.8119  0.6054  0.1283
   29SAPC  H16X 3940   3.683   0.200   7.663 -1.2680  3.2578  1.4693
   29SAPC  H16Y 3941   3.715   0.107   7.812 -2.0952  0.3295  1.6352
   29SAPC  C317 3942   3.555   0.250   7.820 -0.1295 -0.3643 -0.8094
   29SAPC  H17X 3943   3.454   0.266   7.776 -1.1207  0.6408  1.6494
   29SAPC  H17Y 3944   3.607   0.348   7.816  0.8167 -0.6831  1.8198
   29SAPC  C318 3945   3.527   0.222   7.963  0.1423 -0.0959  0.1141
   29SAPC  H18X 3946   3.468   0.130   7.983 -0.6035  0.2808 -0.3225
   29SAPC  H18Y 3947   3.477   0.307   8.016 -2.2201 -1.9505  1.0429
   29SAPC  H18Z 3948   3.625   0.209   8.014  0.9400  0.0938 -1.3362
   30SAPC     N 3949   5.354   6.852   5.294  0.7125  0.2436  0.0051
   30SAPC   C12 3950   5.257   6.917   5.398 -0.1030  0.0757 -0.2763
   30SAPC  H12A 3951   5.162   6.940   5.352 -1.8585 -2.0207  2.0323
   30SAPC  H12B 3952   5.305   7.008   5.428  1.8274 -1.5110  1.8292
   30SAPC   C13 3953   5.301   6.728   5.242 -0.0404 -0.3150  0.3200
   30SAPC  H13A 3954   5.219   6.734   5.172  1.0900  0.2534 -1.0163
   30SAPC  H13B 3955   5.381   6.674   5.194 -0.6587 -2.4674  1.5664
   30SAPC  H13C 3956   5.280   6.658   5.321  2.1788  1.2660  2.4481
   30SAPC   C14 3957   5.370   6.954   5.184  0.5964  0.0098 -0.0133
   30SAPC  H14A 3958   5.285   6.934   5.121 -0.2692  0.5476  0.9509
   30SAPC  H14B 3959   5.368   7.058   5.212  0.5201  0.1413 -0.5142
   30SAPC  H14C 3960   5.449   6.929   5.116  0.1921 -3.3668  0.5665
   30SAPC   C15 3961   5.486   6.822   5.350 -0.0034 -0.0281 -0.0302
   30SAPC  H15A 3962   5.474   6.745   5.424  0.3218 -1.6188 -1.5517
   30SAPC  H15B 3963   5.554   6.786   5.273  1.4962  1.1456  0.6936
   30SAPC  H15C 3964   5.528   6.915   5.383 -0.4674  0.9575 -2.0046
   30SAPC   C11 3965   5.228   6.844   5.524  0.2828  0.2707  0.2160
   30SAPC  H11A 3966   5.178   6.915   5.594  1.6524  0.2944  1.1971
   30SAPC  H11B 3967   5.321   6.814   5.576  0.3044  0.8769  0.5372
   30SAPC     P 3968   4.992   6.735   5.465 -0.0845  0.0103 -0.0309
   30SAPC   O13 3969   4.961   6.883   5.446 -0.4143  0.3611 -0.4316
   30SAPC   O14 3970   4.964   6.638   5.356 -0.0258  0.0376  0.2096
   30SAPC   O12 3971   5.145   6.726   5.497 -0.2713  0.3718 -0.0261
   30SAPC   O11 3972   4.918   6.681   5.597 -0.2227 -0.7230  0.2879
   30SAPC    C1 3973   4.932   6.754   5.724 -0.4442  0.4943 -0.1391
   30SAPC    HA 3974   4.966   6.859   5.710  1.2278  0.0766  0.5728
   30SAPC    HB 3975   4.829   6.763   5.766  0.2494 -0.1165  1.7665
   30SAPC    C2 3976   5.029   6.683   5.822  0.0234  0.2092  0.2652
   30SAPC    HS 3977   5.132   6.672   5.780  0.4744 -2.4643  1.8256
   30SAPC   O21 3978   4.976   6.558   5.860 -0.5914  0.2194  0.0569
   30SAPC   C21 3979   5.034   6.463   5.802 -0.6570  0.4932  0.8787
   30SAPC   O22 3980   5.127   6.468   5.727  0.0338 -0.5136  0.8562
   30SAPC   C22 3981   4.967   6.339   5.849  0.0177  0.0477 -0.8573
   30SAPC   H2R 3982   4.862   6.352   5.883 -0.1707 -0.1749 -1.3492
   30SAPC   H2S 3983   4.969   6.259   5.772 -0.8376  0.1009 -0.9438
   30SAPC    C3 3984   5.033   6.766   5.960 -0.2377  0.4484  0.2619
   30SAPC    HX 3985   5.117   6.725   6.020  0.6534  1.0446 -0.5342
   30SAPC    HY 3986   4.935   6.747   6.006  0.4269 -1.1558  1.0808
   30SAPC   O31 3987   5.041   6.911   5.947  0.1477  0.1914 -0.4411
   30SAPC   C31 3988   5.159   6.961   5.921 -0.0793  0.7159  0.7895
   30SAPC   O32 3989   5.263   6.892   5.932  0.0446  0.3187 -0.4780
   30SAPC   C32 3990   5.152   7.108   5.891 -0.2176  0.3966 -0.0542
   30SAPC   H2X 3991   5.045   7.138   5.900 -0.7656 -1.2842 -0.6454
   30SAPC   H2Y 3992   5.170   7.122   5.782  0.2200  1.6684  0.1579
   30SAPC   C23 3993   5.042   6.272   5.971 -0.8882 -0.1289 -0.2084
   30SAPC   H3R 3994   5.150   6.269   5.943 -0.8937 -1.1042 -0.1646
   30SAPC   H3S 3995   5.019   6.165   5.985  0.3830 -0.3198  0.6457
   30SAPC   C24 3996   5.010   6.331   6.105 -0.2152 -0.1439 -0.4220
   30SAPC   H4R 3997   5.015   6.442   6.104  0.7036 -0.1746 -1.8900
   30SAPC   H4S 3998   5.089   6.285   6.168  0.3914  2.4891  0.8741
   30SAPC   C25 3999   4.869   6.295   6.152  0.4895  0.2679 -1.0784
   30SAPC   H5R 4000   4.829   6.204   6.106  1.8759 -1.3894  0.8402
   30SAPC   C26 4001   4.814   6.344   6.268 -0.1274  0.3917 -0.0736
   30SAPC   H6R 4002   4.719   6.294   6.291 -0.1206 -0.1478 -1.1444
   30SAPC   C27 4003   4.881   6.438   6.360 -0.5968  0.4378  0.3220
   30SAPC   H7R 4004   4.959   6.493   6.303 -0.4103 -0.1969 -0.0348
   30SAPC   H7S 4005   4.936   6.373   6.431 -0.2558  0.8840  0.4671
   30SAPC   C28 4006   4.778   6.540   6.419  0.4902 -0.8481 -0.3005
   30SAPC   H8R 4007   4.677   6.497   6.432  0.3576  0.2466  3.2689
   30SAPC   C29 4008   4.807   6.659   6.462 -0.8272 -0.6777  0.1306
   30SAPC   H9R 4009   4.732   6.720   6.514  1.1059  0.0010  2.3139
   30SAPC  C210 4010   4.938   6.736   6.454  0.2778  0.2361 -0.1035
   30SAPC  H10R 4011   5.020   6.669   6.488 -0.1031  0.4251  1.2428
   30SAPC  H10S 4012   4.929   6.821   6.526  2.8941 -0.4758  1.1633
   30SAPC  C211 4013   4.963   6.792   6.322  0.5694  0.4931 -0.7985
   30SAPC  H11R 4014   4.894   6.750   6.248  0.2420  1.1258 -0.8576
   30SAPC  C212 4015   5.063   6.876   6.295  0.3700 -0.3572  0.2265
   30SAPC  H12R 4016   5.056   6.925   6.196 -1.8040  1.1548  1.0580
   30SAPC  C213 4017   5.173   6.929   6.383 -0.2938 -0.0272  0.2543
   30SAPC  H13R 4018   5.268   6.927   6.325 -1.5462 -0.7934 -1.8888
   30SAPC  H13S 4019   5.192   6.850   6.460  2.2749  0.2225 -0.0329
   30SAPC  C214 4020   5.143   7.067   6.429 -0.2693 -0.0137  0.7874
   30SAPC  H14R 4021   5.061   7.111   6.369  0.8138  1.5292  0.3933
   30SAPC  C215 4022   5.183   7.124   6.545  0.7288  0.1704  0.0807
   30SAPC  H15R 4023   5.127   7.218   6.563  0.4800  0.4966 -2.1262
   30SAPC  C216 4024   5.276   7.070   6.650  0.1838  0.1245 -0.0479
   30SAPC  H16R 4025   5.361   7.142   6.655 -0.5445  1.0214 -0.2036
   30SAPC  H16S 4026   5.309   6.969   6.620 -2.7413 -1.0743  0.4132
   30SAPC  C217 4027   5.212   7.069   6.782 -0.7866  0.2332  0.7333
   30SAPC  H17R 4028   5.132   6.993   6.773 -1.5354  1.1480 -0.7391
   30SAPC  H17S 4029   5.177   7.173   6.799 -1.3640  0.5508 -1.8710
   30SAPC  C218 4030   5.312   7.030   6.885  0.5956 -0.1490  0.4553
   30SAPC  H18R 4031   5.406   7.085   6.862 -1.4877  2.4827 -2.7372
   30SAPC  H18S 4032   5.330   6.921   6.881 -0.6913 -0.3363 -1.2160
   30SAPC  C219 4033   5.260   7.061   7.025  0.8428  0.2596  0.4448
   30SAPC  H19R 4034   5.182   6.988   7.055  0.1962 -0.0227 -1.7126
   30SAPC  H19S 4035   5.220   7.165   7.018  0.9130  0.2002 -1.3857
   30SAPC  C220 4036   5.373   7.069   7.133  0.4462  0.6227  0.2451
   30SAPC  H20R 4037   5.454   7.130   7.088  0.1981  1.6589  1.1673
   30SAPC  H20S 4038   5.411   6.965   7.144 -0.6405  0.0827 -0.9982
   30SAPC  H20T 4039   5.334   7.103   7.232  0.7914  1.1585  0.2009
   30SAPC   C33 4040   5.255   7.199   5.955  0.1862 -0.1277  0.9595
   30SAPC   H3X 4041   5.246   7.297   5.904  1.0334 -0.6642 -0.2724
   30SAPC   H3Y 4042   5.357   7.161   5.934 -0.5822 -1.7467  0.0063
   30SAPC   C34 4043   5.221   7.236   6.100  0.4778  0.2866  0.2265
   30SAPC   H4X 4044   5.202   7.141   6.154 -2.3542  1.1563  0.9248
   30SAPC   H4Y 4045   5.129   7.299   6.103 -0.2455 -0.2638 -3.9283
   30SAPC   C35 4046   5.338   7.317   6.160  0.6923 -0.5591  0.7648
   30SAPC   H5X 4047   5.299   7.372   6.249  1.2248  0.9217  0.1242
   30SAPC   H5Y 4048   5.374   7.394   6.088 -1.1396 -0.0750  0.2880
   30SAPC   C36 4049   5.460   7.230   6.188  0.5100 -0.4623  0.3536
   30SAPC   H6X 4050   5.500   7.203   6.088 -1.0716 -0.0897 -0.4108
   30SAPC   H6Y 4051   5.423   7.141   6.245 -1.5710 -0.0094 -0.1954
   30SAPC   C37 4052   5.552   7.300   6.283  0.6123 -0.7112  0.1537
   30SAPC   H7X 4053   5.577   7.403   6.248 -0.7080 -0.3852  0.1310
   30SAPC   H7Y 4054   5.646   7.241   6.277  0.3085 -1.4341  2.0433
   30SAPC   C38 4055   5.506   7.310   6.428 -0.6540  0.6394 -0.3466
   30SAPC   H8X 4056   5.499   7.207   6.470 -1.6722  0.3955 -1.0607
   30SAPC   H8Y 4057   5.401   7.345   6.437 -1.5797 -2.1374  0.8543
   30SAPC   C39 4058   5.582   7.397   6.525 -0.2619  0.5753 -0.2629
   30SAPC   H9X 4059   5.593   7.503   6.492 -1.8090  0.4890 -1.1857
   30SAPC   H9Y 4060   5.684   7.353   6.530  0.1502  1.2108 -2.1702
   30SAPC  C310 4061   5.520   7.403   6.659  0.3427 -0.5632 -0.4013
   30SAPC  H10X 4062   5.494   7.305   6.706 -0.7672  0.6058  1.5602
   30SAPC  H10Y 4063   5.422   7.454   6.650 -0.0093 -1.6099 -3.2201
   30SAPC  C311 4064   5.613   7.472   6.759  0.0419 -0.6026 -0.1431
   30SAPC  H11X 4065   5.642   7.566   6.706 -1.5305  1.2917  2.1801
   30SAPC  H11Y 4066   5.703   7.412   6.787  0.7210  0.7536  0.6865
   30SAPC  C312 4067   5.550   7.506   6.897  0.3575  0.3363  0.2202
   30SAPC  H12X 4068   5.442   7.519   6.877  0.0408 -1.0722  0.8764
   30SAPC  H12Y 4069   5.595   7.599   6.939 -0.1865  0.2970  0.9027
   30SAPC  C313 4070   5.548   7.392   7.000  0.1029  0.1304  0.0850
   30SAPC  H13X 4071   5.651   7.352   6.997  0.6884  1.5363  0.7443
   30SAPC  H13Y 4072   5.491   7.303   6.964  1.9731  0.4521 -4.3831
   30SAPC  C314 4073   5.519   7.439   7.141  0.0111 -0.0300 -0.4727
   30SAPC  H14X 4074   5.468   7.356   7.196  0.6760  0.5720  1.1182
   30SAPC  H14Y 4075   5.450   7.526   7.137 -0.9313 -0.6166  1.4454
   30SAPC  C315 4076   5.649   7.447   7.236  0.6213  0.0495 -0.1484
   30SAPC  H15X 4077   5.725   7.501   7.176  0.2313  0.8362  0.0621
   30SAPC  H15Y 4078   5.683   7.345   7.264  2.3467  1.4683  3.4702
   30SAPC  C316 4079   5.618   7.518   7.367  0.5334  0.3684 -0.2912
   30SAPC  H16X 4080   5.557   7.460   7.439 -0.6826  0.4530 -1.2133
   30SAPC  H16Y 4081   5.565   7.612   7.340  0.1313  0.1604 -0.2398
   30SAPC  C317 4082   5.744   7.564   7.440  0.3427 -0.0185  0.1243
   30SAPC  H17X 4083   5.814   7.478   7.440 -0.1177 -0.4029  1.2104
   30SAPC  H17Y 4084   5.723   7.578   7.548 -0.3712  2.9853 -0.3258
   30SAPC  C318 4085   5.806   7.685   7.381 -0.2303  0.2477  0.5054
   30SAPC  H18X 4086   5.894   7.718   7.439  0.2302 -0.7494  0.3911
   30SAPC  H18Y 4087   5.731   7.767   7.376 -0.8657 -0.2955  0.8391
   30SAPC  H18Z 4088   5.841   7.661   7.278 -2.3238 -1.4887  0.1256
   31SAPC     N 4089   0.303   1.905   5.623 -0.2183  0.2167 -0.2767
   31SAPC   C12 4090   0.158   1.879   5.627 -0.7785  0.2419 -0.2537
   31SAPC  H12A 4091   0.135   1.817   5.542  0.5506 -0.5244 -0.0888
   31SAPC  H12B 4092   0.112   1.971   5.594  1.7684  1.4595 -0.6720
   31SAPC   C13 4093   0.341   1.982   5.506 -0.7134  0.2584 -0.7686
   31SAPC  H13A 4094   0.289   2.075   5.491  0.7676  1.5538  1.4845
   31SAPC  H13B 4095   0.447   2.003   5.516 -1.0051  0.7010  2.6860
   31SAPC  H13C 4096   0.323   1.920   5.420 -0.3395 -1.5968  0.4287
   31SAPC   C14 4097   0.340   1.995   5.746 -0.1215 -0.2315 -0.1380
   31SAPC  H14A 4098   0.445   2.022   5.740 -0.7706  2.2898 -1.3545
   31SAPC  H14B 4099   0.280   2.084   5.750 -0.0963 -0.2408  0.5841
   31SAPC  H14C 4100   0.325   1.937   5.836 -1.1385  0.5463  0.2034
   31SAPC   C15 4101   0.387   1.780   5.633  0.2279 -0.7768  0.4919
   31SAPC  H15A 4102   0.376   1.712   5.550 -0.5311  0.2847 -0.2987
   31SAPC  H15B 4103   0.490   1.801   5.653  1.0082 -2.2767 -1.5864
   31SAPC  H15C 4104   0.357   1.724   5.721 -0.4281 -0.4500  0.4859
   31SAPC   C11 4105   0.097   1.814   5.759  0.8773  0.3019 -0.3416
   31SAPC  H11A 4106  -0.013   1.801   5.758  1.0200 -1.1475 -0.0461
   31SAPC  H11B 4107   0.125   1.884   5.840 -1.1994 -0.8020  1.4111
   31SAPC     P 4108   0.078   1.551   5.741  0.0690  0.0272  0.1113
   31SAPC   O13 4109   0.046   1.574   5.600  0.5835 -0.2583  0.2005
   31SAPC   O14 4110   0.166   1.431   5.773 -0.0503 -0.2374  0.7372
   31SAPC   O12 4111   0.149   1.683   5.791  0.4408 -0.1448 -0.1082
   31SAPC   O11 4112  -0.053   1.539   5.829 -0.3457  0.2503  0.1997
   31SAPC    C1 4113  -0.036   1.554   5.972  0.3240  0.1928  0.6470
   31SAPC    HA 4114   0.042   1.627   6.002  0.8244 -0.2643  0.4712
   31SAPC    HB 4115  -0.132   1.581   6.021  1.1043  2.5589  0.9712
   31SAPC    C2 4116   0.007   1.415   6.043  0.3711 -0.6334  0.3032
   31SAPC    HS 4117   0.092   1.372   5.987  0.5435  0.4823 -0.3040
   31SAPC   O21 4118  -0.105   1.327   6.032  0.3219  0.5548  0.6700
   31SAPC   C21 4119  -0.073   1.201   6.013 -0.5426 -0.3004  0.1155
   31SAPC   O22 4120   0.040   1.155   6.006 -0.3080 -0.1262  0.1348
   31SAPC   C22 4121  -0.202   1.116   5.994 -0.0652  0.2383  0.3425
   31SAPC   H2R 4122  -0.284   1.180   5.954 -3.1620 -3.2225  0.6729
   31SAPC   H2S 4123  -0.191   1.041   5.913  1.1386 -1.3822  1.9455
   31SAPC    C3 4124   0.048   1.443   6.182 -0.3871 -0.0130 -0.3170
   31SAPC    HX 4125   0.150   1.485   6.164 -0.1784 -0.7279 -0.8890
   31SAPC    HY 4126   0.058   1.357   6.252 -0.3981 -0.2720 -0.6267
   31SAPC   O31 4127  -0.032   1.547   6.245 -0.3985 -0.4085  0.2607
   31SAPC   C31 4128  -0.144   1.507   6.305  0.0070 -0.4007  0.0023
   31SAPC   O32 4129  -0.184   1.390   6.312 -0.1860  0.0714  0.4272
   31SAPC   C32 4130  -0.218   1.631   6.369  0.0387  0.1516  0.3713
   31SAPC   H2X 4131  -0.270   1.686   6.287  0.9459  1.2980  0.5404
   31SAPC   H2Y 4132  -0.145   1.703   6.412  0.6366  0.3570 -0.9514
   31SAPC   C23 4133  -0.249   1.058   6.129  0.8494 -0.1807 -0.4046
   31SAPC   H3R 4134  -0.337   0.990   6.130  0.2947  0.5338 -0.1224
   31SAPC   H3S 4135  -0.284   1.154   6.172  1.4187  0.2029 -0.7828
   31SAPC   C24 4136  -0.149   0.992   6.214  0.1239 -0.3645 -0.0280
   31SAPC   H4R 4137  -0.209   0.961   6.303 -2.7574 -0.0024 -1.6989
   31SAPC   H4S 4138  -0.074   1.063   6.255  1.3355 -0.3102 -2.2074
   31SAPC   C25 4139  -0.086   0.876   6.150  0.2864 -0.2403 -0.4763
   31SAPC   H5R 4140  -0.138   0.841   6.060  0.7380  1.4014 -1.4164
   31SAPC   C26 4141   0.029   0.814   6.181  0.5019 -0.1235  0.5309
   31SAPC   H6R 4142   0.072   0.730   6.125  2.4866  0.2393  1.4219
   31SAPC   C27 4143   0.110   0.865   6.302  0.7033 -0.5408  0.4761
   31SAPC   H7R 4144   0.086   0.802   6.390 -3.0164 -0.3266 -0.2512
   31SAPC   H7S 4145   0.067   0.963   6.329  0.1280 -0.5450 -0.3823
   31SAPC   C28 4146   0.258   0.855   6.285  0.9863  0.3567 -0.2575
   31SAPC   H8R 4147   0.296   0.754   6.307  1.0786 -0.2327 -2.8058
   31SAPC   C29 4148   0.348   0.955   6.266  0.3270  0.1847 -0.0183
   31SAPC   H9R 4149   0.451   0.925   6.287 -0.0833  0.6040  3.1063
   31SAPC  C210 4150   0.315   1.103   6.259  0.0399  0.1300 -0.5179
   31SAPC  H10R 4151   0.225   1.112   6.324  1.0481  0.3356  0.8990
   31SAPC  H10S 4152   0.290   1.135   6.156 -1.4964  0.4454 -0.0780
   31SAPC  C211 4153   0.428   1.186   6.324  0.7254  0.1774 -0.4352
   31SAPC  H11R 4154   0.528   1.164   6.283  0.6771  0.0550 -0.4871
   31SAPC  C212 4155   0.411   1.283   6.420  0.6953 -0.5900  0.0896
   31SAPC  H12R 4156   0.501   1.325   6.467  1.0430  0.9350 -1.7986
   31SAPC  C213 4157   0.283   1.342   6.468 -1.2105 -0.1177 -0.2492
   31SAPC  H13R 4158   0.196   1.283   6.434 -2.5670  0.7778  1.4907
   31SAPC  H13S 4159   0.298   1.448   6.436  1.7641  0.1732  1.7342
   31SAPC  C214 4160   0.250   1.342   6.614  0.1140  0.2657 -0.1475
   31SAPC  H14R 4161   0.288   1.253   6.666 -0.8040  0.0293  0.1261
   31SAPC  C215 4162   0.163   1.419   6.684  0.0833 -0.4557  0.8678
   31SAPC  H15R 4163   0.174   1.409   6.793 -0.6761 -0.6517  0.9365
   31SAPC  C216 4164   0.072   1.528   6.634 -0.7249 -0.1690  0.3234
   31SAPC  H16R 4165  -0.032   1.497   6.656 -0.8044  1.4791  2.6767
   31SAPC  H16S 4166   0.087   1.539   6.525 -0.7125 -0.2397  0.3181
   31SAPC  C217 4167   0.096   1.671   6.692 -0.4993 -0.4333 -0.4578
   31SAPC  H17R 4168   0.157   1.736   6.626 -3.6415 -0.0490 -3.2347
   31SAPC  H17S 4169   0.150   1.660   6.789 -0.4563  2.9839  0.0433
   31SAPC  C218 4170  -0.035   1.748   6.715  0.1573 -0.0496 -0.6425
   31SAPC  H18R 4171  -0.076   1.678   6.791  0.5725 -0.6405 -0.9492
   31SAPC  H18S 4172  -0.117   1.754   6.640 -0.9150  0.7127  0.5666
   31SAPC  C219 4173  -0.006   1.887   6.786  0.6058 -0.1307  0.0510
   31SAPC  H19R 4174   0.036   1.960   6.713  0.5479  0.4292  0.5769
   31SAPC  H19S 4175   0.074   1.865   6.859  0.4224  2.7691  1.2384
   31SAPC  C220 4176  -0.132   1.938   6.853  0.2267  0.2346  0.4190
   31SAPC  H20R 4177  -0.118   2.014   6.933 -2.4424  1.0584  0.2102
   31SAPC  H20S 4178  -0.178   1.848   6.899  2.2363 -0.3808  1.3211
   31SAPC  H20T 4179  -0.202   1.978   6.776 -0.3431 -0.4746  0.5585
   31SAPC   C33 4180  -0.314   1.583   6.487 -0.4533  0.5299 -0.0982
   31SAPC   H3X 4181  -0.252   1.533   6.564  1.4887 -0.5610 -2.2489
   31SAPC   H3Y 4182  -0.380   1.499   6.457 -0.2068  0.6822 -1.1055
   31SAPC   C34 4183  -0.409   1.687   6.547 -0.2107 -0.0603 -0.3641
   31SAPC   H4X 4184  -0.472   1.731   6.467 -1.6809  1.8749  1.7215
   31SAPC   H4Y 4185  -0.342   1.768   6.585  0.5395 -0.8562  0.0556
   31SAPC   C35 4186  -0.482   1.633   6.673 -0.1899  0.3483  0.6053
   31SAPC   H5X 4187  -0.418   1.562   6.729  2.1118 -0.7318 -2.9904
   31SAPC   H5Y 4188  -0.561   1.558   6.648  0.4044 -0.0681 -0.0682
   31SAPC   C36 4189  -0.567   1.734   6.756  0.3403 -0.7820  0.7758
   31SAPC   H6X 4190  -0.628   1.688   6.837  1.3833  1.6431  3.0960
   31SAPC   H6Y 4191  -0.628   1.799   6.689 -0.1660 -2.2246 -0.2019
   31SAPC   C37 4192  -0.457   1.811   6.836  0.1002  0.9142 -0.1430
   31SAPC   H7X 4193  -0.412   1.886   6.768 -1.7380  1.3363 -0.9685
   31SAPC   H7Y 4194  -0.383   1.731   6.857 -0.1809  0.6798 -0.0363
   31SAPC   C38 4195  -0.519   1.868   6.970  0.0994 -0.2636  0.3245
   31SAPC   H8X 4196  -0.614   1.914   6.934 -0.4327 -0.5834  1.2929
   31SAPC   H8Y 4197  -0.452   1.949   7.007  0.0953 -0.1899  0.1722
   31SAPC   C39 4198  -0.555   1.767   7.078 -0.4254 -0.3267  0.3285
   31SAPC   H9X 4199  -0.635   1.699   7.042 -1.6269  1.8777 -1.4929
   31SAPC   H9Y 4200  -0.581   1.818   7.173  1.2206  1.7494 -0.2485
   31SAPC  C310 4201  -0.433   1.685   7.116 -0.4032  0.3781 -1.1009
   31SAPC  H10X 4202  -0.383   1.631   7.034  0.5850 -2.2525  1.0804
   31SAPC  H10Y 4203  -0.457   1.607   7.191 -0.1060  0.1176 -1.2755
   31SAPC  C311 4204  -0.321   1.769   7.188 -0.0566 -0.4692  1.0754
   31SAPC  H11X 4205  -0.376   1.851   7.239  0.4355  0.9668 -0.6122
   31SAPC  H11Y 4206  -0.257   1.823   7.116 -0.6273  1.0882  1.6896
   31SAPC  C312 4207  -0.236   1.697   7.294  0.5392 -0.1583  0.1379
   31SAPC  H12X 4208  -0.283   1.663   7.388  1.5378  2.0870  1.5371
   31SAPC  H12Y 4209  -0.161   1.769   7.334  1.2669 -0.8066 -0.0228
   31SAPC  C313 4210  -0.161   1.577   7.232 -0.1006  0.2107  0.0378
   31SAPC  H13X 4211  -0.112   1.609   7.138  0.7153 -1.3776 -0.1119
   31SAPC  H13Y 4212  -0.231   1.491   7.224  0.8745 -0.7932  1.7061
   31SAPC  C314 4213  -0.042   1.525   7.316 -0.5603 -0.0217 -0.2317
   31SAPC  H14X 4214   0.032   1.599   7.351 -0.4723 -0.4905  0.5915
   31SAPC  H14Y 4215   0.024   1.463   7.252 -1.0192  0.3538 -1.0889
   31SAPC  C315 4216  -0.080   1.437   7.441  0.2829  0.2427  0.0260
   31SAPC  H15X 4217  -0.143   1.356   7.399 -0.0075 -0.5275  1.8541
   31SAPC  H15Y 4218  -0.140   1.502   7.509  0.8187 -0.4042  1.1471
   31SAPC  C316 4219   0.027   1.370   7.525 -0.5470  0.4491 -0.5103
   31SAPC  H16X 4220  -0.029   1.314   7.603 -0.0985  1.3941  0.5167
   31SAPC  H16Y 4221   0.098   1.427   7.589  0.0297 -0.7762 -0.0165
   31SAPC  C317 4222   0.112   1.276   7.441  0.1865 -0.2517  0.0282
   31SAPC  H17X 4223   0.188   1.330   7.380  0.4395 -0.7720 -0.1217
   31SAPC  H17Y 4224   0.044   1.223   7.371 -0.0892 -1.1840  0.9851
   31SAPC  C318 4225   0.183   1.169   7.521  0.0572 -0.6546  0.0757
   31SAPC  H18X 4226   0.218   1.215   7.616 -0.4578  0.8937 -0.4595
   31SAPC  H18Y 4227   0.270   1.133   7.462  0.8690  1.8795 -0.4176
   31SAPC  H18Z 4228   0.118   1.080   7.536 -0.1023 -0.3546  1.1799
   32SAPC     N 4229   0.234   0.985   5.734  0.6367 -0.0256  0.0934
   32SAPC   C12 4230   0.195   0.912   5.866  0.2715  0.6409  0.1956
   32SAPC  H12A 4231   0.089   0.893   5.863  0.2485  0.5348  1.2610
   32SAPC  H12B 4232   0.206   0.981   5.948  1.0883  1.4330 -0.5545
   32SAPC   C13 4233   0.141   1.102   5.711  0.2195  0.2089 -0.0080
   32SAPC  H13A 4234   0.042   1.084   5.673 -0.8527  4.2255  0.4765
   32SAPC  H13B 4235   0.123   1.160   5.800  0.5592 -0.1522  0.3009
   32SAPC  H13C 4236   0.183   1.171   5.639 -0.7229 -1.3600 -2.1891
   32SAPC   C14 4237   0.380   1.027   5.742 -0.3715 -0.3749  0.3027
   32SAPC  H14A 4238   0.415   1.069   5.649  0.7090  0.3875  1.0370
   32SAPC  H14B 4239   0.391   1.103   5.818  0.0496  2.2678 -2.2143
   32SAPC  H14C 4240   0.452   0.950   5.764  1.1534  1.5001  2.4134
   32SAPC   C15 4241   0.209   0.885   5.620 -0.1412  0.6576  0.1433
   32SAPC  H15A 4242   0.107   0.849   5.629  0.0242 -0.0944 -0.8369
   32SAPC  H15B 4243   0.217   0.932   5.524  1.9983  2.3555  1.0834
   32SAPC  H15C 4244   0.271   0.797   5.634 -1.5208 -0.5631 -1.0771
   32SAPC   C11 4245   0.273   0.784   5.888  0.2455 -0.3230 -0.0256
   32SAPC  H11A 4246   0.254   0.756   5.994  0.8817  2.0896  0.7991
   32SAPC  H11B 4247   0.383   0.800   5.878  0.0410 -0.1415 -2.6502
   32SAPC     P 4248   0.087   0.613   5.814  0.5284  0.0574  0.3766
   32SAPC   O13 4249  -0.015   0.711   5.778 -0.1485 -0.5668 -0.4327
   32SAPC   O14 4250   0.096   0.499   5.726  0.5825 -0.5362  0.1175
   32SAPC   O12 4251   0.233   0.667   5.815 -0.4255 -0.3080  0.0764
   32SAPC   O11 4252   0.072   0.560   5.959 -0.6438  0.8181  0.3026
   32SAPC    C1 4253   0.145   0.459   6.019  0.2673 -0.0004  0.1445
   32SAPC    HA 4254   0.217   0.418   5.945  0.0471  0.4254 -0.3117
   32SAPC    HB 4255   0.202   0.500   6.105 -0.2355 -1.4661  1.2146
   32SAPC    C2 4256   0.053   0.340   6.064  0.7245  0.7710 -0.3502
   32SAPC    HS 4257  -0.018   0.315   5.982 -2.8811  1.8236  2.1840
   32SAPC   O21 4258  -0.014   0.386   6.183  0.3165 -0.6233  0.5927
   32SAPC   C21 4259  -0.119   0.460   6.158  0.5611  0.0356  0.9128
   32SAPC   O22 4260  -0.171   0.488   6.050  0.2528 -0.5376  0.8499
   32SAPC   C22 4261  -0.153   0.533   6.287 -0.0851  0.2950  0.5714
   32SAPC   H2R 4262  -0.160   0.453   6.364  0.3177 -0.7649 -0.4742
   32SAPC   H2S 4263  -0.073   0.608   6.305 -0.6234  1.2432 -0.7871
   32SAPC    C3 4264   0.136   0.211   6.093 -0.8547  0.3523 -0.1684
   32SAPC    HX 4265   0.155   0.176   5.989 -2.1740 -0.7198 -0.0734
   32SAPC    HY 4266   0.075   0.140   6.153 -0.1274 -0.0287  0.1369
   32SAPC   O31 4267   0.255   0.238   6.172 -0.3842 -0.0540 -0.2879
   32SAPC   C31 4268   0.373   0.203   6.117 -0.6770  0.6044  0.0569
   32SAPC   O32 4269   0.384   0.170   5.999  0.3112 -0.7324 -0.2724
   32SAPC   C32 4270   0.492   0.205   6.200  0.2629 -0.4773  0.3680
   32SAPC   H2X 4271   0.560   0.121   6.173  0.5853  0.2535 -1.2105
   32SAPC   H2Y 4272   0.458   0.187   6.304  2.2941 -1.1354  0.9739
   32SAPC   C23 4273  -0.289   0.603   6.272  0.5932  0.2851  0.4861
   32SAPC   H3R 4274  -0.372   0.534   6.248  2.7782 -2.0348 -0.9825
   32SAPC   H3S 4275  -0.287   0.670   6.183  0.7931 -1.5658 -0.9602
   32SAPC   C24 4276  -0.327   0.665   6.409 -0.7042 -0.2542  0.1930
   32SAPC   H4R 4277  -0.430   0.705   6.398 -0.6007  0.0753  0.3802
   32SAPC   H4S 4278  -0.258   0.752   6.421  0.3959 -1.2351  1.3076
   32SAPC   C25 4279  -0.316   0.582   6.532 -0.2941 -0.1097  0.3084
   32SAPC   H5R 4280  -0.389   0.500   6.530 -1.2499  0.7420 -1.1220
   32SAPC   C26 4281  -0.222   0.600   6.628 -0.4716 -0.3031 -0.9221
   32SAPC   H6R 4282  -0.223   0.538   6.718  0.1272 -1.7407 -1.8564
   32SAPC   C27 4283  -0.119   0.714   6.621  0.3139 -1.1382 -0.2796
   32SAPC   H7R 4284  -0.164   0.814   6.637  1.1023 -1.0599  1.7054
   32SAPC   H7S 4285  -0.070   0.721   6.522 -0.9769  0.7003 -0.8275
   32SAPC   C28 4286  -0.010   0.709   6.728  0.4724  0.4833  0.0581
   32SAPC   H8R 4287  -0.026   0.765   6.821  1.9085  0.2563  0.4700
   32SAPC   C29 4288   0.121   0.665   6.713  0.1026 -0.4269  0.6354
   32SAPC   H9R 4289   0.185   0.673   6.802  0.8253 -2.0725  0.2866
   32SAPC  C210 4290   0.177   0.613   6.581 -0.8355  0.2789  0.6183
   32SAPC  H10R 4291   0.235   0.702   6.547 -1.8034  0.9169  0.5860
   32SAPC  H10S 4292   0.106   0.575   6.505  1.1359 -3.4416  0.4296
   32SAPC  C211 4293   0.275   0.507   6.599  0.9415  0.6428  0.0146
   32SAPC  H11R 4294   0.384   0.523   6.590  0.8968  1.0656  0.2240
   32SAPC  C212 4295   0.249   0.378   6.622  0.0387  0.1897 -0.0291
   32SAPC  H12R 4296   0.328   0.302   6.622  0.2544  0.4082  0.8272
   32SAPC  C213 4297   0.109   0.319   6.644 -0.1630  0.2359 -0.1589
   32SAPC  H13R 4298   0.041   0.399   6.679  0.6167  0.2449  1.4121
   32SAPC  H13S 4299   0.088   0.233   6.712 -1.1185 -1.0759 -2.0086
   32SAPC  C214 4300   0.062   0.266   6.513 -0.4064  0.2659 -0.1055
   32SAPC  H14R 4301  -0.001   0.330   6.450  0.0680  0.3261 -0.5299
   32SAPC  C215 4302   0.069   0.141   6.464  0.3947 -0.4596 -0.3319
   32SAPC  H15R 4303   0.036   0.128   6.360  1.7448  2.3110 -1.2197
   32SAPC  C216 4304   0.132   0.017   6.521  0.3965  0.1798 -0.1730
   32SAPC  H16R 4305   0.176   0.043   6.620 -2.1405 -2.4834  1.8213
   32SAPC  H16S 4306   0.212  -0.022   6.454  1.7084  0.5229  1.1245
   32SAPC  C217 4307   0.030  -0.095   6.543  0.2636 -0.0658 -0.8095
   32SAPC  H17R 4308  -0.021  -0.115   6.447 -0.3328  2.6125 -1.1242
   32SAPC  H17S 4309  -0.053  -0.066   6.612 -1.5347 -1.0208 -2.4828
   32SAPC  C218 4310   0.096  -0.222   6.594  0.1501 -0.8308 -0.4441
   32SAPC  H18R 4311   0.196  -0.197   6.635 -0.4111  0.6675  0.1200
   32SAPC  H18S 4312   0.123  -0.287   6.509 -0.7478 -1.6102 -0.1590
   32SAPC  C219 4313   0.009  -0.304   6.689 -0.3865 -0.4663  0.9331
   32SAPC  H19R 4314  -0.014  -0.248   6.782  0.4291  0.7428  0.4217
   32SAPC  H19S 4315   0.075  -0.390   6.715  0.9086 -0.7262 -2.6368
   32SAPC  C220 4316  -0.114  -0.366   6.615  0.1451 -0.0209 -0.0066
   32SAPC  H20R 4317  -0.177  -0.420   6.689 -0.4356 -0.7465 -1.0073
   32SAPC  H20S 4318  -0.077  -0.428   6.530 -0.1216 -1.6440  1.0029
   32SAPC  H20T 4319  -0.158  -0.278   6.565 -0.4269 -0.1734  0.2144
   32SAPC   C33 4320   0.562   0.344   6.187  0.0575  0.5566  0.9510
   32SAPC   H3X 4321   0.590   0.357   6.080  0.7767 -0.0814  1.0550
   32SAPC   H3Y 4322   0.651   0.321   6.250 -0.2137 -0.6075  0.9253
   32SAPC   C34 4323   0.488   0.457   6.255  0.5477 -0.1988  0.3240
   32SAPC   H4X 4324   0.457   0.435   6.360  2.7612  0.5771  1.2029
   32SAPC   H4Y 4325   0.401   0.487   6.193  1.1138 -0.7049 -0.7320
   32SAPC   C35 4326   0.570   0.586   6.247  0.0221  0.0950 -0.2717
   32SAPC   H5X 4327   0.498   0.658   6.291 -0.4851 -1.4970  1.6608
   32SAPC   H5Y 4328   0.604   0.624   6.148  0.6402  1.2912  0.3800
   32SAPC   C36 4329   0.696   0.581   6.335 -0.0719 -0.5138 -0.5565
   32SAPC   H6X 4330   0.766   0.506   6.294  1.5797 -0.3233  1.6899
   32SAPC   H6Y 4331   0.656   0.549   6.434  0.7217  0.3541  0.0715
   32SAPC   C37 4332   0.780   0.717   6.360  0.0605  0.8729  0.0068
   32SAPC   H7X 4333   0.729   0.806   6.317  0.7933  0.2514 -2.3104
   32SAPC   H7Y 4334   0.874   0.699   6.303 -0.8585  0.3592 -1.4080
   32SAPC   C38 4335   0.806   0.745   6.511 -0.6323 -0.1424 -0.2937
   32SAPC   H8X 4336   0.885   0.822   6.500 -1.2244  0.3401 -1.2744
   32SAPC   H8Y 4337   0.856   0.652   6.545  0.5560  1.3925  2.4301
   32SAPC   C39 4338   0.688   0.782   6.599  0.3603 -0.1612 -0.2291
   32SAPC   H9X 4339   0.732   0.808   6.698 -0.8465 -1.5550  0.7202
   32SAPC   H9Y 4340   0.607   0.708   6.614  2.6062 -2.7599 -0.2310
   32SAPC  C310 4341   0.620   0.914   6.550  0.3402  0.0488 -0.3837
   32SAPC  H10X 4342   0.571   0.895   6.452  2.0441 -2.4252 -0.8408
   32SAPC  H10Y 4343   0.703   0.987   6.534 -1.3333  1.8876 -1.0959
   32SAPC  C311 4344   0.529   0.990   6.654  0.1532  1.0281 -0.4002
   32SAPC  H11X 4345   0.470   1.068   6.601 -0.5796 -0.5800 -2.0465
   32SAPC  H11Y 4346   0.598   1.033   6.730 -0.7429  1.8261 -0.0236
   32SAPC  C312 4347   0.420   0.900   6.721 -0.0254 -0.7285 -0.0135
   32SAPC  H12X 4348   0.462   0.825   6.792 -0.7353 -1.7225 -0.6200
   32SAPC  H12Y 4349   0.358   0.845   6.647 -0.2186 -2.2782  1.2514
   32SAPC  C313 4350   0.315   0.978   6.802  0.5311  0.3239  0.2196
   32SAPC  H13X 4351   0.232   0.914   6.839  2.8693 -1.1958  3.3340
   32SAPC  H13Y 4352   0.274   1.062   6.743 -0.1689 -1.0757 -1.3718
   32SAPC  C314 4353   0.379   1.036   6.924 -0.2558 -0.1866  0.0102
   32SAPC  H14X 4354   0.441   1.123   6.892 -1.6818  0.2539 -1.7564
   32SAPC  H14Y 4355   0.453   0.965   6.965  0.3182 -0.2480 -1.0937
   32SAPC  C315 4356   0.279   1.069   7.031  0.2042 -0.7814 -0.2863
   32SAPC  H15X 4357   0.248   0.971   7.072 -1.6785 -0.6752 -1.3325
   32SAPC  H15Y 4358   0.193   1.131   6.997 -0.4287 -1.2498  0.4256
   32SAPC  C316 4359   0.342   1.141   7.153 -0.2919  0.4527 -0.3151
   32SAPC  H16X 4360   0.274   1.157   7.238  0.2040  4.1616 -0.4679
   32SAPC  H16Y 4361   0.360   1.248   7.129  0.3785  0.4501  0.1378
   32SAPC  C317 4362   0.471   1.065   7.192  0.7686 -0.6696  0.4395
   32SAPC  H17X 4363   0.551   1.076   7.117  1.5264 -1.1937  1.1586
   32SAPC  H17Y 4364   0.440   0.958   7.186 -1.3628 -0.1652  1.2885
   32SAPC  C318 4365   0.527   1.113   7.325 -0.1987  0.0508 -0.4759
   32SAPC  H18X 4366   0.461   1.082   7.409  0.0418 -0.9125 -0.6340
   32SAPC  H18Y 4367   0.553   1.221   7.324  0.3226 -0.0581  0.3725
   32SAPC  H18Z 4368   0.619   1.056   7.351 -1.5192 -1.6226  0.7584
   33POPC     N 4369   3.824   2.863   9.455 -0.8204  0.0815 -0.5992
   33POPC   C12 4370   3.782   2.986   9.521 -0.5358  0.0430  0.2789
   33POPC  H12A 4371   3.872   3.036   9.553 -0.0967 -1.0056  0.7083
   33POPC  H12B 4372   3.730   2.972   9.615  0.1851 -0.8475  0.5524
   33POPC   C13 4373   3.703   2.790   9.406  0.0495  0.5408 -0.0358
   33POPC  H13A 4374   3.656   2.724   9.477 -0.6333  0.5170 -0.5039
   33POPC  H13B 4375   3.636   2.850   9.346  1.6449  0.6873 -1.8052
   33POPC  H13C 4376   3.737   2.720   9.330 -1.5458 -0.7885  0.4096
   33POPC   C14 4377   3.921   2.895   9.341  0.3034  0.0972 -0.0967
   33POPC  H14A 4378   4.013   2.938   9.377  1.3779 -1.4245 -0.9074
   33POPC  H14B 4379   3.936   2.801   9.290  2.1999  0.3977 -0.1795
   33POPC  H14C 4380   3.879   2.965   9.271  2.9804  1.0410 -0.8860
   33POPC   C15 4381   3.908   2.773   9.544  0.7012 -0.4400  0.2159
   33POPC  H15A 4382   3.943   2.679   9.504  0.3515 -0.3065 -0.4076
   33POPC  H15B 4383   3.853   2.753   9.635  1.2015  1.0781  0.8886
   33POPC  H15C 4384   3.999   2.825   9.568  0.6881  0.2719 -1.2037
   33POPC   C11 4385   3.701   3.078   9.431  0.4977  0.1617  0.1459
   33POPC  H11A 4386   3.603   3.028   9.421  0.9785 -0.9738  0.9178
   33POPC  H11B 4387   3.745   3.095   9.330 -0.4956  0.8765 -0.1819
   33POPC     P 4388   3.754   3.317   9.531 -0.0982  0.3670 -0.0550
   33POPC   O13 4389   3.798   3.322   9.671  0.5256 -0.1811  0.6530
   33POPC   O14 4390   3.690   3.438   9.470  0.1752  0.3317  0.2117
   33POPC   O12 4391   3.669   3.188   9.505 -0.6463 -0.8970  0.1292
   33POPC   O11 4392   3.876   3.277   9.445 -0.0647 -0.4056 -0.3937
   33POPC    C1 4393   3.922   3.376   9.353 -0.3021  0.3504 -0.7762
   33POPC    HA 4394   3.845   3.447   9.316  0.6772  1.1954 -1.2623
   33POPC    HB 4395   3.987   3.444   9.413 -0.8989 -1.1242  1.6631
   33POPC    C2 4396   3.970   3.319   9.218 -0.7270  0.5115  0.1822
   33POPC    HS 4397   4.020   3.409   9.177  1.2237 -0.8238 -0.4941
   33POPC   O21 4398   3.864   3.257   9.138 -0.0021 -0.1417 -0.0243
   33POPC   C21 4399   3.781   3.344   9.092  0.3621 -0.4420  0.3036
   33POPC   O22 4400   3.789   3.465   9.104  0.0245 -0.0909  0.4700
   33POPC   C22 4401   3.693   3.279   8.989  0.0864 -0.1634  0.3546
   33POPC   H2R 4402   3.611   3.218   9.034 -2.2027  2.0255 -0.6053
   33POPC   H2S 4403   3.758   3.202   8.942  0.2201 -0.4283  0.9626
   33POPC    C3 4404   4.087   3.213   9.244  0.1593 -0.3987 -0.3057
   33POPC    HX 4405   4.038   3.128   9.297 -0.2112  0.8630  1.4605
   33POPC    HY 4406   4.162   3.250   9.317  1.6817 -1.5386 -1.2358
   33POPC   O31 4407   4.146   3.169   9.120  0.4631  0.2150  0.4418
   33POPC   C31 4408   4.253   3.225   9.078 -0.4658  0.2906  0.0489
   33POPC   O32 4409   4.320   3.311   9.129 -0.2527  0.0936 -0.0826
   33POPC   C32 4410   4.282   3.148   8.951  0.6282 -0.4927 -0.3545
   33POPC   H2X 4411   4.186   3.118   8.901  0.7559 -2.6252  0.5780
   33POPC   H2Y 4412   4.335   3.056   8.981  0.8551 -0.1998  0.1460
   33POPC   C23 4413   3.633   3.389   8.892 -0.4791 -0.3254  0.2509
   33POPC   H3R 4414   3.711   3.461   8.860 -1.2195  0.3858 -0.0180
   33POPC   H3S 4415   3.559   3.431   8.964 -1.5305 -2.7379  0.6745
   33POPC   C24 4416   3.564   3.335   8.768 -0.1070  0.7274 -0.3051
   33POPC   H4R 4417   3.641   3.301   8.696  0.3231 -0.8451  0.8562
   33POPC   H4S 4418   3.493   3.412   8.731 -4.0438 -2.7800 -0.7959
   33POPC   C25 4419   3.470   3.217   8.805 -0.0534  0.8199  0.2551
   33POPC   H5R 4420   3.424   3.213   8.906 -0.4943 -1.1009  0.0081
   33POPC   H5S 4421   3.518   3.117   8.795 -2.9429 -0.7779  1.3005
   33POPC   C26 4422   3.344   3.223   8.719 -0.3432  0.9158  0.2802
   33POPC   H6R 4423   3.285   3.315   8.739 -1.2768  0.2673  0.5877
   33POPC   H6S 4424   3.284   3.134   8.747  0.4948  0.2485  0.0025
   33POPC   C27 4425   3.368   3.205   8.570  0.2627 -0.0358 -0.9862
   33POPC   H7R 4426   3.422   3.290   8.524  0.6230  0.3066  0.0468
   33POPC   H7S 4427   3.269   3.215   8.519 -0.3346  1.2498  0.3828
   33POPC   C28 4428   3.432   3.079   8.513 -0.2803 -0.1019  0.0096
   33POPC   H8R 4429   3.350   3.003   8.511 -0.4197  0.0589 -1.4219
   33POPC   H8S 4430   3.510   3.044   8.585  0.6913  1.1324 -0.4250
   33POPC   C29 4431   3.508   3.089   8.387  0.1297 -0.0766 -0.4148
   33POPC   H91 4432   3.588   3.163   8.404  0.2360 -0.2818  0.0148
   33POPC  C210 4433   3.482   3.027   8.271 -0.9663  0.4033 -0.5145
   33POPC  H101 4434   3.548   3.036   8.183  0.1312 -0.9840  0.1264
   33POPC  C211 4435   3.365   2.937   8.237 -0.0618  0.2434 -0.7100
   33POPC  H11R 4436   3.280   2.960   8.304  1.8895  1.6870  1.4259
   33POPC  H11S 4437   3.395   2.831   8.250 -0.3562  0.2391 -0.0276
   33POPC  C212 4438   3.324   2.938   8.088  0.2385  0.4899  0.2374
   33POPC  H12R 4439   3.414   2.930   8.024 -0.0159  0.4582 -0.1138
   33POPC  H12S 4440   3.272   3.035   8.076  1.2544  1.1045  0.6456
   33POPC  C213 4441   3.228   2.824   8.047  0.3800 -0.5711 -0.2770
   33POPC  H13R 4442   3.264   2.721   8.067 -1.5199 -1.6149 -1.8962
   33POPC  H13S 4443   3.224   2.825   7.936 -0.9834  1.8645 -0.2728
   33POPC  C214 4444   3.091   2.836   8.112 -0.2880  0.6220  0.4331
   33POPC  H14R 4445   3.043   2.934   8.090  0.3042  0.9414  0.5185
   33POPC  H14S 4446   3.099   2.822   8.222 -2.8900 -0.5932  0.5403
   33POPC  C215 4447   3.001   2.716   8.090  0.6632  0.5397  0.5258
   33POPC  H15R 4448   3.065   2.628   8.108  0.6664  0.5616  0.6179
   33POPC  H15S 4449   2.969   2.712   7.983  2.5925 -1.5761 -0.0352
   33POPC  C216 4450   2.872   2.719   8.180 -0.8488  0.0972 -0.0232
   33POPC  H16R 4451   2.821   2.816   8.158 -2.1494  0.1615  2.7780
   33POPC  H16S 4452   2.901   2.723   8.287  0.1263 -0.4307 -0.2633
   33POPC  C217 4453   2.770   2.613   8.144  0.5928  0.7799 -1.0805
   33POPC  H17R 4454   2.815   2.514   8.169 -0.8832  0.3401 -0.0082
   33POPC  H17S 4455   2.733   2.613   8.040 -0.8487  1.2672 -0.5887
   33POPC  C218 4456   2.636   2.631   8.228  0.0733  1.0961  0.1693
   33POPC  H18R 4457   2.584   2.723   8.193 -0.2353  0.4571 -1.1118
   33POPC  H18S 4458   2.646   2.626   8.339 -0.5348 -1.2354  0.1619
   33POPC  H18T 4459   2.570   2.549   8.193  1.4218 -0.1812  0.5195
   33POPC   C33 4460   4.373   3.224   8.850 -0.1302  0.9999  0.5255
   33POPC   H3X 4461   4.477   3.222   8.891  0.3903 -2.8095 -0.6171
   33POPC   H3Y 4462   4.337   3.329   8.845  0.1825  1.0235 -2.6048
   33POPC   C34 4463   4.370   3.182   8.700 -0.3385  0.6324  0.7755
   33POPC   H4X 4464   4.267   3.151   8.674  0.5901 -1.4181 -0.7366
   33POPC   H4Y 4465   4.431   3.090   8.692  0.0837  0.8154  1.7627
   33POPC   C35 4466   4.404   3.292   8.602  0.4160 -0.1071 -0.2249
   33POPC   H5X 4467   4.343   3.382   8.623 -1.5202 -1.7692  1.6322
   33POPC   H5Y 4468   4.364   3.261   8.503  1.6847  0.4051 -0.9196
   33POPC   C36 4469   4.551   3.315   8.587 -1.2747 -0.0829  0.3422
   33POPC   H6X 4470   4.603   3.353   8.678  0.1100  1.7563 -1.1233
   33POPC   H6Y 4471   4.566   3.392   8.509 -0.7867 -0.2324  0.2841
   33POPC   C37 4472   4.635   3.194   8.538 -0.2179  0.5328  0.1874
   33POPC   H7X 4473   4.621   3.191   8.428 -0.7027  0.4389  0.2481
   33POPC   H7Y 4474   4.602   3.097   8.580 -1.6518  1.1489  0.5383
   33POPC   C38 4475   4.789   3.212   8.557  0.4511 -0.4697  0.2394
   33POPC   H8X 4476   4.823   3.255   8.653 -0.9009 -1.4270  1.1756
   33POPC   H8Y 4477   4.811   3.290   8.481  0.5917 -0.4283  0.3244
   33POPC   C39 4478   4.877   3.088   8.544  0.7156  0.9511  0.1358
   33POPC   H9X 4479   4.823   3.025   8.470  0.8461  0.1512  0.7023
   33POPC   H9Y 4480   4.854   3.018   8.627 -0.6013 -0.4969 -1.3589
   33POPC  C310 4481   5.025   3.106   8.503 -0.0520  0.3493 -0.2174
   33POPC  H10X 4482   5.018   3.176   8.417 -1.1696 -0.3974 -0.7616
   33POPC  H10Y 4483   5.063   3.011   8.460  0.6797  0.3622  0.3771
   33POPC  C311 4484   5.110   3.161   8.618 -0.1953  0.1917 -0.1102
   33POPC  H11X 4485   5.103   3.085   8.699 -1.2127  1.5703  1.1597
   33POPC  H11Y 4486   5.066   3.254   8.660  1.5462  1.1051 -0.2204
   33POPC  C312 4487   5.257   3.165   8.579  0.8487  0.2339 -0.7267
   33POPC  H12X 4488   5.290   3.071   8.528  1.0018 -0.8587  1.2876
   33POPC  H12Y 4489   5.301   3.162   8.681  1.9426 -0.5341 -1.2023
   33POPC  C313 4490   5.300   3.295   8.502 -0.4903  0.3645  0.7053
   33POPC  H13X 4491   5.268   3.276   8.397 -0.4580  0.9088  0.5956
   33POPC  H13Y 4492   5.411   3.301   8.505 -0.4649 -0.0269  0.6269
   33POPC  C314 4493   5.258   3.422   8.573 -0.6432  0.3535 -1.0986
   33POPC  H14X 4494   5.247   3.398   8.681  3.4369 -0.3675 -0.7005
   33POPC  H14Y 4495   5.156   3.453   8.540  0.0734  0.3714 -3.4740
   33POPC  C315 4496   5.352   3.537   8.536 -0.6129 -0.2245  0.3779
   33POPC  H15X 4497   5.354   3.551   8.426 -1.3982 -0.2226  0.3572
   33POPC  H15Y 4498   5.445   3.507   8.588 -0.0545  2.0637  0.8111
   33POPC  C316 4499   5.318   3.671   8.598  0.4941  0.3162 -0.5189
   33POPC  H16X 4500   5.298   3.648   8.705 -1.2306  1.6574 -0.5098
   33POPC  H16Y 4501   5.227   3.720   8.557  0.5891  1.2705  0.3364
   33POPC  H16Z 4502   5.403   3.743   8.597  1.0782 -0.3421  0.3192
   34POPC     N 4503   3.682   4.798   9.921 -0.4881  0.0311  0.6319
   34POPC   C12 4504   3.822   4.742   9.915 -0.0139 -0.2767  0.0971
   34POPC  H12A 4505   3.835   4.685  10.005 -0.6626  0.1025  0.4394
   34POPC  H12B 4506   3.892   4.824   9.915 -0.5774  0.2207 -0.6358
   34POPC   C13 4507   3.667   4.895  10.032  1.3004 -0.0002  0.3567
   34POPC  H13A 4508   3.706   4.856  10.124 -0.6545 -0.3112  1.1062
   34POPC  H13B 4509   3.707   4.994  10.014 -0.1453  1.0419  2.3921
   34POPC  H13C 4510   3.564   4.922  10.050  1.3048 -0.6165  1.3766
   34POPC   C14 4511   3.638   4.881   9.797 -0.6242 -0.2129  0.0409
   34POPC  H14A 4512   3.712   4.955   9.769 -0.1461 -1.0631 -1.0118
   34POPC  H14B 4513   3.629   4.819   9.709 -1.4904 -0.1264  0.0618
   34POPC  H14C 4514   3.540   4.925   9.808 -0.3910  0.9256 -2.0739
   34POPC   C15 4515   3.586   4.684   9.939 -0.3810  0.4051 -0.3516
   34POPC  H15A 4516   3.587   4.642  10.038 -1.1510  1.7471  0.2553
   34POPC  H15B 4517   3.612   4.605   9.870  1.5130  1.9731 -1.5693
   34POPC  H15C 4518   3.482   4.709   9.924 -0.4215 -0.0761 -0.8766
   34POPC   C11 4519   3.860   4.643   9.801  0.3137  0.6799  0.2448
   34POPC  H11A 4520   3.962   4.610   9.829  0.7156  1.1089 -0.6620
   34POPC  H11B 4521   3.884   4.693   9.704  1.8757 -2.3267 -1.0406
   34POPC     P 4522   3.713   4.454   9.673 -0.0824 -0.1450  0.1161
   34POPC   O13 4523   3.590   4.531   9.638  0.5046  0.8011  0.1927
   34POPC   O14 4524   3.703   4.315   9.716 -0.0959  0.0209  0.8359
   34POPC   O12 4525   3.773   4.529   9.798  0.3582 -0.3558  0.1870
   34POPC   O11 4526   3.817   4.475   9.552  0.3540  0.2461  0.2943
   34POPC    C1 4527   3.790   4.413   9.428  0.1745  0.4565  0.0828
   34POPC    HA 4528   3.682   4.414   9.403 -0.1789 -3.1522  0.8817
   34POPC    HB 4529   3.815   4.306   9.445 -2.4084 -0.0239  1.3423
   34POPC    C2 4530   3.864   4.474   9.304 -0.3163 -0.7214  0.2564
   34POPC    HS 4531   3.974   4.461   9.307 -0.5053 -2.4991  0.4293
   34POPC   O21 4532   3.819   4.611   9.300  0.5045  0.7382  0.1423
   34POPC   C21 4533   3.898   4.689   9.371 -0.5368 -0.7017  0.4071
   34POPC   O22 4534   4.005   4.655   9.412 -0.1506  0.6497 -0.7668
   34POPC   C22 4535   3.833   4.816   9.418  0.8342 -0.4747  0.5463
   34POPC   H2R 4536   3.916   4.886   9.441  0.5067 -0.2284  1.0093
   34POPC   H2S 4537   3.775   4.792   9.510 -0.4324  1.9279  0.4475
   34POPC    C3 4538   3.813   4.398   9.176  0.0738 -0.9281 -0.2774
   34POPC    HX 4539   3.846   4.294   9.193 -0.3092 -0.7161  2.1390
   34POPC    HY 4540   3.863   4.445   9.088  1.1089 -1.8953 -0.2157
   34POPC   O31 4541   3.671   4.400   9.168 -0.1843 -0.1680 -0.6047
   34POPC   C31 4542   3.596   4.293   9.163  1.1533  0.3324 -0.3861
   34POPC   O32 4543   3.638   4.187   9.126  0.1916  0.2919 -0.6474
   34POPC   C32 4544   3.447   4.318   9.212  0.6221 -0.3617 -0.4645
   34POPC   H2X 4545   3.453   4.343   9.320  0.2376 -1.1215 -0.2555
   34POPC   H2Y 4546   3.390   4.223   9.218 -0.4050  0.2930  1.0237
   34POPC   C23 4547   3.739   4.880   9.302  0.0040  0.4792 -0.4406
   34POPC   H3R 4548   3.707   4.977   9.347  1.1716  0.6430  0.0687
   34POPC   H3S 4549   3.648   4.819   9.285 -1.5003  1.1967  3.8711
   34POPC   C24 4550   3.804   4.917   9.166  0.1666 -0.3313 -0.4496
   34POPC   H4R 4551   3.831   4.821   9.118  3.3302  1.0675 -1.7752
   34POPC   H4S 4552   3.898   4.973   9.186  0.3166 -0.7596  0.0426
   34POPC   C25 4553   3.701   4.989   9.082 -0.2368  0.0527  0.3132
   34POPC   H5R 4554   3.751   5.038   8.996 -1.6127  0.0722 -0.5092
   34POPC   H5S 4555   3.654   5.074   9.136  2.9372  3.8932 -2.4038
   34POPC   C26 4556   3.591   4.894   9.028  0.0668 -1.0572  0.2633
   34POPC   H6R 4557   3.525   4.874   9.115 -1.9697  2.0055 -0.4532
   34POPC   H6S 4558   3.635   4.808   8.973  1.9963  0.6690 -1.0420
   34POPC   C27 4559   3.517   4.963   8.911  0.7202  0.1527 -0.3179
   34POPC   H7R 4560   3.599   5.003   8.848  0.0323 -0.0080 -1.3332
   34POPC   H7S 4561   3.462   5.054   8.943  1.0248  0.7251 -1.3959
   34POPC   C28 4562   3.428   4.858   8.844  0.7683  0.0250  0.0199
   34POPC   H8R 4563   3.369   4.806   8.922  0.5647  0.5193  0.1978
   34POPC   H8S 4564   3.491   4.788   8.785 -0.1159 -0.5702 -0.2461
   34POPC   C29 4565   3.335   4.913   8.739 -0.2732  0.5287  0.1689
   34POPC   H91 4566   3.240   4.949   8.782  0.2608  1.5428  0.5374
   34POPC  C210 4567   3.361   4.919   8.605 -0.1654  0.4715 -0.1086
   34POPC  H101 4568   3.278   4.953   8.541 -0.8787  0.2531  0.6798
   34POPC  C211 4569   3.488   4.869   8.531  0.7242  0.4729 -0.4001
   34POPC  H11R 4570   3.468   4.789   8.456  3.1209 -1.0491  0.4657
   34POPC  H11S 4571   3.562   4.834   8.606  0.3157 -2.8758 -1.3996
   34POPC  C212 4572   3.548   4.992   8.461 -0.2147 -1.0674  0.0980
   34POPC  H12R 4573   3.653   4.969   8.432  0.0923  1.0376 -0.6173
   34POPC  H12S 4574   3.561   5.073   8.536 -1.1512 -2.1984  1.5255
   34POPC  C213 4575   3.461   5.048   8.345 -0.1298 -0.1433  0.2232
   34POPC  H13R 4576   3.357   5.067   8.381  0.4583  1.0471  1.4003
   34POPC  H13S 4577   3.443   4.977   8.262 -0.0930  1.8731 -1.5898
   34POPC  C214 4578   3.509   5.177   8.283  0.1526 -0.7112  0.0443
   34POPC  H14R 4579   3.566   5.243   8.351 -0.3434 -0.0243 -0.1863
   34POPC  H14S 4580   3.426   5.247   8.257  2.8280  2.0329 -1.7810
   34POPC  C215 4581   3.574   5.156   8.144 -0.5047 -0.0388  0.1212
   34POPC  H15R 4582   3.500   5.104   8.079  0.6225  0.2540 -1.4455
   34POPC  H15S 4583   3.655   5.082   8.162  0.6545  1.1171 -0.2228
   34POPC  C216 4584   3.640   5.279   8.095  0.8568 -0.1352  0.2580
   34POPC  H16R 4585   3.692   5.322   8.184 -2.5303  0.7028  2.0049
   34POPC  H16S 4586   3.573   5.361   8.062  0.3451 -0.6300  0.0501
   34POPC  C217 4587   3.734   5.261   7.971 -0.2221 -1.2043  0.8083
   34POPC  H17R 4588   3.818   5.199   8.009  0.1794 -1.4430 -0.4165
   34POPC  H17S 4589   3.771   5.360   7.937 -0.7584 -1.3817 -0.3230
   34POPC  C218 4590   3.662   5.194   7.851 -0.6542 -0.2132 -0.3018
   34POPC  H18R 4591   3.566   5.246   7.831 -1.1877 -0.8495  0.5227
   34POPC  H18S 4592   3.631   5.088   7.864 -1.6476 -0.2901 -2.8234
   34POPC  H18T 4593   3.724   5.199   7.758  1.0635  1.5519  0.8547
   34POPC   C33 4594   3.379   4.432   9.139 -0.7989  0.2886 -0.0628
   34POPC   H3X 4595   3.431   4.528   9.159 -3.1802  1.7057 -0.3554
   34POPC   H3Y 4596   3.276   4.446   9.179 -0.7130 -0.2973  0.3663
   34POPC   C34 4597   3.355   4.407   8.989  0.2676 -0.0976  0.1176
   34POPC   H4X 4598   3.264   4.467   8.970  0.8718  1.2691  1.3396
   34POPC   H4Y 4599   3.347   4.297   8.974 -0.3175 -0.0203 -0.1511
   34POPC   C35 4600   3.458   4.475   8.901  0.0109  0.4718 -0.4549
   34POPC   H5X 4601   3.550   4.414   8.915  0.4276  1.3118  0.5570
   34POPC   H5Y 4602   3.474   4.579   8.937  0.0582 -0.2414  1.6973
   34POPC   C36 4603   3.416   4.472   8.754 -0.0023 -0.4059  0.0825
   34POPC   H6X 4604   3.332   4.539   8.723  1.2077  1.0715 -0.1386
   34POPC   H6Y 4605   3.393   4.365   8.733 -1.7451  0.2752 -1.9496
   34POPC   C37 4606   3.522   4.509   8.654 -0.0695 -0.6003  0.2295
   34POPC   H7X 4607   3.616   4.485   8.708  2.8622  0.3057 -3.9520
   34POPC   H7Y 4608   3.526   4.614   8.619  4.0896  0.3540  2.8456
   34POPC   C38 4609   3.536   4.403   8.541 -0.7297 -0.6785 -0.0123
   34POPC   H8X 4610   3.515   4.296   8.561 -2.4390 -0.2816  0.5572
   34POPC   H8Y 4611   3.639   4.415   8.502  0.1804  0.4409  2.5227
   34POPC   C39 4612   3.452   4.442   8.414  0.6869  0.4730  0.1713
   34POPC   H9X 4613   3.473   4.548   8.387  0.0223  0.2864 -1.2162
   34POPC   H9Y 4614   3.346   4.443   8.447  0.3203 -0.9926 -0.8567
   34POPC  C310 4615   3.463   4.355   8.287  0.1163 -0.0641 -0.4160
   34POPC  H10X 4616   3.419   4.256   8.312 -1.7367 -0.2544 -3.7770
   34POPC  H10Y 4617   3.569   4.342   8.257  0.1616 -1.6295  0.2697
   34POPC  C311 4618   3.393   4.427   8.177 -0.1437 -0.0116  0.5220
   34POPC  H11X 4619   3.445   4.515   8.135  0.2402 -0.2663  0.4637
   34POPC  H11Y 4620   3.301   4.480   8.211  1.9196  2.9110  2.0083
   34POPC  C312 4621   3.353   4.340   8.063  0.0605  0.0486  0.1864
   34POPC  H12X 4622   3.254   4.368   8.020 -0.2290 -1.4582 -0.1736
   34POPC  H12Y 4623   3.353   4.230   8.082 -1.2755  0.0029  0.0070
   34POPC  C313 4624   3.448   4.362   7.941 -0.3503 -0.6222 -0.6491
   34POPC  H13X 4625   3.431   4.468   7.914 -0.7345 -0.4647  0.1646
   34POPC  H13Y 4626   3.403   4.304   7.857 -1.3061  0.3713 -0.8489
   34POPC  C314 4627   3.598   4.339   7.962 -0.7798 -1.0138 -0.6776
   34POPC  H14X 4628   3.607   4.251   8.028 -1.5358  2.3581  4.4588
   34POPC  H14Y 4629   3.634   4.425   8.022  0.4840 -1.3872 -0.8762
   34POPC  C315 4630   3.671   4.336   7.824  0.1548  0.4581  0.2673
   34POPC  H15X 4631   3.640   4.426   7.767 -0.0597  0.6121  0.6259
   34POPC  H15Y 4632   3.646   4.248   7.761 -1.0963  1.2129 -0.3319
   34POPC  C316 4633   3.823   4.347   7.837 -0.1816 -0.2308  0.0468
   34POPC  H16X 4634   3.863   4.332   7.735  0.2160  1.6378 -0.1218
   34POPC  H16Y 4635   3.856   4.264   7.903  0.1799 -0.8123 -0.8438
   34POPC  H16Z 4636   3.859   4.445   7.876 -0.1815 -0.9260  1.8844
   35POPC     N 4637   1.412   2.006   9.599 -0.3319  0.1660 -0.3773
   35POPC   C12 4638   1.513   1.897   9.626  0.2885 -0.2565  0.0871
   35POPC  H12A 4639   1.616   1.921   9.647 -0.2465  0.8391  1.6659
   35POPC  H12B 4640   1.507   1.839   9.535  0.1279 -0.5238  0.2652
   35POPC   C13 4641   1.385   2.091   9.724  0.6106  0.4161  1.1933
   35POPC  H13A 4642   1.309   2.165   9.702  0.4249  0.1120  0.8061
   35POPC  H13B 4643   1.337   2.036   9.804  0.2964  0.1106  0.7983
   35POPC  H13C 4644   1.476   2.134   9.763  0.3524  1.6537  0.4721
   35POPC   C14 4645   1.465   2.097   9.493  0.2816  0.1840 -0.8041
   35POPC  H14A 4646   1.563   2.139   9.511 -0.5153  1.8563 -0.1387
   35POPC  H14B 4647   1.464   2.046   9.398  2.4241 -0.7191 -0.4213
   35POPC  H14C 4648   1.406   2.187   9.495 -1.6026 -0.9745 -1.4781
   35POPC   C15 4649   1.292   1.939   9.544  0.3520  0.0518  0.2481
   35POPC  H15A 4650   1.246   1.889   9.629  1.5349 -2.4476 -0.4839
   35POPC  H15B 4651   1.320   1.871   9.465 -0.4890  0.4617 -0.4206
   35POPC  H15C 4652   1.223   2.012   9.505  2.5691  2.4894  0.6288
   35POPC   C11 4653   1.472   1.800   9.739 -0.3451  0.2734  0.0835
   35POPC  H11A 4654   1.367   1.765   9.733 -0.5265  0.5535  1.3926
   35POPC  H11B 4655   1.491   1.847   9.838  0.3489 -1.1740  0.6700
   35POPC     P 4656   1.539   1.574   9.639 -0.2171 -0.3267  0.0055
   35POPC   O13 4657   1.473   1.454   9.703 -0.5291 -0.7599 -0.2729
   35POPC   O14 4658   1.665   1.542   9.564  0.2533 -0.4497 -0.1092
   35POPC   O12 4659   1.562   1.688   9.739 -0.1581 -0.0753 -0.7730
   35POPC   O11 4660   1.438   1.632   9.535 -0.6106 -0.4448  0.0503
   35POPC    C1 4661   1.322   1.559   9.500 -0.4696  0.2320 -0.2349
   35POPC    HA 4662   1.254   1.620   9.437 -0.7218 -0.2439 -0.4318
   35POPC    HB 4663   1.273   1.527   9.595  3.0402  1.2824  2.1303
   35POPC    C2 4664   1.353   1.432   9.422  0.6193  0.7506 -0.0201
   35POPC    HS 4665   1.384   1.356   9.496 -0.3268  0.2327 -0.1374
   35POPC   O21 4666   1.461   1.467   9.334 -0.0218 -0.0513 -0.3233
   35POPC   C21 4667   1.513   1.365   9.270  0.6241  0.1440  0.6140
   35POPC   O22 4668   1.482   1.249   9.288  0.4243 -0.0639 -0.1054
   35POPC   C22 4669   1.617   1.414   9.172 -0.3201 -0.4209  0.1075
   35POPC   H2R 4670   1.688   1.484   9.222  0.1335  0.0981 -1.2204
   35POPC   H2S 4671   1.564   1.465   9.089 -0.2680 -2.7817 -1.4622
   35POPC    C3 4672   1.223   1.384   9.347 -0.3755  0.5988  0.3041
   35POPC    HX 4673   1.137   1.358   9.413 -0.7365  1.1661  0.0610
   35POPC    HY 4674   1.247   1.293   9.288  0.9103  2.9248 -3.1273
   35POPC   O31 4675   1.186   1.479   9.246  0.4129 -0.4815  0.0759
   35POPC   C31 4676   1.117   1.425   9.138 -1.0841  0.7820  0.1353
   35POPC   O32 4677   1.084   1.310   9.124 -0.4325  0.0347 -0.0721
   35POPC   C32 4678   1.075   1.542   9.039 -0.5080 -0.2157  0.2787
   35POPC   H2X 4679   1.123   1.639   9.063 -1.9985  0.7816 -0.6107
   35POPC   H2Y 4680   0.967   1.564   9.048 -0.8252 -1.6416  0.1487
   35POPC   C23 4681   1.705   1.303   9.117  0.1093 -0.8155  0.3190
   35POPC   H3R 4682   1.651   1.208   9.096  1.5377 -1.8597  1.2153
   35POPC   H3S 4683   1.775   1.268   9.196  3.1106  0.2327 -1.7097
   35POPC   C24 4684   1.775   1.358   8.987  0.2330  0.9672  0.3219
   35POPC   H4R 4685   1.708   1.341   8.900 -0.1832 -0.6245  0.9211
   35POPC   H4S 4686   1.863   1.292   8.972  1.1189  2.2404 -0.2977
   35POPC   C25 4687   1.827   1.503   8.981 -0.5902 -0.1241  0.1396
   35POPC   H5R 4688   1.881   1.511   9.078  0.0438 -0.1709 -0.2069
   35POPC   H5S 4689   1.743   1.576   8.988 -0.9614 -0.6624  2.2104
   35POPC   C26 4690   1.913   1.530   8.856  0.4142 -0.1511 -0.3805
   35POPC   H6R 4691   1.842   1.545   8.772 -0.9955 -0.4515  0.7077
   35POPC   H6S 4692   1.971   1.437   8.838 -0.0589 -0.7594  1.0310
   35POPC   C27 4693   2.007   1.651   8.865 -0.5262 -0.7322 -0.2590
   35POPC   H7R 4694   2.065   1.659   8.770  2.2051  1.3994  1.4601
   35POPC   H7S 4695   2.081   1.631   8.945 -1.7790  0.4640  1.2563
   35POPC   C28 4696   1.945   1.793   8.883 -0.5759 -0.4131  0.6339
   35POPC   H8R 4697   1.877   1.797   8.796 -0.0863 -1.3467  0.2002
   35POPC   H8S 4698   2.028   1.861   8.855 -1.0603 -0.4369 -0.9622
   35POPC   C29 4699   1.877   1.843   9.008 -0.2288  0.6028  0.4431
   35POPC   H91 4700   1.949   1.868   9.087  0.6162  0.4536 -0.2593
   35POPC  C210 4701   1.749   1.873   9.042 -0.4482  0.3788  0.1023
   35POPC  H101 4702   1.729   1.883   9.150 -0.3718  0.6579  0.0922
   35POPC  C211 4703   1.630   1.863   8.951  0.4270 -0.3953 -0.5164
   35POPC  H11R 4704   1.564   1.781   8.986 -0.4195  0.0344 -1.0624
   35POPC  H11S 4705   1.654   1.840   8.845  1.3138 -0.0379 -0.3980
   35POPC  C212 4706   1.534   1.985   8.960  0.9443 -0.0838 -0.0851
   35POPC  H12R 4707   1.594   2.068   8.915  1.7217  0.2445  1.4991
   35POPC  H12S 4708   1.508   2.017   9.063 -1.1824  2.2744 -1.2229
   35POPC  C213 4709   1.398   1.969   8.887 -0.0083 -0.5163  0.5197
   35POPC  H13R 4710   1.340   1.890   8.939  0.0060  0.8176  2.6770
   35POPC  H13S 4711   1.421   1.924   8.788 -0.1413 -1.1801  0.7849
   35POPC  C214 4712   1.327   2.100   8.862 -0.4125 -0.2749 -0.0553
   35POPC  H14R 4713   1.400   2.166   8.811 -0.6737 -0.9661 -1.3632
   35POPC  H14S 4714   1.290   2.124   8.964 -2.0456 -1.9112 -0.2057
   35POPC  C215 4715   1.203   2.069   8.775  0.2065 -0.6113 -0.1724
   35POPC  H15R 4716   1.231   2.010   8.685  0.2510 -0.8604  0.0022
   35POPC  H15S 4717   1.163   2.168   8.743  1.1328  0.5720  2.0844
   35POPC  C216 4718   1.094   1.986   8.840  0.1081 -0.5616 -0.1571
   35POPC  H16R 4719   1.043   2.031   8.928 -0.8360 -0.5630 -0.6870
   35POPC  H16S 4720   1.142   1.893   8.877  0.8373 -0.1479 -0.0427
   35POPC  C217 4721   0.982   1.956   8.735  0.0927  0.3969 -0.2809
   35POPC  H17R 4722   1.031   1.912   8.645  1.8696  3.2556 -0.8699
   35POPC  H17S 4723   0.928   2.052   8.724 -2.7394 -0.9435  1.0892
   35POPC  C218 4724   0.880   1.853   8.790  0.0637 -0.8240  0.2719
   35POPC  H18R 4725   0.937   1.758   8.800  0.3468 -0.9250 -1.8439
   35POPC  H18S 4726   0.792   1.845   8.722  0.0778  1.4315 -0.0876
   35POPC  H18T 4727   0.832   1.888   8.884 -3.1935  1.1203 -1.9049
   35POPC   C33 4728   1.124   1.517   8.891 -0.3183 -0.0656 -0.5647
   35POPC   H3X 4729   1.077   1.597   8.829 -1.0380 -0.7280 -0.8928
   35POPC   H3Y 4730   1.094   1.413   8.865 -0.3461 -0.5046  1.1201
   35POPC   C34 4731   1.276   1.549   8.888  0.2053 -1.1983  0.2948
   35POPC   H4X 4732   1.340   1.476   8.943  0.0673 -0.1189  1.9444
   35POPC   H4Y 4733   1.287   1.646   8.940 -4.6890 -1.0436  1.5339
   35POPC   C35 4734   1.318   1.566   8.744  0.1154  0.8035  0.1499
   35POPC   H5X 4735   1.260   1.646   8.693 -0.2647  0.3723 -0.0982
   35POPC   H5Y 4736   1.303   1.468   8.693  1.8914  0.1086  0.8764
   35POPC   C36 4737   1.465   1.611   8.735  0.5837 -0.3344 -0.4896
   35POPC   H6X 4738   1.534   1.547   8.794  1.6874  0.4588 -0.8968
   35POPC   H6Y 4739   1.469   1.713   8.778 -4.2791  0.5583 -1.5270
   35POPC   C37 4740   1.516   1.611   8.585 -0.0347  0.0580 -0.1014
   35POPC   H7X 4741   1.464   1.703   8.551 -0.5997 -0.0751  0.3921
   35POPC   H7Y 4742   1.483   1.523   8.526 -1.8717  1.3374 -1.0886
   35POPC   C38 4743   1.666   1.619   8.564 -0.1927  0.4771  0.0721
   35POPC   H8X 4744   1.705   1.519   8.588 -3.6433 -1.2103 -0.6230
   35POPC   H8Y 4745   1.706   1.702   8.625 -4.0950  0.8494  2.4768
   35POPC   C39 4746   1.702   1.642   8.417  0.4190  0.6085 -0.3150
   35POPC   H9X 4747   1.644   1.732   8.388  0.0839 -0.0689 -1.8306
   35POPC   H9Y 4748   1.659   1.555   8.363 -0.2287  2.8905 -3.7920
   35POPC  C310 4749   1.858   1.646   8.405  0.3031 -0.0712 -0.4919
   35POPC  H10X 4750   1.894   1.575   8.483  2.4414  1.0432 -0.3811
   35POPC  H10Y 4751   1.917   1.734   8.438 -1.0331  0.8338 -0.4876
   35POPC  C311 4752   1.910   1.617   8.263  0.0941  0.4036 -0.0972
   35POPC  H11X 4753   1.850   1.536   8.217 -1.7867  1.6567  0.0508
   35POPC  H11Y 4754   2.014   1.580   8.277  0.4974  1.9894  1.5378
   35POPC  C312 4755   1.902   1.740   8.173  0.3736  0.2338 -0.3319
   35POPC  H12X 4756   1.971   1.819   8.208 -1.5957  1.9927 -0.2463
   35POPC  H12Y 4757   1.800   1.784   8.164  0.7185  0.9874 -0.6633
   35POPC  C313 4758   1.955   1.697   8.033 -0.2228  0.2171 -0.8909
   35POPC  H13X 4759   1.881   1.649   7.966  0.2805 -0.9210 -0.6586
   35POPC  H13Y 4760   2.040   1.627   8.050  0.0435  0.7363  0.0109
   35POPC  C314 4761   2.012   1.813   7.950 -0.5061  0.6791 -0.4941
   35POPC  H14X 4762   2.071   1.881   8.015  0.8667 -1.0840  0.1908
   35POPC  H14Y 4763   1.931   1.878   7.910 -0.0593  2.4392  1.2998
   35POPC  C315 4764   2.114   1.774   7.842 -0.2961  0.1420  0.0648
   35POPC  H15X 4765   2.056   1.702   7.780  0.7358 -0.6550 -0.0105
   35POPC  H15Y 4766   2.204   1.719   7.876 -0.2866  0.7745  1.0932
   35POPC  C316 4767   2.151   1.889   7.753  0.5260 -0.2765  0.0707
   35POPC  H16X 4768   2.061   1.945   7.722  1.1508 -0.0114 -1.3546
   35POPC  H16Y 4769   2.205   1.848   7.665  1.2842 -0.1834  0.4781
   35POPC  H16Z 4770   2.215   1.964   7.805 -1.5924  0.7883  1.2697
   36POPC     N 4771   1.076   6.559   9.598 -0.0028 -0.5220  0.3683
   36POPC   C12 4772   0.994   6.665   9.514  0.4813  0.2094 -0.6309
   36POPC  H12A 4773   0.940   6.723   9.587 -0.8071  0.3367 -1.6593
   36POPC  H12B 4774   0.919   6.612   9.458 -0.7641  1.1546  0.0890
   36POPC   C13 4775   1.127   6.449   9.513 -0.8001 -0.1618  0.1086
   36POPC  H13A 4776   1.053   6.426   9.438 -0.3327 -1.1728 -0.0641
   36POPC  H13B 4777   1.219   6.482   9.468  0.1441 -2.9332 -0.1819
   36POPC  H13C 4778   1.157   6.367   9.576  2.3911  2.2161  1.9683
   36POPC   C14 4779   1.189   6.623   9.676  0.3821  0.5392  0.2905
   36POPC  H14A 4780   1.157   6.632   9.778  0.8584  2.6620  0.2988
   36POPC  H14B 4781   1.267   6.549   9.690 -0.9368 -0.6301  1.9158
   36POPC  H14C 4782   1.227   6.718   9.641 -2.0725  1.7518  0.7091
   36POPC   C15 4783   0.977   6.501   9.698 -0.5315  0.1972 -0.2449
   36POPC  H15A 4784   0.894   6.448   9.654 -0.1359 -1.4591  0.8959
   36POPC  H15B 4785   0.937   6.580   9.760  0.8631  0.4863  0.3286
   36POPC  H15C 4786   1.019   6.422   9.759 -3.1186 -2.1103 -1.2598
   36POPC   C11 4787   1.085   6.748   9.416  0.7462 -0.4994  0.0022
   36POPC  H11A 4788   1.023   6.784   9.332 -0.8510 -0.4149  1.1824
   36POPC  H11B 4789   1.159   6.684   9.363 -0.9136 -0.7810 -2.0862
   36POPC     P 4790   1.074   6.980   9.531  0.3739 -0.2012  0.2540
   36POPC   O13 4791   1.163   7.044   9.631 -0.0487  0.6463  0.2565
   36POPC   O14 4792   0.941   6.947   9.582 -0.1202  0.0596 -0.6309
   36POPC   O12 4793   1.152   6.854   9.482  0.4766  0.3243 -0.5508
   36POPC   O11 4794   1.068   7.070   9.397 -0.2240 -0.9022  0.0805
   36POPC    C1 4795   1.184   7.078   9.308  0.2162  1.1801  0.3652
   36POPC    HA 4796   1.199   6.979   9.259 -0.6134  2.3046 -2.3138
   36POPC    HB 4797   1.276   7.098   9.367  0.5726  3.6337 -0.9136
   36POPC    C2 4798   1.182   7.189   9.191 -0.2855  0.2703 -0.3873
   36POPC    HS 4799   1.152   7.284   9.240 -0.0405 -0.7209  1.7670
   36POPC   O21 4800   1.093   7.157   9.088 -0.3072  1.5858  0.5870
   36POPC   C21 4801   0.998   7.240   9.054 -0.1633  0.5136 -0.5338
   36POPC   O22 4802   0.979   7.347   9.108 -0.2212 -0.1267 -0.1675
   36POPC   C22 4803   0.908   7.178   8.946 -0.7729  0.0472 -0.2054
   36POPC   H2R 4804   0.800   7.188   8.973 -1.1468 -1.2628 -1.1293
   36POPC   H2S 4805   0.940   7.072   8.936 -0.7183  0.2168 -2.0965
   36POPC    C3 4806   1.326   7.201   9.127  0.0610  0.1363 -0.8913
   36POPC    HX 4807   1.397   7.248   9.197 -0.1109  0.5011 -0.9589
   36POPC    HY 4808   1.306   7.274   9.045 -2.6744 -1.0051 -1.3662
   36POPC   O31 4809   1.375   7.084   9.057  0.0558 -0.5969 -0.4297
   36POPC   C31 4810   1.495   7.092   8.998  0.2203 -0.1840  0.6284
   36POPC   O32 4811   1.557   7.198   8.977 -0.1737  0.0707 -0.8021
   36POPC   C32 4812   1.551   6.955   8.969  1.2223 -0.7600  0.3578
   36POPC   H2X 4813   1.458   6.896   8.978  0.5274  0.1888 -0.4044
   36POPC   H2Y 4814   1.629   6.928   9.044 -0.1310 -2.6727  1.1616
   36POPC   C23 4815   0.919   7.253   8.813 -0.5084 -0.2933 -0.9272
   36POPC   H3R 4816   0.895   7.362   8.807  1.1622  0.0291 -3.8400
   36POPC   H3S 4817   0.834   7.219   8.750 -1.9304  1.7819 -0.2402
   36POPC   C24 4818   1.058   7.218   8.743 -0.2074  0.0165 -0.7735
   36POPC   H4R 4819   1.102   7.126   8.788  1.9587  1.6588  0.7272
   36POPC   H4S 4820   1.128   7.304   8.757  0.7226 -0.8723  0.2476
   36POPC   C25 4821   1.020   7.203   8.593  0.2551 -0.3688 -0.6501
   36POPC   H5R 4822   0.938   7.129   8.577  0.4090 -0.8344  0.6402
   36POPC   H5S 4823   1.101   7.155   8.534 -1.3701 -0.9084 -2.5503
   36POPC   C26 4824   0.970   7.327   8.525  1.1397  0.9018 -0.2116
   36POPC   H6R 4825   1.035   7.415   8.544  2.2470  0.5483 -2.0328
   36POPC   H6S 4826   0.866   7.340   8.561  0.6028 -2.1211 -0.4038
   36POPC   C27 4827   0.974   7.307   8.374 -0.6011 -0.2744  0.1905
   36POPC   H7R 4828   0.895   7.374   8.334  0.1457  0.4488 -0.1128
   36POPC   H7S 4829   0.922   7.214   8.343 -0.3487 -0.4703  0.3515
   36POPC   C28 4830   1.112   7.326   8.309 -0.1348  0.4664  0.1758
   36POPC   H8R 4831   1.098   7.278   8.209  0.2766 -1.1842  0.8665
   36POPC   H8S 4832   1.193   7.263   8.351  0.6288  0.0568 -1.8073
   36POPC   C29 4833   1.177   7.460   8.295 -0.3994  0.6923  0.6518
   36POPC   H91 4834   1.180   7.515   8.390  2.9334  1.5928  0.1537
   36POPC  C210 4835   1.192   7.526   8.172 -0.3877 -0.1836 -0.0486
   36POPC  H101 4836   1.245   7.622   8.162 -2.5954  1.0906 -0.2906
   36POPC  C211 4837   1.156   7.472   8.038 -0.4731  0.0961 -0.7944
   36POPC  H11R 4838   1.061   7.414   8.043 -0.9016  0.8791  0.3956
   36POPC  H11S 4839   1.230   7.415   7.977 -0.7374 -1.2346  0.0757
   36POPC  C212 4840   1.103   7.591   7.953 -0.2596  0.0286 -1.2004
   36POPC  H12R 4841   1.171   7.674   7.924 -1.3562 -0.0007 -4.1374
   36POPC  H12S 4842   1.019   7.639   8.008  0.6522  0.1035  0.1866
   36POPC  C213 4843   1.052   7.541   7.818  0.2659  0.6004 -0.6945
   36POPC  H13R 4844   0.973   7.467   7.842  2.5600 -2.1751 -1.1659
   36POPC  H13S 4845   1.127   7.479   7.765 -0.3066  0.0153 -0.8194
   36POPC  C214 4846   0.999   7.650   7.724 -0.1004  0.3390 -0.7934
   36POPC  H14R 4847   1.077   7.728   7.716  1.3904 -0.7260  1.9601
   36POPC  H14S 4848   0.901   7.683   7.766  0.8211  0.9011  1.0003
   36POPC  C215 4849   0.973   7.588   7.593  0.2109  0.0671  0.3363
   36POPC  H15R 4850   0.905   7.657   7.539 -0.9683 -1.0632  0.3260
   36POPC  H15S 4851   0.920   7.492   7.611 -0.9206  0.8382  1.2699
   36POPC  C216 4852   1.101   7.579   7.505 -0.0641 -0.2726  0.2348
   36POPC  H16R 4853   1.075   7.516   7.417  1.6059  1.4435 -1.5854
   36POPC  H16S 4854   1.182   7.533   7.565  0.1534 -1.1668 -0.7171
   36POPC  C217 4855   1.153   7.719   7.464 -0.6126  0.2231 -0.2562
   36POPC  H17R 4856   1.208   7.774   7.543 -0.7344  0.2820 -0.2125
   36POPC  H17S 4857   1.072   7.789   7.435  0.6600  0.3332 -4.0973
   36POPC  C218 4858   1.243   7.718   7.342  0.1517 -0.1979 -0.2007
   36POPC  H18R 4859   1.189   7.665   7.260 -0.8794 -0.1361  0.4248
   36POPC  H18S 4860   1.343   7.672   7.356 -0.2061 -1.0822 -0.4478
   36POPC  H18T 4861   1.285   7.820   7.330  1.0000 -0.2802  1.7047
   36POPC   C33 4862   1.617   6.944   8.832 -0.2038  0.1046 -0.2194
   36POPC   H3X 4863   1.673   6.850   8.813  1.3466  0.7721  0.8721
   36POPC   H3Y 4864   1.697   7.021   8.828  0.9776 -1.1099 -0.5511
   36POPC   C34 4865   1.524   6.967   8.709 -0.3123  0.2762  0.1294
   36POPC   H4X 4866   1.577   6.983   8.613 -1.8412 -0.5040 -0.8847
   36POPC   H4Y 4867   1.480   7.065   8.738  1.0991  1.0223 -0.1372
   36POPC   C35 4868   1.418   6.858   8.679 -0.0937 -0.2735  0.2729
   36POPC   H5X 4869   1.384   6.829   8.781  1.2330  0.0351  0.8274
   36POPC   H5Y 4870   1.472   6.774   8.630  0.7457  1.0471 -1.1906
   36POPC   C36 4871   1.297   6.884   8.586  0.3080  0.0506  0.2918
   36POPC   H6X 4872   1.339   6.912   8.487 -1.4177 -1.0325 -0.7915
   36POPC   H6Y 4873   1.245   6.972   8.631  3.5911  2.3131  0.0272
   36POPC   C37 4874   1.209   6.759   8.561 -0.5618 -0.7514 -0.2964
   36POPC   H7X 4875   1.172   6.712   8.654 -0.0085  1.2225  0.9803
   36POPC   H7Y 4876   1.274   6.677   8.522  1.5999  1.5780 -1.9264
   36POPC   C38 4877   1.093   6.809   8.472 -0.5362  0.4312  0.1747
   36POPC   H8X 4878   1.051   6.899   8.523 -0.9789 -1.8350  4.2389
   36POPC   H8Y 4879   1.018   6.727   8.465 -1.3822  0.5768  4.5749
   36POPC   C39 4880   1.142   6.830   8.325 -0.3536 -0.3937 -0.1292
   36POPC   H9X 4881   1.168   6.732   8.280  2.3409 -0.1250  0.6578
   36POPC   H9Y 4882   1.229   6.899   8.322 -1.7528  1.4311 -0.5477
   36POPC  C310 4883   1.033   6.899   8.239 -0.2845 -0.3029  0.3360
   36POPC  H10X 4884   0.983   6.990   8.279 -2.8016 -1.5067  0.0979
   36POPC  H10Y 4885   0.951   6.826   8.221 -1.9530  0.1631  4.6750
   36POPC  C311 4886   1.094   6.944   8.099  0.0178 -0.4900 -0.0997
   36POPC  H11X 4887   1.133   6.853   8.048 -0.5503 -0.9779  0.3103
   36POPC  H11Y 4888   1.161   7.032   8.099 -0.1180 -0.3824  0.4784
   36POPC  C312 4889   0.975   6.990   8.010 -0.1657 -1.2655  0.1877
   36POPC  H12X 4890   0.922   7.074   8.059  2.4389  0.9671 -0.5220
   36POPC  H12Y 4891   0.908   6.902   8.004  0.4010 -1.6991  0.1500
   36POPC  C313 4892   1.031   7.025   7.868  0.5620 -0.2758  1.1863
   36POPC  H13X 4893   1.070   6.934   7.817  1.2876  0.0397  1.1675
   36POPC  H13Y 4894   1.125   7.084   7.873  1.8170 -1.8233 -1.3772
   36POPC  C314 4895   0.936   7.087   7.769  0.5716 -0.3901  0.3506
   36POPC  H14X 4896   0.928   7.197   7.787  2.4862 -0.1822  0.0914
   36POPC  H14Y 4897   0.849   7.027   7.803 -0.2211 -0.4780 -1.6871
   36POPC  C315 4898   0.962   7.060   7.626  0.2648 -0.2536  0.3350
   36POPC  H15X 4899   0.869   7.066   7.566  0.9193  0.7892 -0.6221
   36POPC  H15Y 4900   1.014   6.964   7.609 -0.9923 -0.9182  0.1704
   36POPC  C316 4901   1.067   7.164   7.574 -0.2991 -0.2227 -0.0853
   36POPC  H16X 4902   1.157   7.176   7.639  1.5978 -0.3151 -2.5202
   36POPC  H16Y 4903   1.013   7.260   7.568 -0.5560 -0.2834  1.0409
   36POPC  H16Z 4904   1.092   7.137   7.469 -0.2557  1.7513 -0.6179
   37POPC     N 4905   3.070   3.452   5.560 -0.5728 -0.1960 -0.4060
   37POPC   C12 4906   3.167   3.403   5.664 -0.4425  0.1563 -0.5304
   37POPC  H12A 4907   3.157   3.468   5.750  1.2103 -1.0505  0.6548
   37POPC  H12B 4908   3.268   3.412   5.628 -0.5009  1.0953 -0.4983
   37POPC   C13 4909   2.932   3.446   5.610  0.9235 -0.0356 -0.2521
   37POPC  H13A 4910   2.920   3.341   5.634  3.0018 -0.4944 -0.9817
   37POPC  H13B 4911   2.921   3.507   5.699 -2.0163  0.1105 -0.6176
   37POPC  H13C 4912   2.855   3.480   5.543  0.6735  1.4024  0.7188
   37POPC   C14 4913   3.105   3.592   5.524  0.2731 -0.4508  0.0111
   37POPC  H14A 4914   3.211   3.596   5.508  0.4511  1.3012  1.4101
   37POPC  H14B 4915   3.064   3.618   5.427  0.7285  0.1339 -0.0272
   37POPC  H14C 4916   3.075   3.663   5.599  0.0781  0.2944 -0.7598
   37POPC   C15 4917   3.085   3.363   5.434 -0.6205 -0.4631 -0.9369
   37POPC  H15A 4918   3.091   3.257   5.456  0.5437 -0.5899 -1.7748
   37POPC  H15B 4919   3.182   3.379   5.389 -0.1777 -0.0248  0.1600
   37POPC  H15C 4920   3.013   3.391   5.358  0.6793  3.8162 -0.8360
   37POPC   C11 4921   3.152   3.265   5.718  0.8043  0.1035 -0.5315
   37POPC  H11A 4922   3.244   3.247   5.779  0.3003 -2.0883 -0.3485
   37POPC  H11B 4923   3.150   3.187   5.639  0.4693 -2.6797  2.0381
   37POPC     P 4924   3.034   3.165   5.934 -0.0352 -0.6305  0.1452
   37POPC   O13 4925   3.048   3.021   5.906  0.0970  0.3221  0.2543
   37POPC   O14 4926   2.914   3.206   6.005 -0.2096 -0.3235 -0.0254
   37POPC   O12 4927   3.034   3.251   5.802  0.0579  0.3156 -0.2444
   37POPC   O11 4928   3.165   3.202   6.009 -0.4529  0.4387 -0.3229
   37POPC    C1 4929   3.211   3.338   6.039  0.6518 -0.0054  0.4908
   37POPC    HA 4930   3.182   3.406   5.956  1.1419  1.5054  1.5074
   37POPC    HB 4931   3.322   3.331   6.030  0.7192 -0.8564  1.7566
   37POPC    C2 4932   3.173   3.397   6.178 -0.0616 -0.4065  0.3036
   37POPC    HS 4933   3.250   3.464   6.222  1.1296 -0.0978 -2.0744
   37POPC   O21 4934   3.147   3.287   6.267 -0.1486 -0.3528  0.4277
   37POPC   C21 4935   3.253   3.207   6.289  0.7006 -0.0269 -0.0519
   37POPC   O22 4936   3.368   3.238   6.264  0.2523 -0.1932 -0.1200
   37POPC   C22 4937   3.202   3.080   6.368 -0.8896 -0.4977  0.5743
   37POPC   H2R 4938   3.154   3.015   6.293 -0.3735 -1.0825  0.7429
   37POPC   H2S 4939   3.127   3.098   6.448  1.2428  0.1645  2.5256
   37POPC    C3 4940   3.053   3.499   6.172  0.5689  0.0246  0.4508
   37POPC    HX 4941   2.971   3.466   6.105 -0.6782  0.9019  1.4970
   37POPC    HY 4942   3.093   3.580   6.106  0.5139 -1.3177 -1.2903
   37POPC   O31 4943   2.993   3.534   6.299 -0.7826 -0.0234 -0.1481
   37POPC   C31 4944   3.061   3.621   6.367  0.0008  0.2586  0.8690
   37POPC   O32 4945   3.151   3.688   6.321 -0.0162  0.6915  0.7360
   37POPC   C32 4946   3.010   3.627   6.515  0.0469  0.5840  0.9101
   37POPC   H2X 4947   2.902   3.601   6.510  0.2055  0.0930 -0.1422
   37POPC   H2Y 4948   3.024   3.733   6.547  1.1628  0.8432 -0.3568
   37POPC   C23 4949   3.326   2.998   6.419 -0.2873 -0.0185  0.1283
   37POPC   H3R 4950   3.419   3.052   6.447  1.7777 -1.7135 -2.8853
   37POPC   H3S 4951   3.369   2.937   6.337  0.3938 -0.3027  0.6835
   37POPC   C24 4952   3.289   2.905   6.536  0.0036 -0.3133 -0.3879
   37POPC   H4R 4953   3.244   2.813   6.492  0.2099 -0.3906 -0.4373
   37POPC   H4S 4954   3.208   2.943   6.601 -1.9869 -2.6131 -1.3553
   37POPC   C25 4955   3.415   2.859   6.610  0.4970  0.2711  0.2492
   37POPC   H5R 4956   3.467   2.949   6.649  0.6014 -0.0967  0.9770
   37POPC   H5S 4957   3.480   2.825   6.526 -0.3070 -0.0312 -0.2676
   37POPC   C26 4958   3.391   2.748   6.714 -0.9080 -0.1493  0.4340
   37POPC   H6R 4959   3.482   2.689   6.737 -0.0242  1.6784  1.8768
   37POPC   H6S 4960   3.330   2.672   6.661 -0.4047  0.0722 -0.4826
   37POPC   C27 4961   3.320   2.802   6.844 -0.7573  0.2694 -0.3755
   37POPC   H7R 4962   3.219   2.840   6.816 -2.4690 -2.1614  1.9909
   37POPC   H7S 4963   3.375   2.879   6.903  0.3060  1.5892 -2.9405
   37POPC   C28 4964   3.286   2.680   6.927  0.5689  0.2681  0.7580
   37POPC   H8R 4965   3.252   2.601   6.857 -0.7347  0.7481  0.8115
   37POPC   H8S 4966   3.199   2.721   6.982 -1.0535  1.2838 -2.3497
   37POPC   C29 4967   3.389   2.615   7.015 -0.2136 -0.0422  0.4999
   37POPC   H91 4968   3.491   2.645   6.988  0.2066 -1.7721  0.0110
   37POPC  C210 4969   3.364   2.538   7.123  0.1077 -0.2547 -0.0511
   37POPC  H101 4970   3.447   2.504   7.186  0.1854 -0.4919 -0.2805
   37POPC  C211 4971   3.233   2.504   7.174 -0.3508 -0.0712  0.5779
   37POPC  H11R 4972   3.216   2.395   7.189  0.2040  0.0282  2.0824
   37POPC  H11S 4973   3.151   2.534   7.105  1.0721  0.2693 -1.0443
   37POPC  C212 4974   3.205   2.571   7.312  0.2025 -0.4595  0.3453
   37POPC  H12R 4975   3.287   2.541   7.381 -0.2211 -0.0848  1.0065
   37POPC  H12S 4976   3.113   2.520   7.348  0.2669 -1.0584 -0.3058
   37POPC  C213 4977   3.186   2.720   7.293  0.7321  0.4873 -0.9860
   37POPC  H13R 4978   3.091   2.736   7.237  1.2098 -1.0842 -2.3226
   37POPC  H13S 4979   3.265   2.768   7.232  1.6474 -0.2970 -0.4511
   37POPC  C214 4980   3.164   2.787   7.428 -0.5044 -0.2181 -0.3003
   37POPC  H14R 4981   3.087   2.730   7.484  0.5865  0.7593  2.3129
   37POPC  H14S 4982   3.135   2.889   7.395  1.7200  0.0708 -1.5764
   37POPC  C215 4983   3.281   2.795   7.522 -0.3034  0.4331  0.4114
   37POPC  H15R 4984   3.371   2.831   7.468 -1.3078  0.2703 -1.4617
   37POPC  H15S 4985   3.307   2.692   7.555 -1.1783  0.2854  0.6811
   37POPC  C216 4986   3.267   2.875   7.647  0.9438  0.0588 -0.0701
   37POPC  H16R 4987   3.363   2.870   7.701  0.9298  2.7622  0.3548
   37POPC  H16S 4988   3.182   2.824   7.697 -0.2328  0.6761 -1.3505
   37POPC  C217 4989   3.224   3.024   7.635 -0.0296 -0.0042  0.1266
   37POPC  H17R 4990   3.130   3.021   7.577  0.5477  0.9782 -0.8926
   37POPC  H17S 4991   3.298   3.089   7.584 -1.8690  0.7981 -1.6591
   37POPC  C218 4992   3.192   3.082   7.775  0.5160  0.6830 -0.3428
   37POPC  H18R 4993   3.116   3.018   7.826  0.8465  0.7666  0.2607
   37POPC  H18S 4994   3.155   3.186   7.763 -3.4055 -0.5611 -0.4632
   37POPC  H18T 4995   3.278   3.075   7.845 -1.6733 -1.8452  2.3726
   37POPC   C33 4996   3.063   3.525   6.615 -0.7898 -0.3829  0.5233
   37POPC   H3X 4997   3.042   3.562   6.717 -1.4728  0.4119  0.1114
   37POPC   H3Y 4998   3.173   3.520   6.609 -0.8751 -1.7928 -0.5410
   37POPC   C34 4999   3.009   3.384   6.603  0.6232  0.1281  0.0840
   37POPC   H4X 5000   3.052   3.323   6.520 -0.1333 -2.4585  1.4839
   37POPC   H4Y 5001   2.899   3.383   6.588  0.8108  1.2937 -1.7144
   37POPC   C35 5002   3.034   3.301   6.733  0.2375  0.7017  0.1373
   37POPC   H5X 5003   2.976   3.209   6.715  1.2393 -0.0189  0.5071
   37POPC   H5Y 5004   2.976   3.354   6.811  0.5480  4.3934 -1.8918
   37POPC   C36 5005   3.177   3.282   6.780 -0.1640 -0.6868  0.3360
   37POPC   H6X 5006   3.216   3.375   6.826 -1.1664 -0.0354 -0.0873
   37POPC   H6Y 5007   3.247   3.278   6.695 -0.3967  1.6704 -0.0384
   37POPC   C37 5008   3.204   3.162   6.872  0.4220 -0.8234 -0.5981
   37POPC   H7X 5009   3.221   3.074   6.806 -0.1044  0.5282 -2.6293
   37POPC   H7Y 5010   3.116   3.142   6.938 -1.6435  0.8518 -2.6546
   37POPC   C38 5011   3.316   3.200   6.970 -0.3086 -0.0766 -0.0916
   37POPC   H8X 5012   3.302   3.301   7.014 -0.0133 -0.2068  0.2997
   37POPC   H8Y 5013   3.412   3.196   6.914  0.2431 -4.6799  0.8588
   37POPC   C39 5014   3.330   3.098   7.084  0.4895 -0.0264  0.8072
   37POPC   H9X 5015   3.362   2.996   7.054 -2.1402 -0.6140 -0.2969
   37POPC   H9Y 5016   3.230   3.068   7.122  0.5994 -1.0717  0.3081
   37POPC  C310 5017   3.427   3.154   7.185  0.1696  0.3628 -0.9388
   37POPC  H10X 5018   3.385   3.241   7.240 -1.6840 -1.0124 -0.0931
   37POPC  H10Y 5019   3.527   3.180   7.143  1.1065 -0.7311  0.5464
   37POPC  C311 5020   3.448   3.048   7.301  0.4168 -0.2055 -0.6389
   37POPC  H11X 5021   3.470   2.947   7.261 -0.7991 -1.0613  0.7426
   37POPC  H11Y 5022   3.363   3.041   7.372  0.4775  1.2699 -0.3819
   37POPC  C312 5023   3.573   3.090   7.390 -0.0126  0.7964  0.8070
   37POPC  H12X 5024   3.551   3.186   7.441  0.9849  1.7836 -0.5555
   37POPC  H12Y 5025   3.663   3.101   7.327 -1.2471  0.8818 -1.0064
   37POPC  C313 5026   3.600   2.980   7.496  0.4664 -0.4007  0.3819
   37POPC  H13X 5027   3.612   2.883   7.443 -0.2777  0.5281 -1.5939
   37POPC  H13Y 5028   3.505   2.976   7.554  0.6577  2.2239  1.0070
   37POPC  C314 5029   3.711   3.014   7.600  0.0130 -0.4900  0.5388
   37POPC  H14X 5030   3.807   3.039   7.551 -0.9304 -0.5507 -1.4402
   37POPC  H14Y 5031   3.722   2.927   7.667 -0.1335  0.1065  1.3508
   37POPC  C315 5032   3.675   3.135   7.686 -0.1686  0.9171 -0.3412
   37POPC  H15X 5033   3.568   3.124   7.715 -0.3936 -0.8135 -1.6516
   37POPC  H15Y 5034   3.684   3.224   7.620  2.5207  0.3136 -0.8912
   37POPC  C316 5035   3.768   3.160   7.807  1.2262 -0.2503  0.4754
   37POPC  H16X 5036   3.734   3.254   7.856  1.5616 -0.5056  1.2219
   37POPC  H16Y 5037   3.874   3.163   7.777  0.6698 -0.8013 -1.7270
   37POPC  H16Z 5038   3.753   3.085   7.888 -0.4284 -0.1450  0.3182
   38POPC     N 5039   3.852   5.823   5.560 -0.3424 -0.1626 -0.1178
   38POPC   C12 5040   3.843   5.791   5.709 -0.2463  0.4640  0.4607
   38POPC  H12A 5041   3.739   5.772   5.728 -0.0117 -2.2671 -0.6299
   38POPC  H12B 5042   3.865   5.874   5.775 -0.8962 -1.6233  3.4789
   38POPC   C13 5043   3.819   5.705   5.468 -0.0650 -0.3408  0.6786
   38POPC  H13A 5044   3.851   5.737   5.370  1.1332  1.7582  1.6881
   38POPC  H13B 5045   3.885   5.628   5.503  0.7415 -0.5607 -1.1703
   38POPC  H13C 5046   3.711   5.696   5.468 -0.2568  1.5352  0.1689
   38POPC   C14 5047   3.759   5.935   5.529  0.2827 -0.2027 -0.0458
   38POPC  H14A 5048   3.668   5.903   5.578 -0.3265 -0.4914 -1.3217
   38POPC  H14B 5049   3.802   6.028   5.562 -2.3851  0.9457  0.4576
   38POPC  H14C 5050   3.742   5.949   5.424  3.0175  0.7450 -0.4121
   38POPC   C15 5051   3.990   5.873   5.533  0.0059 -0.2197 -0.2898
   38POPC  H15A 5052   4.024   5.956   5.593 -1.1940 -0.5302  0.8718
   38POPC  H15B 5053   4.009   5.899   5.430  1.0790 -0.9442 -0.2933
   38POPC  H15C 5054   4.067   5.802   5.559 -1.0413 -0.4250  2.5464
   38POPC   C11 5055   3.932   5.675   5.754 -0.3425 -0.5322  0.1357
   38POPC  H11A 5056   3.920   5.664   5.864 -1.2391  0.0846  0.1123
   38POPC  H11B 5057   4.039   5.704   5.745 -1.0286  1.6999 -1.7010
   38POPC     P 5058   3.780   5.460   5.707 -0.3258  0.1935  0.4120
   38POPC   O13 5059   3.800   5.316   5.675 -0.0074  0.0519 -0.2665
   38POPC   O14 5060   3.673   5.530   5.637 -0.2115 -0.2511 -0.1120
   38POPC   O12 5061   3.915   5.545   5.686  0.1014 -0.8230 -0.0842
   38POPC   O11 5062   3.759   5.471   5.864  0.6614  0.4830  0.6969
   38POPC    C1 5063   3.640   5.506   5.931  0.2544  0.9052  0.5751
   38POPC    HA 5064   3.600   5.411   5.973  0.9768  1.4087  2.5117
   38POPC    HB 5065   3.566   5.547   5.858  0.2052  0.6039  0.4546
   38POPC    C2 5066   3.662   5.602   6.040 -1.0152  0.3301 -0.1918
   38POPC    HS 5067   3.759   5.656   6.030 -1.2224  1.0585  1.4359
   38POPC   O21 5068   3.643   5.532   6.169  0.0904 -0.3839 -0.5048
   38POPC   C21 5069   3.753   5.534   6.247  0.2076 -0.0361  0.2900
   38POPC   O22 5070   3.858   5.561   6.191  0.3150  0.7206 -0.8975
   38POPC   C22 5071   3.719   5.492   6.387 -0.1247  0.2399 -0.5582
   38POPC   H2R 5072   3.802   5.422   6.411 -0.1822  1.0356  2.3120
   38POPC   H2S 5073   3.628   5.430   6.376  0.0565  0.2609 -2.5927
   38POPC    C3 5074   3.563   5.721   6.033 -0.1951 -0.7216 -0.2782
   38POPC    HX 5075   3.461   5.678   6.026 -1.2221  1.6666 -0.8878
   38POPC    HY 5076   3.578   5.786   5.945 -0.0898 -0.1253  0.1755
   38POPC   O31 5077   3.571   5.801   6.159  0.0859  0.2560  0.8329
   38POPC   C31 5078   3.474   5.890   6.155 -0.5007  0.3760 -0.0087
   38POPC   O32 5079   3.402   5.917   6.063  0.1674  0.0657  0.0563
   38POPC   C32 5080   3.466   5.943   6.301 -0.6190  0.5201  0.5522
   38POPC   H2X 5081   3.565   5.931   6.350 -0.9252 -1.1712  0.8139
   38POPC   H2Y 5082   3.390   5.877   6.348 -0.7035  1.1844  1.3766
   38POPC   C23 5083   3.713   5.601   6.490  0.3191  1.2365  0.8854
   38POPC   H3R 5084   3.666   5.573   6.587  1.0399  1.6474  1.3684
   38POPC   H3S 5085   3.655   5.688   6.453  0.7262  0.6077 -1.3327
   38POPC   C24 5086   3.845   5.661   6.522  0.3716 -0.2113 -0.7000
   38POPC   H4R 5087   3.903   5.694   6.433  1.1631 -1.5138 -0.6853
   38POPC   H4S 5088   3.915   5.584   6.560 -0.5874 -0.8384 -0.1668
   38POPC   C25 5089   3.849   5.767   6.634 -0.1888  0.1065 -0.0445
   38POPC   H5R 5090   3.772   5.840   6.598  1.0977  0.7560 -1.6346
   38POPC   H5S 5091   3.947   5.820   6.629 -0.4650  0.9346  2.2989
   38POPC   C26 5092   3.821   5.720   6.772 -0.5550 -0.8542  0.0551
   38POPC   H6R 5093   3.888   5.634   6.793  0.7651  0.2315  0.4777
   38POPC   H6S 5094   3.714   5.693   6.779 -0.7665 -0.1579 -0.3975
   38POPC   C27 5095   3.852   5.829   6.881 -0.2287  0.5147  0.1906
   38POPC   H7R 5096   3.773   5.905   6.863 -0.8933  0.0108  0.9175
   38POPC   H7S 5097   3.954   5.858   6.846 -0.6158  0.6377 -0.8593
   38POPC   C28 5098   3.858   5.780   7.031  0.2842  1.1054  0.5698
   38POPC   H8R 5099   3.956   5.728   7.037  0.1349  0.8873  1.2338
   38POPC   H8S 5100   3.780   5.703   7.046 -0.0196  1.0124 -1.2687
   38POPC   C29 5101   3.853   5.891   7.137 -0.6237  0.4661 -0.9632
   38POPC   H91 5102   3.752   5.934   7.139 -1.2725 -0.9522  2.1711
   38POPC  C210 5103   3.941   5.926   7.237 -0.0608  0.0191 -0.2596
   38POPC  H101 5104   3.915   6.015   7.297  1.3188 -0.9185  1.8831
   38POPC  C211 5105   4.080   5.874   7.268  0.5370  0.3031  0.8561
   38POPC  H11R 5106   4.130   5.861   7.170 -0.9629  0.0781  0.0889
   38POPC  H11S 5107   4.073   5.780   7.327 -2.3347  0.4843  0.9280
   38POPC  C212 5108   4.151   5.975   7.357 -0.4260  0.4435 -0.9136
   38POPC  H12R 5109   4.156   6.078   7.316  0.4049 -0.4819 -3.3546
   38POPC  H12S 5110   4.256   5.937   7.351 -0.7814 -0.4300 -1.8787
   38POPC  C213 5111   4.103   5.976   7.501  0.3058  0.0180  0.0449
   38POPC  H13R 5112   4.116   5.878   7.551 -1.1730  0.1346  0.7094
   38POPC  H13S 5113   3.995   6.002   7.491  0.0574 -1.0789 -0.1788
   38POPC  C214 5114   4.180   6.091   7.588  0.2549  0.4295 -0.2571
   38POPC  H14R 5115   4.142   6.089   7.692  0.2308  1.5802 -0.2312
   38POPC  H14S 5116   4.152   6.193   7.553 -0.7044  1.3143  2.7767
   38POPC  C215 5117   4.330   6.080   7.585  0.2381  0.1758 -0.4752
   38POPC  H15R 5118   4.354   6.088   7.477  2.7763 -0.9523 -0.0689
   38POPC  H15S 5119   4.361   5.982   7.625 -1.7078  0.6221  2.5323
   38POPC  C216 5120   4.405   6.187   7.667  0.6481  0.7251 -0.2033
   38POPC  H16R 5121   4.378   6.178   7.775 -2.1900  1.5333 -0.7536
   38POPC  H16S 5122   4.371   6.288   7.635 -0.9916  0.1651 -0.3049
   38POPC  C217 5123   4.559   6.169   7.656 -0.0538  0.9303  0.4468
   38POPC  H17R 5124   4.600   6.270   7.678 -0.5304  1.4358 -0.9103
   38POPC  H17S 5125   4.576   6.151   7.548 -0.7548  0.3462  0.4331
   38POPC  C218 5126   4.614   6.052   7.738  0.4875 -0.2510 -0.3089
   38POPC  H18R 5127   4.652   6.099   7.831 -0.1834  2.9912 -1.5459
   38POPC  H18S 5128   4.703   6.005   7.692 -0.1240 -0.3694 -1.4067
   38POPC  H18T 5129   4.536   5.976   7.759  1.0408 -0.2129  2.2012
   38POPC   C33 5130   3.425   6.089   6.302  0.0645 -0.1090  0.4646
   38POPC   H3X 5131   3.320   6.112   6.273 -1.2636 -4.4818  1.1987
   38POPC   H3Y 5132   3.489   6.143   6.229 -1.2322 -1.1445 -1.5263
   38POPC   C34 5133   3.443   6.156   6.435 -0.5187 -1.0070  0.5012
   38POPC   H4X 5134   3.398   6.257   6.432  2.1914  0.3320  1.3580
   38POPC   H4Y 5135   3.551   6.174   6.451 -0.7987  0.7744  0.5759
   38POPC   C35 5136   3.394   6.076   6.559  0.4914 -0.4833  0.4164
   38POPC   H5X 5137   3.443   5.977   6.577  1.6870  0.2672  1.4651
   38POPC   H5Y 5138   3.288   6.055   6.534  1.1334  0.3664 -3.6847
   38POPC   C36 5139   3.429   6.154   6.687  0.0783  0.2126 -0.5403
   38POPC   H6X 5140   3.371   6.249   6.685  1.1843  0.9043 -0.4539
   38POPC   H6Y 5141   3.534   6.184   6.674  0.2485 -0.7840 -1.6933
   38POPC   C37 5142   3.404   6.066   6.802 -0.2428 -0.1312 -0.6734
   38POPC   H7X 5143   3.475   5.981   6.792 -0.9301 -0.6506 -1.2391
   38POPC   H7Y 5144   3.302   6.023   6.809  0.2302 -1.0350  1.6400
   38POPC   C38 5145   3.439   6.139   6.934  0.5551 -0.2255 -0.3885
   38POPC   H8X 5146   3.361   6.214   6.958 -2.1413 -2.1419 -2.5422
   38POPC   H8Y 5147   3.534   6.197   6.935  0.2442  0.3348  1.2536
   38POPC   C39 5148   3.458   6.045   7.052  0.5090  0.3044 -0.1668
   38POPC   H9X 5149   3.537   5.976   7.017 -0.7873 -1.9349  1.0583
   38POPC   H9Y 5150   3.363   5.988   7.067  0.7452  0.0543  0.3886
   38POPC  C310 5151   3.492   6.104   7.187 -0.7095 -0.0872 -0.2449
   38POPC  H10X 5152   3.404   6.166   7.216 -1.2086 -0.5119 -0.8106
   38POPC  H10Y 5153   3.582   6.168   7.178 -0.6786 -0.0235  0.4465
   38POPC  C311 5154   3.513   6.002   7.304  0.0380  0.2843  0.3526
   38POPC  H11X 5155   3.584   5.924   7.269 -0.1196 -0.1052  0.8924
   38POPC  H11Y 5156   3.416   5.953   7.323  0.0651  1.4108  4.2547
   38POPC  C312 5157   3.550   6.089   7.428  0.3706  0.9684  0.0799
   38POPC  H12X 5158   3.453   6.133   7.461 -0.0270 -0.9297  1.6231
   38POPC  H12Y 5159   3.626   6.162   7.395 -0.4405  0.7165 -2.5969
   38POPC  C313 5160   3.625   6.003   7.533  1.1094  0.0246  0.0853
   38POPC  H13X 5161   3.679   5.917   7.487  0.4181 -1.1712  1.4433
   38POPC  H13Y 5162   3.541   5.964   7.594  0.5546 -1.1450 -1.3506
   38POPC  C314 5163   3.728   6.086   7.612 -0.2946 -1.0741  0.0073
   38POPC  H14X 5164   3.666   6.166   7.657 -0.4285 -0.1758 -1.7000
   38POPC  H14Y 5165   3.804   6.125   7.541 -1.1795  0.3079 -0.1979
   38POPC  C315 5166   3.791   6.002   7.732  0.0672 -0.2400  0.1054
   38POPC  H15X 5167   3.876   6.060   7.774  2.2538 -2.1651 -1.3837
   38POPC  H15Y 5168   3.837   5.912   7.686  1.0978  1.0197 -1.4350
   38POPC  C316 5169   3.691   5.976   7.848 -0.3209  0.5769 -0.0610
   38POPC  H16X 5170   3.591   5.957   7.804 -0.4592 -0.7097  0.7483
   38POPC  H16Y 5171   3.675   6.062   7.916  0.7505  0.5779  0.2191
   38POPC  H16Z 5172   3.729   5.891   7.909 -2.2196  1.3211  2.2700
   39POPC     N 5173   2.053   2.526   5.499 -0.0346  0.3094  0.1476
   39POPC   C12 5174   2.039   2.619   5.615  0.8659  0.1827  0.2095
   39POPC  H12A 5175   1.936   2.651   5.621  1.0536  1.0037 -0.6781
   39POPC  H12B 5176   2.091   2.711   5.591 -0.3499  0.3488 -2.1066
   39POPC   C13 5177   2.194   2.488   5.479 -0.2411  0.1921  0.4947
   39POPC  H13A 5178   2.238   2.422   5.552 -2.2781 -1.3857  0.3602
   39POPC  H13B 5179   2.206   2.434   5.386 -2.5145  0.4906 -0.0383
   39POPC  H13C 5180   2.258   2.574   5.463 -0.4160  0.1235 -0.6712
   39POPC   C14 5181   1.973   2.402   5.515  0.5460  0.6058  0.5147
   39POPC  H14A 5182   1.867   2.417   5.526  0.0205 -2.4235  0.3706
   39POPC  H14B 5183   1.971   2.337   5.429 -0.8920  1.6204 -0.2542
   39POPC  H14C 5184   2.000   2.350   5.606 -3.1648  0.0028  1.4191
   39POPC   C15 5185   1.999   2.592   5.375 -0.2094 -0.1144 -0.7976
   39POPC  H15A 5186   1.893   2.612   5.380  0.1106  1.3889  0.4378
   39POPC  H15B 5187   2.013   2.529   5.288  2.1056 -0.6580 -0.1049
   39POPC  H15C 5188   2.048   2.687   5.361  0.4548 -0.2980  0.1803
   39POPC   C11 5189   2.089   2.561   5.749  0.4095 -0.0590  1.0098
   39POPC  H11A 5190   2.053   2.457   5.762 -0.6445  0.0106 -0.9727
   39POPC  H11B 5191   2.029   2.617   5.825 -1.2507 -2.2781  1.4524
   39POPC     P 5192   2.275   2.744   5.797  0.2908  0.3664 -0.0760
   39POPC   O13 5193   2.225   2.832   5.694 -0.0873 -0.2790  0.1832
   39POPC   O14 5194   2.423   2.737   5.811  0.2466 -0.0961 -0.6903
   39POPC   O12 5195   2.223   2.593   5.768 -0.0035 -0.2793 -0.4409
   39POPC   O11 5196   2.203   2.780   5.930 -0.1561 -0.1918  0.1882
   39POPC    C1 5197   2.238   2.719   6.055 -0.2459  0.3675  0.3099
   39POPC    HA 5198   2.224   2.793   6.136  0.0666 -2.0689  2.7283
   39POPC    HB 5199   2.343   2.684   6.063 -1.1893 -2.2466  2.8405
   39POPC    C2 5200   2.142   2.605   6.103  0.3457  0.1456  0.5865
   39POPC    HS 5201   2.161   2.524   6.030 -2.4468  1.7098 -2.1153
   39POPC   O21 5202   2.002   2.648   6.093 -0.1075  0.3240  0.0889
   39POPC   C21 5203   1.914   2.546   6.115  0.7457 -0.4842 -0.5685
   39POPC   O22 5204   1.940   2.430   6.100  0.1372  0.6206 -0.0518
   39POPC   C22 5205   1.779   2.599   6.160 -0.3776  0.0609  0.0508
   39POPC   H2R 5206   1.700   2.524   6.139  2.5849 -3.4069  0.2589
   39POPC   H2S 5207   1.754   2.697   6.113 -0.3910  1.6717  3.1157
   39POPC    C3 5208   2.176   2.551   6.251 -0.1292 -0.6147  0.1646
   39POPC    HX 5209   2.272   2.496   6.251 -0.8159 -1.8551  0.8314
   39POPC    HY 5210   2.108   2.468   6.279  1.3214 -1.7837  0.3511
   39POPC   O31 5211   2.166   2.649   6.354  0.1528 -0.4591 -0.5138
   39POPC   C31 5212   2.278   2.705   6.394  0.0694 -0.4148 -0.2466
   39POPC   O32 5213   2.389   2.684   6.360  0.1732 -0.5365  0.0707
   39POPC   C32 5214   2.246   2.792   6.511  0.0909 -0.5061 -0.7617
   39POPC   H2X 5215   2.157   2.752   6.564 -2.0547  4.1174 -0.4117
   39POPC   H2Y 5216   2.326   2.788   6.588  0.4639  0.4390 -1.0812
   39POPC   C23 5217   1.778   2.643   6.313  0.1860  0.3001 -0.0573
   39POPC   H3R 5218   1.685   2.701   6.326  0.7321  1.5336 -1.3465
   39POPC   H3S 5219   1.862   2.715   6.328  0.4078  0.5772 -2.2622
   39POPC   C24 5220   1.778   2.524   6.412  0.0730  0.4167 -0.6170
   39POPC   H4R 5221   1.849   2.439   6.406 -0.4503 -0.2357  1.6020
   39POPC   H4S 5222   1.685   2.463   6.408  0.7568 -0.6104 -1.2280
   39POPC   C25 5223   1.778   2.579   6.559  0.4629  0.1556 -0.0262
   39POPC   H5R 5224   1.676   2.622   6.565  1.2722  2.3645 -1.1380
   39POPC   H5S 5225   1.861   2.651   6.574 -0.6577  1.3229  0.7952
   39POPC   C26 5226   1.791   2.462   6.658 -0.2121  0.2252 -0.4829
   39POPC   H6R 5227   1.889   2.411   6.650  0.1118  0.2035  2.3808
   39POPC   H6S 5228   1.710   2.389   6.639 -0.3079 -0.9255  3.4244
   39POPC   C27 5229   1.758   2.518   6.799  0.7997  0.5497 -0.1261
   39POPC   H7R 5230   1.667   2.581   6.800  1.0608  1.0431  2.9773
   39POPC   H7S 5231   1.845   2.582   6.827  1.5991 -0.0818 -1.1100
   39POPC   C28 5232   1.750   2.409   6.912  0.3489  1.0107  0.6269
   39POPC   H8R 5233   1.704   2.325   6.856  0.0215  2.0758 -0.7525
   39POPC   H8S 5234   1.670   2.438   6.984  0.5805 -0.6333  1.6140
   39POPC   C29 5235   1.878   2.374   6.984  0.0204 -0.0295 -0.1430
   39POPC   H91 5236   1.961   2.393   6.914 -0.1662 -2.3482 -1.1021
   39POPC  C210 5237   1.904   2.316   7.103  0.2314  0.2624 -0.1640
   39POPC  H101 5238   2.012   2.298   7.119 -0.0848 -2.5383 -0.6579
   39POPC  C211 5239   1.797   2.272   7.200  0.1794 -0.2750 -0.6309
   39POPC  H11R 5240   1.847   2.204   7.272 -0.9150 -2.1885 -1.5872
   39POPC  H11S 5241   1.721   2.216   7.142  1.3896 -2.0804 -0.5522
   39POPC  C212 5242   1.746   2.389   7.291 -0.0055  0.0370 -0.0367
   39POPC  H12R 5243   1.647   2.346   7.317 -0.4072  0.2571 -1.1453
   39POPC  H12S 5244   1.708   2.470   7.224  0.0120 -0.3893 -0.5765
   39POPC  C213 5245   1.833   2.422   7.414  0.4754  0.3262  0.0634
   39POPC  H13R 5246   1.937   2.439   7.378  0.5231 -1.3149 -0.6765
   39POPC  H13S 5247   1.840   2.333   7.479  2.5477 -0.1747 -0.7516
   39POPC  C214 5248   1.805   2.556   7.483 -0.4295 -0.1557  0.2344
   39POPC  H14R 5249   1.786   2.636   7.408  0.5773 -0.8308 -0.7684
   39POPC  H14S 5250   1.899   2.589   7.534 -0.8481 -1.1981  1.7197
   39POPC  C215 5251   1.696   2.549   7.583  0.3541 -0.0607  0.9006
   39POPC  H15R 5252   1.725   2.463   7.647  1.0646 -1.6711 -1.4396
   39POPC  H15S 5253   1.597   2.536   7.534  0.2961 -2.7656  1.5675
   39POPC  C216 5254   1.680   2.672   7.674 -0.3731  0.2960  0.3396
   39POPC  H16R 5255   1.782   2.704   7.702 -0.7202 -0.2424  2.3815
   39POPC  H16S 5256   1.633   2.637   7.769 -2.5246  0.2729 -0.6746
   39POPC  C217 5257   1.598   2.787   7.608 -0.0479  0.2164  0.3340
   39POPC  H17R 5258   1.494   2.759   7.583  0.4684  1.1417 -3.4258
   39POPC  H17S 5259   1.638   2.824   7.511 -2.3765  0.3901 -0.6181
   39POPC  C218 5260   1.587   2.910   7.695 -0.0921 -0.2109 -0.0985
   39POPC  H18R 5261   1.687   2.939   7.734 -0.7297  2.3421 -0.1334
   39POPC  H18S 5262   1.526   2.894   7.785 -0.7568 -0.3275 -0.5641
   39POPC  H18T 5263   1.552   3.001   7.640  0.4807 -0.8884 -1.6654
   39POPC   C33 5264   2.217   2.937   6.468 -0.5590 -0.1721  0.1282
   39POPC   H3X 5265   2.162   2.985   6.552 -0.5985 -1.6322  0.9686
   39POPC   H3Y 5266   2.153   2.939   6.377 -0.2805 -1.5543 -0.1185
   39POPC   C34 5267   2.346   3.021   6.457 -0.3554 -0.1076 -0.0967
   39POPC   H4X 5268   2.326   3.124   6.418  1.5442  0.5850  0.6515
   39POPC   H4Y 5269   2.425   2.965   6.402  1.1566  0.3662  1.5038
   39POPC   C35 5270   2.423   3.045   6.594 -0.3497  0.7176 -0.1251
   39POPC   H5X 5271   2.483   2.956   6.620  0.2030  1.0993 -0.0899
   39POPC   H5Y 5272   2.353   3.064   6.678  0.8617  0.6667  0.9214
   39POPC   C36 5273   2.540   3.147   6.571  0.6516  0.6852  0.1648
   39POPC   H6X 5274   2.506   3.248   6.540  1.0253  0.8055  0.1355
   39POPC   H6Y 5275   2.601   3.111   6.485  0.7314  1.2366 -0.0135
   39POPC   C37 5276   2.633   3.162   6.684 -0.4139 -0.4239 -0.5277
   39POPC   H7X 5277   2.717   3.225   6.648  0.1618  0.8586  2.6652
   39POPC   H7Y 5278   2.668   3.070   6.735  1.2698  0.2513 -0.3786
   39POPC   C38 5279   2.571   3.250   6.798  0.2035  0.3629  0.6330
   39POPC   H8X 5280   2.483   3.195   6.837 -0.1648 -0.8162 -1.6970
   39POPC   H8Y 5281   2.534   3.340   6.742 -0.0206  0.0004  0.1921
   39POPC   C39 5282   2.667   3.300   6.905  0.1735 -0.8886  0.3177
   39POPC   H9X 5283   2.595   3.351   6.973 -1.2701 -0.3753 -1.5158
   39POPC   H9Y 5284   2.725   3.385   6.864 -0.4560 -0.0835  1.0427
   39POPC  C310 5285   2.762   3.203   6.985  0.1905  0.4901 -0.6153
   39POPC  H10X 5286   2.824   3.149   6.910 -0.2967 -0.2010 -0.5330
   39POPC  H10Y 5287   2.692   3.129   7.029  1.8705  0.9655  3.2214
   39POPC  C311 5288   2.847   3.259   7.095 -0.0334  0.4796 -0.9194
   39POPC  H11X 5289   2.779   3.319   7.159 -1.1456 -0.0125 -1.6058
   39POPC  H11Y 5290   2.930   3.326   7.066  0.3672  2.2164  3.4555
   39POPC  C312 5291   2.915   3.154   7.183 -0.2735 -0.1792  0.2783
   39POPC  H12X 5292   2.967   3.080   7.118 -0.5261  0.3091 -0.4901
   39POPC  H12Y 5293   2.843   3.091   7.239  1.5887 -2.4801  0.2789
   39POPC  C313 5294   3.020   3.211   7.271 -0.3980 -0.7853 -0.6126
   39POPC  H13X 5295   3.064   3.297   7.216  1.3525 -1.4029 -0.2315
   39POPC  H13Y 5296   3.099   3.134   7.274  2.2276  1.7556  0.5516
   39POPC  C314 5297   2.961   3.254   7.413  0.2300  0.1058 -0.0352
   39POPC  H14X 5298   2.933   3.167   7.477 -0.3823 -0.2256 -0.7323
   39POPC  H14Y 5299   2.863   3.305   7.399  0.4807  0.0577 -2.5113
   39POPC  C315 5300   3.045   3.341   7.497 -0.1914 -0.7091  0.4297
   39POPC  H15X 5301   3.154   3.323   7.483  0.0880  0.1296  1.4036
   39POPC  H15Y 5302   3.027   3.318   7.604 -0.5946  1.8055  0.9762
   39POPC  C316 5303   3.023   3.487   7.459  0.3267 -0.3408  0.1904
   39POPC  H16X 5304   2.922   3.524   7.486 -0.7417 -1.5178 -1.9152
   39POPC  H16Y 5305   3.042   3.513   7.353 -0.3838 -0.2154  0.0917
   39POPC  H16Z 5306   3.096   3.554   7.511  2.0131  0.3074 -2.7278
   40POPC     N 5307   6.763   1.178   5.379  0.2832  0.2558 -0.2800
   40POPC   C12 5308   6.722   1.124   5.523  0.6790 -0.1743  0.2454
   40POPC  H12A 5309   6.724   1.213   5.585 -0.0803  1.4243 -1.8652
   40POPC  H12B 5310   6.799   1.062   5.565 -1.1809 -0.9356  2.7520
   40POPC   C13 5311   6.654   1.251   5.334  0.2106 -0.2548 -0.9392
   40POPC  H13A 5312   6.683   1.297   5.241  2.7602  0.8489  0.2801
   40POPC  H13B 5313   6.562   1.195   5.327 -0.4748  0.4120  1.5794
   40POPC  H13C 5314   6.628   1.324   5.410  0.9931 -1.5869  0.6744
   40POPC   C14 5315   6.885   1.264   5.394 -0.5248  0.5163 -0.2426
   40POPC  H14A 5316   6.876   1.349   5.460  2.8920  0.9224 -0.1158
   40POPC  H14B 5317   6.968   1.206   5.433 -0.6648 -0.3768 -1.2141
   40POPC  H14C 5318   6.919   1.302   5.299 -0.2778 -1.8610 -1.1565
   40POPC   C15 5319   6.792   1.066   5.286  0.3829 -0.2732  0.4379
   40POPC  H15A 5320   6.877   1.006   5.315 -0.4375 -1.6154  0.1187
   40POPC  H15B 5321   6.807   1.102   5.185  1.5023 -2.2803 -0.1826
   40POPC  H15C 5322   6.714   0.992   5.281  2.3874 -2.6566  2.1300
   40POPC   C11 5323   6.585   1.051   5.537  0.6167  0.2372  0.3721
   40POPC  H11A 5324   6.502   1.124   5.537 -0.1066 -0.5258  1.9771
   40POPC  H11B 5325   6.577   1.000   5.635 -0.9045 -0.1025  0.0997
   40POPC     P 5326   6.421   0.941   5.352 -0.0355  0.3554 -0.2697
   40POPC   O13 5327   6.441   0.837   5.251  0.2541 -0.1902  0.1765
   40POPC   O14 5328   6.384   1.075   5.306  0.3254  0.0525  0.1509
   40POPC   O12 5329   6.567   0.951   5.432 -0.0117  0.0600  0.0803
   40POPC   O11 5330   6.313   0.893   5.459  0.0576 -0.5869 -0.2787
   40POPC    C1 5331   6.331   0.772   5.525  0.4237  0.8760 -0.1258
   40POPC    HA 5332   6.393   0.787   5.617  1.7837 -0.2592 -0.8214
   40POPC    HB 5333   6.374   0.690   5.464  0.6575 -0.4407  1.6988
   40POPC    C2 5334   6.196   0.715   5.570 -0.0383  0.0535  0.8886
   40POPC    HS 5335   6.132   0.697   5.481  0.5545 -1.2350  0.7008
   40POPC   O21 5336   6.128   0.805   5.655 -0.4925  0.0396 -0.3257
   40POPC   C21 5337   6.020   0.771   5.720  0.5853  0.0026  0.5504
   40POPC   O22 5338   5.974   0.662   5.711  0.2331  0.7290 -0.0891
   40POPC   C22 5339   5.985   0.882   5.807 -0.0948  0.4289  0.3051
   40POPC   H2R 5340   5.874   0.880   5.814 -0.3957  1.3704 -2.9520
   40POPC   H2S 5341   6.011   0.982   5.766  1.4352  0.0263  0.2633
   40POPC    C3 5342   6.223   0.570   5.629  0.5172  0.4061 -0.2474
   40POPC    HX 5343   6.269   0.514   5.545 -0.2311  0.6853 -0.8540
   40POPC    HY 5344   6.127   0.515   5.645  1.0804 -0.6793 -0.5353
   40POPC   O31 5345   6.293   0.570   5.755  0.7061  0.6816  0.6101
   40POPC   C31 5346   6.427   0.543   5.755  0.1615  0.3026 -0.8828
   40POPC   O32 5347   6.493   0.526   5.657 -0.4879 -0.1767 -0.5514
   40POPC   C32 5348   6.472   0.559   5.898 -0.2324 -0.0245 -0.6502
   40POPC   H2X 5349   6.389   0.539   5.970 -0.6030  1.2888 -0.6807
   40POPC   H2Y 5350   6.499   0.664   5.919 -1.2735 -0.3275  2.8880
   40POPC   C23 5351   6.026   0.849   5.952 -0.5893 -0.2566 -0.1087
   40POPC   H3R 5352   5.987   0.746   5.969  1.0764 -1.1686 -1.4601
   40POPC   H3S 5353   5.988   0.928   6.020 -1.8412  0.0371 -1.1330
   40POPC   C24 5354   6.172   0.850   5.992 -0.0904  0.0488  0.1319
   40POPC   H4R 5355   6.183   0.959   6.012 -2.9974  0.6626 -1.0757
   40POPC   H4S 5356   6.236   0.817   5.908  2.4018  0.6827  1.6705
   40POPC   C25 5357   6.202   0.763   6.109  0.5139 -0.7923 -0.4105
   40POPC   H5R 5358   6.192   0.655   6.086 -1.1682 -0.3557 -1.8892
   40POPC   H5S 5359   6.129   0.792   6.188 -0.1970 -0.4501 -1.1823
   40POPC   C26 5360   6.349   0.786   6.166 -0.2340 -0.0440 -1.2227
   40POPC   H6R 5361   6.424   0.784   6.084  2.6602 -0.7035  1.3100
   40POPC   H6S 5362   6.357   0.698   6.232 -0.4307  0.2198 -0.8447
   40POPC   C27 5363   6.365   0.920   6.246  0.2511 -0.3319 -0.2816
   40POPC   H7R 5364   6.279   0.921   6.315 -2.0092  3.2863 -2.8124
   40POPC   H7S 5365   6.350   1.010   6.182  3.8054  1.1853  0.7822
   40POPC   C28 5366   6.502   0.935   6.310  0.2751  0.6092 -0.5487
   40POPC   H8R 5367   6.509   1.043   6.338  0.9752  0.4924 -0.2654
   40POPC   H8S 5368   6.590   0.913   6.246 -0.2686 -2.6164 -0.3119
   40POPC   C29 5369   6.498   0.856   6.439  0.8234 -0.1563  0.4221
   40POPC   H91 5370   6.423   0.776   6.431  0.0844  0.5529  0.1851
   40POPC  C210 5371   6.580   0.873   6.542  0.3764  0.6498  0.2148
   40POPC  H101 5372   6.577   0.805   6.629 -1.4778 -0.3514 -0.5612
   40POPC  C211 5373   6.684   0.977   6.556  0.7754 -0.4494 -0.2329
   40POPC  H11R 5374   6.641   1.077   6.537 -2.2162 -1.4454  0.7720
   40POPC  H11S 5375   6.776   0.960   6.495  1.3174 -1.3276  0.7835
   40POPC  C212 5376   6.741   0.990   6.699  0.2780  0.4812  0.4493
   40POPC  H12R 5377   6.772   0.887   6.725  0.4511  0.3271 -0.3512
   40POPC  H12S 5378   6.657   1.033   6.758 -0.9330 -3.0513  1.5391
   40POPC  C213 5379   6.849   1.090   6.686 -0.1419  0.1056 -0.0922
   40POPC  H13R 5380   6.811   1.184   6.642 -0.1960  0.0437 -0.1770
   40POPC  H13S 5381   6.922   1.052   6.611 -0.2577  0.5723 -0.4430
   40POPC  C214 5382   6.931   1.097   6.824 -0.3673 -0.0608  0.7910
   40POPC  H14R 5383   6.879   1.174   6.884 -0.9092  1.3799 -1.4037
   40POPC  H14S 5384   7.036   1.128   6.804 -0.8488  1.4853  0.5109
   40POPC  C215 5385   6.939   0.971   6.902 -0.1967 -0.4488 -0.5091
   40POPC  H15R 5386   7.006   0.896   6.854 -2.0659 -3.2320  0.9633
   40POPC  H15S 5387   6.842   0.919   6.914  0.0855 -1.8991 -3.5296
   40POPC  C216 5388   7.009   0.995   7.038 -1.2303  0.2376 -0.0022
   40POPC  H16R 5389   7.030   0.896   7.084  0.2773 -0.2049 -1.5487
   40POPC  H16S 5390   6.938   1.049   7.104 -1.7088  0.0683 -0.3711
   40POPC  C217 5391   7.148   1.061   7.030  0.2728 -0.0870  0.0314
   40POPC  H17R 5392   7.190   1.049   6.928  2.7314  0.9440  0.8496
   40POPC  H17S 5393   7.219   1.022   7.106  0.0368 -1.0851 -0.2377
   40POPC  C218 5394   7.140   1.214   7.056  0.4112  0.3461 -0.5395
   40POPC  H18R 5395   7.056   1.262   7.001 -0.0036 -0.4106 -0.5789
   40POPC  H18S 5396   7.238   1.250   7.018  0.1911  1.1572 -0.3718
   40POPC  H18T 5397   7.129   1.227   7.166 -0.0997  0.3879 -0.5915
   40POPC   C33 5398   6.587   0.465   5.935 -0.1654 -0.1738 -0.0105
   40POPC   H3X 5399   6.683   0.490   5.884  0.1383  3.3414  1.9842
   40POPC   H3Y 5400   6.565   0.358   5.913 -2.3436 -0.2279  2.1549
   40POPC   C34 5401   6.619   0.474   6.085 -0.5587 -0.1940 -0.1744
   40POPC   H4X 5402   6.616   0.582   6.110 -0.1886 -0.2738  0.2267
   40POPC   H4Y 5403   6.722   0.435   6.098 -0.0207  0.4366 -2.1187
   40POPC   C35 5404   6.520   0.393   6.170  0.1063 -0.1730  0.2385
   40POPC   H5X 5405   6.524   0.285   6.143 -3.1805  0.2650 -2.7423
   40POPC   H5Y 5406   6.416   0.433   6.167  0.3293  0.3603 -0.4721
   40POPC   C36 5407   6.569   0.375   6.313 -0.6066 -1.0757 -0.5938
   40POPC   H6X 5408   6.678   0.363   6.324 -0.3611  1.3127  0.0626
   40POPC   H6Y 5409   6.517   0.284   6.350  2.4684 -2.2954  1.0161
   40POPC   C37 5410   6.534   0.483   6.420  0.3293  1.0473  0.1932
   40POPC   H7X 5411   6.427   0.508   6.403  0.5864  0.5323 -2.7189
   40POPC   H7Y 5412   6.595   0.575   6.407  0.7078  1.0086  1.5655
   40POPC   C38 5413   6.559   0.425   6.564 -0.5353  1.1752 -1.0400
   40POPC   H8X 5414   6.597   0.509   6.627 -1.5176  0.9055 -0.0440
   40POPC   H8Y 5415   6.630   0.340   6.562 -0.8118  0.9614 -1.7334
   40POPC   C39 5416   6.430   0.371   6.627  0.0021  0.0470 -0.1353
   40POPC   H9X 5417   6.390   0.280   6.577 -0.5254 -0.8384  1.8123
   40POPC   H9Y 5418   6.355   0.452   6.619  0.7432  0.7304 -0.2618
   40POPC  C310 5419   6.454   0.322   6.768 -0.2934  0.0211 -1.0215
   40POPC  H10X 5420   6.531   0.383   6.821 -0.0091 -2.4580  1.6705
   40POPC  H10Y 5421   6.492   0.218   6.768  0.8393  0.4108 -0.2788
   40POPC  C311 5422   6.323   0.321   6.857 -0.4215  0.3658 -0.0628
   40POPC  H11X 5423   6.269   0.228   6.829  1.0170 -0.2321 -0.9780
   40POPC  H11Y 5424   6.252   0.405   6.844 -1.0904 -0.3636 -1.2962
   40POPC  C312 5425   6.354   0.313   7.010  0.0257 -0.1165 -0.3376
   40POPC  H12X 5426   6.440   0.382   7.024  1.5045 -0.9607 -3.9542
   40POPC  H12Y 5427   6.392   0.210   7.027 -0.4219 -0.1792  0.2945
   40POPC  C313 5428   6.248   0.345   7.113  0.6778  0.2941  0.3494
   40POPC  H13X 5429   6.154   0.293   7.084  1.4092 -1.7231  1.4286
   40POPC  H13Y 5430   6.229   0.454   7.103 -0.4282  0.1103  0.3254
   40POPC  C314 5431   6.279   0.324   7.259  0.7161  0.8107 -0.0555
   40POPC  H14X 5432   6.372   0.380   7.284  1.0071  0.0513  0.6350
   40POPC  H14Y 5433   6.296   0.215   7.273 -0.9932  0.3571 -1.2251
   40POPC  C315 5434   6.163   0.364   7.347  0.1406 -0.0754  0.8402
   40POPC  H15X 5435   6.068   0.320   7.309 -0.5571  1.0352  1.2473
   40POPC  H15Y 5436   6.160   0.475   7.354  0.9107  0.0417 -0.2752
   40POPC  C316 5437   6.192   0.321   7.491 -0.2978  0.3409 -0.4286
   40POPC  H16X 5438   6.211   0.212   7.493 -3.1230 -0.2583 -1.4763
   40POPC  H16Y 5439   6.104   0.348   7.554 -2.0107  1.7084 -3.2244
   40POPC  H16Z 5440   6.286   0.368   7.526  0.7844 -1.9588 -0.0940
   41CHL1    C3 5441   4.353   3.943   9.335 -0.7295  0.3904 -0.0727
   41CHL1    H3 5442   4.447   3.980   9.288 -0.7692  1.7988  0.8979
   41CHL1    O3 5443   4.389   3.879   9.458 -0.0601 -0.6982 -0.2284
   41CHL1   H3' 5444   4.404   3.951   9.520  2.8557  0.2969 -1.8846
   41CHL1    C4 5445   4.260   4.059   9.359 -0.3240  0.0808 -0.7150
   41CHL1   H4A 5446   4.163   4.014   9.390 -1.4462  1.2994 -2.2782
   41CHL1   H4B 5447   4.286   4.127   9.442 -0.3872  0.6305 -1.1405
   41CHL1    C5 5448   4.231   4.138   9.231 -0.8383  0.0771  1.0942
   41CHL1    C6 5449   4.267   4.269   9.218  0.1393 -0.0885  0.2690
   41CHL1    H6 5450   4.323   4.316   9.300  2.0518  1.6886 -1.9283
   41CHL1    C7 5451   4.236   4.355   9.091 -0.5158  0.0640  0.4818
   41CHL1   H7A 5452   4.208   4.460   9.115 -1.9877 -0.1325 -0.2983
   41CHL1   H7B 5453   4.330   4.362   9.032 -0.1454 -2.3858  0.6445
   41CHL1    C8 5454   4.132   4.283   8.991 -0.0871 -0.1460 -0.0113
   41CHL1    H8 5455   4.036   4.283   9.049  1.6134 -1.7639  3.0799
   41CHL1   C14 5456   4.130   4.364   8.856  0.0407  0.2566  0.3791
   41CHL1   H14 5457   4.236   4.359   8.821  0.7830  0.1220  2.5279
   41CHL1   C15 5458   4.093   4.510   8.856  0.3400  0.8459  0.1651
   41CHL1  H15A 5459   4.022   4.538   8.936 -1.3066  1.7090 -1.5061
   41CHL1  H15B 5460   4.183   4.574   8.869  1.2693 -0.1736 -0.9112
   41CHL1   C16 5461   4.051   4.539   8.714  0.0246 -0.1312 -0.4605
   41CHL1  H16A 5462   3.948   4.581   8.719  0.0132 -0.2470  0.7212
   41CHL1  H16B 5463   4.116   4.606   8.654 -3.7244  1.8383 -2.6852
   41CHL1   C17 5464   4.043   4.400   8.637  0.0999  0.4127  0.0662
   41CHL1   H17 5465   4.141   4.402   8.584 -0.7238 -0.6745 -1.5726
   41CHL1   C13 5466   4.036   4.297   8.751  0.2964 -0.6851 -0.5408
   41CHL1   C18 5467   3.889   4.304   8.804 -0.0254  0.5469  0.0524
   41CHL1  H18A 5468   3.831   4.225   8.752 -1.0540  0.5797  1.1173
   41CHL1  H18B 5469   3.881   4.267   8.908  2.0318 -0.4196 -0.0778
   41CHL1  H18C 5470   3.841   4.404   8.796  1.0897  1.0438 -0.9217
   41CHL1   C12 5471   4.079   4.151   8.729 -0.0537  0.3916  0.4496
   41CHL1  H12A 5472   4.006   4.107   8.657 -1.5950  3.5914 -0.1155
   41CHL1  H12B 5473   4.184   4.146   8.695  0.2921 -0.5258  1.6070
   41CHL1   C11 5474   4.076   4.071   8.873  0.2618  0.4868  0.2368
   41CHL1  H11A 5475   3.971   4.061   8.909  0.3565 -1.4832  0.0898
   41CHL1  H11B 5476   4.104   3.965   8.850  1.2472  0.4170  1.6516
   41CHL1    C9 5477   4.170   4.137   8.974  0.2255  0.5947  0.1818
   41CHL1    H9 5478   4.272   4.147   8.930 -0.6591  0.0452 -2.1578
   41CHL1   C10 5479   4.173   4.058   9.110 -0.7265 -0.1236  0.2299
   41CHL1   C19 5480   4.031   4.017   9.167  0.0956  0.3753  0.5527
   41CHL1  H19A 5481   4.033   3.940   9.247  0.3865  2.2257  2.4054
   41CHL1  H19B 5482   3.975   4.107   9.200  0.2814 -0.1947  2.5650
   41CHL1  H19C 5483   3.983   3.961   9.084  1.2331  1.5144 -0.9393
   41CHL1    C1 5484   4.258   3.925   9.103 -0.5317  1.1853 -0.2312
   41CHL1   H1A 5485   4.210   3.847   9.040 -1.2216 -0.6896  2.4525
   41CHL1   H1B 5486   4.354   3.959   9.058 -0.8169  1.2207 -0.8296
   41CHL1    C2 5487   4.295   3.849   9.232 -1.0713  0.8077  0.3985
   41CHL1   H2A 5488   4.372   3.772   9.211 -0.2712  2.2100 -2.3430
   41CHL1   H2B 5489   4.200   3.804   9.269  0.2934 -2.2088  0.4419
   41CHL1   C20 5490   3.937   4.410   8.520 -0.0373  0.0578  0.2470
   41CHL1   H20 5491   3.834   4.412   8.561 -0.1310 -0.9172  0.0816
   41CHL1   C21 5492   3.946   4.287   8.428  0.1728  0.8114 -0.1356
   41CHL1  H21A 5493   4.040   4.277   8.370 -0.6171  1.1442 -1.5076
   41CHL1  H21B 5494   3.860   4.282   8.358  0.0205  0.5849  0.0687
   41CHL1  H21C 5495   3.929   4.198   8.492  0.5029  1.1332  0.4088
   41CHL1   C22 5496   3.964   4.542   8.436 -0.0819  0.0623  0.0230
   41CHL1  H22A 5497   3.932   4.623   8.506 -0.7534 -1.2530  1.3098
   41CHL1  H22B 5498   4.070   4.556   8.408 -0.2796 -0.3565 -0.9464
   41CHL1   C23 5499   3.887   4.559   8.309  0.0896  0.4514 -0.4277
   41CHL1  H23A 5500   3.920   4.484   8.234 -1.9156  0.4140 -1.3248
   41CHL1  H23B 5501   3.779   4.549   8.332 -0.1731  2.2711 -0.7078
   41CHL1   C24 5502   3.897   4.708   8.269 -0.2228 -0.0677  0.1441
   41CHL1  H24A 5503   3.853   4.770   8.350 -1.8884 -0.0421 -0.7366
   41CHL1  H24B 5504   4.005   4.733   8.264 -0.3729  0.9189  1.1867
   41CHL1   C25 5505   3.834   4.744   8.125  0.0801 -0.0582 -0.2497
   41CHL1   H25 5506   3.893   4.688   8.049 -0.2192 -2.3254  1.0949
   41CHL1   C26 5507   3.679   4.722   8.101 -0.5733  0.3266 -0.5452
   41CHL1  H26A 5508   3.650   4.624   8.145  0.7891  0.4313  0.6224
   41CHL1  H26B 5509   3.620   4.808   8.139 -0.3600  0.6723 -0.9864
   41CHL1  H26C 5510   3.654   4.707   7.993  0.1968 -0.7637 -0.5918
   41CHL1   C27 5511   3.857   4.891   8.088  0.5569  0.5813 -0.1682
   41CHL1  H27A 5512   3.803   4.930   8.000  2.9090  1.1583 -1.4188
   41CHL1  H27B 5513   3.835   4.951   8.179  1.6197 -4.0964  3.6026
   41CHL1  H27C 5514   3.964   4.903   8.062  0.5498  0.9946 -0.0082
   42CHL1    C3 5515   2.976   4.073   9.317  0.3908  0.5141 -0.0733
   42CHL1    H3 5516   2.942   3.973   9.283  1.3964  0.4297 -0.8701
   42CHL1    O3 5517   2.992   4.060   9.455 -0.1144  0.3777 -0.0685
   42CHL1   H3' 5518   3.079   4.022   9.469 -1.4324 -2.3569  1.4698
   42CHL1    C4 5519   3.104   4.108   9.251  0.6872 -0.2382 -0.3929
   42CHL1   H4A 5520   3.142   4.204   9.292  3.0821  0.3189 -3.5125
   42CHL1   H4B 5521   3.179   4.029   9.270 -1.5267 -2.6174 -0.9119
   42CHL1    C5 5522   3.097   4.143   9.102 -0.4405 -0.1668  0.0680
   42CHL1    C6 5523   3.190   4.084   9.025 -0.7687  0.1813  0.0791
   42CHL1    H6 5524   3.258   4.011   9.071 -0.4432 -0.3924 -1.2744
   42CHL1    C7 5525   3.191   4.096   8.874 -0.2606 -0.3408 -0.6853
   42CHL1   H7A 5526   3.290   4.117   8.828 -0.8363  1.9457 -1.0341
   42CHL1   H7B 5527   3.156   3.999   8.833 -1.6955 -1.0318  1.9403
   42CHL1    C8 5528   3.090   4.209   8.819  0.1202 -0.2743 -0.7805
   42CHL1    H8 5529   3.147   4.303   8.836 -0.2274  0.0002 -1.1431
   42CHL1   C14 5530   3.053   4.195   8.668 -0.6329  0.1911  0.0639
   42CHL1   H14 5531   2.994   4.101   8.659  0.2679 -0.1596 -3.1909
   42CHL1   C15 5532   3.166   4.186   8.562  0.1810 -0.2855 -0.1255
   42CHL1  H15A 5533   3.244   4.261   8.589 -0.5425 -0.5073  3.0478
   42CHL1  H15B 5534   3.200   4.080   8.563 -1.3154 -0.8143 -1.1955
   42CHL1   C16 5535   3.088   4.224   8.428 -0.2459  0.6678 -0.5293
   42CHL1  H16A 5536   3.137   4.309   8.377 -0.1029  0.7815 -0.2050
   42CHL1  H16B 5537   3.088   4.141   8.354 -0.4134  1.4020 -1.3652
   42CHL1   C17 5538   2.947   4.262   8.462 -0.3979  0.0738 -0.1825
   42CHL1   H17 5539   2.889   4.168   8.452  0.4691 -0.4935  0.0336
   42CHL1   C13 5540   2.953   4.301   8.611  0.3025  0.2081  0.4001
   42CHL1   C18 5541   3.010   4.449   8.627 -0.0542  0.5611  0.4836
   42CHL1  H18A 5542   3.118   4.451   8.600 -0.9900  1.4802 -4.1280
   42CHL1  H18B 5543   2.959   4.525   8.564 -3.9817 -2.8020 -0.8197
   42CHL1  H18C 5544   3.004   4.478   8.734 -0.6390  1.1790  0.2923
   42CHL1   C12 5545   2.823   4.270   8.691 -0.0235 -0.1162 -0.0459
   42CHL1  H12A 5546   2.741   4.338   8.660 -0.6808 -0.6162  0.5563
   42CHL1  H12B 5547   2.801   4.166   8.659 -0.8317  0.8614 -2.9064
   42CHL1   C11 5548   2.845   4.290   8.840  0.0146  0.1309 -0.1212
   42CHL1  H11A 5549   2.869   4.398   8.853  0.5992  0.2110 -1.6505
   42CHL1  H11B 5550   2.746   4.261   8.881  1.6620 -2.7764  2.1442
   42CHL1    C9 5551   2.961   4.202   8.903 -0.4478  0.0102 -0.5548
   42CHL1    H9 5552   2.937   4.094   8.894  1.6744 -0.5441 -0.1893
   42CHL1   C10 5553   2.980   4.228   9.054 -0.3493 -0.2170 -0.2336
   42CHL1   C19 5554   3.006   4.377   9.072 -0.4682 -0.6870 -0.0244
   42CHL1  H19A 5555   2.917   4.442   9.086  0.9377  1.0922  1.1724
   42CHL1  H19B 5556   3.065   4.392   9.165  0.6197 -0.4989 -0.7296
   42CHL1  H19C 5557   3.071   4.422   8.994  2.2729 -0.0946  2.3820
   42CHL1    C1 5558   2.847   4.196   9.134 -0.0973 -0.3085 -0.0863
   42CHL1   H1A 5559   2.780   4.282   9.111  0.0416 -0.0260  0.5312
   42CHL1   H1B 5560   2.805   4.101   9.094 -0.1358 -1.1296  1.8227
   42CHL1    C2 5561   2.874   4.183   9.287 -0.0634  0.0363 -0.2400
   42CHL1   H2A 5562   2.774   4.162   9.332  0.8419  1.2545  2.5570
   42CHL1   H2B 5563   2.900   4.282   9.331 -0.3428  0.5097 -1.1061
   42CHL1   C20 5564   2.884   4.360   8.364  0.5380 -0.0067 -0.1096
   42CHL1   H20 5565   2.927   4.459   8.389 -1.1906 -0.0786  3.8959
   42CHL1   C21 5566   2.728   4.381   8.389  0.3998 -0.2667  0.2281
   42CHL1  H21A 5567   2.682   4.441   8.308  0.7319 -2.0715 -1.3829
   42CHL1  H21B 5568   2.711   4.435   8.485 -1.3302  0.7216 -0.5834
   42CHL1  H21C 5569   2.684   4.279   8.388  1.3120 -0.6638 -0.0538
   42CHL1   C22 5570   2.915   4.325   8.216 -0.3111  0.1988 -0.5411
   42CHL1  H22A 5571   3.025   4.329   8.204 -0.4582  2.0221 -1.6751
   42CHL1  H22B 5572   2.879   4.221   8.199 -2.1541  0.3549  1.7934
   42CHL1   C23 5573   2.860   4.418   8.103 -0.3005  0.1782  0.2069
   42CHL1  H23A 5574   2.751   4.403   8.089 -0.0065 -0.6913 -1.4899
   42CHL1  H23B 5575   2.877   4.525   8.130 -0.0177 -0.3276  2.1686
   42CHL1   C24 5576   2.935   4.398   7.971 -0.1201 -0.0928  0.0706
   42CHL1  H24A 5577   3.042   4.417   7.993  0.4206 -0.4313 -2.1017
   42CHL1  H24B 5578   2.926   4.297   7.926 -0.3772  0.3696 -0.9462
   42CHL1   C25 5579   2.888   4.503   7.862  0.2777  0.0775 -0.3078
   42CHL1   H25 5580   2.896   4.607   7.900 -0.3731  0.1788 -0.4320
   42CHL1   C26 5581   2.979   4.490   7.735  0.2933  0.0080 -0.3064
   42CHL1  H26A 5582   3.081   4.506   7.777 -0.2521 -0.5171  1.2864
   42CHL1  H26B 5583   2.961   4.391   7.689  0.8584  0.0912 -0.7274
   42CHL1  H26C 5584   2.955   4.569   7.660  1.3848  1.7316  1.0680
   42CHL1   C27 5585   2.744   4.477   7.825  0.5942  0.1091  0.1792
   42CHL1  H27A 5586   2.724   4.385   7.765  1.1246 -0.6930  1.2051
   42CHL1  H27B 5587   2.687   4.454   7.917 -1.1839 -0.7848 -1.0927
   42CHL1  H27C 5588   2.697   4.569   7.783 -2.0822 -1.2247  0.0666
   43CHL1    C3 5589   4.788   4.330   9.318 -0.7355  1.5947 -0.0533
   43CHL1    H3 5590   4.839   4.427   9.334 -0.0689  1.9326 -3.4388
   43CHL1    O3 5591   4.793   4.255   9.435  0.0565  0.0309 -0.3474
   43CHL1   H3' 5592   4.699   4.262   9.456  0.3624 -0.4364  1.3244
   43CHL1    C4 5593   4.646   4.365   9.284 -0.8818 -1.1142  0.0758
   43CHL1   H4A 5594   4.583   4.276   9.304 -0.8032 -1.5671 -1.5604
   43CHL1   H4B 5595   4.614   4.446   9.354 -0.3571  0.5383 -1.5402
   43CHL1    C5 5596   4.618   4.414   9.140 -1.1484  0.9618 -0.2260
   43CHL1    C6 5597   4.547   4.526   9.123  0.1438  0.6373  0.2934
   43CHL1    H6 5598   4.497   4.575   9.208 -0.5643  1.5208 -0.6092
   43CHL1    C7 5599   4.505   4.571   8.984  0.2651  0.2056 -0.3890
   43CHL1   H7A 5600   4.399   4.603   8.978  0.0961 -0.3398 -0.3594
   43CHL1   H7B 5601   4.563   4.663   8.962 -1.6626  1.4817 -0.4133
   43CHL1    C8 5602   4.535   4.468   8.866 -0.2059  0.0328  0.2491
   43CHL1    H8 5603   4.456   4.390   8.865 -1.1883  0.9960  0.1381
   43CHL1   C14 5604   4.541   4.546   8.735  0.4339 -0.2701  0.0602
   43CHL1   H14 5605   4.635   4.605   8.735  1.2292 -1.5065 -0.2614
   43CHL1   C15 5606   4.427   4.643   8.688  0.3828 -0.2557 -1.0258
   43CHL1  H15A 5607   4.333   4.585   8.699  1.0013 -1.4500 -1.8309
   43CHL1  H15B 5608   4.418   4.735   8.749  1.3646 -0.6556 -0.2431
   43CHL1   C16 5609   4.451   4.666   8.538  0.9758  0.9782 -0.0854
   43CHL1  H16A 5610   4.362   4.646   8.475 -0.2475  0.1011  1.8400
   43CHL1  H16B 5611   4.486   4.771   8.523  1.3441  0.6491 -1.7663
   43CHL1   C17 5612   4.559   4.560   8.496  0.0205  0.4876 -0.2084
   43CHL1   H17 5613   4.654   4.618   8.502 -0.1970  0.8304 -0.0651
   43CHL1   C13 5614   4.568   4.454   8.617  0.1639  0.4064  0.6769
   43CHL1   C18 5615   4.459   4.348   8.602  0.0469 -0.3683 -0.6603
   43CHL1  H18A 5616   4.361   4.395   8.578 -0.1320 -0.7965 -0.7821
   43CHL1  H18B 5617   4.487   4.269   8.530  0.2244 -0.9488  0.0384
   43CHL1  H18C 5618   4.445   4.287   8.694 -1.1824  2.3172  1.0502
   43CHL1   C12 5619   4.706   4.391   8.639  0.5159  0.0771 -0.5570
   43CHL1  H12A 5620   4.728   4.310   8.566 -0.6300 -0.2913 -0.5173
   43CHL1  H12B 5621   4.782   4.471   8.649 -1.2151  1.6492  0.5630
   43CHL1   C11 5622   4.713   4.312   8.771  0.5035 -0.3338  0.3286
   43CHL1  H11A 5623   4.646   4.223   8.761 -0.6893  0.7862 -2.9360
   43CHL1  H11B 5624   4.819   4.278   8.773  1.0178  0.9775 -1.4092
   43CHL1    C9 5625   4.674   4.405   8.892  0.6295  0.6015 -0.4407
   43CHL1    H9 5626   4.749   4.487   8.902  0.0661  0.8439  3.2008
   43CHL1   C10 5627   4.685   4.328   9.030  0.0683 -0.0650  0.0725
   43CHL1   C19 5628   4.604   4.193   9.024  0.4524  0.2187 -0.2026
   43CHL1  H19A 5629   4.650   4.122   8.953  0.3629  0.3887 -0.4312
   43CHL1  H19B 5630   4.584   4.155   9.127  1.8857  2.0656  0.8322
   43CHL1  H19C 5631   4.502   4.204   8.982  0.0759 -1.0976  0.3153
   43CHL1    C1 5632   4.835   4.314   9.070 -0.2427  0.3492 -0.1927
   43CHL1   H1A 5633   4.895   4.253   8.998 -2.1010 -3.1262  0.9371
   43CHL1   H1B 5634   4.886   4.411   9.087  1.8416 -0.7999  0.4274
   43CHL1    C2 5635   4.856   4.248   9.205  0.4281 -0.1105  0.1455
   43CHL1   H2A 5636   4.964   4.247   9.230  0.6689 -0.5310 -0.8484
   43CHL1   H2B 5637   4.803   4.150   9.208 -0.2843  0.2535 -0.1317
   43CHL1   C20 5638   4.543   4.514   8.346  0.1819 -0.0209 -0.8537
   43CHL1   H20 5639   4.441   4.483   8.316  0.4386 -0.2335 -1.5279
   43CHL1   C21 5640   4.633   4.392   8.315  0.2227 -0.2577 -0.3616
   43CHL1  H21A 5641   4.729   4.399   8.370  2.3555 -1.7758 -3.5643
   43CHL1  H21B 5642   4.664   4.400   8.208  0.8049 -0.0677 -0.1835
   43CHL1  H21C 5643   4.577   4.296   8.315 -0.2338 -0.0031 -1.0895
   43CHL1   C22 5644   4.569   4.634   8.248 -0.2479 -0.3206  0.0788
   43CHL1  H22A 5645   4.666   4.686   8.264  0.0242 -0.5370 -0.8061
   43CHL1  H22B 5646   4.585   4.582   8.150 -1.3203 -1.9262  0.7147
   43CHL1   C23 5647   4.457   4.736   8.218 -0.0484  0.2202 -0.1387
   43CHL1  H23A 5648   4.456   4.786   8.317 -2.6805 -1.5737  0.8503
   43CHL1  H23B 5649   4.491   4.801   8.135  0.1010  0.3819  0.0473
   43CHL1   C24 5650   4.323   4.681   8.169 -1.3926  0.2861  0.0819
   43CHL1  H24A 5651   4.277   4.610   8.241 -0.6615 -0.2361  0.0489
   43CHL1  H24B 5652   4.261   4.773   8.156  1.1706  2.0822 -0.1845
   43CHL1   C25 5653   4.334   4.604   8.034 -0.7930  0.1585  0.8103
   43CHL1   H25 5654   4.403   4.518   8.050  0.8261  0.9905 -1.1625
   43CHL1   C26 5655   4.194   4.556   8.004 -0.0791 -0.1252 -0.8324
   43CHL1  H26A 5656   4.165   4.486   8.085  1.2384  0.8290  0.5139
   43CHL1  H26B 5657   4.125   4.643   7.994 -2.5095 -2.0420 -1.8758
   43CHL1  H26C 5658   4.193   4.497   7.910  0.6860  0.9247 -1.5296
   43CHL1   C27 5659   4.393   4.689   7.927  0.1615 -0.1526  0.2538
   43CHL1  H27A 5660   4.502   4.682   7.943  0.2337 -3.4190 -0.8692
   43CHL1  H27B 5661   4.366   4.647   7.827 -0.3272  0.2059  0.2292
   43CHL1  H27C 5662   4.352   4.792   7.929  0.7265  0.0647  0.6595
   44CHL1    C3 5663   5.016   3.784   9.272  0.4464 -0.1100 -0.3508
   44CHL1    H3 5664   4.912   3.748   9.288 -0.5792  1.5253 -2.7927
   44CHL1    O3 5665   5.079   3.799   9.394  0.1267  0.0955 -0.2328
   44CHL1   H3' 5666   5.164   3.831   9.363  0.4237  0.3024  0.7573
   44CHL1    C4 5667   5.092   3.695   9.175  0.0580 -0.0924  0.2758
   44CHL1   H4A 5668   5.196   3.733   9.169 -0.0251  0.0846 -0.0575
   44CHL1   H4B 5669   5.103   3.594   9.220 -1.8574 -1.1340 -1.3731
   44CHL1    C5 5670   5.037   3.695   9.030 -0.6776  0.2981 -0.4338
   44CHL1    C6 5671   5.006   3.576   8.966 -0.7685 -0.1085 -0.2451
   44CHL1    H6 5672   5.030   3.485   9.022  2.3540  2.5667  3.3331
   44CHL1    C7 5673   4.944   3.566   8.832 -0.8537 -0.1880 -0.4827
   44CHL1   H7A 5674   5.002   3.491   8.775  0.0144  0.5472 -0.5812
   44CHL1   H7B 5675   4.841   3.524   8.832 -1.1126  0.3694  1.0040
   44CHL1    C8 5676   4.941   3.709   8.755  0.6655  0.3406  0.0476
   44CHL1    H8 5677   5.042   3.728   8.713  0.0380  3.5713 -0.2162
   44CHL1   C14 5678   4.833   3.702   8.647 -0.5341 -0.0565  0.6224
   44CHL1   H14 5679   4.739   3.688   8.703  0.5843 -0.2636  2.5438
   44CHL1   C15 5680   4.844   3.587   8.545  0.5696  0.3341  0.2396
   44CHL1  H15A 5681   4.946   3.551   8.519  0.3851  0.4139 -0.6423
   44CHL1  H15B 5682   4.789   3.496   8.576 -0.2400  0.5155 -0.6083
   44CHL1   C16 5683   4.777   3.649   8.418  0.3581 -0.1809  0.0042
   44CHL1  H16A 5684   4.846   3.626   8.334  0.1609  1.1618 -0.5565
   44CHL1  H16B 5685   4.684   3.595   8.390 -0.2049  0.9426 -0.3515
   44CHL1   C17 5686   4.747   3.799   8.441  0.1373  0.5122  0.0417
   44CHL1   H17 5687   4.643   3.813   8.479 -0.2590  0.8091 -1.1133
   44CHL1   C13 5688   4.838   3.838   8.561  0.6177 -0.0756  0.1076
   44CHL1   C18 5689   4.978   3.874   8.503  0.6555 -0.5303 -0.6749
   44CHL1  H18A 5690   5.006   3.805   8.420  0.9505 -0.0557 -0.9739
   44CHL1  H18B 5691   4.978   3.968   8.444 -1.6054 -0.3393 -0.4321
   44CHL1  H18C 5692   5.056   3.879   8.582  0.6985 -0.1594 -0.7388
   44CHL1   C12 5693   4.790   3.950   8.653 -0.0303 -0.0266 -0.2854
   44CHL1  H12A 5694   4.793   4.054   8.615  3.1275  0.4508  0.9617
   44CHL1  H12B 5695   4.686   3.921   8.683 -0.3900  0.3834 -1.1133
   44CHL1   C11 5696   4.876   3.957   8.779 -0.3540 -0.6918 -0.1596
   44CHL1  H11A 5697   4.974   3.996   8.745 -0.2235 -2.2908 -1.7591
   44CHL1  H11B 5698   4.835   4.037   8.846 -0.9586 -1.9026  0.9541
   44CHL1    C9 5699   4.906   3.824   8.851 -0.6062  0.2372  0.2638
   44CHL1    H9 5700   4.813   3.787   8.899 -0.0839 -2.4248 -0.5793
   44CHL1   C10 5701   5.011   3.836   8.972 -0.3924 -0.0252  0.3598
   44CHL1   C19 5702   5.155   3.901   8.938  0.0096  0.6494  0.2495
   44CHL1  H19A 5703   5.214   3.905   9.032  0.4328  0.7477 -0.0185
   44CHL1  H19B 5704   5.207   3.836   8.864  0.3961 -1.3210  2.1425
   44CHL1  H19C 5705   5.136   4.002   8.895  0.0746  0.7184  0.3809
   44CHL1    C1 5706   4.936   3.928   9.073 -0.2067 -0.0502  0.0209
   44CHL1   H1A 5707   4.949   4.030   9.031 -0.7058 -0.9194 -2.4480
   44CHL1   H1B 5708   4.830   3.898   9.087 -0.5242  1.8098  1.9867
   44CHL1    C2 5709   4.990   3.924   9.217 -0.2341 -0.2731  0.1157
   44CHL1   H2A 5710   4.926   3.976   9.291  0.4583  0.2730  0.3391
   44CHL1   H2B 5711   5.086   3.980   9.206 -0.4759  0.0517 -0.3465
   44CHL1   C20 5712   4.744   3.881   8.313  0.1293  0.4679 -0.4367
   44CHL1   H20 5713   4.843   3.875   8.264  0.7017 -0.4747  0.8151
   44CHL1   C21 5714   4.727   4.032   8.347 -0.6110 -0.3147  0.0996
   44CHL1  H21A 5715   4.738   4.085   8.250 -0.4369 -1.8574 -0.7525
   44CHL1  H21B 5716   4.798   4.071   8.423 -1.1400 -1.4960  1.2380
   44CHL1  H21C 5717   4.624   4.058   8.380 -0.4513 -0.0736  0.4122
   44CHL1   C22 5718   4.645   3.827   8.205 -0.4418  0.3277  0.2927
   44CHL1  H22A 5719   4.639   3.717   8.201  0.0895  0.3017  0.1318
   44CHL1  H22B 5720   4.543   3.869   8.217 -0.4613  0.3956 -0.0858
   44CHL1   C23 5721   4.684   3.869   8.059  0.4773 -0.7304  0.0004
   44CHL1  H23A 5722   4.682   3.980   8.052  0.1776 -0.6668  1.0084
   44CHL1  H23B 5723   4.788   3.835   8.040  1.0113  0.8431 -0.0740
   44CHL1   C24 5724   4.601   3.804   7.956  1.1310 -0.4384  0.4488
   44CHL1  H24A 5725   4.625   3.696   7.966  1.9700 -0.0932  2.7776
   44CHL1  H24B 5726   4.493   3.827   7.969  1.1730  0.7356 -0.9368
   44CHL1   C25 5727   4.643   3.855   7.813 -0.5200  0.0751 -0.3313
   44CHL1   H25 5728   4.624   3.962   7.791  3.2953  0.6475 -1.5396
   44CHL1   C26 5729   4.795   3.834   7.785  0.1095 -0.4397 -0.6717
   44CHL1  H26A 5730   4.824   3.734   7.821 -2.1657 -0.6763  0.7275
   44CHL1  H26B 5731   4.833   3.872   7.688 -1.1709  0.6967 -0.7631
   44CHL1  H26C 5732   4.847   3.900   7.858  0.6209  0.1352 -1.5297
   44CHL1   C27 5733   4.548   3.784   7.715 -0.3923 -0.5888 -0.4449
   44CHL1  H27A 5734   4.581   3.802   7.611 -0.6457  0.9850 -0.2719
   44CHL1  H27B 5735   4.559   3.673   7.711  2.7842 -0.3430 -2.9350
   44CHL1  H27C 5736   4.444   3.817   7.737 -0.1599  1.1020 -1.7466
   45CHL1    C3 5737   2.159   4.192   9.544  0.6017 -0.4225  0.2380
   45CHL1    H3 5738   2.220   4.274   9.587  0.4264  0.1706 -0.6171
   45CHL1    O3 5739   2.095   4.113   9.646  0.1276  0.1466 -0.4913
   45CHL1   H3' 5740   2.018   4.159   9.679  1.2653  1.5563  0.3724
   45CHL1    C4 5741   2.052   4.250   9.439 -0.2876  0.1689  0.2619
   45CHL1   H4A 5742   2.004   4.160   9.396  1.1592 -0.6102  0.1883
   45CHL1   H4B 5743   1.973   4.302   9.497 -0.5459 -0.1671  0.2103
   45CHL1    C5 5744   2.107   4.336   9.335 -0.2459 -0.0280  0.7404
   45CHL1    C6 5745   2.067   4.463   9.317  0.1971 -0.6662 -0.0531
   45CHL1    H6 5746   1.984   4.491   9.383  1.3249  0.2021  1.0532
   45CHL1    C7 5747   2.138   4.558   9.214 -0.0570 -0.4961  0.0184
   45CHL1   H7A 5748   2.068   4.622   9.157  0.0228 -1.1557 -0.8353
   45CHL1   H7B 5749   2.210   4.623   9.269 -2.2815  2.5894 -0.4369
   45CHL1    C8 5750   2.233   4.485   9.107 -0.1157  0.1637 -0.7352
   45CHL1    H8 5751   2.306   4.565   9.086 -0.0940  1.0039  2.0791
   45CHL1   C14 5752   2.174   4.458   8.971 -0.2906  0.1673 -0.3857
   45CHL1   H14 5753   2.092   4.385   8.988  0.6574 -0.7039  0.6215
   45CHL1   C15 5754   2.107   4.580   8.911  0.3243 -0.1107  0.1631
   45CHL1  H15A 5755   1.999   4.591   8.938  0.7268  3.1953  0.7998
   45CHL1  H15B 5756   2.155   4.670   8.954  1.2562  0.0862 -1.2452
   45CHL1   C16 5757   2.137   4.578   8.764  0.3497  0.0076 -0.6443
   45CHL1  H16A 5758   2.057   4.512   8.724 -0.6126  2.1545 -2.4761
   45CHL1  H16B 5759   2.144   4.675   8.711  0.3462  0.2241 -0.2518
   45CHL1   C17 5760   2.278   4.520   8.763  0.5940  0.1780  0.2718
   45CHL1   H17 5761   2.334   4.606   8.806  0.8428  0.6858 -1.0160
   45CHL1   C13 5762   2.276   4.409   8.870 -0.2060  0.3311 -0.5479
   45CHL1   C18 5763   2.211   4.280   8.811 -0.6208  0.6728 -0.4992
   45CHL1  H18A 5764   2.120   4.312   8.755 -3.1600 -2.2993  1.5933
   45CHL1  H18B 5765   2.275   4.222   8.741 -1.1862 -0.0260 -0.4514
   45CHL1  H18C 5766   2.183   4.200   8.882 -0.5498 -0.1130 -1.3405
   45CHL1   C12 5767   2.413   4.388   8.937  0.6395  0.4605  0.3584
   45CHL1  H12A 5768   2.469   4.329   8.861  0.1091  0.3326  0.0605
   45CHL1  H12B 5769   2.454   4.491   8.949 -0.4928  1.2073 -1.5986
   45CHL1   C11 5770   2.405   4.303   9.055  0.4352 -0.3088 -0.6542
   45CHL1  H11A 5771   2.363   4.206   9.020  0.7736 -1.7171  2.4816
   45CHL1  H11B 5772   2.500   4.270   9.101  0.6884  0.7136 -0.4188
   45CHL1    C9 5773   2.310   4.367   9.164  0.2445  0.6650  0.4067
   45CHL1    H9 5774   2.382   4.403   9.241  0.7827 -1.8063  1.1585
   45CHL1   C10 5775   2.226   4.265   9.260 -0.5033  0.2003  0.6957
   45CHL1   C19 5776   2.169   4.161   9.172  0.0423 -0.1451  0.5243
   45CHL1  H19A 5777   2.127   4.204   9.079 -0.1075 -0.0435  0.6383
   45CHL1  H19B 5778   2.253   4.095   9.141 -1.3935 -0.9930 -1.8694
   45CHL1  H19C 5779   2.102   4.094   9.231 -0.0819  0.6117  1.2509
   45CHL1    C1 5780   2.328   4.193   9.358 -0.3725  0.1918  0.6792
   45CHL1   H1A 5781   2.407   4.129   9.312 -0.0124  0.5749  0.7555
   45CHL1   H1B 5782   2.381   4.274   9.410  0.3918  1.0989 -1.3958
   45CHL1    C2 5783   2.252   4.106   9.461 -0.2715  0.3070 -0.0163
   45CHL1   H2A 5784   2.322   4.062   9.534 -3.3056 -1.7326  1.8849
   45CHL1   H2B 5785   2.189   4.025   9.418 -1.1392  1.3320 -0.7661
   45CHL1   C20 5786   2.349   4.480   8.635 -0.0038 -1.3659  0.4489
   45CHL1   H20 5787   2.413   4.391   8.649  2.7577 -0.0104 -2.4686
   45CHL1   C21 5788   2.456   4.593   8.605  0.1912 -0.2407  0.5100
   45CHL1  H21A 5789   2.409   4.692   8.586  0.5259 -0.5380 -2.2603
   45CHL1  H21B 5790   2.525   4.571   8.521 -0.9889  1.1864 -0.9129
   45CHL1  H21C 5791   2.521   4.610   8.693 -0.3617 -2.3645  1.3858
   45CHL1   C22 5792   2.257   4.482   8.517 -0.3153  0.5673  0.0600
   45CHL1  H22A 5793   2.185   4.400   8.538 -1.1888  1.1241 -0.7000
   45CHL1  H22B 5794   2.193   4.571   8.499 -0.2636  0.3076 -1.5347
   45CHL1   C23 5795   2.315   4.425   8.382 -0.1480 -0.4042 -0.5213
   45CHL1  H23A 5796   2.382   4.503   8.338 -1.7575  0.9082 -0.7485
   45CHL1  H23B 5797   2.378   4.336   8.401 -0.2491 -0.3645 -0.0077
   45CHL1   C24 5798   2.209   4.375   8.285  0.3620 -0.3413 -0.1065
   45CHL1  H24A 5799   2.176   4.271   8.304 -1.0802 -0.3245 -2.2459
   45CHL1  H24B 5800   2.118   4.438   8.296  0.4150 -0.5731  2.1869
   45CHL1   C25 5801   2.250   4.375   8.145 -0.3968  0.4730  0.2534
   45CHL1   H25 5802   2.281   4.476   8.111  0.3039  0.1315 -0.1460
   45CHL1   C26 5803   2.369   4.281   8.126 -0.0524  0.8963 -0.4885
   45CHL1  H26A 5804   2.469   4.320   8.154 -0.2918 -0.4374  2.5316
   45CHL1  H26B 5805   2.355   4.193   8.192  0.1975  1.9956  1.0911
   45CHL1  H26C 5806   2.386   4.255   8.019  0.1746 -2.7645  0.2954
   45CHL1   C27 5807   2.134   4.314   8.056 -0.3165 -0.0912 -0.4912
   45CHL1  H27A 5808   2.035   4.351   8.091 -1.0578 -3.2320  1.1104
   45CHL1  H27B 5809   2.160   4.320   7.949 -0.1014 -0.6170 -0.4706
   45CHL1  H27C 5810   2.127   4.206   8.081  0.2745 -0.4049 -1.6218
   46CHL1    C3 5811   4.409   2.075   9.184 -0.3826  0.0527 -0.3490
   46CHL1    H3 5812   4.317   2.030   9.225 -0.0957 -0.5692 -0.3749
   46CHL1    O3 5813   4.510   2.051   9.281  0.4547  0.2299 -0.4820
   46CHL1   H3' 5814   4.485   2.109   9.353  1.9060 -1.9090  1.9365
   46CHL1    C4 5815   4.465   1.994   9.063 -1.2018  0.0075  0.1101
   46CHL1   H4A 5816   4.566   2.033   9.035 -2.2859  0.6701 -3.4637
   46CHL1   H4B 5817   4.469   1.886   9.091  0.2631  0.6422  2.6677
   46CHL1    C5 5818   4.383   2.010   8.940  0.1890 -0.2412  0.1836
   46CHL1    C6 5819   4.320   1.904   8.879 -0.2097 -0.1841  0.0858
   46CHL1    H6 5820   4.321   1.805   8.925  1.8666  0.0132  0.5525
   46CHL1    C7 5821   4.232   1.922   8.751  0.3824  0.1488 -0.6677
   46CHL1   H7A 5822   4.254   1.845   8.674 -2.0665 -0.7533 -0.5278
   46CHL1   H7B 5823   4.129   1.918   8.791  1.1092 -0.4380  1.2472
   46CHL1    C8 5824   4.256   2.059   8.680 -0.7647 -0.2988  0.1359
   46CHL1    H8 5825   4.360   2.049   8.642 -0.7858 -0.7017  0.1790
   46CHL1   C14 5826   4.163   2.084   8.561  0.8795  0.1366  0.1129
   46CHL1   H14 5827   4.058   2.093   8.597  0.3220  4.3954 -2.0258
   46CHL1   C15 5828   4.171   1.977   8.451 -0.5917 -0.2078  0.2925
   46CHL1  H15A 5829   4.280   1.962   8.432 -1.0338 -1.4157 -1.4108
   46CHL1  H15B 5830   4.130   1.877   8.475 -0.2320 -1.0082 -2.2050
   46CHL1   C16 5831   4.102   2.039   8.328  0.0077 -1.2434  0.2372
   46CHL1  H16A 5832   4.162   2.039   8.234 -1.2341  1.3649 -0.6618
   46CHL1  H16B 5833   4.004   1.988   8.315 -0.4108 -0.5165  0.4674
   46CHL1   C17 5834   4.066   2.191   8.367 -0.1900  0.2996  0.4932
   46CHL1   H17 5835   3.958   2.198   8.394 -0.6928  2.1194 -1.6899
   46CHL1   C13 5836   4.173   2.218   8.485  0.2823 -0.4201  0.4381
   46CHL1   C18 5837   4.322   2.250   8.433  0.2720  0.0572  0.1355
   46CHL1  H18A 5838   4.333   2.352   8.390 -0.2917 -0.3627 -1.0322
   46CHL1  H18B 5839   4.392   2.258   8.519 -2.3457  1.5704  2.2941
   46CHL1  H18C 5840   4.357   2.181   8.354 -0.5958 -0.6612  0.3573
   46CHL1   C12 5841   4.135   2.320   8.600 -0.1866  0.2855  0.2141
   46CHL1  H12A 5842   4.156   2.421   8.558  1.1335  0.2174  0.6794
   46CHL1  H12B 5843   4.027   2.302   8.618  0.0498 -1.4056  0.1538
   46CHL1   C11 5844   4.235   2.312   8.720 -0.9227 -0.1666  0.2010
   46CHL1  H11A 5845   4.332   2.344   8.677 -1.4245 -0.1140 -0.9459
   46CHL1  H11B 5846   4.205   2.381   8.802 -0.7980  0.3223 -0.1622
   46CHL1    C9 5847   4.253   2.172   8.783 -0.0398 -0.0603  0.4692
   46CHL1    H9 5848   4.153   2.155   8.829 -0.3961 -0.9121 -0.6012
   46CHL1   C10 5849   4.361   2.155   8.893  0.8125  0.0874 -0.2279
   46CHL1   C19 5850   4.501   2.198   8.840  0.2728  0.5373 -1.0110
   46CHL1  H19A 5851   4.548   2.122   8.774 -0.5875 -2.3127  1.4535
   46CHL1  H19B 5852   4.486   2.292   8.783 -0.2954 -0.5396 -2.7038
   46CHL1  H19C 5853   4.569   2.214   8.926 -0.2467  1.0759 -0.6944
   46CHL1    C1 5854   4.323   2.244   9.021  0.1797 -0.0593 -0.0083
   46CHL1   H1A 5855   4.325   2.351   8.991 -1.4823 -0.3440 -1.2757
   46CHL1   H1B 5856   4.216   2.224   9.044 -0.4723  2.0731 -0.9127
   46CHL1    C2 5857   4.401   2.220   9.149  0.4235  0.1024  0.1495
   46CHL1   H2A 5858   4.364   2.275   9.239  0.5719  1.0150 -0.3378
   46CHL1   H2B 5859   4.503   2.262   9.143 -0.7186  3.1597  0.1566
   46CHL1   C20 5860   4.076   2.291   8.247 -0.1131 -0.0594 -0.1818
   46CHL1   H20 5861   4.180   2.297   8.209  0.4171  0.2662  1.2764
   46CHL1   C21 5862   4.039   2.432   8.295  0.5429  0.9546 -0.3508
   46CHL1  H21A 5863   4.025   2.504   8.211  1.5984  0.7354 -0.7373
   46CHL1  H21B 5864   4.116   2.471   8.365 -1.2589  1.3087  1.5093
   46CHL1  H21C 5865   3.951   2.431   8.362  0.8909 -0.3479  0.1274
   46CHL1   C22 5866   3.986   2.244   8.129 -0.2669  0.6258  0.4020
   46CHL1  H22A 5867   4.006   2.138   8.103  0.7997  0.4098  1.9836
   46CHL1  H22B 5868   3.882   2.249   8.168 -0.3759  0.8708  0.0881
   46CHL1   C23 5869   4.008   2.334   8.004  0.0987 -0.4691 -0.3164
   46CHL1  H23A 5870   3.964   2.435   8.018 -1.1997 -1.0016 -0.3729
   46CHL1  H23B 5871   4.118   2.338   7.989  0.0330 -0.7703 -0.8983
   46CHL1   C24 5872   3.936   2.294   7.869 -0.7806 -0.0414 -0.1235
   46CHL1  H24A 5873   3.979   2.197   7.836 -0.2501  0.3802 -0.7002
   46CHL1  H24B 5874   3.828   2.284   7.890 -0.5732 -0.4031  0.7968
   46CHL1   C25 5875   3.937   2.396   7.754 -0.2389 -0.2833  0.0958
   46CHL1   H25 5876   3.881   2.486   7.788  1.0562  0.9254 -0.8270
   46CHL1   C26 5877   4.080   2.437   7.705  0.4368 -0.4535 -0.1101
   46CHL1  H26A 5878   4.077   2.503   7.616  0.0782 -1.5265 -0.9187
   46CHL1  H26B 5879   4.134   2.482   7.790 -0.8121 -0.3099  0.6250
   46CHL1  H26C 5880   4.133   2.349   7.662 -2.4082 -1.8011 -1.1526
   46CHL1   C27 5881   3.836   2.341   7.652  0.5348 -0.4880  0.8799
   46CHL1  H27A 5882   3.741   2.337   7.708 -0.4838  2.0135 -0.5094
   46CHL1  H27B 5883   3.818   2.408   7.566  2.5052  0.6362  1.2625
   46CHL1  H27C 5884   3.864   2.237   7.626  1.5082  0.0138 -0.1605
   47CHL1    C3 5885   4.308   5.017   9.344  0.3021  0.2705 -0.3008
   47CHL1    H3 5886   4.207   5.062   9.358 -0.1169 -0.1186 -1.8609
   47CHL1    O3 5887   4.365   4.997   9.472 -0.4778 -0.4580 -0.0375
   47CHL1   H3' 5888   4.442   4.945   9.449 -0.9967 -0.2506 -2.4224
   47CHL1    C4 5889   4.279   4.884   9.260  0.2143 -0.6605  0.2022
   47CHL1   H4A 5890   4.372   4.824   9.266  0.5276 -0.0560  2.2936
   47CHL1   H4B 5891   4.205   4.826   9.320  0.5553  0.4995  1.8249
   47CHL1    C5 5892   4.238   4.906   9.118 -0.4755  0.2169 -0.1331
   47CHL1    C6 5893   4.129   4.845   9.065  0.3425  0.2280  0.8911
   47CHL1    H6 5894   4.071   4.773   9.125 -0.9942  1.0197  0.5932
   47CHL1    C7 5895   4.080   4.870   8.921  0.6249 -0.6254  0.3161
   47CHL1   H7A 5896   4.062   4.776   8.865 -0.8282  0.7351 -1.6507
   47CHL1   H7B 5897   3.988   4.930   8.905  0.7580 -1.1331 -3.2148
   47CHL1    C8 5898   4.190   4.944   8.831  0.2429 -0.4162  0.2706
   47CHL1    H8 5899   4.267   4.868   8.806 -0.6184 -1.6080  1.1246
   47CHL1   C14 5900   4.127   5.001   8.697  0.2295 -0.0676 -0.6844
   47CHL1   H14 5901   4.048   5.063   8.744 -0.1451 -0.9855 -0.0720
   47CHL1   C15 5902   4.062   4.903   8.598 -0.2930  0.0287 -0.3763
   47CHL1  H15A 5903   4.124   4.812   8.587 -1.0845 -0.5175 -0.3942
   47CHL1  H15B 5904   3.963   4.867   8.632  0.3093 -0.7391  0.5901
   47CHL1   C16 5905   4.065   4.981   8.465 -0.3614  0.3787 -0.2095
   47CHL1  H16A 5906   4.131   4.928   8.393  0.6400  1.0682  0.1795
   47CHL1  H16B 5907   3.965   4.994   8.419 -0.5228 -2.0993 -0.6956
   47CHL1   C17 5908   4.122   5.123   8.496  0.7376  0.4718 -0.0383
   47CHL1   H17 5909   4.038   5.181   8.540 -0.4060 -0.3519 -1.0870
   47CHL1   C13 5910   4.220   5.090   8.610 -0.1486 -0.2671 -0.2580
   47CHL1   C18 5911   4.348   5.013   8.559 -0.3402 -0.4208  0.2212
   47CHL1  H18A 5912   4.406   4.975   8.646  1.7171 -1.0806 -1.3568
   47CHL1  H18B 5913   4.322   4.924   8.498  1.8597 -0.6575 -0.4699
   47CHL1  H18C 5914   4.408   5.090   8.507 -0.3482  0.5547  1.6168
   47CHL1   C12 5915   4.267   5.206   8.698 -0.1944  0.7670 -0.2222
   47CHL1  H12A 5916   4.326   5.284   8.645  2.3732 -1.5546 -0.9676
   47CHL1  H12B 5917   4.177   5.264   8.730 -0.7774 -0.4593  0.4376
   47CHL1   C11 5918   4.335   5.154   8.827  0.2156 -0.5082 -0.3144
   47CHL1  H11A 5919   4.440   5.126   8.806  0.8707  1.9223 -0.5928
   47CHL1  H11B 5920   4.352   5.249   8.883 -0.7274 -0.8345  0.5471
   47CHL1    C9 5921   4.252   5.061   8.912 -0.7939  0.1419 -0.2662
   47CHL1    H9 5922   4.162   5.118   8.940 -0.1189  0.1196  2.1206
   47CHL1   C10 5923   4.323   5.017   9.043  0.5223 -0.5174 -0.0323
   47CHL1   C19 5924   4.460   4.958   9.012 -0.5145 -0.2718 -0.0348
   47CHL1  H19A 5925   4.499   4.905   9.101  0.3653  0.5965  0.1192
   47CHL1  H19B 5926   4.453   4.876   8.937 -4.9790 -1.1008  1.0481
   47CHL1  H19C 5927   4.532   5.029   8.966 -0.4048 -0.7736 -0.6501
   47CHL1    C1 5928   4.344   5.142   9.130 -0.5626 -0.7500 -0.0024
   47CHL1   H1A 5929   4.420   5.213   9.090  1.2655 -0.4141  3.5930
   47CHL1   H1B 5930   4.253   5.205   9.132  1.2641  2.0545 -0.1065
   47CHL1    C2 5931   4.396   5.112   9.267  0.0870  0.3926 -0.3642
   47CHL1   H2A 5932   4.397   5.206   9.326 -1.3178 -0.7509  1.5974
   47CHL1   H2B 5933   4.501   5.077   9.268  0.4669  1.5190  0.0992
   47CHL1   C20 5934   4.183   5.207   8.375  0.3507  0.4743 -0.8558
   47CHL1   H20 5935   4.289   5.226   8.403 -0.1440 -1.7988  3.4322
   47CHL1   C21 5936   4.118   5.344   8.386 -0.4267 -0.1417  0.3374
   47CHL1  H21A 5937   4.008   5.327   8.392 -0.3257 -0.2937  2.7047
   47CHL1  H21B 5938   4.134   5.411   8.299 -0.3874 -0.9999 -0.3343
   47CHL1  H21C 5939   4.133   5.392   8.485 -0.5825 -0.8245  0.6960
   47CHL1   C22 5940   4.166   5.136   8.240 -0.0099  0.8393  0.8648
   47CHL1  H22A 5941   4.217   5.038   8.234 -1.2562  0.2471 -2.7543
   47CHL1  H22B 5942   4.063   5.113   8.206  1.3620  0.2808 -3.6223
   47CHL1   C23 5943   4.219   5.223   8.123  0.1399 -0.0446  0.2356
   47CHL1  H23A 5944   4.163   5.318   8.115  0.9610  0.4723  0.4827
   47CHL1  H23B 5945   4.324   5.252   8.146  0.1059  0.7701 -0.5742
   47CHL1   C24 5946   4.233   5.138   7.988  0.0224  0.1476 -0.1855
   47CHL1  H24A 5947   4.295   5.201   7.921 -2.4021  3.1364  0.1866
   47CHL1  H24B 5948   4.287   5.042   8.006 -0.3531 -0.5360 -2.3693
   47CHL1   C25 5949   4.097   5.121   7.917 -0.5694  0.1848 -0.3812
   47CHL1   H25 5950   4.012   5.090   7.982 -1.5249  0.4653 -1.4777
   47CHL1   C26 5951   4.057   5.245   7.838  0.8177  0.8847  0.5394
   47CHL1  H26A 5952   4.127   5.283   7.761  1.3053 -1.0338 -0.0126
   47CHL1  H26B 5953   4.046   5.329   7.910 -1.3060  1.4610 -0.3831
   47CHL1  H26C 5954   3.966   5.217   7.781 -0.2026  0.8268  2.1370
   47CHL1   C27 5955   4.110   4.994   7.819 -0.0342  0.6710 -0.8125
   47CHL1  H27A 5956   4.183   5.018   7.739  0.3984 -0.4813 -0.7834
   47CHL1  H27B 5957   4.136   4.904   7.879  1.0270  1.1699 -0.5047
   47CHL1  H27C 5958   4.014   4.978   7.766 -0.4006  0.5188 -0.1201
   48CHL1    C3 5959   5.345   4.237   9.266 -0.7068  0.1250 -0.2228
   48CHL1    H3 5960   5.257   4.170   9.256 -0.5362  0.0472 -1.4503
   48CHL1    O3 5961   5.392   4.241   9.400 -0.8049  0.9226 -0.2290
   48CHL1   H3' 5962   5.389   4.155   9.444 -2.1431  2.1926  2.4361
   48CHL1    C4 5963   5.463   4.195   9.174  0.5233  0.1650  0.2416
   48CHL1   H4A 5964   5.541   4.268   9.201  0.4510  0.1484  0.4948
   48CHL1   H4B 5965   5.499   4.095   9.208 -0.1460 -0.4152 -0.7098
   48CHL1    C5 5966   5.440   4.199   9.022 -0.3856  0.2216 -0.3604
   48CHL1    C6 5967   5.486   4.095   8.943  0.6267  0.0260 -0.0962
   48CHL1    H6 5968   5.550   4.014   8.981  2.5535  1.4187 -0.2038
   48CHL1    C7 5969   5.454   4.087   8.797 -0.8667 -0.5434 -0.5720
   48CHL1   H7A 5970   5.544   4.069   8.735 -1.3790  0.2012 -1.5682
   48CHL1   H7B 5971   5.376   4.008   8.793 -1.4997 -0.0589  1.2647
   48CHL1    C8 5972   5.394   4.213   8.733  0.4214 -0.2521  0.3456
   48CHL1    H8 5973   5.479   4.280   8.708  0.2968 -0.7924 -1.7872
   48CHL1   C14 5974   5.300   4.189   8.610  0.1760 -1.0596  0.6506
   48CHL1   H14 5975   5.215   4.136   8.659 -0.4478  0.3247  1.1290
   48CHL1   C15 5976   5.341   4.083   8.507  0.1172  0.2821 -0.0235
   48CHL1  H15A 5977   5.449   4.095   8.484  0.0056  0.5243 -0.4410
   48CHL1  H15B 5978   5.314   3.987   8.556 -0.1832 -0.4562 -1.5716
   48CHL1   C16 5979   5.255   4.112   8.383 -0.3720 -0.2948 -0.1252
   48CHL1  H16A 5980   5.319   4.118   8.293 -0.3679 -3.0315 -0.3887
   48CHL1  H16B 5981   5.192   4.027   8.349 -2.0012  1.1220 -0.8591
   48CHL1   C17 5982   5.162   4.228   8.418  0.2960 -0.1855  0.4196
   48CHL1   H17 5983   5.077   4.171   8.460 -0.0235 -0.0676 -0.0501
   48CHL1   C13 5984   5.235   4.303   8.537 -0.5444 -0.4750  0.8179
   48CHL1   C18 5985   5.357   4.389   8.479 -0.5028  1.4503 -0.2657
   48CHL1  H18A 5986   5.417   4.431   8.562  1.0571 -0.5879 -0.2938
   48CHL1  H18B 5987   5.423   4.329   8.413 -1.6739  1.7772 -1.7796
   48CHL1  H18C 5988   5.310   4.474   8.425 -1.8662  0.2668 -1.0342
   48CHL1   C12 5989   5.150   4.386   8.635  0.2290 -0.0306 -0.2593
   48CHL1  H12A 5990   5.129   4.474   8.570  2.3200 -0.5157 -1.6802
   48CHL1  H12B 5991   5.058   4.323   8.635  1.3981 -1.9904 -3.7354
   48CHL1   C11 5992   5.221   4.407   8.767 -0.0665  0.0823  0.0579
   48CHL1  H11A 5993   5.298   4.484   8.745 -0.2841  0.1266 -0.5654
   48CHL1  H11B 5994   5.145   4.453   8.834  0.3222 -1.9190  1.9550
   48CHL1    C9 5995   5.300   4.297   8.834 -0.0793  0.6332  0.6351
   48CHL1    H9 5996   5.212   4.231   8.849  0.0946  0.2320 -0.0510
   48CHL1   C10 5997   5.358   4.320   8.977  0.1669 -0.0785  0.2078
   48CHL1   C19 5998   5.468   4.433   8.959  0.2642 -0.5126  0.1032
   48CHL1  H19A 5999   5.412   4.528   8.956 -0.0227 -0.6937 -2.1542
   48CHL1  H19B 6000   5.536   4.427   9.047  1.5185 -0.6708 -0.8360
   48CHL1  H19C 6001   5.527   4.419   8.866 -0.3467 -0.5787 -0.2718
   48CHL1    C1 6002   5.247   4.358   9.073 -0.1599 -1.4006  0.0496
   48CHL1   H1A 6003   5.199   4.457   9.057  2.0238  0.2581  2.8724
   48CHL1   H1B 6004   5.173   4.275   9.077 -0.2259 -1.3050  1.0267
   48CHL1    C2 6005   5.298   4.375   9.222  0.2836 -0.4742  0.2613
   48CHL1   H2A 6006   5.217   4.407   9.291 -0.1181  1.6265 -1.0913
   48CHL1   H2B 6007   5.387   4.442   9.216  0.4079 -0.5998  0.6347
   48CHL1   C20 6008   5.116   4.317   8.298  0.3590  0.5559 -0.1994
   48CHL1   H20 6009   5.190   4.388   8.257 -1.2084  2.0467 -0.5831
   48CHL1   C21 6010   4.995   4.404   8.339  0.8047  0.1260 -0.0018
   48CHL1  H21A 6011   4.921   4.407   8.256  0.3485 -1.1518  0.3394
   48CHL1  H21B 6012   5.025   4.507   8.367  3.3167 -0.3549 -0.6696
   48CHL1  H21C 6013   4.943   4.352   8.421 -0.4200 -0.4638 -1.1129
   48CHL1   C22 6014   5.072   4.230   8.178  0.8322  0.2238 -0.1415
   48CHL1  H22A 6015   5.142   4.147   8.151 -0.8494 -1.4223  0.3236
   48CHL1  H22B 6016   4.975   4.182   8.202 -1.0605  3.2918 -1.1892
   48CHL1   C23 6017   5.048   4.315   8.043  0.0492  0.1571 -0.6345
   48CHL1  H23A 6018   4.994   4.408   8.071 -1.2901 -0.8745  0.3296
   48CHL1  H23B 6019   5.150   4.333   8.001 -0.9617  1.7420 -2.5316
   48CHL1   C24 6020   4.970   4.229   7.939  0.3863 -0.3897 -0.3824
   48CHL1  H24A 6021   5.025   4.137   7.909 -0.9753 -1.1850 -0.5397
   48CHL1  H24B 6022   4.879   4.199   7.996 -0.3273 -4.1113 -3.1421
   48CHL1   C25 6023   4.932   4.305   7.807  0.3621  0.0442  0.5342
   48CHL1   H25 6024   4.909   4.412   7.825 -0.3211 -0.2886  1.7133
   48CHL1   C26 6025   5.065   4.309   7.725 -0.3823 -0.5509 -0.6958
   48CHL1  H26A 6026   5.055   4.363   7.628 -0.9642  0.5583 -0.0439
   48CHL1  H26B 6027   5.146   4.361   7.781 -0.6207  0.0969 -0.9470
   48CHL1  H26C 6028   5.100   4.207   7.701  0.8284  0.1026 -1.8586
   48CHL1   C27 6029   4.813   4.240   7.732 -0.3325 -0.4271 -0.0931
   48CHL1  H27A 6030   4.789   4.291   7.636  0.3957 -1.3679 -0.7818
   48CHL1  H27B 6031   4.822   4.130   7.722 -2.4914 -0.7527  0.8718
   48CHL1  H27C 6032   4.725   4.266   7.796  0.7741  2.4694  0.4322
   49CHL1    C3 6033   3.969   1.865   9.393 -0.0987 -0.0161  0.6318
   49CHL1    H3 6034   3.970   1.757   9.422  1.4532  0.1314  1.2180
   49CHL1    O3 6035   3.971   1.946   9.508 -0.1849 -0.7284  0.0449
   49CHL1   H3' 6036   3.898   1.907   9.557 -0.0042 -1.1230  0.0044
   49CHL1    C4 6037   4.088   1.887   9.292 -0.4738  0.0242  0.5020
   49CHL1   H4A 6038   4.085   1.995   9.266 -0.9773  0.2289  1.3726
   49CHL1   H4B 6039   4.192   1.866   9.327 -0.2244  0.8058  0.2563
   49CHL1    C5 6040   4.053   1.805   9.166  0.1458 -0.3486  0.0817
   49CHL1    C6 6041   4.127   1.704   9.138 -0.4540 -0.2707 -0.1582
   49CHL1    H6 6042   4.214   1.688   9.203 -0.4747  0.8024  0.1516
   49CHL1    C7 6043   4.110   1.619   9.023  0.1444 -0.4570 -0.1927
   49CHL1   H7A 6044   4.205   1.592   8.972 -0.0331 -1.2796 -0.0978
   49CHL1   H7B 6045   4.062   1.530   9.069  1.2627 -0.2378  1.4955
   49CHL1    C8 6046   4.007   1.669   8.925 -0.1164  1.0718  0.1807
   49CHL1    H8 6047   4.052   1.744   8.857 -0.9880  0.4596 -1.1019
   49CHL1   C14 6048   3.957   1.556   8.823  0.1085 -0.4504 -1.0319
   49CHL1   H14 6049   3.901   1.496   8.898  0.7162  0.4650  0.1978
   49CHL1   C15 6050   4.053   1.464   8.759  0.8591 -0.1179  0.8499
   49CHL1  H15A 6051   4.139   1.521   8.719 -1.0892  2.0074 -0.5733
   49CHL1  H15B 6052   4.096   1.386   8.826  0.1511  0.2980  1.8116
   49CHL1   C16 6053   3.969   1.391   8.653  0.1080 -1.4418 -0.6787
   49CHL1  H16A 6054   4.014   1.399   8.552  0.6781 -1.8170 -0.4560
   49CHL1  H16B 6055   3.960   1.282   8.669 -1.3257 -1.3302 -0.5582
   49CHL1   C17 6056   3.833   1.465   8.648  0.3698 -0.0833  0.4429
   49CHL1   H17 6057   3.757   1.424   8.719 -0.9812  1.9736  0.2772
   49CHL1   C13 6058   3.856   1.602   8.718 -0.8322  0.4707 -0.4309
   49CHL1   C18 6059   3.934   1.702   8.622  0.4110  0.6599 -0.2653
   49CHL1  H18A 6060   3.856   1.748   8.557  0.9701  0.2125 -1.2846
   49CHL1  H18B 6061   3.989   1.777   8.681  1.3354 -0.5071  0.4042
   49CHL1  H18C 6062   4.004   1.642   8.559  0.3257 -1.9782  1.9630
   49CHL1   C12 6063   3.736   1.670   8.784 -0.9987  0.0683  0.1573
   49CHL1  H12A 6064   3.678   1.707   8.697 -1.5046 -1.7615 -0.3329
   49CHL1  H12B 6065   3.670   1.604   8.845  0.6667 -0.2751  1.6724
   49CHL1   C11 6066   3.789   1.782   8.871  0.2203  0.3201 -0.0849
   49CHL1  H11A 6067   3.831   1.860   8.803  2.4995 -0.8442 -0.1247
   49CHL1  H11B 6068   3.703   1.824   8.927 -1.4508 -0.7610 -1.7070
   49CHL1    C9 6069   3.887   1.736   8.988  0.6520 -0.3899 -0.2641
   49CHL1    H9 6070   3.841   1.654   9.045  0.4633  0.1935  0.4370
   49CHL1   C10 6071   3.924   1.844   9.096 -0.0857  0.8506 -0.0835
   49CHL1   C19 6072   3.945   1.977   9.031  0.5760 -0.4793  0.6462
   49CHL1  H19A 6073   4.021   1.991   8.951 -0.0471  0.2333  0.1723
   49CHL1  H19B 6074   3.849   2.005   8.983 -0.4863 -1.7027  1.9510
   49CHL1  H19C 6075   3.966   2.060   9.101 -1.7181  1.5069 -0.8757
   49CHL1    C1 6076   3.805   1.841   9.196  0.4263  0.3441  0.4178
   49CHL1   H1A 6077   3.707   1.875   9.156 -1.0039 -2.7532  0.9772
   49CHL1   H1B 6078   3.784   1.735   9.222  0.5507  0.4660  1.0280
   49CHL1    C2 6079   3.829   1.904   9.329 -0.5138  0.3541 -0.4386
   49CHL1   H2A 6080   3.745   1.874   9.395  0.7417 -0.2830  0.9527
   49CHL1   H2B 6081   3.828   2.014   9.317  1.2575  0.5661  0.9293
   49CHL1   C20 6082   3.778   1.461   8.508  0.1596  0.1024  0.2071
   49CHL1   H20 6083   3.850   1.512   8.440 -0.2431  1.1562  0.5515
   49CHL1   C21 6084   3.649   1.538   8.498  0.5233  0.7425  0.6687
   49CHL1  H21A 6085   3.572   1.516   8.575 -1.9459  3.1454 -0.9330
   49CHL1  H21B 6086   3.595   1.522   8.402  2.4419 -0.7837 -0.2240
   49CHL1  H21C 6087   3.667   1.647   8.499 -0.7871  1.0103 -1.0352
   49CHL1   C22 6088   3.777   1.318   8.444  0.5051  0.7821  0.9007
   49CHL1  H22A 6089   3.874   1.264   8.448 -0.6413 -1.3365  2.2855
   49CHL1  H22B 6090   3.717   1.245   8.503  1.2767 -1.6478 -1.1498
   49CHL1   C23 6091   3.741   1.324   8.291 -0.1274 -0.5289 -0.5429
   49CHL1  H23A 6092   3.631   1.336   8.284 -0.2184 -1.9900 -2.5281
   49CHL1  H23B 6093   3.794   1.410   8.245 -2.6198  1.2967 -0.1996
   49CHL1   C24 6094   3.760   1.188   8.221  0.4865  0.6928  0.1677
   49CHL1  H24A 6095   3.867   1.159   8.236  0.0947 -1.2238 -0.5668
   49CHL1  H24B 6096   3.699   1.118   8.282  1.4226  1.0658  1.6122
   49CHL1   C25 6097   3.738   1.170   8.066 -0.0283 -0.0490  0.2989
   49CHL1   H25 6098   3.639   1.214   8.039  0.0764  0.0145  0.0106
   49CHL1   C26 6099   3.845   1.245   7.989 -0.1603 -0.8219 -0.5740
   49CHL1  H26A 6100   3.837   1.355   8.005 -0.3448 -0.4690 -2.7395
   49CHL1  H26B 6101   3.944   1.218   8.031 -1.3138 -0.6239  2.5116
   49CHL1  H26C 6102   3.850   1.215   7.882  0.1422  1.6207 -1.3144
   49CHL1   C27 6103   3.743   1.017   8.023  0.2699  0.0393 -0.2886
   49CHL1  H27A 6104   3.838   0.970   8.056  2.4667  3.1079 -1.7724
   49CHL1  H27B 6105   3.654   0.960   8.058 -1.3704  1.3717 -2.0424
   49CHL1  H27C 6106   3.740   1.020   7.912  3.7955 -0.8057 -0.5097
   50CHL1    C3 6107   1.601   3.588   9.410  0.4303 -0.2063 -0.4618
   50CHL1    H3 6108   1.550   3.686   9.392  2.2348  0.5245 -1.8905
   50CHL1    O3 6109   1.601   3.569   9.552 -0.0832  0.1798  0.0116
   50CHL1   H3' 6110   1.688   3.530   9.568  0.7902  2.0663  0.1730
   50CHL1    C4 6111   1.511   3.480   9.358  0.8855  1.1019  0.6340
   50CHL1   H4A 6112   1.548   3.379   9.386 -2.8894 -0.2185  1.4577
   50CHL1   H4B 6113   1.407   3.489   9.397  0.7397  0.0372  0.5158
   50CHL1    C5 6114   1.498   3.493   9.210 -0.3393  0.9783 -0.3252
   50CHL1    C6 6115   1.382   3.515   9.147  0.5987  0.2607 -0.1237
   50CHL1    H6 6116   1.290   3.515   9.206  1.6616 -0.5127  1.6120
   50CHL1    C7 6117   1.363   3.515   8.997  0.4001 -0.5388 -0.1870
   50CHL1   H7A 6118   1.264   3.471   8.971  0.6869 -0.3659 -1.6521
   50CHL1   H7B 6119   1.356   3.620   8.963  1.5098 -0.4152 -0.0650
   50CHL1    C8 6120   1.486   3.460   8.918 -0.4673  0.5721 -1.0147
   50CHL1    H8 6121   1.491   3.350   8.931 -0.3955  0.7160  0.2805
   50CHL1   C14 6122   1.475   3.496   8.768  0.1987  0.5675 -0.3145
   50CHL1   H14 6123   1.485   3.606   8.757  0.6094  0.6871  1.0232
   50CHL1   C15 6124   1.353   3.453   8.701  0.8261  0.7397 -0.0596
   50CHL1  H15A 6125   1.315   3.354   8.732 -0.4335  1.5943  1.2388
   50CHL1  H15B 6126   1.273   3.530   8.712  0.8454  0.8028 -0.3343
   50CHL1   C16 6127   1.390   3.459   8.552  0.2393  0.7640 -0.1976
   50CHL1  H16A 6128   1.371   3.364   8.499 -0.3220 -0.5302  2.1913
   50CHL1  H16B 6129   1.328   3.531   8.494 -2.0004 -0.9893 -0.0755
   50CHL1   C17 6130   1.545   3.485   8.546  0.3229 -0.7006  0.4149
   50CHL1   H17 6131   1.562   3.595   8.547 -0.1965 -0.6020 -0.5090
   50CHL1   C13 6132   1.594   3.439   8.687  0.4290 -0.9154  0.3703
   50CHL1   C18 6133   1.601   3.285   8.692  0.1881 -0.2230  0.3122
   50CHL1  H18A 6134   1.695   3.252   8.643 -0.1263 -0.1576 -0.3343
   50CHL1  H18B 6135   1.602   3.245   8.796 -1.0544 -3.1971 -0.7385
   50CHL1  H18C 6136   1.518   3.238   8.636 -1.5033  1.3425  1.4027
   50CHL1   C12 6137   1.726   3.504   8.739  0.2841  0.2223 -0.2995
   50CHL1  H12A 6138   1.815   3.462   8.687  1.5172  2.4094 -0.0954
   50CHL1  H12B 6139   1.720   3.615   8.725  0.6363  0.4121  0.9440
   50CHL1   C11 6140   1.743   3.475   8.891 -0.2816 -0.8177  0.4304
   50CHL1  H11A 6141   1.758   3.365   8.893  1.1275 -0.6431  0.7350
   50CHL1  H11B 6142   1.832   3.535   8.921 -2.3527  2.4475  0.5119
   50CHL1    C9 6143   1.615   3.516   8.979 -0.4930 -0.7725 -0.2244
   50CHL1    H9 6144   1.614   3.626   8.963  1.8884 -0.7464 -0.5997
   50CHL1   C10 6145   1.631   3.490   9.134  0.7486  0.6544  0.9244
   50CHL1   C19 6146   1.698   3.348   9.145 -0.5074 -0.2016  0.5105
   50CHL1  H19A 6147   1.656   3.281   9.067  1.7353 -1.1228  0.0294
   50CHL1  H19B 6148   1.802   3.353   9.107 -1.3049 -2.4049 -2.2511
   50CHL1  H19C 6149   1.710   3.301   9.245 -0.3509  0.8639  1.0079
   50CHL1    C1 6150   1.720   3.596   9.194 -0.4842 -0.5249 -0.6364
   50CHL1   H1A 6151   1.824   3.594   9.155 -0.3225 -0.3467 -0.2184
   50CHL1   H1B 6152   1.679   3.698   9.180 -0.7852 -0.4658  0.6295
   50CHL1    C2 6153   1.745   3.590   9.346 -0.0477  0.1550  0.7669
   50CHL1   H2A 6154   1.803   3.679   9.378  3.2601 -1.2373 -0.7739
   50CHL1   H2B 6155   1.790   3.493   9.376 -0.4527  0.3825  2.1505
   50CHL1   C20 6156   1.613   3.447   8.414 -0.6499  0.6945  0.0677
   50CHL1   H20 6157   1.563   3.503   8.332  0.5473  1.8032  0.0670
   50CHL1   C21 6158   1.591   3.294   8.380  0.0466  0.4522 -0.4188
   50CHL1  H21A 6159   1.617   3.270   8.274  1.4082  1.0047 -0.2399
   50CHL1  H21B 6160   1.490   3.249   8.382 -0.1967  0.9087  2.8332
   50CHL1  H21C 6161   1.662   3.232   8.439 -0.0002 -1.2250 -2.0363
   50CHL1   C22 6162   1.763   3.488   8.402 -0.2909 -0.6479  0.8456
   50CHL1  H22A 6163   1.761   3.599   8.405 -1.7257 -0.6718  2.2176
   50CHL1  H22B 6164   1.830   3.436   8.474  0.2405 -2.1699 -0.6763
   50CHL1   C23 6165   1.820   3.451   8.260  0.2569 -0.6681 -0.1977
   50CHL1  H23A 6166   1.926   3.479   8.275 -0.7081  3.6152 -0.2720
   50CHL1  H23B 6167   1.816   3.344   8.231  0.5941 -0.5242 -0.7946
   50CHL1   C24 6168   1.759   3.537   8.143  0.9116  0.2058 -0.0773
   50CHL1  H24A 6169   1.655   3.501   8.133  1.0452  0.0327 -0.8963
   50CHL1  H24B 6170   1.760   3.642   8.180  3.0960  0.4896 -0.7786
   50CHL1   C25 6171   1.835   3.519   8.010  0.0601  1.7482 -0.2192
   50CHL1   H25 6172   1.939   3.556   8.007  1.6860 -2.3280  0.1975
   50CHL1   C26 6173   1.840   3.366   7.976 -0.5078 -0.1391 -0.0977
   50CHL1  H26A 6174   1.898   3.304   8.048  0.5313  2.1367  1.1482
   50CHL1  H26B 6175   1.738   3.326   7.955 -1.3725  0.6670  2.2129
   50CHL1  H26C 6176   1.891   3.354   7.879 -1.0844  2.5025 -0.8029
   50CHL1   C27 6177   1.756   3.602   7.908 -0.1328 -0.1897  0.3847
   50CHL1  H27A 6178   1.778   3.558   7.808  0.8400 -1.8564  1.2818
   50CHL1  H27B 6179   1.647   3.584   7.918 -0.3963  0.0977 -1.5575
   50CHL1  H27C 6180   1.768   3.712   7.915  0.4770 -0.1535 -1.0003
   51CHL1    C3 6181   2.271   5.448   9.467 -0.3826 -0.9083  0.8930
   51CHL1    H3 6182   2.236   5.553   9.477  2.0307  0.0440  0.0338
   51CHL1    O3 6183   2.336   5.417   9.586  0.6193  0.0255 -0.5492
   51CHL1   H3' 6184   2.427   5.411   9.558  1.0343 -0.1264  0.7786
   51CHL1    C4 6185   2.163   5.348   9.429  0.3004 -0.0957  0.1521
   51CHL1   H4A 6186   2.208   5.247   9.417  2.5133  0.8650 -0.1980
   51CHL1   H4B 6187   2.093   5.353   9.515  0.3825 -1.8296  0.3596
   51CHL1    C5 6188   2.102   5.375   9.295  0.5696  0.6030 -0.5122
   51CHL1    C6 6189   1.969   5.371   9.282 -0.1641  0.3145  0.2547
   51CHL1    H6 6190   1.901   5.359   9.367 -1.3949 -0.1744 -0.7633
   51CHL1    C7 6191   1.900   5.389   9.151 -0.3338  0.8888  0.0506
   51CHL1   H7A 6192   1.812   5.321   9.144  0.1802  0.2135 -0.0480
   51CHL1   H7B 6193   1.858   5.492   9.150  0.1607  1.1404  1.8058
   51CHL1    C8 6194   1.998   5.365   9.034  0.2399 -0.3031  0.1228
   51CHL1    H8 6195   2.026   5.258   9.028 -1.0876 -0.7326  1.0419
   51CHL1   C14 6196   1.933   5.416   8.908 -0.4030  0.1005 -0.6289
   51CHL1   H14 6197   1.896   5.520   8.925  0.5419  0.2697  0.4861
   51CHL1   C15 6198   1.810   5.344   8.855  0.0392  0.1552  0.0424
   51CHL1  H15A 6199   1.818   5.234   8.869 -0.0572  0.3686  1.9869
   51CHL1  H15B 6200   1.723   5.373   8.917 -0.5439 -0.0655 -0.6500
   51CHL1   C16 6201   1.797   5.379   8.707 -0.0999 -0.4680 -0.5848
   51CHL1  H16A 6202   1.802   5.280   8.658 -1.0086 -0.7184 -0.1949
   51CHL1  H16B 6203   1.704   5.434   8.682 -0.8016 -1.2484  0.2324
   51CHL1   C17 6204   1.923   5.470   8.679 -0.1390 -0.6421 -0.3147
   51CHL1   H17 6205   1.891   5.571   8.712 -0.0527 -0.9634  0.7989
   51CHL1   C13 6206   2.024   5.429   8.787 -0.4138  0.2084  0.2515
   51CHL1   C18 6207   2.083   5.293   8.751  0.1437 -0.1147 -0.1788
   51CHL1  H18A 6208   2.135   5.254   8.841  0.1638 -1.1226 -0.6172
   51CHL1  H18B 6209   2.006   5.216   8.728  1.8596 -1.0045 -3.4678
   51CHL1  H18C 6210   2.140   5.288   8.657  0.0381 -3.1486 -0.1812
   51CHL1   C12 6211   2.137   5.528   8.807  0.3532  0.3901 -0.3142
   51CHL1  H12A 6212   2.209   5.529   8.723  0.3040 -0.1901 -0.3688
   51CHL1  H12B 6213   2.095   5.629   8.825 -0.8810  0.2373 -2.0607
   51CHL1   C11 6214   2.218   5.484   8.928  0.4499  0.2844 -0.1452
   51CHL1  H11A 6215   2.273   5.393   8.898  0.5962  0.6325 -0.9672
   51CHL1  H11B 6216   2.293   5.561   8.954 -0.3227  1.2160 -0.5748
   51CHL1    C9 6217   2.124   5.453   9.051  0.2625  0.0477  0.2605
   51CHL1    H9 6218   2.079   5.550   9.079 -0.1058  0.2600 -0.9857
   51CHL1   C10 6219   2.201   5.395   9.179  0.0352  0.4414  0.1317
   51CHL1   C19 6220   2.273   5.263   9.150 -0.2274 -0.3576  0.1572
   51CHL1  H19A 6221   2.220   5.200   9.075 -1.9288  2.0060 -0.7232
   51CHL1  H19B 6222   2.368   5.288   9.098 -0.9163  1.1309 -0.4366
   51CHL1  H19C 6223   2.293   5.199   9.239 -0.7128  1.1972  1.4251
   51CHL1    C1 6224   2.306   5.491   9.225 -0.5242  0.5697  0.2230
   51CHL1   H1A 6225   2.383   5.502   9.146 -0.7137 -0.8626 -0.1859
   51CHL1   H1B 6226   2.268   5.595   9.242  1.9855  1.5102  0.4713
   51CHL1    C2 6227   2.380   5.453   9.355  0.5548  0.0297  0.3039
   51CHL1   H2A 6228   2.444   5.540   9.378  0.4082  1.5153 -4.0755
   51CHL1   H2B 6229   2.440   5.361   9.343  1.5523  0.7779 -0.5556
   51CHL1   C20 6230   1.977   5.487   8.534 -0.0813 -0.2912 -0.4267
   51CHL1   H20 6231   2.083   5.455   8.543 -0.5309 -1.4889  1.1354
   51CHL1   C21 6232   1.963   5.636   8.506  0.3010 -0.2361  0.0575
   51CHL1  H21A 6233   1.996   5.689   8.598 -1.4952 -2.1902  1.9381
   51CHL1  H21B 6234   1.864   5.668   8.469  1.9835  0.3953 -4.6408
   51CHL1  H21C 6235   2.032   5.660   8.422 -0.1192  1.3939  0.1557
   51CHL1   C22 6236   1.909   5.397   8.429 -0.8639 -0.5224  0.0077
   51CHL1  H22A 6237   1.924   5.294   8.467  0.0916  0.2823  1.9364
   51CHL1  H22B 6238   1.800   5.412   8.417 -0.7146 -0.0734 -0.8246
   51CHL1   C23 6239   1.979   5.401   8.298 -0.3018 -0.3468 -0.2798
   51CHL1  H23A 6240   1.943   5.495   8.251  0.2004 -0.3949 -0.7753
   51CHL1  H23B 6241   2.089   5.396   8.316 -0.3439  2.5355  1.5032
   51CHL1   C24 6242   1.924   5.292   8.209  0.1221 -0.3862  0.3619
   51CHL1  H24A 6243   1.912   5.203   8.274  0.2209 -0.2797  0.5275
   51CHL1  H24B 6244   1.825   5.332   8.177 -0.4155  0.7537  3.1034
   51CHL1   C25 6245   2.004   5.262   8.076 -0.1903 -0.0411 -0.3153
   51CHL1   H25 6246   2.017   5.355   8.018 -0.3270  1.0989  1.4285
   51CHL1   C26 6247   2.140   5.214   8.101  0.1522  0.1867  0.6049
   51CHL1  H26A 6248   2.144   5.107   8.132  1.0611  0.5410  1.8082
   51CHL1  H26B 6249   2.201   5.225   8.009 -1.6403  1.4892 -0.4773
   51CHL1  H26C 6250   2.188   5.282   8.175 -1.0673  1.5663  0.1721
   51CHL1   C27 6251   1.937   5.154   7.992 -0.1528  0.2064  0.1943
   51CHL1  H27A 6252   1.852   5.195   7.933  0.2742 -1.3236 -1.5944
   51CHL1  H27B 6253   1.999   5.116   7.908 -1.8523  0.8105 -1.3993
   51CHL1  H27C 6254   1.905   5.067   8.053 -2.4190  0.4055 -0.6311
   52CHL1    C3 6255   6.007   2.492   9.335 -0.4812 -0.3532  0.2410
   52CHL1    H3 6256   6.027   2.601   9.347  0.0600 -0.3479 -0.6095
   52CHL1    O3 6257   6.035   2.424   9.457 -0.1525  0.0284 -0.5788
   52CHL1   H3' 6258   6.047   2.332   9.433 -0.3914 -0.4749  1.1174
   52CHL1    C4 6259   5.859   2.465   9.299 -0.2436 -0.7777 -0.2548
   52CHL1   H4A 6260   5.850   2.355   9.297  3.0116 -1.1408 -1.5677
   52CHL1   H4B 6261   5.800   2.506   9.384  4.2409 -0.0050  2.8269
   52CHL1    C5 6262   5.826   2.521   9.159 -0.2590  0.9447  0.1054
   52CHL1    C6 6263   5.717   2.596   9.143  0.7333  0.9525 -0.4686
   52CHL1    H6 6264   5.652   2.614   9.230  0.3137  0.0743 -0.5911
   52CHL1    C7 6265   5.679   2.659   9.014 -0.3238 -0.6405  0.2075
   52CHL1   H7A 6266   5.571   2.647   8.992 -0.1818 -2.3538  0.3379
   52CHL1   H7B 6267   5.715   2.764   9.015  0.5768 -0.9430  1.0916
   52CHL1    C8 6268   5.755   2.603   8.894  0.3802 -0.0694 -0.9439
   52CHL1    H8 6269   5.706   2.508   8.863  2.5012 -1.4159 -0.3684
   52CHL1   C14 6270   5.744   2.701   8.779 -0.2907  0.0529 -0.0901
   52CHL1   H14 6271   5.806   2.789   8.804  1.9916 -1.5460  0.2425
   52CHL1   C15 6272   5.598   2.752   8.748 -0.4915  0.3767 -0.7525
   52CHL1  H15A 6273   5.526   2.669   8.764 -1.5521  1.5595  1.0421
   52CHL1  H15B 6274   5.579   2.840   8.813  1.1051  0.3880 -0.2465
   52CHL1   C16 6275   5.612   2.785   8.592 -0.6017 -0.0584  0.4288
   52CHL1  H16A 6276   5.555   2.709   8.534 -1.5243  2.2864 -1.8959
   52CHL1  H16B 6277   5.568   2.884   8.569 -2.9896 -0.7114  1.7473
   52CHL1   C17 6278   5.759   2.766   8.552 -0.2293 -0.4528  0.1132
   52CHL1   H17 6279   5.797   2.865   8.585 -0.3413 -1.1210  2.3472
   52CHL1   C13 6280   5.810   2.657   8.652 -0.1247 -0.6527 -0.0696
   52CHL1   C18 6281   5.758   2.520   8.604 -0.5912  0.3266  0.2954
   52CHL1  H18A 6282   5.653   2.535   8.572 -0.3167 -0.1472 -0.8720
   52CHL1  H18B 6283   5.819   2.497   8.514 -2.2413  0.6689 -0.9578
   52CHL1  H18C 6284   5.770   2.444   8.684  0.3027  0.8513  0.6828
   52CHL1   C12 6285   5.959   2.641   8.673 -0.1190  0.3339  0.1761
   52CHL1  H12A 6286   5.998   2.597   8.579 -1.7827  2.6696 -1.7160
   52CHL1  H12B 6287   6.003   2.742   8.684 -0.7890  0.8103 -1.2840
   52CHL1   C11 6288   5.996   2.546   8.797 -0.0743  0.1907  0.0487
   52CHL1  H11A 6289   5.989   2.440   8.767  0.8525  0.1349  0.0238
   52CHL1  H11B 6290   6.099   2.573   8.827  0.1607 -1.4049  0.7473
   52CHL1    C9 6291   5.904   2.586   8.922  0.2910  0.6002 -0.7375
   52CHL1    H9 6292   5.937   2.687   8.954  0.8377 -0.0281  0.8138
   52CHL1   C10 6293   5.920   2.493   9.046 -0.0688 -0.5461  0.1274
   52CHL1   C19 6294   5.906   2.348   8.994  0.1094 -0.2899  0.4230
   52CHL1  H19A 6295   5.805   2.332   8.950 -0.3764 -1.0553  1.7590
   52CHL1  H19B 6296   5.980   2.311   8.921 -1.3081 -1.4415 -0.4904
   52CHL1  H19C 6297   5.902   2.275   9.077  2.1369  0.1812  0.9828
   52CHL1    C1 6298   6.067   2.507   9.094 -0.0655 -0.2826  0.2581
   52CHL1   H1A 6299   6.135   2.458   9.021 -0.8179 -0.1505 -0.5456
   52CHL1   H1B 6300   6.090   2.616   9.094 -0.8511 -0.1019 -0.9212
   52CHL1    C2 6301   6.105   2.444   9.232  0.0913 -0.6109  0.7195
   52CHL1   H2A 6302   6.208   2.474   9.261 -1.0156  2.6582  1.7162
   52CHL1   H2B 6303   6.087   2.334   9.232 -0.8752 -0.4807 -0.8881
   52CHL1   C20 6304   5.800   2.756   8.406 -0.0628  0.0940 -0.0740
   52CHL1   H20 6305   5.796   2.647   8.383  2.1554  0.0469 -0.4502
   52CHL1   C21 6306   5.949   2.794   8.388 -0.2499  0.4789 -0.8172
   52CHL1  H21A 6307   5.981   2.780   8.283  2.0711 -0.9697  0.0241
   52CHL1  H21B 6308   6.016   2.743   8.460  1.0857  1.6239 -1.1876
   52CHL1  H21C 6309   5.974   2.900   8.412 -0.6844  0.8236 -1.8502
   52CHL1   C22 6310   5.705   2.829   8.316  0.4170  0.2800  0.3853
   52CHL1  H22A 6311   5.598   2.806   8.335  0.4496 -0.9081 -0.6873
   52CHL1  H22B 6312   5.721   2.939   8.318 -0.2623  0.4514 -1.5679
   52CHL1   C23 6313   5.724   2.800   8.169  0.4828  0.4341  0.8716
   52CHL1  H23A 6314   5.794   2.871   8.120 -0.4280  0.2654 -0.7728
   52CHL1  H23B 6315   5.765   2.698   8.150 -0.7991  0.4746 -3.0006
   52CHL1   C24 6316   5.601   2.805   8.074 -0.2770  0.7579  0.2514
   52CHL1  H24A 6317   5.542   2.898   8.087 -0.4909  0.7072 -0.3206
   52CHL1  H24B 6318   5.638   2.811   7.969  2.3005  1.8030  1.1261
   52CHL1   C25 6319   5.516   2.674   8.056  0.4723 -0.3928  0.6895
   52CHL1   H25 6320   5.587   2.592   8.035  0.1574 -0.3292 -0.6756
   52CHL1   C26 6321   5.452   2.636   8.190  0.0459  0.0186 -0.4312
   52CHL1  H26A 6322   5.365   2.695   8.224  0.3210  0.4171 -0.4163
   52CHL1  H26B 6323   5.414   2.531   8.184 -1.9402  0.7216 -1.0144
   52CHL1  H26C 6324   5.515   2.633   8.281 -0.4846 -2.5099 -0.0640
   52CHL1   C27 6325   5.415   2.685   7.939 -0.1210  0.2051 -0.4670
   52CHL1  H27A 6326   5.465   2.689   7.840 -1.2851  2.1704 -1.0446
   52CHL1  H27B 6327   5.368   2.585   7.937  0.0875  0.0746  0.4131
   52CHL1  H27C 6328   5.352   2.776   7.953  0.6231  0.9445 -1.8003
   53CHL1    C3 6329   6.539   3.634   9.521 -0.5017 -0.3077 -0.6118
   53CHL1    H3 6330   6.570   3.546   9.581  0.1543 -1.1601 -2.1339
   53CHL1    O3 6331   6.481   3.733   9.610  0.3438  0.2462  0.8116
   53CHL1   H3' 6332   6.440   3.682   9.681  1.0187 -0.5148  0.6688
   53CHL1    C4 6333   6.662   3.704   9.454  0.5010  0.7454  0.6238
   53CHL1   H4A 6334   6.626   3.803   9.420  1.3318  0.1785 -2.2190
   53CHL1   H4B 6335   6.746   3.721   9.524  1.3263 -2.8313  0.7078
   53CHL1    C5 6336   6.713   3.632   9.331 -0.2473 -0.4670  0.2178
   53CHL1    C6 6337   6.846   3.604   9.314  0.8523 -0.3464 -0.5323
   53CHL1    H6 6338   6.914   3.632   9.396 -1.9268  3.3045  0.8012
   53CHL1    C7 6339   6.906   3.531   9.196  0.3266 -0.6524 -0.2366
   53CHL1   H7A 6340   7.008   3.571   9.178  1.5762 -3.3973  0.2024
   53CHL1   H7B 6341   6.928   3.426   9.227 -0.3841 -0.1359  2.3086
   53CHL1    C8 6342   6.808   3.535   9.076  1.0576 -0.2926  0.2590
   53CHL1    H8 6343   6.802   3.638   9.036  0.5967 -0.7737 -0.9483
   53CHL1   C14 6344   6.861   3.441   8.968 -0.0604  0.8217  0.8450
   53CHL1   H14 6345   6.851   3.338   9.010  1.7014  0.0408 -0.5102
   53CHL1   C15 6346   7.005   3.446   8.913  0.1671 -0.5095  0.1524
   53CHL1  H15A 6347   7.031   3.547   8.876 -0.0922 -1.1139 -1.7723
   53CHL1  H15B 6348   7.084   3.425   8.989  0.8223 -1.6112 -0.7918
   53CHL1   C16 6349   7.005   3.341   8.800 -0.4400 -0.5808 -0.0292
   53CHL1  H16A 6350   7.084   3.376   8.730 -1.8188 -1.4982 -2.1710
   53CHL1  H16B 6351   7.033   3.243   8.842  2.2213 -0.7331 -1.9148
   53CHL1   C17 6352   6.856   3.334   8.750  0.2911  0.0295  0.0178
   53CHL1   H17 6353   6.812   3.246   8.801  1.6314 -1.2106 -0.8668
   53CHL1   C13 6354   6.773   3.437   8.839 -0.1336  0.7577 -0.6164
   53CHL1   C18 6355   6.763   3.581   8.777 -0.4243 -0.1898  0.3525
   53CHL1  H18A 6356   6.856   3.632   8.744 -1.3236  0.8493 -0.6687
   53CHL1  H18B 6357   6.684   3.575   8.699 -0.2608  0.7933  0.0939
   53CHL1  H18C 6358   6.726   3.656   8.850 -1.6510 -1.1234  0.7200
   53CHL1   C12 6359   6.633   3.387   8.879 -0.4564  0.3893  0.4293
   53CHL1  H12A 6360   6.570   3.385   8.788 -0.1549  0.4014  0.2208
   53CHL1  H12B 6361   6.625   3.283   8.919 -1.1687  0.6685  1.0276
   53CHL1   C11 6362   6.574   3.477   8.989 -0.4756 -0.2275 -0.7095
   53CHL1  H11A 6363   6.548   3.574   8.941  1.2409  1.2765  1.2412
   53CHL1  H11B 6364   6.483   3.429   9.031 -0.0843  0.2593  0.7829
   53CHL1    C9 6365   6.664   3.498   9.114  0.5993 -0.2766 -0.4902
   53CHL1    H9 6366   6.683   3.401   9.165  0.8940  0.7675  1.5141
   53CHL1   C10 6367   6.607   3.588   9.225  0.7321 -0.4839  0.9976
   53CHL1   C19 6368   6.559   3.721   9.159  0.4529 -0.2140 -0.3427
   53CHL1  H19A 6369   6.473   3.701   9.091  0.2506 -0.4391 -0.0215
   53CHL1  H19B 6370   6.526   3.794   9.235  1.6922 -0.6048  0.6051
   53CHL1  H19C 6371   6.645   3.764   9.103 -0.1919  0.1580 -1.0635
   53CHL1    C1 6372   6.493   3.510   9.303  0.6168 -0.3734  0.5567
   53CHL1   H1A 6373   6.409   3.489   9.235  0.1358 -0.2771  1.1112
   53CHL1   H1B 6374   6.537   3.413   9.333  0.0389 -1.5996 -2.2931
   53CHL1    C2 6375   6.434   3.590   9.416  0.0603  0.2572  0.7746
   53CHL1   H2A 6376   6.372   3.521   9.476 -2.0866  0.3129 -1.2460
   53CHL1   H2B 6377   6.383   3.679   9.374 -1.4090 -1.2843 -0.8696
   53CHL1   C20 6378   6.830   3.322   8.594 -0.5507  0.0497 -0.0218
   53CHL1   H20 6379   6.872   3.225   8.561 -0.5089 -0.7711  2.2292
   53CHL1   C21 6380   6.914   3.430   8.518  0.0403  0.3237  0.0876
   53CHL1  H21A 6381   6.993   3.475   8.581  0.8049  1.1090 -1.3887
   53CHL1  H21B 6382   6.851   3.513   8.479 -0.1246 -0.3307 -1.0894
   53CHL1  H21C 6383   6.964   3.383   8.431 -0.5279 -1.0443  0.4804
   53CHL1   C22 6384   6.680   3.319   8.549  0.3490 -0.0117 -0.0982
   53CHL1  H22A 6385   6.609   3.280   8.624 -0.3605 -1.2485 -1.3664
   53CHL1  H22B 6386   6.657   3.427   8.536 -0.6689 -0.3241 -1.0463
   53CHL1   C23 6387   6.669   3.248   8.416 -0.0385  0.1204 -0.3307
   53CHL1  H23A 6388   6.738   3.299   8.344  1.0274 -1.1794 -0.2638
   53CHL1  H23B 6389   6.715   3.148   8.426 -0.8134 -0.4921 -2.3617
   53CHL1   C24 6390   6.527   3.249   8.373  0.1795 -0.2416 -0.0225
   53CHL1  H24A 6391   6.451   3.205   8.441  0.3370 -0.9708 -0.3175
   53CHL1  H24B 6392   6.487   3.352   8.360  1.3515  0.3426  0.7462
   53CHL1   C25 6393   6.506   3.191   8.235 -1.1853  0.4522  0.3755
   53CHL1   H25 6394   6.547   3.088   8.249  0.0108  0.6798 -1.1148
   53CHL1   C26 6395   6.361   3.190   8.214  0.3243 -0.4889  0.2200
   53CHL1  H26A 6396   6.332   3.297   8.225  0.3051 -0.6883  2.5744
   53CHL1  H26B 6397   6.335   3.163   8.109 -0.6342 -1.8018  0.7631
   53CHL1  H26C 6398   6.300   3.130   8.285 -0.5359  0.5039  0.3420
   53CHL1   C27 6399   6.585   3.258   8.120  0.3104  1.0597 -0.5911
   53CHL1  H27A 6400   6.574   3.196   8.028  1.6890  0.3271 -0.2739
   53CHL1  H27B 6401   6.539   3.358   8.107 -1.5001  0.8437  3.0243
   53CHL1  H27C 6402   6.691   3.267   8.152 -0.8143  0.2684  4.2010
   54CHL1    C3 6403   6.624   4.107   9.291 -0.0340 -0.1461  0.6410
   54CHL1    H3 6404   6.566   4.020   9.253 -0.6560  0.7872 -0.6071
   54CHL1    O3 6405   6.601   4.144   9.424 -0.6509 -0.0570 -0.3824
   54CHL1   H3' 6406   6.662   4.089   9.472 -0.3060 -0.1562 -0.9218
   54CHL1    C4 6407   6.771   4.096   9.272 -0.4190  0.2795  1.1826
   54CHL1   H4A 6408   6.821   4.189   9.306  1.4762 -0.5569  0.7777
   54CHL1   H4B 6409   6.816   4.016   9.334 -1.9507 -0.5866  1.2331
   54CHL1    C5 6410   6.801   4.078   9.127  0.3654 -0.2560 -0.2852
   54CHL1    C6 6411   6.863   3.963   9.085  0.1575 -0.2744  0.6130
   54CHL1    H6 6412   6.885   3.882   9.155 -0.6339 -1.5439 -0.5508
   54CHL1    C7 6413   6.902   3.939   8.940  0.6090  0.2058 -0.4341
   54CHL1   H7A 6414   7.004   3.895   8.948 -0.4862 -2.1949  1.9210
   54CHL1   H7B 6415   6.841   3.863   8.886 -1.0112  1.6545 -0.7393
   54CHL1    C8 6416   6.907   4.065   8.846 -0.4910  0.7560 -0.2123
   54CHL1    H8 6417   7.001   4.121   8.864 -0.6063  1.3549 -1.3982
   54CHL1   C14 6418   6.912   4.022   8.700 -0.5969  0.2690  0.4962
   54CHL1   H14 6419   6.824   3.958   8.678  1.0654 -1.3737 -1.7892
   54CHL1   C15 6420   7.024   3.926   8.663  0.1796 -0.6358  0.3722
   54CHL1  H15A 6421   7.121   3.954   8.710  0.8365 -1.0868 -0.6624
   54CHL1  H15B 6422   6.997   3.821   8.687 -0.8163 -0.7493 -1.1199
   54CHL1   C16 6423   7.046   3.941   8.510  0.3147 -0.2792 -0.3737
   54CHL1  H16A 6424   7.150   3.964   8.480 -0.4805  2.3107 -1.4238
   54CHL1  H16B 6425   7.025   3.841   8.467  2.6158 -0.5755 -0.9217
   54CHL1   C17 6426   6.936   4.048   8.467  0.2582  0.6964 -0.1938
   54CHL1   H17 6427   6.839   3.998   8.446 -0.0648  0.6560  1.3196
   54CHL1   C13 6428   6.917   4.129   8.599 -0.2465  0.3906  0.4715
   54CHL1   C18 6429   7.035   4.221   8.618 -0.1085 -0.5014 -0.0290
   54CHL1  H18A 6430   7.048   4.291   8.533  0.3272  1.1322  1.3153
   54CHL1  H18B 6431   7.031   4.277   8.715  0.4546  0.2479 -0.4261
   54CHL1  H18C 6432   7.128   4.160   8.621  0.0165 -0.4114 -1.5512
   54CHL1   C12 6433   6.780   4.208   8.624  0.3267  0.0107  0.5977
   54CHL1  H12A 6434   6.754   4.287   8.550  0.2614 -0.5244  0.0363
   54CHL1  H12B 6435   6.700   4.134   8.603  0.3146  0.2503 -0.2626
   54CHL1   C11 6436   6.772   4.260   8.769  0.5783  0.3756  0.4917
   54CHL1  H11A 6437   6.845   4.342   8.788  0.6805  0.4147 -0.0543
   54CHL1  H11B 6438   6.674   4.309   8.784  0.7314  0.2115  2.2412
   54CHL1    C9 6439   6.778   4.147   8.871 -0.5565 -0.0516  0.1152
   54CHL1    H9 6440   6.690   4.083   8.848 -0.8381 -0.2662  1.7092
   54CHL1   C10 6441   6.753   4.189   9.025 -0.2438  0.5311  0.1631
   54CHL1   C19 6442   6.836   4.316   9.050 -0.4264  0.5184 -0.7150
   54CHL1  H19A 6443   6.864   4.323   9.157 -1.1787 -2.2470 -0.2612
   54CHL1  H19B 6444   6.931   4.312   8.991 -1.7182 -1.5088 -2.8507
   54CHL1  H19C 6445   6.784   4.409   9.021  1.3651  1.3108 -1.5818
   54CHL1    C1 6446   6.601   4.207   9.057  0.5116 -0.5690  0.2574
   54CHL1   H1A 6447   6.558   4.292   9.000 -0.5352 -1.2474  0.0022
   54CHL1   H1B 6448   6.543   4.116   9.029 -1.2273  1.3172 -2.9065
   54CHL1    C2 6449   6.579   4.225   9.208 -0.0602  0.1700 -0.0521
   54CHL1   H2A 6450   6.470   4.242   9.219 -0.2962 -0.4786 -1.2349
   54CHL1   H2B 6451   6.632   4.315   9.248  1.2162  0.8964 -3.1033
   54CHL1   C20 6452   6.969   4.119   8.334  0.2294  0.0076 -0.0461
   54CHL1   H20 6453   7.052   4.190   8.353 -0.4548  1.1790 -1.2621
   54CHL1   C21 6454   6.852   4.205   8.284  0.8677 -0.3081 -0.1270
   54CHL1  H21A 6455   6.831   4.285   8.358  1.5625  2.1950 -2.5078
   54CHL1  H21B 6456   6.756   4.151   8.267  0.6937  0.0383 -0.2500
   54CHL1  H21C 6457   6.887   4.248   8.188  2.4613  1.3102  1.1139
   54CHL1   C22 6458   7.006   4.019   8.217  0.4049 -0.1371  0.2346
   54CHL1  H22A 6459   7.063   3.929   8.246 -2.5137 -2.0421  0.4877
   54CHL1  H22B 6460   6.909   3.984   8.176 -0.6537 -0.0533  2.5259
   54CHL1   C23 6461   7.085   4.083   8.092  0.7785 -0.0271  0.0486
   54CHL1  H23A 6462   7.034   4.174   8.056 -3.6069 -2.1651  0.2256
   54CHL1  H23B 6463   7.188   4.117   8.118  0.6003  0.5629 -0.0145
   54CHL1   C24 6464   7.092   3.983   7.973  0.1492  0.0333 -0.2614
   54CHL1  H24A 6465   7.156   3.894   7.996 -0.5269 -1.5511 -3.8753
   54CHL1  H24B 6466   6.987   3.948   7.962  0.1178 -0.9724  2.4238
   54CHL1   C25 6467   7.146   4.039   7.835 -0.4392 -0.8561  0.2363
   54CHL1   H25 6468   7.061   4.102   7.801  0.2271  0.7651  1.4878
   54CHL1   C26 6469   7.262   4.133   7.843 -0.7239 -0.5060  0.1782
   54CHL1  H26A 6470   7.278   4.184   7.746 -1.4243 -0.9400 -0.1683
   54CHL1  H26B 6471   7.270   4.217   7.916  0.9183 -0.4333 -0.0432
   54CHL1  H26C 6472   7.351   4.070   7.866 -0.1709  0.6573  1.3921
   54CHL1   C27 6473   7.160   3.929   7.732  0.4838  0.4568  0.0965
   54CHL1  H27A 6474   7.242   3.856   7.752 -0.0330  0.0385  0.7165
   54CHL1  H27B 6475   7.072   3.861   7.726  1.2509 -0.4474 -2.3448
   54CHL1  H27C 6476   7.172   3.971   7.630 -3.3389 -1.3125 -1.2924
   55CHL1    C3 6477   1.350   3.019   9.365  0.4430 -0.1025  0.4118
   55CHL1    H3 6478   1.451   3.008   9.320  1.4503 -1.1844  2.7502
   55CHL1    O3 6479   1.363   3.049   9.505 -0.0702  0.0683 -0.3068
   55CHL1   H3' 6480   1.401   3.136   9.517 -0.5506  0.3944 -1.1067
   55CHL1    C4 6481   1.281   3.127   9.294  0.1137 -0.2363 -0.5482
   55CHL1   H4A 6482   1.193   3.164   9.351  0.4513  0.8079 -0.6849
   55CHL1   H4B 6483   1.338   3.222   9.283 -1.0596  0.4925 -0.4476
   55CHL1    C5 6484   1.244   3.086   9.155 -0.6013  0.1613 -0.3349
   55CHL1    C6 6485   1.258   3.175   9.054  0.2915  0.3833  0.2188
   55CHL1    H6 6486   1.310   3.269   9.079  2.1564 -0.9318  1.5494
   55CHL1    C7 6487   1.213   3.151   8.907 -0.1095 -0.9573 -0.6353
   55CHL1   H7A 6488   1.166   3.248   8.880  2.7652  1.5485  2.4405
   55CHL1   H7B 6489   1.300   3.141   8.839  0.8763 -0.8378  0.5712
   55CHL1    C8 6490   1.112   3.034   8.894  0.3137  0.2324  0.3397
   55CHL1    H8 6491   1.018   3.084   8.924 -0.7043 -2.7644  2.7539
   55CHL1   C14 6492   1.094   2.982   8.748 -0.6309 -0.0128 -0.4826
   55CHL1   H14 6493   1.183   2.921   8.719 -0.6207 -1.1028  1.6630
   55CHL1   C15 6494   1.079   3.089   8.630  0.0098 -0.4815 -0.1256
   55CHL1  H15A 6495   1.007   3.167   8.664  0.2755 -1.3338  2.6318
   55CHL1  H15B 6496   1.176   3.141   8.613 -1.1473  1.8828  0.1137
   55CHL1   C16 6497   1.018   3.009   8.514  0.0919  0.8514  0.7546
   55CHL1  H16A 6498   0.931   3.066   8.476 -0.1647 -0.1330 -0.1670
   55CHL1  H16B 6499   1.092   2.989   8.434  0.2808  0.2250  1.0773
   55CHL1   C17 6500   0.974   2.870   8.581  0.2053  0.2068 -0.4248
   55CHL1   H17 6501   1.059   2.800   8.564 -0.2456  0.0069 -2.0422
   55CHL1   C13 6502   0.972   2.895   8.735 -0.9315 -0.1572 -0.8197
   55CHL1   C18 6503   0.846   2.972   8.768 -0.2780 -0.2578  0.5768
   55CHL1  H18A 6504   0.833   2.998   8.875 -0.7488  0.7918  0.2790
   55CHL1  H18B 6505   0.841   3.066   8.710  1.1612  1.5770  3.2279
   55CHL1  H18C 6506   0.758   2.912   8.735 -1.6226  2.0201 -0.1541
   55CHL1   C12 6507   0.985   2.771   8.825  0.0776  0.1649 -0.7674
   55CHL1  H12A 6508   0.894   2.707   8.829 -0.2688  0.7098  0.5039
   55CHL1  H12B 6509   1.068   2.708   8.788  0.0259 -1.1853  1.2643
   55CHL1   C11 6510   1.019   2.814   8.972  0.5207  0.1835  0.4113
   55CHL1  H11A 6511   0.923   2.862   9.002 -0.4984 -0.5674 -1.4608
   55CHL1  H11B 6512   1.038   2.723   9.034  0.6387 -0.2147 -0.1987
   55CHL1    C9 6513   1.137   2.912   8.982  1.0011 -0.1693 -0.3299
   55CHL1    H9 6514   1.233   2.865   8.952  3.0100  2.2410  1.7898
   55CHL1   C10 6515   1.161   2.954   9.135 -0.4857  0.2375 -0.7629
   55CHL1   C19 6516   1.026   2.984   9.206 -0.3296 -0.0731 -0.1827
   55CHL1  H19A 6517   1.054   3.019   9.307  1.1584 -2.1631  0.1784
   55CHL1  H19B 6518   0.970   3.065   9.153  0.1135  0.8995  0.7959
   55CHL1  H19C 6519   0.957   2.899   9.218 -0.7513  0.2316 -0.4184
   55CHL1    C1 6520   1.247   2.847   9.203 -0.2943 -0.2641 -0.0342
   55CHL1   H1A 6521   1.186   2.755   9.216  0.2170 -0.4384  1.3595
   55CHL1   H1B 6522   1.343   2.836   9.147  0.0807  1.3589  0.2436
   55CHL1    C2 6523   1.282   2.882   9.349 -0.4352 -0.1262 -0.2624
   55CHL1   H2A 6524   1.355   2.809   9.389 -1.0021 -0.1431  0.7834
   55CHL1   H2B 6525   1.192   2.893   9.414 -0.6039  0.6909 -0.6207
   55CHL1   C20 6526   0.863   2.806   8.498 -0.0728 -0.0177 -0.6383
   55CHL1   H20 6527   0.769   2.865   8.496 -1.4327 -2.0400 -2.7886
   55CHL1   C21 6528   0.823   2.673   8.569 -0.2553 -0.3111 -0.6011
   55CHL1  H21A 6529   0.745   2.626   8.506 -1.7568  2.8510 -1.2941
   55CHL1  H21B 6530   0.768   2.703   8.661 -1.2460 -0.4926 -1.1226
   55CHL1  H21C 6531   0.915   2.613   8.583  0.9808  1.7640  0.8688
   55CHL1   C22 6532   0.903   2.769   8.354 -0.4023 -0.4626  0.0613
   55CHL1  H22A 6533   0.991   2.702   8.352 -1.7939 -2.4266  1.4467
   55CHL1  H22B 6534   0.812   2.710   8.331 -0.2414 -0.9018  0.5532
   55CHL1   C23 6535   0.889   2.888   8.250 -0.4003 -0.2442 -0.4263
   55CHL1  H23A 6536   0.796   2.943   8.276 -1.9670 -3.0975  0.4291
   55CHL1  H23B 6537   0.975   2.958   8.244 -0.8950  0.3129 -1.1453
   55CHL1   C24 6538   0.863   2.840   8.105 -0.0031 -0.6634  0.1662
   55CHL1  H24A 6539   0.947   2.781   8.063  0.3695  0.5787 -0.8734
   55CHL1  H24B 6540   0.777   2.769   8.106 -1.8968  1.4823  1.0035
   55CHL1   C25 6541   0.816   2.946   8.000  0.4047 -0.2686 -0.0183
   55CHL1   H25 6542   0.726   2.993   8.045 -0.4489 -1.4723 -0.4381
   55CHL1   C26 6543   0.919   3.067   7.977  1.0709 -0.4334  0.0763
   55CHL1  H26A 6544   0.933   3.117   8.075  0.6721  2.0185 -1.0473
   55CHL1  H26B 6545   1.014   3.020   7.942  0.4784 -0.2743 -1.8335
   55CHL1  H26C 6546   0.875   3.139   7.905 -0.7283 -0.7131  0.8300
   55CHL1   C27 6547   0.778   2.881   7.865  0.8908 -0.1777 -0.3830
   55CHL1  H27A 6548   0.748   2.958   7.791  0.1327 -0.9770 -0.9383
   55CHL1  H27B 6549   0.860   2.820   7.820  1.1206 -1.8579  2.1241
   55CHL1  H27C 6550   0.695   2.807   7.871  1.3521 -0.6452  0.3496
   56CHL1    C3 6551   4.433   1.283   9.299 -0.0948 -0.6342  0.4543
   56CHL1    H3 6552   4.479   1.379   9.269  0.5581 -0.9221  0.5188
   56CHL1    O3 6553   4.368   1.301   9.421  0.1626  0.4334 -0.5354
   56CHL1   H3' 6554   4.441   1.347   9.463 -0.5473 -1.0741  2.5857
   56CHL1    C4 6555   4.331   1.244   9.190 -0.4475 -0.4206  0.2345
   56CHL1   H4A 6556   4.266   1.159   9.221 -1.5670 -0.2334 -1.4305
   56CHL1   H4B 6557   4.260   1.329   9.181  1.3368  1.0081 -1.1974
   56CHL1    C5 6558   4.390   1.204   9.053  0.3017  0.2460  0.4934
   56CHL1    C6 6559   4.350   1.259   8.938  0.4703 -0.2880  0.2757
   56CHL1    H6 6560   4.266   1.328   8.927  0.2863 -0.7458 -1.4205
   56CHL1    C7 6561   4.404   1.211   8.805 -0.6697 -0.3095  0.0356
   56CHL1   H7A 6562   4.322   1.199   8.731 -1.6774  1.6460  0.7636
   56CHL1   H7B 6563   4.461   1.295   8.759 -1.3387  0.0480 -0.1463
   56CHL1    C8 6564   4.488   1.081   8.802 -0.5292  0.5560  0.1792
   56CHL1    H8 6565   4.414   0.998   8.791  1.7282 -1.6129  0.5042
   56CHL1   C14 6566   4.588   1.089   8.678  0.6332 -0.1331 -0.3258
   56CHL1   H14 6567   4.652   1.176   8.705 -0.3435  0.5494 -0.1655
   56CHL1   C15 6568   4.532   1.125   8.539  0.0292  0.2988 -0.1275
   56CHL1  H15A 6569   4.435   1.073   8.527  0.5036 -0.3678 -1.1960
   56CHL1  H15B 6570   4.514   1.234   8.549  0.1297  0.4361 -1.3122
   56CHL1   C16 6571   4.637   1.063   8.445  0.4927 -0.6866  0.6745
   56CHL1  H16A 6572   4.571   0.987   8.398 -0.3776 -0.1239  0.9653
   56CHL1  H16B 6573   4.680   1.133   8.370 -0.7453  0.5667  1.0885
   56CHL1   C17 6574   4.742   0.996   8.538  0.1894  0.4929 -0.2473
   56CHL1   H17 6575   4.804   1.083   8.569 -2.6715  1.9455  1.9178
   56CHL1   C13 6576   4.674   0.966   8.671  0.2193 -0.0836 -0.3857
   56CHL1   C18 6577   4.598   0.831   8.667 -0.0881 -0.4853  0.7712
   56CHL1  H18A 6578   4.526   0.815   8.750 -4.3708  2.7755 -1.9145
   56CHL1  H18B 6579   4.532   0.810   8.580  2.0948 -0.6358 -0.9492
   56CHL1  H18C 6580   4.677   0.752   8.659 -0.7008 -0.9344 -2.0796
   56CHL1   C12 6581   4.761   0.968   8.798  0.7474 -0.1125  0.0773
   56CHL1  H12A 6582   4.810   0.868   8.802  0.1382 -0.3845  1.1020
   56CHL1  H12B 6583   4.840   1.045   8.785  1.8104 -0.9207  1.4563
   56CHL1   C11 6584   4.679   0.969   8.922  0.0092 -0.2083  0.2781
   56CHL1  H11A 6585   4.624   0.876   8.948 -0.0607 -0.1838  0.2179
   56CHL1  H11B 6586   4.751   0.992   9.004  0.8048  1.9408 -0.9620
   56CHL1    C9 6587   4.574   1.083   8.926 -0.5739  0.0200 -0.5801
   56CHL1    H9 6588   4.638   1.174   8.921 -0.8385  0.1598 -5.2500
   56CHL1   C10 6589   4.504   1.094   9.063  0.4909 -0.2180  0.2254
   56CHL1   C19 6590   4.433   0.958   9.094 -0.0549  0.2186  0.6266
   56CHL1  H19A 6591   4.497   0.870   9.115  0.4684  0.2899 -0.5910
   56CHL1  H19B 6592   4.371   0.978   9.184 -1.3322  0.0897 -0.2118
   56CHL1  H19C 6593   4.367   0.933   9.009  0.4608  0.4652  0.1431
   56CHL1    C1 6594   4.599   1.129   9.193  0.3452 -0.6231  0.2157
   56CHL1   H1A 6595   4.655   1.034   9.209  0.3155 -0.3725  1.9788
   56CHL1   H1B 6596   4.680   1.193   9.153 -0.2295  0.4305  0.7104
   56CHL1    C2 6597   4.532   1.174   9.318  0.1543  0.5875 -0.8805
   56CHL1   H2A 6598   4.612   1.199   9.391  1.3027 -1.4578 -1.3553
   56CHL1   H2B 6599   4.472   1.091   9.359  2.1789 -2.2405 -3.2164
   56CHL1   C20 6600   4.827   0.884   8.469  0.6057 -0.2277  0.6291
   56CHL1   H20 6601   4.785   0.783   8.450 -0.8224  0.7433 -1.8412
   56CHL1   C21 6602   4.949   0.865   8.556 -0.7414 -0.6004 -0.6759
   56CHL1  H21A 6603   5.034   0.837   8.490  0.7333  1.6977  0.1438
   56CHL1  H21B 6604   4.940   0.781   8.627 -0.4021 -0.2639 -0.2309
   56CHL1  H21C 6605   4.979   0.961   8.604 -2.8909 -0.7298  1.0656
   56CHL1   C22 6606   4.868   0.914   8.324  0.0841 -0.8326 -0.5542
   56CHL1  H22A 6607   4.867   1.024   8.304 -0.5004 -1.1069 -2.2504
   56CHL1  H22B 6608   4.974   0.880   8.325  0.4045  0.0994 -1.0306
   56CHL1   C23 6609   4.802   0.826   8.218  0.0187  0.4121 -0.5010
   56CHL1  H23A 6610   4.827   0.725   8.257  2.9877  1.6038  1.0143
   56CHL1  H23B 6611   4.691   0.824   8.220 -0.0257 -3.1328  1.4706
   56CHL1   C24 6612   4.861   0.832   8.074  0.0519 -0.2639  0.3043
   56CHL1  H24A 6613   4.858   0.939   8.046  0.6596 -0.9325 -2.6215
   56CHL1  H24B 6614   4.967   0.801   8.061  0.2015  0.4816 -0.2731
   56CHL1   C25 6615   4.777   0.760   7.963 -0.3135 -0.3410 -0.9848
   56CHL1   H25 6616   4.669   0.760   7.988  0.4381 -0.4097  3.0317
   56CHL1   C26 6617   4.798   0.832   7.819 -0.5669  0.0946 -0.4158
   56CHL1  H26A 6618   4.795   0.942   7.831  0.7540  0.1356 -0.3163
   56CHL1  H26B 6619   4.900   0.809   7.782 -0.9314 -1.0900 -0.7437
   56CHL1  H26C 6620   4.716   0.795   7.754 -1.2734  0.9751 -0.0357
   56CHL1   C27 6621   4.813   0.613   7.955  0.5426 -0.0163  0.1543
   56CHL1  H27A 6622   4.921   0.598   7.933  0.0280 -1.0058 -2.0011
   56CHL1  H27B 6623   4.773   0.561   8.045  0.8206  1.6861  1.3018
   56CHL1  H27C 6624   4.761   0.563   7.869 -0.0496  0.1886  0.3884
   57CHL1    C3 6625   1.218   3.807   9.324  1.1657  0.3423 -0.3272
   57CHL1    H3 6626   1.272   3.715   9.294  1.5816  0.7966 -0.9996
   57CHL1    O3 6627   1.219   3.822   9.467 -0.0618  0.5190 -0.4973
   57CHL1   H3' 6628   1.191   3.913   9.475 -1.1035  0.1465  0.3293
   57CHL1    C4 6629   1.280   3.932   9.263  0.0082  0.0262 -0.3687
   57CHL1   H4A 6630   1.217   4.017   9.297  1.6031  1.1056  0.0219
   57CHL1   H4B 6631   1.382   3.950   9.306 -0.1982 -0.1159  0.1959
   57CHL1    C5 6632   1.286   3.921   9.116 -0.0032 -0.6423 -0.4405
   57CHL1    C6 6633   1.399   3.923   9.046  0.0045  0.1096  0.1438
   57CHL1    H6 6634   1.492   3.940   9.103 -0.4080  1.6968  0.3793
   57CHL1    C7 6635   1.410   3.919   8.895 -0.1434  0.8864 -0.2135
   57CHL1   H7A 6636   1.472   4.007   8.869 -0.6378  1.9872  2.0356
   57CHL1   H7B 6637   1.463   3.830   8.856 -0.3747  0.7796 -0.2894
   57CHL1    C8 6638   1.274   3.933   8.823  0.6494  0.2904 -0.5800
   57CHL1    H8 6639   1.246   4.041   8.822 -0.8022  0.0732 -5.3516
   57CHL1   C14 6640   1.285   3.878   8.681 -0.2373  0.7690  0.7208
   57CHL1   H14 6641   1.296   3.768   8.687 -1.9808  0.3238 -2.1943
   57CHL1   C15 6642   1.402   3.928   8.585  0.5396  0.9754 -0.1251
   57CHL1  H15A 6643   1.408   4.038   8.600 -0.7451  1.0149  0.2528
   57CHL1  H15B 6644   1.495   3.887   8.628  0.3872  0.9164  0.1498
   57CHL1   C16 6645   1.357   3.877   8.448  0.1204  0.0287 -0.1341
   57CHL1  H16A 6646   1.383   3.952   8.370  1.3285 -0.1554  0.0688
   57CHL1  H16B 6647   1.408   3.783   8.419 -1.2034 -0.6741 -0.2741
   57CHL1   C17 6648   1.202   3.850   8.460  0.8229 -0.4627 -0.3615
   57CHL1   H17 6649   1.194   3.740   8.467  0.0656 -0.3851  0.0831
   57CHL1   C13 6650   1.165   3.906   8.596  1.0159  0.4751 -0.2414
   57CHL1   C18 6651   1.140   4.064   8.574 -0.0594 -0.2894  0.0646
   57CHL1  H18A 6652   1.217   4.107   8.506  1.5997  0.8055  2.4798
   57CHL1  H18B 6653   1.040   4.095   8.537 -2.3642 -1.1875  4.8502
   57CHL1  H18C 6654   1.142   4.115   8.673 -0.8260  0.8615 -0.4881
   57CHL1   C12 6655   1.050   3.836   8.665 -0.4929  0.9005  0.0947
   57CHL1  H12A 6656   0.951   3.841   8.614 -0.8909  0.7275  0.8395
   57CHL1  H12B 6657   1.078   3.729   8.669 -2.0186  0.5090  1.6158
   57CHL1   C11 6658   1.034   3.879   8.815 -0.4437 -0.1728 -0.6016
   57CHL1  H11A 6659   0.994   3.982   8.808  0.1819  0.0007 -1.9310
   57CHL1  H11B 6660   0.955   3.808   8.847  0.9350 -0.7952  1.6915
   57CHL1    C9 6661   1.163   3.865   8.899  0.2101  0.3350 -0.6654
   57CHL1    H9 6662   1.182   3.756   8.892  0.6318  0.5051 -2.6939
   57CHL1   C10 6663   1.148   3.903   9.045  0.1265  0.4556 -0.3869
   57CHL1   C19 6664   1.049   4.025   9.058  0.3873  0.4859  0.6502
   57CHL1  H19A 6665   1.040   4.052   9.166  1.7109  2.4694  0.3250
   57CHL1  H19B 6666   1.083   4.115   9.003 -1.4157  0.8698  0.0951
   57CHL1  H19C 6667   0.946   3.996   9.028  0.7203 -0.6833  0.5942
   57CHL1    C1 6668   1.076   3.781   9.115 -0.5111 -1.3401 -0.0893
   57CHL1   H1A 6669   0.971   3.787   9.077 -0.7657 -0.5557  0.7135
   57CHL1   H1B 6670   1.128   3.685   9.092  1.7333 -0.3669  0.6670
   57CHL1    C2 6671   1.072   3.788   9.271  0.2710 -0.3983 -0.0515
   57CHL1   H2A 6672   1.029   3.693   9.310 -0.3959  0.0719  0.3867
   57CHL1   H2B 6673   1.010   3.876   9.300  0.5999 -0.1269 -0.1666
   57CHL1   C20 6674   1.124   3.889   8.338 -0.3811 -0.6532 -0.4553
   57CHL1   H20 6675   1.127   3.998   8.320 -4.3223  0.1026  2.3398
   57CHL1   C21 6676   0.981   3.859   8.338  0.6634 -0.0503 -0.3394
   57CHL1  H21A 6677   0.939   3.901   8.244 -1.7028 -1.1050  0.1751
   57CHL1  H21B 6678   0.936   3.911   8.425  0.7787 -1.8947  0.8732
   57CHL1  H21C 6679   0.959   3.750   8.346 -1.8643  0.1877 -2.6645
   57CHL1   C22 6680   1.178   3.807   8.209  0.5529 -0.1107  0.5994
   57CHL1  H22A 6681   1.258   3.734   8.233  1.0932 -1.0220 -3.2206
   57CHL1  H22B 6682   1.091   3.748   8.173 -1.8738  3.3380  0.2739
   57CHL1   C23 6683   1.209   3.901   8.093  0.2242 -0.2121  0.0385
   57CHL1  H23A 6684   1.109   3.950   8.083  0.0818 -0.6076 -0.6008
   57CHL1  H23B 6685   1.290   3.969   8.126 -0.3669 -0.3310  1.8414
   57CHL1   C24 6686   1.246   3.841   7.951  0.3239  0.3363 -0.3776
   57CHL1  H24A 6687   1.256   3.931   7.887 -0.5499  0.2554 -0.6350
   57CHL1  H24B 6688   1.342   3.786   7.946  0.7705  1.0377  0.2209
   57CHL1   C25 6689   1.140   3.755   7.884  0.5010  0.3692 -0.2016
   57CHL1   H25 6690   1.128   3.665   7.948  2.3250  1.2282  1.4360
   57CHL1   C26 6691   0.997   3.816   7.887 -0.0202  0.4045 -0.1681
   57CHL1  H26A 6692   0.927   3.756   7.824  1.3291 -1.7516  0.2708
   57CHL1  H26B 6693   0.955   3.823   7.990 -0.8493 -0.2971 -0.4364
   57CHL1  H26C 6694   1.005   3.917   7.842  1.4079  1.0618  1.4922
   57CHL1   C27 6695   1.169   3.702   7.741  0.3901 -0.3705  0.0941
   57CHL1  H27A 6696   1.153   3.784   7.668  1.8952 -0.5136 -0.4371
   57CHL1  H27B 6697   1.275   3.670   7.753 -0.0163 -0.9643  2.8403
   57CHL1  H27C 6698   1.123   3.603   7.722  0.1057  0.0602 -1.5993
   58CHL1    C3 6699   2.078   0.783   9.341 -0.1825 -0.7985 -0.6737
   58CHL1    H3 6700   2.141   0.869   9.310  1.3664 -2.2845 -1.7938
   58CHL1    O3 6701   2.097   0.746   9.473  0.3794  0.4841 -0.2788
   58CHL1   H3' 6702   2.190   0.767   9.487  0.3025  0.4334  0.3196
   58CHL1    C4 6703   1.931   0.807   9.298  0.1016 -0.0745  1.0326
   58CHL1   H4A 6704   1.872   0.716   9.323 -1.5138  0.3796 -0.9007
   58CHL1   H4B 6705   1.882   0.885   9.360 -1.8379 -0.1744 -0.2591
   58CHL1    C5 6706   1.901   0.826   9.155  0.0515  0.2584  0.2569
   58CHL1    C6 6707   1.818   0.926   9.114  0.0774 -0.1123  0.4191
   58CHL1    H6 6708   1.773   0.986   9.194 -1.8331 -1.4353  0.4040
   58CHL1    C7 6709   1.785   0.949   8.968  0.1225  0.6544 -0.3527
   58CHL1   H7A 6710   1.676   0.964   8.950  0.0524 -0.1340 -0.6165
   58CHL1   H7B 6711   1.835   1.045   8.943 -1.6177  1.5088 -0.7515
   58CHL1    C8 6712   1.829   0.833   8.875 -0.1435  0.6780  0.6850
   58CHL1    H8 6713   1.747   0.758   8.882  1.4635 -1.2172  0.0692
   58CHL1   C14 6714   1.842   0.886   8.729  0.1333  0.3424  0.4470
   58CHL1   H14 6715   1.932   0.951   8.734  0.5733 -0.3187  2.2355
   58CHL1   C15 6716   1.727   0.970   8.670  0.3782  0.5706  0.0503
   58CHL1  H15A 6717   1.632   0.915   8.683  0.2284  0.7659 -0.1950
   58CHL1  H15B 6718   1.711   1.074   8.708 -2.5609  0.0700  0.4104
   58CHL1   C16 6719   1.752   0.977   8.519  0.3352  0.6110  0.5218
   58CHL1  H16A 6720   1.656   0.940   8.477  0.2760  0.2137  0.9922
   58CHL1  H16B 6721   1.782   1.078   8.483  1.9894  0.7275  2.0784
   58CHL1   C17 6722   1.866   0.878   8.496 -0.2599  0.1437  1.3916
   58CHL1   H17 6723   1.958   0.938   8.481 -1.5377  1.5985 -1.1108
   58CHL1   C13 6724   1.872   0.783   8.623  0.4526 -0.4126  0.0627
   58CHL1   C18 6725   1.762   0.677   8.624  0.3047 -0.5163 -0.0997
   58CHL1  H18A 6726   1.660   0.716   8.607  0.4488  0.6344  1.5254
   58CHL1  H18B 6727   1.795   0.613   8.539 -0.2517  0.8521 -1.3991
   58CHL1  H18C 6728   1.763   0.623   8.721  2.9442  0.3401  0.4554
   58CHL1   C12 6729   2.010   0.717   8.655 -0.2077 -0.3708 -0.5093
   58CHL1  H12A 6730   2.026   0.633   8.585 -1.0969  1.1839 -2.7306
   58CHL1  H12B 6731   2.092   0.793   8.653 -0.3234 -0.1043  1.7458
   58CHL1   C11 6732   2.020   0.666   8.806 -0.2260 -0.6117 -0.1624
   58CHL1  H11A 6733   1.963   0.571   8.805  2.1043 -2.1226  0.4187
   58CHL1  H11B 6734   2.127   0.645   8.829 -0.5019 -0.3990  1.4416
   58CHL1    C9 6735   1.970   0.775   8.910  0.7583  0.4636 -0.0824
   58CHL1    H9 6736   2.038   0.863   8.901  0.3076  0.7308 -0.9440
   58CHL1   C10 6737   1.977   0.728   9.064 -0.2977  0.2225 -0.6726
   58CHL1   C19 6738   1.908   0.588   9.074  0.1271 -0.5971 -0.7060
   58CHL1  H19A 6739   1.979   0.502   9.071  0.6076 -0.3678  1.8677
   58CHL1  H19B 6740   1.853   0.578   9.170 -0.0641  1.0810 -0.6167
   58CHL1  H19C 6741   1.832   0.575   8.994 -1.5667  0.9282  0.5645
   58CHL1    C1 6742   2.122   0.697   9.107  0.3890  0.2128  0.8145
   58CHL1   H1A 6743   2.146   0.606   9.048 -2.2420  0.2247 -0.4516
   58CHL1   H1B 6744   2.198   0.773   9.081 -0.4042  0.4402 -0.9993
   58CHL1    C2 6745   2.139   0.670   9.256 -0.2348 -0.2577  1.0509
   58CHL1   H2A 6746   2.249   0.662   9.261 -0.0265  0.3805 -1.0870
   58CHL1   H2B 6747   2.093   0.571   9.278 -0.0807 -0.7098 -0.5366
   58CHL1   C20 6748   1.840   0.811   8.361 -1.1189  0.0534  0.7938
   58CHL1   H20 6749   1.742   0.760   8.371 -1.6421  1.0477  0.8595
   58CHL1   C21 6750   1.956   0.715   8.326  0.1793 -0.3384  0.3832
   58CHL1  H21A 6751   2.060   0.741   8.353  0.8190 -3.2144  1.0128
   58CHL1  H21B 6752   1.955   0.677   8.221 -2.1691 -1.3809  0.7111
   58CHL1  H21C 6753   1.941   0.618   8.378 -3.3703 -0.1395  0.0213
   58CHL1   C22 6754   1.824   0.909   8.240  0.3207 -0.0061  0.2786
   58CHL1  H22A 6755   1.721   0.949   8.255  0.4588 -0.4872  3.0466
   58CHL1  H22B 6756   1.896   0.992   8.256  0.0619  0.6853 -1.8302
   58CHL1   C23 6757   1.830   0.855   8.092  1.1595 -0.1673 -0.5481
   58CHL1  H23A 6758   1.932   0.829   8.054  2.0630  1.4852  0.6030
   58CHL1  H23B 6759   1.761   0.769   8.090  0.8446  0.0705  0.0553
   58CHL1   C24 6760   1.780   0.968   7.992 -0.3996 -0.0483  0.1559
   58CHL1  H24A 6761   1.674   0.997   8.008 -0.2819  1.4381 -1.4725
   58CHL1  H24B 6762   1.843   1.057   8.007  1.6949 -1.5641  0.8266
   58CHL1   C25 6763   1.784   0.943   7.845  0.7430 -0.3429 -0.0487
   58CHL1   H25 6764   1.889   0.956   7.813  0.9280  0.3382  0.7833
   58CHL1   C26 6765   1.730   0.810   7.807  0.2491 -0.3378  0.0530
   58CHL1  H26A 6766   1.797   0.724   7.827  0.1020 -0.0932  1.7402
   58CHL1  H26B 6767   1.643   0.787   7.872  0.2280  0.5870  0.3666
   58CHL1  H26C 6768   1.713   0.806   7.697  1.2556 -0.6509 -0.0987
   58CHL1   C27 6769   1.690   1.041   7.769  0.7965 -0.6176 -0.3459
   58CHL1  H27A 6770   1.587   1.023   7.808  1.4745 -2.7281  0.6508
   58CHL1  H27B 6771   1.714   1.147   7.793  1.9433 -0.8983 -0.1916
   58CHL1  H27C 6772   1.688   1.031   7.659  1.7827  0.1023 -0.4419
   59CHL1    C3 6773   3.571   0.412   9.318 -0.0575 -0.2308 -0.1553
   59CHL1    H3 6774   3.625   0.493   9.265  1.5922 -0.6966  0.7282
   59CHL1    O3 6775   3.603   0.412   9.457 -0.1758  0.0271 -0.1287
   59CHL1   H3' 6776   3.563   0.332   9.492  0.8481 -0.6606 -0.4636
   59CHL1    C4 6777   3.416   0.453   9.307  0.5588  0.4566 -0.0055
   59CHL1   H4A 6778   3.363   0.372   9.363  0.3217 -0.9883 -2.1976
   59CHL1   H4B 6779   3.406   0.558   9.341 -0.4405  0.2774  0.2729
   59CHL1    C5 6780   3.373   0.450   9.163  0.2993 -0.2430  0.0761
   59CHL1    C6 6781   3.313   0.555   9.107 -0.5459 -1.1063  0.8303
   59CHL1    H6 6782   3.297   0.648   9.164  0.5306 -0.8498  0.7320
   59CHL1    C7 6783   3.269   0.555   8.963 -1.3004 -0.0536  0.3062
   59CHL1   H7A 6784   3.165   0.592   8.956 -1.9589 -1.6205  1.3361
   59CHL1   H7B 6785   3.324   0.635   8.909 -1.2279  0.8606  1.6781
   59CHL1    C8 6786   3.280   0.423   8.888 -0.6582  0.2629 -0.1770
   59CHL1    H8 6787   3.189   0.363   8.910 -1.4134  1.7883  1.0108
   59CHL1   C14 6788   3.292   0.439   8.735 -0.4745 -0.1875 -0.3957
   59CHL1   H14 6789   3.382   0.500   8.715 -1.5732  1.5910 -0.1614
   59CHL1   C15 6790   3.194   0.531   8.667  0.0464  0.9148 -0.3454
   59CHL1  H15A 6791   3.097   0.484   8.696  0.1784  1.3231  0.8221
   59CHL1  H15B 6792   3.190   0.639   8.691  0.5235  1.2942 -1.8636
   59CHL1   C16 6793   3.219   0.505   8.517  0.4380 -0.1758 -0.2321
   59CHL1  H16A 6794   3.117   0.489   8.476  0.7481  0.0916 -1.1267
   59CHL1  H16B 6795   3.265   0.591   8.463  1.0158  0.2240  0.8605
   59CHL1   C17 6796   3.319   0.384   8.507  0.3983  0.0398  0.5751
   59CHL1   H17 6797   3.422   0.425   8.498 -0.4889  2.0490 -1.4741
   59CHL1   C13 6798   3.309   0.313   8.648  0.3825  0.0067 -0.5849
   59CHL1   C18 6799   3.171   0.234   8.651 -0.7708 -0.3201  0.0052
   59CHL1  H18A 6800   3.147   0.202   8.754 -2.2844  0.9217  0.0712
   59CHL1  H18B 6801   3.083   0.293   8.618 -0.5105  1.0336  1.5570
   59CHL1  H18C 6802   3.191   0.143   8.591 -0.8737 -0.8895  0.8173
   59CHL1   C12 6803   3.425   0.238   8.696  0.3623 -0.0701 -0.6856
   59CHL1  H12A 6804   3.440   0.136   8.654  0.6806 -0.6962  0.8728
   59CHL1  H12B 6805   3.511   0.304   8.670  1.0445 -0.8224 -0.3927
   59CHL1   C11 6806   3.425   0.215   8.850  0.2603 -0.5910  0.0013
   59CHL1  H11A 6807   3.339   0.147   8.867 -1.7277  1.1869 -2.1032
   59CHL1  H11B 6808   3.516   0.161   8.884  0.0671  1.8277  5.5671
   59CHL1    C9 6809   3.406   0.342   8.933  0.0870 -0.4189 -0.4896
   59CHL1    H9 6810   3.487   0.411   8.899 -0.1705 -0.4728 -1.2348
   59CHL1   C10 6811   3.403   0.319   9.084  0.6087  0.1303 -0.9395
   59CHL1   C19 6812   3.309   0.206   9.124  0.5186  0.2175  0.6901
   59CHL1  H19A 6813   3.351   0.116   9.073 -0.1510  0.1272  0.2863
   59CHL1  H19B 6814   3.314   0.188   9.233 -1.3867  1.1933  0.9820
   59CHL1  H19C 6815   3.204   0.232   9.097 -0.3279 -2.1950  1.4033
   59CHL1    C1 6816   3.549   0.277   9.114  0.0535  0.4738 -0.2275
   59CHL1   H1A 6817   3.564   0.174   9.075 -0.4237 -0.1904  1.2466
   59CHL1   H1B 6818   3.629   0.340   9.071  1.5429 -1.3793 -0.2966
   59CHL1    C2 6819   3.585   0.269   9.262 -0.6831  0.1899 -0.4230
   59CHL1   H2A 6820   3.692   0.240   9.272 -0.9747 -0.8214 -0.0759
   59CHL1   H2B 6821   3.529   0.191   9.317  0.3565 -0.7264 -0.6139
   59CHL1   C20 6822   3.290   0.299   8.387  0.3544  0.3793  0.3606
   59CHL1   H20 6823   3.188   0.257   8.403 -0.2615  0.3973 -2.9100
   59CHL1   C21 6824   3.382   0.177   8.377 -0.4504 -0.3005  0.0083
   59CHL1  H21A 6825   3.362   0.138   8.275 -0.7109  0.0128 -0.0633
   59CHL1  H21B 6826   3.359   0.107   8.460 -1.7377  0.4421  0.3197
   59CHL1  H21C 6827   3.487   0.209   8.391 -0.3648  0.4621 -2.0042
   59CHL1   C22 6828   3.275   0.372   8.251  0.1303 -0.2713  0.0139
   59CHL1  H22A 6829   3.203   0.456   8.257 -1.1387 -1.4024  1.3444
   59CHL1  H22B 6830   3.372   0.405   8.208  0.7032  1.3975  2.3871
   59CHL1   C23 6831   3.196   0.289   8.155 -0.2345 -0.6514 -0.1207
   59CHL1  H23A 6832   3.256   0.205   8.113 -0.0858 -1.2150  1.1786
   59CHL1  H23B 6833   3.105   0.236   8.188 -1.6558  0.9929 -1.2341
   59CHL1   C24 6834   3.147   0.377   8.046 -1.1346 -0.5569  0.5348
   59CHL1  H24A 6835   3.078   0.453   8.088 -0.9870 -0.5075  0.6862
   59CHL1  H24B 6836   3.223   0.435   7.990 -1.9145 -0.8131 -0.8486
   59CHL1   C25 6837   3.067   0.310   7.932  0.1129 -0.6650 -0.6434
   59CHL1   H25 6838   2.984   0.260   7.985  1.1940 -2.0570 -0.2124
   59CHL1   C26 6839   3.015   0.425   7.846 -0.2162 -0.5505  0.0667
   59CHL1  H26A 6840   2.959   0.374   7.764 -1.8027  1.2210 -0.0270
   59CHL1  H26B 6841   2.939   0.500   7.877 -0.0323  0.5453 -1.9494
   59CHL1  H26C 6842   3.100   0.479   7.799 -1.3398  1.2564 -0.0283
   59CHL1   C27 6843   3.143   0.211   7.857 -0.0355 -0.8101 -0.0839
   59CHL1  H27A 6844   3.090   0.175   7.765 -0.6988  0.6333 -0.2923
   59CHL1  H27B 6845   3.236   0.255   7.816 -2.5772  3.6419 -1.7886
   59CHL1  H27C 6846   3.170   0.123   7.919  0.2376 -1.0629 -0.5520
   60CHL1    C3 6847   0.909   5.775   9.269 -0.4531  0.5279  0.0880
   60CHL1    H3 6848   1.008   5.729   9.287  0.7694  1.3960 -3.4976
   60CHL1    O3 6849   0.848   5.816   9.387  0.3900  0.2184 -0.2042
   60CHL1   H3' 6850   0.773   5.870   9.362  0.0985 -0.0253  0.1348
   60CHL1    C4 6851   0.923   5.886   9.162  0.3721  0.2810  0.2595
   60CHL1   H4A 6852   0.825   5.936   9.148 -2.1733 -4.4261 -0.6905
   60CHL1   H4B 6853   1.007   5.941   9.211 -0.5188  0.0524  2.1413
   60CHL1    C5 6854   0.968   5.827   9.027 -0.0392 -0.7797  0.0160
   60CHL1    C6 6855   1.081   5.870   8.961 -0.0085  0.4224 -0.2571
   60CHL1    H6 6856   1.132   5.959   9.002 -1.1096  0.6164  0.7922
   60CHL1    C7 6857   1.134   5.812   8.837 -0.2727  0.4366  0.4547
   60CHL1   H7A 6858   1.159   5.892   8.764  1.2976  0.3311  0.8435
   60CHL1   H7B 6859   1.221   5.743   8.842 -0.9970 -0.4635  0.6476
   60CHL1    C8 6860   1.025   5.728   8.759 -0.3118 -0.7812 -0.0334
   60CHL1    H8 6861   0.961   5.808   8.715  1.7427  1.7448  1.2859
   60CHL1   C14 6862   1.087   5.655   8.639  0.1509  0.1053  0.6370
   60CHL1   H14 6863   1.160   5.586   8.687 -0.0915 -0.5745  0.0380
   60CHL1   C15 6864   1.176   5.736   8.536 -0.5285  0.1118  0.7692
   60CHL1  H15A 6865   1.129   5.835   8.520  1.0469  0.7377 -0.2445
   60CHL1  H15B 6866   1.271   5.762   8.588 -1.0725  2.7242  0.5478
   60CHL1   C16 6867   1.187   5.639   8.416 -0.0911  0.4073 -0.5563
   60CHL1  H16A 6868   1.166   5.687   8.318 -1.1312  1.4100  0.1349
   60CHL1  H16B 6869   1.289   5.597   8.403 -0.4054 -0.2259 -1.0458
   60CHL1   C17 6870   1.092   5.526   8.441  0.2981  0.1920  0.2017
   60CHL1   H17 6871   1.153   5.448   8.490  1.5636  0.6627 -0.5624
   60CHL1   C13 6872   0.992   5.574   8.553  0.2126  0.3009  0.4568
   60CHL1   C18 6873   0.886   5.664   8.478  0.2763  0.1447 -0.3694
   60CHL1  H18A 6874   0.827   5.725   8.549 -1.1490 -1.0389 -0.4778
   60CHL1  H18B 6875   0.940   5.737   8.414 -0.3880  1.2681  0.3383
   60CHL1  H18C 6876   0.813   5.604   8.420  1.4336  0.5554 -2.3621
   60CHL1   C12 6877   0.926   5.472   8.645 -0.1807 -0.0870  0.5534
   60CHL1  H12A 6878   0.844   5.425   8.587  0.4027 -0.3303 -0.1005
   60CHL1  H12B 6879   0.996   5.398   8.689 -1.4427 -1.6669 -0.0236
   60CHL1   C11 6880   0.853   5.539   8.768  0.5727  0.3711  0.5547
   60CHL1  H11A 6881   0.761   5.596   8.742 -1.4460 -2.1503  1.7894
   60CHL1  H11B 6882   0.811   5.462   8.837 -1.0147 -1.4209 -2.2343
   60CHL1    C9 6883   0.946   5.633   8.853  0.9185  0.1195 -0.9446
   60CHL1    H9 6884   1.022   5.570   8.904  1.1289  1.7572  0.8479
   60CHL1   C10 6885   0.879   5.712   8.972  0.1818 -0.6394 -0.4906
   60CHL1   C19 6886   0.746   5.765   8.932  0.4789  0.6836  0.5923
   60CHL1  H19A 6887   0.694   5.815   9.016  0.2756 -1.1537  1.6161
   60CHL1  H19B 6888   0.756   5.839   8.850 -1.1861 -0.8196 -1.0764
   60CHL1  H19C 6889   0.674   5.682   8.913  0.4933  1.1564 -1.7869
   60CHL1    C1 6890   0.850   5.614   9.088 -0.3433  0.3188  0.2734
   60CHL1   H1A 6891   0.789   5.526   9.059  2.5101 -1.6419 -0.2406
   60CHL1   H1B 6892   0.948   5.563   9.100 -1.6853 -2.9420 -1.3726
   60CHL1    C2 6893   0.804   5.668   9.228  0.1232 -0.5319  0.1995
   60CHL1   H2A 6894   0.789   5.583   9.298  0.1851 -0.7976 -0.1040
   60CHL1   H2B 6895   0.703   5.712   9.211 -0.2910 -1.2175  0.8322
   60CHL1   C20 6896   1.027   5.467   8.321  0.1755 -0.3750 -0.0204
   60CHL1   H20 6897   0.974   5.539   8.255  0.0102  0.8128  1.3744
   60CHL1   C21 6898   0.922   5.353   8.352 -0.7910  0.1916  0.6739
   60CHL1  H21A 6899   0.962   5.296   8.439 -0.0317  0.3010  0.4012
   60CHL1  H21B 6900   0.926   5.278   8.270  0.2641 -0.5925  1.4087
   60CHL1  H21C 6901   0.816   5.384   8.366 -0.8925 -0.4579  1.4572
   60CHL1   C22 6902   1.137   5.404   8.221  0.0671  0.1199 -0.4615
   60CHL1  H22A 6903   1.212   5.345   8.278  0.6674  0.3451 -0.9984
   60CHL1  H22B 6904   1.077   5.340   8.153  0.6658 -0.3128 -0.5888
   60CHL1   C23 6905   1.207   5.498   8.119  0.0993 -0.4769 -0.6017
   60CHL1  H23A 6906   1.121   5.559   8.084 -0.1886  0.3115  1.3762
   60CHL1  H23B 6907   1.270   5.567   8.178 -0.0333 -1.9026  1.3243
   60CHL1   C24 6908   1.277   5.421   8.011  0.5034 -0.6035  0.5352
   60CHL1  H24A 6909   1.361   5.374   8.067  1.6817  0.4586 -0.2734
   60CHL1  H24B 6910   1.214   5.342   7.965  1.1567 -1.4424  1.0632
   60CHL1   C25 6911   1.336   5.514   7.903 -0.1927  0.1009  0.3935
   60CHL1   H25 6912   1.257   5.554   7.837 -1.2706 -1.3931  0.7148
   60CHL1   C26 6913   1.420   5.623   7.958  0.0296  0.3020 -0.7713
   60CHL1  H26A 6914   1.366   5.700   8.016  2.5608  2.5208 -1.1946
   60CHL1  H26B 6915   1.489   5.568   8.025 -0.7786 -1.5591 -1.3788
   60CHL1  H26C 6916   1.494   5.662   7.884  3.6424  0.0490  2.3932
   60CHL1   C27 6917   1.419   5.431   7.805 -1.1659  0.7236 -0.4712
   60CHL1  H27A 6918   1.516   5.400   7.852 -1.6712 -1.4419 -0.7542
   60CHL1  H27B 6919   1.370   5.338   7.770 -0.0310 -0.1987  0.2884
   60CHL1  H27C 6920   1.453   5.483   7.713 -0.1611 -0.8416 -1.0400
   61CHL1    C3 6921   5.603   6.044   9.343 -0.2308 -0.0109  0.1750
   61CHL1    H3 6922   5.611   6.154   9.327 -1.3700  0.1178  0.4074
   61CHL1    O3 6923   5.558   6.009   9.471  0.5712  0.0538  0.3596
   61CHL1   H3' 6924   5.559   5.914   9.468 -0.4368 -0.0224  1.4951
   61CHL1    C4 6925   5.495   5.995   9.245 -0.1178  0.1565  0.5175
   61CHL1   H4A 6926   5.468   5.890   9.270  0.7447 -0.2652 -0.2949
   61CHL1   H4B 6927   5.399   6.048   9.266  0.3819  0.4365  2.3163
   61CHL1    C5 6928   5.545   5.996   9.103  0.2379 -0.4277  0.8804
   61CHL1    C6 6929   5.466   6.056   9.007 -0.2659  0.4319  0.4439
   61CHL1    H6 6930   5.369   6.104   9.025 -0.7107 -0.1121 -0.4505
   61CHL1    C7 6931   5.501   6.050   8.856  0.5818 -0.0676 -0.5268
   61CHL1   H7A 6932   5.412   6.017   8.798 -2.2365 -1.0842  3.8716
   61CHL1   H7B 6933   5.541   6.147   8.818 -0.3414  0.8138  0.6982
   61CHL1    C8 6934   5.605   5.947   8.818  0.3532  0.3176 -0.0502
   61CHL1    H8 6935   5.562   5.845   8.812  1.3767 -0.0702 -1.2871
   61CHL1   C14 6936   5.652   5.977   8.672 -0.4899  0.0376 -0.6176
   61CHL1   H14 6937   5.690   6.082   8.681 -2.2620  0.6689 -0.1089
   61CHL1   C15 6938   5.548   5.984   8.566 -0.1272 -0.2262  0.5344
   61CHL1  H15A 6939   5.503   5.883   8.553  2.7779 -1.4083 -1.2731
   61CHL1  H15B 6940   5.469   6.062   8.573 -1.4228 -1.4204 -0.2878
   61CHL1   C16 6941   5.633   6.005   8.433 -0.5412 -0.1701  0.1511
   61CHL1  H16A 6942   5.601   5.935   8.352  1.2186 -0.9264  0.0751
   61CHL1  H16B 6943   5.623   6.109   8.396 -0.6351  0.1205  0.9745
   61CHL1   C17 6944   5.784   5.967   8.479  0.3554  0.8579 -0.3930
   61CHL1   H17 6945   5.838   6.064   8.494 -0.2915  1.2607 -0.6443
   61CHL1   C13 6946   5.769   5.894   8.627 -0.3786 -0.3717  0.3535
   61CHL1   C18 6947   5.733   5.749   8.598  0.2375  0.0854 -0.1749
   61CHL1  H18A 6948   5.826   5.689   8.590  0.1784 -0.1906  0.9815
   61CHL1  H18B 6949   5.684   5.700   8.685 -0.0526  0.9839  0.1849
   61CHL1  H18C 6950   5.672   5.742   8.505 -0.2451  0.0228  0.1463
   61CHL1   C12 6951   5.884   5.911   8.736  0.2725  0.1288 -0.0923
   61CHL1  H12A 6952   5.970   5.849   8.703  0.2737  1.1775 -2.2283
   61CHL1  H12B 6953   5.927   6.013   8.726  1.8201 -0.4620  0.1792
   61CHL1   C11 6954   5.845   5.876   8.877  0.6217 -0.5048 -1.0352
   61CHL1  H11A 6955   5.821   5.768   8.871 -1.4448 -0.1641 -0.0125
   61CHL1  H11B 6956   5.931   5.890   8.946 -1.1214  0.9331  0.9980
   61CHL1    C9 6957   5.722   5.953   8.924  0.4334 -0.3998 -0.7915
   61CHL1    H9 6958   5.754   6.060   8.935  3.2086 -1.1503 -0.7427
   61CHL1   C10 6959   5.673   5.925   9.066 -0.8206  0.3885 -0.5385
   61CHL1   C19 6960   5.658   5.776   9.083  0.1215  0.2397  0.5710
   61CHL1  H19A 6961   5.583   5.731   9.014  0.3935 -1.4757  1.3366
   61CHL1  H19B 6962   5.745   5.711   9.058  0.1591  0.5052 -0.0167
   61CHL1  H19C 6963   5.630   5.754   9.188 -0.1786  0.0784  0.4572
   61CHL1    C1 6964   5.788   5.978   9.169  0.8805 -0.6702  0.2291
   61CHL1   H1A 6965   5.881   5.922   9.144  0.2763 -0.8781 -1.7058
   61CHL1   H1B 6966   5.803   6.086   9.146  1.3058  0.0374  3.3532
   61CHL1    C2 6967   5.740   5.975   9.314 -0.1513  0.1969  0.2775
   61CHL1   H2A 6968   5.819   6.025   9.375  0.6689  1.0014 -1.3896
   61CHL1   H2B 6969   5.750   5.870   9.351  1.4399 -0.1832 -1.1059
   61CHL1   C20 6970   5.867   5.898   8.368  0.1470 -0.3628 -0.0404
   61CHL1   H20 6971   5.807   5.810   8.335 -0.7575  1.3340 -3.4177
   61CHL1   C21 6972   6.015   5.853   8.416  0.1157  0.0984 -0.7288
   61CHL1  H21A 6973   6.057   5.764   8.365 -2.3248 -2.0130  0.7595
   61CHL1  H21B 6974   6.014   5.832   8.525 -0.1263  1.8074 -0.3612
   61CHL1  H21C 6975   6.088   5.936   8.426  1.7367 -1.4868  1.5535
   61CHL1   C22 6976   5.878   5.971   8.229 -0.2877  1.2009  0.1146
   61CHL1  H22A 6977   5.812   6.059   8.214 -2.5082 -0.3044  0.5866
   61CHL1  H22B 6978   5.985   5.997   8.215  0.4789 -2.5033 -2.1370
   61CHL1   C23 6979   5.872   5.871   8.114  0.0090 -0.0332 -0.3467
   61CHL1  H23A 6980   5.947   5.790   8.131 -0.0389 -0.2346 -1.0851
   61CHL1  H23B 6981   5.771   5.824   8.114  1.1441 -2.6206 -0.9300
   61CHL1   C24 6982   5.897   5.917   7.972 -0.2417  0.1055 -0.3698
   61CHL1  H24A 6983   5.835   6.008   7.955  0.7552  0.7726 -0.5723
   61CHL1  H24B 6984   6.005   5.939   7.959  0.2770 -1.7729  0.3982
   61CHL1   C25 6985   5.873   5.810   7.869 -0.1741  0.0983 -0.0862
   61CHL1   H25 6986   5.934   5.719   7.890 -1.2476 -0.7388 -0.4525
   61CHL1   C26 6987   5.730   5.778   7.849 -0.4370 -0.4456  0.6030
   61CHL1  H26A 6988   5.723   5.743   7.744 -0.2411 -0.5684  0.6302
   61CHL1  H26B 6989   5.688   5.699   7.915 -2.1091 -1.7490 -1.8759
   61CHL1  H26C 6990   5.676   5.875   7.852 -0.6496 -0.5425 -0.1199
   61CHL1   C27 6991   5.928   5.860   7.733  0.1052 -0.4793  0.3453
   61CHL1  H27A 6992   6.035   5.889   7.736 -0.5863  2.6945 -0.9607
   61CHL1  H27B 6993   5.911   5.785   7.653 -0.3655  1.5253 -1.5455
   61CHL1  H27C 6994   5.872   5.952   7.703  2.2869  0.1952 -1.9907
   62CHL1    C3 6995   0.265   3.373   9.202  0.1631 -0.1821  0.0358
   62CHL1    H3 6996   0.225   3.464   9.152 -0.0210  0.7732  1.8333
   62CHL1    O3 6997   0.244   3.379   9.346 -0.2258 -0.3022 -0.7792
   62CHL1   H3' 6998   0.317   3.327   9.382 -0.7394 -0.1947  0.4518
   62CHL1    C4 6999   0.190   3.256   9.134 -0.0080 -0.5241 -0.3581
   62CHL1   H4A 7000   0.218   3.163   9.188 -1.0267  1.0717  3.2610
   62CHL1   H4B 7001   0.081   3.261   9.155  0.0371 -1.7212  0.2245
   62CHL1    C5 7002   0.215   3.244   8.988  0.2826 -0.2697 -0.9830
   62CHL1    C6 7003   0.108   3.237   8.903 -0.8912  0.2016 -0.5149
   62CHL1    H6 7004   0.002   3.224   8.928 -1.3195  0.3876 -2.1511
   62CHL1    C7 7005   0.129   3.221   8.756  0.5916  0.2071 -0.2441
   62CHL1   H7A 7006   0.054   3.161   8.701  0.1570  0.4657  0.0648
   62CHL1   H7B 7007   0.109   3.322   8.714  0.5870  0.0627 -0.5990
   62CHL1    C8 7008   0.270   3.181   8.712  0.1579 -0.0339 -0.4481
   62CHL1    H8 7009   0.270   3.076   8.747 -0.4837  0.5320  1.3822
   62CHL1   C14 7010   0.286   3.199   8.567 -0.3359 -0.2350  0.2806
   62CHL1   H14 7011   0.278   3.309   8.550  2.4708  0.0566  0.4538
   62CHL1   C15 7012   0.183   3.122   8.477  0.2290  0.5934  0.3315
   62CHL1  H15A 7013   0.157   3.022   8.518 -0.5786  0.8654  0.5012
   62CHL1  H15B 7014   0.088   3.177   8.463 -0.8525 -1.5972 -1.6376
   62CHL1   C16 7015   0.259   3.103   8.344  0.0139  0.0592 -0.0543
   62CHL1  H16A 7016   0.278   2.994   8.332  2.0448  0.1153  1.9542
   62CHL1  H16B 7017   0.211   3.155   8.258 -0.6324  0.1527  0.3515
   62CHL1   C17 7018   0.396   3.174   8.371 -1.1646 -0.4701  0.5082
   62CHL1   H17 7019   0.387   3.284   8.361  1.0679 -0.0176  2.8157
   62CHL1   C13 7020   0.427   3.162   8.519 -0.1204 -0.5871  0.4832
   62CHL1   C18 7021   0.466   3.020   8.551 -1.0383  0.6577  0.4096
   62CHL1  H18A 7022   0.574   3.017   8.525 -0.7714  0.7704  1.4649
   62CHL1  H18B 7023   0.454   2.981   8.654  1.7333  0.3250  0.6856
   62CHL1  H18C 7024   0.421   2.941   8.487 -1.2698 -0.7102  2.1929
   62CHL1   C12 7025   0.523   3.268   8.578 -0.0794 -0.2455 -0.5869
   62CHL1  H12A 7026   0.628   3.249   8.546  0.2968  1.8516 -0.7409
   62CHL1  H12B 7027   0.495   3.371   8.548  0.3653  0.0526  0.0131
   62CHL1   C11 7028   0.517   3.255   8.730  0.5362 -0.7955 -0.3166
   62CHL1  H11A 7029   0.553   3.155   8.761 -1.7884 -2.4248 -2.4665
   62CHL1  H11B 7030   0.582   3.337   8.767  0.1651 -0.4510 -0.4231
   62CHL1    C9 7031   0.372   3.267   8.789 -0.1625  0.7668  0.3401
   62CHL1    H9 7032   0.342   3.371   8.764 -0.7189  0.4532 -0.3380
   62CHL1   C10 7033   0.361   3.242   8.941 -0.1866 -0.2455 -0.2119
   62CHL1   C19 7034   0.425   3.108   8.985  0.4355 -0.5359  0.3885
   62CHL1  H19A 7035   0.408   3.037   8.901 -2.0248  0.8050 -0.3526
   62CHL1  H19B 7036   0.535   3.105   8.999  0.3309 -0.9200  1.1558
   62CHL1  H19C 7037   0.380   3.067   9.078  1.5649  0.5036  1.4320
   62CHL1    C1 7038   0.436   3.362   9.018  0.2662  0.2006 -0.0253
   62CHL1   H1A 7039   0.543   3.347   8.991  0.1625  1.1023 -0.9975
   62CHL1   H1B 7040   0.392   3.454   8.974 -1.1933 -0.0591  0.8174
   62CHL1    C2 7041   0.422   3.364   9.172 -0.4177  0.6601 -0.3064
   62CHL1   H2A 7042   0.475   3.453   9.212 -0.4772 -0.6979  3.1660
   62CHL1   H2B 7043   0.469   3.275   9.219  0.4486  2.2168  1.9621
   62CHL1   C20 7044   0.503   3.133   8.266  0.8545  0.1148  0.5977
   62CHL1   H20 7045   0.524   3.024   8.273  0.4916 -0.1897 -2.0131
   62CHL1   C21 7046   0.643   3.198   8.286  0.0532 -0.2199  0.3094
   62CHL1  H21A 7047   0.711   3.184   8.200 -1.5241  2.1153 -1.4493
   62CHL1  H21B 7048   0.687   3.158   8.380  2.5960  0.7042 -0.3982
   62CHL1  H21C 7049   0.625   3.308   8.292 -0.5273 -0.3295  0.6788
   62CHL1   C22 7050   0.445   3.162   8.126  0.5962 -0.1178  0.3399
   62CHL1  H22A 7051   0.353   3.224   8.119  0.9093  0.2614 -0.4879
   62CHL1  H22B 7052   0.522   3.218   8.069  0.4162  2.2299  2.2386
   62CHL1   C23 7053   0.407   3.034   8.038  0.1748  0.3483 -0.0616
   62CHL1  H23A 7054   0.490   2.961   8.040  1.0528  1.3031 -0.4945
   62CHL1  H23B 7055   0.314   2.981   8.068 -1.0452  0.7384 -2.8192
   62CHL1   C24 7056   0.370   3.081   7.895 -0.2969 -0.1801 -0.3612
   62CHL1  H24A 7057   0.317   3.178   7.882 -1.1381 -0.9983 -4.1237
   62CHL1  H24B 7058   0.463   3.074   7.835  0.1663  1.3553  0.1103
   62CHL1   C25 7059   0.266   2.989   7.827  0.7716  0.3577  0.7114
   62CHL1   H25 7060   0.183   2.964   7.897  0.0012  0.5010 -0.1346
   62CHL1   C26 7061   0.196   3.061   7.710 -0.4058  0.6884  0.3941
   62CHL1  H26A 7062   0.148   3.158   7.736 -1.0999  0.2520  0.7447
   62CHL1  H26B 7063   0.271   3.074   7.629 -1.1213 -2.9244 -1.0178
   62CHL1  H26C 7064   0.114   3.001   7.665  0.9418 -2.0437  1.3904
   62CHL1   C27 7065   0.331   2.853   7.786 -0.2282 -0.5402  0.4662
   62CHL1  H27A 7066   0.381   2.806   7.873 -1.0332 -1.8669  0.2363
   62CHL1  H27B 7067   0.252   2.792   7.737  1.3175 -0.5278 -2.2604
   62CHL1  H27C 7068   0.407   2.867   7.706 -0.7039  0.6433  0.2070
   63CHL1    C3 7069   1.564   5.717   9.194 -0.3145  0.3022 -1.0930
   63CHL1    H3 7070   1.475   5.652   9.183  1.4008 -3.1025  2.5828
   63CHL1    O3 7071   1.619   5.654   9.308 -0.2790  0.4976 -0.1454
   63CHL1   H3' 7072   1.562   5.679   9.381  1.9930  1.8640  1.2740
   63CHL1    C4 7073   1.661   5.702   9.086 -0.7209 -0.5091 -0.1804
   63CHL1   H4A 7074   1.761   5.731   9.124 -0.7544 -1.1073  0.3794
   63CHL1   H4B 7075   1.672   5.594   9.062 -0.9995 -0.6925  0.5083
   63CHL1    C5 7076   1.627   5.771   8.957  0.2195  0.5639  0.6496
   63CHL1    C6 7077   1.624   5.702   8.840 -0.8121 -0.0648 -0.1534
   63CHL1    H6 7078   1.657   5.597   8.840  1.4223  0.6000 -0.3596
   63CHL1    C7 7079   1.585   5.769   8.710 -0.2731  0.0308 -0.2745
   63CHL1   H7A 7080   1.662   5.737   8.636 -1.2441 -4.4273  0.3565
   63CHL1   H7B 7081   1.485   5.729   8.682 -0.9201  0.7043  1.0014
   63CHL1    C8 7082   1.581   5.932   8.712 -0.4424  0.9839  0.5685
   63CHL1    H8 7083   1.687   5.964   8.710  0.1564 -0.9457 -0.3582
   63CHL1   C14 7084   1.503   5.979   8.594  0.0823 -0.1640 -0.3470
   63CHL1   H14 7085   1.405   5.930   8.605  0.3918 -0.4674  1.4183
   63CHL1   C15 7086   1.551   5.943   8.446 -0.2345 -1.0188  0.3937
   63CHL1  H15A 7087   1.662   5.948   8.436 -0.2020 -0.8719  0.7954
   63CHL1  H15B 7088   1.517   5.842   8.414 -0.5649 -1.2962  1.5641
   63CHL1   C16 7089   1.495   6.054   8.360 -0.4358 -0.1769 -0.2372
   63CHL1  H16A 7090   1.579   6.101   8.305  1.3889 -3.7878 -0.8307
   63CHL1  H16B 7091   1.430   6.012   8.281  1.2878 -3.1856 -0.2356
   63CHL1   C17 7092   1.414   6.148   8.461 -0.1252 -0.7092 -0.3794
   63CHL1   H17 7093   1.314   6.099   8.461 -0.4952  0.0206  0.6526
   63CHL1   C13 7094   1.483   6.134   8.599  0.0183 -0.1449  0.3854
   63CHL1   C18 7095   1.621   6.213   8.592  0.1893 -0.3267  0.6087
   63CHL1  H18A 7096   1.683   6.186   8.680  0.6742  2.6313  1.2716
   63CHL1  H18B 7097   1.673   6.185   8.498 -1.7941  0.2108 -0.7158
   63CHL1  H18C 7098   1.604   6.323   8.585  0.1022 -0.3448  0.5331
   63CHL1   C12 7099   1.397   6.168   8.726 -0.0598  0.2406 -0.0665
   63CHL1  H12A 7100   1.369   6.275   8.726 -1.5102 -0.1196  0.4226
   63CHL1  H12B 7101   1.301   6.112   8.716  0.4220 -0.7076  0.4171
   63CHL1   C11 7102   1.470   6.121   8.853  0.2963  0.4344 -0.2101
   63CHL1  H11A 7103   1.563   6.182   8.850  0.0698  0.7326 -2.9169
   63CHL1  H11B 7104   1.403   6.147   8.938 -3.7211 -0.6481 -2.7763
   63CHL1    C9 7105   1.500   5.968   8.844  0.1942  0.2907 -0.1627
   63CHL1    H9 7106   1.405   5.914   8.829  0.1201  0.1743  0.6815
   63CHL1   C10 7107   1.566   5.918   8.974 -0.9405 -0.1540 -0.1092
   63CHL1   C19 7108   1.690   6.011   9.001  0.2456  0.9643  0.2623
   63CHL1  H19A 7109   1.756   5.961   9.075  0.5283  0.1681 -0.5120
   63CHL1  H19B 7110   1.749   6.039   8.912  0.2663 -0.5283 -0.2208
   63CHL1  H19C 7111   1.646   6.106   9.040 -1.9513  0.8323 -1.6928
   63CHL1    C1 7112   1.474   5.927   9.103  0.3704  0.1361  1.1829
   63CHL1   H1A 7113   1.457   6.035   9.118 -2.8669 -0.1525  0.2770
   63CHL1   H1B 7114   1.377   5.881   9.073  0.2911  1.1437 -0.1985
   63CHL1    C2 7115   1.528   5.864   9.231 -0.5674  0.4654  0.1057
   63CHL1   H2A 7116   1.461   5.862   9.320  1.1361 -0.4550  1.4241
   63CHL1   H2B 7117   1.623   5.916   9.256  0.7264 -1.4093 -0.7554
   63CHL1   C20 7118   1.378   6.292   8.411  0.5371 -0.2979 -0.0634
   63CHL1   H20 7119   1.355   6.343   8.507 -0.4777  0.5437 -0.7347
   63CHL1   C21 7120   1.243   6.290   8.343 -0.3053  0.0593 -0.0177
   63CHL1  H21A 7121   1.154   6.242   8.389 -1.5128  1.6952 -0.5519
   63CHL1  H21B 7122   1.258   6.246   8.242 -0.5701  1.1099 -0.5394
   63CHL1  H21C 7123   1.211   6.396   8.331 -0.1265 -0.1632 -4.0919
   63CHL1   C22 7124   1.481   6.358   8.325 -0.4939  0.0325  0.4751
   63CHL1  H22A 7125   1.578   6.343   8.377 -0.5569  0.0231  0.5894
   63CHL1  H22B 7126   1.486   6.307   8.226 -2.5063 -0.5317  0.6244
   63CHL1   C23 7127   1.475   6.512   8.316  0.5212 -0.0428 -0.0227
   63CHL1  H23A 7128   1.384   6.546   8.262  0.6404 -1.2280 -0.9957
   63CHL1  H23B 7129   1.465   6.541   8.423  1.2541 -1.1818  0.3694
   63CHL1   C24 7130   1.594   6.577   8.238  0.3782 -0.4774 -0.2661
   63CHL1  H24A 7131   1.680   6.530   8.290  0.0463  1.3616  2.1455
   63CHL1  H24B 7132   1.577   6.545   8.133 -0.7621  0.4556 -0.3883
   63CHL1   C25 7133   1.604   6.735   8.235 -0.7827  1.2481  0.0767
   63CHL1   H25 7134   1.505   6.777   8.208 -2.2385 -2.5744 -1.3134
   63CHL1   C26 7135   1.661   6.785   8.363  0.4656 -0.1636  0.6181
   63CHL1  H26A 7136   1.599   6.800   8.453  1.3457 -1.3311  1.4633
   63CHL1  H26B 7137   1.737   6.712   8.399  0.5628 -0.4092 -0.0608
   63CHL1  H26C 7138   1.711   6.881   8.341 -0.2065 -0.4570 -2.8817
   63CHL1   C27 7139   1.699   6.767   8.125 -0.2160 -0.3515  0.1399
   63CHL1  H27A 7140   1.712   6.877   8.121 -0.5132 -0.3399 -1.9542
   63CHL1  H27B 7141   1.799   6.724   8.147 -0.0199 -0.5355 -1.0123
   63CHL1  H27C 7142   1.657   6.734   8.027 -0.6755 -1.9311  0.8360
   64CHL1    C3 7143   0.579   4.300   9.384  0.4636 -0.0865 -0.0167
   64CHL1    H3 7144   0.669   4.243   9.414  0.1402  0.0998  1.4026
   64CHL1    O3 7145   0.493   4.302   9.498 -0.2958  0.3911  0.5471
   64CHL1   H3' 7146   0.435   4.379   9.498  1.5613  1.8938  1.8388
   64CHL1    C4 7147   0.613   4.442   9.335 -0.8390  0.1341 -0.0327
   64CHL1   H4A 7148   0.519   4.499   9.321 -1.8277 -0.8435  2.1796
   64CHL1   H4B 7149   0.655   4.497   9.422  0.0068 -0.5198 -0.0096
   64CHL1    C5 7150   0.701   4.452   9.214 -0.2965 -0.3869  1.1398
   64CHL1    C6 7151   0.825   4.517   9.209 -0.2293  0.4565 -0.3427
   64CHL1    H6 7152   0.866   4.561   9.301 -0.1195 -0.7004  0.1891
   64CHL1    C7 7153   0.909   4.525   9.090  1.0218  0.1165  0.5271
   64CHL1   H7A 7154   0.943   4.629   9.072 -1.4054  0.8901  0.0684
   64CHL1   H7B 7155   0.996   4.456   9.088  2.2384  1.5617  1.3583
   64CHL1    C8 7156   0.823   4.481   8.960  0.5503 -0.0974  0.9214
   64CHL1    H8 7157   0.752   4.565   8.942 -0.3081 -0.9976 -0.0248
   64CHL1   C14 7158   0.914   4.456   8.843  0.9966  0.1686 -0.1334
   64CHL1   H14 7159   0.992   4.378   8.861  1.2161  0.2002 -0.8844
   64CHL1   C15 7160   0.995   4.568   8.793  0.1966 -0.6432  0.4447
   64CHL1  H15A 7161   0.943   4.666   8.801  1.8875  0.1663  2.4732
   64CHL1  H15B 7162   1.086   4.578   8.856  1.9669  1.0847 -2.1839
   64CHL1   C16 7163   1.038   4.521   8.653 -0.1583 -0.3961 -0.4094
   64CHL1  H16A 7164   1.036   4.609   8.584  1.8534 -0.1719 -0.2444
   64CHL1  H16B 7165   1.139   4.477   8.653  0.3282  0.6799  0.3468
   64CHL1   C17 7166   0.938   4.411   8.606  1.0164  0.5097 -0.1134
   64CHL1   H17 7167   0.975   4.311   8.635 -0.3425 -0.0793 -0.3453
   64CHL1   C13 7168   0.826   4.420   8.718  0.0928 -0.2595 -0.2434
   64CHL1   C18 7169   0.712   4.528   8.687  0.0178 -0.3752 -0.2666
   64CHL1  H18A 7170   0.637   4.496   8.612 -1.8206  1.5875  0.6466
   64CHL1  H18B 7171   0.640   4.545   8.770  0.4424  1.1805 -0.1724
   64CHL1  H18C 7172   0.763   4.618   8.646 -0.9533 -0.2790 -1.3221
   64CHL1   C12 7173   0.767   4.279   8.746  0.0134  0.1986 -0.7593
   64CHL1  H12A 7174   0.713   4.240   8.657 -3.0264  1.5527  0.3290
   64CHL1  H12B 7175   0.852   4.218   8.783  0.8379  1.4124 -0.6093
   64CHL1   C11 7176   0.675   4.281   8.865 -0.4374 -0.0805  0.0995
   64CHL1  H11A 7177   0.581   4.332   8.834 -0.9830 -1.8097 -1.2225
   64CHL1  H11B 7178   0.647   4.175   8.886 -0.1942 -0.3116 -0.7302
   64CHL1    C9 7179   0.739   4.352   8.986  0.1235  0.3793  0.3537
   64CHL1    H9 7180   0.823   4.285   9.015  0.7608 -0.7536 -3.5529
   64CHL1   C10 7181   0.638   4.370   9.098 -0.2806 -0.4140 -0.2305
   64CHL1   C19 7182   0.517   4.455   9.047 -0.4036  0.8201  0.1470
   64CHL1  H19A 7183   0.545   4.555   9.009  1.1510  0.8697  1.3270
   64CHL1  H19B 7184   0.447   4.398   8.982 -0.3497  1.2400 -0.2796
   64CHL1  H19C 7185   0.446   4.472   9.131 -0.4764 -0.5215  0.3856
   64CHL1    C1 7186   0.597   4.225   9.148  0.1173 -0.3961  0.0432
   64CHL1   H1A 7187   0.547   4.170   9.066  0.3048 -0.5000 -0.0037
   64CHL1   H1B 7188   0.688   4.168   9.177  0.5767 -1.1820 -2.6505
   64CHL1    C2 7189   0.503   4.227   9.272  0.7602  0.0615  0.1391
   64CHL1   H2A 7190   0.468   4.126   9.301  0.4046  0.5117  1.3491
   64CHL1   H2B 7191   0.411   4.283   9.243  2.8179  5.0749  2.1309
   64CHL1   C20 7192   0.914   4.406   8.449  0.0252 -0.9206  0.2652
   64CHL1   H20 7193   1.011   4.375   8.405  0.6319 -1.2619  1.7784
   64CHL1   C21 7194   0.874   4.541   8.386 -0.1547  0.2746 -0.3299
   64CHL1  H21A 7195   0.777   4.575   8.426  0.4212  1.2841  0.2439
   64CHL1  H21B 7196   0.842   4.524   8.281  1.7014 -0.5447 -0.8158
   64CHL1  H21C 7197   0.938   4.631   8.401  0.4914 -0.1225 -0.6304
   64CHL1   C22 7198   0.813   4.301   8.405  0.2245  0.0053  0.4208
   64CHL1  H22A 7199   0.836   4.206   8.459  0.2240 -0.0059  0.4016
   64CHL1  H22B 7200   0.715   4.338   8.443  1.3948  1.0781  2.5994
   64CHL1   C23 7201   0.813   4.261   8.259  0.0779 -0.2874  0.4545
   64CHL1  H23A 7202   0.799   4.346   8.188 -0.0241 -1.0579 -0.4585
   64CHL1  H23B 7203   0.916   4.228   8.233 -0.4062 -1.8574  0.4348
   64CHL1   C24 7204   0.722   4.143   8.224  0.3959  0.7091  0.5680
   64CHL1  H24A 7205   0.752   4.052   8.280 -0.6972  1.1081  1.8828
   64CHL1  H24B 7206   0.619   4.169   8.258 -0.1789 -1.1032  0.2917
   64CHL1   C25 7207   0.713   4.111   8.078 -0.3460  0.2249 -0.4144
   64CHL1   H25 7208   0.674   4.208   8.041 -0.0756 -0.1072 -1.5952
   64CHL1   C26 7209   0.856   4.096   8.018 -0.1375  0.4005  0.1205
   64CHL1  H26A 7210   0.847   4.072   7.910  1.5535 -1.4735  0.3445
   64CHL1  H26B 7211   0.913   4.192   8.019  1.0056 -0.2514 -0.0756
   64CHL1  H26C 7212   0.918   4.012   8.055 -2.3727 -1.7248 -0.7263
   64CHL1   C27 7213   0.629   3.994   8.042  0.6808  0.3664 -0.5099
   64CHL1  H27A 7214   0.547   3.982   8.117  1.0887  0.3162 -0.0697
   64CHL1  H27B 7215   0.593   4.008   7.938 -1.5474  0.5731  0.2180
   64CHL1  H27C 7216   0.685   3.899   8.054 -0.6637 -0.1253  3.1189
   65CHL1    C3 7217   2.844   6.705   9.337  0.3037 -0.5525  0.7869
   65CHL1    H3 7218   2.839   6.814   9.359 -0.0097 -0.2256 -0.8133
   65CHL1    O3 7219   2.892   6.633   9.448  0.2075  0.3060  0.1019
   65CHL1   H3' 7220   2.888   6.541   9.419 -2.0793  0.1517  0.6968
   65CHL1    C4 7221   2.714   6.650   9.284 -1.0928 -0.4241 -0.0605
   65CHL1   H4A 7222   2.713   6.540   9.269  1.7107 -0.4671 -0.5361
   65CHL1   H4B 7223   2.637   6.685   9.356 -2.0701  3.9202 -2.8181
   65CHL1    C5 7224   2.673   6.705   9.150 -0.1598 -0.2396 -0.4915
   65CHL1    C6 7225   2.553   6.761   9.124 -0.0614 -1.2207 -0.0726
   65CHL1    H6 7226   2.480   6.787   9.202  0.6528  2.6190 -0.5090
   65CHL1    C7 7227   2.507   6.805   8.983  0.0497  0.1631 -0.0764
   65CHL1   H7A 7228   2.403   6.773   8.961 -0.3817  0.7108  1.1170
   65CHL1   H7B 7229   2.505   6.915   8.972  0.3493  0.3497  1.5089
   65CHL1    C8 7230   2.608   6.737   8.880 -0.1365  0.0901 -0.7013
   65CHL1    H8 7231   2.586   6.628   8.880 -0.0014  0.0499  0.9551
   65CHL1   C14 7232   2.584   6.796   8.746  0.4887 -0.2454 -0.8231
   65CHL1   H14 7233   2.600   6.905   8.759 -1.2945 -0.1211  0.8344
   65CHL1   C15 7234   2.442   6.780   8.683 -0.1045  0.1762  0.1167
   65CHL1  H15A 7235   2.408   6.675   8.674  2.6525 -0.6943 -1.2970
   65CHL1  H15B 7236   2.367   6.847   8.730 -1.8203 -0.8541 -1.0783
   65CHL1   C16 7237   2.448   6.819   8.535  0.3689 -0.0160  0.2513
   65CHL1  H16A 7238   2.389   6.752   8.470 -1.6552  0.1682  1.7932
   65CHL1  H16B 7239   2.401   6.919   8.521  1.2889  0.2979 -0.6968
   65CHL1   C17 7240   2.599   6.813   8.499  0.5319 -0.3309  0.1608
   65CHL1   H17 7241   2.643   6.915   8.505 -0.4681  0.0883  0.7543
   65CHL1   C13 7242   2.669   6.750   8.621  0.1847 -0.1813  0.4550
   65CHL1   C18 7243   2.661   6.601   8.603  0.3311  1.1659 -0.1824
   65CHL1  H18A 7244   2.702   6.548   8.691 -2.9230 -2.7521 -0.7384
   65CHL1  H18B 7245   2.561   6.560   8.579 -0.2939  2.1448  0.6523
   65CHL1  H18C 7246   2.719   6.578   8.511 -0.4987  2.2119 -0.9872
   65CHL1   C12 7247   2.814   6.792   8.655 -0.4563 -0.0512  0.0569
   65CHL1  H12A 7248   2.879   6.729   8.590 -2.6362 -0.9099 -1.3798
   65CHL1  H12B 7249   2.830   6.902   8.642  2.2244 -0.2657  0.7672
   65CHL1   C11 7250   2.861   6.741   8.796  0.7057 -0.2741 -0.1693
   65CHL1  H11A 7251   2.890   6.634   8.785 -1.4615 -0.8063 -1.3139
   65CHL1  H11B 7252   2.952   6.795   8.827 -0.6117  1.3880  0.9781
   65CHL1    C9 7253   2.755   6.759   8.913 -0.1178  0.2663  0.4630
   65CHL1    H9 7254   2.752   6.868   8.930 -1.9683  0.1769  1.0295
   65CHL1   C10 7255   2.788   6.688   9.045 -0.1933  1.0982  0.3514
   65CHL1   C19 7256   2.811   6.530   9.027 -0.1326  0.2396 -0.5994
   65CHL1  H19A 7257   2.838   6.482   9.124  1.8360  3.1484  0.4495
   65CHL1  H19B 7258   2.727   6.484   8.972 -2.2513  2.6742  0.3839
   65CHL1  H19C 7259   2.897   6.505   8.961 -0.1774 -1.4511 -0.0519
   65CHL1    C1 7260   2.919   6.758   9.100  0.3248 -0.2039  0.1260
   65CHL1   H1A 7261   3.003   6.732   9.032  1.2349 -0.6462  1.3701
   65CHL1   H1B 7262   2.891   6.865   9.101 -2.5993 -0.9079  0.2081
   65CHL1    C2 7263   2.966   6.697   9.233  0.4036 -0.2422 -0.0685
   65CHL1   H2A 7264   3.058   6.744   9.272 -0.6113  1.2743  0.6086
   65CHL1   H2B 7265   2.989   6.588   9.236  1.0028 -0.1261  3.8820
   65CHL1   C20 7266   2.627   6.766   8.359 -0.0796  0.2159 -0.8580
   65CHL1   H20 7267   2.585   6.663   8.359 -2.7465  1.1971  0.6752
   65CHL1   C21 7268   2.779   6.774   8.323  1.1665 -0.6302 -0.2669
   65CHL1  H21A 7269   2.785   6.755   8.214  2.1957 -1.8600 -0.0198
   65CHL1  H21B 7270   2.844   6.695   8.367  0.1844 -1.2106  0.1752
   65CHL1  H21C 7271   2.827   6.870   8.353  0.5283 -1.3455  3.6931
   65CHL1   C22 7272   2.544   6.840   8.248 -0.1111  0.1624 -0.4040
   65CHL1  H22A 7273   2.580   6.789   8.156  1.9832  0.7605  0.0183
   65CHL1  H22B 7274   2.436   6.822   8.264 -0.6725  0.5055 -3.3418
   65CHL1   C23 7275   2.574   6.981   8.242 -0.4708 -0.5466 -0.9147
   65CHL1  H23A 7276   2.549   7.036   8.335 -0.8171  1.8848 -2.3281
   65CHL1  H23B 7277   2.683   6.989   8.219  0.2262 -1.2447  1.8303
   65CHL1   C24 7278   2.491   7.048   8.124 -0.0518 -0.1101  0.2923
   65CHL1  H24A 7279   2.526   6.997   8.032  2.8335  1.8220  0.1898
   65CHL1  H24B 7280   2.384   7.020   8.140 -0.3940  2.1402  2.8080
   65CHL1   C25 7281   2.511   7.201   8.105  0.4703 -0.7382  0.4311
   65CHL1   H25 7282   2.620   7.222   8.108  0.1775  0.9217  0.1815
   65CHL1   C26 7283   2.454   7.247   7.972  0.3114 -0.3161  0.0386
   65CHL1  H26A 7284   2.346   7.224   7.978  0.5377 -1.4529  0.0682
   65CHL1  H26B 7285   2.463   7.358   7.972  0.0246 -0.2548  2.2539
   65CHL1  H26C 7286   2.508   7.195   7.890 -1.5375 -0.5875 -1.0453
   65CHL1   C27 7287   2.449   7.281   8.218  0.1911  0.5719  0.0061
   65CHL1  H27A 7288   2.339   7.270   8.213  0.2403  0.2192 -0.4044
   65CHL1  H27B 7289   2.491   7.252   8.317 -1.0316 -2.7593 -0.3048
   65CHL1  H27C 7290   2.472   7.389   8.208 -3.0083  1.3700  0.1273
   66CHL1    C3 7291   7.095   5.552   9.308  0.1867 -0.1293 -0.4682
   66CHL1    H3 7292   7.037   5.463   9.341  0.3976 -0.5603 -1.2120
   66CHL1    O3 7293   7.111   5.638   9.422 -0.1250 -0.1263  0.5125
   66CHL1   H3' 7294   7.088   5.726   9.393 -1.0443 -0.7274 -0.7300
   66CHL1    C4 7295   7.238   5.514   9.261 -0.6218  0.0762 -0.5868
   66CHL1   H4A 7296   7.284   5.613   9.243  0.6789 -0.2757  0.5434
   66CHL1   H4B 7297   7.296   5.454   9.335 -1.5061 -1.7586 -1.3173
   66CHL1    C5 7298   7.213   5.427   9.140 -0.2526 -0.2679  0.2264
   66CHL1    C6 7299   7.252   5.298   9.147 -0.3013 -0.5087  0.3513
   66CHL1    H6 7300   7.302   5.269   9.242 -1.2153  3.4323  2.2155
   66CHL1    C7 7301   7.251   5.218   9.021  0.0454  0.0666  0.3339
   66CHL1   H7A 7302   7.352   5.172   9.029 -0.5251 -1.0043  1.8748
   66CHL1   H7B 7303   7.172   5.140   9.026  0.0495  0.0403 -0.0156
   66CHL1    C8 7304   7.248   5.304   8.887 -0.0901  0.0664  0.3403
   66CHL1    H8 7305   7.341   5.365   8.884  0.6731 -1.0585  0.4883
   66CHL1   C14 7306   7.233   5.207   8.764  0.5584 -0.2644 -0.4639
   66CHL1   H14 7307   7.140   5.150   8.786 -0.4308  2.0374  1.7857
   66CHL1   C15 7308   7.335   5.102   8.734  0.1838  0.0209 -0.1284
   66CHL1  H15A 7309   7.434   5.149   8.717 -0.8285  2.7943  0.8674
   66CHL1  H15B 7310   7.340   5.021   8.809 -1.9105  0.1419  0.2189
   66CHL1   C16 7311   7.291   5.046   8.599 -0.7651 -0.3746  0.5448
   66CHL1  H16A 7312   7.382   5.036   8.536  1.1178  2.6117  2.5191
   66CHL1  H16B 7313   7.245   4.946   8.610 -1.7467  0.1528  1.4015
   66CHL1   C17 7314   7.189   5.146   8.540 -0.7396 -0.4264 -0.6138
   66CHL1   H17 7315   7.089   5.101   8.559 -0.9334  0.8301  1.9058
   66CHL1   C13 7316   7.199   5.271   8.639 -0.7383 -0.1690  0.5164
   66CHL1   C18 7317   7.317   5.363   8.607  0.5407 -0.4315  0.1648
   66CHL1  H18A 7318   7.297   5.424   8.516  1.9592 -0.4431 -0.1681
   66CHL1  H18B 7319   7.336   5.438   8.687  0.0332 -0.2482  0.1197
   66CHL1  H18C 7320   7.409   5.306   8.582  1.0348 -0.4567  1.9146
   66CHL1   C12 7321   7.068   5.347   8.660  1.1712  0.4349  0.6200
   66CHL1  H12A 7322   7.028   5.404   8.573 -0.9474 -2.6353 -0.5820
   66CHL1  H12B 7323   6.991   5.278   8.699 -0.1186  1.4089 -0.1265
   66CHL1   C11 7324   7.088   5.450   8.763 -0.4867 -0.1793 -0.0975
   66CHL1  H11A 7325   7.156   5.528   8.723  0.5478 -1.2841 -0.5629
   66CHL1  H11B 7326   6.990   5.502   8.774 -0.3001 -0.0475  1.0769
   66CHL1    C9 7327   7.131   5.394   8.900  0.6723 -0.2063 -0.0350
   66CHL1    H9 7328   7.045   5.332   8.934 -1.1243  2.6552  0.9464
   66CHL1   C10 7329   7.147   5.493   9.020 -1.2264 -0.1769 -0.4838
   66CHL1   C19 7330   7.241   5.605   8.982  0.2986  0.6436 -1.1767
   66CHL1  H19A 7331   7.340   5.560   8.960  0.2523 -0.1854  0.2222
   66CHL1  H19B 7332   7.196   5.659   8.895 -1.7855 -0.9895 -1.2152
   66CHL1  H19C 7333   7.263   5.686   9.054 -1.2111  0.1624 -0.1310
   66CHL1    C1 7334   7.007   5.548   9.066 -0.4636 -0.2319  0.3117
   66CHL1   H1A 7335   6.973   5.609   8.979 -1.4832 -2.8351 -1.2240
   66CHL1   H1B 7336   6.941   5.461   9.083  0.6136 -0.9266  1.0464
   66CHL1    C2 7337   7.009   5.630   9.200  0.4375  0.0197 -0.1243
   66CHL1   H2A 7338   6.907   5.654   9.238  1.1864  0.8428  1.4557
   66CHL1   H2B 7339   7.062   5.725   9.176 -0.8740  0.1122 -3.0503
   66CHL1   C20 7340   7.207   5.169   8.386  0.6696 -0.2252  0.1249
   66CHL1   H20 7341   7.310   5.207   8.371  0.2663  0.5227 -0.8062
   66CHL1   C21 7342   7.119   5.279   8.339  0.2623 -0.1085 -0.2377
   66CHL1  H21A 7343   7.129   5.283   8.229 -2.3740  0.7321 -0.5136
   66CHL1  H21B 7344   7.147   5.380   8.378 -2.4625  0.8567 -0.5712
   66CHL1  H21C 7345   7.011   5.263   8.359  0.7745 -2.9858  0.6473
   66CHL1   C22 7346   7.172   5.038   8.312 -0.4562 -0.0462 -0.2410
   66CHL1  H22A 7347   7.235   4.955   8.348 -1.0451 -0.9474 -1.2358
   66CHL1  H22B 7348   7.069   5.010   8.344 -0.1614 -1.2521 -0.3235
   66CHL1   C23 7349   7.165   5.041   8.153 -0.6028 -0.0582 -0.4135
   66CHL1  H23A 7350   7.162   4.932   8.132  0.2975  0.0481 -1.1621
   66CHL1  H23B 7351   7.070   5.093   8.129  0.1999  1.2212 -0.9354
   66CHL1   C24 7352   7.279   5.117   8.097  0.2626  0.3009  0.6102
   66CHL1  H24A 7353   7.268   5.228   8.103 -0.3292  0.3278 -0.6625
   66CHL1  H24B 7354   7.372   5.079   8.144  2.0973  2.9036 -0.6437
   66CHL1   C25 7355   7.303   5.107   7.947 -0.3341  0.2559 -0.0086
   66CHL1   H25 7356   7.212   5.144   7.894 -0.6732 -2.1687 -1.2881
   66CHL1   C26 7357   7.411   5.206   7.905 -0.3772  0.3584  0.0896
   66CHL1  H26A 7358   7.440   5.197   7.798  1.0336 -2.0471  0.6085
   66CHL1  H26B 7359   7.368   5.307   7.921  1.0011  1.2887 -1.6766
   66CHL1  H26C 7360   7.502   5.176   7.961 -0.1628 -0.5460 -0.7067
   66CHL1   C27 7361   7.337   4.964   7.894  0.9202 -0.3274  0.7413
   66CHL1  H27A 7362   7.245   4.901   7.886  1.0242 -0.3441 -0.4104
   66CHL1  H27B 7363   7.380   4.978   7.793 -0.1799  1.4148  0.4701
   66CHL1  H27C 7364   7.412   4.908   7.954  1.2083 -0.2513  0.4517
   67CHL1    C3 7365   6.197   6.962   9.194  0.2025  0.4493  0.4139
   67CHL1    H3 7366   6.259   7.048   9.160 -1.0797  0.9009 -0.9036
   67CHL1    O3 7367   6.146   6.974   9.324 -0.4376  0.7381  0.1309
   67CHL1   H3' 7368   6.082   6.902   9.329 -0.9390  1.2157  0.6181
   67CHL1    C4 7369   6.078   6.961   9.090  0.1065  0.8133  0.0714
   67CHL1   H4A 7370   5.998   6.901   9.138 -0.0671  1.9994  1.3199
   67CHL1   H4B 7371   6.029   7.060   9.085 -1.2334  0.1873  0.4557
   67CHL1    C5 7372   6.122   6.917   8.957 -0.0785 -0.2174  0.1950
   67CHL1    C6 7373   6.098   7.000   8.850  0.2298 -0.0531 -0.4546
   67CHL1    H6 7374   6.043   7.095   8.860 -0.1698 -0.3718  0.4250
   67CHL1    C7 7375   6.136   6.969   8.708  0.8581  0.0498  0.6779
   67CHL1   H7A 7376   6.057   7.002   8.637  0.1269 -3.5072 -0.3989
   67CHL1   H7B 7377   6.228   7.026   8.686  0.8912  0.6584  2.2993
   67CHL1    C8 7378   6.156   6.815   8.692  0.0462  0.8382 -0.2953
   67CHL1    H8 7379   6.056   6.767   8.700  0.6588 -0.4353  0.0785
   67CHL1   C14 7380   6.240   6.776   8.563  0.4412 -0.4874  0.1154
   67CHL1   H14 7381   6.337   6.828   8.560  0.8276 -1.2371 -0.6498
   67CHL1   C15 7382   6.177   6.836   8.438 -0.7140  0.6695 -0.8267
   67CHL1  H15A 7383   6.070   6.811   8.451 -0.2328  0.0998  3.2631
   67CHL1  H15B 7384   6.199   6.945   8.445  0.3935  0.3602  1.2732
   67CHL1   C16 7385   6.247   6.755   8.326  0.3967  0.4534  0.1071
   67CHL1  H16A 7386   6.174   6.712   8.255 -0.5143  0.4880  1.0026
   67CHL1  H16B 7387   6.318   6.824   8.275 -0.9949  0.0402 -2.5069
   67CHL1   C17 7388   6.322   6.638   8.395 -0.0970 -0.1194 -0.0702
   67CHL1   H17 7389   6.427   6.673   8.401  0.3541 -1.4818  0.4808
   67CHL1   C13 7390   6.260   6.628   8.533 -0.3867  0.1633 -0.1082
   67CHL1   C18 7391   6.127   6.544   8.524 -0.0563 -0.1426  0.1341
   67CHL1  H18A 7392   6.073   6.552   8.620 -1.2975  2.5000 -0.7082
   67CHL1  H18B 7393   6.060   6.597   8.453  0.6428  0.3059 -0.1933
   67CHL1  H18C 7394   6.141   6.437   8.495  0.3064 -0.1514  0.3384
   67CHL1   C12 7395   6.346   6.572   8.643  0.0559  0.1579 -0.6260
   67CHL1  H12A 7396   6.368   6.463   8.639 -0.2772  0.0278  0.6515
   67CHL1  H12B 7397   6.449   6.614   8.643  0.2988 -0.3382  1.4914
   67CHL1   C11 7398   6.277   6.594   8.779 -0.1303 -0.4567 -0.8485
   67CHL1  H11A 7399   6.186   6.530   8.786 -0.6125  0.2145 -0.8996
   67CHL1  H11B 7400   6.339   6.565   8.866  0.1364  2.8843  0.1894
   67CHL1    C9 7401   6.243   6.746   8.807  0.4340 -0.4251 -0.4087
   67CHL1    H9 7402   6.339   6.801   8.802 -0.6665  1.5144 -1.4778
   67CHL1   C10 7403   6.195   6.781   8.949  0.3782  0.0853 -0.4099
   67CHL1   C19 7404   6.101   6.661   8.991 -0.2232  0.7124  0.2723
   67CHL1  H19A 7405   6.037   6.685   9.079 -1.7727  0.4507 -0.7498
   67CHL1  H19B 7406   6.027   6.643   8.911  0.8302  0.3217 -0.6366
   67CHL1  H19C 7407   6.149   6.562   9.007 -0.4531  0.5456 -0.0616
   67CHL1    C1 7408   6.317   6.803   9.046 -0.0981  0.5591 -0.5620
   67CHL1   H1A 7409   6.368   6.705   9.051  0.4454  0.8780  0.7711
   67CHL1   H1B 7410   6.393   6.875   9.010  2.0891 -0.9632  0.8052
   67CHL1    C2 7411   6.275   6.837   9.190 -0.4773  0.0490  0.3326
   67CHL1   H2A 7412   6.368   6.847   9.250  0.2307  0.8785 -0.8554
   67CHL1   H2B 7413   6.211   6.754   9.225 -2.5783  0.9024 -1.2415
   67CHL1   C20 7414   6.336   6.513   8.300 -0.7308 -0.5421 -0.3830
   67CHL1   H20 7415   6.233   6.477   8.281 -0.7119 -0.7031 -0.1874
   67CHL1   C21 7416   6.418   6.397   8.370  0.1388  0.4544 -0.2089
   67CHL1  H21A 7417   6.523   6.428   8.390 -0.2397  2.0536 -0.5559
   67CHL1  H21B 7418   6.416   6.311   8.300 -1.5591  1.6084 -1.6612
   67CHL1  H21C 7419   6.373   6.371   8.468  1.9269  0.8542  0.7563
   67CHL1   C22 7420   6.410   6.562   8.177 -0.5626  0.1366  0.4550
   67CHL1  H22A 7421   6.336   6.607   8.108 -0.4463  0.1416  0.3349
   67CHL1  H22B 7422   6.495   6.630   8.195 -0.8317  0.6552 -0.1963
   67CHL1   C23 7423   6.486   6.443   8.098  0.4044  0.5995  0.5139
   67CHL1  H23A 7424   6.566   6.390   8.152  2.2023  1.6491 -1.0097
   67CHL1  H23B 7425   6.403   6.384   8.052  2.5875  0.4415 -3.7183
   67CHL1   C24 7426   6.560   6.498   7.980 -0.1348 -0.1399  0.2124
   67CHL1  H24A 7427   6.490   6.550   7.910 -0.5068 -1.5259 -0.4845
   67CHL1  H24B 7428   6.639   6.566   8.016  1.0192 -1.9203  1.1857
   67CHL1   C25 7429   6.635   6.384   7.902  0.6226  0.1979  0.2506
   67CHL1   H25 7430   6.557   6.329   7.845  0.7354 -1.2925  1.4392
   67CHL1   C26 7431   6.729   6.439   7.794 -0.0621 -0.3441 -0.7973
   67CHL1  H26A 7432   6.785   6.365   7.734  1.4645  0.1944 -0.1021
   67CHL1  H26B 7433   6.665   6.507   7.734  0.5245  1.3787  0.4438
   67CHL1  H26C 7434   6.803   6.505   7.844  0.0737 -0.8852 -0.2694
   67CHL1   C27 7435   6.725   6.292   7.979  0.2638 -0.9462 -0.3217
   67CHL1  H27A 7436   6.667   6.246   8.062 -0.7712 -1.1631 -1.1535
   67CHL1  H27B 7437   6.781   6.215   7.922  3.1098  1.5108 -1.1395
   67CHL1  H27C 7438   6.812   6.352   8.014  0.8180 -3.6130  3.5668
   68CHL1    C3 7439   0.377   0.833   9.274  0.2392 -0.6266 -0.1043
   68CHL1    H3 7440   0.356   0.906   9.193  1.8305 -0.3782 -0.3328
   68CHL1    O3 7441   0.330   0.883   9.390 -0.3915 -0.5459 -0.2766
   68CHL1   H3' 7442   0.337   0.809   9.451  1.0354  0.3212  0.6933
   68CHL1    C4 7443   0.298   0.705   9.241  0.1008 -0.7716 -0.5269
   68CHL1   H4A 7444   0.318   0.637   9.327  0.0388 -0.2857 -0.1212
   68CHL1   H4B 7445   0.190   0.732   9.242  0.4592  0.8658 -1.2874
   68CHL1    C5 7446   0.342   0.649   9.106 -0.0161 -0.2822  0.9183
   68CHL1    C6 7447   0.258   0.622   9.001 -0.2062  0.2348  0.2642
   68CHL1    H6 7448   0.150   0.630   9.021 -0.0670  0.2134  1.0566
   68CHL1    C7 7449   0.292   0.561   8.864 -0.1318 -0.0885  0.0637
   68CHL1   H7A 7450   0.241   0.463   8.854  1.7544 -1.3355  1.7811
   68CHL1   H7B 7451   0.251   0.625   8.784 -2.3019 -0.8002  0.5410
   68CHL1    C8 7452   0.444   0.530   8.855 -0.1316 -0.2348 -0.3988
   68CHL1    H8 7453   0.459   0.429   8.897 -0.3350 -0.5741 -1.1292
   68CHL1   C14 7454   0.494   0.540   8.709  0.6922  0.6028  0.1603
   68CHL1   H14 7455   0.491   0.648   8.684  3.8004  0.9030  0.7170
   68CHL1   C15 7456   0.407   0.465   8.603  0.8716  0.6414 -0.4249
   68CHL1  H15A 7457   0.381   0.366   8.646  3.7150  1.0293  2.5980
   68CHL1  H15B 7458   0.318   0.524   8.572  0.6422  0.5987  0.1436
   68CHL1   C16 7459   0.500   0.441   8.485 -0.2803  0.3062 -0.5856
   68CHL1  H16A 7460   0.513   0.333   8.466 -1.1074  0.0982 -0.0151
   68CHL1  H16B 7461   0.462   0.499   8.398 -0.9473 -2.0580 -1.9528
   68CHL1   C17 7462   0.638   0.501   8.532 -0.1793 -1.0189  0.4323
   68CHL1   H17 7463   0.641   0.604   8.490 -0.2745 -1.7244 -1.3888
   68CHL1   C13 7464   0.632   0.495   8.682 -0.0638  0.0363 -0.6595
   68CHL1   C18 7465   0.655   0.353   8.725  0.6057 -0.1502 -0.9499
   68CHL1  H18A 7466   0.618   0.280   8.650 -0.8104  0.1568 -0.5795
   68CHL1  H18B 7467   0.762   0.326   8.729  0.2676 -1.5482 -0.8798
   68CHL1  H18C 7468   0.603   0.332   8.821 -1.6865  0.4903 -1.9752
   68CHL1   C12 7469   0.725   0.586   8.761 -0.0425 -0.3417  0.1796
   68CHL1  H12A 7470   0.820   0.528   8.771  1.1323  1.6467  1.3017
   68CHL1  H12B 7471   0.733   0.690   8.722 -1.0055 -0.6915 -1.0071
   68CHL1   C11 7472   0.689   0.607   8.908 -0.5314  0.0034 -0.3300
   68CHL1  H11A 7473   0.733   0.520   8.962 -1.7996 -0.0713  0.6448
   68CHL1  H11B 7474   0.743   0.690   8.958 -2.4456  1.6254 -0.8321
   68CHL1    C9 7475   0.538   0.621   8.941 -0.0484 -0.3237  0.1406
   68CHL1    H9 7476   0.504   0.716   8.894 -1.4078 -0.9049 -0.1159
   68CHL1   C10 7477   0.495   0.638   9.090  0.2918 -0.2757  0.2071
   68CHL1   C19 7478   0.545   0.518   9.172 -0.3446 -0.2235  0.0172
   68CHL1  H19A 7479   0.508   0.520   9.277  1.6820 -2.0446  0.8602
   68CHL1  H19B 7480   0.494   0.428   9.133 -1.1186  0.0345  0.4081
   68CHL1  H19C 7481   0.656   0.508   9.175 -0.1231  1.6235 -0.7433
   68CHL1    C1 7482   0.570   0.769   9.141 -0.7883 -0.2306 -0.0005
   68CHL1   H1A 7483   0.679   0.748   9.147 -0.9344 -1.1491 -0.3632
   68CHL1   H1B 7484   0.562   0.856   9.073  1.4642 -0.3221 -0.4600
   68CHL1    C2 7485   0.526   0.808   9.279 -0.1879 -0.2871 -0.3736
   68CHL1   H2A 7486   0.577   0.902   9.308 -1.4505  0.0130  0.9795
   68CHL1   H2B 7487   0.542   0.727   9.354 -1.3872  0.4979  0.7671
   68CHL1   C20 7488   0.759   0.437   8.462 -0.2063  0.0866 -0.1434
   68CHL1   H20 7489   0.786   0.336   8.501 -1.1289 -0.2901 -0.4300
   68CHL1   C21 7490   0.888   0.529   8.491 -0.6982 -0.0759 -0.0329
   68CHL1  H21A 7491   0.865   0.631   8.452 -0.0689 -0.2727 -0.9516
   68CHL1  H21B 7492   0.982   0.484   8.452 -0.8637  0.0288 -0.5642
   68CHL1  H21C 7493   0.905   0.520   8.600 -1.1865  0.5524  0.1010
   68CHL1   C22 7494   0.760   0.422   8.307  0.1777 -1.0946  0.0851
   68CHL1  H22A 7495   0.858   0.381   8.272 -0.6166 -0.5609 -3.0053
   68CHL1  H22B 7496   0.687   0.339   8.292 -0.9823 -0.0410 -0.1851
   68CHL1   C23 7497   0.741   0.555   8.229  0.8250 -0.0709 -0.3936
   68CHL1  H23A 7498   0.654   0.612   8.266 -0.7654 -2.3242 -0.4805
   68CHL1  H23B 7499   0.828   0.624   8.234  0.7745 -0.0213 -0.2125
   68CHL1   C24 7500   0.725   0.521   8.076  0.0355 -0.4522 -0.6881
   68CHL1  H24A 7501   0.801   0.446   8.045 -1.1819 -1.9031 -0.3074
   68CHL1  H24B 7502   0.627   0.469   8.074 -0.9650  1.2709  0.6682
   68CHL1   C25 7503   0.729   0.633   7.974  0.3022 -0.6348  0.1287
   68CHL1   H25 7504   0.688   0.598   7.877 -0.7041  0.1018  0.2718
   68CHL1   C26 7505   0.640   0.755   8.021 -0.4355 -0.0063  0.0179
   68CHL1  H26A 7506   0.679   0.804   8.113 -1.6742  0.1714  0.4746
   68CHL1  H26B 7507   0.664   0.839   7.952  1.9172  0.3972  1.2089
   68CHL1  H26C 7508   0.532   0.730   8.020 -0.8701  1.7326 -0.6215
   68CHL1   C27 7509   0.874   0.680   7.952 -0.3139  0.4127 -0.3623
   68CHL1  H27A 7510   0.915   0.662   7.850 -0.2022 -0.5804 -0.1426
   68CHL1  H27B 7511   0.886   0.791   7.958  0.3455  0.3539 -0.5293
   68CHL1  H27C 7512   0.948   0.631   8.018  0.1786 -1.5883 -2.2649
   69CHL1    C3 7513   3.976   4.567   5.992  0.5082  0.1084 -0.0413
   69CHL1    H3 7514   4.019   4.663   6.029 -0.3192  0.7241 -0.6341
   69CHL1    O3 7515   4.031   4.528   5.871 -0.4827  0.3410 -0.2891
   69CHL1   H3' 7516   4.014   4.434   5.865  2.9584 -0.7086  3.0413
   69CHL1    C4 7517   3.995   4.458   6.102 -0.2366 -0.3659  0.4269
   69CHL1   H4A 7518   3.959   4.372   6.043 -1.8180  0.8926 -0.5440
   69CHL1   H4B 7519   4.105   4.460   6.119 -0.1771  1.2292  0.0583
   69CHL1    C5 7520   3.915   4.479   6.231  0.3296  0.0419  0.1305
   69CHL1    C6 7521   3.979   4.474   6.348 -0.0245  0.0761  0.1653
   69CHL1    H6 7522   4.085   4.445   6.343 -0.3668 -1.0399 -1.2839
   69CHL1    C7 7523   3.915   4.506   6.480  0.1366  0.0970 -0.1936
   69CHL1   H7A 7524   3.950   4.428   6.550 -0.9354  1.0869  1.5113
   69CHL1   H7B 7525   3.945   4.605   6.519  2.4832 -1.2075  1.5415
   69CHL1    C8 7526   3.759   4.509   6.468 -0.8099  0.2191  0.0728
   69CHL1    H8 7527   3.723   4.404   6.468  0.6681 -0.3076 -0.1193
   69CHL1   C14 7528   3.702   4.572   6.594  0.1124 -0.6247  0.3675
   69CHL1   H14 7529   3.742   4.676   6.592  0.5734 -0.7226  2.2180
   69CHL1   C15 7530   3.754   4.523   6.741 -0.0059 -0.0162 -0.5572
   69CHL1  H15A 7531   3.776   4.414   6.737 -1.5321 -0.3350 -0.8238
   69CHL1  H15B 7532   3.849   4.577   6.765  2.0596 -3.8246  0.7693
   69CHL1   C16 7533   3.633   4.559   6.833  0.6043  0.4245  0.6153
   69CHL1  H16A 7534   3.579   4.468   6.869 -0.5555  0.6095 -0.5667
   69CHL1  H16B 7535   3.665   4.625   6.916  1.5339  0.7147  0.0434
   69CHL1   C17 7536   3.522   4.644   6.738 -0.1414 -0.0133 -0.3602
   69CHL1   H17 7537   3.555   4.750   6.730  0.2492 -0.0455  0.6223
   69CHL1   C13 7538   3.552   4.583   6.599  0.1868  1.0026  0.8289
   69CHL1   C18 7539   3.482   4.439   6.593 -0.1471  0.2989  0.2642
   69CHL1  H18A 7540   3.535   4.379   6.670 -2.1611  2.5837  3.6783
   69CHL1  H18B 7541   3.372   4.452   6.602 -0.4323  1.0488 -2.8932
   69CHL1  H18C 7542   3.501   4.388   6.496 -1.4930 -1.1531  0.7190
   69CHL1   C12 7543   3.513   4.670   6.478  0.4070  0.8760 -0.8137
   69CHL1  H12A 7544   3.405   4.692   6.469 -0.3697 -2.2416  0.0002
   69CHL1  H12B 7545   3.557   4.772   6.492  1.8714  0.2115 -0.3813
   69CHL1   C11 7546   3.562   4.618   6.344 -0.7766  0.3628  0.3091
   69CHL1  H11A 7547   3.508   4.524   6.322  1.4823 -0.7462 -0.8242
   69CHL1  H11B 7548   3.535   4.690   6.264 -1.4274  0.5838  0.7177
   69CHL1    C9 7549   3.719   4.589   6.343 -0.4633  0.0712 -0.0705
   69CHL1    H9 7550   3.765   4.689   6.359 -1.9248  0.8574 -0.5505
   69CHL1   C10 7551   3.771   4.520   6.214 -0.1277  0.4610  0.0530
   69CHL1   C19 7552   3.695   4.386   6.176 -0.0050 -0.4707 -0.6922
   69CHL1  H19A 7553   3.749   4.329   6.098 -0.7342 -1.7153 -0.3216
   69CHL1  H19B 7554   3.678   4.317   6.262 -0.3312  0.3564 -0.0831
   69CHL1  H19C 7555   3.594   4.415   6.139  0.0395  0.2375 -0.2798
   69CHL1    C1 7556   3.760   4.621   6.097  0.5404 -0.0191  0.5484
   69CHL1   H1A 7557   3.652   4.618   6.072 -0.3200 -0.4796  3.7644
   69CHL1   H1B 7558   3.800   4.718   6.133  2.4054 -0.2860 -0.6647
   69CHL1    C2 7559   3.827   4.588   5.964 -0.1694  0.6278 -0.3008
   69CHL1   H2A 7560   3.806   4.669   5.891 -0.6316  1.6156  0.8908
   69CHL1   H2B 7561   3.789   4.496   5.914 -0.5228  1.3718 -1.4360
   69CHL1   C20 7562   3.384   4.641   6.804 -0.1589 -0.5864 -0.0289
   69CHL1   H20 7563   3.350   4.535   6.803  1.6214 -1.1824 -0.0246
   69CHL1   C21 7564   3.281   4.726   6.730 -0.4649 -0.1847  0.5043
   69CHL1  H21A 7565   3.186   4.739   6.785 -0.3539 -0.3511  0.7338
   69CHL1  H21B 7566   3.264   4.680   6.630  1.5638 -2.2430  1.0139
   69CHL1  H21C 7567   3.325   4.828   6.720 -1.7057  0.6799  2.9785
   69CHL1   C22 7568   3.383   4.688   6.953 -0.2973  0.3567 -0.5455
   69CHL1  H22A 7569   3.282   4.684   6.999  0.2051 -2.6072  0.5276
   69CHL1  H22B 7570   3.454   4.628   7.014  1.5677  2.4193 -0.5750
   69CHL1   C23 7571   3.429   4.835   6.968 -0.0778 -0.5667  0.0447
   69CHL1  H23A 7572   3.533   4.847   6.931 -0.3541 -3.6625 -2.1124
   69CHL1  H23B 7573   3.357   4.896   6.909  0.6730 -2.4322 -3.0500
   69CHL1   C24 7574   3.405   4.885   7.108 -0.4099  0.2282  0.6109
   69CHL1  H24A 7575   3.306   4.845   7.139  0.3350 -1.1394  1.3101
   69CHL1  H24B 7576   3.476   4.834   7.176  0.7765 -0.0032 -0.7662
   69CHL1   C25 7577   3.411   5.038   7.126 -0.3752  0.1284  0.4885
   69CHL1   H25 7578   3.493   5.075   7.061 -0.7091  0.5335  0.2953
   69CHL1   C26 7579   3.283   5.111   7.072  0.5758 -0.3300  0.0779
   69CHL1  H26A 7580   3.267   5.109   6.962  1.8005  0.5470 -0.1431
   69CHL1  H26B 7581   3.192   5.068   7.118 -0.1994  0.3642 -0.7830
   69CHL1  H26C 7582   3.294   5.219   7.097 -1.2176 -0.5209  1.9673
   69CHL1   C27 7583   3.440   5.077   7.267 -0.6862  0.3978 -0.0816
   69CHL1  H27A 7584   3.445   5.187   7.279 -0.8079  0.4258 -0.2741
   69CHL1  H27B 7585   3.357   5.025   7.321 -0.1258 -1.1404 -0.6282
   69CHL1  H27C 7586   3.529   5.024   7.305 -0.0828 -0.0553 -2.0211
   70CHL1    C3 7587   4.379   2.594   6.090 -0.0439 -0.1821 -0.5979
   70CHL1    H3 7588   4.476   2.643   6.066 -0.2594  0.5048 -0.0682
   70CHL1    O3 7589   4.307   2.587   5.968 -0.1655 -0.0287  0.2056
   70CHL1   H3' 7590   4.212   2.576   5.976 -0.4509  0.7768 -1.5947
   70CHL1    C4 7591   4.414   2.453   6.139  0.2853 -0.1705 -0.4298
   70CHL1   H4A 7592   4.311   2.411   6.141 -0.9191  2.6178 -0.0704
   70CHL1   H4B 7593   4.457   2.405   6.049  0.3444 -1.7537  0.3981
   70CHL1    C5 7594   4.493   2.445   6.267 -0.8012  0.0121 -0.0436
   70CHL1    C6 7595   4.610   2.378   6.278 -0.7142  0.4732  0.4747
   70CHL1    H6 7596   4.647   2.316   6.195 -0.3202  0.4309  0.6768
   70CHL1    C7 7597   4.692   2.380   6.409 -1.1853  0.3670 -0.6761
   70CHL1   H7A 7598   4.724   2.277   6.434 -0.5260  1.1467  2.0081
   70CHL1   H7B 7599   4.788   2.432   6.388 -0.0588 -0.2489  2.3800
   70CHL1    C8 7600   4.619   2.429   6.531 -0.2045 -1.1385 -0.1951
   70CHL1    H8 7601   4.551   2.348   6.564 -0.2751 -0.7013  0.7463
   70CHL1   C14 7602   4.719   2.461   6.636  0.1665 -0.2356  0.8899
   70CHL1   H14 7603   4.781   2.543   6.594 -0.1471 -1.0614 -1.3080
   70CHL1   C15 7604   4.815   2.357   6.681 -0.0381  0.0630  1.2178
   70CHL1  H15A 7605   4.761   2.261   6.695  0.6565 -0.9601 -2.2148
   70CHL1  H15B 7606   4.886   2.338   6.597 -2.0633 -0.4622 -0.4593
   70CHL1   C16 7607   4.884   2.409   6.808 -0.0909 -0.4595 -0.4190
   70CHL1  H16A 7608   4.872   2.332   6.888  0.0388 -1.1231 -1.0242
   70CHL1  H16B 7609   4.988   2.444   6.795 -0.0741 -1.0662 -2.1699
   70CHL1   C17 7610   4.802   2.541   6.848  0.8236  0.4465 -0.7966
   70CHL1   H17 7611   4.850   2.627   6.797 -0.0561 -0.5730 -3.5592
   70CHL1   C13 7612   4.668   2.524   6.770 -0.4499  0.8339 -0.1020
   70CHL1   C18 7613   4.568   2.425   6.840 -0.6155  0.3398 -0.4081
   70CHL1  H18A 7614   4.489   2.402   6.766 -2.7406  1.4481  1.3757
   70CHL1  H18B 7615   4.623   2.336   6.876 -0.1794  0.2857 -1.1915
   70CHL1  H18C 7616   4.523   2.465   6.933  2.9276  0.8403  1.2496
   70CHL1   C12 7617   4.604   2.653   6.731 -0.3387 -0.4212  0.6600
   70CHL1  H12A 7618   4.568   2.716   6.814  0.2722 -0.0661  0.6653
   70CHL1  H12B 7619   4.686   2.709   6.681  0.5499 -2.3541 -0.1858
   70CHL1   C11 7620   4.499   2.642   6.619  0.0137 -0.0105 -0.4025
   70CHL1  H11A 7621   4.409   2.589   6.657  0.8163 -0.3659  1.0417
   70CHL1  H11B 7622   4.466   2.742   6.580  1.1496  0.8111  0.6795
   70CHL1    C9 7623   4.542   2.559   6.491  0.4232 -0.8139 -0.0548
   70CHL1    H9 7624   4.614   2.630   6.446 -0.3496  0.6097  0.8746
   70CHL1   C10 7625   4.433   2.537   6.378 -0.2972  0.1390  0.3547
   70CHL1   C19 7626   4.320   2.454   6.439 -0.3761 -0.6144  0.7740
   70CHL1  H19A 7627   4.238   2.436   6.367 -1.4584  2.0280  1.2345
   70CHL1  H19B 7628   4.358   2.358   6.481  1.7438  0.8163  2.3481
   70CHL1  H19C 7629   4.272   2.505   6.525 -1.8741 -0.5107 -0.0983
   70CHL1    C1 7630   4.390   2.676   6.325  0.2097 -0.3446  0.5725
   70CHL1   H1A 7631   4.320   2.731   6.392  0.4803 -0.1237  0.6747
   70CHL1   H1B 7632   4.471   2.752   6.323  0.7978 -0.9215  1.7813
   70CHL1    C2 7633   4.304   2.677   6.189  0.3941 -0.4342 -0.4092
   70CHL1   H2A 7634   4.280   2.782   6.162 -1.7622 -0.4950  0.9747
   70CHL1   H2B 7635   4.203   2.632   6.202  1.0017 -1.4539  1.0759
   70CHL1   C20 7636   4.798   2.559   6.995  0.4421 -0.3034  0.8489
   70CHL1   H20 7637   4.735   2.490   7.054 -1.3061  1.0550  0.6383
   70CHL1   C21 7638   4.725   2.695   7.029 -0.0644  0.2449 -0.0116
   70CHL1  H21A 7639   4.713   2.700   7.139  1.7525  2.7059  0.1726
   70CHL1  H21B 7640   4.619   2.687   6.998  0.1956 -3.4266 -0.3479
   70CHL1  H21C 7641   4.781   2.784   6.992  0.9392 -0.9061 -1.3347
   70CHL1   C22 7642   4.928   2.543   7.074  0.4316  0.5800  0.0387
   70CHL1  H22A 7643   4.900   2.560   7.180 -1.4540  0.9411 -0.4914
   70CHL1  H22B 7644   4.960   2.437   7.071  1.0420  0.7441  0.5397
   70CHL1   C23 7645   5.042   2.621   7.020 -0.1346 -0.5223 -0.1622
   70CHL1  H23A 7646   5.060   2.594   6.913 -0.9694  0.4063 -0.5600
   70CHL1  H23B 7647   5.014   2.728   7.010 -0.9253 -0.4919  1.9717
   70CHL1   C24 7648   5.176   2.611   7.096 -0.2876  0.0867 -0.5861
   70CHL1  H24A 7649   5.210   2.513   7.055  1.3791 -0.3234  1.6038
   70CHL1  H24B 7650   5.244   2.686   7.051  1.0048 -0.9070 -0.3492
   70CHL1   C25 7651   5.163   2.637   7.243 -0.5084 -0.1707 -0.1513
   70CHL1   H25 7652   5.097   2.560   7.288  0.5820 -0.5947  0.7646
   70CHL1   C26 7653   5.303   2.616   7.304 -0.4771  0.5358 -1.3116
   70CHL1  H26A 7654   5.299   2.647   7.410 -0.6215  1.9821 -1.7216
   70CHL1  H26B 7655   5.336   2.510   7.296 -2.3450 -0.2436  0.4150
   70CHL1  H26C 7656   5.375   2.673   7.242 -0.0296 -0.4482 -1.7241
   70CHL1   C27 7657   5.113   2.788   7.274  1.1231 -0.0639 -0.4901
   70CHL1  H27A 7658   5.121   2.801   7.384 -0.5128 -1.3908 -0.1563
   70CHL1  H27B 7659   5.180   2.855   7.217 -0.3357  0.6487 -1.4461
   70CHL1  H27C 7660   5.008   2.811   7.243  0.8474  0.1858  0.5947
   71CHL1    C3 7661   2.169   3.766   5.969  0.6399  0.3068  0.0156
   71CHL1    H3 7662   2.265   3.792   6.018  1.5418 -3.6464  0.7005
   71CHL1    O3 7663   2.170   3.791   5.831  0.1487  0.5974  0.0765
   71CHL1   H3' 7664   2.163   3.702   5.794 -1.5576 -0.1133  1.9258
   71CHL1    C4 7665   2.156   3.610   6.009  0.0814 -0.0132  1.1697
   71CHL1   H4A 7666   2.055   3.578   5.973  0.4374 -1.5231  1.4816
   71CHL1   H4B 7667   2.233   3.562   5.945 -0.1588  1.9825 -0.7836
   71CHL1    C5 7668   2.138   3.570   6.155 -0.3129 -0.8851  0.4254
   71CHL1    C6 7669   2.217   3.478   6.208 -0.4915  0.0036 -0.1017
   71CHL1    H6 7670   2.290   3.424   6.145  1.5324  0.7233  1.4927
   71CHL1    C7 7671   2.203   3.424   6.348 -0.0050  0.1190 -0.1287
   71CHL1   H7A 7672   2.159   3.322   6.352  0.1228  0.0795  0.4426
   71CHL1   H7B 7673   2.301   3.418   6.400 -0.2372  0.7989  0.4216
   71CHL1    C8 7674   2.102   3.499   6.439 -1.1278  0.4409 -0.0531
   71CHL1    H8 7675   2.008   3.440   6.434 -0.4919 -0.6583  0.6072
   71CHL1   C14 7676   2.142   3.496   6.588 -0.0219 -0.8526 -0.0675
   71CHL1   H14 7677   2.230   3.563   6.588  0.0289 -0.8400  2.1196
   71CHL1   C15 7678   2.181   3.367   6.653 -0.5602 -1.3416  0.2505
   71CHL1  H15A 7679   2.101   3.294   6.628 -1.3829  0.1209 -1.5391
   71CHL1  H15B 7680   2.280   3.341   6.610  0.5937  0.6467  1.5161
   71CHL1   C16 7681   2.182   3.394   6.802  1.1644 -0.4314 -0.4021
   71CHL1  H16A 7682   2.114   3.328   6.860  0.7547  1.9202  2.0027
   71CHL1  H16B 7683   2.281   3.383   6.850  1.3701 -0.1836 -0.7771
   71CHL1   C17 7684   2.125   3.540   6.815  0.2443 -0.6402  0.3154
   71CHL1   H17 7685   2.216   3.604   6.819  0.6221 -1.1965  3.5978
   71CHL1   C13 7686   2.049   3.567   6.688 -0.1209  0.5561 -0.9472
   71CHL1   C18 7687   1.920   3.483   6.695  0.2409 -0.0623 -0.2233
   71CHL1  H18A 7688   1.883   3.458   6.593 -4.1927 -0.4972  1.2512
   71CHL1  H18B 7689   1.930   3.390   6.755 -0.8263  0.9919  1.7094
   71CHL1  H18C 7690   1.841   3.548   6.740  0.6791  1.3693 -1.4341
   71CHL1   C12 7691   2.036   3.711   6.639  0.1506  0.0928 -0.2017
   71CHL1  H12A 7692   1.974   3.770   6.710  1.2396 -1.0754  1.8286
   71CHL1  H12B 7693   2.139   3.753   6.627  0.0761  0.3391  0.0145
   71CHL1   C11 7694   1.978   3.714   6.492 -0.5188  0.0704 -0.4939
   71CHL1  H11A 7695   1.884   3.655   6.497  0.6469 -1.9064 -0.5831
   71CHL1  H11B 7696   1.970   3.820   6.459  0.9614  0.8052  1.3580
   71CHL1    C9 7697   2.072   3.646   6.392  0.2762  0.4207  0.7012
   71CHL1    H9 7698   2.168   3.702   6.394  0.4673  0.0956  0.6914
   71CHL1   C10 7699   2.040   3.657   6.238  0.0882  0.5258  0.1280
   71CHL1   C19 7700   1.892   3.614   6.205 -0.3208  0.1866  0.2611
   71CHL1  H19A 7701   1.821   3.673   6.266  0.2570  0.3151  0.8267
   71CHL1  H19B 7702   1.875   3.642   6.099  0.1646  2.3275  0.6977
   71CHL1  H19C 7703   1.858   3.509   6.219 -4.0991  1.2817  0.2451
   71CHL1    C1 7704   2.054   3.805   6.193 -0.4842 -0.0582  0.4061
   71CHL1   H1A 7705   1.958   3.855   6.218 -1.1687 -1.7759  1.3952
   71CHL1   H1B 7706   2.147   3.852   6.231  1.1948  0.6825 -4.0534
   71CHL1    C2 7707   2.052   3.843   6.032 -0.4423  0.0091  0.1373
   71CHL1   H2A 7708   2.082   3.950   6.023 -0.0510 -0.2679 -3.8901
   71CHL1   H2B 7709   1.963   3.804   5.979 -0.1284  0.4439 -0.7509
   71CHL1   C20 7710   2.050   3.566   6.955 -0.3577 -0.3630 -0.6463
   71CHL1   H20 7711   1.950   3.517   6.948 -1.1121  1.0701 -0.3984
   71CHL1   C21 7712   2.011   3.715   6.970 -0.1685  0.4351  0.1347
   71CHL1  H21A 7713   2.101   3.780   6.964  0.3815 -0.0794  2.1043
   71CHL1  H21B 7714   1.975   3.731   7.073 -1.4953  0.9251 -0.3804
   71CHL1  H21C 7715   1.932   3.741   6.896  0.3050 -1.2759 -1.0449
   71CHL1   C22 7716   2.121   3.514   7.081 -0.4217 -0.0611 -0.2424
   71CHL1  H22A 7717   2.140   3.405   7.069 -2.7731 -0.2917 -2.9410
   71CHL1  H22B 7718   2.215   3.570   7.092 -0.6836  1.4006 -3.8421
   71CHL1   C23 7719   2.030   3.514   7.207  0.1356 -0.1577 -0.5391
   71CHL1  H23A 7720   1.995   3.616   7.235  0.2926  0.0917 -1.2339
   71CHL1  H23B 7721   1.935   3.458   7.191 -0.6009  0.0130  2.6471
   71CHL1   C24 7722   2.110   3.465   7.324 -0.2521  0.4287  0.3942
   71CHL1  H24A 7723   2.162   3.368   7.314  0.4900  0.7209  1.3230
   71CHL1  H24B 7724   2.183   3.547   7.338  0.0080  1.0939 -3.7729
   71CHL1   C25 7725   2.026   3.442   7.456  0.5457  0.2988  0.1523
   71CHL1   H25 7726   2.097   3.432   7.541 -0.1351  0.4912  0.7506
   71CHL1   C26 7727   1.935   3.560   7.482  0.3833 -0.2924  0.2930
   71CHL1  H26A 7728   1.983   3.661   7.486  4.4140 -2.0565  2.0513
   71CHL1  H26B 7729   1.853   3.558   7.407 -0.8719 -0.2002  1.6200
   71CHL1  H26C 7730   1.890   3.547   7.583 -3.6514  0.9552 -1.1518
   71CHL1   C27 7731   1.941   3.308   7.447  0.5751  0.5050 -0.1184
   71CHL1  H27A 7732   2.008   3.229   7.406  0.2906 -0.1268  0.6100
   71CHL1  H27B 7733   1.913   3.285   7.552  2.0216  3.0376  0.9122
   71CHL1  H27C 7734   1.847   3.316   7.388  0.2851  1.4730  0.4622
   72CHL1    C3 7735   5.063   2.987   5.969 -0.1009  0.8123  0.9415
   72CHL1    H3 7736   5.121   3.082   5.973  2.0999 -0.2735 -1.8165
   72CHL1    O3 7737   5.067   2.944   5.834 -0.0664 -0.2177  0.4489
   72CHL1   H3' 7738   5.043   2.851   5.841 -1.0120  0.0797  1.7532
   72CHL1    C4 7739   5.138   2.884   6.057 -0.3481 -1.1613 -0.2793
   72CHL1   H4A 7740   5.090   2.785   6.040 -1.0205 -0.6490 -1.3936
   72CHL1   H4B 7741   5.244   2.877   6.027 -0.0339  1.3910 -0.0123
   72CHL1    C5 7742   5.122   2.905   6.208 -0.4777  0.3785 -0.2903
   72CHL1    C6 7743   5.234   2.916   6.282 -0.1610 -0.0154 -0.2039
   72CHL1    H6 7744   5.333   2.895   6.238  0.2203  0.6325  0.3253
   72CHL1    C7 7745   5.225   2.954   6.426 -0.5053 -0.1826  0.5092
   72CHL1   H7A 7746   5.297   2.887   6.478  1.8442  0.4013 -1.8140
   72CHL1   H7B 7747   5.266   3.056   6.437 -0.9503  0.2942 -1.7715
   72CHL1    C8 7748   5.086   2.945   6.488  0.4531  0.0465 -0.0543
   72CHL1    H8 7749   5.067   2.836   6.497  0.4915  0.1232  1.3066
   72CHL1   C14 7750   5.093   3.020   6.623  0.4470 -0.1013 -0.5016
   72CHL1   H14 7751   5.124   3.124   6.601  0.4458 -0.1407 -0.6986
   72CHL1   C15 7752   5.186   2.955   6.734  0.8240 -0.2079  0.1632
   72CHL1  H15A 7753   5.179   2.845   6.730 -1.7935 -0.0808 -0.7958
   72CHL1  H15B 7754   5.290   2.992   6.726 -0.4098  3.6104 -0.4976
   72CHL1   C16 7755   5.121   2.994   6.866  0.1474  0.1605 -0.4827
   72CHL1  H16A 7756   5.098   2.907   6.931  0.5581  0.6548  0.3359
   72CHL1  H16B 7757   5.188   3.063   6.920 -0.1738  0.8452 -0.9374
   72CHL1   C17 7758   4.991   3.070   6.834  0.8607  0.1582 -0.0287
   72CHL1   H17 7759   5.017   3.177   6.822  1.8754 -0.0018  0.5994
   72CHL1   C13 7760   4.957   3.020   6.693 -0.1586 -0.0988  0.5958
   72CHL1   C18 7761   4.895   2.878   6.708 -0.0086 -0.0780  0.4770
   72CHL1  H18A 7762   4.803   2.868   6.769 -0.9265  2.1456 -0.4245
   72CHL1  H18B 7763   4.875   2.833   6.609 -0.2244  0.7172  0.1497
   72CHL1  H18C 7764   4.972   2.814   6.757  1.0666  1.7186  1.2713
   72CHL1   C12 7765   4.861   3.098   6.598  0.4183  0.4085 -0.6061
   72CHL1  H12A 7766   4.755   3.108   6.631  0.4395  3.8723 -1.1935
   72CHL1  H12B 7767   4.899   3.202   6.586  1.0514  0.2149 -0.3052
   72CHL1   C11 7768   4.848   3.040   6.451  0.0040  0.6297 -0.4899
   72CHL1  H11A 7769   4.785   2.948   6.453 -0.1867  0.6946 -1.8710
   72CHL1  H11B 7770   4.794   3.106   6.379  0.7586  1.2815 -0.4621
   72CHL1    C9 7771   4.983   3.011   6.391 -0.5170 -0.0677  0.1136
   72CHL1    H9 7772   5.034   3.109   6.381 -0.0761 -0.4421 -1.5734
   72CHL1   C10 7773   4.977   2.947   6.253  0.1270 -0.1654  0.3769
   72CHL1   C19 7774   4.897   2.810   6.265  0.4287 -0.5494 -0.0497
   72CHL1  H19A 7775   4.789   2.810   6.288  0.3278 -1.4858 -0.4578
   72CHL1  H19B 7776   4.911   2.768   6.163  1.1712  1.4336 -0.8097
   72CHL1  H19C 7777   4.952   2.743   6.335  0.5439 -0.7446 -0.3223
   72CHL1    C1 7778   4.904   3.050   6.156 -0.6448 -0.0385  0.2512
   72CHL1   H1A 7779   4.797   3.065   6.182 -0.9547 -2.0048  0.2973
   72CHL1   H1B 7780   4.946   3.152   6.170  0.1976 -0.3347 -0.0336
   72CHL1    C2 7781   4.920   3.008   6.003  0.3248 -0.7935  0.2874
   72CHL1   H2A 7782   4.879   3.082   5.930  0.2547 -1.5465 -0.4518
   72CHL1   H2B 7783   4.856   2.919   5.988 -0.6350 -0.1308  0.3633
   72CHL1   C20 7784   4.886   3.069   6.944 -0.2487  0.6442 -0.2074
   72CHL1   H20 7785   4.856   2.963   6.963  2.3554 -0.0427  0.4513
   72CHL1   C21 7786   4.767   3.160   6.901 -0.1876  0.4343  1.0252
   72CHL1  H21A 7787   4.708   3.189   6.991 -0.9355 -1.5403  1.2203
   72CHL1  H21B 7788   4.710   3.102   6.825  1.5383 -1.7770  1.3194
   72CHL1  H21C 7789   4.808   3.253   6.857  2.9919 -1.1862  0.3047
   72CHL1   C22 7790   4.950   3.123   7.079 -0.3368  0.2911  0.2180
   72CHL1  H22A 7791   5.021   3.043   7.110 -0.8068 -0.3502 -0.3485
   72CHL1  H22B 7792   4.996   3.221   7.055 -0.9437  0.9263  1.5199
   72CHL1   C23 7793   4.851   3.149   7.197  0.6724 -0.5327 -0.4930
   72CHL1  H23A 7794   4.905   3.155   7.294 -1.8849  1.1261  0.9606
   72CHL1  H23B 7795   4.800   3.248   7.196  1.6696  0.0075  0.1480
   72CHL1   C24 7796   4.757   3.032   7.227  0.6709  0.0937  0.5071
   72CHL1  H24A 7797   4.679   3.008   7.152 -1.9886 -2.1034  3.6647
   72CHL1  H24B 7798   4.822   2.943   7.243 -3.0128 -2.8930  0.2748
   72CHL1   C25 7799   4.655   3.052   7.349  0.0191  0.4905  0.4620
   72CHL1   H25 7800   4.725   3.077   7.432  0.9436 -0.4407 -0.0021
   72CHL1   C26 7801   4.564   3.170   7.340 -0.5181  0.5682  0.1769
   72CHL1  H26A 7802   4.626   3.259   7.316 -2.2457  2.0262  0.9870
   72CHL1  H26B 7803   4.494   3.166   7.254 -1.0293 -2.0705  0.6171
   72CHL1  H26C 7804   4.512   3.192   7.435  1.6774 -0.5900  1.7559
   72CHL1   C27 7805   4.581   2.918   7.383 -0.2465  0.4947 -0.4838
   72CHL1  H27A 7806   4.639   2.851   7.450  0.2795  0.6609 -0.7781
   72CHL1  H27B 7807   4.482   2.938   7.431 -0.3385  2.2509 -1.3343
   72CHL1  H27C 7808   4.558   2.861   7.291  1.2448 -1.7151  0.4312
   73CHL1    C3 7809   2.607   4.990   5.970  0.7451 -0.0525  1.4453
   73CHL1    H3 7810   2.537   4.912   5.935  0.9144  0.2268  0.4591
   73CHL1    O3 7811   2.648   5.042   5.844 -0.3387 -0.1478 -0.8582
   73CHL1   H3' 7812   2.741   5.024   5.834 -0.7014 -1.9670 -1.4035
   73CHL1    C4 7813   2.530   5.091   6.050 -0.3996  0.7350 -0.7003
   73CHL1   H4A 7814   2.593   5.177   6.080 -1.9526  2.3435 -1.8350
   73CHL1   H4B 7815   2.452   5.139   5.986  0.3791  2.8447 -0.1433
   73CHL1    C5 7816   2.475   5.033   6.180  0.3076  0.1341  0.5989
   73CHL1    C6 7817   2.342   5.043   6.210 -1.0490 -0.6120  0.1361
   73CHL1    H6 7818   2.279   5.095   6.137  0.1767 -2.2201 -2.2328
   73CHL1    C7 7819   2.270   4.980   6.324 -0.3471  0.4899  0.1061
   73CHL1   H7A 7820   2.209   5.057   6.376 -0.7452  0.0334  0.3240
   73CHL1   H7B 7821   2.212   4.894   6.284 -1.1846  0.8586  0.4999
   73CHL1    C8 7822   2.370   4.926   6.434 -0.3011 -0.8349  0.3158
   73CHL1    H8 7823   2.412   5.017   6.481 -0.9378  0.2441 -1.1245
   73CHL1   C14 7824   2.302   4.829   6.536 -0.0713  0.0278 -0.1430
   73CHL1   H14 7825   2.276   4.738   6.478  1.1828 -1.6609  1.8005
   73CHL1   C15 7826   2.167   4.879   6.602 -0.2061 -0.5006 -0.2455
   73CHL1  H15A 7827   2.181   4.983   6.639 -0.7589 -0.4312 -0.2287
   73CHL1  H15B 7828   2.081   4.855   6.537 -1.4637  2.5929  0.0695
   73CHL1   C16 7829   2.166   4.799   6.736  0.3139  0.2154 -0.5456
   73CHL1  H16A 7830   2.171   4.882   6.810 -0.1984 -0.6485  0.4784
   73CHL1  H16B 7831   2.070   4.748   6.759  0.3035  0.6777  0.4789
   73CHL1   C17 7832   2.291   4.697   6.732 -0.7401 -0.2115  0.3351
   73CHL1   H17 7833   2.247   4.614   6.672 -0.8433  1.6271 -2.2731
   73CHL1   C13 7834   2.391   4.770   6.638 -0.7597 -0.0117 -1.5914
   73CHL1   C18 7835   2.464   4.882   6.722  0.0693  0.0766  0.1607
   73CHL1  H18A 7836   2.500   4.950   6.642 -3.4013  0.0190 -1.6579
   73CHL1  H18B 7837   2.400   4.929   6.800 -0.1329 -1.2703  0.8247
   73CHL1  H18C 7838   2.552   4.843   6.777 -0.8637 -2.4724 -0.0168
   73CHL1   C12 7839   2.498   4.689   6.567  0.4158 -0.2723  0.0266
   73CHL1  H12A 7840   2.573   4.662   6.646 -1.5023  3.4438  3.4587
   73CHL1  H12B 7841   2.457   4.592   6.532  0.5619 -0.3296  0.0108
   73CHL1   C11 7842   2.576   4.761   6.457  0.4663 -0.0351 -0.6492
   73CHL1  H11A 7843   2.652   4.820   6.514  0.4416  0.7661 -1.4189
   73CHL1  H11B 7844   2.639   4.696   6.393  0.5611  0.1099 -0.7057
   73CHL1    C9 7845   2.484   4.846   6.361  0.2287  1.3549  0.3821
   73CHL1    H9 7846   2.430   4.767   6.304 -0.0387  1.0589  1.0419
   73CHL1   C10 7847   2.561   4.936   6.255  0.4790  0.0691 -0.2305
   73CHL1   C19 7848   2.657   5.026   6.331 -0.1851  0.7505 -0.7309
   73CHL1  H19A 7849   2.610   5.082   6.414  1.8462 -0.5412  1.4219
   73CHL1  H19B 7850   2.742   4.965   6.369 -0.3581  0.1945 -1.2301
   73CHL1  H19C 7851   2.709   5.098   6.264  1.2683  0.4288 -0.0039
   73CHL1    C1 7852   2.637   4.843   6.160  0.0768 -0.4694 -0.3218
   73CHL1   H1A 7853   2.701   4.781   6.226 -0.8370  0.2258  1.2794
   73CHL1   H1B 7854   2.555   4.783   6.114 -1.3877  2.1430 -1.3508
   73CHL1    C2 7855   2.711   4.921   6.051  0.3406 -0.2289  0.1941
   73CHL1   H2A 7856   2.771   4.852   5.988  1.8937 -0.5897  1.9713
   73CHL1   H2B 7857   2.780   4.994   6.097 -0.8081  0.5448  0.7450
   73CHL1   C20 7858   2.338   4.648   6.873  0.4193 -0.2730 -0.4841
   73CHL1   H20 7859   2.359   4.739   6.933  2.1595 -0.6899 -0.3909
   73CHL1   C21 7860   2.460   4.551   6.864  0.1819 -0.7687 -0.3232
   73CHL1  H21A 7861   2.452   4.465   6.794 -0.5808 -0.1267 -1.0509
   73CHL1  H21B 7862   2.489   4.520   6.966 -1.2249  0.0802  0.3743
   73CHL1  H21C 7863   2.548   4.605   6.822 -0.4151  1.1281  0.7282
   73CHL1   C22 7864   2.226   4.582   6.957 -0.3016 -0.1235  0.7415
   73CHL1  H22A 7865   2.272   4.548   7.052  1.2595 -1.9365 -0.5789
   73CHL1  H22B 7866   2.157   4.665   6.983 -0.1529  0.4322 -0.5301
   73CHL1   C23 7867   2.149   4.467   6.889  0.5263 -0.0592 -0.0824
   73CHL1  H23A 7868   2.120   4.499   6.786  0.1203  1.5037  0.4997
   73CHL1  H23B 7869   2.224   4.385   6.880 -0.4310 -0.7180 -4.0541
   73CHL1   C24 7870   2.031   4.412   6.967 -0.1445 -0.3463  0.2008
   73CHL1  H24A 7871   2.011   4.314   6.919  0.2632 -0.0226 -0.6471
   73CHL1  H24B 7872   2.059   4.388   7.072  0.9731 -0.5305 -0.1272
   73CHL1   C25 7873   1.904   4.498   6.966 -0.2531  0.7376 -0.0839
   73CHL1   H25 7874   1.938   4.604   6.967 -2.0061  1.3370 -0.9220
   73CHL1   C26 7875   1.825   4.480   6.832  0.3743 -0.3318 -0.5042
   73CHL1  H26A 7876   1.797   4.376   6.805  0.6527  0.0187 -2.2619
   73CHL1  H26B 7877   1.733   4.539   6.852 -0.0128 -0.8615 -0.6970
   73CHL1  H26C 7878   1.885   4.532   6.754  0.9852 -0.3810 -0.0755
   73CHL1   C27 7879   1.812   4.458   7.082  0.2056 -0.5486  0.3363
   73CHL1  H27A 7880   1.781   4.351   7.074 -2.0883  0.0950 -0.0457
   73CHL1  H27B 7881   1.862   4.475   7.180  0.7668  1.6302 -0.2824
   73CHL1  H27C 7882   1.717   4.514   7.084 -0.5956 -1.7732 -1.2073
   74CHL1    C3 7883   1.337   4.546   6.103  0.6713 -0.0085 -0.7629
   74CHL1    H3 7884   1.230   4.570   6.121  1.1786  0.7326  1.6999
   74CHL1    O3 7885   1.377   4.586   5.974  0.3489 -0.3824  0.1120
   74CHL1   H3' 7886   1.299   4.585   5.919  0.1241  0.4456  0.4109
   74CHL1    C4 7887   1.419   4.627   6.202  0.4051  0.8912 -0.0784
   74CHL1   H4A 7888   1.526   4.605   6.180  0.0327  0.6522 -1.7765
   74CHL1   H4B 7889   1.402   4.733   6.175 -0.1898  0.7473 -0.2640
   74CHL1    C5 7890   1.386   4.588   6.347 -0.1412 -0.3714 -0.1854
   74CHL1    C6 7891   1.342   4.678   6.430 -0.2242  0.1306  0.3617
   74CHL1    H6 7892   1.332   4.782   6.397 -0.6706  0.0611  0.2700
   74CHL1    C7 7893   1.312   4.649   6.576 -0.0522 -0.2332  1.0616
   74CHL1   H7A 7894   1.369   4.714   6.646  0.4715 -1.4909  1.8403
   74CHL1   H7B 7895   1.205   4.664   6.603 -0.1750  0.1944  0.3779
   74CHL1    C8 7896   1.362   4.508   6.612  0.3688 -0.3793  0.2839
   74CHL1    H8 7897   1.472   4.522   6.622  0.3531 -0.5304  0.7130
   74CHL1   C14 7898   1.306   4.473   6.745 -0.1726  0.6977  0.0261
   74CHL1   H14 7899   1.199   4.456   6.723 -0.0633 -0.3057  0.2287
   74CHL1   C15 7900   1.303   4.569   6.858  0.1319 -0.2876 -0.1645
   74CHL1  H15A 7901   1.404   4.613   6.851 -0.1111  0.1240 -1.0930
   74CHL1  H15B 7902   1.223   4.646   6.857  0.8726  0.5607  1.6472
   74CHL1   C16 7903   1.273   4.485   6.982 -0.1352  0.3216  0.3910
   74CHL1  H16A 7904   1.350   4.493   7.062 -1.9539 -0.4988  2.3013
   74CHL1  H16B 7905   1.173   4.511   7.023  0.4649  0.6917  1.6834
   74CHL1   C17 7906   1.266   4.337   6.932  0.4558  0.3322 -0.7778
   74CHL1   H17 7907   1.164   4.323   6.889 -0.3235 -0.2407  1.1283
   74CHL1   C13 7908   1.344   4.338   6.798 -0.2339  0.7320 -0.5282
   74CHL1   C18 7909   1.496   4.344   6.817 -0.0239 -0.0169  0.5657
   74CHL1  H18A 7910   1.555   4.369   6.727 -0.7087  0.9952  0.3786
   74CHL1  H18B 7911   1.517   4.406   6.907  0.5929 -2.0840  1.9063
   74CHL1  H18C 7912   1.523   4.240   6.847 -0.1831  0.3705  2.1578
   74CHL1   C12 7913   1.313   4.228   6.696 -0.0863 -0.0504  0.0995
   74CHL1  H12A 7914   1.364   4.133   6.724  0.1238  0.2736  0.8586
   74CHL1  H12B 7915   1.203   4.221   6.683  0.0771 -0.4521 -1.1817
   74CHL1   C11 7916   1.366   4.261   6.556  0.4531  0.3795 -0.5469
   74CHL1  H11A 7917   1.475   4.241   6.563  0.3200 -0.9507 -1.7497
   74CHL1  H11B 7918   1.323   4.183   6.490 -0.4319  0.8469 -0.5371
   74CHL1    C9 7919   1.335   4.400   6.509  0.3800  0.0083  0.5672
   74CHL1    H9 7920   1.225   4.396   6.494  0.3880  2.9915 -1.1554
   74CHL1   C10 7921   1.398   4.433   6.368  0.1539 -0.4522  0.2870
   74CHL1   C19 7922   1.548   4.391   6.369  0.4212 -0.5075 -0.0045
   74CHL1  H19A 7923   1.566   4.281   6.363  1.4959 -0.3014 -1.0610
   74CHL1  H19B 7924   1.595   4.439   6.281  1.9122 -0.7219  0.6368
   74CHL1  H19C 7925   1.594   4.426   6.463  1.2170 -0.4889 -0.3940
   74CHL1    C1 7926   1.312   4.358   6.261 -0.1593 -1.1510  0.6150
   74CHL1   H1A 7927   1.319   4.247   6.259  1.3523 -1.0761 -1.2641
   74CHL1   H1B 7928   1.208   4.396   6.274 -0.9673 -2.7544 -0.7799
   74CHL1    C2 7929   1.365   4.397   6.120 -0.1233  0.4495  0.0423
   74CHL1   H2A 7930   1.306   4.347   6.040 -0.7270 -0.8913  1.2908
   74CHL1   H2B 7931   1.473   4.376   6.103 -0.5023 -1.8440  0.1959
   74CHL1   C20 7932   1.291   4.226   7.040  0.0752 -0.5601  0.2110
   74CHL1   H20 7933   1.398   4.230   7.070 -0.0684  1.4646  0.5955
   74CHL1   C21 7934   1.275   4.086   6.978 -0.2619 -1.0098 -0.3155
   74CHL1  H21A 7935   1.285   4.001   7.049  1.3823  0.7345  1.6291
   74CHL1  H21B 7936   1.362   4.064   6.913  0.3532 -2.3412  0.9061
   74CHL1  H21C 7937   1.177   4.083   6.925 -1.9752  1.4200  2.4127
   74CHL1   C22 7938   1.205   4.255   7.167  0.2577  0.4914 -0.5185
   74CHL1  H22A 7939   1.202   4.365   7.182 -0.2744  0.4119  0.0056
   74CHL1  H22B 7940   1.099   4.230   7.145 -0.2561  1.7855  0.3682
   74CHL1   C23 7941   1.261   4.202   7.294 -0.9946 -0.3184 -0.3797
   74CHL1  H23A 7942   1.281   4.095   7.272 -0.2651 -0.3661  0.4687
   74CHL1  H23B 7943   1.357   4.252   7.318 -1.0226 -0.5271  0.1696
   74CHL1   C24 7944   1.172   4.219   7.414  0.4202 -0.2201  0.5090
   74CHL1  H24A 7945   1.146   4.327   7.419 -0.9487 -0.5469  0.9628
   74CHL1  H24B 7946   1.082   4.160   7.384  1.5429 -1.3495 -0.7522
   74CHL1   C25 7947   1.237   4.175   7.538  0.2201 -0.5958 -1.0353
   74CHL1   H25 7948   1.301   4.086   7.525  4.1192  1.8716 -0.4416
   74CHL1   C26 7949   1.328   4.287   7.598  0.9789 -0.4991  0.4430
   74CHL1  H26A 7950   1.411   4.315   7.530 -0.4725 -1.0281 -1.6873
   74CHL1  H26B 7951   1.261   4.374   7.616 -1.6255 -2.1632 -0.5132
   74CHL1  H26C 7952   1.356   4.247   7.697  2.0271 -0.9418 -0.0169
   74CHL1   C27 7953   1.135   4.127   7.641 -0.3381  0.7177 -0.1205
   74CHL1  H27A 7954   1.081   4.039   7.599  2.6684 -1.5321  0.4625
   74CHL1  H27B 7955   1.177   4.081   7.733 -1.2932 -1.1734 -0.5846
   74CHL1  H27C 7956   1.064   4.208   7.670 -0.3068  0.4452  0.7558
   75CHL1    C3 7957   5.164   5.137   6.077 -0.1311 -0.8179  0.1358
   75CHL1    H3 7958   5.193   5.244   6.074 -0.7076 -0.6154  1.3035
   75CHL1    O3 7959   5.194   5.069   5.960  0.4315 -0.3478  0.2865
   75CHL1   H3' 7960   5.172   4.978   5.981  0.1253 -1.0445 -2.6147
   75CHL1    C4 7961   5.236   5.076   6.200 -0.4906 -0.4880 -0.8302
   75CHL1   H4A 7962   5.219   4.968   6.218  3.7004 -1.2609 -0.5751
   75CHL1   H4B 7963   5.347   5.075   6.190 -0.3966 -0.0130  0.0551
   75CHL1    C5 7964   5.195   5.159   6.323 -0.1094  0.6049 -0.2279
   75CHL1    C6 7965   5.287   5.216   6.403 -0.6012  0.1490 -0.0425
   75CHL1    H6 7966   5.391   5.194   6.374 -1.3440 -1.9171 -1.3357
   75CHL1    C7 7967   5.252   5.281   6.535  0.6133 -0.3589  0.1643
   75CHL1   H7A 7968   5.323   5.247   6.612  0.6038 -1.0577 -0.1277
   75CHL1   H7B 7969   5.258   5.391   6.522 -2.0950 -0.1982 -0.4806
   75CHL1    C8 7970   5.110   5.244   6.584 -0.4813  0.4491  0.1136
   75CHL1    H8 7971   5.122   5.138   6.616 -2.7402  0.5160  1.4062
   75CHL1   C14 7972   5.072   5.341   6.692  0.3518  0.4101 -0.2210
   75CHL1   H14 7973   5.068   5.441   6.644  2.0031  0.1157 -1.0682
   75CHL1   C15 7974   5.163   5.353   6.816  0.0668  0.1293 -0.0878
   75CHL1  H15A 7975   5.193   5.253   6.854 -0.7825  0.3685  1.2929
   75CHL1  H15B 7976   5.252   5.418   6.799 -0.1514  1.0827  2.0819
   75CHL1   C16 7977   5.077   5.426   6.918 -0.1220  0.3168  0.9693
   75CHL1  H16A 7978   5.108   5.380   7.014 -1.9305 -0.4851  1.2190
   75CHL1  H16B 7979   5.103   5.534   6.911  1.0543 -0.0467 -1.0587
   75CHL1   C17 7980   4.933   5.406   6.868  0.2281  0.2338 -0.2844
   75CHL1   H17 7981   4.913   5.502   6.816  2.5168 -0.0099 -1.7723
   75CHL1   C13 7982   4.939   5.302   6.755  0.3850  0.0850  0.7834
   75CHL1   C18 7983   4.933   5.160   6.811 -0.0257 -0.0311 -0.3875
   75CHL1  H18A 7984   4.993   5.150   6.903 -0.7837 -0.4567  0.0693
   75CHL1  H18B 7985   4.831   5.125   6.839  0.3457 -0.6505  0.2043
   75CHL1  H18C 7986   4.962   5.082   6.737 -1.9882 -1.3188  0.1114
   75CHL1   C12 7987   4.830   5.321   6.641 -0.1960  0.4938 -0.3012
   75CHL1  H12A 7988   4.731   5.288   6.679 -0.1136  1.6131  0.9558
   75CHL1  H12B 7989   4.809   5.428   6.621 -2.1047  0.0017 -1.2194
   75CHL1   C11 7990   4.866   5.238   6.515  0.9492 -0.3912 -0.1057
   75CHL1  H11A 7991   4.869   5.135   6.555  1.1776 -0.5901 -0.6336
   75CHL1  H11B 7992   4.787   5.257   6.439  0.9204  2.8793  0.5816
   75CHL1    C9 7993   5.010   5.259   6.470  0.5052  0.4652 -0.4802
   75CHL1    H9 7994   5.019   5.364   6.433  1.6858  0.5081 -0.1174
   75CHL1   C10 7995   5.045   5.159   6.351 -0.0343 -0.4641  0.5802
   75CHL1   C19 7996   4.999   5.018   6.393 -0.4579  0.0467 -0.1598
   75CHL1  H19A 7997   5.036   4.994   6.495  0.8956  1.4376 -0.2772
   75CHL1  H19B 7998   4.888   5.010   6.394 -0.4902  0.4940  0.6892
   75CHL1  H19C 7999   5.027   4.938   6.320  1.0867  0.5437 -0.1478
   75CHL1    C1 8000   4.974   5.218   6.224  0.5096  0.5077  0.1214
   75CHL1   H1A 8001   4.866   5.220   6.251 -0.2277  1.5298 -2.5444
   75CHL1   H1B 8002   5.001   5.324   6.203  2.0918 -0.4099 -3.1088
   75CHL1    C2 8003   5.010   5.137   6.099 -0.2635 -0.3513 -0.1708
   75CHL1   H2A 8004   4.957   5.172   6.008 -2.7402 -1.4588  0.7820
   75CHL1   H2B 8005   4.975   5.032   6.105  0.9157 -0.9282 -2.0921
   75CHL1   C20 8006   4.824   5.381   6.976 -0.4773 -0.6172 -0.3545
   75CHL1   H20 8007   4.741   5.329   6.924  0.0690 -1.3254 -0.5207
   75CHL1   C21 8008   4.778   5.530   7.005  0.0579 -0.0328 -0.8038
   75CHL1  H21A 8009   4.861   5.586   7.053  1.0500 -1.6921 -0.5254
   75CHL1  H21B 8010   4.695   5.530   7.079  0.2929 -3.3039 -0.4035
   75CHL1  H21C 8011   4.755   5.580   6.908  0.2007 -0.0461 -0.8443
   75CHL1   C22 8012   4.867   5.306   7.099 -0.4499 -0.7877  0.3465
   75CHL1  H22A 8013   4.890   5.200   7.074 -4.5552 -1.1563 -2.8600
   75CHL1  H22B 8014   4.962   5.344   7.143 -0.2280 -1.6519  0.6283
   75CHL1   C23 8015   4.761   5.305   7.203  0.0859  0.9473  0.0290
   75CHL1  H23A 8016   4.764   5.391   7.273  0.6136  1.5797 -0.7520
   75CHL1  H23B 8017   4.659   5.308   7.157  0.0964  1.2347  0.0265
   75CHL1   C24 8018   4.767   5.173   7.283 -0.5379  0.2600 -0.4331
   75CHL1  H24A 8019   4.751   5.090   7.210 -1.2106 -0.4143  0.4569
   75CHL1  H24B 8020   4.863   5.156   7.336 -1.7849  1.2918  2.3202
   75CHL1   C25 8021   4.662   5.165   7.396 -0.6442 -0.4399 -0.6149
   75CHL1   H25 8022   4.564   5.161   7.344 -1.8917 -1.7038  1.6274
   75CHL1   C26 8023   4.679   5.029   7.464 -0.4186  0.0687 -0.5068
   75CHL1  H26A 8024   4.592   4.995   7.525 -0.5468  0.8504 -0.2489
   75CHL1  H26B 8025   4.699   4.953   7.385 -2.7286 -2.1836  0.8943
   75CHL1  H26C 8026   4.767   5.027   7.532 -0.9481 -4.5078  0.3739
   75CHL1   C27 8027   4.675   5.272   7.508  0.0324  0.6676 -0.6081
   75CHL1  H27A 8028   4.777   5.282   7.549 -0.0208  0.2250 -0.3591
   75CHL1  H27B 8029   4.641   5.368   7.463 -1.3773 -0.1199 -1.3188
   75CHL1  H27C 8030   4.601   5.252   7.589 -1.9047  1.3727 -2.1108
   76CHL1    C3 8031   2.858   1.342   6.008  0.4013 -0.2731 -0.3428
   76CHL1    H3 8032   2.889   1.236   6.001  0.2103 -0.2668 -1.3595
   76CHL1    O3 8033   2.838   1.387   5.877  0.0297  0.6057  0.5268
   76CHL1   H3' 8034   2.927   1.391   5.843  0.3029  2.0816  1.3383
   76CHL1    C4 8035   2.728   1.359   6.090 -0.0424 -0.0009 -0.0687
   76CHL1   H4A 8036   2.695   1.465   6.086  1.6954  0.6126  0.8111
   76CHL1   H4B 8037   2.652   1.287   6.053 -0.5276 -0.3686  1.5542
   76CHL1    C5 8038   2.739   1.323   6.238  0.0093  0.7359  0.5037
   76CHL1    C6 8039   2.657   1.231   6.291  0.0819  0.0932  1.2366
   76CHL1    H6 8040   2.591   1.179   6.220  0.0404  2.1725 -0.3214
   76CHL1    C7 8041   2.650   1.193   6.433 -0.4294  0.0627 -0.1726
   76CHL1   H7A 8042   2.551   1.193   6.483  0.4563  1.4745  1.7362
   76CHL1   H7B 8043   2.679   1.086   6.437  0.7695  0.4023  1.0541
   76CHL1    C8 8044   2.751   1.279   6.519  0.7834  0.1213  0.6611
   76CHL1    H8 8045   2.701   1.374   6.545 -2.4807 -0.9850 -1.0340
   76CHL1   C14 8046   2.795   1.205   6.640 -0.4900  0.2555 -1.0823
   76CHL1   H14 8047   2.853   1.118   6.603 -0.3371  0.7671 -2.0771
   76CHL1   C15 8048   2.681   1.147   6.726 -0.4154 -0.4820 -0.4649
   76CHL1  H15A 8049   2.603   1.225   6.741 -0.0631 -0.5761  2.4154
   76CHL1  H15B 8050   2.632   1.056   6.687 -0.2764 -0.5483 -0.4851
   76CHL1   C16 8051   2.750   1.101   6.862  0.2031  0.1784  0.3978
   76CHL1  H16A 8052   2.694   1.135   6.952 -1.0177 -0.6948  0.0084
   76CHL1  H16B 8053   2.764   0.991   6.858  0.8853  0.2904 -0.6480
   76CHL1   C17 8054   2.889   1.175   6.861 -0.6189 -0.9549 -0.4525
   76CHL1   H17 8055   2.959   1.101   6.815 -1.4760 -1.3060 -1.2156
   76CHL1   C13 8056   2.885   1.277   6.743 -0.5750  0.3964 -0.4390
   76CHL1   C18 8057   2.807   1.402   6.795 -0.2216 -0.7091 -0.1742
   76CHL1  H18A 8058   2.873   1.458   6.865  0.5310 -1.6002 -0.1536
   76CHL1  H18B 8059   2.779   1.467   6.710 -0.5809  0.8838  1.0956
   76CHL1  H18C 8060   2.719   1.380   6.859 -0.3612  1.4554  0.4590
   76CHL1   C12 8061   3.014   1.311   6.663 -0.3681 -0.3067 -0.0063
   76CHL1  H12A 8062   3.096   1.359   6.721 -0.6749  1.8809 -1.2595
   76CHL1  H12B 8063   3.060   1.215   6.631 -0.7677 -1.0749  1.5816
   76CHL1   C11 8064   2.973   1.400   6.546 -0.0162  0.3322 -0.2416
   76CHL1  H11A 8065   2.910   1.485   6.582  1.9929  1.1355  1.5822
   76CHL1  H11B 8066   3.065   1.437   6.496  1.5792 -2.4586  0.3847
   76CHL1    C9 8067   2.883   1.323   6.443  0.3035  0.4362  0.4696
   76CHL1    H9 8068   2.932   1.226   6.418 -0.3834  0.1979  0.0275
   76CHL1   C10 8069   2.849   1.388   6.312 -0.3697  0.3864 -0.1362
   76CHL1   C19 8070   2.819   1.541   6.339  0.3207 -0.7068 -0.0687
   76CHL1  H19A 8071   2.783   1.586   6.244 -0.9703  0.5702  0.9851
   76CHL1  H19B 8072   2.751   1.543   6.427  2.2571 -1.2310  1.5204
   76CHL1  H19C 8073   2.912   1.593   6.372  1.6657 -1.8747 -1.8036
   76CHL1    C1 8074   2.984   1.378   6.227  0.2191  0.0840 -0.6094
   76CHL1   H1A 8075   3.064   1.437   6.277 -0.2526  0.2662 -0.0556
   76CHL1   H1B 8076   3.026   1.275   6.231 -1.3685 -0.5551  1.8210
   76CHL1    C2 8077   2.970   1.424   6.078  0.2363  0.6124 -0.4566
   76CHL1   H2A 8078   3.066   1.401   6.027  0.6037 -2.5612  1.3808
   76CHL1   H2B 8079   2.950   1.533   6.081 -0.0220  0.5464  0.4015
   76CHL1   C20 8080   2.935   1.217   7.001 -0.2182 -0.5471 -0.4870
   76CHL1   H20 8081   2.870   1.296   7.045  1.1113 -0.3337  1.1818
   76CHL1   C21 8082   3.078   1.291   6.999 -0.5765  0.1385 -0.2450
   76CHL1  H21A 8083   3.114   1.315   7.101  1.8401 -1.8468 -0.5337
   76CHL1  H21B 8084   3.072   1.390   6.949  3.2934  1.2428  1.1266
   76CHL1  H21C 8085   3.155   1.228   6.951  0.0106  0.7461 -0.1105
   76CHL1   C22 8086   2.942   1.102   7.099 -0.3868  0.2700  1.0807
   76CHL1  H22A 8087   2.847   1.045   7.091  0.1665 -0.7343  1.4505
   76CHL1  H22B 8088   3.019   1.024   7.080 -0.7267  0.5364 -1.7453
   76CHL1   C23 8089   2.966   1.146   7.247  0.1246 -0.5215 -0.1300
   76CHL1  H23A 8090   3.073   1.174   7.256  0.2223 -0.7356 -0.5919
   76CHL1  H23B 8091   2.905   1.237   7.268  0.0237  0.0014 -2.3646
   76CHL1   C24 8092   2.923   1.033   7.336 -0.1473 -0.0807 -0.3600
   76CHL1  H24A 8093   2.813   1.028   7.341 -0.1823  1.1915  0.5707
   76CHL1  H24B 8094   2.950   0.930   7.303 -1.6524 -0.3396 -0.8398
   76CHL1   C25 8095   2.977   1.043   7.481 -0.3048 -0.0407 -0.0442
   76CHL1   H25 8096   2.918   1.122   7.533  2.0002  1.2900  0.7147
   76CHL1   C26 8097   2.962   0.908   7.561 -0.5706  0.4589  0.3450
   76CHL1  H26A 8098   2.990   0.919   7.667 -2.3979 -1.2562  1.0583
   76CHL1  H26B 8099   2.861   0.872   7.535  0.0769  0.2498 -2.1536
   76CHL1  H26C 8100   3.034   0.842   7.507 -2.7179 -2.2400  0.5916
   76CHL1   C27 8101   3.122   1.093   7.497  0.0586 -0.2190  0.0554
   76CHL1  H27A 8102   3.185   1.030   7.430 -1.4736 -0.9579 -0.7723
   76CHL1  H27B 8103   3.121   1.200   7.467 -0.7391 -0.1710  0.2174
   76CHL1  H27C 8104   3.154   1.081   7.602  2.0804  1.4218 -0.3267
   77CHL1    C3 8105   1.417   5.657   5.800 -0.2579 -0.2949 -0.1408
   77CHL1    H3 8106   1.519   5.650   5.758  1.8008  1.9974  3.8694
   77CHL1    O3 8107   1.325   5.687   5.700 -0.0470  0.6358  0.1679
   77CHL1   H3' 8108   1.328   5.782   5.686 -3.1727  0.8514  0.2257
   77CHL1    C4 8109   1.373   5.527   5.878 -0.3720 -0.1071 -0.6926
   77CHL1   H4A 8110   1.275   5.544   5.927  0.7342  2.2174  0.9195
   77CHL1   H4B 8111   1.354   5.445   5.806 -0.4982 -0.9728  0.3073
   77CHL1    C5 8112   1.478   5.490   5.981  0.1141 -0.3762 -0.1936
   77CHL1    C6 8113   1.553   5.378   5.969 -0.0001 -0.4715 -0.7153
   77CHL1    H6 8114   1.535   5.312   5.883  2.2811 -2.3669  0.1379
   77CHL1    C7 8115   1.647   5.340   6.072  0.0044  0.5274 -0.5415
   77CHL1   H7A 8116   1.638   5.234   6.105  0.6607  0.3321 -0.9737
   77CHL1   H7B 8117   1.745   5.369   6.028 -0.2168 -0.7955 -1.9563
   77CHL1    C8 8118   1.643   5.421   6.206  0.4917  0.1153 -0.0698
   77CHL1    H8 8119   1.563   5.375   6.268  2.1274  0.8055  2.7472
   77CHL1   C14 8120   1.772   5.409   6.281  0.3854  0.7172 -0.2664
   77CHL1   H14 8121   1.850   5.456   6.217 -0.4226 -0.6356 -2.3558
   77CHL1   C15 8122   1.837   5.269   6.303 -0.4000  0.1427 -0.0784
   77CHL1  H15A 8123   1.761   5.198   6.343  1.9332 -2.3645  0.1828
   77CHL1  H15B 8124   1.889   5.225   6.215  0.7335 -2.0275  1.5718
   77CHL1   C16 8125   1.948   5.300   6.402  0.2036  0.1654  0.1837
   77CHL1  H16A 8126   1.942   5.228   6.486 -1.6144  1.8597  1.6012
   77CHL1  H16B 8127   2.051   5.298   6.360 -0.1885  1.3653 -0.9120
   77CHL1   C17 8128   1.917   5.446   6.451 -0.6168  0.0601 -0.3568
   77CHL1   H17 8129   1.977   5.512   6.385  0.1164 -0.1990  0.0379
   77CHL1   C13 8130   1.776   5.485   6.416  0.6167 -0.2445  0.8944
   77CHL1   C18 8131   1.667   5.417   6.508 -0.0398 -0.0466  0.3730
   77CHL1  H18A 8132   1.672   5.457   6.612 -0.3083 -0.8336  0.6937
   77CHL1  H18B 8133   1.570   5.457   6.471 -1.3232 -1.7057  1.7659
   77CHL1  H18C 8134   1.670   5.307   6.515  1.3356 -0.0113  0.4719
   77CHL1   C12 8135   1.744   5.638   6.388 -0.0081 -0.1532  0.0307
   77CHL1  H12A 8136   1.721   5.687   6.485 -1.4932 -0.2921 -0.2287
   77CHL1  H12B 8137   1.830   5.683   6.334 -0.9461  1.8145  0.0878
   77CHL1   C11 8138   1.623   5.662   6.297 -0.4937 -0.2686 -0.1596
   77CHL1  H11A 8139   1.535   5.645   6.364 -1.1608 -0.1212 -0.9807
   77CHL1  H11B 8140   1.628   5.766   6.258  1.2897 -0.4949 -0.5848
   77CHL1    C9 8141   1.619   5.571   6.171 -0.2478 -0.7347 -0.7360
   77CHL1    H9 8142   1.713   5.591   6.115  0.8394 -0.4085  1.1351
   77CHL1   C10 8143   1.494   5.598   6.085  0.1094  0.1034 -0.5739
   77CHL1   C19 8144   1.367   5.589   6.173 -0.5207 -0.5332 -0.8699
   77CHL1  H19A 8145   1.275   5.590   6.112 -2.3094  0.9052  1.6509
   77CHL1  H19B 8146   1.356   5.503   6.243 -2.3113  0.9823  0.8434
   77CHL1  H19C 8147   1.350   5.677   6.239 -2.5540  0.0248 -2.0439
   77CHL1    C1 8148   1.517   5.731   6.018 -1.0053 -0.7725  0.2050
   77CHL1   H1A 8149   1.498   5.822   6.078  0.5781  0.7727 -1.4938
   77CHL1   H1B 8150   1.621   5.741   5.980 -0.9071 -0.4672  0.5501
   77CHL1    C2 8151   1.422   5.775   5.901 -0.4340  0.1404 -0.3986
   77CHL1   H2A 8152   1.464   5.867   5.856 -0.7921 -0.2215 -1.5200
   77CHL1   H2B 8153   1.327   5.801   5.952 -0.3496 -0.8877  0.3098
   77CHL1   C20 8154   1.957   5.482   6.596  0.0903 -0.3792  0.7768
   77CHL1   H20 8155   1.870   5.459   6.662  0.3684  1.2621  1.7638
   77CHL1   C21 8156   1.980   5.632   6.619  0.9066 -0.2584  0.7220
   77CHL1  H21A 8157   1.892   5.695   6.596  0.8870 -0.9425 -1.2985
   77CHL1  H21B 8158   2.061   5.656   6.546 -0.1274 -0.0057 -0.3753
   77CHL1  H21C 8159   2.018   5.661   6.719  0.4796 -2.2233  1.5080
   77CHL1   C22 8160   2.079   5.415   6.660 -0.0460  0.1815 -0.0448
   77CHL1  H22A 8161   2.093   5.458   6.762  0.3092  0.4809 -0.2181
   77CHL1  H22B 8162   2.071   5.306   6.679  1.1188  0.1709  0.4438
   77CHL1   C23 8163   2.214   5.425   6.594 -1.0525 -0.4425 -0.1235
   77CHL1  H23A 8164   2.200   5.400   6.487  0.6536 -0.2464 -0.4189
   77CHL1  H23B 8165   2.249   5.530   6.592 -1.6733 -0.1281  2.2826
   77CHL1   C24 8166   2.326   5.342   6.674  0.3527 -0.1664  0.2117
   77CHL1  H24A 8167   2.315   5.371   6.781 -0.6742  1.4118 -0.2797
   77CHL1  H24B 8168   2.302   5.235   6.662  2.2430 -0.6079 -0.0204
   77CHL1   C25 8169   2.461   5.365   6.616 -0.7438  0.0869  0.0084
   77CHL1   H25 8170   2.483   5.473   6.626 -1.2341  0.0838  1.2588
   77CHL1   C26 8171   2.565   5.278   6.697 -0.5811  0.9949 -0.1034
   77CHL1  H26A 8172   2.564   5.295   6.806  1.6547  0.7599 -0.0024
   77CHL1  H26B 8173   2.534   5.172   6.681  0.9488  0.1135  2.3436
   77CHL1  H26C 8174   2.672   5.290   6.671 -0.2088 -0.1237  0.8395
   77CHL1   C27 8175   2.476   5.321   6.469  0.0380 -0.4932  0.2531
   77CHL1  H27A 8176   2.423   5.225   6.450  0.6554 -0.9104  0.6015
   77CHL1  H27B 8177   2.426   5.396   6.404  2.0055  2.0336  1.4955
   77CHL1  H27C 8178   2.580   5.311   6.433  1.0723 -1.7911  3.2191
   78CHL1    C3 8179   4.899   1.284   5.893 -0.2146  0.4400 -0.5826
   78CHL1    H3 8180   5.005   1.265   5.866  0.1687  1.6157  0.0039
   78CHL1    O3 8181   4.844   1.335   5.778  0.1935 -0.7838 -0.2430
   78CHL1   H3' 8182   4.750   1.321   5.792 -0.0326 -1.4590 -2.1837
   78CHL1    C4 8183   4.825   1.154   5.932 -0.3770 -0.4449  0.0928
   78CHL1   H4A 8184   4.717   1.178   5.941  0.1629  1.6730  1.6531
   78CHL1   H4B 8185   4.827   1.079   5.850 -3.2470 -0.8298  0.2737
   78CHL1    C5 8186   4.853   1.088   6.070  0.1020  0.1256 -0.2672
   78CHL1    C6 8187   4.881   0.962   6.090  0.4581  0.3162 -0.0386
   78CHL1    H6 8188   4.873   0.896   6.003 -2.3365  1.4477 -0.7548
   78CHL1    C7 8189   4.918   0.901   6.226  0.8075  0.2475  0.2724
   78CHL1   H7A 8190   4.871   0.802   6.248  2.2636 -0.4057  0.5411
   78CHL1   H7B 8191   5.028   0.886   6.219  0.8431 -0.6069  2.2227
   78CHL1    C8 8192   4.879   0.994   6.347 -0.4608  0.0491 -0.4611
   78CHL1    H8 8193   4.769   0.987   6.363 -0.1598 -0.7246  1.6461
   78CHL1   C14 8194   4.953   0.938   6.469  0.9074 -0.0585 -0.3784
   78CHL1   H14 8195   5.063   0.951   6.458  1.0354 -0.5419  0.3012
   78CHL1   C15 8196   4.934   0.786   6.510  0.5598 -0.3734 -0.0162
   78CHL1  H15A 8197   4.827   0.754   6.512 -0.2332  1.9087 -1.6579
   78CHL1  H15B 8198   4.995   0.721   6.443  2.7481  0.9974  0.5605
   78CHL1   C16 8199   4.998   0.783   6.646  0.4289 -0.1653  0.2665
   78CHL1  H16A 8200   4.929   0.735   6.719 -0.6810  0.3651 -0.3947
   78CHL1  H16B 8201   5.098   0.737   6.657  0.5324 -0.3537 -1.2186
   78CHL1   C17 8202   5.016   0.932   6.695  0.6165  0.3096  0.2527
   78CHL1   H17 8203   5.123   0.958   6.676  0.5299  0.7663  0.3576
   78CHL1   C13 8204   4.928   1.015   6.597 -0.0337  0.2591 -0.0496
   78CHL1   C18 8205   4.773   1.002   6.625  0.3559 -0.5898 -0.4039
   78CHL1  H18A 8206   4.750   1.080   6.701  1.8149 -1.0993  0.5986
   78CHL1  H18B 8207   4.705   1.027   6.540 -2.1088 -1.7640  1.0867
   78CHL1  H18C 8208   4.734   0.902   6.653 -1.1782 -0.2276 -1.1257
   78CHL1   C12 8209   4.973   1.159   6.567 -0.6211  0.2016  0.4992
   78CHL1  H12A 8210   4.973   1.235   6.648  1.3715 -1.6632  2.3463
   78CHL1  H12B 8211   5.081   1.171   6.545 -0.8111  1.4154  0.1373
   78CHL1   C11 8212   4.895   1.219   6.442 -0.3417 -0.3811  0.1573
   78CHL1  H11A 8213   4.785   1.213   6.456 -0.6520 -1.1531 -2.1751
   78CHL1  H11B 8214   4.924   1.325   6.425 -0.8430  0.0065  1.5879
   78CHL1    C9 8215   4.923   1.131   6.318  0.0011 -0.6615 -0.9728
   78CHL1    H9 8216   5.033   1.120   6.305 -0.0249 -1.5381 -0.5331
   78CHL1   C10 8217   4.861   1.187   6.188  0.1025  0.6667  0.3438
   78CHL1   C19 8218   4.709   1.224   6.215 -0.4851  0.2452 -0.1062
   78CHL1  H19A 8219   4.651   1.133   6.243  0.6753 -0.6032 -0.3714
   78CHL1  H19B 8220   4.700   1.292   6.303  3.4912  1.6135 -0.5317
   78CHL1  H19C 8221   4.662   1.285   6.136  1.1914  2.2869  0.3783
   78CHL1    C1 8222   4.940   1.318   6.144  0.5613 -0.6047 -0.2771
   78CHL1   H1A 8223   4.917   1.399   6.217 -2.7273  0.1355 -1.9507
   78CHL1   H1B 8224   5.047   1.296   6.163  0.4040 -1.0114  0.1556
   78CHL1    C2 8225   4.902   1.383   6.014  0.0011 -0.4266 -0.2362
   78CHL1   H2A 8226   4.969   1.470   5.998  0.4439 -0.2780  2.0367
   78CHL1   H2B 8227   4.794   1.407   6.016 -0.0453 -0.6253 -0.3718
   78CHL1   C20 8228   4.991   0.962   6.848  0.4627  0.5862  0.2744
   78CHL1   H20 8229   4.889   1.005   6.863  0.7934  1.4715  0.0179
   78CHL1   C21 8230   5.088   1.077   6.887  0.4895 -0.0010  0.1929
   78CHL1  H21A 8231   5.190   1.035   6.898  0.9564  1.4063  1.7143
   78CHL1  H21B 8232   5.065   1.130   6.982 -3.0506 -0.4746 -0.2781
   78CHL1  H21C 8233   5.075   1.154   6.808  1.0679  0.4290  0.5055
   78CHL1   C22 8234   5.006   0.849   6.949 -0.4299  0.5845 -0.5514
   78CHL1  H22A 8235   4.945   0.760   6.924 -0.0446  0.2499 -0.3069
   78CHL1  H22B 8236   5.110   0.815   6.966  0.3071  2.9289 -0.0164
   78CHL1   C23 8237   4.964   0.895   7.102 -0.3378  0.2515  0.7113
   78CHL1  H23A 8238   5.043   0.962   7.143  0.8446 -0.4770 -0.2988
   78CHL1  H23B 8239   4.877   0.960   7.081  1.9140  2.9996 -0.9644
   78CHL1   C24 8240   4.937   0.775   7.197  0.0066  0.2607 -0.2736
   78CHL1  H24A 8241   4.903   0.698   7.125  0.0531  1.5886 -1.7608
   78CHL1  H24B 8242   5.030   0.734   7.242  0.0607  1.0004  0.3273
   78CHL1   C25 8243   4.831   0.782   7.307  0.0008 -0.9524  0.2164
   78CHL1   H25 8244   4.738   0.828   7.268  0.2877  1.0922  1.7460
   78CHL1   C26 8245   4.788   0.643   7.347  0.6874  0.0732 -0.2554
   78CHL1  H26A 8246   4.715   0.654   7.430  1.8872  0.7165  0.7587
   78CHL1  H26B 8247   4.731   0.594   7.265 -0.5754  0.6157  0.2707
   78CHL1  H26C 8248   4.875   0.583   7.379  2.4117  2.5514  0.0478
   78CHL1   C27 8249   4.880   0.863   7.430  0.4825 -0.0529  0.4203
   78CHL1  H27A 8250   4.804   0.858   7.511  1.1381  0.5942  1.0857
   78CHL1  H27B 8251   4.971   0.814   7.471  0.8992 -0.0743 -0.5163
   78CHL1  H27C 8252   4.905   0.968   7.405 -0.5606 -0.2402 -1.6295
   79CHL1    C3 8253   3.811   6.130   6.048 -0.1374 -0.3209  0.0538
   79CHL1    H3 8254   3.700   6.126   6.050 -0.3119  1.7030 -1.6323
   79CHL1    O3 8255   3.846   6.097   5.915 -0.4317  0.0305  0.0080
   79CHL1   H3' 8256   3.837   6.177   5.862 -0.8682  1.8690  2.6814
   79CHL1    C4 8257   3.856   6.273   6.081 -0.1709  0.6507 -0.3538
   79CHL1   H4A 8258   3.964   6.275   6.054  0.2593 -1.3944  0.9701
   79CHL1   H4B 8259   3.802   6.340   6.011  1.5436  1.2560 -1.1815
   79CHL1    C5 8260   3.830   6.306   6.229  0.0429  0.0162 -1.0269
   79CHL1    C6 8261   3.759   6.414   6.262 -0.0692  0.2463  0.2283
   79CHL1    H6 8262   3.708   6.467   6.181  0.4934 -0.9399 -0.9355
   79CHL1    C7 8263   3.753   6.471   6.406 -0.2655 -0.0667 -0.2920
   79CHL1   H7A 8264   3.788   6.576   6.415  3.3533 -1.0913 -0.8369
   79CHL1   H7B 8265   3.648   6.455   6.440 -1.0650  0.2886 -2.4414
   79CHL1    C8 8266   3.847   6.392   6.502 -0.0460  1.0447  0.1798
   79CHL1    H8 8267   3.949   6.429   6.477  0.8239 -1.1462  0.2573
   79CHL1   C14 8268   3.828   6.422   6.649  0.0898 -0.0334  0.5465
   79CHL1   H14 8269   3.720   6.401   6.664 -0.5634  2.7016  0.1171
   79CHL1   C15 8270   3.841   6.565   6.690  0.2366 -0.8628  0.0761
   79CHL1  H15A 8271   3.933   6.610   6.647  0.0713 -0.7051 -0.1119
   79CHL1  H15B 8272   3.754   6.625   6.656  0.1734 -0.3475  1.1006
   79CHL1   C16 8273   3.838   6.564   6.842  0.4216  0.1931  0.2833
   79CHL1  H16A 8274   3.922   6.627   6.878  1.2721  0.1619 -1.5387
   79CHL1  H16B 8275   3.736   6.575   6.885  0.5189 -1.5335  1.0308
   79CHL1   C17 8276   3.857   6.411   6.881  0.2749  0.3139 -0.5351
   79CHL1   H17 8277   3.757   6.370   6.907  1.1892 -2.7762 -1.4690
   79CHL1   C13 8278   3.909   6.344   6.752  0.1457  0.6048  0.3081
   79CHL1   C18 8279   4.062   6.366   6.742 -0.8048 -0.1141  0.1732
   79CHL1  H18A 8280   4.084   6.473   6.765  0.4759 -0.4095  0.3711
   79CHL1  H18B 8281   4.127   6.302   6.805  1.5208  1.3640 -0.6114
   79CHL1  H18C 8282   4.089   6.348   6.636 -0.5063  0.0074  0.2265
   79CHL1   C12 8283   3.880   6.194   6.725  0.2934  0.2584  0.0141
   79CHL1  H12A 8284   3.941   6.135   6.797  1.0183  1.7327  0.6480
   79CHL1  H12B 8285   3.773   6.176   6.751  0.0118  1.0214 -0.5909
   79CHL1   C11 8286   3.918   6.154   6.585 -0.0324 -0.0235 -0.4103
   79CHL1  H11A 8287   4.027   6.149   6.567 -0.1674  2.7370 -2.7309
   79CHL1  H11B 8288   3.887   6.050   6.565  2.6794 -1.5703  2.4839
   79CHL1    C9 8289   3.858   6.241   6.473 -0.1615 -0.4187  0.3342
   79CHL1    H9 8290   3.752   6.210   6.473 -0.2487 -0.1253  0.4502
   79CHL1   C10 8291   3.901   6.208   6.325  0.9025 -0.3214 -0.1469
   79CHL1   C19 8292   4.054   6.226   6.320 -0.3350 -0.0168  0.4299
   79CHL1  H19A 8293   4.103   6.167   6.400 -2.1558 -0.9251  0.9326
   79CHL1  H19B 8294   4.091   6.187   6.223 -0.4591  0.3537  0.2291
   79CHL1  H19C 8295   4.095   6.329   6.326 -0.0310 -0.1614  0.8901
   79CHL1    C1 8296   3.859   6.062   6.290 -0.4055  0.0533  0.5151
   79CHL1   H1A 8297   3.926   5.995   6.349  2.1003 -0.3597 -2.5275
   79CHL1   H1B 8298   3.752   6.041   6.311 -0.8896 -0.0047 -1.7406
   79CHL1    C2 8299   3.872   6.025   6.140 -0.2528 -0.3697  0.0980
   79CHL1   H2A 8300   3.811   5.933   6.131 -2.0185  0.7327  0.4672
   79CHL1   H2B 8301   3.981   6.018   6.117 -0.5962 -0.1066 -1.7756
   79CHL1   C20 8302   3.937   6.391   7.008 -1.1869  0.8133  0.4411
   79CHL1   H20 8303   4.041   6.421   6.986 -0.2050 -1.2725  1.9636
   79CHL1   C21 8304   3.934   6.241   7.058 -0.6654 -0.1514  0.0021
   79CHL1  H21A 8305   3.828   6.205   7.063 -1.0502  1.0941  1.7674
   79CHL1  H21B 8306   3.966   6.234   7.164 -1.3331  2.2529  0.4223
   79CHL1  H21C 8307   3.982   6.174   6.983 -1.4435 -1.0615  0.2858
   79CHL1   C22 8308   3.885   6.475   7.126  0.8667 -0.4816 -0.5519
   79CHL1  H22A 8309   3.865   6.582   7.106  0.7731 -0.3103  0.4068
   79CHL1  H22B 8310   3.786   6.434   7.156  0.5128  0.6836 -0.0859
   79CHL1   C23 8311   3.984   6.484   7.244  0.5538  0.0127 -0.2106
   79CHL1  H23A 8312   4.013   6.383   7.282 -0.0530 -0.1259 -0.1054
   79CHL1  H23B 8313   4.082   6.526   7.213  0.0787  0.8882 -0.5666
   79CHL1   C24 8314   3.920   6.565   7.361  0.4776  1.4981 -0.3278
   79CHL1  H24A 8315   3.951   6.671   7.352  2.3578  0.8745 -1.7956
   79CHL1  H24B 8316   3.810   6.552   7.368  0.5673 -1.1483 -2.0774
   79CHL1   C25 8317   3.965   6.501   7.500 -0.0272  0.0526 -0.2339
   79CHL1   H25 8318   3.934   6.394   7.497 -0.2988  0.1334 -0.3025
   79CHL1   C26 8319   4.121   6.488   7.514 -0.7483 -0.4640  0.3636
   79CHL1  H26A 8320   4.152   6.458   7.616  0.7517  0.4954  0.2208
   79CHL1  H26B 8321   4.155   6.409   7.444  0.6369  0.0836  0.3939
   79CHL1  H26C 8322   4.165   6.585   7.484  1.2511 -1.0087  1.3820
   79CHL1   C27 8323   3.906   6.567   7.624  0.2432  0.1542  0.3969
   79CHL1  H27A 8324   3.795   6.569   7.620  0.2678  0.6006 -3.2863
   79CHL1  H27B 8325   3.939   6.505   7.711 -0.2709  0.0110  0.4933
   79CHL1  H27C 8326   3.935   6.674   7.638 -1.3617  0.8582 -1.2963
   80CHL1    C3 8327   0.795   4.508   5.985  0.3718 -0.0809 -0.3449
   80CHL1    H3 8328   0.753   4.611   5.979  0.0229 -0.0726  1.5536
   80CHL1    O3 8329   0.814   4.449   5.858  0.4941  0.4138  0.3760
   80CHL1   H3' 8330   0.731   4.469   5.814  1.6251  2.3380 -1.0478
   80CHL1    C4 8331   0.932   4.530   6.052  0.5949  0.2093 -0.4346
   80CHL1   H4A 8332   0.995   4.440   6.064  0.8356  0.6435  1.8965
   80CHL1   H4B 8333   0.987   4.589   5.975  3.2323 -0.2257  1.0136
   80CHL1    C5 8334   0.919   4.593   6.191 -0.4098 -0.5763 -0.0191
   80CHL1    C6 8335   0.981   4.703   6.221 -0.4028  0.0458 -0.1335
   80CHL1    H6 8336   1.041   4.754   6.144  2.6602 -0.4538  1.7385
   80CHL1    C7 8337   0.977   4.772   6.356  0.2414 -0.5513  0.3691
   80CHL1   H7A 8338   1.081   4.788   6.392  0.4631 -0.9457 -0.0907
   80CHL1   H7B 8339   0.919   4.865   6.334  0.4339 -1.1896 -3.6063
   80CHL1    C8 8340   0.910   4.676   6.464 -0.2451 -0.7632  0.4156
   80CHL1    H8 8341   0.985   4.605   6.503 -1.9765 -0.9903  3.6435
   80CHL1   C14 8342   0.863   4.749   6.589 -0.0806  0.7878 -0.8338
   80CHL1   H14 8343   0.782   4.818   6.555 -0.3055  1.7934  1.5967
   80CHL1   C15 8344   0.963   4.841   6.652 -0.7747 -0.2745  0.1758
   80CHL1  H15A 8345   1.065   4.798   6.661 -0.3437  0.7562  0.4273
   80CHL1  H15B 8346   0.972   4.938   6.598  0.3933  0.4675  1.6089
   80CHL1   C16 8347   0.925   4.858   6.802 -0.2660 -0.6222 -0.1605
   80CHL1  H16A 8348   1.006   4.819   6.868 -1.8737 -1.3103  1.4716
   80CHL1  H16B 8349   0.911   4.966   6.825 -0.8241 -0.3548 -1.6306
   80CHL1   C17 8350   0.795   4.769   6.817  0.2653  0.8931 -0.3958
   80CHL1   H17 8351   0.709   4.831   6.785 -0.2531  1.2017  1.5025
   80CHL1   C13 8352   0.802   4.662   6.700  0.5447  0.1783 -0.4159
   80CHL1   C18 8353   0.899   4.544   6.742 -0.0256 -0.2094 -0.8537
   80CHL1  H18A 8354   0.912   4.467   6.664 -0.2635 -0.4614 -0.6464
   80CHL1  H18B 8355   0.994   4.589   6.779 -0.6337  0.7798 -0.4596
   80CHL1  H18C 8356   0.855   4.481   6.823  0.5706  1.2503  0.6643
   80CHL1   C12 8357   0.668   4.604   6.648  0.6122 -0.4574  0.0172
   80CHL1  H12A 8358   0.605   4.541   6.713  1.5032 -2.4487 -0.9775
   80CHL1  H12B 8359   0.602   4.683   6.606 -0.5446 -2.0183 -1.1948
   80CHL1   C11 8360   0.703   4.522   6.514  0.2992  0.2935 -0.5143
   80CHL1  H11A 8361   0.748   4.425   6.546  0.1366  0.5628  0.5870
   80CHL1  H11B 8362   0.598   4.505   6.484  0.4279 -0.5844 -0.4996
   80CHL1    C9 8363   0.787   4.600   6.411  0.2729  0.1808 -0.0264
   80CHL1    H9 8364   0.717   4.681   6.383  0.5720  0.7329  0.7870
   80CHL1   C10 8365   0.820   4.527   6.283 -0.4334  0.1802 -0.1720
   80CHL1   C19 8366   0.893   4.393   6.317  0.1966  0.1423 -0.0270
   80CHL1  H19A 8367   0.831   4.309   6.356  0.4559 -0.2968 -0.5490
   80CHL1  H19B 8368   0.931   4.340   6.227  1.8645 -0.6414  1.0813
   80CHL1  H19C 8369   0.973   4.410   6.392 -0.5415 -0.6339  0.9848
   80CHL1    C1 8370   0.681   4.495   6.212 -0.1009  0.3962  0.0847
   80CHL1   H1A 8371   0.607   4.444   6.278 -2.2832  4.6356  1.2635
   80CHL1   H1B 8372   0.628   4.590   6.189 -3.0104 -0.7932  1.3679
   80CHL1    C2 8373   0.698   4.419   6.068  0.0429 -0.2250 -0.6484
   80CHL1   H2A 8374   0.600   4.404   6.018 -0.6575  3.4013 -0.6834
   80CHL1   H2B 8375   0.746   4.324   6.099 -1.0290 -0.0615  1.7497
   80CHL1   C20 8376   0.758   4.734   6.958  0.5853  0.2526 -0.1407
   80CHL1   H20 8377   0.694   4.643   6.954 -1.0209  1.3315  0.1430
   80CHL1   C21 8378   0.669   4.839   7.027  0.0335  0.0308  0.5152
   80CHL1  H21A 8379   0.582   4.865   6.965  0.4141 -0.5899 -0.3044
   80CHL1  H21B 8380   0.731   4.924   7.063 -0.3336 -0.6767  3.0373
   80CHL1  H21C 8381   0.638   4.793   7.124 -2.0203 -0.5919 -0.4060
   80CHL1   C22 8382   0.881   4.700   7.048 -0.0598  0.4636 -0.5048
   80CHL1  H22A 8383   0.955   4.639   6.991 -2.9555 -1.9278 -2.0575
   80CHL1  H22B 8384   0.924   4.799   7.073 -0.2434  0.5060 -0.3544
   80CHL1   C23 8385   0.842   4.622   7.173 -0.1544 -0.3187  0.1265
   80CHL1  H23A 8386   0.785   4.687   7.243 -2.3699  0.4297 -2.2503
   80CHL1  H23B 8387   0.784   4.533   7.142  0.2754 -0.9655  1.1103
   80CHL1   C24 8388   0.967   4.570   7.253 -0.0210 -0.1436 -0.5562
   80CHL1  H24A 8389   0.941   4.476   7.305 -1.5104 -0.8381 -2.4453
   80CHL1  H24B 8390   1.043   4.559   7.172  1.3345  2.5534  0.2194
   80CHL1   C25 8391   1.024   4.664   7.359  0.3820 -0.2122 -0.4624
   80CHL1   H25 8392   1.019   4.766   7.315 -2.6434  0.2700  0.7552
   80CHL1   C26 8393   0.940   4.664   7.487  0.5986 -0.1300  0.4508
   80CHL1  H26A 8394   0.833   4.685   7.468  0.8711 -0.9970 -2.3940
   80CHL1  H26B 8395   0.942   4.560   7.525  1.6728 -0.6652 -1.0044
   80CHL1  H26C 8396   0.966   4.733   7.570  0.3532 -1.6390  1.8401
   80CHL1   C27 8397   1.174   4.629   7.380 -0.0808 -0.8082 -0.3061
   80CHL1  H27A 8398   1.219   4.643   7.279  1.9905  0.0772  0.7027
   80CHL1  H27B 8399   1.221   4.700   7.450 -0.2125 -1.8579  0.8849
   80CHL1  H27C 8400   1.182   4.522   7.411 -0.9547 -1.3580 -1.8393
   81CHL1    C3 8401   6.347   2.383   5.903  0.5014 -0.1101  0.5444
   81CHL1    H3 8402   6.456   2.363   5.908  0.3736 -0.7437  0.9756
   81CHL1    O3 8403   6.293   2.358   5.771  0.1291 -0.1086  0.2049
   81CHL1   H3' 8404   6.199   2.376   5.777 -0.0586 -0.8829 -0.2605
   81CHL1    C4 8405   6.271   2.291   6.009  0.0210 -0.9615  0.0469
   81CHL1   H4A 8406   6.165   2.315   5.988  0.9557  3.2474 -0.7293
   81CHL1   H4B 8407   6.297   2.185   5.987  2.4471 -0.4040 -0.0971
   81CHL1    C5 8408   6.292   2.331   6.151 -0.0205  0.4276 -0.8434
   81CHL1    C6 8409   6.322   2.248   6.252  0.0053  0.4692 -0.1838
   81CHL1    H6 8410   6.340   2.143   6.226  2.4144  1.0220 -1.0005
   81CHL1    C7 8411   6.329   2.289   6.394 -0.1276  0.3526 -0.5322
   81CHL1   H7A 8412   6.278   2.208   6.450 -1.7075  2.5921  1.5047
   81CHL1   H7B 8413   6.434   2.283   6.428 -0.3103  0.1847  0.0115
   81CHL1    C8 8414   6.259   2.421   6.427 -0.1170 -0.5101  0.4560
   81CHL1    H8 8415   6.150   2.404   6.439  0.0506 -0.2820  2.6964
   81CHL1   C14 8416   6.307   2.468   6.565  0.2098  0.7668  0.3206
   81CHL1   H14 8417   6.418   2.472   6.563  0.2409 -0.1777 -1.1540
   81CHL1   C15 8418   6.261   2.379   6.687 -0.3170  0.3387  0.6499
   81CHL1  H15A 8419   6.159   2.341   6.666  0.3422 -2.1317  1.6432
   81CHL1  H15B 8420   6.334   2.296   6.695  0.5367  0.8264 -1.3363
   81CHL1   C16 8421   6.265   2.476   6.802  0.2375 -0.2203 -0.4448
   81CHL1  H16A 8422   6.176   2.465   6.869  0.3730 -0.8062 -0.3515
   81CHL1  H16B 8423   6.349   2.445   6.868  0.0120  1.4370  0.6981
   81CHL1   C17 8424   6.295   2.624   6.747 -0.8544  0.9263 -0.5010
   81CHL1   H17 8425   6.406   2.622   6.752 -0.7771  2.5686 -1.0041
   81CHL1   C13 8426   6.252   2.610   6.602  0.2816  0.3224  0.7507
   81CHL1   C18 8427   6.097   2.626   6.596 -0.2421  0.3733 -0.6454
   81CHL1  H18A 8428   6.041   2.549   6.653 -0.9675  0.5632 -1.0911
   81CHL1  H18B 8429   6.055   2.725   6.624 -2.3869 -0.8808  0.8773
   81CHL1  H18C 8430   6.061   2.610   6.492  0.1196  1.6413 -0.9817
   81CHL1   C12 8431   6.317   2.705   6.501  0.5573 -0.1906  0.1074
   81CHL1  H12A 8432   6.289   2.810   6.526 -0.9522 -0.8293  1.2747
   81CHL1  H12B 8433   6.426   2.685   6.511  0.0534 -2.1983  2.4864
   81CHL1   C11 8434   6.286   2.679   6.356  0.2031 -0.4048 -0.0898
   81CHL1  H11A 8435   6.186   2.713   6.322  0.4333 -0.3815 -0.7554
   81CHL1  H11B 8436   6.358   2.735   6.294 -0.5618  0.3876 -0.2777
   81CHL1    C9 8437   6.301   2.525   6.321  0.5195  0.3762  0.0470
   81CHL1    H9 8438   6.412   2.516   6.326  0.7032  0.4669 -2.4599
   81CHL1   C10 8439   6.269   2.479   6.175 -0.2424 -1.0193 -0.0533
   81CHL1   C19 8440   6.114   2.520   6.157 -0.0353 -0.7078  0.1501
   81CHL1  H19A 8441   6.051   2.443   6.108  0.5815 -2.4259  1.9059
   81CHL1  H19B 8442   6.061   2.531   6.254  0.0170  1.5702 -0.0089
   81CHL1  H19C 8443   6.104   2.608   6.090  0.9540 -0.7348 -0.0519
   81CHL1    C1 8444   6.363   2.564   6.084 -0.2425 -0.5883 -0.1199
   81CHL1   H1A 8445   6.372   2.672   6.107 -1.6620 -0.6433  0.8526
   81CHL1   H1B 8446   6.467   2.526   6.093  0.8217  2.3411  0.9052
   81CHL1    C2 8447   6.325   2.532   5.931 -0.1560  0.3565  0.1827
   81CHL1   H2A 8448   6.391   2.600   5.872  1.2689 -0.3832  0.8879
   81CHL1   H2B 8449   6.223   2.563   5.898  0.6398  1.3234 -1.5520
   81CHL1   C20 8450   6.245   2.738   6.847 -0.8083  0.2893  0.0806
   81CHL1   H20 8451   6.143   2.762   6.811 -0.1936  2.1558 -0.4913
   81CHL1   C21 8452   6.337   2.859   6.824  0.4243 -0.5426  0.4894
   81CHL1  H21A 8453   6.379   2.862   6.721 -1.1508 -0.6923 -0.1711
   81CHL1  H21B 8454   6.424   2.843   6.891  0.4185 -3.3399 -0.0565
   81CHL1  H21C 8455   6.285   2.953   6.852  2.1576  0.0768  1.8750
   81CHL1   C22 8456   6.234   2.706   6.998 -0.1263  0.2325 -0.1329
   81CHL1  H22A 8457   6.167   2.618   7.014  0.0062  0.3896  1.5286
   81CHL1  H22B 8458   6.337   2.684   7.031  0.7326 -0.6308 -3.0950
   81CHL1   C23 8459   6.180   2.820   7.084  0.3429  0.3162 -0.3061
   81CHL1  H23A 8460   6.255   2.902   7.080  0.4754  0.4048  2.3107
   81CHL1  H23B 8461   6.082   2.858   7.047 -0.3839 -1.5480 -0.4046
   81CHL1   C24 8462   6.169   2.800   7.231 -0.3717  0.0206 -0.5486
   81CHL1  H24A 8463   6.129   2.894   7.276  0.1701  0.8903 -1.8421
   81CHL1  H24B 8464   6.102   2.713   7.247  2.0830 -2.0433 -0.9242
   81CHL1   C25 8465   6.306   2.758   7.295 -0.3667  0.1864 -0.8497
   81CHL1   H25 8466   6.340   2.672   7.233 -0.0527  1.4894 -2.5760
   81CHL1   C26 8467   6.406   2.873   7.293  0.9391  0.2266  0.5146
   81CHL1  H26A 8468   6.501   2.833   7.335  1.3072  0.1183 -0.3804
   81CHL1  H26B 8469   6.429   2.903   7.188 -0.3664  0.3564  0.2463
   81CHL1  H26C 8470   6.368   2.954   7.359 -0.5670 -1.4653  1.8105
   81CHL1   C27 8471   6.281   2.709   7.435  0.3163  0.1751 -0.5794
   81CHL1  H27A 8472   6.383   2.692   7.477  0.2994 -1.1866 -1.0752
   81CHL1  H27B 8473   6.229   2.783   7.500  2.1668  0.1176  1.0614
   81CHL1  H27C 8474   6.217   2.619   7.447  1.3802 -0.4247  0.9083
   82CHL1    C3 8475   5.483   5.623   6.020 -0.2917  0.1752 -0.1417
   82CHL1    H3 8476   5.433   5.720   6.035  0.3691  0.8267 -1.9579
   82CHL1    O3 8477   5.457   5.574   5.891 -0.2705  0.9643  0.0908
   82CHL1   H3' 8478   5.536   5.527   5.863 -1.6181  0.5173 -3.4422
   82CHL1    C4 8479   5.633   5.649   6.048 -0.1235 -0.3931  0.1181
   82CHL1   H4A 8480   5.690   5.562   6.009 -0.3781  0.1210 -1.4897
   82CHL1   H4B 8481   5.660   5.730   5.977 -0.1417 -0.7052 -0.2478
   82CHL1    C5 8482   5.670   5.695   6.186  0.3085 -0.0291 -0.2371
   82CHL1    C6 8483   5.743   5.805   6.211  0.2184 -0.4626 -1.1423
   82CHL1    H6 8484   5.774   5.858   6.120  1.1430 -2.7300 -2.2260
   82CHL1    C7 8485   5.766   5.864   6.353  0.5963  0.2848  0.8444
   82CHL1   H7A 8486   5.873   5.891   6.363  1.2243 -1.1728 -1.3356
   82CHL1   H7B 8487   5.688   5.943   6.361  1.1040  0.8864  0.0315
   82CHL1    C8 8488   5.732   5.753   6.466  0.0580 -0.4593 -0.8071
   82CHL1    H8 8489   5.811   5.676   6.462 -0.6141 -1.2692  0.7640
   82CHL1   C14 8490   5.720   5.832   6.598 -0.4024 -0.2243 -0.8103
   82CHL1   H14 8491   5.629   5.893   6.581  0.8885  1.1662 -3.3003
   82CHL1   C15 8492   5.820   5.938   6.638 -0.4773  0.0202  0.0735
   82CHL1  H15A 8493   5.923   5.896   6.638 -0.5338 -0.1314 -0.6419
   82CHL1  H15B 8494   5.805   6.033   6.584 -2.6417  0.3886  1.1959
   82CHL1   C16 8495   5.786   5.965   6.788  0.6875  0.9746 -0.0621
   82CHL1  H16A 8496   5.876   5.950   6.852  0.1087 -0.2131  0.5062
   82CHL1  H16B 8497   5.743   6.064   6.813  0.3917  0.9507 -0.4613
   82CHL1   C17 8498   5.681   5.857   6.826  0.3404 -0.3666  0.6901
   82CHL1   H17 8499   5.580   5.898   6.804  1.5623  2.1644 -0.6955
   82CHL1   C13 8500   5.690   5.749   6.720 -0.1037  0.9381 -1.4034
   82CHL1   C18 8501   5.808   5.647   6.749 -0.6846  0.2846  0.1673
   82CHL1  H18A 8502   5.910   5.691   6.753 -0.5894  0.4071 -2.0213
   82CHL1  H18B 8503   5.787   5.597   6.845 -0.4878 -1.2042 -0.5427
   82CHL1  H18C 8504   5.814   5.571   6.668 -0.8875 -1.1004  1.4100
   82CHL1   C12 8505   5.570   5.662   6.700 -0.1537  0.2962 -0.1270
   82CHL1  H12A 8506   5.568   5.580   6.775 -1.0102  1.5520  1.2890
   82CHL1  H12B 8507   5.488   5.730   6.730  1.4755  1.7865  1.1396
   82CHL1   C11 8508   5.544   5.603   6.559 -0.1737 -0.4212  0.6780
   82CHL1  H11A 8509   5.609   5.514   6.565  0.5030  0.1032  1.3206
   82CHL1  H11B 8510   5.440   5.566   6.545  0.6172 -3.4105  1.9751
   82CHL1    C9 8511   5.599   5.691   6.438  0.0643 -0.2865 -0.0440
   82CHL1    H9 8512   5.534   5.780   6.424 -0.1842 -0.4289  0.1827
   82CHL1   C10 8513   5.594   5.620   6.299 -0.1182 -0.1025 -0.4771
   82CHL1   C19 8514   5.669   5.483   6.313  0.2622  0.2758 -0.1656
   82CHL1  H19A 8515   5.683   5.433   6.215  1.5461 -0.1677  0.2242
   82CHL1  H19B 8516   5.775   5.496   6.341  0.9027 -1.5186 -1.5853
   82CHL1  H19C 8517   5.620   5.410   6.382  0.1023 -0.3665 -0.9465
   82CHL1    C1 8518   5.452   5.588   6.266  0.4331  0.1009 -0.2806
   82CHL1   H1A 8519   5.423   5.506   6.336  1.8746  1.1625  1.6648
   82CHL1   H1B 8520   5.395   5.682   6.272  1.4388  0.8120 -1.4213
   82CHL1    C2 8521   5.428   5.531   6.127  0.0800  0.1774  0.0065
   82CHL1   H2A 8522   5.318   5.519   6.118  0.2204 -0.3877 -1.0837
   82CHL1   H2B 8523   5.472   5.430   6.116 -0.7060 -0.2678  0.7843
   82CHL1   C20 8524   5.679   5.806   6.973  0.3864  1.3076  0.8359
   82CHL1   H20 8525   5.631   5.706   6.982  0.8863  0.9952  0.0955
   82CHL1   C21 8526   5.582   5.905   7.047  0.1371 -0.0545  0.5017
   82CHL1  H21A 8527   5.486   5.913   6.991  1.4708 -0.7415 -2.0489
   82CHL1  H21B 8528   5.641   5.999   7.047  0.7174 -0.3349 -2.1935
   82CHL1  H21C 8529   5.566   5.871   7.152 -2.2975  0.8068  0.4853
   82CHL1   C22 8530   5.815   5.796   7.049 -0.1827  0.3398  0.2294
   82CHL1  H22A 8531   5.887   5.732   6.993  0.9459  1.8610 -0.1262
   82CHL1  H22B 8532   5.860   5.897   7.057  0.3036  0.2266 -0.8172
   82CHL1   C23 8533   5.808   5.748   7.193  0.7185  0.6824 -0.1015
   82CHL1  H23A 8534   5.905   5.747   7.247 -0.4284 -0.7920  2.0680
   82CHL1  H23B 8535   5.742   5.827   7.235 -0.4717  1.7131 -3.5491
   82CHL1   C24 8536   5.739   5.609   7.212 -0.1948  0.2076 -0.5104
   82CHL1  H24A 8537   5.636   5.610   7.172 -0.3674 -0.6941 -0.1189
   82CHL1  H24B 8538   5.803   5.532   7.164  0.2015 -1.6549  2.7264
   82CHL1   C25 8539   5.722   5.565   7.365  0.1550 -0.4482 -0.1058
   82CHL1   H25 8540   5.703   5.456   7.365 -4.2987  0.0621 -2.7547
   82CHL1   C26 8541   5.848   5.585   7.445 -0.4988 -0.3633  0.8724
   82CHL1  H26A 8542   5.934   5.523   7.411 -0.8530 -0.6523  0.4925
   82CHL1  H26B 8543   5.876   5.692   7.449 -0.8226 -0.1152 -1.9742
   82CHL1  H26C 8544   5.818   5.558   7.549 -1.5490  1.6095  1.1283
   82CHL1   C27 8545   5.601   5.642   7.424 -0.1504  0.1624 -0.7160
   82CHL1  H27A 8546   5.502   5.606   7.391 -0.8265 -0.2859  1.6283
   82CHL1  H27B 8547   5.613   5.626   7.533  1.2932  0.3836 -0.8160
   82CHL1  H27C 8548   5.613   5.751   7.404  1.8353 -0.2492 -2.1243
   83CHL1    C3 8549   3.383   6.771   5.910 -0.1978  0.5000  0.7502
   83CHL1    H3 8550   3.438   6.676   5.931 -3.2348 -0.9618  2.9941
   83CHL1    O3 8551   3.365   6.800   5.771 -0.2105  0.3296  0.0477
   83CHL1   H3' 8552   3.269   6.806   5.769 -0.4099 -0.5124  3.0549
   83CHL1    C4 8553   3.249   6.758   5.983  0.5933  0.2389  0.3376
   83CHL1   H4A 8554   3.195   6.855   5.984  2.9593  1.6229  0.5803
   83CHL1   H4B 8555   3.187   6.685   5.927  0.0067  1.5022 -0.7102
   83CHL1    C5 8556   3.271   6.722   6.133 -0.0325 -0.3866 -0.4651
   83CHL1    C6 8557   3.221   6.603   6.180 -0.0827 -0.6104 -0.2212
   83CHL1    H6 8558   3.175   6.533   6.110 -0.8416 -0.7092  0.3698
   83CHL1    C7 8559   3.237   6.557   6.323 -0.7613  0.1639 -0.0457
   83CHL1   H7A 8560   3.140   6.521   6.363 -0.8844 -0.1235 -0.5991
   83CHL1   H7B 8561   3.314   6.478   6.331  0.0239  1.0496  1.6604
   83CHL1    C8 8562   3.276   6.680   6.415  0.3574 -0.0653  0.7100
   83CHL1    H8 8563   3.176   6.727   6.430  0.2908 -0.1328  0.4787
   83CHL1   C14 8564   3.338   6.617   6.543  0.5070 -0.5181 -0.9265
   83CHL1   H14 8565   3.435   6.567   6.521  1.6877  0.1327  2.2367
   83CHL1   C15 8566   3.252   6.512   6.612 -0.0234  0.0502  0.3985
   83CHL1  H15A 8567   3.147   6.547   6.600 -0.6287 -1.5982  0.5480
   83CHL1  H15B 8568   3.269   6.411   6.567  0.0418  0.2686 -0.0738
   83CHL1   C16 8569   3.292   6.515   6.762  1.0997  0.1532 -0.3201
   83CHL1  H16A 8570   3.200   6.541   6.818  1.0224  2.5095 -1.4191
   83CHL1  H16B 8571   3.325   6.417   6.803 -2.5081 -0.3030  1.9457
   83CHL1   C17 8572   3.394   6.628   6.777 -0.2666 -0.4877 -0.1614
   83CHL1   H17 8573   3.496   6.587   6.759  0.1646 -0.0880  1.2354
   83CHL1   C13 8574   3.362   6.716   6.655  0.1619  0.2286 -0.0481
   83CHL1   C18 8575   3.240   6.799   6.678 -0.0043 -0.5740 -0.0613
   83CHL1  H18A 8576   3.214   6.855   6.586  1.1141  0.2015  0.0711
   83CHL1  H18B 8577   3.159   6.728   6.705  1.5810 -1.6330  2.2385
   83CHL1  H18C 8578   3.263   6.883   6.748  2.4573  1.5883 -3.1857
   83CHL1   C12 8579   3.478   6.796   6.599 -0.7424 -0.5919 -0.6324
   83CHL1  H12A 8580   3.490   6.881   6.670 -1.2710 -1.6817  0.8167
   83CHL1  H12B 8581   3.557   6.718   6.599 -0.3946 -0.3460  1.9304
   83CHL1   C11 8582   3.450   6.863   6.454 -0.9868  0.0983  0.3314
   83CHL1  H11A 8583   3.401   6.962   6.464 -1.3883  0.0135 -0.6297
   83CHL1  H11B 8584   3.552   6.895   6.423 -0.6547 -0.8294  0.4036
   83CHL1    C9 8585   3.386   6.770   6.349  0.0184  1.2761  0.0036
   83CHL1    H9 8586   3.472   6.704   6.328 -1.7866 -1.0042 -0.5923
   83CHL1   C10 8587   3.339   6.826   6.209 -0.7197 -0.4071 -0.1846
   83CHL1   C19 8588   3.250   6.944   6.217  0.8064 -0.5765  0.6542
   83CHL1  H19A 8589   3.317   7.029   6.245  1.3244 -1.3508  1.8346
   83CHL1  H19B 8590   3.190   6.983   6.132 -2.9781  0.3201  3.4744
   83CHL1  H19C 8591   3.175   6.934   6.298 -2.2811 -1.3901 -2.1254
   83CHL1    C1 8592   3.474   6.858   6.137 -0.4407  0.7465  0.5932
   83CHL1   H1A 8593   3.518   6.942   6.194 -0.7354 -0.6945  3.1101
   83CHL1   H1B 8594   3.547   6.775   6.151 -0.5703  0.7662  1.4427
   83CHL1    C2 8595   3.453   6.885   5.977 -0.3062  0.4856 -0.1110
   83CHL1   H2A 8596   3.560   6.892   5.945  0.2639  0.3124  1.6391
   83CHL1   H2B 8597   3.393   6.978   5.967  0.4017  1.0752  0.9250
   83CHL1   C20 8598   3.396   6.683   6.920 -0.3742  1.0061 -0.1206
   83CHL1   H20 8599   3.291   6.710   6.948  0.2808  1.0797  2.5425
   83CHL1   C21 8600   3.493   6.805   6.927  0.1462  0.5089  0.2199
   83CHL1  H21A 8601   3.597   6.768   6.912 -0.5416 -0.7059 -1.9811
   83CHL1  H21B 8602   3.488   6.849   7.029  1.1804 -0.3863  0.6814
   83CHL1  H21C 8603   3.462   6.884   6.855 -1.0117  1.2956  1.5310
   83CHL1   C22 8604   3.452   6.578   7.019 -0.3270  0.0534  0.2085
   83CHL1  H22A 8605   3.409   6.478   6.998 -0.8908 -0.1405  2.0538
   83CHL1  H22B 8606   3.557   6.552   6.994 -0.3001  1.3585 -1.1265
   83CHL1   C23 8607   3.432   6.603   7.171 -0.3551 -0.1197  0.0807
   83CHL1  H23A 8608   3.476   6.702   7.196  1.6138 -0.3456 -2.1604
   83CHL1  H23B 8609   3.322   6.610   7.183 -0.4402  1.3296 -1.2136
   83CHL1   C24 8610   3.486   6.492   7.255  1.0443 -0.4467  0.1031
   83CHL1  H24A 8611   3.414   6.407   7.249 -0.8163  0.9558  1.1133
   83CHL1  H24B 8612   3.578   6.456   7.207  0.6397  0.2810 -1.2691
   83CHL1   C25 8613   3.519   6.535   7.396  0.3842 -0.1596 -0.6595
   83CHL1   H25 8614   3.594   6.616   7.389 -0.2837  0.4479 -0.9516
   83CHL1   C26 8615   3.405   6.605   7.470 -0.6691  0.1351 -0.0882
   83CHL1  H26A 8616   3.369   6.699   7.422  2.5876  1.1181 -0.8615
   83CHL1  H26B 8617   3.330   6.523   7.470  1.0026 -1.4513 -0.0407
   83CHL1  H26C 8618   3.429   6.636   7.574  1.3981 -1.7053  0.0561
   83CHL1   C27 8619   3.580   6.420   7.482 -0.2887  0.3163  0.3931
   83CHL1  H27A 8620   3.655   6.370   7.417 -1.3611 -1.4604  0.4512
   83CHL1  H27B 8621   3.623   6.464   7.574  0.6313  0.0273  0.1104
   83CHL1  H27C 8622   3.500   6.346   7.502  0.4861 -1.1432 -1.5410
   84CHL1    C3 8623   6.253   1.725   5.910  0.1984  0.3559  1.2068
   84CHL1    H3 8624   6.154   1.681   5.935  1.5652 -1.6171  3.6128
   84CHL1    O3 8625   6.285   1.721   5.773  0.0106  0.4219 -0.9547
   84CHL1   H3' 8626   6.346   1.791   5.747 -0.0957  0.3376 -1.4411
   84CHL1    C4 8627   6.253   1.869   5.962  0.1043 -0.8381 -0.4234
   84CHL1   H4A 8628   6.351   1.917   5.941 -1.1729  2.2958  0.1749
   84CHL1   H4B 8629   6.188   1.937   5.903  2.2128  1.6955 -0.0750
   84CHL1    C5 8630   6.230   1.887   6.111 -0.1338 -0.8227  0.1525
   84CHL1    C6 8631   6.130   1.963   6.154  0.0847  0.1078 -0.0657
   84CHL1    H6 8632   6.069   2.004   6.072  1.2891  1.1170 -0.4976
   84CHL1    C7 8633   6.090   1.982   6.298  0.0044  0.1017  0.8314
   84CHL1   H7A 8634   6.086   2.089   6.328 -0.4420 -0.4065  2.7267
   84CHL1   H7B 8635   5.989   1.941   6.321  0.4429  0.2665  3.3841
   84CHL1    C8 8636   6.192   1.912   6.393  0.0310  0.4452 -0.0888
   84CHL1    H8 8637   6.270   1.988   6.412 -0.8248  0.7034  2.9625
   84CHL1   C14 8638   6.123   1.897   6.527 -0.7179  0.1540  0.0974
   84CHL1   H14 8639   6.051   1.813   6.517  0.2467 -0.5957 -0.7934
   84CHL1   C15 8640   6.049   2.012   6.585  0.3949 -0.3325  0.1350
   84CHL1  H15A 8641   6.099   2.112   6.583 -2.5072  1.4876  4.0731
   84CHL1  H15B 8642   5.959   2.036   6.524  0.1371  1.2079  1.0361
   84CHL1   C16 8643   6.039   1.981   6.734  0.0464 -0.0140  0.0762
   84CHL1  H16A 8644   6.083   2.061   6.797  1.7433  0.2025 -1.3182
   84CHL1  H16B 8645   5.934   1.962   6.764 -0.2435  2.0529  0.5104
   84CHL1   C17 8646   6.127   1.851   6.752  0.6906  0.3842  0.1711
   84CHL1   H17 8647   6.053   1.775   6.720  0.9716  0.9237 -1.8846
   84CHL1   C13 8648   6.224   1.847   6.634 -0.3664 -0.0153  0.1192
   84CHL1   C18 8649   6.328   1.961   6.672 -0.4630 -0.5055  0.1883
   84CHL1  H18A 8650   6.382   1.913   6.756 -1.6262  0.4916  1.5599
   84CHL1  H18B 8651   6.399   1.979   6.589  1.7247  0.6631  2.1802
   84CHL1  H18C 8652   6.283   2.057   6.706  2.3521  1.0470 -0.1430
   84CHL1   C12 8653   6.285   1.714   6.587 -0.8921 -0.6684  0.4773
   84CHL1  H12A 8654   6.353   1.665   6.660  0.7588  0.1876 -0.4235
   84CHL1  H12B 8655   6.198   1.649   6.565 -1.0945  0.1531 -1.3553
   84CHL1   C11 8656   6.350   1.733   6.452  0.5935 -0.1331 -0.8146
   84CHL1  H11A 8657   6.431   1.808   6.465  1.0829 -0.9487  1.2439
   84CHL1  H11B 8658   6.392   1.638   6.413 -2.6377 -1.0468 -2.3284
   84CHL1    C9 8659   6.252   1.785   6.339  0.5251  0.0647 -0.5436
   84CHL1    H9 8660   6.164   1.717   6.334 -1.1079  1.9398  0.9711
   84CHL1   C10 8661   6.314   1.797   6.200  0.4057 -0.0144  0.2433
   84CHL1   C19 8662   6.458   1.864   6.209 -0.3149 -0.1519 -0.6370
   84CHL1  H19A 8663   6.456   1.951   6.278  2.7900  0.3777 -1.0571
   84CHL1  H19B 8664   6.536   1.804   6.260  1.8214 -1.0319 -4.5477
   84CHL1  H19C 8665   6.495   1.883   6.105  0.2035 -0.6228 -0.5402
   84CHL1    C1 8666   6.333   1.658   6.138 -0.3787  0.0187  0.0112
   84CHL1   H1A 8667   6.402   1.603   6.205 -2.1219 -1.5534  0.6033
   84CHL1   H1B 8668   6.239   1.602   6.157  1.4010 -2.7481  1.3090
   84CHL1    C2 8669   6.359   1.644   5.989 -0.1451 -0.1292 -0.2988
   84CHL1   H2A 8670   6.351   1.535   5.971 -1.1959 -0.8349  3.4562
   84CHL1   H2B 8671   6.457   1.680   5.953  0.2023 -1.1588 -0.4069
   84CHL1   C20 8672   6.155   1.810   6.902  0.4173 -0.8061 -0.0613
   84CHL1   H20 8673   6.221   1.885   6.951 -1.7276  1.5576 -0.5646
   84CHL1   C21 8674   6.237   1.675   6.901 -0.0012 -0.0576 -0.3165
   84CHL1  H21A 8675   6.181   1.590   6.855  1.3689  0.0151 -2.2753
   84CHL1  H21B 8676   6.259   1.647   7.006 -2.5344 -2.0370 -0.1933
   84CHL1  H21C 8677   6.337   1.689   6.855  0.5927 -0.9641  0.6480
   84CHL1   C22 8678   6.034   1.814   6.988  0.0706 -0.0835 -0.1003
   84CHL1  H22A 8679   5.987   1.914   7.000 -2.5464 -1.3014  0.3370
   84CHL1  H22B 8680   5.950   1.757   6.944 -1.5342 -0.4515  3.1718
   84CHL1   C23 8681   6.053   1.776   7.137 -0.0240  0.4004 -0.5879
   84CHL1  H23A 8682   5.956   1.787   7.190  0.6308  0.2633  0.6768
   84CHL1  H23B 8683   6.085   1.672   7.155 -1.2021  0.0794 -0.2355
   84CHL1   C24 8684   6.151   1.858   7.213  0.7733  0.1577  0.2811
   84CHL1  H24A 8685   6.250   1.818   7.181  0.4376 -1.6219  1.3369
   84CHL1  H24B 8686   6.133   1.962   7.177 -1.1195 -0.3315 -0.2900
   84CHL1   C25 8687   6.137   1.854   7.367 -0.7078  0.1758 -0.1793
   84CHL1   H25 8688   6.138   1.747   7.395  0.9784  0.5130  1.2776
   84CHL1   C26 8689   6.268   1.921   7.432  0.5682 -0.1777 -0.6300
   84CHL1  H26A 8690   6.266   2.028   7.402 -0.6085 -0.4900 -1.7637
   84CHL1  H26B 8691   6.259   1.925   7.543 -0.6525 -2.8269 -0.5487
   84CHL1  H26C 8692   6.368   1.892   7.396  0.4349  1.2427 -2.2628
   84CHL1   C27 8693   6.014   1.923   7.424  0.4400 -0.1019  0.0949
   84CHL1  H27A 8694   6.012   2.022   7.374  1.8824  0.1400  0.4753
   84CHL1  H27B 8695   5.925   1.857   7.411 -0.8086  1.2299  1.4382
   84CHL1  H27C 8696   6.030   1.942   7.533 -0.3073  2.4142 -0.1685
   85CHL1    C3 8697   5.019   5.561   5.990  0.3137  0.5107  0.1487
   85CHL1    H3 8698   5.074   5.482   6.044  2.1471  0.3709 -1.8132
   85CHL1    O3 8699   4.997   5.518   5.858 -0.1603  0.6814  0.4543
   85CHL1   H3' 8700   4.978   5.602   5.816 -1.8179  0.4935  0.7583
   85CHL1    C4 8701   4.876   5.592   6.047  0.1256  0.2612  0.6051
   85CHL1   H4A 8702   4.831   5.672   5.985  2.9265  1.2777 -0.2881
   85CHL1   H4B 8703   4.819   5.496   6.048  1.2850 -0.4485  0.9293
   85CHL1    C5 8704   4.898   5.648   6.189  0.8274 -0.1497 -0.2331
   85CHL1    C6 8705   4.854   5.575   6.292  0.2121 -0.2374 -0.1936
   85CHL1    H6 8706   4.801   5.481   6.274 -0.7309  0.3081 -0.3394
   85CHL1    C7 8707   4.871   5.625   6.435 -0.1593 -0.2596  0.0761
   85CHL1   H7A 8708   4.779   5.599   6.492 -0.3880 -0.6183 -0.4461
   85CHL1   H7B 8709   4.950   5.564   6.484 -0.7926 -2.0223 -0.9978
   85CHL1    C8 8710   4.901   5.780   6.449 -0.3736  0.3275 -0.4584
   85CHL1    H8 8711   4.815   5.836   6.406 -0.5919 -0.9630 -1.8044
   85CHL1   C14 8712   4.942   5.811   6.589  0.9056 -0.1546 -0.3262
   85CHL1   H14 8713   5.027   5.740   6.597 -0.4501 -1.6470  1.9245
   85CHL1   C15 8714   4.846   5.784   6.706  0.2799 -0.4951  0.1768
   85CHL1  H15A 8715   4.744   5.826   6.691  0.3202 -0.5732 -0.3332
   85CHL1  H15B 8716   4.836   5.676   6.731  2.0323 -0.5207  0.8792
   85CHL1   C16 8717   4.907   5.871   6.824  0.6680 -0.0242  0.7660
   85CHL1  H16A 8718   4.830   5.945   6.853  1.7896  1.3990  0.2178
   85CHL1  H16B 8719   4.925   5.820   6.921 -0.5539 -2.5075 -0.2101
   85CHL1   C17 8720   5.019   5.955   6.763 -0.4208 -0.6157  1.3199
   85CHL1   H17 8721   5.113   5.898   6.778  1.3305  1.0622 -2.1587
   85CHL1   C13 8722   4.993   5.954   6.610 -0.0302 -0.2271  0.1883
   85CHL1   C18 8723   4.880   6.059   6.576  0.2931  0.6713  0.1708
   85CHL1  H18A 8724   4.795   6.064   6.648 -0.4559  0.0524 -0.6538
   85CHL1  H18B 8725   4.927   6.159   6.568 -1.7743  1.6372 -0.6934
   85CHL1  H18C 8726   4.836   6.038   6.476  0.2651 -1.2366  0.5418
   85CHL1   C12 8727   5.122   5.974   6.522 -1.0949 -0.0062 -0.2883
   85CHL1  H12A 8728   5.170   6.074   6.531  0.1207 -0.7291  2.2292
   85CHL1  H12B 8729   5.192   5.890   6.544 -1.3907 -0.4380 -0.9817
   85CHL1   C11 8730   5.081   5.953   6.370  0.1673 -0.3266 -0.6732
   85CHL1  H11A 8731   5.015   6.036   6.336 -0.2581 -0.2540  0.3013
   85CHL1  H11B 8732   5.170   5.970   6.305 -0.5215  1.7782 -1.1741
   85CHL1    C9 8733   5.013   5.813   6.352  0.2116 -0.4537  0.3961
   85CHL1    H9 8734   5.087   5.734   6.377 -0.0531 -0.4730  1.1540
   85CHL1   C10 8735   4.976   5.782   6.208 -0.2062 -0.5921 -0.0079
   85CHL1   C19 8736   4.880   5.896   6.148 -0.0950  0.1503 -0.6944
   85CHL1  H19A 8737   4.853   5.881   6.041  0.1343 -1.7549 -0.5369
   85CHL1  H19B 8738   4.783   5.886   6.201  1.0301  0.0072  1.4687
   85CHL1  H19C 8739   4.926   5.995   6.163  2.1618 -1.0040  0.5486
   85CHL1    C1 8740   5.111   5.757   6.130  0.1645  0.0679 -0.2545
   85CHL1   H1A 8741   5.168   5.852   6.118 -0.3710  0.5861  1.0656
   85CHL1   H1B 8742   5.175   5.696   6.197 -0.9056  1.1833  1.9064
   85CHL1    C2 8743   5.102   5.694   5.991  0.4392  0.1121  0.0062
   85CHL1   H2A 8744   5.201   5.675   5.944  0.3026  1.3950 -0.8616
   85CHL1   H2B 8745   5.045   5.771   5.934 -2.5368 -1.5674  0.5026
   85CHL1   C20 8746   5.041   6.087   6.844 -0.1931  0.3167  0.0314
   85CHL1   H20 8747   4.951   6.152   6.833 -0.6482 -0.4748 -1.0032
   85CHL1   C21 8748   5.159   6.161   6.793 -0.0072 -0.7210  0.3690
   85CHL1  H21A 8749   5.147   6.225   6.703  1.1175  2.0138  2.0289
   85CHL1  H21B 8750   5.251   6.099   6.780  0.8436  0.8352 -1.5834
   85CHL1  H21C 8751   5.183   6.236   6.870  0.6805  0.4185 -0.9106
   85CHL1   C22 8752   5.051   6.068   7.001 -0.2045 -0.1782  0.9728
   85CHL1  H22A 8753   5.071   6.172   7.036  0.8018 -0.4455  1.2267
   85CHL1  H22B 8754   4.949   6.042   7.037 -0.1311 -1.7446  0.1239
   85CHL1   C23 8755   5.155   5.970   7.051 -0.4843  0.7284 -0.2911
   85CHL1  H23A 8756   5.143   5.866   7.015  2.4901  0.3693 -0.5365
   85CHL1  H23B 8757   5.252   6.013   7.016  0.3758 -0.8713  0.0415
   85CHL1   C24 8758   5.160   5.974   7.206  0.2534 -1.0801  0.4050
   85CHL1  H24A 8759   5.151   6.080   7.239 -0.6215 -1.3100  0.9470
   85CHL1  H24B 8760   5.076   5.924   7.259 -1.1683  1.1533  0.4249
   85CHL1   C25 8761   5.284   5.916   7.263  0.5985  0.5359 -0.0053
   85CHL1   H25 8762   5.369   5.985   7.243 -0.1201  1.3996 -0.1947
   85CHL1   C26 8763   5.271   5.911   7.420  0.0116 -0.4093  0.1787
   85CHL1  H26A 8764   5.287   6.013   7.462  1.5961  0.2837 -1.9391
   85CHL1  H26B 8765   5.184   5.856   7.461  0.5176  0.1925  2.2158
   85CHL1  H26C 8766   5.363   5.859   7.455  0.2951 -1.0914 -1.5054
   85CHL1   C27 8767   5.301   5.765   7.213  0.4624 -0.2675 -0.2510
   85CHL1  H27A 8768   5.321   5.757   7.104 -1.9189  0.9959 -0.8542
   85CHL1  H27B 8769   5.389   5.723   7.267 -0.9973 -1.4264  1.3383
   85CHL1  H27C 8770   5.204   5.712   7.223  0.0418  0.7083  1.3175
   86CHL1    C3 8771   7.174   4.015   6.319 -0.5540 -0.4727  0.1091
   86CHL1    H3 8772   7.280   4.046   6.311 -0.9378  1.3456  1.3099
   86CHL1    O3 8773   7.137   3.965   6.186  0.1841  0.1279 -0.5857
   86CHL1   H3' 8774   7.174   3.877   6.189  0.8138  0.3641 -1.1074
   86CHL1    C4 8775   7.166   3.906   6.432  0.1311  0.2836 -0.0315
   86CHL1   H4A 8776   7.072   3.849   6.416  0.2022  0.2382 -0.2967
   86CHL1   H4B 8777   7.252   3.839   6.415  0.9556  0.8538  1.6518
   86CHL1    C5 8778   7.189   3.963   6.568  0.7928  0.9961 -0.2907
   86CHL1    C6 8779   7.282   3.921   6.655  0.0491 -0.3727  0.1424
   86CHL1    H6 8780   7.352   3.844   6.618 -1.9075 -1.7509 -0.9070
   86CHL1    C7 8781   7.298   3.981   6.794  0.0921  0.2019 -0.6315
   86CHL1   H7A 8782   7.305   3.884   6.848  2.3539 -1.0549 -2.9820
   86CHL1   H7B 8783   7.391   4.039   6.813  1.3023 -1.0994 -2.2561
   86CHL1    C8 8784   7.171   4.055   6.846 -0.3182  0.2471  0.3643
   86CHL1    H8 8785   7.089   3.981   6.856  2.5141 -3.2244 -0.1866
   86CHL1   C14 8786   7.200   4.137   6.972 -0.9708  0.1866  0.0367
   86CHL1   H14 8787   7.281   4.205   6.938  0.0073 -1.0014 -0.0940
   86CHL1   C15 8788   7.270   4.067   7.095  0.2503  0.6550  0.5520
   86CHL1  H15A 8789   7.230   3.964   7.106  2.9558 -0.8459 -2.1499
   86CHL1  H15B 8790   7.378   4.050   7.076  0.6204  2.8433  0.4475
   86CHL1   C16 8791   7.234   4.154   7.211 -0.0087 -0.0178  0.2272
   86CHL1  H16A 8792   7.165   4.097   7.278 -0.4846 -0.8450 -0.9300
   86CHL1  H16B 8793   7.330   4.175   7.263  1.7463 -1.5236 -2.1845
   86CHL1   C17 8794   7.147   4.276   7.163  0.1475 -0.1840 -0.0715
   86CHL1   H17 8795   7.209   4.359   7.123  2.5445 -2.0836 -0.5484
   86CHL1   C13 8796   7.090   4.216   7.029  0.2133 -0.6552 -0.2648
   86CHL1   C18 8797   6.968   4.133   7.071 -0.3690 -0.9367 -0.2114
   86CHL1  H18A 8798   6.987   4.064   7.156 -1.5515 -1.1460 -0.1055
   86CHL1  H18B 8799   6.873   4.184   7.098 -0.1786  0.1727 -1.5408
   86CHL1  H18C 8800   6.937   4.070   6.985 -1.6771  0.2400 -0.6319
   86CHL1   C12 8801   7.048   4.315   6.919 -0.0447 -0.0178  0.0891
   86CHL1  H12A 8802   6.953   4.365   6.945 -0.1132  0.4609 -1.0041
   86CHL1  H12B 8803   7.127   4.392   6.903 -0.7839  1.2725  2.2884
   86CHL1   C11 8804   7.015   4.244   6.791  0.1288  0.2927  0.3768
   86CHL1  H11A 8805   6.928   4.177   6.809  1.0396 -0.5235  1.8720
   86CHL1  H11B 8806   6.983   4.321   6.717  0.1672 -0.5168 -0.5074
   86CHL1    C9 8807   7.130   4.156   6.735  0.0274  0.6066 -0.0084
   86CHL1    H9 8808   7.215   4.222   6.709  0.0625 -0.1149 -1.8980
   86CHL1   C10 8809   7.099   4.087   6.599 -0.3357  0.0983  0.2737
   86CHL1   C19 8810   6.954   4.037   6.607 -0.0201 -0.0312 -0.3704
   86CHL1  H19A 8811   6.885   4.121   6.626 -0.2116 -0.0626 -0.8992
   86CHL1  H19B 8812   6.928   3.982   6.514 -0.4182 -0.0721 -0.2365
   86CHL1  H19C 8813   6.946   3.958   6.685  0.8884  0.9861  0.7835
   86CHL1    C1 8814   7.113   4.184   6.485  0.9525  0.3743  0.2862
   86CHL1   H1A 8815   7.047   4.270   6.512 -0.5261 -0.5991 -0.1364
   86CHL1   H1B 8816   7.220   4.214   6.479  0.8492  0.4466 -3.2504
   86CHL1    C2 8817   7.085   4.139   6.347 -0.8047 -0.5079 -0.3581
   86CHL1   H2A 8818   7.117   4.219   6.276 -0.6394 -0.3323 -0.0890
   86CHL1   H2B 8819   6.978   4.115   6.329 -0.4728 -3.3073  0.9118
   86CHL1   C20 8820   7.057   4.329   7.271 -0.1866 -0.4841 -0.4475
   86CHL1   H20 8821   6.993   4.248   7.313  1.8564 -2.0548 -0.2093
   86CHL1   C21 8822   6.967   4.437   7.209  0.0650  0.1095  0.1262
   86CHL1  H21A 8823   6.895   4.395   7.136  1.0773  1.2630 -1.6033
   86CHL1  H21B 8824   7.036   4.518   7.178  2.0521 -1.3083  0.6616
   86CHL1  H21C 8825   6.894   4.480   7.282 -0.8134  2.4695 -1.9678
   86CHL1   C22 8826   7.135   4.384   7.397  0.8809 -0.1871 -0.3968
   86CHL1  H22A 8827   7.195   4.299   7.437 -0.2063  0.0132  1.7732
   86CHL1  H22B 8828   7.212   4.456   7.364  0.3620  0.9892  0.8674
   86CHL1   C23 8829   7.057   4.447   7.514 -0.0967 -0.3426 -0.4368
   86CHL1  H23A 8830   7.019   4.540   7.467  2.2918  1.0485  0.2436
   86CHL1  H23B 8831   6.977   4.378   7.550 -0.2311 -0.1905 -0.4424
   86CHL1   C24 8832   7.137   4.505   7.627  0.5685 -0.2767  0.4676
   86CHL1  H24A 8833   7.182   4.422   7.686  0.8850  0.0917  0.7514
   86CHL1  H24B 8834   7.232   4.558   7.601  0.6420  0.3336  1.9292
   86CHL1   C25 8835   7.071   4.590   7.728  0.0671 -1.1716 -0.0095
   86CHL1   H25 8836   7.145   4.607   7.809 -0.5290  0.7579  0.1994
   86CHL1   C26 8837   7.034   4.734   7.687 -0.1813  0.8173  0.3374
   86CHL1  H26A 8838   7.118   4.796   7.650 -1.2629  1.1431 -1.7250
   86CHL1  H26B 8839   6.957   4.728   7.607 -1.5236  0.7847  1.5804
   86CHL1  H26C 8840   7.005   4.798   7.773  0.5132 -0.7407  1.7898
   86CHL1   C27 8841   6.956   4.514   7.792  0.1357  0.0336  0.1195
   86CHL1  H27A 8842   6.983   4.407   7.801 -0.8845 -0.1018  2.3684
   86CHL1  H27B 8843   6.926   4.565   7.887 -2.2026  1.4173 -1.2639
   86CHL1  H27C 8844   6.871   4.520   7.720  0.1794  0.9908  0.1376
   87CHL1    C3 8845   1.409   2.248   6.065  0.1027  0.9242  0.2030
   87CHL1    H3 8846   1.301   2.270   6.073 -0.1419 -0.5115  1.1209
   87CHL1    O3 8847   1.458   2.275   5.934 -0.3514  0.1104 -0.1207
   87CHL1   H3' 8848   1.465   2.371   5.927  0.9757 -0.0496 -1.5703
   87CHL1    C4 8849   1.490   2.331   6.163  0.2829  0.1420 -0.3193
   87CHL1   H4A 8850   1.598   2.326   6.137  0.8108  1.0188  1.5538
   87CHL1   H4B 8851   1.452   2.434   6.147 -2.3590 -0.4213  1.7454
   87CHL1    C5 8852   1.478   2.300   6.312 -0.1659  0.6966  0.0464
   87CHL1    C6 8853   1.433   2.393   6.392 -0.4665 -0.0758  0.2015
   87CHL1    H6 8854   1.421   2.495   6.352  2.9782 -0.6423 -2.8630
   87CHL1    C7 8855   1.408   2.369   6.538 -0.4674 -0.2698  0.1555
   87CHL1   H7A 8856   1.460   2.441   6.604 -1.6266  0.4237  0.3327
   87CHL1   H7B 8857   1.299   2.374   6.562 -0.1104 -0.6723  1.9850
   87CHL1    C8 8858   1.447   2.230   6.586  0.4885  0.0143 -0.2551
   87CHL1    H8 8859   1.553   2.242   6.616  0.7551 -1.9319 -0.2485
   87CHL1   C14 8860   1.383   2.189   6.718 -0.6903  0.3406 -0.3839
   87CHL1   H14 8861   1.274   2.182   6.701 -0.8292  0.2122  0.5308
   87CHL1   C15 8862   1.382   2.292   6.835 -0.4037  0.3957 -0.2609
   87CHL1  H15A 8863   1.476   2.350   6.846 -1.3387  1.5845  2.0839
   87CHL1  H15B 8864   1.308   2.374   6.819  1.3031  1.7644 -1.4916
   87CHL1   C16 8865   1.341   2.207   6.958  0.7009 -0.2279 -0.0765
   87CHL1  H16A 8866   1.406   2.215   7.048  2.3895  0.9497 -1.3409
   87CHL1  H16B 8867   1.233   2.224   6.980  1.1438  0.8255  1.3734
   87CHL1   C17 8868   1.357   2.052   6.906  0.3757 -0.0988  0.0699
   87CHL1   H17 8869   1.256   2.031   6.864  0.3772 -0.5359  0.2761
   87CHL1   C13 8870   1.432   2.057   6.776 -0.2886 -0.3270 -0.1530
   87CHL1   C18 8871   1.582   2.071   6.823  0.7785 -0.1055  0.2341
   87CHL1  H18A 8872   1.624   1.981   6.873  1.9920 -0.0250 -0.6109
   87CHL1  H18B 8873   1.659   2.092   6.746  1.1234  1.2892  0.9186
   87CHL1  H18C 8874   1.594   2.138   6.911 -0.8238  0.1273  0.3122
   87CHL1   C12 8875   1.409   1.950   6.673 -0.2600 -0.7847  0.8043
   87CHL1  H12A 8876   1.453   1.857   6.715  0.6484 -0.5566  0.3893
   87CHL1  H12B 8877   1.300   1.939   6.656 -0.3730 -0.0842  1.0546
   87CHL1   C11 8878   1.482   1.984   6.538  0.8454 -0.1627  0.1928
   87CHL1  H11A 8879   1.591   1.986   6.557  1.1266 -0.3887 -1.2366
   87CHL1  H11B 8880   1.456   1.898   6.472 -0.3629  0.9457 -0.8181
   87CHL1    C9 8881   1.427   2.115   6.478  0.4122  0.1451 -0.2100
   87CHL1    H9 8882   1.318   2.098   6.472  0.8094 -2.4223 -1.5642
   87CHL1   C10 8883   1.485   2.150   6.341 -0.2858 -0.2914  0.0185
   87CHL1   C19 8884   1.634   2.110   6.340  0.3388 -0.4008 -0.9695
   87CHL1  H19A 8885   1.634   1.999   6.346 -0.6772 -0.3360  1.7948
   87CHL1  H19B 8886   1.673   2.153   6.245 -0.3360  2.5058 -0.0180
   87CHL1  H19C 8887   1.678   2.166   6.425 -1.1001 -1.0132  0.2185
   87CHL1    C1 8888   1.409   2.061   6.229  0.2296  0.7235  0.4672
   87CHL1   H1A 8889   1.420   1.952   6.242 -2.3477  0.6057  2.4097
   87CHL1   H1B 8890   1.302   2.080   6.252  0.1889  0.8605  0.1717
   87CHL1    C2 8891   1.439   2.099   6.090 -0.1098  0.6084 -0.6076
   87CHL1   H2A 8892   1.363   2.067   6.015 -1.5051  1.0823  0.5534
   87CHL1   H2B 8893   1.544   2.077   6.062 -0.2890 -1.3114  0.1010
   87CHL1   C20 8894   1.398   1.937   7.004  0.4042  0.4098  1.0290
   87CHL1   H20 8895   1.449   1.860   6.942 -2.6781  0.8210 -2.3400
   87CHL1   C21 8896   1.263   1.882   7.064 -0.2530 -0.0906  1.4399
   87CHL1  H21A 8897   1.273   1.814   7.151  0.5615  0.4882  1.8191
   87CHL1  H21B 8898   1.221   1.828   6.976  2.0151 -0.4275  0.5013
   87CHL1  H21C 8899   1.182   1.951   7.097 -0.7422  1.1681 -1.9463
   87CHL1   C22 8900   1.492   1.980   7.128  0.5813  0.3109 -0.1472
   87CHL1  H22A 8901   1.566   2.055   7.093  1.1061 -0.6910 -1.2579
   87CHL1  H22B 8902   1.426   2.032   7.200 -0.4669 -0.3112 -0.6265
   87CHL1   C23 8903   1.562   1.850   7.178  0.2579 -0.5698  0.6943
   87CHL1  H23A 8904   1.483   1.782   7.218  0.5296  0.1405  2.5736
   87CHL1  H23B 8905   1.615   1.795   7.098  1.7671 -0.3264  1.4898
   87CHL1   C24 8906   1.668   1.877   7.295 -0.0453 -0.3832  0.6198
   87CHL1  H24A 8907   1.694   1.779   7.342 -0.4257  0.6945  3.2618
   87CHL1  H24B 8908   1.759   1.922   7.250  1.7115 -2.5203  1.7964
   87CHL1   C25 8909   1.625   1.969   7.409 -0.1698  0.1299  0.5354
   87CHL1   H25 8910   1.597   2.061   7.354 -0.8089 -0.4916 -0.2044
   87CHL1   C26 8911   1.504   1.918   7.485 -1.1869 -0.1591 -0.3626
   87CHL1  H26A 8912   1.518   1.820   7.534  0.3178  1.0687  1.8443
   87CHL1  H26B 8913   1.491   1.995   7.565  1.7201  0.9465 -0.8120
   87CHL1  H26C 8914   1.418   1.915   7.415  0.3043 -1.3731 -2.2299
   87CHL1   C27 8915   1.754   1.995   7.490 -0.7777  0.3806 -0.6867
   87CHL1  H27A 8916   1.723   2.076   7.560 -0.5733 -1.7257  2.0070
   87CHL1  H27B 8917   1.786   1.907   7.550  1.3578  1.1594 -0.6053
   87CHL1  H27C 8918   1.843   2.030   7.433 -0.7833  1.9118  0.1778
   88CHL1    C3 8919   4.660   0.055   5.987 -0.1524  0.0955 -0.5200
   88CHL1    H3 8920   4.596  -0.029   6.022  1.1765 -1.4243 -1.5737
   88CHL1    O3 8921   4.655   0.044   5.847  0.2449  0.4025 -0.1879
   88CHL1   H3' 8922   4.686   0.132   5.823  1.2619  0.5256  1.4170
   88CHL1    C4 8923   4.593   0.184   6.034  0.4099 -0.2410 -0.0399
   88CHL1   H4A 8924   4.618   0.270   5.969  3.1430 -0.3990  0.6577
   88CHL1   H4B 8925   4.485   0.164   6.023  0.5298 -0.3427 -1.1418
   88CHL1    C5 8926   4.628   0.214   6.174  0.0655 -0.4907  0.2063
   88CHL1    C6 8927   4.525   0.245   6.261  0.2636  0.3620 -0.0737
   88CHL1    H6 8928   4.422   0.253   6.223  0.0881  1.2421  0.5655
   88CHL1    C7 8929   4.546   0.280   6.406 -1.0390  0.0122  0.1022
   88CHL1   H7A 8930   4.499   0.374   6.443  0.0830  0.8295 -0.4714
   88CHL1   H7B 8931   4.505   0.205   6.476 -0.4754  1.0433  1.5953
   88CHL1    C8 8932   4.699   0.301   6.445  0.0589 -0.4379 -0.2407
   88CHL1    H8 8933   4.726   0.403   6.412  3.7361 -0.6906  1.4577
   88CHL1   C14 8934   4.722   0.291   6.598 -0.3971  0.5278 -0.2367
   88CHL1   H14 8935   4.703   0.188   6.635  0.9645  0.7454  1.1403
   88CHL1   C15 8936   4.635   0.371   6.695 -0.0976  0.1172 -0.1483
   88CHL1  H15A 8937   4.633   0.479   6.670 -1.2101  0.5761  1.7237
   88CHL1  H15B 8938   4.525   0.357   6.704 -0.3957  2.1882  0.0831
   88CHL1   C16 8939   4.705   0.358   6.828 -0.2834 -0.0785 -0.2094
   88CHL1  H16A 8940   4.707   0.460   6.871  0.6918  0.1880 -0.8681
   88CHL1  H16B 8941   4.654   0.290   6.900  1.8477 -2.3803 -0.7396
   88CHL1   C17 8942   4.845   0.299   6.798 -0.8459 -0.0968 -0.3020
   88CHL1   H17 8943   4.832   0.190   6.812 -0.7687  0.2336  3.3166
   88CHL1   C13 8944   4.865   0.318   6.643 -0.2280 -0.0006  0.4698
   88CHL1   C18 8945   4.911   0.461   6.605 -0.2329  0.1757 -0.6800
   88CHL1  H18A 8946   4.848   0.538   6.655  0.0069 -0.8082  1.2228
   88CHL1  H18B 8947   5.016   0.465   6.640 -0.1043  0.5334 -1.1062
   88CHL1  H18C 8948   4.915   0.481   6.496  0.0202  2.1438 -0.3364
   88CHL1   C12 8949   4.953   0.215   6.577 -0.7668 -0.2396 -0.3224
   88CHL1  H12A 8950   5.061   0.221   6.605 -1.4175 -0.8164  2.6427
   88CHL1  H12B 8951   4.918   0.118   6.619 -2.7587 -0.3414 -2.0211
   88CHL1   C11 8952   4.937   0.218   6.423 -0.1926  0.3015 -0.1236
   88CHL1  H11A 8953   4.986   0.312   6.389  2.3852 -0.7666  0.4141
   88CHL1  H11B 8954   5.007   0.138   6.390 -2.9730 -2.7326  0.7865
   88CHL1    C9 8955   4.789   0.202   6.372 -0.0950 -0.6347  0.2539
   88CHL1    H9 8956   4.762   0.104   6.415 -3.4750  0.6006  1.2788
   88CHL1   C10 8957   4.769   0.205   6.216 -0.2172 -0.8727  0.1168
   88CHL1   C19 8958   4.837   0.339   6.162 -0.2881 -0.2061 -0.0668
   88CHL1  H19A 8959   4.792   0.426   6.215  0.8666  0.5591 -0.3146
   88CHL1  H19B 8960   4.947   0.327   6.175 -0.2552  0.9017  0.9099
   88CHL1  H19C 8961   4.832   0.355   6.052  2.4842 -1.5844 -0.4870
   88CHL1    C1 8962   4.831   0.078   6.172  0.3621 -0.1469  0.8750
   88CHL1   H1A 8963   4.941   0.073   6.188  0.7471 -0.3466 -1.4812
   88CHL1   H1B 8964   4.797  -0.001   6.241  0.3337 -0.4355  0.5355
   88CHL1    C2 8965   4.809   0.038   6.027  0.1744 -0.4139  0.5594
   88CHL1   H2A 8966   4.833  -0.068   6.004 -0.1712 -0.3147 -0.3079
   88CHL1   H2B 8967   4.862   0.116   5.968 -1.2078 -2.0707 -3.1888
   88CHL1   C20 8968   4.953   0.360   6.892 -0.3013 -1.0016  0.2867
   88CHL1   H20 8969   4.956   0.471   6.882  2.1139 -0.9087  1.2386
   88CHL1   C21 8970   5.095   0.316   6.868 -0.0648  0.5409  0.2577
   88CHL1  H21A 8971   5.168   0.338   6.948  0.0304  2.8915 -0.4080
   88CHL1  H21B 8972   5.149   0.362   6.782  2.8459 -1.6450  0.7410
   88CHL1  H21C 8973   5.095   0.208   6.840  0.1323  1.1386 -2.3788
   88CHL1   C22 8974   4.925   0.330   7.045  0.4187 -0.2763  0.2244
   88CHL1  H22A 8975   5.014   0.375   7.095 -0.2118  1.7806 -0.4067
   88CHL1  H22B 8976   4.831   0.384   7.068 -1.1263 -1.5911 -2.5385
   88CHL1   C23 8977   4.908   0.184   7.070 -0.3332  0.8977  0.3762
   88CHL1  H23A 8978   4.816   0.136   7.029 -1.2930  1.9795  1.2131
   88CHL1  H23B 8979   4.993   0.126   7.029  0.1376  0.4199  1.9699
   88CHL1   C24 8980   4.915   0.146   7.221  0.0484 -0.6065  0.3544
   88CHL1  H24A 8981   4.827   0.195   7.269 -0.7245  0.4401 -2.0023
   88CHL1  H24B 8982   4.891   0.038   7.229  1.6300 -0.9987  0.0857
   88CHL1   C25 8983   5.044   0.173   7.305  0.3189 -0.1653 -0.2222
   88CHL1   H25 8984   5.063   0.282   7.298 -1.8522  0.4210  1.7532
   88CHL1   C26 8985   5.044   0.129   7.451 -0.0013  0.5173  0.5629
   88CHL1  H26A 8986   4.966   0.183   7.509 -3.1524 -2.1498 -0.8544
   88CHL1  H26B 8987   5.010   0.025   7.472  2.9993 -0.1526  2.8430
   88CHL1  H26C 8988   5.147   0.142   7.491 -0.0575 -2.4784  1.9248
   88CHL1   C27 8989   5.162   0.102   7.244 -0.1377 -0.1452 -0.8954
   88CHL1  H27A 8990   5.147  -0.009   7.244  0.3885 -0.2506 -2.5143
   88CHL1  H27B 8991   5.181   0.127   7.137 -0.4741 -2.9370 -1.6949
   88CHL1  H27C 8992   5.249   0.136   7.303 -1.2271 -0.3213  0.8982
   89CHL1    C3 8993   0.229   4.661   5.973 -0.3041  0.8001  0.4686
   89CHL1    H3 8994   0.268   4.764   5.987  0.0119  0.7389  0.0545
   89CHL1    O3 8995   0.276   4.641   5.839  0.5123  0.0125 -0.1453
   89CHL1   H3' 8996   0.219   4.576   5.796  0.8300 -0.8520  0.7103
   89CHL1    C4 8997   0.301   4.572   6.076  0.2200  0.4803 -0.1744
   89CHL1   H4A 8998   0.270   4.470   6.043  0.5704  0.6264 -0.9619
   89CHL1   H4B 8999   0.412   4.577   6.074  0.3868 -1.8192  0.0328
   89CHL1    C5 9000   0.257   4.599   6.218  0.0279  0.2812 -0.0315
   89CHL1    C6 9001   0.346   4.625   6.319  0.5379 -0.0158  0.0454
   89CHL1    H6 9002   0.455   4.620   6.304  0.6539 -4.3161  0.9496
   89CHL1    C7 9003   0.312   4.655   6.459  0.2253 -0.2488 -0.7736
   89CHL1   H7A 9004   0.385   4.604   6.526  0.4509 -1.9676 -2.2497
   89CHL1   H7B 9005   0.331   4.764   6.469  0.3864 -0.1851 -1.6344
   89CHL1    C8 9006   0.166   4.622   6.491 -0.0603  0.1162 -0.1310
   89CHL1    H8 9007   0.152   4.513   6.502 -1.2980  0.1341 -1.2333
   89CHL1   C14 9008   0.120   4.690   6.615 -0.7394 -0.7474  0.7924
   89CHL1   H14 9009   0.135   4.799   6.595  0.0387 -1.2249 -1.5488
   89CHL1   C15 9010   0.209   4.657   6.737 -0.9035  0.4927 -1.0673
   89CHL1  H15A 9011   0.217   4.547   6.750 -0.7677  0.5343 -0.7963
   89CHL1  H15B 9012   0.309   4.705   6.741  0.2249 -1.7988  1.1961
   89CHL1   C16 9013   0.131   4.709   6.857 -0.0023  0.2663 -0.1389
   89CHL1  H16A 9014   0.130   4.634   6.940 -1.6816  0.5095  0.0950
   89CHL1  H16B 9015   0.172   4.806   6.890 -1.8871  2.0006 -2.5628
   89CHL1   C17 9016  -0.015   4.739   6.797  0.4109 -0.2356 -0.0150
   89CHL1   H17 9017  -0.011   4.849   6.780 -0.2839 -0.4321 -1.6531
   89CHL1   C13 9018  -0.023   4.675   6.657  0.4673  0.9442 -0.5902
   89CHL1   C18 9019  -0.050   4.521   6.675 -0.2945 -0.5392  0.4662
   89CHL1  H18A 9020  -0.143   4.498   6.731 -1.9341  1.4016 -1.2501
   89CHL1  H18B 9021  -0.056   4.465   6.579 -5.0891 -0.6468  0.6062
   89CHL1  H18C 9022   0.032   4.469   6.728 -0.0695 -1.1448 -0.4502
   89CHL1   C12 9023  -0.119   4.735   6.545 -0.5499 -0.2705 -0.1956
   89CHL1  H12A 9024  -0.220   4.692   6.562 -0.4618 -0.6328 -0.5611
   89CHL1  H12B 9025  -0.110   4.845   6.547  0.3145 -0.3273  2.3461
   89CHL1   C11 9026  -0.080   4.671   6.413  0.1002 -0.5679  0.2327
   89CHL1  H11A 9027  -0.124   4.569   6.405 -1.0282 -0.0961  0.3482
   89CHL1  H11B 9028  -0.128   4.728   6.331  0.9613  0.7735  0.6250
   89CHL1    C9 9029   0.074   4.673   6.373  1.1874  0.3165  0.7907
   89CHL1    H9 9030   0.098   4.779   6.350  0.8740 -0.0575 -1.4775
   89CHL1   C10 9031   0.101   4.604   6.234  0.7996 -0.5084  0.7587
   89CHL1   C19 9032   0.047   4.458   6.228 -0.7656  0.4126  0.4820
   89CHL1  H19A 9033   0.083   4.389   6.308 -1.7863  0.6774  1.1926
   89CHL1  H19B 9034  -0.063   4.448   6.226 -0.6217 -1.7870 -2.3658
   89CHL1  H19C 9035   0.061   4.419   6.125 -2.8794  0.9022 -0.0440
   89CHL1    C1 9036   0.029   4.686   6.126  0.3096 -0.8223 -0.2942
   89CHL1   H1A 9037  -0.082   4.680   6.129  0.1623 -0.4903 -2.6421
   89CHL1   H1B 9038   0.056   4.792   6.140 -2.7096  0.0934 -0.6986
   89CHL1    C2 9039   0.081   4.670   5.982  0.1957  0.2606  0.1495
   89CHL1   H2A 9040   0.051   4.763   5.930  0.0536  0.5052  0.6558
   89CHL1   H2B 9041   0.033   4.579   5.940  0.4047  0.4547 -0.5183
   89CHL1   C20 9042  -0.129   4.721   6.892  0.3532  0.2818  0.1333
   89CHL1   H20 9043  -0.141   4.615   6.924  0.1396  0.4305  0.5470
   89CHL1   C21 9044  -0.264   4.762   6.830 -0.6677  0.2592  0.3549
   89CHL1  H21A 9045  -0.339   4.759   6.911  0.1619 -1.8215  1.1158
   89CHL1  H21B 9046  -0.312   4.692   6.758  1.8201 -0.3523 -0.8311
   89CHL1  H21C 9047  -0.264   4.858   6.774  0.4456  0.9575  1.5078
   89CHL1   C22 9048  -0.108   4.799   7.026  0.1017  0.9785  0.0488
   89CHL1  H22A 9049  -0.197   4.782   7.091 -1.3893 -1.3809 -2.3858
   89CHL1  H22B 9050  -0.008   4.767   7.061  0.4697  0.2919 -1.5173
   89CHL1   C23 9051  -0.124   4.950   7.002 -1.0717 -0.2440  0.8273
   89CHL1  H23A 9052  -0.056   4.987   6.922  0.5577 -2.1641  1.2486
   89CHL1  H23B 9053  -0.221   4.978   6.956 -0.6041  0.4174  0.2165
   89CHL1   C24 9054  -0.104   5.043   7.112  0.6777  0.1913  0.3664
   89CHL1  H24A 9055  -0.167   5.017   7.199  3.1999  1.1699  2.6376
   89CHL1  H24B 9056  -0.000   5.020   7.145  1.1237 -1.1178 -1.7547
   89CHL1   C25 9057  -0.115   5.191   7.071 -0.1237 -0.6610 -0.5095
   89CHL1   H25 9058  -0.109   5.246   7.167 -1.2842 -0.4540 -0.5380
   89CHL1   C26 9059  -0.001   5.251   6.985  1.5211 -1.1595 -0.2972
   89CHL1  H26A 9060  -0.019   5.359   6.969 -3.5051 -2.0083 -2.1209
   89CHL1  H26B 9061   0.100   5.223   7.024  1.3106 -1.7458 -0.1651
   89CHL1  H26C 9062  -0.001   5.200   6.886  4.3104  1.0126 -1.5479
   89CHL1   C27 9063  -0.256   5.230   7.024 -0.2842 -0.5617  0.4523
   89CHL1  H27A 9064  -0.340   5.172   7.069 -2.0360 -0.2761 -2.2534
   89CHL1  H27B 9065  -0.292   5.333   7.044 -0.5568 -0.7302  0.8551
   89CHL1  H27C 9066  -0.260   5.207   6.916 -0.3703 -1.3475  0.6166
   90CHL1    C3 9067   0.589   4.883   5.949  0.4384 -0.1613 -0.3008
   90CHL1    H3 9068   0.548   4.799   6.009 -1.9820  2.3446  1.8572
   90CHL1    O3 9069   0.619   4.865   5.815  0.0999  0.7012 -0.3871
   90CHL1   H3' 9070   0.699   4.917   5.802 -0.0148  1.0665  0.3192
   90CHL1    C4 9071   0.482   4.994   5.962 -0.3824  0.8156  0.2241
   90CHL1   H4A 9072   0.508   5.082   5.900 -1.8593  1.3778  0.3722
   90CHL1   H4B 9073   0.392   4.967   5.903 -0.4546 -1.0435  1.0812
   90CHL1    C5 9074   0.449   5.011   6.106  0.7116  0.3573 -0.0338
   90CHL1    C6 9075   0.323   5.000   6.145 -0.0911  0.5147 -0.3567
   90CHL1    H6 9076   0.246   4.971   6.071  0.2724 -1.4657 -0.0230
   90CHL1    C7 9077   0.285   5.027   6.287  0.2075 -0.3995  0.6464
   90CHL1   H7A 9078   0.199   5.098   6.289  0.3419 -0.1164 -1.5014
   90CHL1   H7B 9079   0.261   4.933   6.341  0.5375 -1.2224 -0.6220
   90CHL1    C8 9080   0.396   5.094   6.371  0.0372  0.5168 -0.9216
   90CHL1    H8 9081   0.400   5.197   6.331  0.9589  1.2371  0.9520
   90CHL1   C14 9082   0.369   5.074   6.523  0.7327 -0.5770  0.4212
   90CHL1   H14 9083   0.379   4.965   6.543  0.8373 -1.0815 -1.9753
   90CHL1   C15 9084   0.225   5.101   6.571 -0.2816 -0.3080 -0.0855
   90CHL1  H15A 9085   0.179   5.199   6.543  0.8245 -0.1287 -1.3569
   90CHL1  H15B 9086   0.150   5.027   6.537  0.2860 -0.3073 -1.3609
   90CHL1   C16 9087   0.242   5.099   6.726 -0.1281 -0.3177  0.2649
   90CHL1  H16A 9088   0.204   5.191   6.774  2.8852 -0.2541  2.8767
   90CHL1  H16B 9089   0.210   5.011   6.786 -0.8551 -1.3264 -1.4942
   90CHL1   C17 9090   0.397   5.109   6.750  0.3487  0.5923  0.2163
   90CHL1   H17 9091   0.429   5.003   6.760 -1.1168 -0.0662 -1.4702
   90CHL1   C13 9092   0.462   5.146   6.614 -0.1559  0.2785  0.4172
   90CHL1   C18 9093   0.455   5.299   6.595 -0.1283  0.0539 -0.4421
   90CHL1  H18A 9094   0.524   5.350   6.666 -2.0195 -0.0357  1.6011
   90CHL1  H18B 9095   0.488   5.321   6.491 -1.0813  0.4033 -0.6805
   90CHL1  H18C 9096   0.351   5.333   6.618  0.2226 -0.9819  3.2714
   90CHL1   C12 9097   0.610   5.101   6.587  0.1979 -0.2147 -0.1208
   90CHL1  H12A 9098   0.681   5.163   6.647  1.0081 -1.3743  0.1397
   90CHL1  H12B 9099   0.606   4.996   6.623 -1.6972 -0.4391 -0.8791
   90CHL1   C11 9100   0.644   5.104   6.433  0.2061  0.8017 -0.4574
   90CHL1  H11A 9101   0.657   5.210   6.402 -1.4639  1.4809  1.0184
   90CHL1  H11B 9102   0.748   5.069   6.417  0.1691  0.6111 -0.2836
   90CHL1    C9 9103   0.533   5.036   6.351 -0.6469 -0.3926  0.3699
   90CHL1    H9 9104   0.539   4.928   6.377 -0.9429 -0.0211  2.0601
   90CHL1   C10 9105   0.569   5.050   6.197 -0.2901  0.2860 -0.8139
   90CHL1   C19 9106   0.616   5.194   6.149 -0.1846 -0.3264  0.2500
   90CHL1  H19A 9107   0.534   5.263   6.179 -1.7801 -2.2545  0.5326
   90CHL1  H19B 9108   0.712   5.224   6.197  0.1158 -2.7807  1.3420
   90CHL1  H19C 9109   0.629   5.207   6.040  1.0815 -0.9733  0.3081
   90CHL1    C1 9110   0.684   4.952   6.165 -0.1760 -0.8266 -0.3989
   90CHL1   H1A 9111   0.768   5.015   6.201 -0.5551 -0.3368 -0.3582
   90CHL1   H1B 9112   0.677   4.858   6.224  1.5656 -0.7068  0.0489
   90CHL1    C2 9113   0.715   4.929   6.019  0.1333  0.5376  0.3692
   90CHL1   H2A 9114   0.796   4.853   6.012 -1.2826 -0.9553 -0.7583
   90CHL1   H2B 9115   0.748   5.020   5.963  0.3360 -0.1539 -0.6743
   90CHL1   C20 9116   0.427   5.173   6.892 -0.4306 -0.8416 -0.0218
   90CHL1   H20 9117   0.385   5.275   6.894 -0.9978 -1.0712 -0.1790
   90CHL1   C21 9118   0.578   5.196   6.904 -0.8641 -0.4471 -0.5580
   90CHL1  H21A 9119   0.598   5.238   7.005 -2.6753  0.1237 -0.4048
   90CHL1  H21B 9120   0.607   5.275   6.831  1.3080 -0.3980  0.2758
   90CHL1  H21C 9121   0.636   5.104   6.881  0.7377  0.5156 -0.5345
   90CHL1   C22 9122   0.366   5.092   7.016 -0.1985  0.5991 -0.3802
   90CHL1  H22A 9123   0.263   5.060   6.991 -0.5804  1.0316  0.6141
   90CHL1  H22B 9124   0.435   5.007   7.034 -0.1048  0.8792  0.6139
   90CHL1   C23 9125   0.361   5.166   7.151  0.2177  0.6221 -0.6276
   90CHL1  H23A 9126   0.468   5.185   7.174 -0.1232  0.5401  1.2004
   90CHL1  H23B 9127   0.312   5.266   7.148  1.1647  1.3919  3.5481
   90CHL1   C24 9128   0.288   5.083   7.256 -0.1139  0.0013 -0.1733
   90CHL1  H24A 9129   0.202   5.024   7.218  0.9055 -2.6347  1.3142
   90CHL1  H24B 9130   0.356   5.012   7.308 -1.3319  0.1486  1.6961
   90CHL1   C25 9131   0.245   5.176   7.373  0.0282 -0.5261  0.3038
   90CHL1   H25 9132   0.182   5.257   7.331  0.9303 -0.0154 -0.0683
   90CHL1   C26 9133   0.146   5.108   7.473 -0.0359 -0.2384  0.1646
   90CHL1  H26A 9134   0.196   5.010   7.488  0.4455 -0.0332 -0.0597
   90CHL1  H26B 9135   0.136   5.162   7.570 -2.1041  1.0821 -0.7237
   90CHL1  H26C 9136   0.051   5.090   7.419  0.4707  2.5525 -1.8799
   90CHL1   C27 9137   0.356   5.229   7.463 -0.6198 -0.2038  0.5862
   90CHL1  H27A 9138   0.418   5.299   7.404  0.2609 -2.0268 -0.7203
   90CHL1  H27B 9139   0.308   5.293   7.541 -0.2810  1.2400 -0.3667
   90CHL1  H27C 9140   0.427   5.149   7.492  0.3206  0.0568 -0.9199
   91CHL1    C3 9141   1.931   7.155   6.085  0.2470  0.0563 -0.8628
   91CHL1    H3 9142   1.890   7.053   6.094  0.0863 -0.0488 -2.4894
   91CHL1    O3 9143   1.949   7.199   5.948  0.0822 -0.1768 -0.7369
   91CHL1   H3' 9144   1.864   7.178   5.909  1.0638 -1.1992 -2.4085
   91CHL1    C4 9145   1.855   7.270   6.162  0.0490 -0.0441  0.1700
   91CHL1   H4A 9146   1.921   7.357   6.145 -0.8094  0.0201 -3.5809
   91CHL1   H4B 9147   1.762   7.302   6.112  0.0825 -0.5641 -0.2367
   91CHL1    C5 9148   1.832   7.240   6.305 -0.0521  0.2583 -0.4431
   91CHL1    C6 9149   1.706   7.228   6.354  0.2473  0.1660 -0.7342
   91CHL1    H6 9150   1.629   7.255   6.281 -1.4697 -3.9382 -0.7444
   91CHL1    C7 9151   1.679   7.198   6.498 -0.3991 -0.2970 -0.3639
   91CHL1   H7A 9152   1.595   7.264   6.526  0.6392  0.0926  2.1356
   91CHL1   H7B 9153   1.643   7.093   6.499 -1.5577  0.0899  0.6248
   91CHL1    C8 9154   1.801   7.213   6.593  0.5101  0.3758  0.4549
   91CHL1    H8 9155   1.813   7.319   6.622  1.1823  0.3668  0.2212
   91CHL1   C14 9156   1.774   7.121   6.718 -0.5098  0.0970  0.5261
   91CHL1   H14 9157   1.766   7.014   6.688 -0.6410  1.1621 -3.9948
   91CHL1   C15 9158   1.640   7.157   6.797  0.1025 -0.2455  1.1158
   91CHL1  H15A 9159   1.628   7.267   6.808  0.9669 -0.1608  1.3324
   91CHL1  H15B 9160   1.549   7.124   6.743  0.7635 -1.0181  0.4531
   91CHL1   C16 9161   1.662   7.088   6.936 -0.3053 -0.8229  0.7235
   91CHL1  H16A 9162   1.646   7.168   7.012  0.1348 -0.8444  0.8384
   91CHL1  H16B 9163   1.599   6.998   6.952  0.1624 -0.9107  2.1857
   91CHL1   C17 9164   1.819   7.054   6.939 -0.5348  0.2163  0.0499
   91CHL1   H17 9165   1.825   6.946   6.913 -0.0834 -0.2741  2.0119
   91CHL1   C13 9166   1.891   7.127   6.828  0.1148  0.8613 -0.5780
   91CHL1   C18 9167   1.914   7.277   6.877  0.1315 -0.6958 -0.0023
   91CHL1  H18A 9168   1.927   7.347   6.792 -0.2243 -1.0576 -0.3594
   91CHL1  H18B 9169   1.827   7.317   6.932  0.0943 -0.2046 -0.4081
   91CHL1  H18C 9170   2.006   7.285   6.938 -0.3108  1.6823  0.4548
   91CHL1   C12 9171   2.010   7.067   6.762 -0.1419 -0.1145  0.6395
   91CHL1  H12A 9172   2.101   7.083   6.824  0.2146 -0.1910  0.1491
   91CHL1  H12B 9173   1.997   6.959   6.741  0.1295  0.0045 -0.1741
   91CHL1   C11 9174   2.049   7.128   6.627  0.2299  0.0354 -0.1558
   91CHL1  H11A 9175   2.086   7.230   6.649 -0.9582  0.7117 -1.2131
   91CHL1  H11B 9176   2.133   7.073   6.580  0.3933 -1.5197  1.7796
   91CHL1    C9 9177   1.927   7.151   6.526  0.1196 -0.1838 -0.1851
   91CHL1    H9 9178   1.889   7.048   6.509  2.7602 -1.1617 -0.6273
   91CHL1   C10 9179   1.957   7.210   6.388 -0.2757 -1.0923  0.8047
   91CHL1   C19 9180   2.036   7.344   6.414 -0.2034 -0.8940 -0.8589
   91CHL1  H19A 9181   2.055   7.395   6.317 -1.1310  0.9305 -0.1100
   91CHL1  H19B 9182   1.976   7.405   6.485  1.0069 -1.1344  0.3986
   91CHL1  H19C 9183   2.131   7.320   6.466 -1.0595  1.0896  1.8058
   91CHL1    C1 9184   2.052   7.111   6.305 -0.5912 -0.0402  0.1343
   91CHL1   H1A 9185   2.147   7.099   6.362 -0.9767  1.4102  1.1363
   91CHL1   H1B 9186   2.002   7.012   6.309 -0.2089 -0.2577 -0.3314
   91CHL1    C2 9187   2.072   7.142   6.161 -0.4066  0.1088 -1.0014
   91CHL1   H2A 9188   2.135   7.064   6.114 -0.7330  1.2370 -3.4764
   91CHL1   H2B 9189   2.136   7.233   6.165  1.2897 -0.9749 -2.2277
   91CHL1   C20 9190   1.874   7.056   7.089 -0.6267 -0.1493  0.0158
   91CHL1   H20 9191   1.861   7.155   7.139 -1.1374  0.0362 -0.4623
   91CHL1   C21 9192   2.018   7.002   7.085 -0.1189  0.9562  0.3085
   91CHL1  H21A 9193   2.009   6.903   7.036 -1.3965  1.1104  0.1807
   91CHL1  H21B 9194   2.053   6.991   7.190 -1.6813  0.4472  0.8141
   91CHL1  H21C 9195   2.091   7.066   7.031  1.3833 -0.3338  0.7601
   91CHL1   C22 9196   1.779   6.965   7.177 -0.5843 -0.6253  0.0310
   91CHL1  H22A 9197   1.674   6.994   7.154 -0.0306  1.8196  0.2514
   91CHL1  H22B 9198   1.772   6.866   7.127  0.5133 -0.2910 -0.8118
   91CHL1   C23 9199   1.814   6.951   7.326  0.5971 -0.0736 -0.0778
   91CHL1  H23A 9200   1.899   6.881   7.342  1.3816  0.5936 -1.1824
   91CHL1  H23B 9201   1.838   7.054   7.360 -1.8003  0.8122 -0.8948
   91CHL1   C24 9202   1.691   6.897   7.398 -0.3289  0.2078 -0.3271
   91CHL1  H24A 9203   1.615   6.973   7.427  0.3927  1.3025 -1.2129
   91CHL1  H24B 9204   1.650   6.817   7.332 -1.6015  0.5525  0.0313
   91CHL1   C25 9205   1.720   6.815   7.531 -0.5315  0.3740  0.0723
   91CHL1   H25 9206   1.792   6.736   7.499  0.6975  1.5047 -0.0319
   91CHL1   C26 9207   1.789   6.897   7.644  0.3968 -0.2801 -0.9727
   91CHL1  H26A 9208   1.879   6.944   7.599  0.1420  0.5751 -0.6225
   91CHL1  H26B 9209   1.737   6.992   7.669  2.6643  1.8388 -3.5857
   91CHL1  H26C 9210   1.816   6.832   7.729 -1.9242 -0.4598 -0.2978
   91CHL1   C27 9211   1.593   6.742   7.574  0.7271  0.6212 -0.0069
   91CHL1  H27A 9212   1.546   6.687   7.490 -2.0920  0.2002  1.7322
   91CHL1  H27B 9213   1.606   6.669   7.657  0.9550  0.9486  0.2497
   91CHL1  H27C 9214   1.528   6.821   7.618 -0.2238 -1.4451  2.5799
   92CHL1    C3 9215   5.916   1.234   5.974 -0.5285  0.2485 -0.3332
   92CHL1    H3 9216   5.948   1.134   5.937  0.8086  0.6386 -0.2765
   92CHL1    O3 9217   5.832   1.304   5.878  0.0272 -0.0208 -0.2358
   92CHL1   H3' 9218   5.749   1.256   5.875  0.4503 -0.7550 -0.4363
   92CHL1    C4 9219   5.844   1.219   6.107 -0.6135  1.2883 -0.3644
   92CHL1   H4A 9220   5.790   1.314   6.125 -0.5478  1.2166  0.2204
   92CHL1   H4B 9221   5.776   1.131   6.100  1.8986 -0.7960 -0.0817
   92CHL1    C5 9222   5.935   1.186   6.223 -0.6160  0.0749 -0.0942
   92CHL1    C6 9223   5.913   1.083   6.309  0.6372  0.9752  0.3049
   92CHL1    H6 9224   5.828   1.015   6.291  3.5563 -2.8733 -0.2111
   92CHL1    C7 9225   5.992   1.045   6.431  0.1237 -0.3583  0.2039
   92CHL1   H7A 9226   5.918   1.015   6.507 -0.1013  1.5885  0.8072
   92CHL1   H7B 9227   6.061   0.960   6.411 -0.4825 -0.6041 -0.9719
   92CHL1    C8 9228   6.069   1.166   6.488  0.7157 -0.6993  0.5269
   92CHL1    H8 9229   5.995   1.236   6.533 -1.2512 -0.6907 -2.4372
   92CHL1   C14 9230   6.168   1.125   6.591  0.1641 -0.1948 -0.2735
   92CHL1   H14 9231   6.246   1.074   6.530 -2.0725 -0.6357 -2.9939
   92CHL1   C15 9232   6.128   1.044   6.710  0.2877  0.0913 -0.6097
   92CHL1  H15A 9233   6.031   1.077   6.752  0.4401 -0.4839  0.2404
   92CHL1  H15B 9234   6.103   0.942   6.674  0.5903 -0.2523  0.1335
   92CHL1   C16 9235   6.239   1.053   6.814 -0.2679 -0.0315  1.0690
   92CHL1  H16A 9236   6.208   1.080   6.917 -1.6777 -0.2072  0.7120
   92CHL1  H16B 9237   6.299   0.959   6.816  0.2242  0.1951 -0.8054
   92CHL1   C17 9238   6.339   1.163   6.759  0.3073  0.3265  0.5236
   92CHL1   H17 9239   6.412   1.107   6.696 -0.4411 -0.8847  0.6901
   92CHL1   C13 9240   6.255   1.241   6.649  1.1293  0.0265  0.5758
   92CHL1   C18 9241   6.162   1.343   6.724  0.3063  0.2122  0.3369
   92CHL1  H18A 9242   6.084   1.294   6.787 -1.7273  0.7584 -1.6257
   92CHL1  H18B 9243   6.227   1.409   6.785  0.3657 -0.3535  0.8923
   92CHL1  H18C 9244   6.105   1.409   6.655  0.1126  0.6396  0.8881
   92CHL1   C12 9245   6.333   1.296   6.521 -0.0465 -0.2562  0.2750
   92CHL1  H12A 9246   6.400   1.380   6.549  2.1597 -1.8290 -0.0028
   92CHL1  H12B 9247   6.396   1.217   6.475 -0.5296  0.9096 -2.5824
   92CHL1   C11 9248   6.237   1.346   6.406 -0.9858 -0.4306 -0.1824
   92CHL1  H11A 9249   6.181   1.431   6.452 -0.4887 -1.6554  2.9061
   92CHL1  H11B 9250   6.298   1.388   6.324 -1.6117  1.2128  0.1379
   92CHL1    C9 9251   6.138   1.235   6.364 -0.3775 -0.1974  0.1851
   92CHL1    H9 9252   6.203   1.159   6.317 -1.7234 -0.4126 -1.4448
   92CHL1   C10 9253   6.057   1.276   6.242 -0.0958  0.3776  0.3251
   92CHL1   C19 9254   6.004   1.426   6.276 -0.0451 -0.5185 -0.1172
   92CHL1  H19A 9255   5.992   1.440   6.386  1.6957  1.8036 -0.1402
   92CHL1  H19B 9256   6.085   1.500   6.255  0.6210 -1.1878  0.0414
   92CHL1  H19C 9257   5.911   1.453   6.223  1.0080  2.5612 -0.6041
   92CHL1    C1 9258   6.136   1.274   6.105 -0.4628  0.0650 -0.5081
   92CHL1   H1A 9259   6.224   1.341   6.105 -0.3446 -0.0622 -1.6668
   92CHL1   H1B 9260   6.175   1.171   6.090  1.1133  0.8673 -2.3205
   92CHL1    C2 9261   6.047   1.314   5.990  0.0554 -0.5340 -0.0149
   92CHL1   H2A 9262   6.103   1.325   5.895  0.3746 -1.6158  0.0398
   92CHL1   H2B 9263   6.010   1.417   6.009 -1.7163 -1.6074  2.9266
   92CHL1   C20 9264   6.407   1.247   6.870  0.3603  0.8007  0.0732
   92CHL1   H20 9265   6.339   1.313   6.928  0.1898  0.4613  0.2610
   92CHL1   C21 9266   6.514   1.332   6.797 -0.5318 -0.9615 -0.1446
   92CHL1  H21A 9267   6.575   1.381   6.876 -1.4531 -0.3404  0.2135
   92CHL1  H21B 9268   6.473   1.423   6.747  0.0947  0.0475  1.0884
   92CHL1  H21C 9269   6.587   1.268   6.744 -0.0122 -0.8495  0.4192
   92CHL1   C22 9270   6.473   1.157   6.978 -0.2235  0.9477  0.0285
   92CHL1  H22A 9271   6.390   1.114   7.038 -0.0119 -1.9800 -1.6288
   92CHL1  H22B 9272   6.539   1.077   6.938 -0.0978  1.0368  0.0564
   92CHL1   C23 9273   6.567   1.232   7.078  0.1210  0.0894 -0.3397
   92CHL1  H23A 9274   6.660   1.266   7.027 -0.8242  3.1170 -0.2023
   92CHL1  H23B 9275   6.507   1.313   7.124  0.1378 -0.0917  0.0029
   92CHL1   C24 9276   6.622   1.145   7.194  0.1993 -0.8135  0.0437
   92CHL1  H24A 9277   6.543   1.131   7.271 -0.8381  2.2480 -0.3203
   92CHL1  H24B 9278   6.652   1.049   7.148 -1.1222 -1.2559  0.0692
   92CHL1   C25 9279   6.744   1.214   7.272  1.1833 -0.1765  0.6428
   92CHL1   H25 9280   6.820   1.234   7.194  0.0141  1.3292 -0.1379
   92CHL1   C26 9281   6.708   1.344   7.348 -0.7435  0.0221 -0.1283
   92CHL1  H26A 9282   6.783   1.400   7.408 -1.0619  0.3033  0.0144
   92CHL1  H26B 9283   6.682   1.426   7.277  1.1976  0.3381 -0.5337
   92CHL1  H26C 9284   6.618   1.318   7.407 -0.9068 -2.2558 -1.2859
   92CHL1   C27 9285   6.800   1.114   7.375  0.0771  0.3272  0.1675
   92CHL1  H27A 9286   6.832   1.021   7.324 -1.4426  1.1884 -2.5444
   92CHL1  H27B 9287   6.901   1.155   7.401  0.8457  0.3267 -2.5549
   92CHL1  H27C 9288   6.731   1.104   7.462  0.1797 -0.7438  0.1343
   93CHL1    C3 9289   5.315   6.137   6.137 -0.2262  1.2610  0.1467
   93CHL1    H3 9290   5.222   6.126   6.196 -0.0388 -0.3371  0.2108
   93CHL1    O3 9291   5.303   6.090   5.997  0.0279  0.4218  0.4418
   93CHL1   H3' 9292   5.391   6.112   5.967 -0.9983  0.5198 -2.8005
   93CHL1    C4 9293   5.366   6.283   6.128 -0.2702 -0.0748 -0.1002
   93CHL1   H4A 9294   5.468   6.283   6.084 -0.5002  1.8919 -0.7296
   93CHL1   H4B 9295   5.310   6.343   6.053 -0.5585  1.0049  0.9539
   93CHL1    C5 9296   5.371   6.339   6.274  0.0259 -0.4679 -0.4288
   93CHL1    C6 9297   5.304   6.445   6.318 -0.2568  0.0614 -0.2067
   93CHL1    H6 9298   5.238   6.503   6.253  0.3807 -2.3897 -3.2438
   93CHL1    C7 9299   5.311   6.496   6.456  0.9028  0.3633 -0.9815
   93CHL1   H7A 9300   5.315   6.607   6.461 -2.1059  0.5031 -0.1136
   93CHL1   H7B 9301   5.213   6.471   6.501  0.5721 -0.1790 -1.9990
   93CHL1    C8 9302   5.433   6.437   6.530  0.3735  0.2611  0.6201
   93CHL1    H8 9303   5.527   6.481   6.490  0.9666 -1.0686  0.4857
   93CHL1   C14 9304   5.408   6.473   6.679 -0.8715  0.3450 -0.8039
   93CHL1   H14 9305   5.313   6.423   6.709 -0.6005 -0.1568 -0.7783
   93CHL1   C15 9306   5.393   6.625   6.714  0.0459 -0.0296  0.2717
   93CHL1  H15A 9307   5.451   6.687   6.643 -1.4127  0.3602 -0.6146
   93CHL1  H15B 9308   5.292   6.671   6.716 -0.3365 -0.8603  1.1167
   93CHL1   C16 9309   5.446   6.633   6.864 -0.0266  0.4651 -0.1694
   93CHL1  H16A 9310   5.547   6.679   6.870  0.7639 -1.2103 -0.0737
   93CHL1  H16B 9311   5.379   6.699   6.922  0.0071 -0.5882  1.0975
   93CHL1   C17 9312   5.466   6.475   6.900 -0.7813 -0.5444 -0.5807
   93CHL1   H17 9313   5.358   6.450   6.908 -1.7545  1.9084 -3.8608
   93CHL1   C13 9314   5.517   6.421   6.770 -0.1527  0.6681 -0.0319
   93CHL1   C18 9315   5.668   6.458   6.732  0.1559 -0.2425  0.1790
   93CHL1  H18A 9316   5.684   6.563   6.764  0.8806 -0.3285  0.1253
   93CHL1  H18B 9317   5.721   6.385   6.797 -1.0049 -2.6373 -1.3757
   93CHL1  H18C 9318   5.681   6.439   6.623 -0.8350 -0.9175  0.1683
   93CHL1   C12 9319   5.513   6.264   6.758 -0.3404 -0.2098 -0.9676
   93CHL1  H12A 9320   5.589   6.219   6.825 -0.0086 -0.6234 -1.6089
   93CHL1  H12B 9321   5.411   6.237   6.792 -0.6107  1.6875 -0.1268
   93CHL1   C11 9322   5.523   6.211   6.615  0.4878  0.5418 -0.1831
   93CHL1  H11A 9323   5.627   6.209   6.578  1.0913 -1.2327  1.4597
   93CHL1  H11B 9324   5.487   6.106   6.622 -1.3718  1.2352  1.6397
   93CHL1    C9 9325   5.431   6.289   6.516 -0.4888 -0.2598  0.1694
   93CHL1    H9 9326   5.332   6.249   6.547 -0.1108 -2.5130 -1.3001
   93CHL1   C10 9327   5.462   6.255   6.363 -0.3619 -0.3984  0.3008
   93CHL1   C19 9328   5.611   6.293   6.325 -0.3572  0.0369 -0.4319
   93CHL1  H19A 9329   5.691   6.257   6.393 -0.7858 -0.2357 -0.0642
   93CHL1  H19B 9330   5.630   6.277   6.216 -0.9280 -2.3576 -0.2256
   93CHL1  H19C 9331   5.617   6.404   6.322 -2.6693  0.2640  0.8753
   93CHL1    C1 9332   5.436   6.105   6.350  0.0183 -0.3649  0.5352
   93CHL1   H1A 9333   5.519   6.051   6.401 -0.1906  0.7752  2.1498
   93CHL1   H1B 9334   5.349   6.080   6.414 -2.2359  2.4717 -1.2310
   93CHL1    C2 9335   5.426   6.055   6.203  0.1263 -0.1905 -0.3004
   93CHL1   H2A 9336   5.397   5.948   6.212 -0.5991  0.1856  3.1403
   93CHL1   H2B 9337   5.524   6.066   6.151 -1.1957  0.1257 -2.8681
   93CHL1   C20 9338   5.547   6.456   7.028  0.2169  0.0428  0.3287
   93CHL1   H20 9339   5.656   6.459   7.005  0.8255 -0.1308  2.8867
   93CHL1   C21 9340   5.521   6.314   7.085  0.3150 -0.0063 -0.3752
   93CHL1  H21A 9341   5.580   6.308   7.180 -0.0024 -2.7188 -0.2742
   93CHL1  H21B 9342   5.545   6.238   7.008  0.6889  0.3613 -0.6280
   93CHL1  H21C 9343   5.417   6.305   7.123  0.1994 -0.5586 -0.8213
   93CHL1   C22 9344   5.537   6.565   7.133  0.3176 -0.2455  0.0011
   93CHL1  H22A 9345   5.610   6.548   7.215 -0.2691 -0.5424  0.4717
   93CHL1  H22B 9346   5.562   6.661   7.084  0.8427 -0.5598 -0.3549
   93CHL1   C23 9347   5.396   6.576   7.187  1.0518 -0.3628 -0.7338
   93CHL1  H23A 9348   5.320   6.562   7.107 -0.9910  1.5229  0.7673
   93CHL1  H23B 9349   5.381   6.482   7.244 -1.1336  0.3205 -0.1058
   93CHL1   C24 9350   5.384   6.691   7.290  0.0292 -0.1379  0.9287
   93CHL1  H24A 9351   5.479   6.689   7.348 -0.1584 -1.1853  1.2222
   93CHL1  H24B 9352   5.375   6.780   7.225  1.1864 -0.0187  0.9117
   93CHL1   C25 9353   5.272   6.678   7.394  0.3141  0.4276  0.4776
   93CHL1   H25 9354   5.302   6.593   7.459 -0.6579  0.7414  1.3700
   93CHL1   C26 9355   5.242   6.801   7.472 -0.6287  0.1019  0.7480
   93CHL1  H26A 9356   5.203   6.878   7.402  1.4777 -0.0889 -0.7048
   93CHL1  H26B 9357   5.173   6.777   7.556  0.1508  0.9884  1.6695
   93CHL1  H26C 9358   5.336   6.848   7.509 -0.3497 -0.2832  0.5266
   93CHL1   C27 9359   5.144   6.629   7.310  0.2441  0.5956 -0.2574
   93CHL1  H27A 9360   5.098   6.708   7.247 -2.6234 -1.6713 -1.2290
   93CHL1  H27B 9361   5.172   6.545   7.243 -1.3467  0.6665 -1.0460
   93CHL1  H27C 9362   5.060   6.597   7.375 -0.0087 -1.9326 -1.6709
   94CHL1    C3 9363   0.693   2.228   5.995  0.0495 -0.8385 -0.5757
   94CHL1    H3 9364   0.787   2.179   6.026  0.0475 -1.6244 -1.7486
   94CHL1    O3 9365   0.701   2.263   5.858  0.2967  0.9053 -0.5905
   94CHL1   H3' 9366   0.670   2.196   5.797  0.6966  2.1265 -2.1955
   94CHL1    C4 9367   0.567   2.147   6.012  0.1850  0.6532  0.0671
   94CHL1   H4A 9368   0.480   2.201   5.968 -1.0341 -1.3942 -0.1727
   94CHL1   H4B 9369   0.582   2.057   5.948 -2.3835 -0.2271  0.5895
   94CHL1    C5 9370   0.541   2.116   6.160 -0.3058 -0.3134 -0.3462
   94CHL1    C6 9371   0.521   1.994   6.200 -0.4249  0.1954  0.7921
   94CHL1    H6 9372   0.511   1.920   6.120  0.5445 -0.0531  0.8900
   94CHL1    C7 9373   0.495   1.946   6.338  0.5172 -0.0893  0.1515
   94CHL1   H7A 9374   0.409   1.875   6.334  1.5801 -1.3483 -1.9999
   94CHL1   H7B 9375   0.581   1.889   6.379 -0.5724 -0.0463  2.7071
   94CHL1    C8 9376   0.467   2.062   6.439 -0.2306  0.5956 -0.4838
   94CHL1    H8 9377   0.363   2.099   6.424 -0.0991  1.1818  0.0059
   94CHL1   C14 9378   0.470   2.015   6.587 -0.4859 -0.4315  0.5365
   94CHL1   H14 9379   0.577   2.004   6.615 -1.1955 -3.7270  2.5327
   94CHL1   C15 9380   0.392   1.888   6.629  0.3102 -0.5769  0.5042
   94CHL1  H15A 9381   0.289   1.905   6.592 -0.0262 -0.0771  1.6227
   94CHL1  H15B 9382   0.426   1.799   6.573  1.7946 -0.5878  1.3518
   94CHL1   C16 9383   0.400   1.891   6.780  0.2572 -0.3119  0.0920
   94CHL1  H16A 9384   0.300   1.876   6.826  0.9384 -1.4881  1.2706
   94CHL1  H16B 9385   0.471   1.812   6.813  0.1148 -0.7432 -0.6004
   94CHL1   C17 9386   0.449   2.031   6.825  0.1912 -0.3921 -0.4719
   94CHL1   H17 9387   0.557   2.033   6.849 -0.1234 -2.8145  1.5162
   94CHL1   C13 9388   0.436   2.129   6.688  0.7279 -0.0382 -0.5708
   94CHL1   C18 9389   0.289   2.178   6.674  0.0120  0.0818 -0.6373
   94CHL1  H18A 9390   0.212   2.101   6.655 -2.0390  2.2049 -1.4552
   94CHL1  H18B 9391   0.260   2.229   6.769  0.0346 -1.7403  0.4089
   94CHL1  H18C 9392   0.271   2.243   6.586 -3.2124  2.2407  1.3757
   94CHL1   C12 9393   0.536   2.248   6.666 -0.1762  0.1039  0.7497
   94CHL1  H12A 9394   0.515   2.329   6.739  0.8664 -0.3483  1.5809
   94CHL1  H12B 9395   0.641   2.224   6.695  1.0893  2.2700 -1.6422
   94CHL1   C11 9396   0.528   2.293   6.513  0.0906 -0.1216 -0.2144
   94CHL1  H11A 9397   0.428   2.336   6.495  0.2601  0.2994 -0.1577
   94CHL1  H11B 9398   0.605   2.370   6.492  0.3983 -0.3349  0.1142
   94CHL1    C9 9399   0.555   2.180   6.411 -0.0032 -0.3700  0.8224
   94CHL1    H9 9400   0.664   2.158   6.424  0.5140  1.6640  0.3949
   94CHL1   C10 9401   0.548   2.234   6.260 -0.5589  0.1391 -0.0918
   94CHL1   C19 9402   0.421   2.314   6.236  0.0281 -0.3283 -0.7611
   94CHL1  H19A 9403   0.423   2.417   6.278  0.0067 -0.2373 -0.9805
   94CHL1  H19B 9404   0.409   2.343   6.130  1.4600  1.6543 -0.4414
   94CHL1  H19C 9405   0.323   2.267   6.258 -0.5647  1.8172  1.7325
   94CHL1    C1 9406   0.670   2.317   6.228  0.0018 -0.5872  0.0452
   94CHL1   H1A 9407   0.683   2.416   6.277 -0.2534  0.2860 -1.6153
   94CHL1   H1B 9408   0.762   2.263   6.261  2.6400  3.6255  0.3558
   94CHL1    C2 9409   0.696   2.354   6.073 -0.1003  0.2838 -0.0350
   94CHL1   H2A 9410   0.797   2.399   6.078  0.6229 -1.3753  1.4954
   94CHL1   H2B 9411   0.613   2.422   6.045 -4.0987 -2.4385  3.8227
   94CHL1   C20 9412   0.382   2.083   6.951  0.4424  0.0251 -1.1601
   94CHL1   H20 9413   0.281   2.112   6.915  0.6543 -1.7420 -3.4673
   94CHL1   C21 9414   0.464   2.201   6.999  0.5543 -0.0286 -0.0117
   94CHL1  H21A 9415   0.564   2.175   7.040  1.1848  1.0698 -0.8201
   94CHL1  H21B 9416   0.404   2.266   7.067 -1.3681 -0.2508 -1.4196
   94CHL1  H21C 9417   0.485   2.272   6.916 -1.1494  0.7699  0.1869
   94CHL1   C22 9418   0.385   1.973   7.066 -0.1992 -0.0245  0.3150
   94CHL1  H22A 9419   0.352   1.870   7.043  2.2518 -0.9068  0.5193
   94CHL1  H22B 9420   0.486   1.960   7.110 -0.4022 -1.1653  0.4608
   94CHL1   C23 9421   0.297   2.005   7.191  0.7144 -0.5525 -0.0717
   94CHL1  H23A 9422   0.311   1.925   7.266 -1.9198 -1.0331  0.0218
   94CHL1  H23B 9423   0.331   2.101   7.235  0.6562 -1.0240  1.0465
   94CHL1   C24 9424   0.141   2.016   7.161  0.0317  0.7735  0.0759
   94CHL1  H24A 9425   0.119   2.092   7.083 -1.9948 -1.4213 -1.6256
   94CHL1  H24B 9426   0.102   1.920   7.122 -1.0029  0.8184  0.9595
   94CHL1   C25 9427   0.064   2.064   7.286 -0.1762  0.0159 -0.4958
   94CHL1   H25 9428   0.120   2.152   7.323  1.3672 -2.1471  2.8723
   94CHL1   C26 9429  -0.080   2.109   7.256  0.2592  0.0997 -0.8065
   94CHL1  H26A 9430  -0.118   2.149   7.353  0.4544  3.1702 -1.8897
   94CHL1  H26B 9431  -0.106   2.184   7.178 -1.1408  1.2495  0.6831
   94CHL1  H26C 9432  -0.134   2.014   7.234 -2.0866  0.9248  0.8742
   94CHL1   C27 9433   0.061   1.955   7.396 -0.2394 -0.5471  0.5852
   94CHL1  H27A 9434   0.164   1.947   7.437 -0.9784 -3.3424  2.1594
   94CHL1  H27B 9435   0.000   1.983   7.485  0.4617  0.8527  0.6551
   94CHL1  H27C 9436   0.045   1.856   7.348  2.4383 -0.3661 -0.8336
   95CHL1    C3 9437   5.901   0.184   5.982  0.2225  0.2357 -0.3939
   95CHL1    H3 9438   5.799   0.152   6.010  0.2161 -1.0418 -1.7073
   95CHL1    O3 9439   5.925   0.146   5.842  0.7050  0.6442  0.5011
   95CHL1   H3' 9440   6.019   0.161   5.828  0.6894 -0.3771 -0.9828
   95CHL1    C4 9441   5.910   0.335   5.991 -0.7854  0.0419  0.6483
   95CHL1   H4A 9442   6.012   0.369   5.962 -0.9953 -0.7802 -1.1700
   95CHL1   H4B 9443   5.851   0.383   5.910  1.3781 -0.2822 -1.2114
   95CHL1    C5 9444   5.879   0.391   6.128  0.9403  0.5913  0.2634
   95CHL1    C6 9445   5.786   0.483   6.152 -0.1263  0.0855  0.3906
   95CHL1    H6 9446   5.729   0.510   6.063  0.7026 -1.0087 -0.5125
   95CHL1    C7 9447   5.763   0.546   6.288 -0.2395  0.2043 -0.5218
   95CHL1   H7A 9448   5.767   0.657   6.286 -2.4858  0.4494  2.3840
   95CHL1   H7B 9449   5.665   0.510   6.324  0.6457 -1.9239 -0.0937
   95CHL1    C8 9450   5.885   0.504   6.384  0.0072  0.0044  0.4050
   95CHL1    H8 9451   5.968   0.568   6.347 -0.9556  0.7202 -0.5596
   95CHL1   C14 9452   5.850   0.549   6.524 -0.8918 -0.6160 -0.1407
   95CHL1   H14 9453   5.760   0.493   6.556 -0.6370  0.2229  2.1824
   95CHL1   C15 9454   5.809   0.704   6.548 -0.6937  0.5913 -0.5109
   95CHL1  H15A 9455   5.881   0.770   6.495 -3.3604  1.0630 -3.9402
   95CHL1  H15B 9456   5.714   0.721   6.493  0.3052  0.9365 -2.2320
   95CHL1   C16 9457   5.817   0.714   6.704 -0.2182 -0.1653  0.1765
   95CHL1  H16A 9458   5.878   0.806   6.720 -0.3766  0.1396 -0.9039
   95CHL1  H16B 9459   5.716   0.723   6.750 -0.0013  0.4760  0.5420
   95CHL1   C17 9460   5.888   0.584   6.753  0.1055  0.2139 -0.0814
   95CHL1   H17 9461   5.800   0.517   6.765 -0.7454  1.6398  2.4751
   95CHL1   C13 9462   5.958   0.517   6.628  0.5329  0.1337 -0.0804
   95CHL1   C18 9463   6.077   0.603   6.591 -0.3173  0.2696  1.0199
   95CHL1  H18A 9464   6.165   0.578   6.655 -0.2803  1.9494  1.6817
   95CHL1  H18B 9465   6.112   0.581   6.488 -1.7057 -1.8128  0.9351
   95CHL1  H18C 9466   6.063   0.713   6.596  0.5879  0.4126  0.6121
   95CHL1   C12 9467   5.969   0.361   6.628 -0.6809 -0.0155 -0.8944
   95CHL1  H12A 9468   6.027   0.338   6.720 -1.1210  0.1262 -0.5772
   95CHL1  H12B 9469   5.866   0.321   6.641  0.2022 -1.6372  2.0451
   95CHL1   C11 9470   6.016   0.315   6.494 -0.1207 -0.1261  0.2922
   95CHL1  H11A 9471   6.121   0.349   6.481 -0.5994  0.4422 -2.6130
   95CHL1  H11B 9472   6.011   0.204   6.501 -1.0233 -0.1098  0.0151
   95CHL1    C9 9473   5.923   0.363   6.377  0.1377 -0.7953  0.1899
   95CHL1    H9 9474   5.830   0.308   6.399  0.9976 -1.7298  1.7098
   95CHL1   C10 9475   5.971   0.334   6.236 -0.2511  0.9770  0.0696
   95CHL1   C19 9476   6.110   0.395   6.216  0.0005 -0.2564  0.7854
   95CHL1  H19A 9477   6.183   0.367   6.295 -1.2223 -0.4555  1.8844
   95CHL1  H19B 9478   6.153   0.363   6.119 -0.6394  0.4585  0.2554
   95CHL1  H19C 9479   6.094   0.505   6.215 -0.0986 -0.2041 -2.2836
   95CHL1    C1 9480   5.978   0.178   6.215 -0.5439  0.1020  0.6287
   95CHL1   H1A 9481   6.049   0.131   6.287  0.0748  0.5608  0.3247
   95CHL1   H1B 9482   5.880   0.130   6.239 -0.7354 -0.0773 -0.4618
   95CHL1    C2 9483   6.006   0.118   6.075  0.8112 -0.4955 -0.7004
   95CHL1   H2A 9484   5.992   0.008   6.077  0.4777 -0.4415  0.7828
   95CHL1   H2B 9485   6.112   0.137   6.046  0.6252 -0.3580 -1.3098
   95CHL1   C20 9486   5.963   0.581   6.887 -0.5604 -0.1627 -1.4271
   95CHL1   H20 9487   6.065   0.554   6.855 -1.6387 -1.5435 -4.0038
   95CHL1   C21 9488   5.916   0.473   6.980  0.5466  0.4200  0.1599
   95CHL1  H21A 9489   6.004   0.440   7.040  0.9628  1.5844  0.2169
   95CHL1  H21B 9490   5.876   0.386   6.925  0.5668 -0.2676  1.1933
   95CHL1  H21C 9491   5.845   0.509   7.057  0.9145 -0.1470  0.7796
   95CHL1   C22 9492   5.976   0.721   6.959  0.6294 -0.6606  0.0270
   95CHL1  H22A 9493   6.030   0.790   6.892  1.2434 -0.6336  0.5352
   95CHL1  H22B 9494   5.878   0.765   6.986  1.8337  2.2518 -0.0482
   95CHL1   C23 9495   6.061   0.724   7.090 -0.3267 -0.0979 -0.1116
   95CHL1  H23A 9496   6.002   0.672   7.169 -0.3590  2.1821  1.4462
   95CHL1  H23B 9497   6.155   0.673   7.058  0.0024  1.1342 -1.1769
   95CHL1   C24 9498   6.088   0.867   7.136  0.4485 -0.0453  0.6155
   95CHL1  H24A 9499   6.113   0.934   7.052  0.8727  1.4986  1.9266
   95CHL1  H24B 9500   5.995   0.916   7.172 -0.1237  0.5157 -1.4566
   95CHL1   C25 9501   6.184   0.889   7.249 -0.5112  0.6839  0.4478
   95CHL1   H25 9502   6.183   0.993   7.289 -2.6374  1.3508 -1.1474
   95CHL1   C26 9503   6.157   0.793   7.367 -0.4135  0.2336  0.7307
   95CHL1  H26A 9504   6.238   0.808   7.442  1.4460 -2.3520 -0.6127
   95CHL1  H26B 9505   6.052   0.814   7.397 -0.8735  2.6430 -2.0450
   95CHL1  H26C 9506   6.159   0.687   7.334  1.0561  0.3970  0.1907
   95CHL1   C27 9507   6.326   0.872   7.196 -0.0108 -0.2128  0.1221
   95CHL1  H27A 9508   6.340   0.927   7.100 -0.7401 -0.0251  0.1105
   95CHL1  H27B 9509   6.410   0.912   7.256  1.1187 -2.7006  0.2940
   95CHL1  H27C 9510   6.341   0.765   7.171 -1.2101 -0.4902  0.5242
   96CHL1    C3 9511   5.599   6.883   6.110  0.2783  0.1590 -0.1603
   96CHL1    H3 9512   5.582   6.992   6.094  0.0276  0.1477  0.0138
   96CHL1    O3 9513   5.559   6.812   5.994 -0.2658 -0.0753  0.5373
   96CHL1   H3' 9514   5.463   6.819   5.994 -0.2171  0.8957  1.8244
   96CHL1    C4 9515   5.742   6.853   6.152  0.0533 -0.5970  0.6704
   96CHL1   H4A 9516   5.768   6.745   6.156 -1.8788 -1.0789  2.4164
   96CHL1   H4B 9517   5.799   6.902   6.070  0.6448  0.0320  1.4413
   96CHL1    C5 9518   5.772   6.916   6.287 -0.4227  0.1750  0.2343
   96CHL1    C6 9519   5.873   7.008   6.295  0.1970  0.0309  0.2888
   96CHL1    H6 9520   5.925   7.027   6.200  0.0518  0.1680  0.2378
   96CHL1    C7 9521   5.914   7.080   6.418  0.2543  0.1012 -0.2085
   96CHL1   H7A 9522   6.023   7.088   6.439 -0.4348  1.0973  3.7654
   96CHL1   H7B 9523   5.856   7.175   6.422 -1.4733 -0.8115 -1.7322
   96CHL1    C8 9524   5.859   6.997   6.541 -0.1439  0.3467 -0.6784
   96CHL1    H8 9525   5.924   6.908   6.551  0.3730  0.9053  1.2718
   96CHL1   C14 9526   5.876   7.084   6.665  0.2657  0.4781  0.4217
   96CHL1   H14 9527   5.813   7.174   6.649 -0.3015  0.0268  0.1030
   96CHL1   C15 9528   6.015   7.138   6.692  0.1504  0.5760  0.1906
   96CHL1  H15A 9529   6.089   7.061   6.662 -0.1487  0.1747  0.4756
   96CHL1  H15B 9530   6.044   7.222   6.625  1.3895  0.3026  0.3704
   96CHL1   C16 9531   6.006   7.178   6.837  0.6470 -0.1425 -0.3808
   96CHL1  H16A 9532   6.089   7.134   6.896  1.0455 -0.4956 -1.1778
   96CHL1  H16B 9533   6.005   7.289   6.840 -0.9673 -0.1336 -0.6113
   96CHL1   C17 9534   5.871   7.130   6.892 -0.1227 -0.0744  0.2202
   96CHL1   H17 9535   5.799   7.213   6.878 -0.4611 -0.5902 -1.3480
   96CHL1   C13 9536   5.830   7.018   6.798  0.1568  0.4119  0.0784
   96CHL1   C18 9537   5.907   6.889   6.822  0.6061 -0.0410 -0.2580
   96CHL1  H18A 9538   5.881   6.845   6.921  0.8942  1.3521  0.4668
   96CHL1  H18B 9539   5.891   6.816   6.740  1.3445 -0.7427  0.1990
   96CHL1  H18C 9540   6.018   6.902   6.821  0.7304 -1.0446 -0.4984
   96CHL1   C12 9541   5.682   6.986   6.785 -1.0724  0.1924  0.2230
   96CHL1  H12A 9542   5.663   6.917   6.871 -0.0979 -0.3275  0.0387
   96CHL1  H12B 9543   5.616   7.075   6.780 -1.0742  0.1274 -1.2831
   96CHL1   C11 9544   5.650   6.908   6.660 -0.1417 -0.2730 -0.3508
   96CHL1  H11A 9545   5.685   6.805   6.684  0.6022  0.1101  0.2391
   96CHL1  H11B 9546   5.539   6.901   6.659 -0.1498 -0.9783  1.4363
   96CHL1    C9 9547   5.717   6.956   6.528 -0.2521 -0.0775 -0.1563
   96CHL1    H9 9548   5.664   7.051   6.504  0.5128 -0.1403 -2.3473
   96CHL1   C10 9549   5.698   6.866   6.404  0.2068  0.9441 -0.1597
   96CHL1   C19 9550   5.720   6.712   6.426 -0.6630 -0.9652 -0.2170
   96CHL1  H19A 9551   5.826   6.689   6.451  0.0446  0.0603 -2.0951
   96CHL1  H19B 9552   5.641   6.677   6.497  0.5538  1.3732  2.5206
   96CHL1  H19C 9553   5.696   6.660   6.331  0.3901 -0.2173 -0.9088
   96CHL1    C1 9554   5.550   6.885   6.357 -0.2518 -0.2798 -0.4885
   96CHL1   H1A 9555   5.484   6.830   6.427 -2.1919  0.8680 -1.3123
   96CHL1   H1B 9556   5.523   6.993   6.364  1.1836  0.0589  0.1922
   96CHL1    C2 9557   5.507   6.826   6.222  0.3967  0.4254 -0.3686
   96CHL1   H2A 9558   5.399   6.840   6.201 -0.3186 -0.8022  2.1389
   96CHL1   H2B 9559   5.516   6.716   6.236 -3.4827  0.2954  2.6815
   96CHL1   C20 9560   5.883   7.095   7.045  0.6822  0.2906  0.4193
   96CHL1   H20 9561   5.953   7.009   7.052 -0.5772 -0.8966 -0.8896
   96CHL1   C21 9562   5.750   7.058   7.105  0.1594 -0.6212 -0.0494
   96CHL1  H21A 9563   5.710   6.955   7.087 -1.2291 -0.4839  1.8207
   96CHL1  H21B 9564   5.672   7.132   7.078 -0.2667 -0.7526  0.7679
   96CHL1  H21C 9565   5.753   7.061   7.216 -0.8598  2.1440 -0.0252
   96CHL1   C22 9566   5.943   7.213   7.121 -0.5238  0.4157 -0.6946
   96CHL1  H22A 9567   6.046   7.232   7.084  0.1494 -0.1548  0.7993
   96CHL1  H22B 9568   5.886   7.306   7.100 -0.2825 -0.0110 -3.6930
   96CHL1   C23 9569   5.973   7.188   7.274  0.1208 -0.4909 -0.3463
   96CHL1  H23A 9570   6.003   7.289   7.310  1.8518 -1.5155  1.2710
   96CHL1  H23B 9571   5.881   7.167   7.332  1.6079 -1.5654  1.7512
   96CHL1   C24 9572   6.093   7.089   7.301  0.0436  0.7883 -0.0082
   96CHL1  H24A 9573   6.088   6.993   7.247 -1.6002 -0.7485  2.6581
   96CHL1  H24B 9574   6.180   7.141   7.256  0.6860  0.3030  0.6536
   96CHL1   C25 9575   6.127   7.048   7.447 -0.4414  0.0768  0.5286
   96CHL1   H25 9576   6.047   6.987   7.495 -0.8183  0.0626 -0.1088
   96CHL1   C26 9577   6.259   6.958   7.459  0.5372 -0.1954 -0.1450
   96CHL1  H26A 9578   6.248   6.871   7.391  0.5343 -0.7883  0.5938
   96CHL1  H26B 9579   6.339   7.032   7.436  0.9943 -0.6371  0.0129
   96CHL1  H26C 9580   6.276   6.928   7.565 -0.9925 -1.8280 -0.3110
   96CHL1   C27 9581   6.152   7.171   7.533 -0.2597  0.3875  0.6145
   96CHL1  H27A 9582   6.187   7.130   7.630  0.8116 -3.1537 -1.0958
   96CHL1  H27B 9583   6.235   7.236   7.496  1.6882 -1.9669  0.5902
   96CHL1  H27C 9584   6.055   7.225   7.525 -0.5240 -0.2978 -1.4400
   97OSM      N 9585   3.206   2.701   9.754  0.1160  0.5115 -0.5664
   97OSM    C15 9586   3.336   2.653   9.815  0.2914  0.6842  0.3718
   97OSM   H15A 9587   3.350   2.547   9.801 -2.3855  0.0098  2.1833
   97OSM   H15B 9588   3.330   2.676   9.920  2.9886  0.6831  0.5965
   97OSM   H15C 9589   3.422   2.706   9.775  0.5435  0.7335  0.9637
   97OSM    C14 9590   3.091   2.624   9.824 -0.6850  0.2603  0.4359
   97OSM   H14A 9591   3.073   2.664   9.923 -1.6193  1.6309 -0.2540
   97OSM   H14B 9592   3.116   2.519   9.829  2.2588  0.7723 -1.3409
   97OSM   H14C 9593   2.994   2.629   9.778 -0.3618 -0.2971 -0.3085
   97OSM    C13 9594   3.192   2.847   9.757  0.0318 -0.3209  0.3099
   97OSM   H13A 9595   3.260   2.901   9.693 -0.1218  0.3144  0.6803
   97OSM   H13B 9596   3.214   2.886   9.855  0.9652  0.3926 -0.1728
   97OSM   H13C 9597   3.090   2.873   9.735 -0.3939 -1.0585  1.3176
   97OSM    C12 9598   3.208   2.655   9.610 -0.0434 -0.2771  0.3156
   97OSM   H12A 9599   3.238   2.552   9.601  2.0329  0.3974 -1.1629
   97OSM   H12B 9600   3.287   2.705   9.557  0.7418  0.1641  1.8367
   97OSM    C11 9601   3.079   2.673   9.520 -0.2933  0.1739  0.0906
   97OSM   H11A 9602   3.100   2.664   9.411 -1.3738  0.0939 -0.1261
   97OSM   H11B 9603   3.040   2.776   9.535  1.4296  0.7599  0.8169
   97OSM      P 9604   3.005   2.424   9.503  0.1565  0.1294  0.1762
   97OSM    O13 9605   3.156   2.388   9.507  0.6039  0.3116  1.1177
   97OSM    O14 9606   2.921   2.330   9.585  0.2159 -0.1610 -0.0456
   97OSM    O11 9607   2.959   2.413   9.358 -0.1410 -0.5238 -0.4849
   97OSM    O12 9608   2.976   2.574   9.546 -0.5094 -0.5587 -0.5864
   97OSM    C1S 9609   2.844   2.495   9.315 -0.4392 -0.2186 -0.3151
   97OSM    H1S 9610   2.859   2.600   9.349  0.5280 -0.6965  0.8197
   97OSM    H1T 9611   2.754   2.465   9.373 -0.0823 -2.2489 -0.7716
   97OSM     NF 9612   2.698   2.549   9.141  0.9401 -0.0380  0.1627
   97OSM    HNF 9613   2.608   2.508   9.134  0.3146  1.2460  0.4835
   97OSM    C2S 9614   2.822   2.480   9.164 -0.2803  0.2876  0.0420
   97OSM    H2S 9615   2.914   2.529   9.126  0.9382 -0.1155  2.2995
   97OSM    C3S 9616   2.822   2.331   9.118  0.4123 -1.0144  0.2220
   97OSM    H3S 9617   2.725   2.290   9.153  0.6636 -0.4204  1.6929
   97OSM     O3 9618   2.939   2.261   9.149  0.0461 -0.3398 -1.2858
   97OSM    HO3 9619   2.988   2.316   9.211 -1.1237 -0.3507 -0.3218
   97OSM    C4S 9620   2.812   2.326   8.965 -0.0254  0.4278 -0.1770
   97OSM    H4S 9621   2.713   2.296   8.927 -0.3694 -2.7720  2.7280
   97OSM    C5S 9622   2.911   2.346   8.871  0.2468 -0.0488 -0.3093
   97OSM    H5S 9623   3.007   2.385   8.908 -0.3307 -1.5861  3.2358
   97OSM    C6S 9624   2.885   2.330   8.717  0.2125 -0.3928 -0.1361
   97OSM    H6S 9625   2.855   2.224   8.700 -1.3016 -0.0602  0.2592
   97OSM    H6T 9626   2.975   2.362   8.661 -0.0572  0.0943 -0.3022
   97OSM    C7S 9627   2.766   2.422   8.683 -0.1624  0.5642  0.2008
   97OSM    H7S 9628   2.786   2.528   8.710 -0.0031  0.2196  1.5280
   97OSM    H7T 9629   2.679   2.386   8.743  1.9821 -1.1849  2.4659
   97OSM    C8S 9630   2.721   2.406   8.535 -0.0526 -0.3229 -0.3132
   97OSM    H8S 9631   2.816   2.400   8.478  0.4185  1.4391  0.2279
   97OSM    H8T 9632   2.660   2.491   8.498  1.4446  0.3026 -1.4585
   97OSM    C9S 9633   2.642   2.276   8.523 -0.2348 -0.5882  0.4712
   97OSM    H9S 9634   2.559   2.288   8.595  0.6640 -1.7239  1.7298
   97OSM    H9T 9635   2.690   2.184   8.563 -0.4665 -1.8749 -1.9653
   97OSM   C10S 9636   2.588   2.251   8.385 -0.0966 -0.5440  1.0989
   97OSM   H10S 9637   2.559   2.348   8.341  0.8808 -0.2254  1.1345
   97OSM   H10T 9638   2.490   2.200   8.381 -1.1337  1.3257  1.5791
   97OSM   C11S 9639   2.686   2.171   8.297  0.1401  0.0779 -0.2680
   97OSM   H11S 9640   2.632   2.075   8.281  1.1130 -1.0837  2.7590
   97OSM   H11T 9641   2.771   2.158   8.368 -0.5440  1.5865  0.9058
   97OSM   C12S 9642   2.752   2.235   8.174 -0.2116 -0.0667  0.5784
   97OSM   H12S 9643   2.819   2.320   8.198  1.6978 -1.6433  1.1209
   97OSM   H12T 9644   2.669   2.275   8.112 -0.5778 -1.3511  0.2168
   97OSM   C13S 9645   2.819   2.134   8.072 -0.2859 -0.3612 -0.5843
   97OSM   H13S 9646   2.750   2.054   8.038  0.2428 -2.6574  3.2422
   97OSM   H13T 9647   2.898   2.077   8.125 -1.4242 -1.7849 -0.3530
   97OSM   C14S 9648   2.889   2.208   7.956 -0.4900  0.1506 -0.8019
   97OSM   H14S 9649   2.812   2.261   7.896  0.1994  0.3991 -1.4858
   97OSM   H14T 9650   2.922   2.124   7.891  0.3669  1.5429 -2.2456
   97OSM   C15S 9651   3.017   2.283   8.001  0.8114  0.0664  0.4153
   97OSM   H15S 9652   3.086   2.208   8.046 -0.8843 -0.8742  1.5470
   97OSM   H15T 9653   2.987   2.362   8.072  2.3877  2.5886 -1.5381
   97OSM   C16S 9654   3.084   2.354   7.873  0.3260 -0.2762 -0.2659
   97OSM   H16S 9655   3.101   2.271   7.801 -1.7977 -1.1176  0.1178
   97OSM   H16T 9656   3.178   2.405   7.902 -0.9903  1.8286  0.5176
   97OSM   C17S 9657   2.991   2.461   7.809  0.0436 -0.5251  0.3262
   97OSM   H17S 9658   2.946   2.521   7.891  0.4204  1.2431 -0.7208
   97OSM   H17T 9659   2.915   2.409   7.748  0.6291 -1.3533  0.2763
   97OSM   C18S 9660   3.057   2.562   7.716 -0.6724 -1.1333 -0.1480
   97OSM   H18S 9661   3.048   2.549   7.606 -1.5881  1.1201 -0.4155
   97OSM   H18T 9662   3.166   2.555   7.735 -0.9563 -3.0226  0.9797
   97OSM   H18U 9663   3.019   2.665   7.733  1.9960 -0.1415  0.2324
   97OSM    C1F 9664   2.692   2.683   9.144  0.5754  0.3327 -0.0014
   97OSM     OF 9665   2.796   2.745   9.158 -0.1530  0.0171 -0.0989
   97OSM    C2F 9666   2.553   2.746   9.130  0.0088  0.0590 -0.1383
   97OSM    H2F 9667   2.526   2.793   9.227  0.6673  0.4451 -0.1420
   97OSM    H2G 9668   2.471   2.672   9.114 -0.1172 -0.1229  1.2400
   97OSM    C3F 9669   2.552   2.856   9.020  0.2219 -0.1793  0.8859
   97OSM    H3F 9670   2.616   2.942   9.052  0.5150  0.2403 -0.7683
   97OSM    H3G 9671   2.447   2.881   8.995 -0.1202 -3.1798 -1.1469
   97OSM    C4F 9672   2.628   2.812   8.897 -0.0410 -0.3117 -0.2218
   97OSM    H4F 9673   2.611   2.704   8.878  2.8752 -0.6706 -1.4703
   97OSM    H4G 9674   2.739   2.814   8.911  0.4306  2.4242 -3.0615
   97OSM    C5F 9675   2.598   2.892   8.771 -0.0586  0.0576  0.0713
   97OSM    H5F 9676   2.619   3.001   8.777 -0.3257  0.4226 -3.7546
   97OSM    H5G 9677   2.487   2.894   8.765 -0.2267  0.8900  2.3763
   97OSM    C6F 9678   2.651   2.832   8.642  0.0752 -0.1559  0.2945
   97OSM    H6F 9679   2.613   2.729   8.625  0.0216 -0.3239  1.3571
   97OSM    H6G 9680   2.761   2.822   8.656  0.3117  0.0543 -1.2079
   97OSM    C7F 9681   2.622   2.928   8.522  0.5393  0.0783  0.3795
   97OSM    H7F 9682   2.672   2.888   8.431  0.9656  0.2348  0.5412
   97OSM    H7G 9683   2.661   3.032   8.525  0.6794  0.2647 -3.2750
   97OSM    C8F 9684   2.470   2.940   8.498 -0.8917 -0.3038  0.5494
   97OSM    H8F 9685   2.436   3.009   8.578 -1.0334 -0.0510  0.2738
   97OSM    H8G 9686   2.427   2.839   8.516  0.6028 -1.4213 -1.6781
   97OSM    C9F 9687   2.435   2.984   8.356 -0.3968  0.4985 -0.1015
   97OSM    H9F 9688   2.517   3.037   8.305  0.0754 -1.5945 -1.6884
   97OSM   C10F 9689   2.323   2.954   8.291  0.4415  0.2826  0.4903
   97OSM   H10F 9690   2.298   2.987   8.189 -0.0952 -2.4900 -0.3507
   97OSM   C11F 9691   2.217   2.870   8.356  0.8204  0.2230  0.0961
   97OSM   H11F 9692   2.129   2.938   8.361  0.0612 -0.7373  0.0880
   97OSM   H11G 9693   2.235   2.823   8.455 -0.7032 -0.5674  0.0371
   97OSM   C12F 9694   2.181   2.760   8.257  0.4443 -0.1775 -0.6230
   97OSM   H12F 9695   2.153   2.798   8.157 -0.7934  0.0483 -0.2053
   97OSM   H12G 9696   2.084   2.718   8.289  0.3133 -0.3477 -1.2388
   97OSM   C13F 9697   2.282   2.643   8.257  0.0013 -0.3659 -0.2556
   97OSM   H13F 9698   2.306   2.609   8.360 -0.1965  0.9189  0.2374
   97OSM   H13G 9699   2.374   2.668   8.201 -1.1263 -0.2724 -2.1529
   97OSM   C14F 9700   2.237   2.523   8.172 -0.1697  0.0110  0.3349
   97OSM   H14F 9701   2.190   2.439   8.227  0.8334  0.4637  1.9742
   97OSM   H14G 9702   2.337   2.488   8.138 -0.4891 -0.5451 -0.0354
   97OSM   C15F 9703   2.169   2.564   8.034 -0.8063 -0.5426 -0.2490
   97OSM   H15F 9704   2.238   2.637   7.987 -2.2624  1.3936  0.5268
   97OSM   H15G 9705   2.081   2.626   8.061  0.8316  1.1171  1.6522
   97OSM   C16F 9706   2.136   2.446   7.947  0.2544  0.0659 -0.1229
   97OSM   H16F 9707   2.110   2.356   8.007  2.0184  1.0138  2.2253
   97OSM   H16G 9708   2.221   2.414   7.882 -1.7786 -0.1255 -2.8743
   97OSM   C17F 9709   2.023   2.473   7.846 -0.2525  0.8425 -0.9083
   97OSM   H17F 9710   2.034   2.555   7.772  2.2120  0.8694 -0.6027
   97OSM   H17G 9711   1.933   2.480   7.911 -0.0582 -1.0260 -0.3639
   97OSM   C18F 9712   2.002   2.344   7.763 -0.7846  0.1178 -0.4660
   97OSM   H18F 9713   1.962   2.263   7.827 -2.5321 -0.2215 -1.8992
   97OSM   H18G 9714   2.096   2.319   7.709  1.8119  1.1129  3.1754
   97OSM   H18H 9715   1.918   2.370   7.695  1.2193  1.7363 -2.4964
   98OSM      N 9716   2.275   2.820  10.039 -0.3713 -0.2703 -0.0612
   98OSM    C15 9717   2.329   2.699  10.116 -0.1639  0.7923 -0.3020
   98OSM   H15A 9718   2.258   2.620  10.137 -0.7492  1.3323 -0.2203
   98OSM   H15B 9719   2.358   2.718  10.218 -0.7381  0.1172 -0.0017
   98OSM   H15C 9720   2.416   2.660  10.065  0.2160 -0.6017  1.3387
   98OSM    C14 9721   2.171   2.895  10.118 -0.7609  0.1349  0.5653
   98OSM   H14A 9722   2.213   2.969  10.185 -1.7252 -0.2593  1.6264
   98OSM   H14B 9723   2.121   2.821  10.178 -1.0903 -1.3336 -1.3994
   98OSM   H14C 9724   2.105   2.936  10.042  0.4192  0.4845 -0.3037
   98OSM    C13 9725   2.401   2.910  10.025 -0.5763  0.1308 -0.9055
   98OSM   H13A 9726   2.445   2.930  10.122  0.5172  0.0163 -1.3617
   98OSM   H13B 9727   2.375   3.010   9.993  0.7595  1.8787  2.8663
   98OSM   H13C 9728   2.476   2.869   9.959  0.3555  0.8547 -0.3130
   98OSM    C12 9729   2.232   2.783   9.898 -0.0012  0.2501 -0.0660
   98OSM   H12A 9730   2.149   2.714   9.911 -0.5169  0.8620 -0.0773
   98OSM   H12B 9731   2.308   2.723   9.850 -0.6385 -0.7899  0.1669
   98OSM    C11 9732   2.192   2.899   9.805 -0.5808  0.1526 -0.2653
   98OSM   H11A 9733   2.277   2.966   9.781 -1.0561  0.7466 -0.3076
   98OSM   H11B 9734   2.128   2.974   9.856 -0.1660  0.6545 -0.4711
   98OSM      P 9735   1.999   2.768   9.697 -0.0504  0.0179  0.5465
   98OSM    O13 9736   2.042   2.635   9.750  0.1261  0.0766 -0.3454
   98OSM    O14 9737   1.903   2.849   9.771  0.4317  0.3850 -0.3625
   98OSM    O11 9738   1.942   2.741   9.555  0.4640 -0.5707 -0.0415
   98OSM    O12 9739   2.130   2.855   9.684  0.5231  0.0091 -0.2650
   98OSM    C1S 9740   1.986   2.808   9.436  0.3653  0.2902  0.0291
   98OSM    H1S 9741   2.093   2.779   9.423  1.6319  3.1755  2.6836
   98OSM    H1T 9742   2.001   2.918   9.443  0.6634  0.4585 -2.3388
   98OSM     NF 9743   1.972   2.798   9.198 -0.4373  0.0627  0.4666
   98OSM    HNF 9744   1.954   2.878   9.141  2.5033  0.6257  0.1286
   98OSM    C2S 9745   1.901   2.774   9.316 -0.4202  0.0660  0.0246
   98OSM    H2S 9746   1.866   2.669   9.304  0.9156 -0.5149  0.9636
   98OSM    C3S 9747   1.784   2.872   9.338  0.3255  0.2732  0.8181
   98OSM    H3S 9748   1.827   2.975   9.341  1.9852 -0.3557 -0.0425
   98OSM     O3 9749   1.712   2.854   9.460  0.2126  0.3760  0.2141
   98OSM    HO3 9750   1.784   2.804   9.499  0.1366 -0.7477 -1.0138
   98OSM    C4S 9751   1.681   2.872   9.230 -0.5858  0.6183  0.7789
   98OSM    H4S 9752   1.604   2.794   9.232  1.3367 -1.3998 -0.0135
   98OSM    C5S 9753   1.690   2.968   9.133  0.0682 -0.0860  0.0632
   98OSM    H5S 9754   1.771   3.041   9.145 -0.4234  0.7378 -1.3636
   98OSM    C6S 9755   1.592   2.974   9.021 -0.0577  0.1170 -0.0302
   98OSM    H6S 9756   1.556   3.077   9.001  1.1159  0.1055 -2.5999
   98OSM    H6T 9757   1.499   2.921   9.049  0.2647  0.1424  1.1345
   98OSM    C7S 9758   1.645   2.919   8.894  0.1845  0.0146 -0.0936
   98OSM    H7S 9759   1.661   2.811   8.916  0.0080  0.4070  2.2215
   98OSM    H7T 9760   1.742   2.958   8.857  2.2188 -3.8937  0.6349
   98OSM    C8S 9761   1.528   2.935   8.789 -1.0294  0.6861 -0.0541
   98OSM    H8S 9762   1.512   3.041   8.763  0.3257  0.2677 -2.9575
   98OSM    H8T 9763   1.441   2.892   8.844 -0.4831 -0.7400 -0.2537
   98OSM    C9S 9764   1.561   2.857   8.658 -0.3825  0.0066  0.1444
   98OSM    H9S 9765   1.571   2.750   8.685  0.4023 -0.0668 -0.3924
   98OSM    H9T 9766   1.657   2.900   8.621  0.2565 -0.4829  1.1931
   98OSM   C10S 9767   1.454   2.873   8.550  0.0584  0.3284  0.5937
   98OSM   H10S 9768   1.436   2.982   8.536  0.0004  0.3688  0.9879
   98OSM   H10T 9769   1.359   2.823   8.580  0.7322 -0.5019  1.3951
   98OSM   C11S 9770   1.508   2.820   8.408 -0.4247  0.5023 -0.1774
   98OSM   H11S 9771   1.418   2.820   8.344 -0.2239 -1.5795 -0.5208
   98OSM   H11T 9772   1.537   2.713   8.414 -1.2814 -0.0060 -3.4240
   98OSM   C12S 9773   1.628   2.895   8.348  0.5699  0.2585 -0.3065
   98OSM   H12S 9774   1.716   2.849   8.398  1.0730 -0.1423 -1.5075
   98OSM   H12T 9775   1.620   2.999   8.385  2.5927  0.2165  0.3917
   98OSM   C13S 9776   1.636   2.880   8.197  0.1670  0.4671  0.8177
   98OSM   H13S 9777   1.534   2.905   8.160  0.2856 -1.0525 -0.6288
   98OSM   H13T 9778   1.655   2.772   8.181  1.1333  0.7513 -0.0426
   98OSM   C14S 9779   1.731   2.973   8.123 -1.3445 -0.2375  0.7142
   98OSM   H14S 9780   1.749   3.057   8.193  2.0020 -1.0252  0.9518
   98OSM   H14T 9781   1.671   3.011   8.038 -0.9212 -2.2694 -0.5637
   98OSM   C15S 9782   1.868   2.914   8.081 -0.5097 -0.1169  0.7439
   98OSM   H15S 9783   1.846   2.824   8.018  1.4090  0.1010 -0.3131
   98OSM   H15T 9784   1.923   2.856   8.158  0.5556 -0.7680 -0.4590
   98OSM   C16S 9785   1.954   3.022   8.014  0.2936 -0.2610 -0.3140
   98OSM   H16S 9786   1.997   3.096   8.086 -1.9616 -1.2841  2.2845
   98OSM   H16T 9787   1.890   3.090   7.954 -1.1130 -1.0197  0.2822
   98OSM   C17S 9788   2.050   2.957   7.919 -0.1307 -0.3223  0.6755
   98OSM   H17S 9789   2.000   2.912   7.831  0.6043 -1.5322  0.8437
   98OSM   H17T 9790   2.104   2.875   7.971 -0.4047 -0.6926  0.3872
   98OSM   C18S 9791   2.160   3.053   7.866 -0.5862 -0.5943 -0.0489
   98OSM   H18S 9792   2.204   3.015   7.772 -0.5875 -2.1516  0.5410
   98OSM   H18T 9793   2.237   3.080   7.941 -0.3762 -2.8404  0.6320
   98OSM   H18U 9794   2.113   3.151   7.847  1.8131  0.6544  0.1453
   98OSM    C1F 9795   2.085   2.722   9.156 -0.3495 -1.0654  0.0449
   98OSM     OF 9796   2.129   2.634   9.222 -0.0146  0.5236 -0.2003
   98OSM    C2F 9797   2.146   2.757   9.024 -0.1361 -0.0673 -0.2046
   98OSM    H2F 9798   2.226   2.833   9.032 -0.2464  0.0714 -0.4201
   98OSM    H2G 9799   2.062   2.795   8.963  2.9995  3.0220 -3.0185
   98OSM    C3F 9800   2.203   2.632   8.956 -0.1376  0.0945  0.3806
   98OSM    H3F 9801   2.136   2.544   8.966 -0.7863  0.7376  1.7889
   98OSM    H3G 9802   2.299   2.611   9.008 -0.5650  1.1999  1.6683
   98OSM    C4F 9803   2.243   2.642   8.805 -0.7593  0.5381  0.9058
   98OSM    H4F 9804   2.285   2.743   8.782  0.3278 -0.1835 -0.4905
   98OSM    H4G 9805   2.156   2.632   8.736 -0.8260  1.6179  0.8134
   98OSM    C5F 9806   2.352   2.555   8.743 -0.3125  0.4141 -0.0155
   98OSM    H5F 9807   2.440   2.582   8.806 -1.8478  1.9047  1.5743
   98OSM    H5G 9808   2.386   2.570   8.638  1.1224 -0.7260  0.2485
   98OSM    C6F 9809   2.339   2.402   8.777  0.2324 -0.6556  0.6457
   98OSM    H6F 9810   2.376   2.345   8.689  0.5811  1.4517 -0.6534
   98OSM    H6G 9811   2.232   2.381   8.798  0.1478  0.0227  0.9071
   98OSM    C7F 9812   2.422   2.367   8.904 -0.0827 -0.7076 -0.0763
   98OSM    H7F 9813   2.379   2.407   8.999  0.8616 -3.2426  1.5092
   98OSM    H7G 9814   2.524   2.410   8.890 -0.2198 -0.5400 -0.5596
   98OSM    C8F 9815   2.433   2.219   8.924 -0.7292 -0.0379  0.0800
   98OSM    H8F 9816   2.520   2.189   8.987 -2.0356 -2.2887  0.9464
   98OSM    H8G 9817   2.455   2.164   8.830  0.9440 -1.6139  1.3261
   98OSM    C9F 9818   2.299   2.166   8.979 -0.5704 -0.1634  0.6516
   98OSM    H9F 9819   2.287   2.181   9.088  0.4872 -3.1122  1.2918
   98OSM   C10F 9820   2.227   2.075   8.912 -0.4786  0.7120 -0.5573
   98OSM   H10F 9821   2.127   2.055   8.954  0.2307  1.6047  1.6999
   98OSM   C11F 9822   2.253   2.022   8.767  0.5183 -0.7338  0.5563
   98OSM   H11F 9823   2.220   1.916   8.766 -0.0511 -0.5826  1.7608
   98OSM   H11G 9824   2.358   2.030   8.731  0.7112  0.9618  1.3890
   98OSM   C12F 9825   2.154   2.087   8.657 -0.5356 -0.0865 -0.4479
   98OSM   H12F 9826   2.191   2.191   8.643 -0.4860  0.2197  1.6132
   98OSM   H12G 9827   2.045   2.086   8.682 -1.1412 -0.7923 -2.7963
   98OSM   C13F 9828   2.164   2.027   8.519  0.1522  0.2249 -0.7022
   98OSM   H13F 9829   2.081   1.957   8.496 -0.1265  0.2245  0.2571
   98OSM   H13G 9830   2.255   1.964   8.515 -1.0641 -1.5950 -0.8041
   98OSM   C14F 9831   2.172   2.127   8.411 -0.2308 -0.1572 -0.6463
   98OSM   H14F 9832   2.235   2.213   8.442 -0.7170 -0.1209  0.2597
   98OSM   H14G 9833   2.071   2.167   8.391  0.2691  1.6445  0.2424
   98OSM   C15F 9834   2.228   2.060   8.288 -0.3880  0.0802  0.3652
   98OSM   H15F 9835   2.166   1.971   8.265 -0.8212  0.6378 -0.6501
   98OSM   H15G 9836   2.332   2.026   8.309 -0.8399 -1.1087  0.7581
   98OSM   C16F 9837   2.243   2.142   8.161  0.2081  0.4542  0.8220
   98OSM   H16F 9838   2.287   2.242   8.182 -0.0780  0.7278  0.1551
   98OSM   H16G 9839   2.137   2.132   8.129  0.7824 -1.2740 -0.6801
   98OSM   C17F 9840   2.328   2.064   8.057  1.0141  0.1128  0.1754
   98OSM   H17F 9841   2.279   1.964   8.049 -1.4591  1.1280  1.3108
   98OSM   H17G 9842   2.431   2.061   8.099  1.2435  0.5277 -0.3550
   98OSM   C18F 9843   2.339   2.134   7.921 -0.3808  0.3232  0.2579
   98OSM   H18F 9844   2.406   2.077   7.854 -2.0876 -0.7348 -0.6181
   98OSM   H18G 9845   2.379   2.238   7.930  0.3304 -0.0166  1.1686
   98OSM   H18H 9846   2.238   2.141   7.876 -0.7842 -1.6639  0.7468
   99OSM      N 9847   3.035   1.690  10.152  0.0839  0.1658 -0.4339
   99OSM    C15 9848   2.897   1.733  10.189  0.2632  0.6983 -0.9871
   99OSM   H15A 9849   2.904   1.776  10.287  0.9741  1.1747 -1.2491
   99OSM   H15B 9850   2.824   1.652  10.188  0.8078  0.1424  0.8457
   99OSM   H15C 9851   2.860   1.816  10.131 -3.0314  1.9469  2.5389
   99OSM    C14 9852   3.131   1.810  10.152 -0.0667  0.3027  0.5435
   99OSM   H14A 9853   3.093   1.892  10.093 -0.2893 -0.2900 -0.1531
   99OSM   H14B 9854   3.230   1.788  10.116 -0.3375 -1.2647  0.7009
   99OSM   H14C 9855   3.135   1.842  10.255 -0.1159 -1.6105  1.1631
   99OSM    C13 9856   3.093   1.588  10.246  0.2803  0.2901  0.8974
   99OSM   H13A 9857   3.089   1.628  10.346 -1.2984 -1.2421  1.4992
   99OSM   H13B 9858   3.197   1.568  10.222 -0.1384 -0.3225 -0.5277
   99OSM   H13C 9859   3.032   1.499  10.240  1.3007 -0.3876  0.2019
   99OSM    C12 9860   3.023   1.625  10.016 -0.1858 -0.0593  0.2854
   99OSM   H12A 9861   2.946   1.548  10.013 -0.5417  0.2945  0.1729
   99OSM   H12B 9862   3.115   1.572   9.995 -1.8033 -1.7291 -3.7860
   99OSM    C11 9863   3.003   1.720   9.890  0.2174  0.6429  0.0341
   99OSM   H11A 9864   2.977   1.660   9.801 -4.6401  3.3741 -0.7343
   99OSM   H11B 9865   3.100   1.768   9.865 -0.6285  1.4180 -1.9690
   99OSM      P 9866   2.920   1.953   9.823 -0.0902  0.1862 -0.3536
   99OSM    O13 9867   2.787   2.021   9.814 -0.4949 -0.1787  0.4403
   99OSM    O14 9868   3.046   2.023   9.876  0.1491 -0.2329  0.2422
   99OSM    O11 9869   2.957   1.898   9.682  0.2820  0.6491 -0.2531
   99OSM    O12 9870   2.898   1.818   9.910 -0.3231 -0.4970 -0.4153
   99OSM    C1S 9871   3.011   1.985   9.581  0.3342 -0.3047 -0.3967
   99OSM    H1S 9872   3.118   2.013   9.593  0.0351  0.7301 -0.0272
   99OSM    H1T 9873   2.965   2.086   9.585  1.5839  0.2440  0.6768
   99OSM     NF 9874   3.060   2.000   9.344  0.2366 -0.4147 -0.4693
   99OSM    HNF 9875   3.012   2.076   9.301  1.0142 -0.8712 -2.2348
   99OSM    C2S 9876   2.986   1.923   9.440 -0.6755 -0.2675  0.1488
   99OSM    H2S 9877   3.025   1.819   9.439 -0.5787 -0.2822  2.0315
   99OSM    C3S 9878   2.841   1.905   9.405  0.2935  0.1195  0.8045
   99OSM    H3S 9879   2.786   2.001   9.419 -2.3644 -0.8571 -1.8084
   99OSM     O3 9880   2.781   1.791   9.471  0.3383 -0.3214 -0.4879
   99OSM    HO3 9881   2.827   1.781   9.554 -0.2568  1.2860  0.0714
   99OSM    C4S 9882   2.816   1.889   9.253  0.0910 -0.1686  0.3268
   99OSM    H4S 9883   2.838   1.790   9.210 -1.0307 -0.6371  0.8003
   99OSM    C5S 9884   2.779   1.986   9.164 -0.0206 -0.2821 -0.2351
   99OSM    H5S 9885   2.758   2.087   9.201  0.1603 -0.6671  0.9359
   99OSM    C6S 9886   2.760   1.967   9.017  0.7269  0.5524  0.1412
   99OSM    H6S 9887   2.838   2.021   8.960  0.8545  0.0115 -0.2072
   99OSM    H6T 9888   2.663   2.021   9.010 -0.5126 -1.5932 -0.3850
   99OSM    C7S 9889   2.733   1.822   8.958 -0.0704 -0.0841  0.2581
   99OSM    H7S 9890   2.637   1.791   9.002 -0.9283  1.2870 -0.5719
   99OSM    H7T 9891   2.820   1.756   8.981  1.0908  1.7885  1.5506
   99OSM    C8S 9892   2.708   1.818   8.803  0.3999  0.3647 -0.5736
   99OSM    H8S 9893   2.632   1.896   8.779 -0.3706 -1.0307 -2.9589
   99OSM    H8T 9894   2.660   1.723   8.775 -0.3511  0.5161  0.1453
   99OSM    C9S 9895   2.832   1.829   8.709 -0.4705  0.1309  0.5501
   99OSM    H9S 9896   2.914   1.755   8.719  1.1233  1.5581 -1.1444
   99OSM    H9T 9897   2.872   1.928   8.736 -1.1887  0.7989 -0.7422
   99OSM   C10S 9898   2.779   1.817   8.567 -0.4119 -0.5236  0.1150
   99OSM   H10S 9899   2.715   1.895   8.520  0.2866 -1.0438 -1.8057
   99OSM   H10T 9900   2.737   1.717   8.547  3.0450 -1.5342 -3.4593
   99OSM   C11S 9901   2.898   1.820   8.468  0.2549  0.3339 -0.1823
   99OSM   H11S 9902   2.863   1.810   8.363 -0.9326  0.4177  0.1849
   99OSM   H11T 9903   2.956   1.726   8.480 -0.7831 -0.2411  0.5320
   99OSM   C12S 9904   2.985   1.941   8.476 -0.1545 -0.9658 -0.4325
   99OSM   H12S 9905   2.914   2.027   8.474  1.2100  0.1798 -1.3421
   99OSM   H12T 9906   3.023   1.935   8.580  2.0928 -2.9337 -1.2795
   99OSM   C13S 9907   3.109   1.948   8.387  0.0328 -0.1906 -0.0009
   99OSM   H13S 9908   3.076   1.931   8.282  0.3733  0.6351 -0.2531
   99OSM   H13T 9909   3.172   1.862   8.417  1.8461  1.1368  0.2086
   99OSM   C14S 9910   3.191   2.079   8.401  0.3784  0.2393 -0.5196
   99OSM   H14S 9911   3.281   2.070   8.337  2.0849  1.3862  1.5973
   99OSM   H14T 9912   3.229   2.076   8.505 -2.4277  0.8810  0.6321
   99OSM   C15S 9913   3.121   2.212   8.377  0.2880 -0.7358 -0.4910
   99OSM   H15S 9914   3.042   2.247   8.447  0.3789 -0.5842 -0.4640
   99OSM   H15T 9915   3.071   2.215   8.278 -1.7069  2.1500  0.4550
   99OSM   C16S 9916   3.240   2.311   8.393  0.4097  0.0138  0.1411
   99OSM   H16S 9917   3.330   2.288   8.332 -0.0370 -1.0542 -0.1391
   99OSM   H16T 9918   3.265   2.306   8.501 -0.2869  0.8489  0.3602
   99OSM   C17S 9919   3.205   2.456   8.362 -0.3512 -0.4191  0.7823
   99OSM   H17S 9920   3.133   2.457   8.277 -0.4124 -1.2922  0.8135
   99OSM   H17T 9921   3.295   2.507   8.323 -0.9033 -0.3481 -0.4581
   99OSM   C18S 9922   3.135   2.537   8.473 -0.4326  0.1548  0.8060
   99OSM   H18S 9923   3.028   2.506   8.475 -1.1884  2.5562  0.0543
   99OSM   H18T 9924   3.144   2.644   8.447  1.1631  0.2112  1.4697
   99OSM   H18U 9925   3.188   2.529   8.571 -0.9495  0.2287  1.0948
   99OSM    C1F 9926   3.189   1.993   9.328  0.6909 -0.6342  0.7022
   99OSM     OF 9927   3.252   1.900   9.377 -0.3874  0.4187 -0.4443
   99OSM    C2F 9928   3.273   2.101   9.262  0.0308  0.0981 -0.1858
   99OSM    H2F 9929   3.351   2.138   9.332  0.1833  2.0493 -1.3308
   99OSM    H2G 9930   3.200   2.184   9.254  0.2070  0.1062 -2.0347
   99OSM    C3F 9931   3.341   2.055   9.137 -0.1205 -0.5474  0.4322
   99OSM    H3F 9932   3.404   2.140   9.103  0.0471 -0.7913  0.1321
   99OSM    H3G 9933   3.410   1.969   9.147 -1.6125 -1.9316 -0.7542
   99OSM    C4F 9934   3.241   2.019   9.026  0.4185 -0.0019 -0.2529
   99OSM    H4F 9935   3.170   2.100   9.002 -1.3759 -1.4800 -0.2109
   99OSM    H4G 9936   3.179   1.931   9.056 -0.5441  0.6443 -0.3073
   99OSM    C5F 9937   3.309   1.965   8.906 -0.1564  0.4534  0.4505
   99OSM    H5F 9938   3.394   1.902   8.940 -0.9650 -1.4470 -0.8668
   99OSM    H5G 9939   3.347   2.044   8.838  0.1854 -0.1686 -0.0812
   99OSM    C6F 9940   3.210   1.867   8.826  0.2578  0.0060 -0.4257
   99OSM    H6F 9941   3.133   1.933   8.780  2.0877  2.6379  0.0776
   99OSM    H6G 9942   3.158   1.799   8.897  2.5023 -0.2536  1.0509
   99OSM    C7F 9943   3.288   1.796   8.715 -0.0260  0.0982 -0.1943
   99OSM    H7F 9944   3.387   1.758   8.748  0.2807  0.5155 -0.6160
   99OSM    H7G 9945   3.310   1.879   8.645 -1.5213  2.1479  1.6148
   99OSM    C8F 9946   3.222   1.683   8.634 -0.5247 -0.4749 -0.7927
   99OSM    H8F 9947   3.127   1.725   8.595 -0.9944 -0.0738  0.7235
   99OSM    H8G 9948   3.202   1.602   8.708 -0.8343 -0.0045 -0.3571
   99OSM    C9F 9949   3.315   1.617   8.531  0.4084  0.7066  0.2778
   99OSM    H9F 9950   3.419   1.650   8.531  0.5601  0.3505 -1.6509
   99OSM   C10F 9951   3.280   1.513   8.450 -0.2900 -1.3394 -1.0002
   99OSM   H10F 9952   3.345   1.472   8.371  1.1249 -0.0137 -0.5833
   99OSM   C11F 9953   3.148   1.446   8.464 -0.6331  0.5169 -0.6464
   99OSM   H11F 9954   3.066   1.514   8.496 -0.6799 -0.6520  1.9318
   99OSM   H11G 9955   3.147   1.376   8.550 -2.3917 -0.2424 -1.2300
   99OSM   C12F 9956   3.116   1.362   8.339 -0.3392  0.7633 -0.1553
   99OSM   H12F 9957   3.145   1.423   8.250 -0.1564 -0.8687 -1.2596
   99OSM   H12G 9958   3.005   1.359   8.331 -0.3262 -0.1734 -0.0840
   99OSM   C13F 9959   3.179   1.220   8.330 -0.2225 -0.5102 -0.2877
   99OSM   H13F 9960   3.101   1.161   8.383  0.1105 -0.7722 -0.0905
   99OSM   H13G 9961   3.270   1.224   8.393 -1.4391 -0.8957  1.5583
   99OSM   C14F 9962   3.211   1.167   8.188 -0.1344  0.4841 -0.8590
   99OSM   H14F 9963   3.123   1.139   8.126 -0.4549 -1.1134  0.2679
   99OSM   H14G 9964   3.247   1.063   8.201 -0.0097  0.6868  0.6082
   99OSM   C15F 9965   3.325   1.239   8.106  0.4405  0.3867 -0.3971
   99OSM   H15F 9966   3.421   1.230   8.162  0.1382 -0.6982 -0.0173
   99OSM   H15G 9967   3.294   1.346   8.110  2.6066  1.0379  2.1786
   99OSM   C16F 9968   3.348   1.191   7.962  0.1461 -0.0453  0.1287
   99OSM   H16F 9969   3.412   1.101   7.951  0.8613  0.3290  1.0716
   99OSM   H16G 9970   3.403   1.273   7.912  1.5486  0.0108  1.6901
   99OSM   C17F 9971   3.215   1.175   7.878 -0.7447  0.3370  0.7843
   99OSM   H17F 9972   3.177   1.078   7.917  0.9656  0.0096  1.7484
   99OSM   H17G 9973   3.252   1.151   7.776 -0.8249 -1.8483  1.2294
   99OSM   C18F 9974   3.109   1.285   7.877 -0.1101 -0.5087 -0.2197
   99OSM   H18F 9975   3.060   1.300   7.976  1.6387  0.5355  0.5474
   99OSM   H18G 9976   3.036   1.260   7.797 -0.5918 -0.8733  0.3257
   99OSM   H18H 9977   3.163   1.379   7.852  0.5263 -0.3689  1.4981
  100OSM      N 9978   5.677   3.299   9.606 -0.5777  0.5891 -0.6240
  100OSM    C15 9979   5.725   3.170   9.560  0.0156 -0.4275 -0.5515
  100OSM   H15A 9980   5.805   3.137   9.624 -1.2086  0.0147  1.2938
  100OSM   H15B 9981   5.765   3.170   9.460 -0.0307 -1.3007 -0.5813
  100OSM   H15C 9982   5.650   3.092   9.565  0.7062 -1.0985 -0.5332
  100OSM    C14 9983   5.570   3.335   9.513 -0.3012 -0.0913  1.2258
  100OSM   H14A 9984   5.613   3.330   9.413 -3.3811  0.9699 -0.2680
  100OSM   H14B 9985   5.544   3.438   9.531 -0.9383  0.0165 -0.1504
  100OSM   H14C 9986   5.480   3.276   9.519 -0.6916  0.2670 -0.4305
  100OSM    C13 9987   5.615   3.276   9.739 -0.5381  0.2119 -0.0713
  100OSM   H13A 9988   5.690   3.229   9.801 -0.7016  0.6210  0.4434
  100OSM   H13B 9989   5.525   3.217   9.742  0.8524 -1.9874  0.2798
  100OSM   H13C 9990   5.597   3.374   9.782  1.8365  1.3104 -1.3930
  100OSM    C12 9991   5.788   3.394   9.608  0.2275  0.4433 -0.2993
  100OSM   H12A 9992   5.798   3.412   9.501 -3.3032 -2.0866 -1.2354
  100OSM   H12B 9993   5.878   3.340   9.636  0.8474  0.7802 -1.5387
  100OSM    C11 9994   5.783   3.517   9.696  0.5321 -0.2670  0.8558
  100OSM   H11A 9995   5.883   3.565   9.686 -0.6345  2.1867  0.2435
  100OSM   H11B 9996   5.780   3.496   9.805  2.8608 -1.1653  0.8004
  100OSM      P 9997   5.647   3.746   9.691 -0.3934 -0.4318  0.0914
  100OSM    O13 9998   5.506   3.772   9.666  0.2508 -0.1093 -0.2446
  100OSM    O14 9999   5.696   3.770   9.825  0.5422 -0.5484 -0.1278
  100OSM    O1110000   5.724   3.842   9.595  0.1969  0.1538 -0.4188
  100OSM    O1210001   5.673   3.597   9.647 -0.0498  0.6405 -0.1624
  100OSM    C1S10002   5.857   3.817   9.546  0.2814 -0.0355  0.1252
  100OSM    H1S10003   5.861   3.712   9.509 -1.3307  0.0005 -0.1972
  100OSM    H1T10004   5.925   3.843   9.630 -1.0349  3.1106  0.3650
  100OSM     NF10005   5.974   3.857   9.331 -0.2352 -0.0401  0.2702
  100OSM    HNF10006   6.067   3.893   9.335  0.2480 -1.0905 -0.7955
  100OSM    C2S10007   5.882   3.915   9.425  0.0582  0.5801  0.3099
  100OSM    H2S10008   5.787   3.902   9.369  0.2858  1.0675 -0.2017
  100OSM    C3S10009   5.905   4.057   9.473  0.6201 -0.3792 -0.2819
  100OSM    H3S10010   5.995   4.074   9.537 -0.5064 -0.8829  1.5013
  100OSM     O310011   5.801   4.108   9.554 -0.2201 -0.6434  0.4518
  100OSM    HO310012   5.728   4.046   9.550 -0.1798 -0.9262  2.7169
  100OSM    C4S10013   5.921   4.139   9.347  0.5236 -0.6547 -0.0709
  100OSM    H4S10014   6.022   4.182   9.340  0.2886 -0.3572 -2.6980
  100OSM    C5S10015   5.820   4.175   9.256 -1.0271 -0.6502 -0.8520
  100OSM    H5S10016   5.720   4.130   9.272 -0.5531 -0.7558  2.5592
  100OSM    C6S10017   5.826   4.253   9.132  0.1751 -0.7794 -0.4849
  100OSM    H6S10018   5.928   4.298   9.132 -0.7532  1.5590  1.9686
  100OSM    H6T10019   5.750   4.334   9.130  1.5008  0.6477  1.8914
  100OSM    C7S10020   5.822   4.148   9.015  0.0641 -0.1526  0.3463
  100OSM    H7S10021   5.811   4.187   8.912  3.0813 -1.6059 -0.6439
  100OSM    H7T10022   5.751   4.066   9.038 -0.3505 -0.0006 -0.3632
  100OSM    C8S10023   5.956   4.073   9.012  0.6202 -1.3049 -0.8760
  100OSM    H8S10024   5.969   4.016   9.106  0.5098  1.7604  1.1479
  100OSM    H8T10025   6.036   4.149   8.998 -0.7460  0.4536  0.4847
  100OSM    C9S10026   5.976   3.984   8.891  0.2720  0.4347  0.7487
  100OSM    H9S10027   5.979   4.041   8.795  1.3869 -0.2248  0.3800
  100OSM    H9T10028   5.890   3.915   8.882  1.4319 -0.9935  0.2914
  100OSM   C10S10029   6.099   3.900   8.884  1.0060 -0.5524 -0.8400
  100OSM   H10S10030   6.090   3.816   8.812  0.2043 -2.1385  1.0293
  100OSM   H10T10031   6.126   3.855   8.981  2.0784 -1.5669 -1.5851
  100OSM   C11S10032   6.230   3.984   8.860  0.3975 -0.9823  0.1583
  100OSM   H11S10033   6.263   4.062   8.932  2.6699 -0.4840 -1.3318
  100OSM   H11T10034   6.226   4.042   8.765  1.7306  1.2583  1.3708
  100OSM   C12S10035   6.345   3.886   8.843  0.3573 -0.1162 -0.0008
  100OSM   H12S10036   6.370   3.848   8.944 -0.9322  1.9767  1.1853
  100OSM   H12T10037   6.435   3.947   8.821  0.8811 -1.1233 -0.6969
  100OSM   C13S10038   6.340   3.762   8.754  0.2346  0.0714  0.2999
  100OSM   H13S10039   6.243   3.709   8.765 -1.5344  3.2400  1.2924
  100OSM   H13T10040   6.425   3.695   8.777  0.0645 -0.8145 -1.5108
  100OSM   C14S10041   6.353   3.806   8.609 -0.1688  0.2869  0.2278
  100OSM   H14S10042   6.439   3.876   8.604  0.1364 -0.0390  0.7491
  100OSM   H14T10043   6.264   3.864   8.576  1.3976  1.8669 -1.4310
  100OSM   C15S10044   6.378   3.676   8.522  0.7319  0.4459  0.3749
  100OSM   H15S10045   6.287   3.612   8.525  0.0361  1.4180  0.1700
  100OSM   H15T10046   6.458   3.615   8.572 -0.2743 -0.3727  1.0435
  100OSM   C16S10047   6.412   3.684   8.373 -0.0318 -0.1162 -0.3337
  100OSM   H16S10048   6.335   3.748   8.325  1.4401  1.2183 -1.0039
  100OSM   H16T10049   6.410   3.589   8.316  1.6173 -0.9653  0.9495
  100OSM   C17S10050   6.542   3.766   8.342 -0.2210  0.4368  0.2783
  100OSM   H17S10051   6.631   3.713   8.382  0.0055  0.5558 -0.0605
  100OSM   H17T10052   6.532   3.868   8.385  2.9593 -0.1886  2.9053
  100OSM   C18S10053   6.575   3.776   8.190  0.3291  0.3334 -0.4034
  100OSM   H18S10054   6.680   3.798   8.160  1.3317 -3.6248 -0.4659
  100OSM   H18T10055   6.492   3.828   8.139 -2.3388 -1.4974  1.7385
  100OSM   H18U10056   6.566   3.669   8.160  0.3661  0.2307 -0.0615
  100OSM    C1F10057   5.957   3.741   9.259  0.6868 -0.4931  0.0673
  100OSM     OF10058   5.845   3.696   9.239  0.1961 -0.1402  0.5227
  100OSM    C2F10059   6.078   3.679   9.205 -0.1629 -0.9952  0.1730
  100OSM    H2F10060   6.139   3.635   9.286  0.2187 -0.7537  0.0205
  100OSM    H2G10061   6.142   3.762   9.167 -0.1988 -0.0895  1.9850
  100OSM    C3F10062   6.048   3.579   9.088 -0.4508  0.0249 -0.3696
  100OSM    H3F10063   5.981   3.627   9.013  0.6298  1.2966 -0.5732
  100OSM    H3G10064   5.984   3.497   9.126  2.6650 -2.9379 -1.0317
  100OSM    C4F10065   6.169   3.507   9.018  0.6010  0.6655  0.0327
  100OSM    H4F10066   6.239   3.452   9.084  0.3824  0.8675  0.4367
  100OSM    H4G10067   6.226   3.585   8.962 -1.1674  1.3900 -0.8375
  100OSM    C5F10068   6.130   3.415   8.904  0.3871 -0.6845  0.3688
  100OSM    H5F10069   6.045   3.451   8.842  0.2530  0.7178  1.3104
  100OSM    H5G10070   6.115   3.312   8.944  0.7017 -0.5214  0.9238
  100OSM    C6F10071   6.248   3.397   8.806  0.0956  0.4042 -0.1711
  100OSM    H6F10072   6.333   3.356   8.864 -0.5207 -3.3150 -1.5977
  100OSM    H6G10073   6.284   3.495   8.769  1.7880  0.5048  1.5789
  100OSM    C7F10074   6.227   3.307   8.687  0.8743  0.3306 -0.7214
  100OSM    H7F10075   6.208   3.202   8.717  0.0422  0.6761  0.0362
  100OSM    H7G10076   6.323   3.303   8.632  2.0464  2.1214  1.0352
  100OSM    C8F10077   6.114   3.359   8.595 -0.2151  0.1728  0.4731
  100OSM    H8F10078   6.159   3.452   8.555  1.3928 -0.4998  0.6373
  100OSM    H8G10079   6.024   3.363   8.660 -2.1674 -2.0092 -1.8907
  100OSM    C9F10080   6.100   3.250   8.493  0.1827 -0.0443  0.7973
  100OSM    H9F10081   6.191   3.233   8.433  0.1839 -3.9813  1.6911
  100OSM   C10F10082   5.986   3.182   8.471 -0.1422  0.6864  0.3256
  100OSM   H10F10083   5.980   3.100   8.398 -1.2462  1.2583 -0.2518
  100OSM   C11F10084   5.858   3.190   8.545 -0.4432  0.4343 -0.1251
  100OSM   H11F10085   5.865   3.222   8.651 -0.4327 -1.4681  0.4960
  100OSM   H11G10086   5.802   3.094   8.537 -1.7765  1.1663  0.1178
  100OSM   C12F10087   5.762   3.290   8.484 -0.0508  0.0529  0.4525
  100OSM   H12F10088   5.802   3.393   8.498  2.5850 -0.9789  1.0397
  100OSM   H12G10089   5.661   3.295   8.531 -0.7300  1.1357 -1.0208
  100OSM   C13F10090   5.735   3.259   8.332 -0.8804 -0.0015 -0.0363
  100OSM   H13F10091   5.690   3.157   8.332  0.1171 -0.4513 -0.7643
  100OSM   H13G10092   5.832   3.252   8.280  0.1339 -3.2978  1.9736
  100OSM   C14F10093   5.640   3.358   8.253 -0.0560  0.1782 -0.5396
  100OSM   H14F10094   5.542   3.368   8.305  0.0198  0.7294 -0.4920
  100OSM   H14G10095   5.616   3.315   8.153  1.9098  1.1047 -1.4624
  100OSM   C15F10096   5.704   3.496   8.231 -0.2082 -0.0356 -0.0646
  100OSM   H15F10097   5.811   3.488   8.201 -0.2565  1.0014 -0.5682
  100OSM   H15G10098   5.705   3.548   8.330  1.4060  0.6852 -0.4294
  100OSM   C16F10099   5.630   3.574   8.121  0.6009  0.8536  0.1285
  100OSM   H16F10100   5.520   3.584   8.135 -0.2934 -4.5094 -1.0536
  100OSM   H16G10101   5.645   3.515   8.029 -2.2604  0.1836  0.0153
  100OSM   C17F10102   5.686   3.712   8.094  0.8817 -0.3792 -0.1648
  100OSM   H17F10103   5.688   3.766   8.192  2.6466  0.1421 -0.4480
  100OSM   H17G10104   5.611   3.767   8.033 -1.8502 -2.0397  1.4798
  100OSM   C18F10105   5.815   3.708   8.018 -0.1972 -0.6294  0.6968
  100OSM   H18F10106   5.865   3.806   8.003 -2.1643  0.0992 -1.8661
  100OSM   H18G10107   5.803   3.660   7.918  0.8262  0.2530  0.1286
  100OSM   H18H10108   5.891   3.644   8.068  1.0081  0.6162  0.5079
  101OSM      N10109   1.730   3.838   9.729  0.0122 -0.3419 -0.0212
  101OSM    C1510110   1.836   3.759   9.664 -0.3362 -0.4135 -0.3254
  101OSM   H15A10111   1.800   3.660   9.639  2.1954 -1.4360 -0.2541
  101OSM   H15B10112   1.913   3.745   9.739 -0.2511 -1.6010 -0.6070
  101OSM   H15C10113   1.874   3.796   9.570 -0.7704  0.7873 -0.0393
  101OSM    C1410114   1.652   3.894   9.620 -0.5823  0.3012  0.6361
  101OSM   H14A10115   1.713   3.955   9.554 -2.5855  2.3011  0.5044
  101OSM   H14B10116   1.586   3.968   9.665 -0.2913  1.3211 -0.5511
  101OSM   H14C10117   1.601   3.816   9.567  1.5942 -0.4960 -0.4292
  101OSM    C1310118   1.632   3.755   9.806 -0.5085  0.4246  0.0669
  101OSM   H13A10119   1.683   3.701   9.885 -0.0845  0.4351 -0.1984
  101OSM   H13B10120   1.589   3.683   9.738  1.7516 -0.0250 -0.9906
  101OSM   H13C10121   1.548   3.807   9.849 -2.1150 -1.2399 -0.9202
  101OSM    C1210122   1.785   3.947   9.820  0.3343 -0.0239  0.1260
  101OSM   H12A10123   1.836   4.016   9.754  0.3399  0.6430  0.7985
  101OSM   H12B10124   1.857   3.911   9.892 -1.8049 -0.1475  2.3472
  101OSM    C1110125   1.684   4.037   9.885 -0.3188 -0.0947 -0.5445
  101OSM   H11A10126   1.745   4.087   9.964 -2.0220  1.2368 -0.0213
  101OSM   H11B10127   1.611   3.975   9.941  1.0960 -0.7280  0.6883
  101OSM      P10128   1.709   4.249   9.752 -0.3996 -0.1110 -0.1230
  101OSM    O1310129   1.689   4.351   9.854  0.2118 -0.2585 -0.0933
  101OSM    O1410130   1.848   4.206   9.723 -0.1350  0.0246  0.0146
  101OSM    O1110131   1.628   4.289   9.626 -0.4003 -0.2577  0.5084
  101OSM    O1210132   1.623   4.120   9.789  0.0529  0.7636  0.5561
  101OSM    C1S10133   1.688   4.271   9.497  0.0775 -0.7459  0.3758
  101OSM    H1S10134   1.759   4.185   9.499  0.9511 -0.1108 -1.3762
  101OSM    H1T10135   1.738   4.366   9.470 -1.8375  0.9476  2.3120
  101OSM     NF10136   1.655   4.209   9.270 -1.2919 -0.6937 -0.1712
  101OSM    HNF10137   1.663   4.279   9.199 -0.0385 -1.5378 -0.9003
  101OSM    C2S10138   1.580   4.244   9.387 -0.3819 -0.5223  0.0573
  101OSM    H2S10139   1.517   4.156   9.412  0.4693 -0.9803  0.6380
  101OSM    C3S10140   1.487   4.364   9.370  0.3743 -0.5712  0.1473
  101OSM    H3S10141   1.551   4.452   9.346 -0.3845  0.4389  1.6947
  101OSM     O310142   1.398   4.395   9.477 -0.2315  0.1361  0.1804
  101OSM    HO310143   1.438   4.356   9.555  1.0540  1.1328  0.0650
  101OSM    C4S10144   1.396   4.345   9.259 -0.7278  0.9266  0.2628
  101OSM    H4S10145   1.341   4.254   9.286 -2.7719  2.1933  0.5557
  101OSM    C5S10146   1.367   4.420   9.153 -0.1012 -0.3679 -0.2815
  101OSM    H5S10147   1.405   4.523   9.154  1.2277 -0.8289 -1.0151
  101OSM    C6S10148   1.270   4.376   9.049  0.4586  0.0565 -0.4256
  101OSM    H6S10149   1.189   4.452   9.053  0.0353 -0.3254 -1.3792
  101OSM    H6T10150   1.234   4.272   9.060  0.6126 -0.0602 -0.9922
  101OSM    C7S10151   1.334   4.397   8.908  0.3882  0.2150  0.2739
  101OSM    H7S10152   1.377   4.499   8.917 -0.2147  0.3860  1.5211
  101OSM    H7T10153   1.264   4.407   8.822 -0.3388 -2.0427  0.5453
  101OSM    C8S10154   1.437   4.293   8.875 -0.1203 -0.3991 -0.1371
  101OSM    H8S10155   1.392   4.198   8.838  0.7531 -0.8151 -0.1870
  101OSM    H8T10156   1.488   4.262   8.969  1.0261  0.2487 -0.5191
  101OSM    C9S10157   1.555   4.332   8.777  0.0417 -0.1607 -0.4833
  101OSM    H9S10158   1.597   4.428   8.813  2.4376 -1.2777 -0.0959
  101OSM    H9T10159   1.505   4.340   8.678  0.0644  2.5703 -0.3515
  101OSM   C10S10160   1.664   4.230   8.773  0.1994  0.0390  0.4271
  101OSM   H10S10161   1.629   4.132   8.734  2.0342 -0.4298 -0.1603
  101OSM   H10T10162   1.702   4.214   8.876  1.5816 -1.1349 -0.2176
  101OSM   C11S10163   1.785   4.279   8.691 -0.1928  0.0748  0.8753
  101OSM   H11S10164   1.865   4.202   8.684 -0.0732  0.1274  1.5405
  101OSM   H11T10165   1.831   4.367   8.743  0.8297 -1.6315  3.0274
  101OSM   C12S10166   1.755   4.322   8.549 -0.6873 -0.0283  0.9461
  101OSM   H12S10167   1.743   4.431   8.532  0.8396 -0.2751 -2.8183
  101OSM   H12T10168   1.669   4.267   8.504  1.2000 -2.1529 -0.3388
  101OSM   C13S10169   1.869   4.280   8.452 -0.2754  0.0712  0.3154
  101OSM   H13S10170   1.897   4.174   8.468  2.0491  0.5883  0.0151
  101OSM   H13T10171   1.956   4.344   8.478  0.9719  0.2704 -3.6634
  101OSM   C14S10172   1.843   4.299   8.303  0.4194  0.1843 -0.2354
  101OSM   H14S10173   1.942   4.289   8.253 -1.4568 -0.0264 -4.3230
  101OSM   H14T10174   1.811   4.403   8.282 -1.8458 -0.1610  1.0953
  101OSM   C15S10175   1.734   4.209   8.247 -0.1837 -0.1949 -0.3767
  101OSM   H15S10176   1.642   4.191   8.307 -0.1322  0.3038 -0.1475
  101OSM   H15T10177   1.782   4.109   8.233  2.3775  0.6888  1.3548
  101OSM   C16S10178   1.686   4.266   8.121 -0.2502 -0.2473  0.4676
  101OSM   H16S10179   1.775   4.268   8.055  0.0709  1.6937  0.8911
  101OSM   H16T10180   1.657   4.369   8.152 -1.1852 -0.0779 -0.9016
  101OSM   C17S10181   1.561   4.194   8.059 -0.2836 -0.1038  0.0609
  101OSM   H17S10182   1.485   4.198   8.140  0.1344  1.4254  0.3981
  101OSM   H17T10183   1.584   4.086   8.045 -0.8065 -0.3786  1.1410
  101OSM   C18S10184   1.509   4.261   7.935  0.0028  0.7518 -0.1592
  101OSM   H18S10185   1.589   4.257   7.858 -0.5533 -0.4155 -0.7017
  101OSM   H18T10186   1.475   4.365   7.950 -2.3925  0.0853 -0.5815
  101OSM   H18U10187   1.421   4.201   7.904 -0.2908  1.3014 -0.3919
  101OSM    C1F10188   1.712   4.093   9.255  0.7146  0.8584  0.4922
  101OSM     OF10189   1.674   3.995   9.317  0.1290  0.1602 -0.7609
  101OSM    C2F10190   1.817   4.084   9.152  0.2610 -0.7437  0.3564
  101OSM    H2F10191   1.917   4.067   9.197  1.4398 -1.3139 -2.2729
  101OSM    H2G10192   1.826   4.184   9.105 -1.7139 -1.0642 -0.8383
  101OSM    C3F10193   1.797   3.974   9.048 -0.1062  0.7196 -0.1179
  101OSM    H3F10194   1.700   3.997   8.999  0.4795  2.2992 -0.5870
  101OSM    H3G10195   1.793   3.869   9.084 -0.0746 -0.4113 -3.1525
  101OSM    C4F10196   1.903   3.982   8.938  0.1397  0.3479 -0.4957
  101OSM    H4F10197   2.004   3.952   8.973 -0.4872 -0.5261  0.6615
  101OSM    H4G10198   1.913   4.087   8.903 -1.4049  0.6036 -0.2298
  101OSM    C5F10199   1.873   3.892   8.813 -0.1131  0.0227 -0.0989
  101OSM    H5F10200   1.793   3.947   8.760 -0.1006 -0.4601 -0.6243
  101OSM    H5G10201   1.831   3.801   8.862 -3.3613  1.0321 -0.7937
  101OSM    C6F10202   2.004   3.858   8.732  0.3654  0.0282 -0.0584
  101OSM    H6F10203   2.053   3.950   8.693  1.4736 -0.3630  0.3557
  101OSM    H6G10204   2.065   3.788   8.794 -1.0210 -1.8699 -0.7483
  101OSM    C7F10205   1.970   3.767   8.609  0.2360  0.5785 -0.0649
  101OSM    H7F10206   1.884   3.812   8.554 -1.5549 -0.5207  1.7011
  101OSM    H7G10207   1.934   3.669   8.646 -1.4745  0.6650 -1.3927
  101OSM    C8F10208   2.085   3.736   8.506 -0.7239 -0.2717 -0.2612
  101OSM    H8F10209   2.042   3.654   8.444 -1.0316 -0.0467 -0.3477
  101OSM    H8G10210   2.164   3.685   8.565 -0.3294 -0.4445 -0.9350
  101OSM    C9F10211   2.133   3.858   8.441  0.7789 -0.2530  0.9567
  101OSM    H9F10212   2.197   3.930   8.494 -0.4974  0.2871  1.7947
  101OSM   C10F10213   2.114   3.889   8.313  0.3410  0.1151  0.0202
  101OSM   H10F10214   2.153   3.983   8.272  0.4135 -1.1845 -3.1828
  101OSM   C11F10215   2.032   3.809   8.211  0.4419 -0.0913 -0.0388
  101OSM   H11F10216   1.926   3.822   8.241  0.1839  0.7772 -1.2530
  101OSM   H11G10217   2.043   3.700   8.229  0.8765 -0.0083  0.2067
  101OSM   C12F10218   2.045   3.851   8.064 -0.3574 -0.8485  0.1395
  101OSM   H12F10219   2.028   3.753   8.013 -1.1342 -1.2719  1.1869
  101OSM   H12G10220   2.150   3.879   8.040 -1.3246  0.7244 -2.7765
  101OSM   C13F10221   1.947   3.951   8.010  0.1690 -0.8262  0.0668
  101OSM   H13F10222   1.957   4.049   8.062  0.3780 -0.0038 -1.4837
  101OSM   H13G10223   1.844   3.912   8.017  0.4362 -1.5001  0.3096
  101OSM   C14F10224   1.984   3.966   7.863 -0.7135  0.6191  0.4922
  101OSM   H14F10225   1.965   3.864   7.824 -3.9951  0.5042  2.0019
  101OSM   H14G10226   2.089   4.000   7.859  0.5090 -2.0121  4.3768
  101OSM   C15F10227   1.894   4.060   7.788  0.7305 -0.2273  0.0434
  101OSM   H15F10228   1.875   4.153   7.845  0.1533  0.2421 -0.8760
  101OSM   H15G10229   1.799   4.005   7.773  0.0411  0.9791 -0.2004
  101OSM   C16F10230   1.952   4.092   7.650  0.0227  0.1213 -0.3926
  101OSM   H16F10231   1.944   4.008   7.577 -0.7344 -1.8782  1.8583
  101OSM   H16G10232   2.059   4.121   7.648  0.3886 -1.0546  0.8967
  101OSM   C17F10233   1.875   4.211   7.591 -0.0684 -0.6573  0.2834
  101OSM   H17F10234   1.868   4.286   7.672  0.6563  0.3822 -0.5768
  101OSM   H17G10235   1.770   4.184   7.567 -1.0388  2.4279  0.6404
  101OSM   C18F10236   1.927   4.258   7.454 -0.0391  0.5800  0.7808
  101OSM   H18F10237   2.029   4.297   7.468 -0.2166  0.6119  2.0594
  101OSM   H18G10238   1.870   4.340   7.406  0.8215  0.2982 -0.8038
  101OSM   H18H10239   1.919   4.173   7.383  0.1950  1.7369 -0.6773
  102OSM      N10240   3.096   5.402  10.107 -0.2841 -0.1445  0.4408
  102OSM    C1510241   3.117   5.259  10.106  0.5149  0.5601  0.4953
  102OSM   H15A10242   3.142   5.207  10.197 -1.4725 -3.1565 -0.8569
  102OSM   H15B10243   3.183   5.224  10.027 -0.6851 -3.5522  1.0557
  102OSM   H15C10244   3.020   5.218  10.083  0.3834  1.2761 -0.2649
  102OSM    C1410245   3.046   5.454   9.975 -0.1843  0.9835  0.4743
  102OSM   H14A10246   3.014   5.557   9.978 -0.1874  1.0767 -1.4681
  102OSM   H14B10247   2.959   5.393   9.954  0.5263 -1.0791  2.9379
  102OSM   H14C10248   3.125   5.446   9.903 -0.9443  2.7542 -0.6340
  102OSM    C1310249   3.000   5.436  10.216 -0.0771  0.3403  0.2085
  102OSM   H13A10250   2.965   5.538  10.212 -1.3127 -0.1066 -1.2017
  102OSM   H13B10251   3.057   5.417  10.306  0.2796  0.4706  0.0108
  102OSM   H13C10252   2.911   5.374  10.211  1.9803 -2.8098 -0.5258
  102OSM    C1210253   3.229   5.466  10.134 -0.5428 -0.1503  0.7531
  102OSM   H12A10254   3.260   5.442  10.234 -0.3593  0.1919  0.7811
  102OSM   H12B10255   3.220   5.574  10.136  0.3331 -0.0186 -0.7030
  102OSM    C1110256   3.359   5.425  10.055  0.3763 -0.8170 -0.1642
  102OSM   H11A10257   3.367   5.315  10.044 -0.1190 -0.6552 -2.6881
  102OSM   H11B10258   3.450   5.447  10.115  0.2078  0.2019 -0.2512
  102OSM      P10259   3.381   5.632   9.893 -0.0925 -0.4071 -0.6261
  102OSM    O1310260   3.274   5.680   9.801  0.3821 -0.4013 -0.1571
  102OSM    O1410261   3.406   5.705  10.015  0.0125  0.0175 -0.1875
  102OSM    O1110262   3.516   5.630   9.823 -0.0516 -0.0765 -0.0542
  102OSM    O1210263   3.355   5.478   9.921 -0.2499 -0.7216 -0.1378
  102OSM    C1S10264   3.549   5.543   9.716  0.6561  0.6497 -0.5712
  102OSM    H1S10265   3.459   5.487   9.681  0.0501 -0.0310  1.8232
  102OSM    H1T10266   3.619   5.463   9.749 -0.3700 -0.9999 -2.2065
  102OSM     NF10267   3.621   5.518   9.481  0.3542 -0.9673  0.6005
  102OSM    HNF10268   3.711   5.491   9.449  0.7874  0.8967  0.1093
  102OSM    C2S10269   3.613   5.610   9.591 -1.1392  0.0941 -0.5102
  102OSM    H2S10270   3.538   5.688   9.563 -0.9238  0.3231 -0.4476
  102OSM    C3S10271   3.741   5.683   9.632  0.1513  0.0029 -0.1750
  102OSM    H3S10272   3.826   5.618   9.662  2.0648  1.4524 -2.1439
  102OSM     O310273   3.722   5.781   9.738 -0.4065 -0.1481  0.1993
  102OSM    HO310274   3.631   5.761   9.761  0.5107 -3.2809  1.7149
  102OSM    C4S10275   3.805   5.761   9.519 -0.4491 -0.6238  0.9666
  102OSM    H4S10276   3.754   5.854   9.489 -0.9142 -0.6715  1.5790
  102OSM    C5S10277   3.919   5.731   9.450 -0.1887  0.1226  0.5501
  102OSM    H5S10278   3.968   5.634   9.466  0.7670  0.4721 -0.1952
  102OSM    C6S10279   3.977   5.815   9.340 -0.1173  0.1337  0.0102
  102OSM    H6S10280   4.086   5.835   9.353 -0.2389  0.8488 -0.0723
  102OSM    H6T10281   3.925   5.913   9.332  0.5862  0.3667 -3.1567
  102OSM    C7S10282   3.962   5.739   9.202 -0.2735  0.0374  0.6368
  102OSM    H7S10283   3.855   5.719   9.177 -0.3315  0.2179  0.7336
  102OSM    H7T10284   4.015   5.642   9.202  1.1367  0.7784 -0.3969
  102OSM    C8S10285   4.017   5.814   9.077  0.4377  0.6468  0.1636
  102OSM    H8S10286   3.973   5.916   9.078 -0.5646  0.2273  1.5228
  102OSM    H8T10287   3.982   5.754   8.990  0.2976  1.5855 -0.4330
  102OSM    C9S10288   4.166   5.828   9.057 -0.7348  0.4332  0.3612
  102OSM    H9S10289   4.206   5.726   9.038  0.1762  0.7040  0.7640
  102OSM    H9T10290   4.209   5.874   9.148 -1.9535 -0.4245  1.4093
  102OSM   C10S10291   4.208   5.919   8.936 -0.2274 -0.2481  0.0495
  102OSM   H10S10292   4.315   5.949   8.946 -0.3295  0.5288 -0.9610
  102OSM   H10T10293   4.148   6.012   8.947 -2.0977 -1.2976 -0.8326
  102OSM   C11S10294   4.189   5.853   8.802  0.0757  0.6149  0.4243
  102OSM   H11S10295   4.087   5.870   8.763  0.8637  0.7200 -1.6953
  102OSM   H11T10296   4.201   5.743   8.820 -0.2413  0.8567  2.3767
  102OSM   C12S10297   4.284   5.904   8.696  0.6418 -0.3591 -0.0170
  102OSM   H12S10298   4.387   5.881   8.731  0.7552 -1.4928 -1.0336
  102OSM   H12T10299   4.266   6.012   8.679  1.6324  0.0307  1.2890
  102OSM   C13S10300   4.266   5.843   8.549 -0.6205  0.4397  0.0959
  102OSM   H13S10301   4.169   5.880   8.508 -0.8394 -0.9985 -0.7269
  102OSM   H13T10302   4.263   5.733   8.557 -1.3218  0.2845 -1.7713
  102OSM   C14S10303   4.379   5.893   8.457 -0.7119 -0.0559  0.9676
  102OSM   H14S10304   4.474   5.842   8.485 -1.2519 -2.1802 -0.8125
  102OSM   H14T10305   4.392   6.003   8.458  0.9781 -0.1811  3.6881
  102OSM   C15S10306   4.345   5.861   8.316  0.4743 -1.3305  0.0573
  102OSM   H15S10307   4.262   5.932   8.293  1.8694  0.2802 -0.1895
  102OSM   H15T10308   4.323   5.753   8.302 -0.5970 -1.2830  1.1672
  102OSM   C16S10309   4.466   5.897   8.225  0.6933  0.5760 -0.0449
  102OSM   H16S10310   4.530   5.967   8.283 -1.7228  1.8667  1.2256
  102OSM   H16T10311   4.450   5.949   8.128  1.2275 -0.8654 -0.9394
  102OSM   C17S10312   4.550   5.771   8.198  0.7869 -0.0071  0.4711
  102OSM   H17S10313   4.492   5.683   8.165  0.2670  0.3404  0.4542
  102OSM   H17T10314   4.593   5.747   8.298 -1.9091 -1.8338  1.2924
  102OSM   C18S10315   4.653   5.798   8.091  0.6869  0.3596  0.3924
  102OSM   H18S10316   4.734   5.868   8.118  0.4701  0.0099  2.0321
  102OSM   H18T10317   4.609   5.853   8.005  1.3850  0.3775  0.0408
  102OSM   H18U10318   4.699   5.702   8.058  1.4451  0.3365  1.4730
  102OSM    C1F10319   3.511   5.482   9.420 -0.1902  0.2418  0.3817
  102OSM     OF10320   3.399   5.513   9.456  0.2711 -0.2271 -0.5979
  102OSM    C2F10321   3.527   5.394   9.299  0.2450  0.2973  0.4677
  102OSM    H2F10322   3.462   5.305   9.314 -1.0418  0.6812 -2.2088
  102OSM    H2G10323   3.637   5.382   9.287  0.7258  0.6889  3.7132
  102OSM    C3F10324   3.472   5.461   9.176 -0.1560  0.9932  0.6232
  102OSM    H3F10325   3.369   5.496   9.199 -0.7812  0.8345 -1.6900
  102OSM    H3G10326   3.471   5.383   9.098  2.6599  1.3529  0.1435
  102OSM    C4F10327   3.549   5.585   9.122 -0.1006 -0.5632 -0.2744
  102OSM    H4F10328   3.659   5.573   9.116 -0.4018 -2.8329 -2.4957
  102OSM    H4G10329   3.539   5.673   9.190 -1.0243  0.2683 -1.4422
  102OSM    C5F10330   3.514   5.641   8.983 -0.6866  0.6324 -0.2477
  102OSM    H5F10331   3.480   5.562   8.912  1.1246  0.8546 -1.4310
  102OSM    H5G10332   3.605   5.685   8.938  1.2175 -0.4569  2.3123
  102OSM    C6F10333   3.410   5.752   8.991 -0.0385  0.2720 -0.0326
  102OSM    H6F10334   3.409   5.811   8.897 -0.6960 -1.1577 -0.9678
  102OSM    H6G10335   3.442   5.809   9.080  0.5164 -1.7457  1.1299
  102OSM    C7F10336   3.268   5.694   9.009 -0.3153 -0.3632  0.0632
  102OSM    H7F10337   3.217   5.749   9.091 -0.7694  1.0739 -1.1368
  102OSM    H7G10338   3.266   5.587   9.039 -5.0292 -0.2701  0.8321
  102OSM    C8F10339   3.180   5.704   8.881 -0.2313 -0.0846 -0.4062
  102OSM    H8F10340   3.249   5.684   8.796  3.0278  2.0943  1.4715
  102OSM    H8G10341   3.161   5.813   8.868  1.3929  0.4418  1.1820
  102OSM    C9F10342   3.057   5.623   8.889  0.2823 -1.2742 -0.5832
  102OSM    H9F10343   3.046   5.570   8.985  1.5144 -0.0784  0.2537
  102OSM   C10F10344   2.958   5.608   8.797 -0.0587 -1.0280  0.5557
  102OSM   H10F10345   2.880   5.537   8.827 -0.7873 -0.0159  1.0763
  102OSM   C11F10346   2.942   5.669   8.659  0.5346 -0.1632  0.3060
  102OSM   H11F10347   2.952   5.586   8.586 -0.6188 -0.5934  0.6183
  102OSM   H11G10348   3.030   5.735   8.642  0.9367 -1.3118 -2.6572
  102OSM   C12F10349   2.807   5.744   8.639 -0.2520 -0.8973 -0.1702
  102OSM   H12F10350   2.802   5.813   8.725  0.5633 -1.2523  0.1654
  102OSM   H12G10351   2.716   5.680   8.645 -0.6276 -0.3900 -0.3706
  102OSM   C13F10352   2.798   5.801   8.500 -0.6934 -0.8328  0.6100
  102OSM   H13F10353   2.710   5.866   8.481  1.1278  1.3003 -1.0580
  102OSM   H13G10354   2.789   5.708   8.439 -2.1497 -0.5773  0.3916
  102OSM   C14F10355   2.924   5.879   8.449 -0.7049 -0.2398  0.9953
  102OSM   H14F10356   3.012   5.810   8.447 -0.3171  0.2557 -0.0988
  102OSM   H14G10357   2.943   5.963   8.519 -0.1493 -0.3807  1.0245
  102OSM   C15F10358   2.902   5.935   8.308  0.0197  0.2144 -0.9878
  102OSM   H15F10359   2.810   5.996   8.319 -1.2734 -1.5496 -1.5839
  102OSM   H15G10360   2.875   5.842   8.255 -0.9069 -1.0333  1.4961
  102OSM   C16F10361   3.014   6.005   8.232  0.1108  0.8848 -0.6370
  102OSM   H16F10362   3.102   5.939   8.217 -1.5123 -2.7356  3.3187
  102OSM   H16G10363   3.039   6.091   8.297  1.3322 -0.5301  0.8558
  102OSM   C17F10364   2.963   6.075   8.105  0.4401 -0.7094  0.3222
  102OSM   H17F10365   3.030   6.160   8.078 -2.7134  1.5734 -1.0220
  102OSM   H17G10366   2.859   6.110   8.125  0.0197 -0.9042 -1.3307
  102OSM   C18F10367   2.950   5.984   7.983 -0.4367 -0.2571 -0.0316
  102OSM   H18F10368   3.048   5.961   7.935 -0.5049 -0.7605  0.0547
  102OSM   H18G10369   2.884   6.034   7.910  0.7823  1.4179 -0.0306
  102OSM   H18H10370   2.909   5.882   8.002  2.2701 -1.9868 -2.4583
  103OSM      N10371   2.848   1.056  10.073 -0.1114 -0.1880  0.0640
  103OSM    C1510372   2.728   0.984  10.132 -0.2699 -0.4592  0.8578
  103OSM   H15A10373   2.730   0.876  10.143 -0.7292 -0.3902  1.7316
  103OSM   H15B10374   2.644   1.001  10.066  0.7742 -2.5019 -1.1514
  103OSM   H15C10375   2.716   1.031  10.228  0.1210  1.1096  0.1681
  103OSM    C1410376   2.834   1.198  10.095 -0.0987 -0.5596 -0.7114
  103OSM   H14A10377   2.749   1.237  10.041  0.2858  0.2741 -0.7251
  103OSM   H14B10378   2.920   1.248  10.052  0.0432  0.1581  0.3967
  103OSM   H14C10379   2.838   1.229  10.198  1.8690  1.3470 -1.2846
  103OSM    C1310380   2.978   1.010  10.145  0.3734  0.2055 -0.0625
  103OSM   H13A10381   2.983   0.909  10.108 -0.0870 -0.6545  2.0405
  103OSM   H13B10382   2.968   1.007  10.253 -1.0723  2.5595 -0.0722
  103OSM   H13C10383   3.064   1.063  10.107 -0.3609  1.0676 -0.5510
  103OSM    C1210384   2.860   1.039   9.926 -0.1799  0.6770  0.7085
  103OSM   H12A10385   2.952   1.087   9.895 -0.3953  1.2836  1.0092
  103OSM   H12B10386   2.769   1.073   9.880 -0.1094 -0.7784 -0.6101
  103OSM    C1110387   2.868   0.892   9.874 -0.2402 -0.4323 -0.3060
  103OSM   H11A10388   2.931   0.831   9.942  1.8489  2.0966  0.2188
  103OSM   H11B10389   2.921   0.890   9.776  0.5049  2.3527 -0.0491
  103OSM      P10390   2.644   0.886   9.732 -0.2125 -0.4198 -0.5465
  103OSM    O1310391   2.517   0.818   9.738  0.1695 -0.4362 -0.3671
  103OSM    O1410392   2.643   1.031   9.734  0.2761  0.0068 -0.0877
  103OSM    O1110393   2.732   0.841   9.608  0.3334  0.6185 -0.5868
  103OSM    O1210394   2.735   0.836   9.849 -0.1120 -0.4056  0.7753
  103OSM    C1S10395   2.801   0.716   9.596  0.0281  0.1910 -0.7786
  103OSM    H1S10396   2.732   0.629   9.606 -0.9125  0.9643 -0.4274
  103OSM    H1T10397   2.879   0.698   9.672  0.5006 -0.3332 -1.3702
  103OSM     NF10398   2.904   0.570   9.425 -1.0986  0.2985  0.5065
  103OSM    HNF10399   3.000   0.556   9.449 -0.8534  0.2047 -0.4965
  103OSM    C2S10400   2.860   0.706   9.452  0.6749  0.1031 -0.6788
  103OSM    H2S10401   2.781   0.726   9.377 -0.5087 -0.9404  0.2462
  103OSM    C3S10402   2.974   0.806   9.436 -0.2193  0.4059 -0.2564
  103OSM    H3S10403   3.052   0.788   9.513 -0.0378 -0.5163 -0.6490
  103OSM     O310404   2.930   0.938   9.463  0.3746 -0.1859  0.4151
  103OSM    HO310405   2.848   0.916   9.507  0.0641 -0.2787 -0.1924
  103OSM    C4S10406   3.025   0.798   9.295 -0.8892  0.2173  0.5141
  103OSM    H4S10407   3.073   0.703   9.269 -1.8264  0.1383 -1.0515
  103OSM    C5S10408   3.009   0.884   9.195 -0.1584 -0.2976  0.5414
  103OSM    H5S10409   2.963   0.980   9.219  1.7368  0.7638  0.1558
  103OSM    C6S10410   3.075   0.862   9.055 -0.2482  0.2636  0.3499
  103OSM    H6S10411   3.140   0.772   9.055 -0.9679 -0.2896 -1.1984
  103OSM    H6T10412   3.141   0.945   9.021  1.2684 -0.1604  2.1312
  103OSM    C7S10413   2.962   0.833   8.959  0.7203 -0.1032 -0.6895
  103OSM    H7S10414   2.906   0.929   8.965  1.7332  0.4412  0.3458
  103OSM    H7T10415   2.898   0.752   9.001 -0.2929  0.9044 -0.2218
  103OSM    C8S10416   3.002   0.813   8.815 -0.3826 -0.0463  0.4541
  103OSM    H8S10417   3.060   0.718   8.818  0.6364  0.5861  1.8858
  103OSM    H8T10418   3.064   0.893   8.769 -1.1334 -0.0717 -0.6199
  103OSM    C9S10419   2.877   0.785   8.730  0.6668  0.7743 -0.0561
  103OSM    H9S10420   2.826   0.882   8.719  1.3931  1.2358  0.5334
  103OSM    H9T10421   2.811   0.715   8.786  1.2965  0.5667  0.4374
  103OSM   C10S10422   2.907   0.721   8.589  0.1939 -0.6712 -0.3571
  103OSM   H10S10423   2.819   0.657   8.569 -0.8140 -0.2139  2.1516
  103OSM   H10T10424   3.001   0.663   8.608  0.2193  0.2540  2.9520
  103OSM   C11S10425   2.919   0.831   8.486  0.4784  0.2846 -0.0180
  103OSM   H11S10426   3.009   0.888   8.516 -0.2433  1.2370  0.3795
  103OSM   H11T10427   2.837   0.905   8.479 -0.2145 -0.5007 -0.4676
  103OSM   C12S10428   2.936   0.770   8.344 -0.9544  0.0130  0.1942
  103OSM   H12S10429   2.863   0.692   8.314 -0.2158 -0.8948  0.7244
  103OSM   H12T10430   3.027   0.708   8.361 -0.5268  0.5464 -0.1060
  103OSM   C13S10431   2.941   0.870   8.224 -0.6147 -0.2050  0.7527
  103OSM   H13S10432   2.995   0.964   8.249 -0.1777  0.6461 -2.8481
  103OSM   H13T10433   2.836   0.902   8.209 -0.9393 -2.6034 -3.4503
  103OSM   C14S10434   3.013   0.806   8.099  0.2257  0.7519  0.2446
  103OSM   H14S10435   3.002   0.873   8.011  0.7253  0.4318 -0.0656
  103OSM   H14T10436   2.959   0.716   8.062  1.4308  0.2101 -0.2380
  103OSM   C15S10437   3.161   0.759   8.121 -0.2523  0.4361  0.8768
  103OSM   H15S10438   3.163   0.670   8.188 -0.7112  0.8750  1.4946
  103OSM   H15T10439   3.218   0.836   8.177  1.1040  0.1874 -0.1424
  103OSM   C16S10440   3.236   0.738   7.993 -0.2587 -0.4988  0.0212
  103OSM   H16S10441   3.220   0.829   7.931 -2.9351 -0.4002  0.7491
  103OSM   H16T10442   3.190   0.651   7.941 -1.8856 -0.0711  0.6957
  103OSM   C17S10443   3.385   0.710   7.999 -0.1994 -0.3267 -0.1266
  103OSM   H17S10444   3.396   0.629   8.074 -1.7430  1.1991  1.8756
  103OSM   H17T10445   3.435   0.799   8.044  1.0827  0.0770 -2.2083
  103OSM   C18S10446   3.454   0.661   7.874  0.2768 -0.1067  1.1194
  103OSM   H18S10447   3.555   0.616   7.885 -0.4870 -1.8932  1.0413
  103OSM   H18T10448   3.465   0.750   7.808 -1.4077 -0.1193  0.7982
  103OSM   H18U10449   3.393   0.586   7.820  1.4861  1.2357 -2.3773
  103OSM    C1F10450   2.817   0.469   9.406 -0.4946  0.9063 -0.6195
  103OSM     OF10451   2.699   0.488   9.408  0.5864 -0.2617  0.6417
  103OSM    C2F10452   2.885   0.332   9.394  0.3165  0.0511 -0.7611
  103OSM    H2F10453   2.845   0.274   9.480  3.1096 -1.3004 -0.2817
  103OSM    H2G10454   2.991   0.348   9.421  1.1867 -3.5344 -1.5051
  103OSM    C3F10455   2.842   0.247   9.272  0.2758  0.1793 -0.4027
  103OSM    H3F10456   2.732   0.233   9.275  0.3154 -0.0251  0.1179
  103OSM    H3G10457   2.878   0.142   9.284  0.7532  0.3871 -0.0194
  103OSM    C4F10458   2.894   0.299   9.143  0.3085 -0.0455  0.0183
  103OSM    H4F10459   2.867   0.231   9.059 -1.3197  0.0659  0.4103
  103OSM    H4G10460   3.004   0.304   9.138  0.3220  0.5975  0.8962
  103OSM    C5F10461   2.827   0.425   9.087 -0.7912 -0.1456 -0.3902
  103OSM    H5F10462   2.875   0.456   8.991 -0.3949  2.1216  0.4787
  103OSM    H5G10463   2.841   0.504   9.164 -1.2158  1.8984 -2.2871
  103OSM    C6F10464   2.674   0.422   9.062  0.2096 -0.0484  0.1780
  103OSM    H6F10465   2.616   0.379   9.146 -1.2845 -0.1314 -0.8540
  103OSM    H6G10466   2.660   0.355   8.975 -1.3282 -1.5425  1.5086
  103OSM    C7F10467   2.622   0.568   9.041  0.0679  0.6182 -0.2828
  103OSM    H7F10468   2.697   0.611   8.972  1.1998 -2.1937 -0.9355
  103OSM    H7G10469   2.642   0.629   9.131  2.4461  0.8863 -0.9483
  103OSM    C8F10470   2.483   0.586   8.999  0.6600  0.4999  0.0031
  103OSM    H8F10471   2.423   0.574   9.092 -2.0900 -0.7125 -1.8004
  103OSM    H8G10472   2.452   0.502   8.933  1.5451 -0.3661  0.6395
  103OSM    C9F10473   2.465   0.726   8.941 -0.9668 -0.3707  0.5031
  103OSM    H9F10474   2.459   0.807   9.016  1.4181  0.8509 -0.5280
  103OSM   C10F10475   2.485   0.758   8.812 -0.0296  1.0398  0.3810
  103OSM   H10F10476   2.468   0.862   8.782 -0.1487  0.8423 -0.2454
  103OSM   C11F10477   2.538   0.664   8.706 -0.4078 -0.2568 -0.6208
  103OSM   H11F10478   2.578   0.572   8.754 -0.6309 -0.0172  0.0220
  103OSM   H11G10479   2.610   0.720   8.642  1.0107  2.1822  2.8279
  103OSM   C12F10480   2.427   0.618   8.614 -0.0957  0.4434 -0.1318
  103OSM   H12F10481   2.327   0.600   8.658 -0.1396  0.3267 -0.2783
  103OSM   H12G10482   2.459   0.518   8.577  1.3208  0.2116  1.5845
  103OSM   C13F10483   2.402   0.697   8.486  0.1034 -0.0516  0.0323
  103OSM   H13F10484   2.384   0.803   8.515  0.4562  0.3176 -1.0552
  103OSM   H13G10485   2.310   0.664   8.433 -0.1593 -3.1881  2.1698
  103OSM   C14F10486   2.512   0.676   8.386 -0.0112 -0.3795 -0.6188
  103OSM   H14F10487   2.512   0.569   8.357  0.4117 -0.1695 -1.4261
  103OSM   H14G10488   2.611   0.690   8.436 -0.9117 -0.5210  1.3041
  103OSM   C15F10489   2.519   0.751   8.255  0.1794 -0.2740  0.4265
  103OSM   H15F10490   2.590   0.701   8.187 -0.9866  1.2287 -2.0698
  103OSM   H15G10491   2.553   0.856   8.270 -1.6866  0.6146 -1.1216
  103OSM   C16F10492   2.370   0.758   8.194  0.6752 -0.1638 -0.1014
  103OSM   H16F10493   2.324   0.818   8.276  5.3321  2.7427  0.7884
  103OSM   H16G10494   2.340   0.651   8.195  0.5064 -0.1297  1.2843
  103OSM   C17F10495   2.364   0.833   8.056 -0.6642  0.5280  0.1402
  103OSM   H17F10496   2.410   0.779   7.970 -2.3685 -0.0457 -0.4397
  103OSM   H17G10497   2.406   0.932   8.084 -0.7509  0.7265 -0.4125
  103OSM   C18F10498   2.220   0.852   8.005  0.3196 -0.5640 -0.3031
  103OSM   H18F10499   2.218   0.895   7.902  0.0857  0.4725  0.1191
  103OSM   H18G10500   2.174   0.926   8.074  2.3293  3.0317 -2.4820
  103OSM   H18H10501   2.152   0.765   8.015  0.8829 -0.9187  0.5263
  104OSM      N10502   3.911   0.835  10.026  0.6378 -0.1094  0.1177
  104OSM    C1510503   3.796   0.729  10.009 -0.6197 -0.7440 -0.2998
  104OSM   H15A10504   3.705   0.787  10.011  0.6451  1.3250  1.1257
  104OSM   H15B10505   3.789   0.676  10.103  0.1118  1.2778  0.9480
  104OSM   H15C10506   3.810   0.666   9.922 -0.9417  1.7255 -2.2394
  104OSM    C1410507   3.888   0.921  10.145  0.4069  0.0037 -0.1510
  104OSM   H14A10508   3.784   0.949  10.145  0.4998  0.4696  1.5019
  104OSM   H14B10509   3.946   1.012  10.133  3.4893 -1.9920 -1.6354
  104OSM   H14C10510   3.908   0.865  10.236  2.8173 -1.2595 -1.3559
  104OSM    C1310511   4.039   0.762  10.053 -0.5696  0.2156  0.3782
  104OSM   H13A10512   4.042   0.709  10.147  2.1557 -3.3836 -1.4968
  104OSM   H13B10513   4.123   0.830  10.055 -1.8354  1.8200  1.0230
  104OSM   H13C10514   4.057   0.677   9.989 -0.8275 -1.1171  2.0075
  104OSM    C1210515   3.927   0.908   9.899 -0.2407 -0.3784  0.1054
  104OSM   H12A10516   3.958   0.844   9.818  1.5841 -0.4804  0.8499
  104OSM   H12B10517   4.009   0.976   9.915  0.4731 -0.8456 -1.4522
  104OSM    C1110518   3.811   1.001   9.850 -0.0523  0.4954 -0.6406
  104OSM   H11A10519   3.721   0.937   9.847  0.4880 -0.2392 -2.0115
  104OSM   H11B10520   3.831   1.042   9.748  0.7125 -3.4011 -2.2150
  104OSM      P10521   3.641   1.148   9.979 -0.5450 -0.3269  0.5884
  104OSM    O1310522   3.593   1.050  10.076  0.7103  0.1040 -0.5086
  104OSM    O1410523   3.643   1.293  10.014  0.0338  0.0843  0.8204
  104OSM    O1110524   3.561   1.142   9.844  0.0913  0.1381 -0.0179
  104OSM    O1210525   3.789   1.113   9.939 -0.1988  0.3782 -0.3694
  104OSM    C1S10526   3.577   1.247   9.736 -0.1141  0.2489  0.1022
  104OSM    H1S10527   3.667   1.311   9.751 -0.3927  0.4319  1.1119
  104OSM    H1T10528   3.488   1.313   9.742 -0.3480 -0.1652  1.7711
  104OSM     NF10529   3.651   1.271   9.510  0.1151 -0.4175 -0.0413
  104OSM    HNF10530   3.593   1.306   9.437  1.4819 -0.7282 -1.3266
  104OSM    C2S10531   3.596   1.174   9.603  0.3011 -0.8944 -0.4702
  104OSM    H2S10532   3.671   1.093   9.612  3.8266  2.1325 -0.5494
  104OSM    C3S10533   3.466   1.109   9.552 -0.5081 -0.8590 -0.6114
  104OSM    H3S10534   3.397   1.193   9.532 -1.6016 -2.1328 -2.4691
  104OSM     O310535   3.412   1.004   9.629  0.0542 -0.3017  0.0659
  104OSM    HO310536   3.462   1.015   9.710 -1.0194  0.8675  0.5998
  104OSM    C4S10537   3.486   1.041   9.425 -0.5258 -0.4073 -0.1201
  104OSM    H4S10538   3.567   0.970   9.403 -0.0288  0.7407 -2.3052
  104OSM    C5S10539   3.427   1.075   9.306 -0.1119 -0.7162 -0.0901
  104OSM    H5S10540   3.365   1.164   9.288 -0.3130 -0.7430  0.4568
  104OSM    C6S10541   3.450   1.006   9.173  0.6135 -0.4786 -1.2959
  104OSM    H6S10542   3.480   1.081   9.096  0.6483  0.8750 -0.0181
  104OSM    H6T10543   3.345   0.981   9.146  0.7008  0.1178 -2.2696
  104OSM    C7S10544   3.545   0.884   9.184 -0.7347  0.3252 -0.4962
  104OSM    H7S10545   3.515   0.812   9.264  1.9262  0.3714  0.6399
  104OSM    H7T10546   3.644   0.922   9.216 -0.1137 -1.6798  0.1381
  104OSM    C8S10547   3.562   0.821   9.043  0.3499 -0.1707  0.1399
  104OSM    H8S10548   3.587   0.899   8.968 -0.3592  0.0416  0.1170
  104OSM    H8T10549   3.460   0.792   9.011  0.1452  1.0374 -0.3793
  104OSM    C9S10550   3.654   0.704   9.034 -0.5140 -0.0179  0.1059
  104OSM    H9S10551   3.603   0.613   9.072 -0.8984 -0.4851 -1.4614
  104OSM    H9T10552   3.761   0.716   9.063 -0.5066 -1.1370  0.5707
  104OSM   C10S10553   3.675   0.661   8.889  0.1147 -0.3975 -0.2401
  104OSM   H10S10554   3.712   0.749   8.833  0.7749  0.5507  1.6136
  104OSM   H10T10555   3.579   0.619   8.851  0.0260 -0.1190 -0.3227
  104OSM   C11S10556   3.779   0.548   8.868  0.2074  0.1127  0.0390
  104OSM   H11S10557   3.754   0.458   8.927 -1.6833 -0.0953 -1.0110
  104OSM   H11T10558   3.875   0.591   8.903 -1.2062  1.1373  3.0191
  104OSM   C12S10559   3.790   0.518   8.709  0.4397 -0.4132 -0.0565
  104OSM   H12S10560   3.869   0.587   8.671 -0.7618  3.0720  3.1058
  104OSM   H12T10561   3.698   0.552   8.656 -0.1169 -2.1509 -0.2768
  104OSM   C13S10562   3.830   0.372   8.681 -0.5445 -1.2517  0.0109
  104OSM   H13S10563   3.745   0.310   8.717 -1.5223 -0.1300 -0.3139
  104OSM   H13T10564   3.917   0.346   8.746 -0.9144  0.1252  1.0915
  104OSM   C14S10565   3.860   0.344   8.528  0.1379  0.3635  0.4112
  104OSM   H14S10566   3.953   0.392   8.489 -0.3946 -0.8673 -2.6584
  104OSM   H14T10567   3.772   0.391   8.480 -0.2130  1.9956  2.5035
  104OSM   C15S10568   3.888   0.189   8.503  0.6261  0.6945  0.2449
  104OSM   H15S10569   3.789   0.142   8.523  0.7583  1.5079  3.3973
  104OSM   H15T10570   3.947   0.151   8.590  0.7547  0.1833 -0.0639
  104OSM   C16S10571   3.924   0.146   8.363 -0.0115  0.2905  0.3699
  104OSM   H16S10572   4.002   0.219   8.330  2.4086 -0.1484  4.4457
  104OSM   H16T10573   3.833   0.139   8.299 -1.4510 -1.1658  2.4663
  104OSM   C17S10574   3.986   0.007   8.366 -0.0233 -0.0607 -0.1385
  104OSM   H17S10575   3.930  -0.071   8.420  0.2000 -0.6949 -0.8019
  104OSM   H17T10576   4.085   0.017   8.416  0.6938  0.3189 -1.5557
  104OSM   C18S10577   4.023  -0.049   8.230 -0.8307  0.5079  0.6838
  104OSM   H18S10578   3.940  -0.077   8.163  1.1891 -0.0863 -1.7048
  104OSM   H18T10579   4.095  -0.132   8.241  0.7402  1.6996 -0.2146
  104OSM   H18U10580   4.086   0.026   8.178 -0.5094 -0.8275 -0.8977
  104OSM    C1F10581   3.767   1.335   9.524  0.3207 -0.5715  0.2506
  104OSM     OF10582   3.851   1.295   9.603  0.3535  0.4378 -0.0856
  104OSM    C2F10583   3.794   1.450   9.436  0.6308  0.2688  0.2816
  104OSM    H2F10584   3.778   1.545   9.492 -0.0435  0.4769 -0.2401
  104OSM    H2G10585   3.718   1.464   9.356  1.4371  1.0897 -0.3520
  104OSM    C3F10586   3.930   1.452   9.358  0.5206  0.0955  0.3170
  104OSM    H3F10587   4.020   1.454   9.423  0.8409 -2.3857  0.0330
  104OSM    H3G10588   3.919   1.543   9.295 -0.2512 -0.1095  0.1532
  104OSM    C4F10589   3.945   1.336   9.259  0.2106  0.0564  0.1147
  104OSM    H4F10590   3.959   1.242   9.318 -0.5489 -0.8342 -1.0882
  104OSM    H4G10591   4.040   1.352   9.205 -0.8423 -0.3954 -1.9755
  104OSM    C5F10592   3.843   1.304   9.153 -0.7073  0.0825  0.0674
  104OSM    H5F10593   3.859   1.380   9.073  0.7865 -0.4326 -0.1568
  104OSM    H5G10594   3.741   1.334   9.187 -0.8384 -1.2340  0.9131
  104OSM    C6F10595   3.837   1.167   9.088 -0.2882  0.4888 -0.4800
  104OSM    H6F10596   3.751   1.163   9.017 -2.2048  0.4991  1.6918
  104OSM    H6G10597   3.819   1.096   9.171  1.0149 -0.1756 -0.7459
  104OSM    C7F10598   3.964   1.115   9.015 -0.7843  0.0052 -0.0799
  104OSM    H7F10599   4.038   1.092   9.095 -0.6173  1.0437  0.0749
  104OSM    H7G10600   4.002   1.200   8.955 -1.3151 -0.1465 -0.6385
  104OSM    C8F10601   3.943   0.989   8.933  0.4706 -0.1645  0.4472
  104OSM    H8F10602   3.885   0.917   8.994 -0.4975 -0.1101 -0.3856
  104OSM    H8G10603   4.041   0.939   8.916  0.7535  1.3345 -3.2469
  104OSM    C9F10604   3.869   1.013   8.802  0.5199  0.8850 -0.5353
  104OSM    H9F10605   3.762   1.032   8.821  1.2722  1.2930  4.9026
  104OSM   C10F10606   3.926   1.022   8.682  0.3365  0.5553 -0.1933
  104OSM   H10F10607   3.866   1.041   8.592  0.7394  2.9346 -0.0090
  104OSM   C11F10608   4.071   1.030   8.666 -0.0682  0.2085  0.1492
  104OSM   H11F10609   4.124   0.948   8.718 -1.4006 -1.6614 -1.2621
  104OSM   H11G10610   4.112   1.126   8.703  0.1547 -0.0730  0.6437
  104OSM   C12F10611   4.115   1.005   8.521 -0.0516  0.0111 -0.5040
  104OSM   H12F10612   4.224   1.027   8.519  0.5337 -2.5937 -1.6585
  104OSM   H12G10613   4.058   1.084   8.468  0.5262  0.9536  0.2591
  104OSM   C13F10614   4.081   0.864   8.479  0.1683 -0.6919 -0.4062
  104OSM   H13F10615   3.979   0.831   8.508  0.0621  1.2472  1.7558
  104OSM   H13G10616   4.153   0.792   8.523  1.5806 -0.6281 -2.4316
  104OSM   C14F10617   4.083   0.838   8.327  0.7934 -0.3428 -0.0318
  104OSM   H14F10618   4.000   0.882   8.269 -0.2248 -1.8056  0.2571
  104OSM   H14G10619   4.073   0.730   8.304  1.3334 -1.3305  3.6622
  104OSM   C15F10620   4.195   0.916   8.252 -0.3861 -0.4327  0.2492
  104OSM   H15F10621   4.295   0.903   8.300  0.2620  0.0331 -0.9527
  104OSM   H15G10622   4.184   1.026   8.240  0.4674 -0.4298 -0.5986
  104OSM   C16F10623   4.215   0.854   8.116 -0.0722 -0.1822  0.7645
  104OSM   H16F10624   4.134   0.885   8.048 -0.2704 -1.6211  0.2967
  104OSM   H16G10625   4.217   0.743   8.118  0.8415 -0.1694  1.4988
  104OSM   C17F10626   4.355   0.883   8.046  0.0311  0.2732  0.3625
  104OSM   H17F10627   4.421   0.849   8.129  0.0631  0.4460  0.4087
  104OSM   H17G10628   4.378   0.991   8.032  1.4613  0.1018  1.1644
  104OSM   C18F10629   4.379   0.796   7.927 -0.1366  0.0917  0.2116
  104OSM   H18F10630   4.294   0.794   7.855  0.3366  0.6320 -0.3724
  104OSM   H18G10631   4.379   0.687   7.949 -0.2210  0.1060  0.2882
  104OSM   H18H10632   4.474   0.818   7.876 -0.3654 -2.5320 -1.5617
  105OSM      N10633   0.795   4.597   9.941  0.7516 -1.0068 -0.2356
  105OSM    C1510634   0.844   4.535  10.073 -0.2168 -0.2966 -0.0276
  105OSM   H15A10635   0.770   4.561  10.147 -1.6356 -0.1310 -1.4544
  105OSM   H15B10636   0.945   4.570  10.087  0.8018 -2.1190 -2.2149
  105OSM   H15C10637   0.859   4.429  10.060  3.1335 -0.0192  0.7884
  105OSM    C1410638   0.793   4.746   9.961  0.0778  0.2305 -0.2431
  105OSM   H14A10639   0.897   4.773   9.956  0.3510 -0.8843 -0.8697
  105OSM   H14B10640   0.739   4.767  10.052 -0.5535  1.8509 -0.9506
  105OSM   H14C10641   0.734   4.792   9.883  0.3409  0.4094 -0.3371
  105OSM    C1310642   0.892   4.567   9.842 -0.5727  0.1747  0.9179
  105OSM   H13A10643   0.992   4.604   9.861 -0.0112 -1.1192  0.5930
  105OSM   H13B10644   0.865   4.610   9.747 -1.1768 -1.0062  0.5393
  105OSM   H13C10645   0.909   4.462   9.822 -1.9793  0.1322 -0.2434
  105OSM    C1210646   0.654   4.547   9.915  0.6755 -0.0791  0.1214
  105OSM   H12A10647   0.590   4.591   9.990  1.3904 -0.6867  1.1032
  105OSM   H12B10648   0.646   4.440   9.927 -1.2065  0.2421  2.2410
  105OSM    C1110649   0.586   4.594   9.787 -0.6561  0.4946 -0.4564
  105OSM   H11A10650   0.482   4.555   9.795 -0.9810  1.2041 -1.1471
  105OSM   H11B10651   0.621   4.546   9.694  1.5984 -2.5469  1.7562
  105OSM      P10652   0.499   4.819   9.672 -0.1105  0.2168 -0.0903
  105OSM    O1310653   0.374   4.748   9.637 -0.6913  0.2588 -0.2330
  105OSM    O1410654   0.474   4.950   9.738 -0.9375  0.8815  0.2354
  105OSM    O1110655   0.602   4.837   9.554  0.4632 -0.0706 -0.6777
  105OSM    O1210656   0.584   4.735   9.779 -0.4930  0.0405 -0.0970
  105OSM    C1S10657   0.740   4.854   9.593 -0.1943  0.4816  0.2981
  105OSM    H1S10658   0.776   4.754   9.624 -0.5780 -0.1262 -1.1455
  105OSM    H1T10659   0.748   4.930   9.674 -1.0082 -2.0410  2.9101
  105OSM     NF10660   0.960   4.901   9.488  0.0797 -0.6879 -0.2711
  105OSM    HNF10661   1.004   4.990   9.475 -2.2383  0.8979  1.8403
  105OSM    C2S10662   0.814   4.893   9.465 -0.0152  0.5830  0.2105
  105OSM    H2S10663   0.811   4.807   9.396  1.1689  0.4997  0.2425
  105OSM    C3S10664   0.742   5.022   9.393 -0.5244  0.3930 -0.1145
  105OSM    H3S10665   0.751   5.112   9.459  0.0539  0.0440  0.2959
  105OSM     O310666   0.601   5.011   9.379  0.2624 -0.7399  0.3046
  105OSM    HO310667   0.575   4.936   9.434  1.3076 -0.4865  1.1819
  105OSM    C4S10668   0.800   5.047   9.263  0.4247 -0.6521  0.9102
  105OSM    H4S10669   0.787   4.963   9.193  0.2320  1.4093 -1.6661
  105OSM    C5S10670   0.853   5.160   9.221 -0.6444 -0.0580  0.7841
  105OSM    H5S10671   0.877   5.244   9.288 -2.0032 -1.2602  2.9036
  105OSM    C6S10672   0.910   5.194   9.081 -0.0328  0.2090 -0.0746
  105OSM    H6S10673   1.006   5.251   9.079  0.6656 -0.9408 -2.0096
  105OSM    H6T10674   0.841   5.257   9.021  0.0448  0.7732  0.4128
  105OSM    C7S10675   0.940   5.063   8.997 -0.4510  0.2112  0.3624
  105OSM    H7S10676   0.849   5.004   8.975 -0.3001  0.0112  0.2739
  105OSM    H7T10677   1.018   4.997   9.041  0.8054 -0.5748 -2.8004
  105OSM    C8S10678   1.003   5.098   8.860 -0.3140 -0.3470 -0.7544
  105OSM    H8S10679   1.101   5.148   8.874 -0.4587 -0.2531 -0.0513
  105OSM    H8T10680   0.934   5.170   8.810  0.1470 -0.3505 -1.4106
  105OSM    C9S10681   1.031   4.984   8.757 -0.0545  0.3133 -0.4697
  105OSM    H9S10682   0.951   4.911   8.780 -0.7310  0.0744 -3.2191
  105OSM    H9T10683   1.130   4.944   8.787 -1.6783 -3.9017 -0.1613
  105OSM   C10S10684   1.032   5.022   8.611  0.1785 -0.5936 -0.2757
  105OSM   H10S10685   1.115   5.092   8.587 -1.5115  1.4471 -0.3664
  105OSM   H10T10686   0.942   5.081   8.584  1.6439  1.5461 -0.7649
  105OSM   C11S10687   1.026   4.911   8.505 -0.4347  0.3165  0.9134
  105OSM   H11S10688   0.922   4.874   8.502 -0.6711  1.0350 -0.2257
  105OSM   H11T10689   1.092   4.824   8.526  1.3811  1.0966 -1.1356
  105OSM   C12S10690   1.075   4.965   8.369  0.9013  0.1266 -0.5028
  105OSM   H12S10691   1.177   5.007   8.381 -0.5862  3.3358  2.9696
  105OSM   H12T10692   1.005   5.050   8.355 -1.3023 -1.1142  2.0000
  105OSM   C13S10693   1.052   4.870   8.247  0.4095 -0.2954 -0.6022
  105OSM   H13S10694   0.942   4.855   8.253  0.2166  1.4452  1.3250
  105OSM   H13T10695   1.104   4.774   8.263 -0.0454 -0.0679  2.9191
  105OSM   C14S10696   1.081   4.947   8.118 -0.1946 -0.2799  0.6474
  105OSM   H14S10697   1.181   4.996   8.116 -1.9720  3.7188 -2.3964
  105OSM   H14T10698   1.012   5.034   8.110 -0.9529 -0.8898  0.4567
  105OSM   C15S10699   1.064   4.854   7.990 -0.3498 -0.4207 -0.3882
  105OSM   H15S10700   0.968   4.803   8.012 -1.4816  1.9139  0.5218
  105OSM   H15T10701   1.149   4.783   7.993  0.5955  0.6418 -1.1177
  105OSM   C16S10702   1.056   4.933   7.861 -0.2748 -0.8972  0.0996
  105OSM   H16S10703   0.994   5.023   7.881  0.7840 -0.0117 -0.4533
  105OSM   H16T10704   1.010   4.865   7.786 -1.6738 -0.5653  0.6362
  105OSM   C17S10705   1.194   4.974   7.803  0.0948  0.1252 -0.2537
  105OSM   H17S10706   1.277   4.910   7.840 -0.5735 -0.8743 -0.4671
  105OSM   H17T10707   1.225   5.076   7.836 -0.0862 -0.3315  1.4305
  105OSM   C18S10708   1.198   4.971   7.648 -0.3239 -0.0063 -0.2558
  105OSM   H18S10709   1.171   5.073   7.613 -0.7176  0.7705  2.1233
  105OSM   H18T10710   1.112   4.908   7.617 -0.8763  0.9788 -0.7790
  105OSM   H18U10711   1.298   4.942   7.609 -0.9925 -0.5568 -1.5990
  105OSM    C1F10712   1.049   4.800   9.519  0.1720  0.2620 -0.6837
  105OSM     OF10713   1.009   4.687   9.546  0.0465  0.4953 -0.1640
  105OSM    C2F10714   1.194   4.830   9.521  0.2541 -0.9570  0.4194
  105OSM    H2F10715   1.259   4.740   9.530  1.0140 -0.3383  1.3853
  105OSM    H2G10716   1.217   4.887   9.614  0.1308 -0.2942  0.0539
  105OSM    C3F10717   1.235   4.904   9.391 -0.4350  0.5789 -0.1742
  105OSM    H3F10718   1.340   4.930   9.414 -0.4826  0.4893  0.1450
  105OSM    H3G10719   1.166   4.989   9.371 -4.4228 -1.7663  2.2286
  105OSM    C4F10720   1.230   4.807   9.268 -0.0372 -0.0580  0.0231
  105OSM    H4F10721   1.124   4.784   9.244 -0.3091  0.6537  0.5171
  105OSM    H4G10722   1.277   4.709   9.289 -2.0476 -0.8329  1.2760
  105OSM    C5F10723   1.307   4.864   9.148 -0.6012  0.0852 -0.6109
  105OSM    H5F10724   1.414   4.871   9.177 -1.1917 -0.3787  1.8564
  105OSM    H5G10725   1.266   4.966   9.137  2.3578  1.4862  0.4066
  105OSM    C6F10726   1.308   4.786   9.020  0.1924  0.3836 -0.1415
  105OSM    H6F10727   1.207   4.746   8.996  0.8595 -0.9908 -0.7108
  105OSM    H6G10728   1.370   4.695   9.032 -2.5051 -1.4883  0.6074
  105OSM    C7F10729   1.366   4.869   8.903  0.5470 -0.8813  0.7246
  105OSM    H7F10730   1.473   4.890   8.920 -0.1502  3.6160  0.9371
  105OSM    H7G10731   1.315   4.968   8.898 -1.0349 -1.6419  1.1044
  105OSM    C8F10732   1.357   4.781   8.776 -1.1658 -0.3670  0.5401
  105OSM    H8F10733   1.252   4.750   8.757 -1.4336  1.2022 -0.8116
  105OSM    H8G10734   1.422   4.693   8.793  0.8333  0.7956 -0.7415
  105OSM    C9F10735   1.402   4.853   8.651 -0.6152 -0.0782 -0.3378
  105OSM    H9F10736   1.371   4.958   8.653 -0.1947  0.0382  0.0694
  105OSM   C10F10737   1.464   4.802   8.546 -0.1958 -0.9474  0.5627
  105OSM   H10F10738   1.508   4.872   8.472 -0.1969 -0.6041  0.8845
  105OSM   C11F10739   1.505   4.659   8.523  0.4745  0.4328  0.2987
  105OSM   H11F10740   1.504   4.599   8.617  1.6285  0.5362  0.3935
  105OSM   H11G10741   1.609   4.655   8.485 -1.0006  1.4066 -4.4586
  105OSM   C12F10742   1.420   4.579   8.417  0.1370  0.0859  0.4083
  105OSM   H12F10743   1.325   4.576   8.473  0.2250  2.9274  0.8489
  105OSM   H12G10744   1.458   4.476   8.396 -1.3717  0.0937 -3.0798
  105OSM   C13F10745   1.403   4.653   8.281  0.0195 -0.5745 -0.3438
  105OSM   H13F10746   1.504   4.691   8.253  0.1790 -0.2636  0.6080
  105OSM   H13G10747   1.337   4.742   8.294 -1.1369 -1.1207 -2.1332
  105OSM   C14F10748   1.346   4.570   8.172  0.1955  0.9579  0.3964
  105OSM   H14F10749   1.423   4.503   8.129 -0.1824  0.8645 -0.1387
  105OSM   H14G10750   1.297   4.633   8.094 -0.2592 -0.0225 -0.1270
  105OSM   C15F10751   1.228   4.483   8.219  0.8759  1.2500  0.2637
  105OSM   H15F10752   1.152   4.548   8.270 -0.6590  1.4894 -2.1593
  105OSM   H15G10753   1.279   4.417   8.293 -1.4189  0.3938  1.1970
  105OSM   C16F10754   1.166   4.394   8.109 -0.2414 -0.3717 -0.2260
  105OSM   H16F10755   1.130   4.299   8.153  1.5891 -2.7268 -3.4209
  105OSM   H16G10756   1.242   4.373   8.031 -2.5173 -0.5140 -2.5025
  105OSM   C17F10757   1.053   4.469   8.036  0.3452 -0.8722  0.3105
  105OSM   H17F10758   1.022   4.555   8.099  3.0302  0.7186 -0.3936
  105OSM   H17G10759   0.965   4.404   8.015 -1.8730  1.8942  0.4830
  105OSM   C18F10760   1.087   4.523   7.896  0.1134  0.2018 -0.1444
  105OSM   H18F10761   1.002   4.589   7.871 -1.0137 -0.1304  2.5762
  105OSM   H18G10762   1.100   4.434   7.830 -3.7418 -2.5518  2.3875
  105OSM   H18H10763   1.178   4.587   7.900  0.8318 -0.8482  1.0322
  106OSM      N10764   0.834   2.646   9.551  0.0276 -0.3875 -0.6538
  106OSM    C1510765   0.916   2.762   9.526 -0.5850  0.4911  0.3377
  106OSM   H15A10766   0.854   2.839   9.483  0.9998  1.0057 -1.1436
  106OSM   H15B10767   0.998   2.734   9.461 -1.0375 -1.7639  0.6843
  106OSM   H15C10768   0.945   2.794   9.626 -1.5992 -1.1787  1.1997
  106OSM    C1410769   0.795   2.587   9.419  0.2154  0.3962  0.5610
  106OSM   H14A10770   0.714   2.516   9.422  0.1037  0.1714 -3.2091
  106OSM   H14B10771   0.887   2.549   9.376 -0.5452 -1.4127  0.4374
  106OSM   H14C10772   0.755   2.660   9.351 -0.4030 -0.4263  0.0242
  106OSM    C1310773   0.904   2.547   9.639  0.0473 -0.0022  0.1178
  106OSM   H13A10774   0.903   2.569   9.744 -1.0942 -1.9228  0.5554
  106OSM   H13B10775   1.006   2.532   9.606 -0.4373 -0.9032 -1.0624
  106OSM   H13C10776   0.858   2.449   9.636  1.8189 -0.8714 -2.6072
  106OSM    C1210777   0.711   2.695   9.626  0.5096  0.2809  0.2103
  106OSM   H12A10778   0.730   2.734   9.725  1.4427  0.7626 -0.1551
  106OSM   H12B10779   0.643   2.613   9.644 -0.1576  1.0009  1.1132
  106OSM    C1110780   0.627   2.803   9.550  0.8362  0.2521  0.0438
  106OSM   H11A10781   0.521   2.796   9.581  0.8129 -0.8316 -0.2165
  106OSM   H11B10782   0.613   2.765   9.446 -0.7693  2.6981 -0.7083
  106OSM      P10783   0.667   2.996   9.703  0.1625 -0.4462  0.3381
  106OSM    O1310784   0.561   3.103   9.694 -0.0245  0.0761 -0.3758
  106OSM    O1410785   0.658   2.899   9.815  0.1422  0.3905  0.3195
  106OSM    O1110786   0.802   3.077   9.707  0.3049 -0.3541 -0.2213
  106OSM    O1210787   0.675   2.931   9.560  0.1670  0.3694 -0.0290
  106OSM    C1S10788   0.868   3.129   9.586  0.5920  0.5778 -0.1200
  106OSM    H1S10789   0.842   3.083   9.489  0.8702  0.5386 -0.1788
  106OSM    H1T10790   0.977   3.109   9.597  1.2191  2.3015 -2.4509
  106OSM     NF10791   0.902   3.340   9.449  0.3669  0.1275 -0.0925
  106OSM    HNF10792   0.975   3.407   9.458 -2.2799  3.8518 -3.1054
  106OSM    C2S10793   0.846   3.286   9.577 -0.7129 -0.1822  1.0013
  106OSM    H2S10794   0.737   3.309   9.581 -0.1294  2.9487  1.9665
  106OSM    C3S10795   0.907   3.369   9.699  0.1530 -0.0611 -0.1941
  106OSM    H3S10796   1.016   3.384   9.682 -0.1194  0.7185 -1.3007
  106OSM     O310797   0.891   3.310   9.824 -0.8062  0.5743  0.0629
  106OSM    HO310798   0.866   3.222   9.795 -0.9060  0.8060 -0.5549
  106OSM    C4S10799   0.863   3.501   9.700 -0.2326  0.6640 -0.6756
  106OSM    H4S10800   0.927   3.566   9.639  1.5709  1.2275  1.6688
  106OSM    C5S10801   0.764   3.565   9.765  0.1453 -0.6638  0.3944
  106OSM    H5S10802   0.687   3.503   9.815  1.1717 -1.6141  0.8310
  106OSM    C6S10803   0.746   3.719   9.748  0.1371  0.5354 -1.1613
  106OSM    H6S10804   0.842   3.775   9.751 -0.0210  0.9352  2.9332
  106OSM    H6T10805   0.703   3.766   9.839  0.1918  1.9082 -1.8231
  106OSM    C7S10806   0.660   3.768   9.628  0.4079  1.0460  0.0035
  106OSM    H7S10807   0.652   3.879   9.635 -2.2229  1.1278 -2.2658
  106OSM    H7T10808   0.564   3.722   9.660  1.3064 -1.1346 -0.3017
  106OSM    C8S10809   0.705   3.720   9.487 -0.1670 -0.0115  0.2377
  106OSM    H8S10810   0.741   3.616   9.471 -0.8628 -0.0469 -1.2586
  106OSM    H8T10811   0.792   3.787   9.468  0.1252  0.0205  1.5584
  106OSM    C9S10812   0.595   3.743   9.384  0.1423  0.4577 -0.4609
  106OSM    H9S10813   0.555   3.846   9.393  0.1665  0.5447 -1.2983
  106OSM    H9T10814   0.515   3.667   9.393  1.1999 -0.4132  3.6744
  106OSM   C10S10815   0.663   3.727   9.244 -0.8553 -0.3817  0.2372
  106OSM   H10S10816   0.719   3.631   9.233  1.7937  0.3748  4.5478
  106OSM   H10T10817   0.750   3.796   9.238  0.0852 -1.4397  1.0106
  106OSM   C11S10818   0.581   3.744   9.118 -0.4851 -0.2669 -0.4191
  106OSM   H11S10819   0.516   3.834   9.123  0.4065  0.3455  0.1889
  106OSM   H11T10820   0.510   3.658   9.113  1.5009 -1.9883 -0.4065
  106OSM   C12S10821   0.669   3.739   8.992  0.7164  0.0189 -0.0493
  106OSM   H12S10822   0.710   3.636   8.989  0.9527  0.0179  1.8318
  106OSM   H12T10823   0.750   3.814   9.002  2.1572 -1.4218 -0.7010
  106OSM   C13S10824   0.587   3.772   8.867 -0.5243  0.1109  0.5664
  106OSM   H13S10825   0.544   3.874   8.884 -1.4324  0.1388 -1.5743
  106OSM   H13T10826   0.503   3.699   8.858  0.6083 -1.2296  0.6164
  106OSM   C14S10827   0.670   3.784   8.741 -0.2015  0.2744  0.9613
  106OSM   H14S10828   0.740   3.699   8.730  1.1335  1.2919  1.3516
  106OSM   H14T10829   0.727   3.879   8.739 -0.4855  0.4458 -0.0570
  106OSM   C15S10830   0.584   3.789   8.610 -0.5972  0.7331 -0.0324
  106OSM   H15S10831   0.507   3.868   8.618 -1.3518 -0.1136  1.7118
  106OSM   H15T10832   0.534   3.690   8.602  2.1251 -0.6197 -1.8630
  106OSM   C16S10833   0.665   3.816   8.488  0.0094  0.9196  0.0675
  106OSM   H16S10834   0.756   3.754   8.496  0.2669  0.5422 -3.6798
  106OSM   H16T10835   0.709   3.917   8.481 -1.8980  1.8382  0.5894
  106OSM   C17S10836   0.604   3.765   8.356 -0.2469 -0.6113  0.3248
  106OSM   H17S10837   0.683   3.790   8.281  2.6781 -3.0684  2.3497
  106OSM   H17T10838   0.513   3.828   8.346 -1.1129 -1.9683 -0.8069
  106OSM   C18S10839   0.562   3.614   8.357  0.0486 -0.2068 -0.2336
  106OSM   H18S10840   0.565   3.568   8.256 -4.4814 -1.4220 -0.0258
  106OSM   H18T10841   0.457   3.602   8.392  0.2125  1.2057  0.8570
  106OSM   H18U10842   0.637   3.553   8.410  0.6394  0.8635  0.2081
  106OSM    C1F10843   0.846   3.311   9.335  0.0678 -0.7197  0.1202
  106OSM     OF10844   0.733   3.258   9.332  0.6028 -0.9649 -0.5906
  106OSM    C2F10845   0.920   3.365   9.218  0.6564  0.3595  0.3047
  106OSM    H2F10846   1.006   3.298   9.199 -0.0291 -0.2526 -0.7433
  106OSM    H2G10847   0.967   3.461   9.249  0.9070  1.2881 -2.6267
  106OSM    C3F10848   0.842   3.374   9.087  0.2234  0.1409  0.2495
  106OSM    H3F10849   0.760   3.448   9.094  0.5635  0.4939  0.5482
  106OSM    H3G10850   0.811   3.268   9.074 -2.1003  0.8680 -0.6100
  106OSM    C4F10851   0.931   3.411   8.969 -0.0592 -0.2941  0.1968
  106OSM    H4F10852   1.011   3.334   8.979  0.7108  0.6708  1.9536
  106OSM    H4G10853   0.979   3.510   8.985  0.9777 -0.9368  1.2881
  106OSM    C5F10854   0.863   3.401   8.835 -0.1455  0.3926  0.0174
  106OSM    H5F10855   0.761   3.445   8.838 -0.0637  0.8284 -2.0502
  106OSM    H5G10856   0.845   3.292   8.821  0.5242  0.2703  0.0867
  106OSM    C6F10857   0.944   3.452   8.715 -0.4442  0.0514 -0.4864
  106OSM    H6F10858   1.048   3.411   8.720 -0.5193 -0.1620 -0.6905
  106OSM    H6G10859   0.964   3.558   8.742  0.6605 -0.4735  0.9280
  106OSM    C7F10860   0.876   3.443   8.578  0.5073 -0.4120  0.2252
  106OSM    H7F10861   0.781   3.499   8.587  0.7863  0.4830 -1.8347
  106OSM    H7G10862   0.852   3.335   8.564 -0.7929  0.0129 -1.1904
  106OSM    C8F10863   0.966   3.489   8.457  0.0965  0.4020 -0.1226
  106OSM    H8F10864   1.062   3.440   8.487 -0.4212  0.7008  2.2082
  106OSM    H8G10865   0.991   3.597   8.466 -0.8394  0.5708  0.5534
  106OSM    C9F10866   0.902   3.457   8.318  0.1233 -0.1335 -0.4534
  106OSM    H9F10867   0.818   3.525   8.297  0.0691  0.6373  1.9279
  106OSM   C10F10868   0.966   3.384   8.227  0.1690 -0.0869  0.4452
  106OSM   H10F10869   0.920   3.388   8.128  1.4461 -3.7684 -0.4593
  106OSM   C11F10870   1.105   3.322   8.235  0.1507  0.0013 -0.1572
  106OSM   H11F10871   1.095   3.211   8.233 -1.8635  0.1530 -0.9373
  106OSM   H11G10872   1.159   3.332   8.332 -0.3147 -1.7427  0.3235
  106OSM   C12F10873   1.189   3.365   8.115  0.0760 -0.3158  0.1201
  106OSM   H12F10874   1.212   3.472   8.134  0.5522 -0.5355  0.8242
  106OSM   H12G10875   1.125   3.359   8.025  0.6857 -1.4294 -0.2589
  106OSM   C13F10876   1.319   3.281   8.107  0.1016  0.8493  0.1335
  106OSM   H13F10877   1.296   3.176   8.081  2.3192 -0.1672  1.9194
  106OSM   H13G10878   1.384   3.286   8.197  0.4806  1.4371 -0.1656
  106OSM   C14F10879   1.410   3.332   7.997  0.4945 -0.1261 -0.2443
  106OSM   H14F10880   1.515   3.316   8.028  0.8928  1.3322 -0.7908
  106OSM   H14G10881   1.405   3.442   7.983  0.8172  0.4088  3.0112
  106OSM   C15F10882   1.375   3.271   7.857 -0.2612  0.2695  0.1156
  106OSM   H15F10883   1.278   3.311   7.821  0.6332  3.5946  0.9907
  106OSM   H15G10884   1.363   3.162   7.875  0.3572  0.4614  1.9661
  106OSM   C16F10885   1.476   3.267   7.739  0.2270  0.4544 -0.7155
  106OSM   H16F10886   1.447   3.186   7.669  0.6102 -0.5156  0.2202
  106OSM   H16G10887   1.579   3.237   7.768 -0.3472 -0.1137  0.8761
  106OSM   C17F10888   1.483   3.401   7.657  0.1392  0.2838 -0.3449
  106OSM   H17F10889   1.530   3.475   7.725 -0.4024  0.6175 -0.3279
  106OSM   H17G10890   1.385   3.442   7.625  0.6196  0.2330 -1.9993
  106OSM   C18F10891   1.579   3.384   7.534 -0.4246  0.2026 -0.0697
  106OSM   H18F10892   1.680   3.362   7.577  1.9499  4.0581 -2.9305
  106OSM   H18G10893   1.570   3.475   7.471 -1.5600 -1.1202 -1.8985
  106OSM   H18H10894   1.546   3.296   7.476  3.0024 -0.9043 -0.5991
  107OSM      N10895   2.610   0.199   9.979 -0.0809  0.3919 -0.0465
  107OSM    C1510896   2.504   0.094  10.001  0.0380 -0.2331 -0.2567
  107OSM   H15A10897   2.528   0.013  10.068  0.9738  0.0796 -0.2070
  107OSM   H15B10898   2.484   0.047   9.905 -1.9619 -2.2695  1.0408
  107OSM   H15C10899   2.414   0.141  10.037  0.7027  1.7817 -1.1107
  107OSM    C1410900   2.636   0.279  10.100  0.2238 -0.7675  0.1984
  107OSM   H14A10901   2.556   0.351  10.112  1.9288  1.3020 -0.2795
  107OSM   H14B10902   2.723   0.342  10.090  0.8711 -1.4911  1.1743
  107OSM   H14C10903   2.637   0.215  10.187 -1.8290 -0.5489  0.4444
  107OSM    C1310904   2.738   0.123   9.954 -0.5095 -0.2738  0.5453
  107OSM   H13A10905   2.828   0.183   9.964  0.2737 -1.5936  1.9622
  107OSM   H13B10906   2.738   0.070   9.860  1.1697  0.0930  0.3013
  107OSM   H13C10907   2.751   0.045  10.028 -2.9814 -0.0510  1.3255
  107OSM    C1210908   2.568   0.290   9.862 -0.3890 -0.7546 -0.2240
  107OSM   H12A10909   2.637   0.373   9.855 -0.3247 -0.8649 -0.9729
  107OSM   H12B10910   2.469   0.323   9.890 -1.2740 -1.2756 -2.5437
  107OSM    C1110911   2.567   0.237   9.717  0.8005  0.6316 -0.3889
  107OSM   H11A10912   2.673   0.225   9.686  0.2182  0.7940 -2.6280
  107OSM   H11B10913   2.523   0.321   9.659 -1.7193  0.5555  1.2581
  107OSM      P10914   2.352   0.124   9.649  0.3211 -0.0247  0.0305
  107OSM    O1310915   2.306  -0.015   9.626 -0.4923 -0.3004  0.0068
  107OSM    O1410916   2.270   0.206   9.748  0.2737 -0.3079 -0.2921
  107OSM    O1110917   2.383   0.196   9.517  0.2500  0.7528 -0.4306
  107OSM    O1210918   2.494   0.112   9.709  0.2449  0.9811 -0.0210
  107OSM    C1S10919   2.480   0.167   9.419 -0.1961 -0.1762  0.0470
  107OSM    H1S10920   2.548   0.085   9.453  1.7940  1.1619 -0.5050
  107OSM    H1T10921   2.549   0.252   9.396 -0.0447 -0.2148  0.3491
  107OSM     NF10922   2.511   0.061   9.201 -0.5331  0.7142  0.1482
  107OSM    HNF10923   2.495   0.083   9.105  1.3207 -2.1505 -0.9391
  107OSM    C2S10924   2.410   0.111   9.292  0.8391  0.4449  0.6832
  107OSM    H2S10925   2.344   0.028   9.324  1.1612 -0.2183 -0.3318
  107OSM    C3S10926   2.304   0.210   9.226 -0.6126 -0.5015 -0.3993
  107OSM    H3S10927   2.362   0.305   9.218 -0.8881 -0.3469 -0.5776
  107OSM     O310928   2.196   0.240   9.311  0.2240  0.0494 -0.0753
  107OSM    HO310929   2.232   0.233   9.399  0.2064 -2.4374 -0.2048
  107OSM    C4S10930   2.265   0.169   9.086 -0.6043  0.2525 -0.1277
  107OSM    H4S10931   2.216   0.070   9.079  1.3759 -0.6975 -1.6254
  107OSM    C5S10932   2.276   0.245   8.973 -0.8793 -0.0205 -0.5436
  107OSM    H5S10933   2.304   0.350   8.988 -0.5071 -0.3289  1.1114
  107OSM    C6S10934   2.211   0.208   8.846  1.0347 -0.3959  0.3898
  107OSM    H6S10935   2.156   0.114   8.865  1.0691 -0.2738  1.1365
  107OSM    H6T10936   2.291   0.191   8.771  0.1925 -0.7138 -0.4511
  107OSM    C7S10937   2.109   0.312   8.794  0.0258  0.6540  0.1935
  107OSM    H7S10938   2.141   0.418   8.799 -2.1392  1.4193 -0.8403
  107OSM    H7T10939   2.025   0.309   8.866 -0.0571 -0.5777  0.0726
  107OSM    C8S10940   2.059   0.285   8.651 -0.7565  0.6520  0.5744
  107OSM    H8S10941   1.954   0.323   8.647 -1.5959 -1.4972  0.4228
  107OSM    H8T10942   2.063   0.174   8.645  0.7169  0.7363 -0.4466
  107OSM    C9S10943   2.151   0.338   8.546 -0.5056  0.4965 -0.2062
  107OSM    H9S10944   2.254   0.304   8.572 -0.8610  0.1508  0.8002
  107OSM    H9T10945   2.151   0.449   8.546 -1.7892  0.5862 -3.1659
  107OSM   C10S10946   2.113   0.289   8.405  0.1425  0.4141 -0.0298
  107OSM   H10S10947   2.003   0.292   8.396  0.2492  0.9366 -1.4629
  107OSM   H10T10948   2.135   0.181   8.391  0.9094  0.4925  0.5121
  107OSM   C11S10949   2.169   0.372   8.284  0.2358 -0.1439  0.1757
  107OSM   H11S10950   2.280   0.369   8.276  0.3351 -0.5963  1.4282
  107OSM   H11T10951   2.129   0.475   8.295 -2.1336 -1.0010  0.0748
  107OSM   C12S10952   2.109   0.326   8.148 -0.0696  0.5972 -0.2497
  107OSM   H12S10953   1.998   0.334   8.149 -0.1048  0.2447  1.6506
  107OSM   H12T10954   2.140   0.219   8.138 -1.1296  0.3714 -1.4106
  107OSM   C13S10955   2.162   0.417   8.035 -0.5038 -0.3382 -0.2327
  107OSM   H13S10956   2.271   0.409   8.017 -0.5496  0.7157 -1.0528
  107OSM   H13T10957   2.129   0.520   8.059 -2.2419 -0.6368 -1.1385
  107OSM   C14S10958   2.095   0.385   7.901  0.1047 -0.3386 -0.2059
  107OSM   H14S10959   1.984   0.381   7.911  0.1456 -1.0024  0.0226
  107OSM   H14T10960   2.130   0.286   7.864 -2.0896 -0.7269 -1.4008
  107OSM   C15S10961   2.126   0.493   7.798 -0.5328  0.1487  0.8143
  107OSM   H15S10962   2.231   0.495   7.762 -0.3629 -0.1267  1.2876
  107OSM   H15T10963   2.102   0.590   7.847  3.8015  1.3924  0.8612
  107OSM   C16S10964   2.039   0.485   7.668 -0.7369  0.5276 -0.4150
  107OSM   H16S10965   2.023   0.585   7.621  0.4760  0.5199 -0.8815
  107OSM   H16T10966   1.942   0.438   7.694  0.9889 -2.7340  0.6982
  107OSM   C17S10967   2.100   0.394   7.563  0.1963 -0.7938 -0.0487
  107OSM   H17S10968   2.121   0.295   7.609 -1.8827 -2.2695 -2.0480
  107OSM   H17T10969   2.196   0.443   7.535  0.9184 -1.5801  0.9609
  107OSM   C18S10970   2.019   0.392   7.435  0.2276  0.4413  0.3431
  107OSM   H18S10971   1.972   0.488   7.404 -0.1210 -0.8073 -3.4277
  107OSM   H18T10972   1.927   0.332   7.450  0.3137  0.3789  0.6295
  107OSM   H18U10973   2.063   0.352   7.342  0.5501  0.3544  0.5303
  107OSM    C1F10974   2.618  -0.018   9.214 -0.6754 -0.7277 -1.0484
  107OSM     OF10975   2.627  -0.083   9.320 -0.0044  0.0649 -0.0608
  107OSM    C2F10976   2.708  -0.036   9.096  0.2247 -0.8655 -0.1682
  107OSM    H2F10977   2.717  -0.147   9.094 -2.9580 -1.2119 -0.0748
  107OSM    H2G10978   2.811  -0.006   9.124  0.1238 -0.3474 -0.3331
  107OSM    C3F10979   2.654   0.024   8.960 -0.1349 -0.6152 -0.2388
  107OSM    H3F10980   2.654   0.134   8.970  2.5044 -0.5586 -0.1071
  107OSM    H3G10981   2.555  -0.022   8.938 -0.2742 -1.2169  1.4502
  107OSM    C4F10982   2.746  -0.014   8.839 -0.0096 -0.5154 -0.1340
  107OSM    H4F10983   2.774  -0.120   8.861 -0.0727 -0.4877  0.0760
  107OSM    H4G10984   2.841   0.043   8.848  0.7651 -1.4248 -1.8144
  107OSM    C5F10985   2.680  -0.016   8.710 -0.1097 -0.0509 -0.5295
  107OSM    H5F10986   2.629   0.083   8.711  0.4277  0.2646 -2.1482
  107OSM    H5G10987   2.605  -0.094   8.690 -0.9248  0.4930  0.3239
  107OSM    C6F10988   2.781  -0.027   8.597 -0.2415 -0.5242 -0.5792
  107OSM    H6F10989   2.716  -0.050   8.510 -1.2893  1.1704 -0.2936
  107OSM    H6G10990   2.855  -0.107   8.619 -0.2639 -0.5232 -0.5007
  107OSM    C7F10991   2.866   0.101   8.558 -0.4385  0.4768 -0.0953
  107OSM    H7F10992   2.942   0.068   8.483  0.1540  2.0650 -0.2337
  107OSM    H7G10993   2.919   0.113   8.655 -0.0256 -0.5522 -0.1797
  107OSM    C8F10994   2.780   0.223   8.511 -0.0078 -0.3846  0.0690
  107OSM    H8F10995   2.723   0.244   8.604 -1.6417 -0.5774 -0.8498
  107OSM    H8G10996   2.713   0.185   8.431  0.4166 -2.0418  0.4548
  107OSM    C9F10997   2.855   0.350   8.464 -0.5217 -0.1679  0.4482
  107OSM    H9F10998   2.891   0.411   8.548  1.1101  0.2078 -0.4867
  107OSM   C10F10999   2.869   0.391   8.334  0.0489  0.2325 -0.2947
  107OSM   H10F11000   2.940   0.467   8.300  0.0160  0.3290 -0.1505
  107OSM   C11F11001   2.809   0.320   8.211 -0.3257  0.6406  0.4549
  107OSM   H11F11002   2.757   0.224   8.235  1.1965  0.4049  3.1973
  107OSM   H11G11003   2.893   0.301   8.141  0.2053  0.9691  0.9901
  107OSM   C12F11004   2.719   0.415   8.131  0.6526  0.0697 -0.1514
  107OSM   H12F11005   2.787   0.502   8.119  2.6553 -1.1506  1.6070
  107OSM   H12G11006   2.637   0.452   8.196  1.0476 -0.5725  0.7294
  107OSM   C13F11007   2.661   0.368   7.999 -0.1449 -0.0892  0.3143
  107OSM   H13F11008   2.581   0.295   8.022  1.6499 -2.6153 -1.0329
  107OSM   H13G11009   2.736   0.317   7.935 -1.8846 -3.1945  0.5670
  107OSM   C14F11010   2.597   0.482   7.913  0.1317  0.0030 -0.3957
  107OSM   H14F11011   2.665   0.560   7.874  1.1715 -1.0834 -0.8489
  107OSM   H14G11012   2.540   0.542   7.987 -0.6086 -0.5065 -0.5437
  107OSM   C15F11013   2.496   0.434   7.807 -0.5856 -0.5618  1.2082
  107OSM   H15F11014   2.441   0.523   7.769 -0.3640 -0.8512  0.1695
  107OSM   H15G11015   2.418   0.370   7.853 -0.0629 -0.2275  2.6164
  107OSM   C16F11016   2.564   0.357   7.686  0.0093  0.6276 -0.5162
  107OSM   H16F11017   2.634   0.280   7.725 -2.4055 -1.1434  0.5333
  107OSM   H16G11018   2.614   0.434   7.624 -1.0816  2.4503  0.7704
  107OSM   C17F11019   2.454   0.294   7.598 -0.2986  0.2028 -0.0197
  107OSM   H17F11020   2.495   0.257   7.502  2.7032  0.2802  1.1297
  107OSM   H17G11021   2.376   0.367   7.570  0.7050  1.3268  0.0424
  107OSM   C18F11022   2.392   0.163   7.656 -0.7418 -0.2809 -0.2399
  107OSM   H18F11023   2.318   0.114   7.589 -0.3854 -3.7248  1.6693
  107OSM   H18G11024   2.348   0.183   7.757  0.1430 -2.0741  0.5470
  107OSM   H18H11025   2.477   0.093   7.670 -1.0823 -0.8022 -0.7621
  108OSM      N11026   0.759   1.523   9.382  0.0613  1.0068 -0.4123
  108OSM    C1511027   0.883   1.449   9.406 -0.0956  0.3288  0.3236
  108OSM   H15A11028   0.973   1.509   9.416  0.4055 -0.5562  1.4670
  108OSM   H15B11029   0.908   1.375   9.332  0.6861  0.2283  0.6670
  108OSM   H15C11030   0.888   1.402   9.503 -1.1730  0.2990  0.3751
  108OSM    C1411031   0.774   1.585   9.247 -0.1131 -0.0330  0.3431
  108OSM   H14A11032   0.854   1.657   9.239 -0.8759  0.8533  0.5863
  108OSM   H14B11033   0.684   1.638   9.220 -1.0108 -2.0844 -1.0253
  108OSM   H14C11034   0.780   1.508   9.170  1.5807  0.6718 -0.2679
  108OSM    C1311035   0.647   1.417   9.391  0.1735 -0.3194  0.2542
  108OSM   H13A11036   0.677   1.328   9.337 -1.4190  1.0177 -3.1018
  108OSM   H13B11037   0.558   1.454   9.343 -0.6491 -0.2475  1.7824
  108OSM   H13C11038   0.613   1.393   9.491  3.5163  0.8024  1.8134
  108OSM    C1211039   0.746   1.618   9.494 -0.0816 -0.5948  0.3832
  108OSM   H12A11040   0.836   1.677   9.506 -1.4190  1.2739  1.7000
  108OSM   H12B11041   0.749   1.568   9.590  0.2711  0.3836  0.8940
  108OSM    C1111042   0.625   1.721   9.486  0.1351  0.6046 -0.4108
  108OSM   H11A11043   0.529   1.666   9.495 -0.6244  1.5814 -1.9352
  108OSM   H11B11044   0.625   1.770   9.386  1.6221 -0.7297 -1.0999
  108OSM      P11045   0.711   1.949   9.551 -0.5327 -0.4432 -0.2530
  108OSM    O1311046   0.739   2.025   9.673  0.2476 -0.0556 -0.1464
  108OSM    O1411047   0.827   1.916   9.469 -0.5348 -0.4791 -0.2518
  108OSM    O1111048   0.609   2.028   9.461  0.1046 -0.1373 -0.1618
  108OSM    O1211049   0.637   1.821   9.584  0.3242 -0.2806  0.9305
  108OSM    C1S11050   0.650   2.147   9.398 -0.1906  0.3217  0.0603
  108OSM    H1S11051   0.760   2.163   9.393 -0.2708  2.5316  2.6790
  108OSM    H1T11052   0.606   2.235   9.450  0.4731  0.4553  0.4097
  108OSM     NF11053   0.673   2.279   9.200 -0.3105  0.6503  0.7527
  108OSM    HNF11054   0.621   2.363   9.213 -1.7463  0.3350 -2.0837
  108OSM    C2S11055   0.606   2.162   9.252 -0.1904 -0.3212  0.3163
  108OSM    H2S11056   0.647   2.078   9.192 -2.4880  0.2562 -2.2597
  108OSM    C3S11057   0.448   2.157   9.232 -0.7255  0.1138 -0.4221
  108OSM    H3S11058   0.392   2.240   9.281  0.2780  1.5301 -1.6024
  108OSM     O311059   0.394   2.040   9.290 -0.0210 -0.3013 -0.1922
  108OSM    HO311060   0.465   2.009   9.347 -1.5310 -1.2958  1.2565
  108OSM    C4S11061   0.412   2.163   9.096  0.2488  0.0976 -0.3818
  108OSM    H4S11062   0.432   2.067   9.045  1.1662 -0.5036  1.0396
  108OSM    C5S11063   0.365   2.261   9.026 -0.6255 -0.1733 -0.5488
  108OSM    H5S11064   0.351   2.361   9.070  1.2057  0.0577 -0.4256
  108OSM    C6S11065   0.333   2.265   8.877 -0.1343 -0.2890 -0.4234
  108OSM    H6S11066   0.317   2.370   8.845  0.3350 -0.5454 -1.5417
  108OSM    H6T11067   0.239   2.209   8.857 -0.3954  0.5712 -1.7724
  108OSM    C7S11068   0.452   2.214   8.794  0.1165 -0.1785 -0.2838
  108OSM    H7S11069   0.505   2.129   8.842  0.9506 -0.0389 -0.9399
  108OSM    H7T11070   0.528   2.294   8.801 -2.6410  2.6205 -0.1655
  108OSM    C8S11071   0.430   2.204   8.643  0.0163  0.2087 -0.4632
  108OSM    H8S11072   0.323   2.173   8.637  0.1147 -0.4975  0.8351
  108OSM    H8T11073   0.493   2.125   8.597  1.0670  1.3676 -1.0526
  108OSM    C9S11074   0.439   2.329   8.563  0.2551 -0.0336  0.1450
  108OSM    H9S11075   0.547   2.348   8.545  0.4964 -1.0290  0.4825
  108OSM    H9T11076   0.407   2.412   8.629 -0.7945 -1.6659  1.7909
  108OSM   C10S11077   0.360   2.336   8.431  0.4330 -0.0783  0.1555
  108OSM   H10S11078   0.359   2.434   8.377 -2.0909 -1.1916 -2.0572
  108OSM   H10T11079   0.255   2.323   8.466 -0.2620  1.3932 -1.2270
  108OSM   C11S11080   0.401   2.246   8.308 -0.0980 -0.3197  0.2972
  108OSM   H11S11081   0.472   2.168   8.346 -1.0125 -0.5957  1.4929
  108OSM   H11T11082   0.463   2.305   8.238 -0.2280  0.2906  0.6947
  108OSM   C12S11083   0.289   2.177   8.237 -0.2714 -0.3087 -0.0891
  108OSM   H12S11084   0.203   2.246   8.231  1.2935  1.6970 -0.7396
  108OSM   H12T11085   0.265   2.098   8.312  1.5803 -0.6727  0.1876
  108OSM   C13S11086   0.326   2.118   8.099  0.0266  0.2484 -0.4121
  108OSM   H13S11087   0.410   2.050   8.125 -0.9451 -0.1844  1.8183
  108OSM   H13T11088   0.363   2.196   8.029  0.5964  0.9739  0.6725
  108OSM   C14S11089   0.214   2.032   8.040  0.1148 -0.0200 -0.1943
  108OSM   H14S11090   0.130   2.099   8.011 -0.6709 -1.4881 -1.4491
  108OSM   H14T11091   0.187   1.966   8.125  0.1125 -0.4784 -0.5477
  108OSM   C15S11092   0.255   1.962   7.914 -1.1786  0.5816 -0.5111
  108OSM   H15S11093   0.341   1.896   7.937 -1.2754  0.8433  0.6613
  108OSM   H15T11094   0.289   2.037   7.839 -2.3965 -1.6481 -3.4819
  108OSM   C16S11095   0.138   1.887   7.855  0.2485 -0.2914  0.6630
  108OSM   H16S11096   0.054   1.959   7.843 -0.8744 -1.4104  1.5095
  108OSM   H16T11097   0.105   1.798   7.913 -3.0883 -1.6296 -2.8570
  108OSM   C17S11098   0.168   1.827   7.721  0.0603  0.3992 -0.1863
  108OSM   H17S11099   0.252   1.757   7.743 -2.3957 -2.5270  0.7141
  108OSM   H17T11100   0.203   1.899   7.645 -2.7379  1.7008 -0.3588
  108OSM   C18S11101   0.061   1.739   7.666 -0.3747  0.4277 -0.2101
  108OSM   H18S11102   0.083   1.690   7.569  2.9508  1.2449  0.0023
  108OSM   H18T11103  -0.033   1.796   7.648 -0.7317 -0.2547 -0.5516
  108OSM   H18U11104   0.048   1.660   7.742  1.5506 -1.8711 -2.0938
  108OSM    C1F11105   0.803   2.290   9.171 -0.4424  0.4504  0.2308
  108OSM     OF11106   0.874   2.189   9.185 -0.8243  0.1346 -0.0792
  108OSM    C2F11107   0.856   2.424   9.133 -0.7206  0.1200 -0.0896
  108OSM    H2F11108   0.927   2.445   9.215 -0.0278 -2.8297  0.1854
  108OSM    H2G11109   0.775   2.500   9.134  2.0265  3.2848 -0.1399
  108OSM    C3F11110   0.933   2.428   8.998 -0.2713  0.5414  0.3133
  108OSM    H3F11111   1.031   2.375   8.996 -1.8295 -2.5380 -0.5974
  108OSM    H3G11112   0.958   2.532   8.967 -0.7545 -0.1264 -2.5786
  108OSM    C4F11113   0.847   2.370   8.884  0.5881 -0.1558  0.4862
  108OSM    H4F11114   0.760   2.439   8.876  0.2798 -0.7578 -4.8229
  108OSM    H4G11115   0.818   2.264   8.898  0.0611  0.0441  0.9015
  108OSM    C5F11116   0.916   2.381   8.744 -0.4605 -0.3459 -0.3657
  108OSM    H5F11117   0.998   2.307   8.737  1.5571  1.8238 -1.0290
  108OSM    H5G11118   0.960   2.483   8.733 -0.6684 -0.3105 -0.8660
  108OSM    C6F11119   0.821   2.342   8.628 -0.5616 -0.0035  0.4813
  108OSM    H6F11120   0.735   2.410   8.613 -0.5481 -0.5427 -2.8582
  108OSM    H6G11121   0.784   2.237   8.636 -1.6571  0.1423 -1.9120
  108OSM    C7F11122   0.897   2.336   8.494  0.0046  0.6187 -0.1892
  108OSM    H7F11123   0.977   2.262   8.514  1.6455  1.7349 -2.1660
  108OSM    H7G11124   0.952   2.429   8.469  2.7903 -1.1739 -1.1555
  108OSM    C8F11125   0.817   2.288   8.378  0.7940 -0.6202  0.5830
  108OSM    H8F11126   0.750   2.210   8.420  0.1531  0.2990  1.3017
  108OSM    H8G11127   0.889   2.233   8.313  0.4822  0.2296 -0.5224
  108OSM    C9F11128   0.741   2.387   8.292  0.0794  0.0120  0.2473
  108OSM    H9F11129   0.649   2.422   8.342  0.9114  2.6986  0.0536
  108OSM   C10F11130   0.782   2.440   8.172  0.3117  0.0025 -0.6436
  108OSM   H10F11131   0.727   2.517   8.116  0.5690  0.1617 -0.6774
  108OSM   C11F11132   0.910   2.399   8.095  0.3122  0.0048  0.2820
  108OSM   H11F11133   0.961   2.312   8.142  2.7827  0.7234 -0.9031
  108OSM   H11G11134   0.982   2.484   8.092  0.8671 -0.4760 -0.6298
  108OSM   C12F11135   0.871   2.352   7.946 -0.1612  0.1109 -0.3976
  108OSM   H12F11136   0.956   2.296   7.903 -0.1499 -2.0525  2.1301
  108OSM   H12G11137   0.843   2.435   7.878  0.0378 -1.9025 -3.1001
  108OSM   C13F11138   0.761   2.257   7.937  0.4476  0.5231 -0.1359
  108OSM   H13F11139   0.671   2.276   7.998 -0.2396 -1.2053 -0.5499
  108OSM   H13G11140   0.805   2.164   7.981  2.5059  1.4815 -0.0729
  108OSM   C14F11141   0.719   2.231   7.788 -0.0196  0.8560  0.4302
  108OSM   H14F11142   0.797   2.187   7.722 -0.5910  0.6212 -0.1039
  108OSM   H14G11143   0.684   2.328   7.748  1.0673  0.1582 -2.4882
  108OSM   C15F11144   0.600   2.129   7.777  0.3033  0.8098 -0.2262
  108OSM   H15F11145   0.508   2.167   7.825 -1.8313 -1.7262 -2.0088
  108OSM   H15G11146   0.630   2.036   7.831 -0.2414 -0.1011 -1.4333
  108OSM   C16F11147   0.558   2.087   7.632 -0.1419 -0.0606 -0.0577
  108OSM   H16F11148   0.542   2.178   7.571 -0.9549 -1.2199 -1.6276
  108OSM   H16G11149   0.456   2.045   7.633 -0.5951  0.8525 -2.2659
  108OSM   C17F11150   0.662   2.000   7.562 -0.0426  0.3438  0.5403
  108OSM   H17F11151   0.683   1.916   7.632  1.7640  1.2906  1.2228
  108OSM   H17G11152   0.758   2.056   7.551  2.0048 -2.6299  1.7991
  108OSM   C18F11153   0.611   1.950   7.428 -0.1890  0.3518  0.2626
  108OSM   H18F11154   0.675   1.863   7.402 -0.7405 -0.8346  2.6654
  108OSM   H18G11155   0.617   2.034   7.355  2.7872  0.4504  0.4949
  108OSM   H18H11156   0.509   1.909   7.438  0.1142 -0.1300  1.4403
  109OSM      N11157   5.982   1.117  10.075  0.0315  0.4664 -0.2161
  109OSM    C1511158   6.119   1.046  10.073  0.5792 -0.5890 -0.0870
  109OSM   H15A11159   6.194   1.113  10.034 -1.3700  2.2269  0.6474
  109OSM   H15B11160   6.121   0.964  10.004  0.8914  0.5054 -1.4241
  109OSM   H15C11161   6.150   1.025  10.174 -0.6966  0.1779  0.4949
  109OSM    C1411162   5.878   1.030  10.139 -0.2569  0.2044  0.0763
  109OSM   H14A11163   5.788   1.081  10.170 -1.8898 -1.7937 -1.1306
  109OSM   H14B11164   5.912   0.968  10.221 -1.4360  1.5192  1.6359
  109OSM   H14C11165   5.844   0.964  10.061 -0.6399  0.5728 -0.0738
  109OSM    C1311166   5.995   1.242  10.157 -0.2294  0.8751 -0.0928
  109OSM   H13A11167   5.912   1.310  10.145  0.1335  1.4354  0.4981
  109OSM   H13B11168   6.083   1.296  10.124 -0.1759  1.3701  0.8257
  109OSM   H13C11169   6.018   1.207  10.257 -1.9875 -0.9382 -0.2550
  109OSM    C1211170   5.936   1.161   9.935  0.1699  0.4294  0.4803
  109OSM   H12A11171   5.845   1.219   9.934 -0.0582  0.0931 -1.0420
  109OSM   H12B11172   5.915   1.068   9.883 -1.6042  0.4131  1.1519
  109OSM    C1111173   6.029   1.244   9.848  0.1927 -0.2563  0.7986
  109OSM   H11A11174   6.065   1.323   9.918 -1.6689  0.9848  0.4214
  109OSM   H11B11175   5.964   1.292   9.772 -0.0916  1.9884  2.3623
  109OSM      P11176   6.265   1.254   9.745 -0.0994  0.1262 -0.3854
  109OSM    O1311177   6.316   1.331   9.864 -0.1147  0.3725  0.5639
  109OSM    O1411178   6.365   1.162   9.686  0.2679  0.2189 -0.1862
  109OSM    O1111179   6.222   1.351   9.628 -0.5266 -0.4646  0.1068
  109OSM    O1211180   6.130   1.175   9.782  0.0176 -0.2939 -0.1844
  109OSM    C1S11181   6.156   1.302   9.511  0.1568  0.5506 -0.2811
  109OSM    H1S11182   6.113   1.200   9.522  1.3834  0.2307  1.9009
  109OSM    H1T11183   6.228   1.286   9.428 -1.0390 -1.0424 -1.0770
  109OSM     NF11184   5.965   1.332   9.355 -0.2967  1.0920  0.3861
  109OSM    HNF11185   5.972   1.393   9.276 -0.2915  0.7374  0.1075
  109OSM    C2S11186   6.032   1.385   9.473  0.2625  0.2392  0.1657
  109OSM    H2S11187   5.959   1.376   9.556  1.5139 -0.1432  1.2569
  109OSM    C3S11188   6.084   1.532   9.457 -0.6878  0.7076  0.0318
  109OSM    H3S11189   6.147   1.565   9.543  0.1425  1.9674 -1.0131
  109OSM     O311190   5.989   1.636   9.436  0.3557 -0.5528 -0.7296
  109OSM    HO311191   5.904   1.598   9.460 -0.4357  1.1464 -0.7171
  109OSM    C4S11192   6.175   1.527   9.334 -0.8221  0.4819  1.0376
  109OSM    H4S11193   6.272   1.477   9.350  0.3243  2.2554 -0.0802
  109OSM    C5S11194   6.166   1.576   9.210 -0.9850 -0.3762  0.5305
  109OSM    H5S11195   6.084   1.646   9.190 -2.2533 -1.2127  2.4942
  109OSM    C6S11196   6.279   1.561   9.108  0.0550 -1.4161  0.0089
  109OSM    H6S11197   6.362   1.501   9.151  1.1866 -0.1392 -0.3483
  109OSM    H6T11198   6.327   1.656   9.078  0.2509 -1.3948  0.3851
  109OSM    C7S11199   6.232   1.492   8.976  0.4735 -0.0640 -0.5217
  109OSM    H7S11200   6.177   1.404   9.016 -1.4394  1.4219  0.2693
  109OSM    H7T11201   6.315   1.452   8.913 -0.1286 -2.1536 -0.0831
  109OSM    C8S11202   6.134   1.566   8.888 -0.1800 -0.0199  0.2492
  109OSM    H8S11203   6.143   1.674   8.909 -1.3896 -0.1172  1.4180
  109OSM    H8T11204   6.031   1.540   8.919 -0.2079  0.3502  0.4710
  109OSM    C9S11205   6.161   1.536   8.736  0.3613 -0.1920 -0.0733
  109OSM    H9S11206   6.138   1.430   8.714 -0.0829 -0.2322  0.5678
  109OSM    H9T11207   6.265   1.568   8.714 -0.7079  2.2560 -2.1017
  109OSM   C10S11208   6.067   1.617   8.640  0.6319  0.2397 -0.4614
  109OSM   H10S11209   6.097   1.724   8.644  2.0346 -0.1233 -0.9648
  109OSM   H10T11210   5.958   1.602   8.656  0.9110 -1.2370  0.2471
  109OSM   C11S11211   6.088   1.574   8.493 -0.1026  0.1698 -0.1846
  109OSM   H11S11212   6.086   1.464   8.507  1.8105  0.3897  2.6276
  109OSM   H11T11213   6.192   1.593   8.461  0.0156  1.1207  0.7147
  109OSM   C12S11214   5.985   1.610   8.384 -0.5300 -0.7977  0.2728
  109OSM   H12S11215   5.984   1.721   8.385 -1.0749 -0.8012  1.4498
  109OSM   H12T11216   5.883   1.569   8.400 -0.2005 -1.4407  0.7550
  109OSM   C13S11217   6.020   1.565   8.245 -0.6175 -0.0708  0.3675
  109OSM   H13S11218   6.026   1.454   8.252  2.8579  0.0484  1.3181
  109OSM   H13T11219   6.121   1.592   8.207 -1.4424  2.6386 -0.0818
  109OSM   C14S11220   5.910   1.606   8.148 -0.3880  0.0489 -0.0047
  109OSM   H14S11221   5.812   1.591   8.198 -1.3256  0.9232 -1.4881
  109OSM   H14T11222   5.918   1.530   8.068 -0.2022  0.4846 -0.4045
  109OSM   C15S11223   5.946   1.737   8.091  0.1490  0.4063  0.4157
  109OSM   H15S11224   6.046   1.736   8.042  0.2756  1.5977  0.6118
  109OSM   H15T11225   5.945   1.817   8.168 -0.8263  0.3852  0.4284
  109OSM   C16S11226   5.855   1.791   7.980 -0.3512 -0.1292 -0.0656
  109OSM   H16S11227   5.768   1.833   8.036 -1.1349 -0.8121 -0.7362
  109OSM   H16T11228   5.824   1.704   7.918 -1.9115  1.6981 -1.9859
  109OSM   C17S11229   5.920   1.889   7.882 -0.6461 -0.2537  0.4135
  109OSM   H17S11230   5.996   1.841   7.817 -0.9663 -0.8812  0.4906
  109OSM   H17T11231   5.976   1.968   7.936  0.7168 -0.6456 -0.3810
  109OSM   C18S11232   5.804   1.948   7.795  0.4202  0.3476  0.3431
  109OSM   H18S11233   5.752   1.871   7.734 -1.1239  1.5180  0.1422
  109OSM   H18T11234   5.835   2.034   7.733  1.5460  0.4873  1.0658
  109OSM   H18U11235   5.728   1.984   7.867  0.4986  0.1236  0.5435
  109OSM    C1F11236   5.914   1.218   9.319  0.5873 -0.5927  0.6050
  109OSM     OF11237   5.918   1.126   9.399 -1.0099 -0.4342 -0.0203
  109OSM    C2F11238   5.845   1.210   9.186 -0.4153 -0.3604  1.8710
  109OSM    H2F11239   5.794   1.307   9.165  3.3858  1.8514  1.9270
  109OSM    H2G11240   5.776   1.124   9.182 -0.0057 -0.6586  1.0528
  109OSM    C3F11241   5.945   1.206   9.068 -0.2783  0.1506 -0.4057
  109OSM    H3F11242   6.014   1.120   9.086  0.3786  0.4097 -1.5589
  109OSM    H3G11243   6.010   1.295   9.072 -0.7684  0.5051 -0.2972
  109OSM    C4F11244   5.881   1.194   8.924 -0.7636 -0.3182 -0.4900
  109OSM    H4F11245   5.838   1.291   8.889 -1.1095 -0.4675 -0.4853
  109OSM    H4G11246   5.805   1.113   8.922 -1.1820  0.0375  0.2856
  109OSM    C5F11247   5.974   1.152   8.808 -0.9052 -0.5863 -0.3483
  109OSM    H5F11248   6.031   1.058   8.823 -2.3196 -1.5190 -0.6637
  109OSM    H5G11249   6.044   1.238   8.799 -0.1131 -0.9004  2.1521
  109OSM    C6F11250   5.921   1.137   8.662 -0.7723 -0.3211 -0.2576
  109OSM    H6F11251   5.847   1.055   8.651 -1.9873  0.7898 -0.5740
  109OSM    H6G11252   6.007   1.107   8.598  0.0719 -0.9207  1.0934
  109OSM    C7F11253   5.849   1.268   8.610  0.4908 -0.6897  0.4462
  109OSM    H7F11254   5.906   1.362   8.625  0.6032 -0.6820 -0.0046
  109OSM    H7G11255   5.757   1.278   8.671  1.7045  0.2963  2.1832
  109OSM    C8F11256   5.806   1.236   8.462  0.1577 -0.3067 -0.4952
  109OSM    H8F11257   5.740   1.314   8.419  0.4037 -0.5598 -1.3387
  109OSM    H8G11258   5.742   1.146   8.477 -0.7269  0.4374  0.3037
  109OSM    C9F11259   5.914   1.212   8.364 -0.5073 -0.0830  0.4181
  109OSM    H9F11260   6.011   1.261   8.385 -1.2144  1.2990  0.6085
  109OSM   C10F11261   5.923   1.128   8.264  0.0116 -0.1992 -0.4908
  109OSM   H10F11262   6.017   1.124   8.206  0.2211 -0.1523 -0.1566
  109OSM   C11F11263   5.811   1.042   8.212  0.3728  0.3085 -0.5942
  109OSM   H11F11264   5.719   1.101   8.235  0.7736  1.3718 -1.6229
  109OSM   H11G11265   5.799   0.940   8.253 -0.3352 -0.0398 -1.6319
  109OSM   C12F11266   5.819   1.040   8.057  0.1785 -1.1438  1.0079
  109OSM   H12F11267   5.873   0.952   8.016 -0.1888  0.8961 -4.7582
  109OSM   H12G11268   5.879   1.125   8.016 -1.5000  0.3824  1.5523
  109OSM   C13F11269   5.680   1.039   8.003  0.5712 -0.0807  0.3546
  109OSM   H13F11270   5.598   1.014   8.074 -2.2181  0.9422 -2.2633
  109OSM   H13G11271   5.669   0.968   7.919 -1.4714 -0.0498  0.5421
  109OSM   C14F11272   5.629   1.176   7.952  0.6844 -0.2869  0.0064
  109OSM   H14F11273   5.527   1.171   7.908  0.3330  2.8236  0.2574
  109OSM   H14G11274   5.697   1.209   7.870  1.1070  0.0387  0.4855
  109OSM   C15F11275   5.619   1.290   8.055  0.3375  0.0014  0.4721
  109OSM   H15F11276   5.712   1.296   8.115 -0.5376 -0.2257  1.9005
  109OSM   H15G11277   5.551   1.278   8.142  0.2995  0.8786  0.5721
  109OSM   C16F11278   5.597   1.433   8.001 -0.1127  0.4058  0.6363
  109OSM   H16F11279   5.683   1.452   7.934 -0.6250 -2.3741 -0.9517
  109OSM   H16G11280   5.600   1.505   8.085  0.4481  0.4822  0.5588
  109OSM   C17F11281   5.471   1.455   7.918 -0.0014  0.2878 -0.3293
  109OSM   H17F11282   5.485   1.400   7.822  0.6879  2.1786 -1.3689
  109OSM   H17G11283   5.464   1.562   7.889  2.6135 -0.1308 -2.9948
  109OSM   C18F11284   5.346   1.413   7.988  0.2657  0.0572 -0.5778
  109OSM   H18F11285   5.339   1.454   8.091 -0.8559 -1.9180  0.1840
  109OSM   H18G11286   5.340   1.303   7.995  1.1293  0.0652  0.5636
  109OSM   H18H11287   5.253   1.452   7.941 -1.0859 -0.8283  1.2472
  110OSM      N11288   5.937   7.064   9.891  0.2910  0.6674  0.3095
  110OSM    C1511289   6.051   7.155   9.922 -0.5060  0.3216  0.2681
  110OSM   H15A11290   6.090   7.132  10.020  1.2256 -0.9014 -0.6632
  110OSM   H15B11291   6.021   7.259   9.918 -0.0410  0.4138 -2.3320
  110OSM   H15C11292   6.134   7.140   9.855  1.4865 -1.4660  2.9258
  110OSM    C1411293   5.978   6.918   9.907  0.0986 -0.0896  0.3548
  110OSM   H14A11294   6.014   6.907  10.008 -0.0937 -1.2992  0.2995
  110OSM   H14B11295   6.050   6.888   9.832 -0.5748 -1.4889  0.2375
  110OSM   H14C11296   5.898   6.854   9.874  0.3464 -0.0055 -0.4473
  110OSM    C1311297   5.833   7.105   9.997 -0.4943 -0.0262  0.3348
  110OSM   H13A11298   5.796   7.205   9.987  0.4415  0.1817 -1.4804
  110OSM   H13B11299   5.879   7.104  10.095  1.3525  0.6832 -0.4829
  110OSM   H13C11300   5.747   7.040   9.995 -0.6688  0.1533 -2.6252
  110OSM    C1211301   5.893   7.099   9.752  0.4477 -0.5892 -0.2604
  110OSM   H12A11302   5.974   7.082   9.682 -0.1942  3.9121 -2.4635
  110OSM   H12B11303   5.876   7.206   9.752 -0.0797 -0.6536  0.9266
  110OSM    C1111304   5.778   7.016   9.695  0.7780  0.2606 -0.1294
  110OSM   H11A11305   5.814   6.911   9.686 -0.6171 -0.0692 -2.5462
  110OSM   H11B11306   5.750   7.044   9.592  0.3376  2.1611  0.4744
  110OSM      P11307   5.531   6.943   9.785  0.2610 -0.4562  0.2084
  110OSM    O1311308   5.535   6.854   9.900 -0.5512  0.1597  0.2036
  110OSM    O1411309   5.411   7.031   9.780  0.5665 -0.3055 -0.0670
  110OSM    O1111310   5.534   6.858   9.647 -0.0232 -0.0277 -0.3576
  110OSM    O1211311   5.660   7.031   9.780  0.1358 -0.1540  0.4500
  110OSM    C1S11312   5.451   6.737   9.635  0.0988 -0.6812 -0.7310
  110OSM    H1S11313   5.344   6.766   9.640 -0.3983 -2.4295 -0.7507
  110OSM    H1T11314   5.473   6.664   9.716 -0.3393  1.3846  1.3709
  110OSM     NF11315   5.379   6.561   9.480 -0.4031  0.0615 -0.0486
  110OSM    HNF11316   5.428   6.474   9.472  0.0030  0.3913 -1.6076
  110OSM    C2S11317   5.461   6.678   9.488  0.0148  0.3084 -0.0846
  110OSM    H2S11318   5.407   6.750   9.421 -3.2058 -2.5648 -0.8792
  110OSM    C3S11319   5.604   6.658   9.447  0.6833  0.3017  0.2773
  110OSM    H3S11320   5.651   6.583   9.515 -0.3519 -0.1398  0.5204
  110OSM     O311321   5.693   6.766   9.453 -0.2617 -0.0770 -0.5636
  110OSM    HO311322   5.641   6.827   9.506 -1.9376 -2.6612  0.9823
  110OSM    C4S11323   5.606   6.603   9.302  0.2803 -0.3208 -0.2303
  110OSM    H4S11324   5.579   6.677   9.226  0.0873  1.1459  1.2035
  110OSM    C5S11325   5.640   6.486   9.262 -0.3247 -0.8563  0.5231
  110OSM    H5S11326   5.689   6.419   9.334  0.7462 -1.6432 -0.8869
  110OSM    C6S11327   5.643   6.437   9.120  0.5362  0.1837 -0.1983
  110OSM    H6S11328   5.587   6.341   9.118  1.8632 -0.6052 -0.6039
  110OSM    H6T11329   5.751   6.417   9.103  0.8160  2.2837 -1.2834
  110OSM    C7S11330   5.597   6.533   9.014  0.7888 -0.4964  0.2698
  110OSM    H7S11331   5.666   6.620   9.018  1.4273 -0.9848  0.0165
  110OSM    H7T11332   5.496   6.571   9.040  1.0734 -0.4871  1.4160
  110OSM    C8S11333   5.597   6.474   8.874  0.6898 -0.3850 -0.3690
  110OSM    H8S11334   5.528   6.542   8.818 -0.0759  0.8688  1.9740
  110OSM    H8T11335   5.552   6.373   8.873  2.9246 -1.4576  0.6157
  110OSM    C9S11336   5.735   6.469   8.822  0.7373 -0.0966  0.0149
  110OSM    H9S11337   5.800   6.429   8.903  0.0291 -0.1934  0.5427
  110OSM    H9T11338   5.774   6.571   8.806 -2.3522  0.9623 -1.6272
  110OSM   C10S11339   5.768   6.386   8.695  0.3740 -0.1741  1.1343
  110OSM   H10S11340   5.693   6.306   8.674 -0.4204  1.0034 -0.7792
  110OSM   H10T11341   5.860   6.324   8.689 -0.8736 -1.9630 -0.4302
  110OSM   C11S11342   5.785   6.476   8.566 -0.0875  0.1197  0.5573
  110OSM   H11S11343   5.861   6.555   8.581  0.9170 -1.1768  2.7837
  110OSM   H11T11344   5.692   6.535   8.548 -0.6990 -1.3449 -1.4506
  110OSM   C12S11345   5.812   6.387   8.436 -0.4838 -0.4156 -0.5158
  110OSM   H12S11346   5.741   6.304   8.414  1.0682 -1.6694 -1.0021
  110OSM   H12T11347   5.908   6.334   8.452 -0.7957 -0.5307  1.1043
  110OSM   C13S11348   5.824   6.465   8.307 -0.1775  0.2366 -0.0558
  110OSM   H13S11349   5.903   6.542   8.320 -0.0743  0.0589  0.3750
  110OSM   H13T11350   5.733   6.523   8.278 -0.0037  0.1093 -0.8668
  110OSM   C14S11351   5.860   6.370   8.192 -0.2295  0.2122 -1.0984
  110OSM   H14S11352   5.760   6.335   8.155 -0.5068  0.3803 -0.5203
  110OSM   H14T11353   5.926   6.281   8.203 -0.8788 -0.1174  0.3540
  110OSM   C15S11354   5.913   6.457   8.071 -0.3631 -0.0293 -0.0333
  110OSM   H15S11355   6.013   6.480   8.115  0.8420 -1.9277 -1.5848
  110OSM   H15T11356   5.838   6.539   8.070  0.1305  0.4511  0.8313
  110OSM   C16S11357   5.920   6.380   7.941 -0.3486 -0.1075 -0.2929
  110OSM   H16S11358   5.953   6.456   7.867  4.1084 -0.4565  0.9952
  110OSM   H16T11359   5.819   6.344   7.912 -0.4991 -1.6481  1.9027
  110OSM   C17S11360   6.017   6.262   7.929  0.4279  0.2308 -0.8908
  110OSM   H17S11361   5.997   6.223   7.827  0.8403 -0.5546 -0.6801
  110OSM   H17T11362   5.981   6.182   7.997 -1.4441 -0.4212 -2.5489
  110OSM   C18S11363   6.162   6.283   7.944 -0.0907  0.0128  0.6033
  110OSM   H18S11364   6.188   6.384   7.907  2.4044 -0.5037  0.8013
  110OSM   H18T11365   6.220   6.213   7.879  0.6682  1.5879 -0.4889
  110OSM   H18U11366   6.202   6.298   8.046  1.2613  0.0503  0.0913
  110OSM    C1F11367   5.245   6.560   9.488  0.1865 -0.0112  0.0726
  110OSM     OF11368   5.181   6.658   9.524 -1.1219  0.1414 -0.1041
  110OSM    C2F11369   5.189   6.424   9.466 -0.1781 -0.0823  0.7848
  110OSM    H2F11370   5.115   6.400   9.545 -0.6901  0.0022  0.3283
  110OSM    H2G11371   5.272   6.350   9.479 -0.4793 -1.2640 -2.9475
  110OSM    C3F11372   5.115   6.410   9.336 -0.2901 -0.2519 -0.3276
  110OSM    H3F11373   5.031   6.482   9.351  0.4379  0.0904  2.7988
  110OSM    H3G11374   5.063   6.313   9.328 -1.8001  0.6091 -1.6711
  110OSM    C4F11375   5.196   6.426   9.210  0.1114 -0.4387  0.5773
  110OSM    H4F11376   5.276   6.351   9.195  1.4243  1.1052 -0.5859
  110OSM    H4G11377   5.254   6.521   9.212 -0.2457 -0.2325  1.3639
  110OSM    C5F11378   5.102   6.425   9.084  0.4041 -0.4643 -0.1173
  110OSM    H5F11379   5.151   6.476   8.998 -1.0785  0.4960 -0.4264
  110OSM    H5G11380   5.009   6.479   9.115  0.8346 -1.1722  2.7195
  110OSM    C6F11381   5.061   6.288   9.037  0.3499  0.4209 -0.2652
  110OSM    H6F11382   4.986   6.250   9.109  0.0968 -0.0990 -0.7936
  110OSM    H6G11383   5.148   6.220   9.046  0.9520  1.3377  0.9937
  110OSM    C7F11384   4.999   6.284   8.891 -0.0571 -0.2598 -0.0686
  110OSM    H7F11385   4.957   6.387   8.880 -2.0630 -1.1698 -1.6085
  110OSM    H7G11386   4.922   6.205   8.901 -0.2597  0.0786  1.3199
  110OSM    C8F11387   5.103   6.237   8.786 -0.2346  0.3016  0.3925
  110OSM    H8F11388   5.052   6.231   8.687 -0.4197 -1.8605  0.5753
  110OSM    H8G11389   5.143   6.135   8.807  1.5237  1.2395  1.8655
  110OSM    C9F11390   5.223   6.323   8.768 -0.3008 -0.2614 -0.0609
  110OSM    H9F11391   5.274   6.337   8.865  1.5926 -1.9633 -0.7502
  110OSM   C10F11392   5.274   6.376   8.658 -0.3493  0.1625 -0.3411
  110OSM   H10F11393   5.353   6.451   8.671  0.1236 -0.1883 -1.0696
  110OSM   C11F11394   5.231   6.360   8.518 -1.3160  0.3001 -0.9313
  110OSM   H11F11395   5.150   6.435   8.503 -0.8130  0.9412 -0.4918
  110OSM   H11G11396   5.175   6.267   8.491 -0.8182 -0.4225  0.4270
  110OSM   C12F11397   5.337   6.379   8.400  0.0267 -0.2568 -0.3168
  110OSM   H12F11398   5.431   6.327   8.427  0.0718 -0.2928 -0.5471
  110OSM   H12G11399   5.344   6.490   8.390 -2.3946  0.1068  1.0885
  110OSM   C13F11400   5.283   6.325   8.266 -0.1693  0.6569  0.4571
  110OSM   H13F11401   5.182   6.365   8.243  0.6865  1.4027 -2.2777
  110OSM   H13G11402   5.271   6.215   8.275  0.3415  0.5299 -0.3443
  110OSM   C14F11403   5.372   6.377   8.154  0.7629  0.6481 -0.2050
  110OSM   H14F11404   5.477   6.387   8.191  0.5705 -2.6348  1.6992
  110OSM   H14G11405   5.339   6.478   8.125 -0.7468  0.6446  1.3654
  110OSM   C15F11406   5.381   6.276   8.037  0.4132 -0.0471  0.4821
  110OSM   H15F11407   5.299   6.302   7.967  1.5582 -0.1305 -0.9335
  110OSM   H15G11408   5.355   6.180   8.088 -0.9363  0.7702  1.4181
  110OSM   C16F11409   5.513   6.272   7.965 -0.0831 -0.1640 -0.2894
  110OSM   H16F11410   5.595   6.279   8.039  0.6218 -0.4335 -1.0241
  110OSM   H16G11411   5.524   6.368   7.909  0.3777 -0.2120 -0.2874
  110OSM   C17F11412   5.546   6.150   7.873 -0.2236 -0.2653 -1.0186
  110OSM   H17F11413   5.572   6.078   7.954 -1.8792  3.4981  3.2677
  110OSM   H17G11414   5.639   6.168   7.815  2.2270 -1.9910  2.0940
  110OSM   C18F11415   5.434   6.095   7.791  0.7054 -0.3056  0.5324
  110OSM   H18F11416   5.473   6.008   7.735  0.0300 -0.4069  0.2099
  110OSM   H18G11417   5.400   6.169   7.715  0.6032  0.5215  1.3616
  110OSM   H18H11418   5.342   6.060   7.842  1.1273 -1.4223  0.5424
  111OSM      N11419   7.071   5.542   9.862 -0.2134  0.1781 -0.2992
  111OSM    C1511420   6.991   5.668   9.852  1.0060 -0.1603 -0.5101
  111OSM   H15A11421   7.058   5.750   9.875  1.4999 -1.3365  2.6777
  111OSM   H15B11422   6.903   5.657   9.913  0.9274 -3.0697 -1.0160
  111OSM   H15C11423   6.955   5.673   9.750  0.4527  0.8527 -0.2763
  111OSM    C1411424   7.165   5.545   9.982  0.3497 -0.1678 -0.0012
  111OSM   H14A11425   7.213   5.642   9.983 -0.7096  0.4745 -2.6638
  111OSM   H14B11426   7.239   5.467   9.971  0.2943 -0.3133  0.6353
  111OSM   H14C11427   7.102   5.528  10.068  0.1814 -0.7953 -0.2411
  111OSM    C1311428   6.978   5.425   9.874 -0.2195 -0.0726  0.1492
  111OSM   H13A11429   6.909   5.443   9.955 -0.4373  2.0272 -0.4472
  111OSM   H13B11430   7.025   5.330   9.893 -1.3434 -1.4321 -3.1454
  111OSM   H13C11431   6.928   5.398   9.782  2.5036 -0.1251 -1.3956
  111OSM    C1211432   7.157   5.531   9.738 -0.0506  0.1195 -0.9204
  111OSM   H12A11433   7.206   5.627   9.729 -2.7886  1.7410  0.3114
  111OSM   H12B11434   7.086   5.524   9.658  2.4731 -1.2504 -3.2148
  111OSM    C1111435   7.256   5.407   9.715 -0.3446 -0.2517  0.9447
  111OSM   H11A11436   7.299   5.410   9.612  0.6057 -0.2137  1.3268
  111OSM   H11B11437   7.187   5.320   9.716 -0.1055 -0.4922 -0.6110
  111OSM      P11438   7.477   5.514   9.797 -0.1243  0.2189  0.4613
  111OSM    O1311439   7.427   5.637   9.736  0.0773 -0.2332 -0.6342
  111OSM    O1411440   7.556   5.529   9.922  0.0075  0.4582 -0.5934
  111OSM    O1111441   7.568   5.449   9.693  0.6728 -0.1408  0.2420
  111OSM    O1211442   7.365   5.402   9.817  0.5518  0.1581 -0.1515
  111OSM    C1S11443   7.579   5.313   9.648  0.8827 -0.4963  0.1744
  111OSM    H1S11444   7.502   5.244   9.689 -1.0995  1.6431  0.2601
  111OSM    H1T11445   7.675   5.271   9.684  1.3969  1.8217  1.7267
  111OSM     NF11446   7.587   5.175   9.445 -0.4344 -0.5476 -0.4018
  111OSM    HNF11447   7.669   5.128   9.412  0.9470  0.3940  1.5214
  111OSM    C2S11448   7.595   5.312   9.490 -0.7094 -0.7224 -0.1177
  111OSM    H2S11449   7.508   5.362   9.442 -0.2667  0.0020 -0.1732
  111OSM    C3S11450   7.728   5.390   9.441 -0.9415  0.8525 -0.7653
  111OSM    H3S11451   7.805   5.315   9.470 -0.9133  1.0285 -0.3712
  111OSM     O311452   7.751   5.511   9.511  0.1016 -0.1180 -0.6297
  111OSM    HO311453   7.683   5.509   9.579  0.8143  1.8164  0.2298
  111OSM    C4S11454   7.720   5.409   9.293 -0.3834  0.1005 -0.0769
  111OSM    H4S11455   7.695   5.512   9.266 -0.3892  0.6755  1.9619
  111OSM    C5S11456   7.745   5.311   9.204  0.0925  0.1317 -0.2292
  111OSM    H5S11457   7.778   5.208   9.223 -2.2659 -0.7992 -0.7800
  111OSM    C6S11458   7.741   5.331   9.052 -0.1593  0.0435 -0.1699
  111OSM    H6S11459   7.683   5.247   9.009  1.4719 -0.1057 -2.2185
  111OSM    H6T11460   7.846   5.325   9.017  0.1004  2.6684 -0.0429
  111OSM    C7S11461   7.700   5.474   9.014 -0.0100  0.8260  0.3248
  111OSM    H7S11462   7.763   5.552   9.062 -0.3895  0.0994  2.0949
  111OSM    H7T11463   7.597   5.493   9.052 -0.8986 -0.2694 -1.4108
  111OSM    C8S11464   7.693   5.498   8.858  0.1874  0.5863 -0.2616
  111OSM    H8S11465   7.644   5.410   8.812  1.3043 -1.2796  1.8718
  111OSM    H8T11466   7.795   5.498   8.813 -1.0993 -0.9067 -3.4519
  111OSM    C9S11467   7.615   5.627   8.836 -0.3096  1.1490  0.5710
  111OSM    H9S11468   7.654   5.704   8.905  0.4984 -0.6266  2.1982
  111OSM    H9T11469   7.511   5.603   8.868 -0.6616  0.1813 -1.1127
  111OSM   C10S11470   7.608   5.654   8.681  0.1196 -0.0723  0.0826
  111OSM   H10S11471   7.545   5.576   8.633 -1.9004  1.7311 -0.3905
  111OSM   H10T11472   7.711   5.644   8.640  0.3789 -2.1816  1.1203
  111OSM   C11S11473   7.556   5.798   8.656 -0.0878  0.3611 -0.4044
  111OSM   H11S11474   7.629   5.867   8.705 -1.4954 -0.7344  3.6345
  111OSM   H11T11475   7.461   5.805   8.713  0.1286  0.7169 -0.0839
  111OSM   C12S11476   7.546   5.826   8.508  0.8296  0.2301 -0.1556
  111OSM   H12S11477   7.452   5.773   8.483  1.3125 -0.0368 -1.4843
  111OSM   H12T11478   7.633   5.783   8.454  1.7523 -0.4533  1.7967
  111OSM   C13S11479   7.536   5.974   8.473  0.4586  0.4175  0.0174
  111OSM   H13S11480   7.637   6.018   8.486 -0.4483  1.8577  3.1116
  111OSM   H13T11481   7.476   6.012   8.558 -1.2123 -1.2838 -0.3285
  111OSM   C14S11482   7.474   6.003   8.337 -0.4742  0.1965  0.6082
  111OSM   H14S11483   7.369   5.974   8.316 -0.3553  1.0673 -1.4259
  111OSM   H14T11484   7.532   5.957   8.254 -0.7876 -1.1775  1.1325
  111OSM   C15S11485   7.476   6.164   8.313 -0.3217  0.3332 -0.0711
  111OSM   H15S11486   7.583   6.193   8.314  0.1601 -1.3493  0.1320
  111OSM   H15T11487   7.435   6.225   8.396 -1.6002 -0.8133  0.1766
  111OSM   C16S11488   7.415   6.205   8.167 -0.5282 -0.7866 -0.3727
  111OSM   H16S11489   7.305   6.217   8.179 -0.6656 -1.3808 -1.0255
  111OSM   H16T11490   7.432   6.122   8.095 -1.5455 -1.7333  0.4367
  111OSM   C17S11491   7.478   6.332   8.118  0.3363 -0.7341 -0.5300
  111OSM   H17S11492   7.446   6.360   8.015 -1.9118 -0.2803  0.2364
  111OSM   H17T11493   7.587   6.315   8.109  0.4524 -1.5712  1.8562
  111OSM   C18S11494   7.457   6.453   8.215 -0.4890  0.4652  0.5464
  111OSM   H18S11495   7.351   6.485   8.205 -1.0803 -2.0095 -4.0976
  111OSM   H18T11496   7.509   6.533   8.156  0.1456 -1.8363 -2.2651
  111OSM   H18U11497   7.504   6.445   8.315  2.5496  2.2173 -0.5908
  111OSM    C1F11498   7.472   5.104   9.453 -0.4235 -0.0426 -0.3237
  111OSM     OF11499   7.368   5.160   9.471 -0.1256 -0.3305  0.4363
  111OSM    C2F11500   7.485   4.956   9.427 -0.5595 -0.1259  0.2922
  111OSM    H2F11501   7.449   4.905   9.518  1.2447 -3.4246 -0.6520
  111OSM    H2G11502   7.590   4.918   9.425 -1.0109 -1.6099  2.4479
  111OSM    C3F11503   7.412   4.906   9.299  0.0224  0.0286  0.0516
  111OSM    H3F11504   7.318   4.964   9.286  0.2157  0.0797 -1.3243
  111OSM    H3G11505   7.390   4.797   9.304 -3.0489  0.6376  3.5113
  111OSM    C4F11506   7.489   4.924   9.171  0.6768  0.5036 -0.6443
  111OSM    H4F11507   7.550   5.015   9.188 -0.2302  1.3093 -1.5270
  111OSM    H4G11508   7.423   4.946   9.084 -1.4254  0.6927  0.9191
  111OSM    C5F11509   7.583   4.808   9.131 -0.2679 -0.5113  0.5193
  111OSM    H5F11510   7.532   4.711   9.115  1.1955 -0.9210 -2.3195
  111OSM    H5G11511   7.667   4.784   9.199 -0.1798  0.0723  0.6200
  111OSM    C6F11512   7.649   4.845   8.994  0.3215  0.3245  0.9985
  111OSM    H6F11513   7.568   4.885   8.929 -0.6440  0.1052  2.0446
  111OSM    H6G11514   7.690   4.758   8.939  0.7399  0.4916  1.0416
  111OSM    C7F11515   7.765   4.950   8.995 -0.5710 -0.7647  0.2708
  111OSM    H7F11516   7.853   4.904   9.046 -0.3207  2.0057  2.5960
  111OSM    H7G11517   7.723   5.035   9.052  0.6260  0.1315 -0.1512
  111OSM    C8F11518   7.798   4.986   8.840  0.9578 -0.3817 -0.5578
  111OSM    H8F11519   7.862   5.077   8.850 -0.3047  0.6906 -1.7486
  111OSM    H8G11520   7.710   5.036   8.794 -0.1672 -1.7512  0.0487
  111OSM    C9F11521   7.853   4.886   8.742  0.2122  0.4062 -0.4281
  111OSM    H9F11522   7.934   4.841   8.800 -1.3453  0.3223  1.8104
  111OSM   C10F11523   7.800   4.840   8.626  0.8056  0.0764  0.2274
  111OSM   H10F11524   7.853   4.773   8.557  0.2645  0.5505 -0.6702
  111OSM   C11F11525   7.669   4.897   8.571 -0.1512 -0.8736  0.4899
  111OSM   H11F11526   7.597   4.928   8.650 -0.6452 -1.1153  0.1442
  111OSM   H11G11527   7.625   4.816   8.508  2.1008 -1.6073 -0.2183
  111OSM   C12F11528   7.679   5.027   8.479 -0.4073 -0.9151  0.5081
  111OSM   H12F11529   7.578   5.056   8.445 -0.7022  0.2018  2.1969
  111OSM   H12G11530   7.741   4.998   8.391  0.4948 -1.6539  1.3451
  111OSM   C13F11531   7.761   5.138   8.551  0.9584  0.7404  0.2872
  111OSM   H13F11532   7.856   5.092   8.586  1.6626  1.9921  0.0923
  111OSM   H13G11533   7.703   5.185   8.634  0.7420  0.6795  0.1713
  111OSM   C14F11534   7.793   5.256   8.467 -0.1021  0.0046  0.3450
  111OSM   H14F11535   7.851   5.209   8.385 -1.0527 -1.3579  0.4065
  111OSM   H14G11536   7.863   5.325   8.518 -0.3243 -0.1893  0.9229
  111OSM   C15F11537   7.676   5.335   8.420  0.8165 -0.2798  0.3616
  111OSM   H15F11538   7.623   5.362   8.514  1.3880  0.4679  0.4705
  111OSM   H15G11539   7.609   5.270   8.360  1.2160 -0.2545 -0.1172
  111OSM   C16F11540   7.717   5.463   8.347 -0.6055 -0.8399 -0.7381
  111OSM   H16F11541   7.801   5.434   8.280 -0.8278 -4.1435  0.2498
  111OSM   H16G11542   7.761   5.533   8.421 -3.0325  0.9549 -0.8741
  111OSM   C17F11543   7.618   5.538   8.262 -0.3875  0.6132  0.3958
  111OSM   H17F11544   7.538   5.569   8.333 -0.2301 -2.1755  1.9116
  111OSM   H17G11545   7.569   5.462   8.198 -2.1979  2.3680 -0.4271
  111OSM   C18F11546   7.672   5.644   8.165  0.5771 -0.0192 -0.2107
  111OSM   H18F11547   7.717   5.728   8.223 -2.1779  1.4122 -0.0126
  111OSM   H18G11548   7.592   5.680   8.097  0.2570  1.3067  0.8184
  111OSM   H18H11549   7.754   5.601   8.103  1.1067 -1.0327  1.1327
  112OSM      N11550   0.411   2.663  10.064  0.1114 -0.2028 -0.1584
  112OSM    C1511551   0.502   2.541  10.060 -0.5246 -0.2238  0.2658
  112OSM   H15A11552   0.457   2.449  10.093  1.3777 -1.4794 -0.4824
  112OSM   H15B11553   0.600   2.560  10.101 -1.8996  0.3304  3.6140
  112OSM   H15C11554   0.529   2.526   9.957 -2.5709  1.7866 -0.6464
  112OSM    C1411555   0.347   2.660  10.199  0.6918 -0.2818 -0.1035
  112OSM   H14A11556   0.420   2.648  10.278  0.7713  0.5427 -0.0496
  112OSM   H14B11557   0.291   2.568  10.213  1.2846 -0.7913 -1.0025
  112OSM   H14C11558   0.284   2.744  10.226  1.2594  0.8443 -2.1003
  112OSM    C1311559   0.483   2.793  10.040  0.4844  0.3538  0.0072
  112OSM   H13A11560   0.421   2.882  10.038  1.1092  0.8025 -2.7169
  112OSM   H13B11561   0.537   2.788   9.947 -1.5258  0.9835 -1.2607
  112OSM   H13C11562   0.560   2.812  10.113 -0.1420  0.3678  0.6886
  112OSM    C1211563   0.305   2.644   9.956 -0.2502 -0.4493 -0.0644
  112OSM   H12A11564   0.230   2.719   9.974 -1.5936 -1.8776  0.5384
  112OSM   H12B11565   0.263   2.544   9.965 -0.5023 -0.5477 -1.9691
  112OSM    C1111566   0.351   2.656   9.810  0.9679  0.1429 -0.7519
  112OSM   H11A11567   0.397   2.757   9.807 -0.1797  0.7381  0.4668
  112OSM   H11B11568   0.260   2.664   9.746  0.6320  2.0412 -0.1054
  112OSM      P11569   0.391   2.424   9.709 -0.5492 -0.0969  0.1326
  112OSM    O1311570   0.503   2.345   9.651  0.0697 -0.2399  0.2214
  112OSM    O1411571   0.310   2.356   9.809  0.3760  0.3609  0.0221
  112OSM    O1111572   0.298   2.474   9.584 -0.2574 -1.2235 -0.4066
  112OSM    O1211573   0.446   2.563   9.760 -0.5226  0.1921  0.2163
  112OSM    C1S11574   0.366   2.549   9.484  1.1316 -0.1133  0.2642
  112OSM    H1S11575   0.470   2.515   9.466  1.1149  0.4702 -1.0750
  112OSM    H1T11576   0.369   2.657   9.512 -2.6552  0.1959 -0.0296
  112OSM     NF11577   0.351   2.623   9.244  0.4321  0.4334  0.2213
  112OSM    HNF11578   0.287   2.685   9.199 -0.2664 -0.1705  0.3758
  112OSM    C2S11579   0.288   2.541   9.349 -0.2101 -0.4023  0.3310
  112OSM    H2S11580   0.310   2.438   9.312  2.1276  0.2839 -0.3834
  112OSM    C3S11581   0.132   2.556   9.366  0.3542  0.0348 -0.6422
  112OSM    H3S11582   0.115   2.660   9.402  0.9876  0.6014 -1.9217
  112OSM     O311583   0.073   2.461   9.460 -0.7215  0.3825 -0.1198
  112OSM    HO311584   0.140   2.440   9.525 -3.4965 -0.6125  2.6598
  112OSM    C4S11585   0.052   2.547   9.231 -0.4441  0.0305 -0.9715
  112OSM    H4S11586   0.037   2.644   9.181  0.7860 -0.4410 -2.3407
  112OSM    C5S11587   0.000   2.440   9.172 -0.9362 -0.8926 -1.2350
  112OSM    H5S11588   0.027   2.340   9.211 -0.8644 -0.5635 -0.4250
  112OSM    C6S11589  -0.079   2.432   9.050 -0.4769 -0.2309  0.7068
  112OSM    H6S11590  -0.104   2.537   9.026  0.9547 -0.2077 -0.8543
  112OSM    H6T11591  -0.168   2.367   9.066 -0.9543  0.1946 -0.1428
  112OSM    C7S11592  -0.013   2.373   8.926 -0.1011 -0.1961 -0.0822
  112OSM    H7S11593   0.039   2.280   8.956  0.0922  0.2275  0.9509
  112OSM    H7T11594   0.071   2.430   8.882  0.5939  0.2562  1.7138
  112OSM    C8S11595  -0.106   2.338   8.814 -0.2534  0.3380  0.0395
  112OSM    H8S11596  -0.182   2.419   8.804  0.5555  1.5581  2.8294
  112OSM    H8T11597  -0.173   2.255   8.844 -1.5794  1.0003 -0.9261
  112OSM    C9S11598  -0.024   2.305   8.687 -0.0158  0.4166 -0.3499
  112OSM    H9S11599   0.047   2.227   8.722  0.9397  1.3044 -0.2620
  112OSM    H9T11600   0.031   2.397   8.657  1.0850 -0.2463 -0.4020
  112OSM   C10S11601  -0.117   2.261   8.576  0.4641 -0.3031 -0.0352
  112OSM   H10S11602  -0.201   2.334   8.571 -0.0344 -0.7196  1.5756
  112OSM   H10T11603  -0.160   2.164   8.608 -0.4164 -0.3712 -1.3559
  112OSM   C11S11604  -0.054   2.247   8.437 -0.6610 -0.3269  0.7547
  112OSM   H11S11605   0.011   2.157   8.442  1.5127  1.0383 -1.0303
  112OSM   H11T11606  -0.001   2.337   8.398 -2.0832 -0.0466 -0.6588
  112OSM   C12S11607  -0.165   2.219   8.330  0.0780  0.6290 -0.3815
  112OSM   H12S11608  -0.222   2.314   8.327 -1.7951 -0.4616 -1.7438
  112OSM   H12T11609  -0.233   2.138   8.364  0.3020  0.0423 -1.3013
  112OSM   C13S11610  -0.112   2.162   8.198  0.4960 -0.7931 -0.2057
  112OSM   H13S11611  -0.091   2.053   8.204 -1.1586 -1.1366 -0.0272
  112OSM   H13T11612  -0.015   2.207   8.169 -0.5138  0.9845 -1.0198
  112OSM   C14S11613  -0.209   2.190   8.086 -0.3381  0.6153  0.2616
  112OSM   H14S11614  -0.246   2.294   8.093 -1.1034  0.3005  1.0656
  112OSM   H14T11615  -0.304   2.132   8.092  0.2505 -0.3080  1.0330
  112OSM   C15S11616  -0.148   2.146   7.944 -0.0557 -0.3241  0.1480
  112OSM   H15S11617  -0.110   2.042   7.943  0.6207 -0.0842 -0.0248
  112OSM   H15T11618  -0.054   2.203   7.925  0.3610 -0.4442  1.7628
  112OSM   C16S11619  -0.245   2.162   7.826  0.7848 -0.4688  0.2904
  112OSM   H16S11620  -0.272   2.270   7.819  1.0655 -0.4187 -0.0602
  112OSM   H16T11621  -0.339   2.105   7.836  1.2402 -1.5435 -1.1842
  112OSM   C17S11622  -0.196   2.115   7.687 -0.5971 -0.2452 -0.1801
  112OSM   H17S11623  -0.156   2.014   7.712 -1.1311 -0.9239 -1.9416
  112OSM   H17T11624  -0.107   2.176   7.661  0.6880 -1.6360  0.7873
  112OSM   C18S11625  -0.303   2.115   7.576 -0.4666  0.1288 -0.3447
  112OSM   H18S11626  -0.397   2.067   7.609 -0.4490  0.3468  0.0233
  112OSM   H18T11627  -0.262   2.064   7.486 -0.6900 -2.1240  0.7626
  112OSM   H18U11628  -0.328   2.215   7.533 -2.0667  0.3642  1.0539
  112OSM    C1F11629   0.482   2.625   9.217 -0.0140  0.2222  0.7160
  112OSM     OF11630   0.547   2.522   9.235 -0.3363 -0.1837 -0.3944
  112OSM    C2F11631   0.534   2.753   9.163  1.0715 -0.2397  0.0802
  112OSM    H2F11632   0.616   2.783   9.231  0.5023 -0.3646  0.8300
  112OSM    H2G11633   0.454   2.829   9.174 -0.7580 -2.0946  0.1464
  112OSM    C3F11634   0.593   2.755   9.021  0.5289 -0.6841  0.0110
  112OSM    H3F11635   0.699   2.725   9.032  0.2717 -1.4186  0.5868
  112OSM    H3G11636   0.580   2.864   8.999  0.1803 -0.9585 -1.2138
  112OSM    C4F11637   0.522   2.689   8.898 -0.1732 -0.3798  0.1669
  112OSM    H4F11638   0.531   2.578   8.905  0.7957 -0.3027  0.1692
  112OSM    H4G11639   0.582   2.721   8.811 -1.9179  0.7233 -0.6942
  112OSM    C5F11640   0.380   2.733   8.885 -0.1163 -0.2617 -0.5714
  112OSM    H5F11641   0.387   2.843   8.896  3.4378 -0.4491  0.4413
  112OSM    H5G11642   0.313   2.694   8.965 -2.2442  1.7969 -1.2383
  112OSM    C6F11643   0.331   2.689   8.750 -0.9475 -0.0422 -0.4742
  112OSM    H6F11644   0.359   2.583   8.735 -1.3621 -0.4049  1.1027
  112OSM    H6G11645   0.392   2.736   8.670 -0.2483 -1.2509 -0.6794
  112OSM    C7F11646   0.184   2.700   8.713  0.3701 -0.6227  0.5937
  112OSM    H7F11647   0.150   2.806   8.724  1.4248 -0.3010  0.8485
  112OSM    H7G11648   0.139   2.639   8.795  1.4618  1.3683  2.8137
  112OSM    C8F11649   0.140   2.661   8.575  0.3332  0.7949  0.2127
  112OSM    H8F11650   0.030   2.672   8.580  0.4435  1.8516  0.5450
  112OSM    H8G11651   0.171   2.555   8.562  0.6258  0.5948  2.1935
  112OSM    C9F11652   0.191   2.734   8.448  0.0702  0.4647  0.3676
  112OSM    H9F11653   0.255   2.818   8.477  0.3569  0.0853  0.8618
  112OSM   C10F11654   0.173   2.687   8.320 -0.0934  0.0258 -0.1064
  112OSM   H10F11655   0.200   2.755   8.238  2.4757  0.6719  1.1813
  112OSM   C11F11656   0.097   2.567   8.278  0.2481 -0.7065 -0.5565
  112OSM   H11F11657  -0.010   2.596   8.274  0.2399 -0.7885 -1.0895
  112OSM   H11G11658   0.132   2.483   8.341 -1.0912 -1.7929 -1.2129
  112OSM   C12F11659   0.149   2.539   8.133 -0.0366  0.2369  0.0010
  112OSM   H12F11660   0.121   2.435   8.108 -0.1169  0.2602 -0.0065
  112OSM   H12G11661   0.259   2.552   8.127  0.1936  0.0353  2.6629
  112OSM   C13F11662   0.078   2.637   8.035 -0.5979 -0.3029  0.1747
  112OSM   H13F11663   0.103   2.609   7.931 -0.3687  0.8562 -0.0988
  112OSM   H13G11664   0.117   2.740   8.051 -0.8945  0.3413 -2.7905
  112OSM   C14F11665  -0.072   2.638   8.032 -0.4668  0.0167 -0.3048
  112OSM   H14F11666  -0.110   2.673   8.130 -0.9961  0.1690 -0.5615
  112OSM   H14G11667  -0.110   2.534   8.040 -1.4474  0.4426  0.8361
  112OSM   C15F11668  -0.121   2.728   7.919 -0.4975  0.0177  0.0192
  112OSM   H15F11669  -0.064   2.823   7.930 -0.0103  0.0976 -2.5033
  112OSM   H15G11670  -0.229   2.744   7.936 -0.1066  0.7354  2.0597
  112OSM   C16F11671  -0.090   2.682   7.774  0.4064  0.3984  0.5158
  112OSM   H16F11672   0.018   2.673   7.750  0.3181 -0.7892  0.5151
  112OSM   H16G11673  -0.136   2.764   7.715 -0.4931 -1.6167 -1.7570
  112OSM   C17F11674  -0.164   2.551   7.734  0.5861  0.5499  0.3293
  112OSM   H17F11675  -0.273   2.572   7.741  0.4347  2.1689 -3.9521
  112OSM   H17G11676  -0.131   2.476   7.808  1.1326  0.9048  0.4504
  112OSM   C18F11677  -0.132   2.489   7.594 -0.1409 -0.6096 -0.3217
  112OSM   H18F11678  -0.023   2.469   7.595 -0.1826 -0.8290  0.0017
  112OSM   H18G11679  -0.156   2.565   7.516 -1.6297 -1.2511 -0.5215
  112OSM   H18H11680  -0.196   2.401   7.571 -2.8155  1.0562  0.1674
  113OSM      N11681   0.235   2.031   9.642  0.5541  0.5557  0.5404
  113OSM    C1511682   0.185   2.108   9.526  0.2055 -0.0105  0.3513
  113OSM   H15A11683   0.093   2.067   9.487  0.1237  0.5721 -0.0653
  113OSM   H15B11684   0.260   2.082   9.452 -0.3008  0.3564 -0.2904
  113OSM   H15C11685   0.177   2.215   9.526 -0.0232  0.1022 -3.6632
  113OSM    C1411686   0.224   1.883   9.610  0.3280 -0.1276 -0.2208
  113OSM   H14A11687   0.129   1.843   9.580  0.1729  0.7516 -0.9550
  113OSM   H14B11688   0.263   1.820   9.689  0.1974  2.0253  1.6369
  113OSM   H14C11689   0.287   1.860   9.525  0.9456 -2.7891  0.8491
  113OSM    C1311690   0.377   2.069   9.681  0.2990 -0.1563 -0.1381
  113OSM   H13A11691   0.391   2.170   9.715 -0.0880  0.0912 -0.6915
  113OSM   H13B11692   0.450   2.047   9.604  1.5443  1.2369  0.5969
  113OSM   H13C11693   0.412   2.013   9.766 -2.1187 -2.3334 -0.4481
  113OSM    C1211694   0.141   2.058   9.762 -0.7473 -0.0328 -0.2542
  113OSM   H12A11695   0.150   2.163   9.784 -1.7723 -0.3378  1.8088
  113OSM   H12B11696   0.175   2.001   9.847  0.5203 -1.8485 -1.8736
  113OSM    C1111697  -0.007   2.030   9.755 -0.8213 -0.4163  0.0654
  113OSM   H11A11698  -0.049   2.086   9.668  0.4449  0.3944 -0.0459
  113OSM   H11B11699  -0.053   2.078   9.844  1.6826 -1.5799  2.0927
  113OSM      P11700  -0.182   1.846   9.741 -0.0997  0.2508  0.0300
  113OSM    O1311701  -0.201   1.702   9.752  0.1604 -0.3372 -0.4151
  113OSM    O1411702  -0.252   1.932   9.839 -0.3928 -0.2293 -0.1440
  113OSM    O1111703  -0.220   1.896   9.593  0.6069 -0.4617  0.7567
  113OSM    O1211704  -0.031   1.886   9.744  0.0410 -0.1996  0.5020
  113OSM    C1S11705  -0.145   1.828   9.487  0.3603 -0.1399  0.6865
  113OSM    H1S11706  -0.176   1.722   9.502 -1.9157  0.5137  1.0846
  113OSM    H1T11707  -0.036   1.817   9.499 -0.0337 -3.5016  2.3311
  113OSM     NF11708  -0.132   1.794   9.236  0.1996  0.5081 -0.2653
  113OSM    HNF11709  -0.036   1.812   9.213  0.2175  0.6299 -0.0983
  113OSM    C2S11710  -0.185   1.881   9.345  0.1905  0.1690 -0.2825
  113OSM    H2S11711  -0.295   1.862   9.340 -0.3955  1.6426  3.4103
  113OSM    C3S11712  -0.152   2.030   9.322  0.6627 -0.0910 -1.1012
  113OSM    H3S11713  -0.042   2.046   9.320  0.6916 -0.1865 -0.3449
  113OSM     O311714  -0.195   2.124   9.426  0.1888  0.0457 -0.2592
  113OSM    HO311715  -0.228   2.061   9.490  1.4194 -1.6999 -1.2447
  113OSM    C4S11716  -0.206   2.066   9.192 -0.4885  0.7362 -0.3326
  113OSM    H4S11717  -0.155   2.022   9.105  1.6372  3.3602 -0.5573
  113OSM    C5S11718  -0.332   2.120   9.176  0.4149  0.2511 -0.8033
  113OSM    H5S11719  -0.386   2.152   9.266  0.5393 -0.0344 -0.6252
  113OSM    C6S11720  -0.404   2.153   9.046 -0.5063  0.1541  0.2124
  113OSM    H6S11721  -0.333   2.202   8.976  0.0586  0.1781  0.7962
  113OSM    H6T11722  -0.487   2.219   9.078 -0.5317  0.3435 -0.2463
  113OSM    C7S11723  -0.460   2.021   8.985 -0.0267 -0.8782 -0.4654
  113OSM    H7S11724  -0.527   1.977   9.062 -0.4320  1.0832  0.3827
  113OSM    H7T11725  -0.373   1.957   8.958  0.9041 -0.0606  0.5200
  113OSM    C8S11726  -0.544   2.052   8.855  0.5902  0.1197  0.2359
  113OSM    H8S11727  -0.599   2.148   8.870  0.5212  0.5781 -2.4811
  113OSM    H8T11728  -0.622   1.976   8.833 -1.4407  1.9250  0.7759
  113OSM    C9S11729  -0.461   2.065   8.733  0.0136  0.8272  0.2175
  113OSM    H9S11730  -0.361   2.100   8.766  0.6740  0.3453 -1.1900
  113OSM    H9T11731  -0.501   2.139   8.661 -0.0528  3.1911  2.5345
  113OSM   C10S11732  -0.456   1.932   8.655 -0.3276 -0.6476  0.9866
  113OSM   H10S11733  -0.548   1.871   8.662  0.5477 -2.1263  0.2125
  113OSM   H10T11734  -0.370   1.869   8.687  0.9709  0.2967 -0.4632
  113OSM   C11S11735  -0.405   1.950   8.505 -0.6515  0.9277  0.0010
  113OSM   H11S11736  -0.309   2.006   8.504 -0.1008  0.0317  0.8504
  113OSM   H11T11737  -0.479   2.019   8.460 -0.9364  0.6295  0.0128
  113OSM   C12S11738  -0.381   1.813   8.442  0.1238 -0.9976  0.2604
  113OSM   H12S11739  -0.472   1.748   8.440  0.0936 -1.1907  3.0322
  113OSM   H12T11740  -0.290   1.765   8.484  2.2772  0.4128 -2.5107
  113OSM   C13S11741  -0.341   1.841   8.290  0.7413 -0.9791 -0.0765
  113OSM   H13S11742  -0.241   1.889   8.291 -0.3649  1.4518 -0.2030
  113OSM   H13T11743  -0.400   1.927   8.253 -0.8704 -1.5458  1.0523
  113OSM   C14S11744  -0.356   1.720   8.201  0.1921  0.7178  0.1986
  113OSM   H14S11745  -0.462   1.686   8.203  0.2479  0.4991 -0.4088
  113OSM   H14T11746  -0.291   1.638   8.238  1.1498  1.3950  0.0665
  113OSM   C15S11747  -0.315   1.754   8.056  0.1249 -0.1444 -0.6280
  113OSM   H15S11748  -0.205   1.768   8.070  0.2077 -1.3593  0.1294
  113OSM   H15T11749  -0.363   1.851   8.032  1.5172  0.7140 -0.0904
  113OSM   C16S11750  -0.343   1.648   7.950 -0.1088  0.0944 -0.3609
  113OSM   H16S11751  -0.452   1.634   7.940 -0.3296 -0.9377  2.6153
  113OSM   H16T11752  -0.290   1.556   7.982  0.3011  0.6881  0.7274
  113OSM   C17S11753  -0.284   1.688   7.812  0.2146 -0.1203  0.0817
  113OSM   H17S11754  -0.173   1.688   7.815  0.2549 -2.3312 -0.1346
  113OSM   H17T11755  -0.323   1.789   7.785  1.6901  0.4664  0.0673
  113OSM   C18S11756  -0.319   1.587   7.707 -0.5303  0.3696  0.0581
  113OSM   H18S11757  -0.275   1.488   7.733 -0.7205  0.1256 -0.5236
  113OSM   H18T11758  -0.270   1.623   7.614 -0.6383  0.2967 -0.0270
  113OSM   H18U11759  -0.429   1.580   7.701 -0.5400 -1.1207  1.2943
  113OSM    C1F11760  -0.180   1.675   9.208 -0.1267  0.0467 -0.0884
  113OSM     OF11761  -0.288   1.639   9.255 -0.2065  0.4521  0.5728
  113OSM    C2F11762  -0.091   1.580   9.126 -0.3363 -0.1285 -0.5122
  113OSM    H2F11763  -0.130   1.481   9.156 -0.4432 -0.3090 -1.2318
  113OSM    H2G11764   0.014   1.596   9.161 -1.0398  0.4196  1.4553
  113OSM    C3F11765  -0.124   1.598   8.975 -0.3970  0.5527  0.2564
  113OSM    H3F11766  -0.075   1.692   8.941  1.4101 -0.9126 -1.4419
  113OSM    H3G11767  -0.235   1.603   8.963 -0.2480  0.8293 -1.1767
  113OSM    C4F11768  -0.092   1.481   8.876  0.4911 -0.0729 -0.7267
  113OSM    H4F11769  -0.107   1.507   8.769  2.6454 -1.4021 -1.4338
  113OSM    H4G11770  -0.154   1.392   8.901  0.3654  0.1030 -0.4043
  113OSM    C5F11771   0.048   1.427   8.891 -0.3335 -0.1650  0.1668
  113OSM    H5F11772   0.049   1.367   8.985 -3.3533  0.3289  0.6291
  113OSM    H5G11773   0.127   1.504   8.898 -0.4885  0.1948 -1.5992
  113OSM    C6F11774   0.085   1.339   8.773 -0.1810 -0.0873 -1.0265
  113OSM    H6F11775   0.189   1.303   8.782 -0.0021  0.6904  0.2060
  113OSM    H6G11776   0.060   1.390   8.677 -1.5041 -0.0744 -0.6980
  113OSM    C7F11777  -0.004   1.211   8.766  0.3713 -0.1962 -0.4706
  113OSM    H7F11778  -0.112   1.239   8.767  0.4320  0.0337  0.0698
  113OSM    H7G11779   0.007   1.153   8.860 -0.5089  1.6387  0.8428
  113OSM    C8F11780   0.038   1.117   8.651  0.1650 -0.4882  0.4731
  113OSM    H8F11781  -0.001   1.013   8.660  0.2826 -0.5114  0.7194
  113OSM    H8G11782   0.145   1.090   8.660  0.2776  0.2893  1.5992
  113OSM    C9F11783   0.016   1.173   8.509  0.2284  0.0926 -0.5053
  113OSM    H9F11784   0.051   1.277   8.499  0.7872  0.0934  1.0929
  113OSM   C10F11785  -0.028   1.110   8.406  0.2497  0.8175  0.4449
  113OSM   H10F11786  -0.048   1.178   8.322 -0.0031 -0.2624 -0.3945
  113OSM   C11F11787  -0.064   0.961   8.399 -0.0408 -0.5276  0.1656
  113OSM   H11F11788  -0.151   0.956   8.330  0.2237  0.2973 -0.2387
  113OSM   H11G11789  -0.112   0.912   8.487 -0.9085 -0.7904 -0.4351
  113OSM   C12F11790   0.043   0.872   8.349  0.2873 -0.0827 -0.5665
  113OSM   H12F11791  -0.011   0.776   8.333 -0.8375  0.7538 -2.0006
  113OSM   H12G11792   0.126   0.866   8.422  0.5776  0.1903 -0.8724
  113OSM   C13F11793   0.092   0.928   8.215  0.1331 -0.2068  0.6616
  113OSM   H13F11794   0.161   1.006   8.252 -0.5669  1.1651 -0.7989
  113OSM   H13G11795   0.010   0.977   8.159  0.2119 -0.2894  0.4716
  113OSM   C14F11796   0.163   0.820   8.123 -0.7491  0.4296 -0.4968
  113OSM   H14F11797   0.249   0.796   8.189 -1.4579  0.6790  0.5389
  113OSM   H14G11798   0.198   0.880   8.036  0.4728 -1.3924 -1.3346
  113OSM   C15F11799   0.083   0.699   8.078  0.4623 -0.2408 -0.5594
  113OSM   H15F11800   0.028   0.649   8.161  0.7870  2.9012  1.7334
  113OSM   H15G11801   0.141   0.623   8.022  1.4567  0.1544 -0.0889
  113OSM   C16F11802  -0.028   0.753   7.981 -0.1636  0.3645 -0.2615
  113OSM   H16F11803   0.025   0.801   7.896  1.9464 -1.6730 -0.1871
  113OSM   H16G11804  -0.081   0.831   8.039 -0.0275  0.8161 -0.7462
  113OSM   C17F11805  -0.130   0.634   7.938 -0.3082 -0.8181 -0.6070
  113OSM   H17F11806  -0.206   0.674   7.868 -0.7188 -1.3405 -0.4644
  113OSM   H17G11807  -0.192   0.609   8.027  2.5023 -0.5223  1.5658
  113OSM   C18F11808  -0.073   0.509   7.885  0.9633  0.9980 -0.1303
  113OSM   H18F11809  -0.155   0.444   7.848  1.9030 -1.0564  1.1875
  113OSM   H18G11810  -0.023   0.442   7.959  1.0871  0.9327 -0.2727
  113OSM   H18H11811   0.009   0.526   7.812  1.0255  1.3471  0.0215
  114OSM      N11812   6.716   0.484  10.017  0.2749  0.1993  0.3984
  114OSM    C1511813   6.602   0.533   9.925  0.1067 -0.9386 -0.1637
  114OSM   H15A11814   6.544   0.609   9.976  0.0898 -0.6412 -0.6150
  114OSM   H15B11815   6.536   0.456   9.889 -0.9558  0.2350 -0.8098
  114OSM   H15C11816   6.644   0.600   9.851  1.0386  1.8295  2.6319
  114OSM    C1411817   6.807   0.595  10.051 -0.2513  0.0787 -0.0388
  114OSM   H14A11818   6.754   0.673  10.103 -1.0501 -1.3434  1.3860
  114OSM   H14B11819   6.849   0.632   9.959 -1.4854  0.5666 -0.4174
  114OSM   H14C11820   6.893   0.564  10.108  0.6393  0.4035 -1.1785
  114OSM    C1311821   6.657   0.438  10.142 -0.0131 -0.5453  0.4808
  114OSM   H13A11822   6.630   0.519  10.209 -1.0874 -0.3629 -0.1501
  114OSM   H13B11823   6.731   0.385  10.200  0.4001 -1.3279 -0.7361
  114OSM   H13C11824   6.573   0.375  10.119  0.8750 -0.6180 -3.1886
  114OSM    C1211825   6.791   0.370   9.939  0.1331  0.5131  0.0761
  114OSM   H12A11826   6.720   0.291   9.917 -0.1519  0.4723  1.0827
  114OSM   H12B11827   6.869   0.336  10.005  1.5809 -0.3312 -1.9704
  114OSM    C1111828   6.858   0.403   9.801 -0.7537 -0.0383  0.4350
  114OSM   H11A11829   6.781   0.427   9.724 -0.1587 -0.5425 -0.3385
  114OSM   H11B11830   6.894   0.303   9.767 -2.8424 -0.5830 -0.3725
  114OSM      P11831   6.944   0.635   9.735  0.0067 -0.2245 -0.5611
  114OSM    O1311832   6.802   0.677   9.723  0.0781 -0.1809 -0.3814
  114OSM    O1411833   7.027   0.735   9.805  0.1523  0.3801 -0.7231
  114OSM    O1111834   7.005   0.605   9.599 -0.3475  0.4486 -0.0347
  114OSM    O1211835   6.959   0.502   9.814  0.5366 -0.0408 -0.3040
  114OSM    C1S11836   7.052   0.473   9.560  0.3706  0.4716  0.0093
  114OSM    H1S11837   6.983   0.393   9.594  1.3671 -0.5419 -0.3099
  114OSM    H1T11838   7.152   0.451   9.603 -0.5766  0.5181  2.4179
  114OSM     NF11839   7.117   0.320   9.374 -0.4734 -0.1372  0.1645
  114OSM    HNF11840   7.204   0.318   9.324  0.6219  0.3806  1.9438
  114OSM    C2S11841   7.075   0.463   9.408  0.6017  0.1824 -0.2045
  114OSM    H2S11842   6.972   0.482   9.370 -0.3582 -1.4749  1.3919
  114OSM    C3S11843   7.170   0.566   9.344  0.2480  0.2762 -0.0072
  114OSM    H3S11844   7.271   0.528   9.371 -0.0666 -0.5187  0.0759
  114OSM     O311845   7.163   0.696   9.402  0.2303 -0.3198  0.9595
  114OSM    HO311846   7.091   0.697   9.465 -0.4809 -1.4404  0.2153
  114OSM    C4S11847   7.157   0.555   9.193  0.1064 -0.7746  0.2446
  114OSM    H4S11848   7.217   0.477   9.143 -0.2523 -1.1600  0.4067
  114OSM    C5S11849   7.082   0.632   9.111 -0.4669 -0.5560 -0.1781
  114OSM    H5S11850   7.020   0.713   9.152  0.2250  0.1719 -0.5395
  114OSM    C6S11851   7.069   0.619   8.955 -0.9388 -0.1199 -0.7509
  114OSM    H6S11852   7.137   0.697   8.913  0.9868 -1.0990  0.4079
  114OSM    H6T11853   6.966   0.628   8.916 -0.6159 -1.0599 -1.8675
  114OSM    C7S11854   7.111   0.484   8.890  0.1803  0.0676 -0.0178
  114OSM    H7S11855   7.042   0.410   8.934  0.5619  1.4693  3.3114
  114OSM    H7T11856   7.217   0.463   8.919 -0.4881 -0.9629  1.8172
  114OSM    C8S11857   7.102   0.488   8.740 -0.3464 -0.1035  1.2237
  114OSM    H8S11858   7.168   0.564   8.694 -0.0004 -1.0200  0.1461
  114OSM    H8T11859   7.003   0.519   8.699  1.8515  5.9945 -0.4639
  114OSM    C9S11860   7.158   0.357   8.683 -1.3630  0.1061  0.0857
  114OSM    H9S11861   7.109   0.280   8.746 -1.2642  0.5495  0.7126
  114OSM    H9T11862   7.266   0.353   8.708 -1.3778  2.7305  0.9191
  114OSM   C10S11863   7.112   0.337   8.536 -0.4507 -0.3136 -1.1333
  114OSM   H10S11864   7.001   0.339   8.538 -0.4278  0.1725 -0.2530
  114OSM   H10T11865   7.150   0.235   8.514  1.3744 -0.7236  3.0208
  114OSM   C11S11866   7.161   0.432   8.432  0.9205  0.3165 -0.2476
  114OSM   H11S11867   7.132   0.532   8.470 -0.1950  0.2116 -0.7835
  114OSM   H11T11868   7.104   0.411   8.339 -1.8698  0.4035  1.3335
  114OSM   C12S11869   7.305   0.429   8.409 -0.3632  0.5261 -0.6480
  114OSM   H12S11870   7.357   0.395   8.501  1.5855  1.5503 -1.3332
  114OSM   H12T11871   7.343   0.528   8.378  2.4841  1.0157  3.4815
  114OSM   C13S11872   7.342   0.318   8.300  0.4702  0.1325 -0.2294
  114OSM   H13S11873   7.299   0.341   8.200  1.0657  0.2317 -0.4731
  114OSM   H13T11874   7.289   0.225   8.330 -0.3873  0.3828 -0.9363
  114OSM   C14S11875   7.488   0.291   8.279 -0.4839 -0.3041 -0.7357
  114OSM   H14S11876   7.534   0.237   8.364 -3.0684 -1.2276  0.1789
  114OSM   H14T11877   7.531   0.394   8.281  0.6332 -0.7648 -0.1134
  114OSM   C15S11878   7.532   0.208   8.151  0.7428  0.0566  0.6327
  114OSM   H15S11879   7.485   0.108   8.161 -0.8705  0.4924 -1.8199
  114OSM   H15T11880   7.643   0.199   8.159  0.8669 -1.3638 -1.7094
  114OSM   C16S11881   7.491   0.263   8.013 -0.6112  0.4070  0.5781
  114OSM   H16S11882   7.381   0.274   7.997 -0.2850 -0.4156 -3.1877
  114OSM   H16T11883   7.537   0.196   7.937 -1.7409  1.0073 -0.6956
  114OSM   C17S11884   7.550   0.401   7.977  0.3006  0.7833 -0.1994
  114OSM   H17S11885   7.661   0.409   7.978  0.6768 -2.7589  2.2473
  114OSM   H17T11886   7.505   0.470   8.052 -1.1806 -1.5244  1.1563
  114OSM   C18S11887   7.515   0.444   7.830 -0.2338  0.2764 -0.0215
  114OSM   H18S11888   7.410   0.416   7.803  0.3384 -2.6395  0.4283
  114OSM   H18T11889   7.577   0.398   7.750 -0.3796  1.3077 -0.7463
  114OSM   H18U11890   7.530   0.554   7.823  1.4822  0.2290  1.9719
  114OSM    C1F11891   7.047   0.205   9.389  0.4334 -0.7370 -0.1461
  114OSM     OF11892   6.935   0.209   9.435 -1.3190 -0.6416 -0.0606
  114OSM    C2F11893   7.113   0.081   9.343 -0.0015 -0.2308  0.5717
  114OSM    H2F11894   7.180   0.035   9.419  1.6556  0.6308 -0.3306
  114OSM    H2G11895   7.174   0.110   9.255 -3.1389  0.3330 -1.5833
  114OSM    C3F11896   7.007  -0.027   9.295  0.2373 -0.3959 -0.3608
  114OSM    H3F11897   6.938  -0.064   9.374 -1.5482  1.0930 -1.1483
  114OSM    H3G11898   7.056  -0.119   9.258  0.6122 -0.3136 -0.0801
  114OSM    C4F11899   6.933   0.024   9.173 -0.4877  0.3641  0.7013
  114OSM    H4F11900   6.886   0.123   9.190 -1.7886 -0.3505  1.4107
  114OSM    H4G11901   6.862  -0.054   9.135  0.5985 -0.0111 -0.6596
  114OSM    C5F11902   7.017   0.050   9.047 -0.5565  0.8649  0.3736
  114OSM    H5F11903   7.071  -0.046   9.037  1.3487  1.5282  3.0540
  114OSM    H5G11904   7.104   0.116   9.070  2.3806 -2.7158  0.4749
  114OSM    C6F11905   6.948   0.084   8.913  0.0229  0.3717 -0.0576
  114OSM    H6F11906   6.884   0.001   8.875 -0.8533  1.4414 -0.9844
  114OSM    H6G11907   7.026   0.089   8.834  1.2679  2.0221  1.2227
  114OSM    C7F11908   6.838   0.186   8.913 -0.0163  0.4028  0.5622
  114OSM    H7F11909   6.883   0.268   8.973  0.6300 -0.7735  1.7325
  114OSM    H7G11910   6.757   0.153   8.981 -1.3480  0.2166 -1.0555
  114OSM    C8F11911   6.802   0.232   8.770 -0.2843  0.0565 -0.1455
  114OSM    H8F11912   6.727   0.169   8.717  1.6362 -0.8950 -1.8538
  114OSM    H8G11913   6.894   0.222   8.709 -1.0279 -4.4438 -0.8672
  114OSM    C9F11914   6.740   0.374   8.786 -0.3611 -0.2949 -0.0266
  114OSM    H9F11915   6.761   0.431   8.878 -0.1369  0.7717 -0.7248
  114OSM   C10F11916   6.676   0.437   8.685 -0.2263 -0.4634 -0.5157
  114OSM   H10F11917   6.646   0.542   8.703  0.0027 -0.1872 -1.6456
  114OSM   C11F11918   6.666   0.385   8.545  0.2087 -0.0220 -0.2947
  114OSM   H11F11919   6.739   0.301   8.545 -1.0074 -1.1107 -0.4555
  114OSM   H11G11920   6.707   0.461   8.476  1.7265 -1.7594 -1.4053
  114OSM   C12F11921   6.531   0.326   8.496 -0.3566 -0.4892 -0.2268
  114OSM   H12F11922   6.480   0.273   8.578  0.9542 -1.1623  0.1793
  114OSM   H12G11923   6.553   0.254   8.415 -0.1175  2.0054 -2.5298
  114OSM   C13F11924   6.434   0.426   8.432 -0.2306  0.6016  0.6043
  114OSM   H13F11925   6.347   0.368   8.396 -0.2645  1.1487 -0.2123
  114OSM   H13G11926   6.484   0.465   8.341  1.3614 -0.8947  0.7681
  114OSM   C14F11927   6.366   0.530   8.517  0.6582 -0.5093  0.0333
  114OSM   H14F11928   6.444   0.607   8.536  0.5084 -0.6899  1.5378
  114OSM   H14G11929   6.337   0.485   8.614  0.4191 -1.2880 -0.3956
  114OSM   C15F11930   6.238   0.592   8.452  0.3561 -0.4905 -0.6773
  114OSM   H15F11931   6.181   0.659   8.520 -0.4752 -0.3824 -1.4592
  114OSM   H15G11932   6.179   0.508   8.410 -1.0752 -0.4160  1.0897
  114OSM   C16F11933   6.273   0.693   8.335 -0.8257 -0.5906  0.0877
  114OSM   H16F11934   6.343   0.646   8.263 -1.8043 -1.9786  0.0179
  114OSM   H16G11935   6.322   0.783   8.379  2.1038 -2.3053  0.6158
  114OSM   C17F11936   6.139   0.736   8.264 -0.3117  0.2485 -0.7814
  114OSM   H17F11937   6.075   0.761   8.351  2.1779  1.4367  0.8147
  114OSM   H17G11938   6.105   0.639   8.222  2.1691 -1.9411  1.8519
  114OSM   C18F11939   6.150   0.846   8.161 -0.2457 -0.4599  0.2221
  114OSM   H18F11940   6.208   0.804   8.076  0.4809 -2.4755  1.6273
  114OSM   H18G11941   6.201   0.935   8.206 -2.5352  1.4996 -0.8680
  114OSM   H18H11942   6.048   0.878   8.131  1.1826  1.3521 -3.2949
  115OSM      N11943   2.772   4.715   5.530  0.7244  0.0056 -1.0787
  115OSM    C1511944   2.689   4.659   5.425 -0.4590 -0.7605  0.0832
  115OSM   H15A11945   2.628   4.737   5.381  0.1097  1.2669  2.6669
  115OSM   H15B11946   2.618   4.592   5.471 -1.0990  0.1023  0.3802
  115OSM   H15C11947   2.759   4.604   5.363 -1.1404  0.0359 -1.4689
  115OSM    C1411948   2.867   4.815   5.475  0.4480 -0.3773  0.3830
  115OSM   H14A11949   2.820   4.909   5.453  0.2590  0.1953  2.9335
  115OSM   H14B11950   2.915   4.778   5.386 -0.8657  0.7957 -0.8656
  115OSM   H14C11951   2.945   4.842   5.545 -0.6030  3.1275  0.3939
  115OSM    C1311952   2.677   4.779   5.630 -0.0655  0.3564 -0.6386
  115OSM   H13A11953   2.624   4.866   5.595 -0.6074  0.4473  0.3833
  115OSM   H13B11954   2.717   4.813   5.724  0.4155 -0.9413 -0.3454
  115OSM   H13C11955   2.610   4.700   5.661  0.4318 -0.7107 -2.1438
  115OSM    C1211956   2.839   4.603   5.599  0.2779 -0.3139 -0.4000
  115OSM   H12A11957   2.900   4.567   5.518 -0.5231 -3.4640  0.2280
  115OSM   H12B11958   2.768   4.527   5.629  0.0779  0.5406  1.4407
  115OSM    C1111959   2.931   4.649   5.720  0.2849  0.4597  0.4634
  115OSM   H11A11960   2.971   4.563   5.777  2.6830  1.4376  0.3877
  115OSM   H11B11961   2.864   4.694   5.796 -1.0030  4.6184 -2.7010
  115OSM      P11962   3.173   4.691   5.615  0.4354  0.1657 -0.2492
  115OSM    O1311963   3.141   4.570   5.538  0.6473  0.3477 -0.3159
  115OSM    O1411964   3.238   4.803   5.542 -0.1103 -0.7515 -0.2683
  115OSM    O1111965   3.272   4.649   5.737 -0.2696  0.0140 -0.3874
  115OSM    O1211966   3.043   4.739   5.683  0.4184  0.0852  0.1466
  115OSM    C1S11967   3.263   4.682   5.872  0.5587 -0.0154 -0.3541
  115OSM    H1S11968   3.197   4.771   5.882  0.3089  0.0001 -1.8989
  115OSM    H1T11969   3.361   4.716   5.912  0.5382 -2.1769  1.7828
  115OSM     NF11970   3.201   4.613   6.097 -0.0680 -0.4482  0.3359
  115OSM    HNF11971   3.281   4.608   6.156 -0.5748  1.9872  1.3396
  115OSM    C2S11972   3.220   4.561   5.966 -0.4785  0.2837  0.4153
  115OSM    H2S11973   3.122   4.533   5.923 -0.3224  0.3535  0.0108
  115OSM    C3S11974   3.322   4.450   5.969 -0.1002  0.2626  0.7697
  115OSM    H3S11975   3.408   4.498   6.020  0.2992 -0.9345  1.2601
  115OSM     O311976   3.361   4.403   5.842  0.1819  0.1652  0.0046
  115OSM    HO311977   3.314   4.472   5.794  0.3055  1.2056  1.3260
  115OSM    C4S11978   3.271   4.334   6.046  0.3935 -0.5880 -0.3043
  115OSM    H4S11979   3.174   4.295   6.009 -0.4865 -0.3168  1.5835
  115OSM    C5S11980   3.313   4.292   6.162 -0.3415 -0.1765 -0.3017
  115OSM    H5S11981   3.403   4.332   6.211 -1.0068 -0.0794  0.8853
  115OSM    C6S11982   3.240   4.178   6.233  0.1015 -0.8767 -1.0241
  115OSM    H6S11983   3.308   4.125   6.304 -1.4574 -1.1828  0.2964
  115OSM    H6T11984   3.215   4.103   6.156 -3.8111 -1.2059  0.3589
  115OSM    C7S11985   3.115   4.221   6.302  0.3362  0.4335 -0.3951
  115OSM    H7S11986   3.074   4.133   6.355  2.7415 -2.4037 -2.8843
  115OSM    H7T11987   3.044   4.254   6.223 -0.1810 -0.0857 -0.1557
  115OSM    C8S11988   3.137   4.334   6.415 -0.4437 -0.0210  0.1018
  115OSM    H8S11989   3.182   4.424   6.366  0.2229 -1.0279 -1.2038
  115OSM    H8T11990   3.209   4.292   6.488  0.2202 -1.2464 -1.2033
  115OSM    C9S11991   3.008   4.366   6.484 -0.8870  0.1506 -0.6727
  115OSM    H9S11992   2.982   4.273   6.540  0.7196 -0.1477 -0.3712
  115OSM    H9T11993   2.927   4.389   6.412 -1.6164  0.1234  0.1275
  115OSM   C10S11994   3.011   4.471   6.602  0.1591  0.1761 -0.0301
  115OSM   H10S11995   3.054   4.569   6.569 -2.2504  2.0701  2.0633
  115OSM   H10T11996   3.070   4.432   6.688  0.4100  2.8312  1.1297
  115OSM   C11S11997   2.868   4.506   6.646  0.0080  0.0247  0.3879
  115OSM   H11S11998   2.797   4.424   6.669 -0.6282  0.8777  1.5398
  115OSM   H11T11999   2.828   4.569   6.564  1.0210  3.0343  2.0622
  115OSM   C12S12000   2.881   4.588   6.774  0.0059  0.0655  1.0776
  115OSM   H12S12001   2.800   4.664   6.774  1.0695  1.3302 -1.6618
  115OSM   H12T12002   2.976   4.645   6.773  0.6202 -0.8805 -1.0381
  115OSM   C13S12003   2.875   4.501   6.902  0.5771  0.7746  0.0164
  115OSM   H13S12004   2.978   4.461   6.905  0.6573  0.9750 -0.0034
  115OSM   H13T12005   2.798   4.422   6.903  1.0485  0.2952  1.5971
  115OSM   C14S12006   2.863   4.595   7.021  0.8021  0.2896  0.7093
  115OSM   H14S12007   2.755   4.618   7.039  0.5328 -0.9502  0.7297
  115OSM   H14T12008   2.911   4.690   6.988 -0.7310  0.4339 -1.3122
  115OSM   C15S12009   2.924   4.538   7.146 -0.1825  0.0853  0.3735
  115OSM   H15S12010   2.895   4.431   7.151 -0.6556  0.1023 -1.2810
  115OSM   H15T12011   2.864   4.574   7.232 -0.3002 -1.8463  1.1545
  115OSM   C16S12012   3.078   4.548   7.154  0.3966 -0.1110  0.6046
  115OSM   H16S12013   3.103   4.653   7.180 -0.8766  0.6757 -1.1006
  115OSM   H16T12014   3.114   4.531   7.050  0.2884 -0.0236  0.5523
  115OSM   C17S12015   3.150   4.452   7.254  0.7604  0.2871  0.2794
  115OSM   H17S12016   3.254   4.488   7.269  1.0713 -0.4011 -0.1864
  115OSM   H17T12017   3.165   4.355   7.201 -0.2559  0.4353 -0.3066
  115OSM   C18S12018   3.071   4.428   7.381 -0.0272  0.2625 -1.3031
  115OSM   H18S12019   2.985   4.358   7.368  0.8072 -0.7962 -1.2516
  115OSM   H18T12020   3.029   4.527   7.408  0.5536  0.1530  0.0646
  115OSM   H18U12021   3.145   4.402   7.459 -0.0271  2.1913 -0.6155
  115OSM    C1F12022   3.100   4.679   6.146  0.3768 -0.1048  0.1706
  115OSM     OF12023   3.001   4.686   6.077  0.8350 -0.4995 -0.6025
  115OSM    C2F12024   3.128   4.739   6.277  0.5674 -0.9135 -0.4831
  115OSM    H2F12025   3.191   4.828   6.257  2.1150 -1.9157 -0.3134
  115OSM    H2G12026   3.186   4.665   6.337 -0.7827 -1.3022  0.3809
  115OSM    C3F12027   2.993   4.776   6.344 -0.0866 -0.5924  0.5644
  115OSM    H3F12028   2.954   4.673   6.356  1.0209 -1.4102 -2.0155
  115OSM    H3G12029   2.930   4.828   6.269 -0.3468 -2.8713 -0.9097
  115OSM    C4F12030   3.005   4.848   6.478 -0.8562 -0.1618 -0.4371
  115OSM    H4F12031   3.092   4.801   6.529 -1.6401 -2.5950 -1.2030
  115OSM    H4G12032   2.919   4.813   6.540  0.2090  1.8993  2.4022
  115OSM    C5F12033   3.031   4.995   6.469 -0.6695 -0.5853 -0.4220
  115OSM    H5F12034   2.962   5.048   6.399  0.3610  1.9783  0.3954
  115OSM    H5G12035   3.136   5.008   6.435 -0.3575 -2.8846 -0.5077
  115OSM    C6F12036   3.018   5.069   6.605  0.4524 -0.3153 -0.4166
  115OSM    H6F12037   3.060   5.170   6.589  0.9266 -0.5106 -0.4348
  115OSM    H6G12038   3.082   5.021   6.682 -1.5470 -1.5142  0.5717
  115OSM    C7F12039   2.881   5.062   6.677 -0.2387  0.6996  0.1858
  115OSM    H7F12040   2.844   4.958   6.685 -1.1665  1.1122  1.7682
  115OSM    H7G12041   2.796   5.122   6.639 -2.6204 -1.9538  0.9595
  115OSM    C8F12042   2.880   5.102   6.828 -0.4077 -0.3480 -0.5557
  115OSM    H8F12043   2.773   5.121   6.852 -1.3344 -1.3966 -3.3463
  115OSM    H8G12044   2.936   5.196   6.843 -1.4906  0.2448 -0.1318
  115OSM    C9F12045   2.940   5.000   6.921  0.0562 -0.5103  0.1665
  115OSM    H9F12046   3.029   4.948   6.882  0.8759  0.7346  0.3272
  115OSM   C10F12047   2.888   4.964   7.047  0.7537  0.4376  0.4004
  115OSM   H10F12048   2.938   4.885   7.105  0.0698 -1.1599 -1.1112
  115OSM   C11F12049   2.762   5.023   7.108 -0.0154 -0.5294  0.6544
  115OSM   H11F12050   2.744   5.126   7.072 -2.0102 -0.8999  0.5109
  115OSM   H11G12051   2.781   5.025   7.218  2.2111 -2.2075  0.3589
  115OSM   C12F12052   2.621   4.955   7.067 -0.3092  0.0803  0.2072
  115OSM   H12F12053   2.629   4.855   7.114  0.5945  0.4356  0.8468
  115OSM   H12G12054   2.617   4.961   6.956  0.4769 -2.0917  0.0122
  115OSM   C13F12055   2.499   5.019   7.133 -0.3730 -0.2187  0.0525
  115OSM   H13F12056   2.515   5.026   7.242 -1.0804 -0.9699  0.2114
  115OSM   H13G12057   2.409   4.957   7.114 -1.0640  0.7283  0.1684
  115OSM   C14F12058   2.474   5.160   7.078  0.3441 -0.5021 -0.6274
  115OSM   H14F12059   2.454   5.160   6.969 -2.7473  2.0786 -0.1947
  115OSM   H14G12060   2.570   5.215   7.086  0.4676 -0.8523  0.5308
  115OSM   C15F12061   2.352   5.228   7.137  0.5103 -1.0835 -0.5450
  115OSM   H15F12062   2.350   5.332   7.098 -0.3047 -0.5934  0.7083
  115OSM   H15G12063   2.369   5.239   7.246  3.8798 -1.2391 -0.9485
  115OSM   C16F12064   2.219   5.151   7.116 -0.2075 -0.1683  0.5927
  115OSM   H16F12065   2.237   5.063   7.050  2.0404  0.9596 -0.3900
  115OSM   H16G12066   2.162   5.226   7.058  0.6913  1.2048  1.4447
  115OSM   C17F12067   2.146   5.103   7.242 -1.1609 -0.0796  0.2542
  115OSM   H17F12068   2.210   5.049   7.315 -1.6534 -3.5516 -1.6510
  115OSM   H17G12069   2.063   5.035   7.213  0.3537 -2.2781  0.8131
  115OSM   C18F12070   2.080   5.221   7.309  0.0123  0.1394 -0.6947
  115OSM   H18F12071   2.046   5.205   7.414 -0.4798  1.1693 -0.6818
  115OSM   H18G12072   1.986   5.254   7.260 -0.6850  1.5942  1.4688
  115OSM   H18H12073   2.147   5.309   7.313 -2.1142  1.7945  0.6842
  116OSM      N12074   2.696   2.424   5.624 -0.0590 -0.2284 -0.4407
  116OSM    C1512075   2.771   2.390   5.495  0.4805 -0.0820 -0.9731
  116OSM   H15A12076   2.724   2.311   5.438  2.4747 -1.6220 -0.6114
  116OSM   H15B12077   2.867   2.347   5.518  0.0117 -1.0614 -0.8097
  116OSM   H15C12078   2.780   2.477   5.431 -0.5558  0.6793 -0.1051
  116OSM    C1412079   2.786   2.503   5.711 -0.9667 -0.3617  0.1207
  116OSM   H14A12080   2.735   2.547   5.796  0.1679  0.4395  0.4192
  116OSM   H14B12081   2.832   2.586   5.660 -1.3546  0.5089  1.1448
  116OSM   H14C12082   2.871   2.448   5.749  0.1310  0.5612 -0.8961
  116OSM    C1312083   2.572   2.508   5.588 -0.5245  0.1064 -0.4200
  116OSM   H13A12084   2.510   2.449   5.524 -2.4791 -0.2156  1.6598
  116OSM   H13B12085   2.603   2.602   5.544 -1.6973  0.9074  0.4031
  116OSM   H13C12086   2.513   2.527   5.677 -0.2465 -0.9015 -0.0102
  116OSM    C1212087   2.659   2.294   5.698  0.5958  0.1704  0.2289
  116OSM   H12A12088   2.596   2.232   5.636 -0.5085  0.9634  0.5353
  116OSM   H12B12089   2.596   2.323   5.781  0.8422  2.8084 -0.4325
  116OSM    C1112090   2.771   2.200   5.749 -0.0270 -0.3082  0.8693
  116OSM   H11A12091   2.729   2.103   5.784  2.7646 -1.0437  2.5190
  116OSM   H11B12092   2.817   2.249   5.838  3.2323  0.3456 -1.0005
  116OSM      P12093   2.987   2.074   5.666 -0.3638 -0.2763 -0.8256
  116OSM    O1312094   2.939   1.944   5.620 -0.6757  0.2793  0.6800
  116OSM    O1412095   3.104   2.129   5.593 -0.7162 -0.1449  0.3110
  116OSM    O1112096   3.018   2.069   5.827  0.2422 -0.3046  0.2823
  116OSM    O1212097   2.867   2.177   5.656 -0.2279  0.1670  0.1255
  116OSM    C1S12098   3.103   2.171   5.879  0.3583  0.5445 -0.5016
  116OSM    H1S12099   3.047   2.266   5.865  0.2978  0.8509  1.5006
  116OSM    H1T12100   3.197   2.170   5.821 -1.1254 -2.7069 -3.1876
  116OSM     NF12101   3.176   2.265   6.098 -0.8819  0.0197  0.3248
  116OSM    HNF12102   3.274   2.277   6.102 -0.5615 -0.9992 -2.3554
  116OSM    C2S12103   3.130   2.139   6.029 -0.2794  0.5137 -0.8084
  116OSM    H2S12104   3.042   2.110   6.089  2.1210  0.4769  3.0396
  116OSM    C3S12105   3.226   2.013   6.043 -0.0322 -1.1018  0.1843
  116OSM    H3S12106   3.320   2.025   5.984  0.3177  0.7460  1.0462
  116OSM     O312107   3.153   1.905   5.977  0.7142  0.0656  0.7754
  116OSM    HO312108   3.089   1.957   5.927  0.1676 -1.9671 -0.8357
  116OSM    C4S12109   3.262   1.997   6.188 -0.3473 -1.3398  0.1059
  116OSM    H4S12110   3.319   2.082   6.228 -1.1441  1.1844 -3.6465
  116OSM    C5S12111   3.237   1.898   6.266  0.3769 -0.0565  0.1011
  116OSM    H5S12112   3.182   1.811   6.227  0.8797 -1.4566  2.3161
  116OSM    C6S12113   3.267   1.891   6.416  0.7850  0.3846 -0.2807
  116OSM    H6S12114   3.280   1.995   6.454 -0.3640  1.2335 -2.0814
  116OSM    H6T12115   3.360   1.831   6.425  0.2942 -0.2238  0.9794
  116OSM    C7S12116   3.161   1.818   6.504 -1.1834 -0.5003  0.2482
  116OSM    H7S12117   3.181   1.824   6.613  0.2708 -0.4261 -0.0077
  116OSM    H7T12118   3.151   1.711   6.477  0.1069 -0.5121 -0.2218
  116OSM    C8S12119   3.028   1.887   6.492 -0.3420 -0.1622  0.4982
  116OSM    H8S12120   2.984   1.869   6.391  2.1576  0.8795 -0.8468
  116OSM    H8T12121   3.037   1.997   6.496  0.7446 -0.1419 -1.2922
  116OSM    C9S12122   2.925   1.820   6.588  0.0821  0.1140 -0.4864
  116OSM    H9S12123   2.937   1.710   6.582  0.8598  0.2671 -1.9535
  116OSM    H9T12124   2.824   1.846   6.549  0.3529  0.7521 -0.7701
  116OSM   C10S12125   2.936   1.869   6.728 -0.0955 -0.3076  0.5286
  116OSM   H10S12126   2.928   1.980   6.736 -1.7549 -0.5004  2.0154
  116OSM   H10T12127   3.035   1.839   6.770  0.9868  0.3224 -1.4065
  116OSM   C11S12128   2.827   1.810   6.816  0.1658  0.6146 -0.1479
  116OSM   H11S12129   2.808   1.701   6.801 -1.5156  0.9284 -0.4245
  116OSM   H11T12130   2.725   1.842   6.789  0.0080 -0.4473 -0.9004
  116OSM   C12S12131   2.855   1.828   6.970 -0.8907  0.0129  0.1458
  116OSM   H12S12132   2.874   1.937   6.982  1.2224 -0.3276  0.3271
  116OSM   H12T12133   2.945   1.769   6.997 -0.5773  1.8995  3.8582
  116OSM   C13S12134   2.744   1.779   7.064 -0.0728  0.0966 -0.1112
  116OSM   H13S12135   2.735   1.672   7.035  0.7845  0.0589 -0.2490
  116OSM   H13T12136   2.654   1.823   7.015  0.7103  0.7683 -0.9795
  116OSM   C14S12137   2.769   1.809   7.212  0.4032  0.2994 -0.3121
  116OSM   H14S12138   2.763   1.914   7.248  1.5498  0.0660  0.6162
  116OSM   H14T12139   2.872   1.778   7.239  0.2283  0.2375  0.2862
  116OSM   C15S12140   2.672   1.738   7.311  0.2358 -0.1570  0.2177
  116OSM   H15S12141   2.717   1.749   7.412 -0.4881  0.4465  0.4863
  116OSM   H15T12142   2.665   1.628   7.296  0.3071 -0.1259 -0.0429
  116OSM   C16S12143   2.534   1.801   7.299  0.7548  0.6623 -0.2766
  116OSM   H16S12144   2.494   1.789   7.196  0.9581 -2.0422 -0.1315
  116OSM   H16T12145   2.545   1.910   7.313 -1.7240  0.8986  0.2074
  116OSM   C17S12146   2.436   1.725   7.391  0.5500  0.0483  0.7744
  116OSM   H17S12147   2.391   1.641   7.333 -0.7194  0.7172  0.7567
  116OSM   H17T12148   2.353   1.795   7.414  0.0007 -0.5800  0.7412
  116OSM   C18S12149   2.488   1.674   7.527 -0.1558 -0.2274 -0.2768
  116OSM   H18S12150   2.551   1.754   7.569 -2.2773  2.1063 -1.2363
  116OSM   H18T12151   2.540   1.578   7.507  1.7011  0.6153  0.3703
  116OSM   H18U12152   2.399   1.655   7.592 -0.6580  1.5613 -0.3949
  116OSM    C1F12153   3.105   2.370   6.143 -0.3635  0.4972 -0.3212
  116OSM     OF12154   2.983   2.380   6.119 -0.3758 -0.1806  0.1950
  116OSM    C2F12155   3.177   2.482   6.213  0.3602  0.1539  0.7108
  116OSM    H2F12156   3.137   2.576   6.170 -1.9003 -1.0678  0.0220
  116OSM    H2G12157   3.285   2.467   6.191 -0.0506 -0.5374 -1.0092
  116OSM    C3F12158   3.144   2.474   6.364 -0.2662  0.1362  0.1031
  116OSM    H3F12159   3.034   2.484   6.375 -0.1704 -0.9249  2.3658
  116OSM    H3G12160   3.204   2.558   6.407  1.7076  0.4407 -2.8827
  116OSM    C4F12161   3.191   2.349   6.436  0.1738 -0.1179 -0.6742
  116OSM    H4F12162   3.295   2.331   6.404 -0.1774 -0.3164 -1.7375
  116OSM    H4G12163   3.124   2.263   6.411 -0.9166  0.2087  0.9214
  116OSM    C5F12164   3.180   2.368   6.588 -0.3019  0.3325  0.4496
  116OSM    H5F12165   3.072   2.356   6.611 -0.1142 -1.6963  0.4539
  116OSM    H5G12166   3.211   2.469   6.621 -0.1692  1.2687 -2.2952
  116OSM    C6F12167   3.258   2.261   6.665  0.1092 -0.2186  0.1281
  116OSM    H6F12168   3.364   2.262   6.630 -0.2714  0.4828 -1.0687
  116OSM    H6G12169   3.221   2.161   6.637 -1.0623  0.5984 -1.3666
  116OSM    C7F12170   3.260   2.274   6.820  0.6413  0.6136 -0.2539
  116OSM    H7F12171   3.158   2.308   6.847 -1.2027 -2.6518 -2.4326
  116OSM    H7G12172   3.334   2.355   6.837  1.4111  0.1766 -1.4478
  116OSM    C8F12173   3.303   2.140   6.883  0.2572  0.0374 -0.2883
  116OSM    H8F12174   3.397   2.096   6.843  0.4126 -0.1943  0.3189
  116OSM    H8G12175   3.224   2.067   6.858  1.5025 -1.0875 -1.0262
  116OSM    C9F12176   3.331   2.146   7.032  0.2783  0.5585  0.3319
  116OSM    H9F12177   3.315   2.247   7.071  2.6759  0.7531  0.9913
  116OSM   C10F12178   3.331   2.038   7.113  0.4883  0.3261 -0.0597
  116OSM   H10F12179   3.358   2.054   7.218  1.2325 -0.6427 -0.0883
  116OSM   C11F12180   3.307   1.891   7.064  0.6231  0.0454  0.2903
  116OSM   H11F12181   3.402   1.834   7.074  1.7874  2.1336  2.0622
  116OSM   H11G12182   3.284   1.890   6.955  1.7268  2.4459 -0.0392
  116OSM   C12F12183   3.198   1.812   7.138  0.0887 -0.1109  0.6760
  116OSM   H12F12184   3.170   1.723   7.077  1.0691 -0.2039  0.3367
  116OSM   H12G12185   3.111   1.880   7.145  0.1201  0.0203 -0.0660
  116OSM   C13F12186   3.255   1.785   7.280  0.8535 -0.7562 -0.2971
  116OSM   H13F12187   3.264   1.878   7.342  1.2525 -0.3955 -0.8869
  116OSM   H13G12188   3.359   1.745   7.274  1.0418 -0.5418  1.0254
  116OSM   C14F12189   3.165   1.686   7.352 -0.4865 -0.1705  0.8228
  116OSM   H14F12190   3.146   1.597   7.289  2.2047 -1.4675  1.6518
  116OSM   H14G12191   3.072   1.740   7.379 -0.1200 -0.0103  1.8140
  116OSM   C15F12192   3.210   1.640   7.493  0.2392 -0.0643  0.1344
  116OSM   H15F12193   3.203   1.730   7.558  1.4696  1.4529 -1.6974
  116OSM   H15G12194   3.317   1.614   7.478  0.1892  0.5719 -1.5512
  116OSM   C16F12195   3.119   1.533   7.564  0.7929  0.1780  0.1365
  116OSM   H16F12196   3.160   1.506   7.663  0.8609 -1.9797 -0.4416
  116OSM   H16G12197   3.123   1.440   7.503  2.1125  1.6227 -2.1514
  116OSM   C17F12198   2.972   1.579   7.580  0.3659 -0.1084  0.2630
  116OSM   H17F12199   2.936   1.621   7.483 -2.2958  1.2619  1.7373
  116OSM   H17G12200   2.972   1.666   7.649 -2.8535  1.0774 -1.0046
  116OSM   C18F12201   2.862   1.476   7.623  0.7213 -0.5781 -0.5284
  116OSM   H18F12202   2.766   1.512   7.579 -0.8139 -0.0132  2.9655
  116OSM   H18G12203   2.856   1.469   7.734  0.2684  1.0724 -0.4289
  116OSM   H18H12204   2.866   1.376   7.574 -0.6628 -1.0257  0.2020
  117OSM      N12205   2.016   3.673   5.412  1.0612 -0.0292 -1.2125
  117OSM    C1512206   2.034   3.667   5.267  0.7773  0.6994 -0.0367
  117OSM   H15A12207   2.124   3.617   5.236  0.9959 -0.2155  1.8769
  117OSM   H15B12208   2.044   3.766   5.225  2.0455  1.0799  1.0940
  117OSM   H15C12209   1.949   3.615   5.224  0.3942  2.0493 -0.9496
  117OSM    C1412210   2.142   3.734   5.471  0.1073 -0.0579  0.4402
  117OSM   H14A12211   2.141   3.741   5.579 -0.2194  0.4648  0.4035
  117OSM   H14B12212   2.170   3.826   5.422  1.9172 -0.6322  0.2982
  117OSM   H14C12213   2.224   3.669   5.442 -0.3803 -1.0792  1.2835
  117OSM    C1312214   1.893   3.743   5.447  0.0955  0.7491  0.3208
  117OSM   H13A12215   1.905   3.764   5.552 -0.4969  0.6860  0.4020
  117OSM   H13B12216   1.804   3.687   5.423 -1.4266  3.8635 -1.9836
  117OSM   H13C12217   1.880   3.840   5.400 -0.7831 -0.5462 -2.3581
  117OSM    C1212218   2.013   3.534   5.483 -0.0725  0.6974  0.2815
  117OSM   H12A12219   2.093   3.476   5.440 -1.4512 -0.7416 -0.4215
  117OSM   H12B12220   1.927   3.479   5.447  0.2419  1.1675 -1.2264
  117OSM    C1112221   2.034   3.526   5.638 -0.3729  0.1337 -0.4030
  117OSM   H11A12222   2.011   3.424   5.675  1.3269 -0.1810 -0.1434
  117OSM   H11B12223   1.963   3.594   5.691  0.1006  0.0688  0.3240
  117OSM      P12224   2.280   3.443   5.662  0.1323 -0.3612  0.0444
  117OSM    O1312225   2.285   3.414   5.519  0.1468  0.0209  0.5989
  117OSM    O1412226   2.407   3.499   5.709  0.3775  0.0517 -0.2257
  117OSM    O1112227   2.228   3.331   5.753 -0.0964  0.1872 -0.8787
  117OSM    O1212228   2.169   3.552   5.678  0.3358 -0.3415 -0.0696
  117OSM    C1S12229   2.294   3.219   5.796 -0.1801  0.3728 -0.1623
  117OSM    H1S12230   2.404   3.228   5.785 -0.3425  2.1835 -0.7674
  117OSM    H1T12231   2.263   3.131   5.736 -1.5005  1.7348 -1.6086
  117OSM     NF12232   2.335   3.066   5.985 -0.7492  0.3995  0.4079
  117OSM    HNF12233   2.299   2.976   6.007  0.3758 -0.3664 -0.7269
  117OSM    C2S12234   2.250   3.180   5.944  0.1886  0.5413 -0.0480
  117OSM    H2S12235   2.274   3.270   6.004  0.2803  1.0246 -0.8025
  117OSM    C3S12236   2.098   3.161   5.942  0.5609 -0.4153 -0.5308
  117OSM    H3S12237   2.078   3.072   5.878  0.4690  0.5255 -1.8546
  117OSM     O312238   2.016   3.271   5.895  0.2190 -0.7847 -0.4627
  117OSM    HO312239   2.067   3.344   5.859 -0.0176 -0.9147 -1.0811
  117OSM    C4S12240   2.039   3.131   6.075  0.6872  0.0305  0.0941
  117OSM    H4S12241   2.028   3.208   6.153 -0.1209 -1.0494  1.0902
  117OSM    C5S12242   1.984   3.012   6.103 -0.7643  0.6903 -0.1919
  117OSM    H5S12243   1.977   2.933   6.027 -0.5101  0.8376 -0.3713
  117OSM    C6S12244   1.926   2.966   6.232  0.1945 -0.0023  0.0859
  117OSM    H6S12245   1.991   2.884   6.267  1.8768 -0.0832 -2.8673
  117OSM    H6T12246   1.827   2.921   6.210  0.4032  0.7763 -2.9659
  117OSM    C7S12247   1.922   3.057   6.352 -0.4263  0.0227 -0.5338
  117OSM    H7S12248   1.873   3.154   6.332  2.0519  1.3575 -0.5417
  117OSM    H7T12249   2.018   3.111   6.365 -0.9701  1.0670 -0.7545
  117OSM    C8S12250   1.869   2.974   6.478  0.0995 -0.2867 -0.6733
  117OSM    H8S12251   1.942   2.893   6.500  1.0373  1.1847  2.1084
  117OSM    H8T12252   1.774   2.928   6.443 -1.5898  1.7027  1.0484
  117OSM    C9S12253   1.838   3.060   6.602  0.5760 -0.8040  0.2302
  117OSM    H9S12254   1.749   3.125   6.584  1.0774 -0.4762 -1.2118
  117OSM    H9T12255   1.929   3.123   6.615 -0.0247  0.1096  0.0897
  117OSM   C10S12256   1.821   2.955   6.718  0.8355 -0.1034 -0.0717
  117OSM   H10S12257   1.776   2.863   6.675  1.3280 -0.9480  1.1522
  117OSM   H10T12258   1.744   2.993   6.788 -0.0762  0.0386 -1.1259
  117OSM   C11S12259   1.956   2.919   6.780 -0.4007  0.4201 -0.2335
  117OSM   H11S12260   2.022   2.902   6.693  1.3081 -1.2560  1.2909
  117OSM   H11T12261   1.958   2.826   6.842  2.7424 -0.0497 -0.9004
  117OSM   C12S12262   2.008   3.032   6.872 -0.4168 -0.3344  0.2798
  117OSM   H12S12263   1.929   3.058   6.945  0.2906  0.0128  0.9409
  117OSM   H12T12264   2.018   3.130   6.818  0.0651  0.6941  2.1553
  117OSM   C13S12265   2.133   2.986   6.950  0.0724  0.1005 -0.5319
  117OSM   H13S12266   2.190   2.906   6.899  0.7663  1.3948 -1.8682
  117OSM   H13T12267   2.106   2.929   7.042  1.3271  1.0473  0.4624
  117OSM   C14S12268   2.222   3.107   6.981 -0.6750  0.4285 -0.0443
  117OSM   H14S12269   2.154   3.193   6.993 -1.1716 -0.1769  2.0040
  117OSM   H14T12270   2.285   3.117   6.891  1.4613 -0.7281  1.2217
  117OSM   C15S12271   2.301   3.083   7.113 -0.5655  0.0765  0.0793
  117OSM   H15S12272   2.360   2.989   7.114  0.1676  0.5331  0.6183
  117OSM   H15T12273   2.228   3.079   7.197  0.4302 -1.9056  0.9103
  117OSM   C16S12274   2.394   3.202   7.147  0.3036 -0.1142  0.1719
  117OSM   H16S12275   2.346   3.299   7.123 -0.2935  0.1139  2.0874
  117OSM   H16T12276   2.484   3.185   7.084 -1.4985 -4.0154 -1.6676
  117OSM   C17S12277   2.441   3.229   7.296 -0.6099 -0.3098 -0.0229
  117OSM   H17S12278   2.346   3.249   7.350 -0.8790 -1.4344 -0.0673
  117OSM   H17T12279   2.500   3.323   7.296 -0.1537 -0.5914  0.3522
  117OSM   C18S12280   2.531   3.122   7.368 -0.1320  0.2220  0.2202
  117OSM   H18S12281   2.626   3.116   7.312 -0.7391  1.1358 -0.9684
  117OSM   H18T12282   2.483   3.022   7.358 -0.2476  0.2100  0.8536
  117OSM   H18U12283   2.543   3.146   7.475 -0.8199  1.5642  0.0204
  117OSM    C1F12284   2.463   3.076   6.002 -0.2601  0.1174 -0.2236
  117OSM     OF12285   2.520   3.187   5.996  0.0417  0.1232 -0.0702
  117OSM    C2F12286   2.536   2.957   6.051  0.3637  0.4013 -0.6563
  117OSM    H2F12287   2.575   2.893   5.968 -1.1767  1.1859 -2.0298
  117OSM    H2G12288   2.458   2.899   6.105  2.0920  1.5833  3.5266
  117OSM    C3F12289   2.657   3.001   6.149  0.2739 -0.2582  0.2131
  117OSM    H3F12290   2.610   3.070   6.221 -2.3276 -0.1378 -1.4472
  117OSM    H3G12291   2.731   3.049   6.082 -0.7676 -0.9754 -1.5247
  117OSM    C4F12292   2.727   2.880   6.215 -0.2157 -0.2477 -0.4854
  117OSM    H4F12293   2.738   2.792   6.148 -1.9640 -0.4995 -0.4805
  117OSM    H4G12294   2.671   2.847   6.305  0.1075 -1.6746 -0.7901
  117OSM    C5F12295   2.864   2.911   6.282 -0.2489  0.3572  0.2714
  117OSM    H5F12296   2.850   2.993   6.356  0.8763  0.9465 -0.1303
  117OSM    H5G12297   2.921   2.958   6.199  0.3953 -1.1854 -0.2028
  117OSM    C6F12298   2.927   2.783   6.342 -0.1065 -0.0926 -0.1484
  117OSM    H6F12299   3.031   2.804   6.377 -0.0600  0.1699 -0.4434
  117OSM    H6G12300   2.929   2.705   6.263 -3.3693 -0.4718  0.0196
  117OSM    C7F12301   2.845   2.719   6.457  0.0179 -0.2466  0.3479
  117OSM    H7F12302   2.908   2.638   6.502  1.0918 -1.0130 -2.3362
  117OSM    H7G12303   2.758   2.669   6.410  0.6803 -1.0969 -0.0179
  117OSM    C8F12304   2.792   2.811   6.562  0.2785 -0.6702  0.4000
  117OSM    H8F12305   2.738   2.751   6.639 -0.2428  1.6112  1.9068
  117OSM    H8G12306   2.710   2.879   6.532  0.3476 -0.7304  0.0642
  117OSM    C9F12307   2.895   2.899   6.624  0.2855  0.4943 -0.2562
  117OSM    H9F12308   2.931   2.988   6.570  2.3289  0.1372  0.4227
  117OSM   C10F12309   2.941   2.879   6.750  0.7938 -0.6202 -0.3234
  117OSM   H10F12310   3.027   2.937   6.787  0.3734  0.4063 -0.9072
  117OSM   C11F12311   2.901   2.764   6.837 -0.7628  0.4439 -0.1606
  117OSM   H11F12312   2.994   2.721   6.881 -2.3955 -1.6928  1.3924
  117OSM   H11G12313   2.853   2.684   6.778 -0.5108  0.2142 -0.0560
  117OSM   C12F12314   2.825   2.821   6.961 -0.2263  0.2828 -0.0748
  117OSM   H12F12315   2.743   2.872   6.906 -1.3487 -0.8590  0.4893
  117OSM   H12G12316   2.885   2.897   7.016 -0.7610  1.8784 -1.6106
  117OSM   C13F12317   2.765   2.716   7.060 -0.3594  0.4775 -0.2879
  117OSM   H13F12318   2.838   2.633   7.072 -0.9247  0.2438  2.3672
  117OSM   H13G12319   2.670   2.674   7.023  0.0484 -1.9374  1.1647
  117OSM   C14F12320   2.744   2.773   7.199  0.5310  0.2819  1.0943
  117OSM   H14F12321   2.681   2.864   7.190  0.6260  0.2734  0.2710
  117OSM   H14G12322   2.842   2.817   7.228  0.7943 -0.5333  1.4506
  117OSM   C15F12323   2.696   2.685   7.314 -0.8947  0.1653 -0.2189
  117OSM   H15F12324   2.778   2.611   7.317 -0.9790  0.0806  0.0245
  117OSM   H15G12325   2.603   2.635   7.277 -0.5036 -1.7993  1.2639
  117OSM   C16F12326   2.673   2.758   7.448 -0.5299 -0.1598  0.4901
  117OSM   H16F12327   2.637   2.683   7.521 -1.5030  2.6864  3.2030
  117OSM   H16G12328   2.591   2.832   7.433 -0.2383  0.1681  0.4768
  117OSM   C17F12329   2.806   2.829   7.509 -0.6132  0.3506 -0.0004
  117OSM   H17F12330   2.880   2.750   7.535 -1.5360 -0.3411  0.6208
  117OSM   H17G12331   2.844   2.890   7.425 -0.2398  0.3664  0.1807
  117OSM   C18F12332   2.791   2.925   7.631  0.4386  0.1419  0.1298
  117OSM   H18F12333   2.797   2.874   7.730  0.4711 -1.3626 -0.6090
  117OSM   H18G12334   2.703   2.988   7.610  0.7494  0.0819 -1.5255
  117OSM   H18H12335   2.880   2.991   7.626  0.2566  0.4500  0.8315
  118OSM      N12336   5.111   5.191   5.513  0.2837  0.6207 -0.2030
  118OSM    C1512337   4.999   5.090   5.477  0.8205  0.3004 -0.3558
  118OSM   H15A12338   4.931   5.135   5.406 -1.2290 -0.2886  1.1478
  118OSM   H15B12339   4.941   5.073   5.566  2.1725  0.0913  0.5151
  118OSM   H15C12340   5.046   5.000   5.439  1.8351  0.0360  1.4253
  118OSM    C1412341   5.192   5.215   5.389  0.2961 -0.0478  1.3562
  118OSM   H14A12342   5.150   5.284   5.317  1.5858  0.3638  0.9652
  118OSM   H14B12343   5.230   5.129   5.337  0.1084  0.4268  0.4034
  118OSM   H14C12344   5.283   5.265   5.419  1.4028 -1.0237 -0.2307
  118OSM    C1312345   5.050   5.313   5.546  0.1091 -0.2777 -0.4073
  118OSM   H13A12346   4.972   5.309   5.620 -2.0681  1.6662 -2.4491
  118OSM   H13B12347   4.994   5.367   5.472  1.7284 -0.9979 -2.2285
  118OSM   H13C12348   5.116   5.389   5.585 -0.4849 -0.2741  0.6430
  118OSM    C1212349   5.200   5.140   5.623 -0.0646  1.3674 -0.3707
  118OSM   H12A12350   5.140   5.140   5.713 -0.2122 -1.2326 -0.3967
  118OSM   H12B12351   5.281   5.207   5.646  0.2599  0.7857  0.2241
  118OSM    C1112352   5.262   4.999   5.600  0.2740 -0.1648 -0.4747
  118OSM   H11A12353   5.352   5.001   5.664  2.7076 -0.9216 -3.6513
  118OSM   H11B12354   5.299   4.987   5.496  1.3568 -0.8029 -0.0310
  118OSM      P12355   5.169   4.765   5.544 -0.1529  0.0521 -0.0684
  118OSM    O1312356   5.132   4.805   5.403  0.1429 -0.2888  0.2588
  118OSM    O1412357   5.286   4.677   5.555 -0.4695 -0.8506  0.0468
  118OSM    O1112358   5.049   4.688   5.595  0.2359  0.3475  0.1433
  118OSM    O1212359   5.177   4.889   5.639 -0.0137 -0.4415  0.0362
  118OSM    C1S12360   5.026   4.647   5.727 -0.3254  0.3983  0.3195
  118OSM    H1S12361   5.124   4.626   5.775 -0.6359 -0.3441  0.6420
  118OSM    H1T12362   4.953   4.564   5.738 -0.2178  0.3261  0.4931
  118OSM     NF12363   4.953   4.719   5.946  0.1183  0.1138 -0.2657
  118OSM    HNF12364   4.883   4.650   5.959  0.1065  0.2668  0.5634
  118OSM    C2S12365   4.964   4.763   5.810 -0.1113  0.2624 -0.4132
  118OSM    H2S12366   5.026   4.855   5.814 -0.3777  0.4347 -0.1609
  118OSM    C3S12367   4.826   4.812   5.749 -1.0351  0.2899 -0.2526
  118OSM    H3S12368   4.761   4.722   5.752  0.5241 -0.9197 -1.1793
  118OSM     O312369   4.818   4.839   5.605  0.1063 -0.1521 -0.0006
  118OSM    HO312370   4.897   4.804   5.563  1.0455  1.7890  0.0749
  118OSM    C4S12371   4.783   4.922   5.834  0.3128  0.3551 -0.0169
  118OSM    H4S12372   4.843   5.012   5.853 -1.0265  1.5132 -0.9959
  118OSM    C5S12373   4.656   4.921   5.888  0.3420  0.3219  0.6897
  118OSM    H5S12374   4.583   4.843   5.860  1.7930 -1.2797  1.2399
  118OSM    C6S12375   4.613   5.030   5.985  0.2451  0.2863  0.5290
  118OSM    H6S12376   4.513   5.074   5.962 -0.5779 -0.3555  2.6577
  118OSM    H6T12377   4.690   5.109   5.986  1.7523 -0.9902 -2.0908
  118OSM    C7S12378   4.607   4.968   6.131 -0.0928 -0.8527 -0.1072
  118OSM    H7S12379   4.712   4.953   6.165  0.3898  1.0610 -0.6197
  118OSM    H7T12380   4.560   4.868   6.134  1.2567 -1.4965  0.4647
  118OSM    C8S12381   4.538   5.069   6.228 -1.1451  0.9873 -0.1891
  118OSM    H8S12382   4.433   5.078   6.195 -1.3709 -0.6216 -0.0070
  118OSM    H8T12383   4.591   5.167   6.227 -0.8130  0.8382  0.7744
  118OSM    C9S12384   4.549   5.010   6.370  0.2755  0.0173 -0.7206
  118OSM    H9S12385   4.652   4.973   6.394  0.3645  1.2117  0.9124
  118OSM    H9T12386   4.490   4.917   6.360  1.7634 -1.6009  3.1953
  118OSM   C10S12387   4.503   5.098   6.488 -0.1339  0.3282 -0.1175
  118OSM   H10S12388   4.408   5.153   6.470  0.1961  1.6671  1.8782
  118OSM   H10T12389   4.576   5.176   6.519 -0.1140 -0.1549  1.0941
  118OSM   C11S12390   4.490   5.007   6.609  0.0819 -0.4047 -0.2689
  118OSM   H11S12391   4.587   4.964   6.641 -0.3866 -0.2539  1.4348
  118OSM   H11T12392   4.421   4.922   6.595 -0.6956  0.1011  0.4238
  118OSM   C12S12393   4.442   5.092   6.732  0.7086  0.5644  0.0742
  118OSM   H12S12394   4.337   5.120   6.706  0.6204 -0.1404 -0.3524
  118OSM   H12T12395   4.506   5.182   6.740  0.5284  0.9406 -2.1009
  118OSM   C13S12396   4.429   5.016   6.864 -0.3050 -0.2399  0.5368
  118OSM   H13S12397   4.527   4.969   6.883 -0.0955 -0.0192  0.0423
  118OSM   H13T12398   4.355   4.933   6.862  0.0368 -0.5453 -1.1019
  118OSM   C14S12399   4.384   5.125   6.969  0.2818  0.4253  1.6039
  118OSM   H14S12400   4.285   5.156   6.930 -0.8666 -3.9938  0.4949
  118OSM   H14T12401   4.458   5.208   6.969  0.4951  0.2446  0.9566
  118OSM   C15S12402   4.342   5.066   7.102 -0.1154 -0.3970  0.2976
  118OSM   H15S12403   4.438   5.022   7.138 -0.3888 -0.6879  0.6910
  118OSM   H15T12404   4.267   4.988   7.077 -0.9327  0.7453 -0.9911
  118OSM   C16S12405   4.288   5.160   7.207  0.1580 -0.1649 -0.9649
  118OSM   H16S12406   4.191   5.196   7.165 -0.1880 -0.1644 -0.1782
  118OSM   H16T12407   4.353   5.249   7.215  0.6218 -0.4511 -1.4791
  118OSM   C17S12408   4.256   5.097   7.343 -0.5064  0.1268  0.1397
  118OSM   H17S12409   4.355   5.058   7.375 -0.3338 -1.2815 -1.9413
  118OSM   H17T12410   4.197   5.009   7.311 -0.9113  1.2277 -2.3089
  118OSM   C18S12411   4.193   5.192   7.441  0.7968 -0.8375  0.5473
  118OSM   H18S12412   4.108   5.233   7.383  0.4733 -2.3579 -0.0712
  118OSM   H18T12413   4.258   5.276   7.476  0.8671 -1.4511  1.9437
  118OSM   H18U12414   4.148   5.153   7.535  0.2697 -0.5158  0.4301
  118OSM    C1F12415   5.058   4.740   6.036  0.7823  0.5374  0.2070
  118OSM     OF12416   5.153   4.807   6.000 -0.8135  0.5815  0.7003
  118OSM    C2F12417   5.043   4.673   6.174 -0.4030  0.2128  0.1512
  118OSM    H2F12418   5.114   4.722   6.245  0.7291 -1.3382  0.1525
  118OSM    H2G12419   5.064   4.564   6.172  0.1036  0.3156 -1.8565
  118OSM    C3F12420   4.903   4.705   6.233  0.0711  0.4273 -0.5545
  118OSM    H3F12421   4.840   4.636   6.172 -0.8224  0.8793 -0.1669
  118OSM    H3G12422   4.884   4.813   6.216  0.3334  1.0057  2.2887
  118OSM    C4F12423   4.889   4.684   6.385 -0.1796  0.3346  0.1616
  118OSM    H4F12424   4.954   4.756   6.439  1.0502 -0.6206 -0.0167
  118OSM    H4G12425   4.940   4.589   6.408  0.0974  0.5694  0.5213
  118OSM    C5F12426   4.755   4.674   6.452  0.2916 -0.1926  0.6493
  118OSM    H5F12427   4.703   4.585   6.412 -0.2042 -0.2008  1.2981
  118OSM    H5G12428   4.698   4.758   6.407  1.9322 -0.8954 -3.1668
  118OSM    C6F12429   4.761   4.664   6.603  0.1883  0.7612  0.4655
  118OSM    H6F12430   4.662   4.639   6.648 -0.5190 -0.1988 -1.4932
  118OSM    H6G12431   4.785   4.769   6.631 -0.2668  0.9751  0.0687
  118OSM    C7F12432   4.863   4.567   6.663 -0.2103 -0.7464 -0.4233
  118OSM    H7F12433   4.962   4.607   6.636 -0.3333 -1.3541 -1.8503
  118OSM    H7G12434   4.845   4.469   6.614 -0.4427 -0.2797 -1.2945
  118OSM    C8F12435   4.848   4.551   6.814  0.4832  0.0921  0.2760
  118OSM    H8F12436   4.924   4.480   6.854  1.4093  0.6462 -0.4353
  118OSM    H8G12437   4.748   4.505   6.831 -0.7577  1.0561 -3.3811
  118OSM    C9F12438   4.873   4.691   6.880 -0.4012 -0.6450  0.1797
  118OSM    H9F12439   4.975   4.730   6.887 -1.4379  2.4946 -0.7575
  118OSM   C10F12440   4.774   4.760   6.947  0.2920 -0.1251  0.8378
  118OSM   H10F12441   4.795   4.856   6.996 -1.5941  0.4670  0.5640
  118OSM   C11F12442   4.633   4.709   6.965  0.1844 -0.1586 -0.0868
  118OSM   H11F12443   4.606   4.603   6.945 -1.2158  0.6127 -2.8589
  118OSM   H11G12444   4.575   4.748   6.878  0.9052  0.5422 -0.2633
  118OSM   C12F12445   4.558   4.748   7.095 -0.7154 -0.0710  0.3726
  118OSM   H12F12446   4.450   4.720   7.094 -0.5017 -1.0096 -1.3915
  118OSM   H12G12447   4.574   4.858   7.102  2.8262 -0.4644  0.4116
  118OSM   C13F12448   4.611   4.682   7.217 -1.0457  0.4024  0.3796
  118OSM   H13F12449   4.717   4.710   7.236 -0.4568 -2.1481  1.3379
  118OSM   H13G12450   4.601   4.572   7.208 -2.0431  0.2271  2.7830
  118OSM   C14F12451   4.533   4.719   7.346 -0.6533 -0.1014 -0.1895
  118OSM   H14F12452   4.531   4.829   7.357  1.6565  0.0664 -0.8547
  118OSM   H14G12453   4.596   4.693   7.434 -2.3597 -1.3534  0.7175
  118OSM   C15F12454   4.401   4.649   7.374  0.1824  0.6023 -0.4037
  118OSM   H15F12455   4.426   4.556   7.429 -0.1109  0.5089 -0.4266
  118OSM   H15G12456   4.350   4.635   7.276  1.0996 -0.0377 -0.8022
  118OSM   C16F12457   4.307   4.739   7.451  0.2904 -0.2417  0.0794
  118OSM   H16F12458   4.286   4.837   7.403  0.7254 -0.4041 -0.4358
  118OSM   H16G12459   4.373   4.754   7.540  0.7720  1.1837 -0.5022
  118OSM   C17F12460   4.173   4.677   7.493 -0.1481  0.2726 -0.3072
  118OSM   H17F12461   4.205   4.592   7.558  0.9689  0.1712 -0.9629
  118OSM   H17G12462   4.124   4.629   7.405 -1.2410 -2.0102  1.4472
  118OSM   C18F12463   4.081   4.772   7.570 -0.1373  0.3098 -0.1121
  118OSM   H18F12464   4.145   4.837   7.634 -0.4098  0.6674 -0.1997
  118OSM   H18G12465   4.016   4.714   7.637 -2.6350  0.0920 -2.5452
  118OSM   H18H12466   4.027   4.842   7.502  2.3809  1.6400 -0.8881
  119OSM      N12467   5.191   4.414   5.345  0.0005 -0.3119  0.1204
  119OSM    C1512468   5.192   4.273   5.276  0.4864 -0.1620  0.3194
  119OSM   H15A12469   5.288   4.229   5.298  0.8075 -0.7687 -1.9967
  119OSM   H15B12470   5.179   4.277   5.169 -0.4163 -2.6539  0.2740
  119OSM   H15C12471   5.114   4.214   5.321 -0.3256  1.2925  0.8673
  119OSM    C1412472   5.322   4.479   5.314 -0.2704 -0.6563  0.3961
  119OSM   H14A12473   5.396   4.403   5.334 -2.2880 -2.2320  2.3500
  119OSM   H14B12474   5.346   4.564   5.377  3.1342  0.4962 -2.1243
  119OSM   H14C12475   5.330   4.500   5.208  0.9976 -3.7945 -0.2625
  119OSM    C1312476   5.076   4.497   5.295 -0.0495 -0.0551 -0.4767
  119OSM   H13A12477   5.095   4.602   5.312  0.3079 -0.4278  1.6056
  119OSM   H13B12478   4.981   4.471   5.339  0.7178  0.0191  1.2867
  119OSM   H13C12479   5.080   4.483   5.188  2.2145  2.2368 -0.8014
  119OSM    C1212480   5.174   4.392   5.493 -0.0332 -0.0578 -0.7273
  119OSM   H12A12481   5.071   4.363   5.506  0.1859 -1.3270 -1.6945
  119OSM   H12B12482   5.188   4.487   5.544  2.3021 -0.0957 -1.1535
  119OSM    C1112483   5.274   4.301   5.572 -0.2545  0.0877  0.2987
  119OSM   H11A12484   5.262   4.193   5.551  0.6093  0.0955 -0.2883
  119OSM   H11B12485   5.237   4.319   5.675 -2.3725  0.1748 -0.4324
  119OSM      P12486   5.519   4.265   5.500 -0.2818  0.1738 -0.5445
  119OSM    O1312487   5.485   4.232   5.361  0.0265  0.0402  0.0964
  119OSM    O1412488   5.646   4.337   5.524  0.4995 -0.5072 -0.2285
  119OSM    O1112489   5.504   4.141   5.596 -0.6053  0.2978  0.0564
  119OSM    O1212490   5.407   4.354   5.559 -0.1655 -0.1411  0.0346
  119OSM    C1S12491   5.554   4.131   5.733  0.2601 -0.6302  0.0947
  119OSM    H1S12492   5.591   4.232   5.761 -2.1957 -0.0077  1.4041
  119OSM    H1T12493   5.631   4.052   5.736 -0.5298 -1.3899  1.1482
  119OSM     NF12494   5.481   4.147   5.976 -0.4700  0.4214 -0.0992
  119OSM    HNF12495   5.554   4.102   6.026 -0.4846  1.5292  0.9878
  119OSM    C2S12496   5.440   4.097   5.842 -0.0889  0.9859 -0.4027
  119OSM    H2S12497   5.348   4.150   5.808  0.0843  1.1003 -0.7002
  119OSM    C3S12498   5.410   3.948   5.822  0.1034  0.0998 -0.3976
  119OSM    H3S12499   5.505   3.893   5.839  0.5323  0.9738  0.1405
  119OSM     O312500   5.369   3.908   5.694 -0.0261  0.3253  0.3037
  119OSM    HO312501   5.381   3.986   5.639 -0.1978 -0.4366 -0.8617
  119OSM    C4S12502   5.311   3.909   5.924  0.5696 -0.9459 -1.1847
  119OSM    H4S12503   5.368   3.878   6.013 -0.3284 -1.2257 -0.6922
  119OSM    C5S12504   5.176   3.896   5.916  0.3635  0.7051  0.0298
  119OSM    H5S12505   5.128   3.920   5.820  0.5981 -0.0201 -0.2776
  119OSM    C6S12506   5.090   3.839   6.022  0.1308  0.1771 -0.6701
  119OSM    H6S12507   5.109   3.731   6.038 -1.4706  0.1691  1.8123
  119OSM    H6T12508   4.981   3.857   6.004 -0.1012  2.3288  2.1150
  119OSM    C7S12509   5.117   3.903   6.166  0.9067  0.7584 -0.0667
  119OSM    H7S12510   5.133   4.013   6.157  0.4562  0.7934 -0.4696
  119OSM    H7T12511   5.204   3.852   6.213 -0.3110  0.5294  2.0894
  119OSM    C8S12512   5.004   3.863   6.263  0.0134 -0.3821 -0.7050
  119OSM    H8S12513   5.005   3.752   6.262  1.6862 -0.4115 -0.0208
  119OSM    H8T12514   4.910   3.881   6.207  0.3272  0.6336 -0.9419
  119OSM    C9S12515   4.997   3.937   6.394 -0.7064 -0.0080  0.5411
  119OSM    H9S12516   4.985   4.045   6.370  0.2158  0.1669  0.8271
  119OSM    H9T12517   5.094   3.934   6.450  0.0106  1.7735 -0.5302
  119OSM   C10S12518   4.893   3.874   6.479  0.0588  0.2127  0.4392
  119OSM   H10S12519   4.926   3.769   6.492  0.0983  0.2704  0.8103
  119OSM   H10T12520   4.806   3.865   6.410  0.7657  1.2761 -0.6368
  119OSM   C11S12521   4.863   3.940   6.617  0.2325 -0.6385  0.2934
  119OSM   H11S12522   4.864   4.051   6.607 -0.4400 -0.6655 -0.1167
  119OSM   H11T12523   4.950   3.913   6.680  1.3436  3.7166  0.9822
  119OSM   C12S12524   4.737   3.888   6.678  0.3329  0.0881 -0.2430
  119OSM   H12S12525   4.757   3.779   6.689  2.7086  0.3537 -1.3610
  119OSM   H12T12526   4.655   3.913   6.607  1.0323  1.7138 -0.5136
  119OSM   C13S12527   4.698   3.938   6.815  0.7000 -0.6005  0.0500
  119OSM   H13S12528   4.756   3.876   6.886 -0.3295 -2.0324 -0.3250
  119OSM   H13T12529   4.596   3.911   6.848 -0.2243  1.8797 -0.5402
  119OSM   C14S12530   4.707   4.094   6.832 -0.2484 -0.8511  0.1210
  119OSM   H14S12531   4.662   4.156   6.752 -1.3763  1.0014  2.0745
  119OSM   H14T12532   4.810   4.133   6.845 -0.5101 -0.5791  1.6023
  119OSM   C15S12533   4.634   4.130   6.958  0.3369 -0.6001 -0.3029
  119OSM   H15S12534   4.668   4.071   7.046  0.5919 -2.2105 -1.4377
  119OSM   H15T12535   4.525   4.118   6.945  0.1387  0.1257  0.5652
  119OSM   C16S12536   4.664   4.274   7.000 -0.0667 -0.2920 -0.1953
  119OSM   H16S12537   4.607   4.345   6.936  0.8570 -0.9116 -1.7543
  119OSM   H16T12538   4.768   4.283   6.964 -0.1472 -0.0504 -0.3688
  119OSM   C17S12539   4.638   4.295   7.156  1.1516 -1.0084  0.0772
  119OSM   H17S12540   4.701   4.382   7.182 -1.4380  0.8681  0.4850
  119OSM   H17T12541   4.668   4.199   7.204 -2.4507 -2.6127 -0.5364
  119OSM   C18S12542   4.491   4.328   7.189  0.1152 -0.0378 -0.2843
  119OSM   H18S12543   4.447   4.415   7.136  0.9127  2.1759  2.4185
  119OSM   H18T12544   4.480   4.370   7.291 -0.0259  0.5440 -0.5407
  119OSM   H18U12545   4.421   4.242   7.177  0.5632 -0.5001  0.2805
  119OSM    C1F12546   5.455   4.272   6.012  0.3395  0.5749 -0.3749
  119OSM     OF12547   5.401   4.349   5.938 -0.5360 -0.0754  0.0155
  119OSM    C2F12548   5.514   4.316   6.144 -0.0085  0.0018  0.3411
  119OSM    H2F12549   5.590   4.388   6.107 -0.0944  0.2963  0.7337
  119OSM    H2G12550   5.556   4.227   6.195  0.4863  1.0301  1.7975
  119OSM    C3F12551   5.405   4.382   6.238  0.5454 -0.4393 -0.6782
  119OSM    H3F12552   5.355   4.469   6.190  0.6832 -0.3802 -0.7162
  119OSM    H3G12553   5.453   4.426   6.328 -0.2674 -2.3009  0.7420
  119OSM    C4F12554   5.311   4.278   6.291 -0.0014  0.5905 -0.3672
  119OSM    H4F12555   5.367   4.191   6.331  0.5860  1.4555  0.7319
  119OSM    H4G12556   5.245   4.238   6.211 -0.8996  2.6578 -0.7182
  119OSM    C5F12557   5.210   4.327   6.389  0.3334  0.2732 -0.3271
  119OSM    H5F12558   5.129   4.252   6.401 -0.5176  0.9469 -1.5645
  119OSM    H5G12559   5.150   4.418   6.368 -1.2614  0.5552  4.3626
  119OSM    C6F12560   5.274   4.357   6.521 -0.5302  0.1665 -0.4229
  119OSM    H6F12561   5.309   4.461   6.501 -0.6992  0.1885 -0.6160
  119OSM    H6G12562   5.356   4.284   6.533  0.3916  1.3845  1.0530
  119OSM    C7F12563   5.176   4.350   6.639  0.3502  0.2140 -0.2749
  119OSM    H7F12564   5.143   4.244   6.647 -1.6099  0.7866 -0.1731
  119OSM    H7G12565   5.084   4.409   6.616  0.5855  0.9125  0.5510
  119OSM    C8F12566   5.233   4.421   6.760  0.8192  0.6178  0.1210
  119OSM    H8F12567   5.143   4.459   6.813  0.0263 -2.2919  1.0330
  119OSM    H8G12568   5.297   4.502   6.718  1.8140 -1.1277 -1.9647
  119OSM    C9F12569   5.319   4.336   6.846 -1.0829 -0.7663 -0.3140
  119OSM    H9F12570   5.426   4.355   6.827 -1.0987  1.1406  1.1500
  119OSM   C10F12571   5.291   4.248   6.944 -0.2197 -0.6184  0.7213
  119OSM   H10F12572   5.378   4.190   6.977  2.1813  1.0909 -2.1088
  119OSM   C11F12573   5.152   4.208   6.994  0.3693 -0.0484  0.0765
  119OSM   H11F12574   5.067   4.228   6.925 -0.0895 -0.8095  0.4088
  119OSM   H11G12575   5.133   4.259   7.091  1.0070  0.3384  0.0066
  119OSM   C12F12576   5.153   4.058   7.013  0.3869 -0.1823  0.3006
  119OSM   H12F12577   5.243   4.027   7.070  2.0881  0.1009 -2.0642
  119OSM   H12G12578   5.171   4.020   6.910 -0.0887 -0.9347  0.4828
  119OSM   C13F12579   5.012   3.996   7.060 -0.1746 -0.4442  0.3510
  119OSM   H13F12580   5.011   3.888   7.033 -0.8993  0.0425 -1.7320
  119OSM   H13G12581   4.931   4.046   7.004  0.9287  0.6931 -0.2854
  119OSM   C14F12582   4.983   4.008   7.204 -0.0758 -0.2524 -0.5230
  119OSM   H14F12583   4.969   4.117   7.221 -1.4602 -0.3964 -0.6373
  119OSM   H14G12584   5.071   3.982   7.267  1.3333  0.4464 -2.1057
  119OSM   C15F12585   4.856   3.935   7.247 -0.8463  0.8808  1.3177
  119OSM   H15F12586   4.878   3.828   7.265 -0.2594  0.5132 -1.1427
  119OSM   H15G12587   4.792   3.949   7.158  1.4322 -0.9136 -0.7597
  119OSM   C16F12588   4.793   4.007   7.371 -1.0876 -0.2251 -0.7073
  119OSM   H16F12589   4.813   4.116   7.361  1.7997 -0.6475 -0.2871
  119OSM   H16G12590   4.867   3.999   7.453 -1.3806  1.9562 -0.1543
  119OSM   C17F12591   4.648   3.971   7.400  0.7535  0.9388 -0.7284
  119OSM   H17F12592   4.629   3.864   7.425  0.7288  1.2340  0.5343
  119OSM   H17G12593   4.593   3.975   7.303 -1.6406 -0.8438  0.4543
  119OSM   C18F12594   4.566   4.060   7.493  0.1277  0.0349 -0.2020
  119OSM   H18F12595   4.522   4.146   7.439 -1.2985 -0.2359  0.4864
  119OSM   H18G12596   4.630   4.088   7.579 -1.3305 -0.2677  1.0172
  119OSM   H18H12597   4.478   4.016   7.544 -0.1498  0.4479 -0.3232
  120OSM      N12598   3.762   2.390   5.592 -0.3780  0.1615  0.0873
  120OSM    C1512599   3.851   2.496   5.542 -0.5208 -0.2249 -0.0889
  120OSM   H15A12600   3.821   2.528   5.443  0.2471  1.6412  0.2446
  120OSM   H15B12601   3.951   2.456   5.537  0.1201  1.0709  1.4398
  120OSM   H15C12602   3.857   2.582   5.607  1.3243 -1.4657  1.4994
  120OSM    C1412603   3.632   2.449   5.639 -0.2175  0.3122 -0.0531
  120OSM   H14A12604   3.605   2.523   5.565 -0.9212  0.7011  0.5694
  120OSM   H14B12605   3.652   2.491   5.737 -0.6162 -0.2760  0.2888
  120OSM   H14C12606   3.559   2.369   5.649 -0.7833  0.9179  0.8043
  120OSM    C1312607   3.742   2.292   5.482 -0.8201 -0.1548  0.0023
  120OSM   H13A12608   3.723   2.338   5.387 -1.3584  0.9886  0.6356
  120OSM   H13B12609   3.654   2.232   5.499 -1.0713 -0.1455 -1.1803
  120OSM   H13C12610   3.825   2.224   5.477 -1.3454 -0.7463 -1.0861
  120OSM    C1212611   3.828   2.325   5.708  0.5120 -0.5257  0.1675
  120OSM   H12A12612   3.824   2.402   5.784 -2.5390 -0.9302  0.5521
  120OSM   H12B12613   3.934   2.314   5.690  0.3686 -1.0307 -0.4103
  120OSM    C1112614   3.762   2.200   5.758 -0.5954  0.0486  0.1509
  120OSM   H11A12615   3.651   2.208   5.747 -0.6952 -2.2090 -1.1203
  120OSM   H11B12616   3.780   2.188   5.866  0.4150 -0.7192 -0.0947
  120OSM      P12617   3.951   2.023   5.708  0.5121  0.0656 -0.3380
  120OSM    O1312618   3.954   1.872   5.693  0.1752  0.1422  0.1376
  120OSM    O1412619   4.033   2.113   5.618 -0.0606 -0.0570 -0.1972
  120OSM    O1112620   3.981   2.050   5.858  0.2206 -0.1115 -0.0198
  120OSM    O1212621   3.801   2.074   5.692  0.3620 -0.7361 -0.4514
  120OSM    C1S12622   3.956   1.974   5.970  0.0423  0.3103 -0.0064
  120OSM    H1S12623   3.908   1.875   5.959  2.1431 -0.7076 -0.5681
  120OSM    H1T12624   3.884   2.033   6.031 -0.7233 -1.5763  1.0214
  120OSM     NF12625   4.033   1.881   6.184  0.6814  0.6264  0.1411
  120OSM    HNF12626   4.038   1.943   6.262  1.3832 -0.0854  0.6816
  120OSM    C2S12627   4.074   1.952   6.062 -0.4153  0.1749 -0.1655
  120OSM    H2S12628   4.147   1.883   6.016  0.4573  0.6896  0.4022
  120OSM    C3S12629   4.143   2.094   6.083 -0.0905 -0.4109  0.3580
  120OSM    H3S12630   4.074   2.171   6.123 -1.0646 -1.1546  0.1230
  120OSM     O312631   4.191   2.144   5.954  0.2606  0.3616  0.2918
  120OSM    HO312632   4.137   2.112   5.882  2.3471  1.9884 -2.2069
  120OSM    C4S12633   4.265   2.088   6.178  0.3226  0.2512  0.5728
  120OSM    H4S12634   4.362   2.068   6.130  1.1173  2.8330  0.9918
  120OSM    C5S12635   4.272   2.103   6.309 -0.2572  0.6701  0.0403
  120OSM    H5S12636   4.180   2.138   6.360 -0.6945  0.0204 -0.2957
  120OSM    C6S12637   4.389   2.077   6.393  0.0699  0.2850  0.4892
  120OSM    H6S12638   4.441   2.173   6.410  0.8213  0.1518 -0.9365
  120OSM    H6T12639   4.457   2.007   6.340  0.7534  1.9307 -0.9100
  120OSM    C7S12640   4.356   2.038   6.535  0.1876  0.3941  0.2785
  120OSM    H7S12641   4.301   1.941   6.525  0.1499  0.4039  0.3925
  120OSM    H7T12642   4.287   2.111   6.582 -0.8992 -1.7923  2.2883
  120OSM    C8S12643   4.482   2.013   6.628  0.9442 -0.4393  0.0599
  120OSM    H8S12644   4.534   2.111   6.639  1.3333 -0.6962  0.5854
  120OSM    H8T12645   4.539   1.936   6.572  0.0807 -1.0660  0.0261
  120OSM    C9S12646   4.453   1.955   6.762  0.6545 -0.1630 -0.7321
  120OSM    H9S12647   4.381   1.871   6.747 -0.5269  0.7427 -0.3191
  120OSM    H9T12648   4.407   2.032   6.827 -0.6909 -0.6834 -1.0293
  120OSM   C10S12649   4.572   1.906   6.839  0.3419  0.6083  0.6822
  120OSM   H10S12650   4.554   1.886   6.947 -0.0909 -0.6292  0.4035
  120OSM   H10T12651   4.658   1.976   6.833  0.9905 -0.2515 -0.7377
  120OSM   C11S12652   4.629   1.777   6.779 -0.3996  0.6265 -0.2051
  120OSM   H11S12653   4.691   1.804   6.691 -1.6878  0.4405 -1.1952
  120OSM   H11T12654   4.551   1.708   6.743  0.9808 -0.7092 -0.7687
  120OSM   C12S12655   4.722   1.699   6.877  0.4083  0.3312 -0.3077
  120OSM   H12S12656   4.672   1.677   6.974  0.5862 -0.5544 -0.4044
  120OSM   H12T12657   4.802   1.773   6.895  0.2454 -0.0516  2.4020
  120OSM   C13S12658   4.758   1.562   6.810  0.0911 -0.2348  0.1780
  120OSM   H13S12659   4.815   1.570   6.715  4.3689 -1.0886  2.4120
  120OSM   H13T12660   4.667   1.504   6.786  0.0908  0.0872 -0.6020
  120OSM   C14S12661   4.839   1.467   6.895  0.9493  0.1640 -0.0192
  120OSM   H14S12662   4.942   1.510   6.893  1.6984 -1.3796  1.7738
  120OSM   H14T12663   4.828   1.365   6.852  1.5768  2.0167 -5.3993
  120OSM   C15S12664   4.793   1.463   7.044 -0.0177 -0.1952 -0.5926
  120OSM   H15S12665   4.687   1.429   7.037 -0.8916  1.3728  2.8075
  120OSM   H15T12666   4.797   1.554   7.107 -0.3859 -1.1586  0.8829
  120OSM   C16S12667   4.856   1.349   7.128  0.2024 -0.3244  0.0892
  120OSM   H16S12668   4.954   1.396   7.149  0.8908 -0.9053 -1.6439
  120OSM   H16T12669   4.879   1.260   7.066 -3.2430 -0.5412 -1.1269
  120OSM   C17S12670   4.782   1.304   7.257  0.7487  0.1488  0.2563
  120OSM   H17S12671   4.711   1.384   7.289 -2.9889 -3.5528  2.0677
  120OSM   H17T12672   4.848   1.287   7.344 -0.3635 -0.6564  0.9641
  120OSM   C18S12673   4.694   1.174   7.225 -0.3199 -0.2483 -0.1336
  120OSM   H18S12674   4.608   1.155   7.293 -2.0422  0.5779 -1.9707
  120OSM   H18T12675   4.761   1.086   7.221  1.4182  0.8748  1.9664
  120OSM   H18U12676   4.650   1.187   7.124 -2.6718 -0.4760  0.8030
  120OSM    C1F12677   3.990   1.753   6.187 -0.6234  0.1677 -0.0817
  120OSM     OF12678   3.966   1.681   6.090  0.2978  0.3998 -0.3516
  120OSM    C2F12679   3.968   1.696   6.327  0.4400  0.0604 -0.6419
  120OSM    H2F12680   4.010   1.593   6.325  1.4209  0.1630  4.0558
  120OSM    H2G12681   3.859   1.694   6.345  0.4260 -0.7599 -0.7703
  120OSM    C3F12682   4.031   1.779   6.442 -0.1105  0.0648 -0.1114
  120OSM    H3F12683   3.978   1.871   6.475 -0.6328 -1.8396  5.4578
  120OSM    H3G12684   4.137   1.799   6.419  0.3649 -2.0054  0.0710
  120OSM    C4F12685   4.033   1.689   6.563  0.1849 -1.0804 -0.2359
  120OSM    H4F12686   4.065   1.585   6.539  0.7246 -0.9679 -0.0189
  120OSM    H4G12687   3.927   1.690   6.597  0.1270 -0.1661 -0.4324
  120OSM    C5F12688   4.122   1.741   6.679 -0.1412 -0.0637 -0.9051
  120OSM    H5F12689   4.084   1.839   6.714 -0.2380  0.0910 -1.4276
  120OSM    H5G12690   4.230   1.750   6.653 -0.2763 -0.7351 -1.7320
  120OSM    C6F12691   4.121   1.653   6.806 -0.0678  0.3184 -0.6226
  120OSM    H6F12692   4.188   1.568   6.779  1.7280  1.6307 -0.5007
  120OSM    H6G12693   4.022   1.611   6.833  0.6913 -0.7670  0.6003
  120OSM    C7F12694   4.180   1.723   6.929  0.0717 -0.0336  0.1281
  120OSM    H7F12695   4.126   1.820   6.928 -0.4274 -0.2945  1.0714
  120OSM    H7G12696   4.285   1.749   6.901  1.1511 -2.6585  1.3304
  120OSM    C8F12697   4.174   1.641   7.058  0.2188  0.2050 -0.4941
  120OSM    H8F12698   4.070   1.610   7.081  0.7031 -0.5040  0.8674
  120OSM    H8G12699   4.189   1.708   7.146  1.9810 -2.1468  1.1286
  120OSM    C9F12700   4.268   1.526   7.053 -0.5133  0.8250 -0.3896
  120OSM    H9F12701   4.249   1.467   6.961  1.5117  3.1203 -2.4466
  120OSM   C10F12702   4.371   1.492   7.136  0.5573  0.0908  0.0617
  120OSM   H10F12703   4.439   1.409   7.111  1.6960  1.2783 -0.8830
  120OSM   C11F12704   4.411   1.555   7.266  0.0438 -0.2654 -0.1072
  120OSM   H11F12705   4.445   1.479   7.340  0.9928  0.2897  0.0458
  120OSM   H11G12706   4.323   1.603   7.314  0.4296 -3.3966  4.4120
  120OSM   C12F12707   4.523   1.652   7.241 -0.3400  0.5691 -0.5085
  120OSM   H12F12708   4.507   1.706   7.145 -1.4516  2.7871  0.8383
  120OSM   H12G12709   4.625   1.610   7.237  0.6507  2.6004  1.4879
  120OSM   C13F12710   4.532   1.773   7.346  0.0094  0.2340  0.5987
  120OSM   H13F12711   4.435   1.827   7.351  0.5788  1.2810  0.5289
  120OSM   H13G12712   4.609   1.845   7.313  1.3226 -1.1163  0.5852
  120OSM   C14F12713   4.563   1.725   7.489 -0.7956  0.2980 -0.2521
  120OSM   H14F12714   4.664   1.679   7.497 -1.2485 -0.5154  1.3065
  120OSM   H14G12715   4.503   1.636   7.518  2.7852 -2.1609  0.1671
  120OSM   C15F12716   4.541   1.828   7.600 -0.2257  0.2162 -0.0294
  120OSM   H15F12717   4.536   1.770   7.695 -0.0597  1.4559  0.7616
  120OSM   H15G12718   4.440   1.871   7.585 -0.0124  0.4497 -0.8129
  120OSM   C16F12719   4.652   1.930   7.618  0.0912  0.1628 -0.0182
  120OSM   H16F12720   4.693   1.959   7.519  0.2616  0.2001  0.0628
  120OSM   H16G12721   4.741   1.901   7.678  0.2419  1.1615  0.2463
  120OSM   C17F12722   4.606   2.061   7.688 -0.5044  0.1431 -0.1058
  120OSM   H17F12723   4.544   2.034   7.777  1.1447  2.1554  1.7506
  120OSM   H17G12724   4.549   2.120   7.613 -0.6274 -1.6179 -1.4685
  120OSM   C18F12725   4.726   2.152   7.743 -0.4942  0.0300  0.1419
  120OSM   H18F12726   4.803   2.161   7.663  0.3554 -4.1884  0.2694
  120OSM   H18G12727   4.774   2.094   7.825 -1.4434 -0.8647  0.0765
  120OSM   H18H12728   4.700   2.249   7.791  1.9333  0.1880  1.2569
  121OSM      N12729   5.792   3.620   5.283 -0.0478  0.0842  0.5638
  121OSM    C1512730   5.765   3.494   5.198  0.0632  0.5474  0.1717
  121OSM   H15A12731   5.700   3.522   5.116 -2.8888 -0.3171  2.0670
  121OSM   H15B12732   5.706   3.422   5.253  2.3760 -2.2309 -0.7335
  121OSM   H15C12733   5.850   3.447   5.149 -1.1890 -0.6991 -0.9156
  121OSM    C1412734   5.884   3.707   5.208  0.1707  0.1125  0.3643
  121OSM   H14A12735   5.836   3.752   5.122 -0.2057 -0.6634  0.1642
  121OSM   H14B12736   5.967   3.646   5.173 -1.2989 -2.5361  1.1974
  121OSM   H14C12737   5.917   3.783   5.277 -1.5120 -0.7686  2.2296
  121OSM    C1312738   5.656   3.682   5.302 -0.5273 -0.5853  0.6950
  121OSM   H13A12739   5.613   3.722   5.211 -0.8005 -0.0924  1.0380
  121OSM   H13B12740   5.664   3.757   5.379 -0.1586 -0.4987  0.5730
  121OSM   H13C12741   5.587   3.607   5.338 -1.6170 -0.2758 -0.6392
  121OSM    C1212742   5.849   3.570   5.414 -0.0888  0.0515 -0.1544
  121OSM   H12A12743   5.953   3.547   5.398 -0.2249  0.3670 -1.6875
  121OSM   H12B12744   5.810   3.473   5.442  2.4201 -0.3387  2.4291
  121OSM    C1112745   5.850   3.663   5.538 -0.2500  0.0251 -0.2390
  121OSM   H11A12746   5.906   3.612   5.619 -0.8220  0.2564  0.3063
  121OSM   H11B12747   5.753   3.709   5.564 -0.2871  0.7741 -1.5882
  121OSM      P12748   5.960   3.884   5.598 -0.1498 -0.3234 -0.0709
  121OSM    O1312749   6.110   3.890   5.610 -0.6327  0.4228 -0.0041
  121OSM    O1412750   5.888   4.004   5.546 -0.6184  0.4460 -0.1096
  121OSM    O1112751   5.898   3.845   5.736  0.0702  0.3732 -0.2545
  121OSM    O1212752   5.928   3.766   5.502  0.4161 -0.5332  0.0274
  121OSM    C1S12753   5.942   3.931   5.845 -1.0722 -0.3189  0.8088
  121OSM    H1S12754   5.880   4.023   5.841 -0.7095  0.0132  2.2671
  121OSM    H1T12755   6.049   3.957   5.836 -0.7308 -1.7675  0.2649
  121OSM     NF12756   5.936   3.973   6.094  0.3654  0.5036  0.1683
  121OSM    HNF12757   6.018   3.979   6.151 -0.4677  1.8103  1.2856
  121OSM    C2S12758   5.923   3.872   5.990  0.5398 -0.2708  0.1399
  121OSM    H2S12759   5.821   3.828   5.992  0.4773 -0.1220  0.1964
  121OSM    C3S12760   6.026   3.746   6.003  0.2158 -0.1947 -0.2152
  121OSM    H3S12761   6.129   3.787   6.010 -0.2112  0.6774  1.4527
  121OSM     O312762   6.007   3.658   5.896  0.3741  0.6796  0.6136
  121OSM    HO312763   5.951   3.708   5.836  0.0461 -1.2867 -0.7790
  121OSM    C4S12764   6.002   3.676   6.136  0.2501 -0.0971  0.2404
  121OSM    H4S12765   6.054   3.723   6.221 -0.6998  0.5245  0.4878
  121OSM    C5S12766   5.930   3.561   6.150 -0.2022 -0.1434  0.5678
  121OSM    H5S12767   5.887   3.515   6.060  0.4507  0.2153  0.0605
  121OSM    C6S12768   5.892   3.498   6.283 -0.3283  0.3270 -0.5670
  121OSM    H6S12769   5.970   3.422   6.304 -1.1500 -0.8118 -1.5224
  121OSM    H6T12770   5.793   3.449   6.281 -0.7212  0.9082  1.8844
  121OSM    C7S12771   5.884   3.597   6.400 -0.5717 -0.2002 -0.0785
  121OSM    H7S12772   5.812   3.677   6.374 -0.6252 -0.2487 -0.0808
  121OSM    H7T12773   5.983   3.641   6.424 -0.9577  0.8963 -0.4412
  121OSM    C8S12774   5.840   3.523   6.537 -0.1598 -0.8331 -0.1643
  121OSM    H8S12775   5.896   3.428   6.554 -1.1902 -1.0305  2.6042
  121OSM    H8T12776   5.737   3.484   6.521 -0.0429 -1.5351  0.6954
  121OSM    C9S12777   5.862   3.614   6.662 -0.1910 -0.1039  0.0200
  121OSM    H9S12778   5.806   3.578   6.750 -1.6689  1.8268 -0.0626
  121OSM    H9T12779   5.827   3.717   6.638 -3.2181  0.1149  4.2140
  121OSM   C10S12780   6.004   3.623   6.720  0.1056 -0.9360  0.5355
  121OSM   H10S12781   6.071   3.652   6.636 -0.4564  1.4358  0.8302
  121OSM   H10T12782   6.030   3.523   6.759  0.1031 -0.8136  0.8499
  121OSM   C11S12783   6.025   3.737   6.818  0.1150  0.1592 -0.0314
  121OSM   H11S12784   5.998   3.832   6.768 -0.4858  0.4511  0.8215
  121OSM   H11T12785   6.134   3.737   6.840  0.2178  1.3408 -0.5184
  121OSM   C12S12786   5.944   3.719   6.946 -0.2720 -0.7303 -0.0949
  121OSM   H12S12787   5.948   3.612   6.977 -0.4188 -0.8812 -0.5882
  121OSM   H12T12788   5.839   3.753   6.932  0.0295  0.0992 -0.4069
  121OSM   C13S12789   5.982   3.812   7.065 -0.3891  0.0565  0.7553
  121OSM   H13S12790   5.974   3.921   7.048  2.2398  0.5249  1.9408
  121OSM   H13T12791   6.091   3.795   7.085 -0.6447 -2.0602  0.5812
  121OSM   C14S12792   5.905   3.781   7.190 -0.1316 -0.1621 -0.1707
  121OSM   H14S12793   5.900   3.671   7.205 -4.3853  0.3341  5.3613
  121OSM   H14T12794   5.800   3.817   7.188 -0.7288 -1.8422 -1.3035
  121OSM   C15S12795   5.974   3.836   7.316 -0.0811  0.8593  0.3601
  121OSM   H15S12796   5.974   3.946   7.301  0.0338  0.8935  0.6012
  121OSM   H15T12797   6.077   3.795   7.327 -1.7534 -3.1603  4.2869
  121OSM   C16S12798   5.885   3.817   7.442 -0.6314 -0.5104 -0.2771
  121OSM   H16S12799   5.869   3.708   7.460 -0.0817 -0.4447  0.6683
  121OSM   H16T12800   5.785   3.864   7.432 -0.6068  0.5004  3.0980
  121OSM   C17S12801   5.939   3.874   7.570  0.4582  0.6869  0.2900
  121OSM   H17S12802   5.953   3.984   7.577  0.0863  0.7849 -0.3912
  121OSM   H17T12803   6.036   3.820   7.572 -1.4813 -3.1170  0.5481
  121OSM   C18S12804   5.870   3.831   7.697  0.6428 -0.3824 -0.7230
  121OSM   H18S12805   5.867   3.720   7.707 -3.9252 -0.4340 -0.3879
  121OSM   H18T12806   5.773   3.882   7.718  0.8659 -0.5047  0.6863
  121OSM   H18U12807   5.929   3.869   7.783 -0.0328  1.7732 -1.1562
  121OSM    C1F12808   5.825   4.042   6.134 -0.7443 -0.1666  0.2985
  121OSM     OF12809   5.726   4.040   6.064 -0.2217  0.2777  0.0898
  121OSM    C2F12810   5.844   4.123   6.249 -0.4853 -0.6177 -0.8342
  121OSM    H2F12811   5.798   4.223   6.230 -0.8226 -0.7355 -0.6267
  121OSM    H2G12812   5.954   4.132   6.263 -0.6271 -0.6333  0.3706
  121OSM    C3F12813   5.778   4.062   6.366  0.5145 -0.3050  0.5477
  121OSM    H3F12814   5.804   3.954   6.376 -0.2897 -0.4783  0.8675
  121OSM    H3G12815   5.667   4.060   6.368  0.2809  4.2135  1.4117
  121OSM    C4F12816   5.808   4.128   6.499  0.3444  0.5205  0.1933
  121OSM    H4F12817   5.770   4.231   6.486  0.4405  0.3591 -1.4806
  121OSM    H4G12818   5.916   4.145   6.520  0.9528 -0.2494 -2.0889
  121OSM    C5F12819   5.748   4.063   6.627 -0.3936 -0.1340  0.2842
  121OSM    H5F12820   5.774   3.956   6.638 -0.9236 -0.2155  0.7890
  121OSM    H5G12821   5.637   4.070   6.630 -0.6277 -2.3722 -1.1389
  121OSM    C6F12822   5.785   4.129   6.755  0.1956 -0.3030 -0.1000
  121OSM    H6F12823   5.766   4.238   6.751  1.5294 -0.1022 -3.3467
  121OSM    H6G12824   5.895   4.116   6.759  0.0943 -2.1339 -1.7549
  121OSM    C7F12825   5.719   4.081   6.886 -0.4730 -0.9728 -0.4513
  121OSM    H7F12826   5.751   3.975   6.894  0.9583 -0.4562  1.6755
  121OSM    H7G12827   5.608   4.079   6.885 -0.5031 -1.9764  1.3339
  121OSM    C8F12828   5.766   4.164   7.011 -0.3427  0.8612  0.4913
  121OSM    H8F12829   5.728   4.268   7.008 -0.0247  1.0887  2.5795
  121OSM    H8G12830   5.876   4.157   7.022 -0.2190  2.1141  0.1077
  121OSM    C9F12831   5.702   4.104   7.135 -0.3418  0.2386 -0.6215
  121OSM    H9F12832   5.628   4.027   7.110 -0.9562  0.1971  1.1694
  121OSM   C10F12833   5.728   4.144   7.266 -0.3428  0.3041 -0.0007
  121OSM   H10F12834   5.680   4.085   7.345  0.0964  0.0918  0.1144
  121OSM   C11F12835   5.837   4.236   7.323  0.3948  0.2642  0.4839
  121OSM   H11F12836   5.861   4.189   7.421  0.0201 -0.5478  0.1919
  121OSM   H11G12837   5.792   4.335   7.346 -1.9376 -0.2092 -1.6032
  121OSM   C12F12838   5.971   4.264   7.248  0.1512  0.7860 -0.0892
  121OSM   H12F12839   5.947   4.295   7.144 -0.2128 -0.2506 -0.3272
  121OSM   H12G12840   6.027   4.169   7.238 -1.6701 -0.4847  1.1085
  121OSM   C13F12841   6.064   4.359   7.319 -0.6511 -0.2079 -0.2316
  121OSM   H13F12842   6.028   4.464   7.321 -1.0115 -0.3270  1.9768
  121OSM   H13G12843   6.154   4.350   7.255 -0.0733 -0.6079  0.6079
  121OSM   C14F12844   6.115   4.311   7.460  1.2570 -0.2537  0.1400
  121OSM   H14F12845   6.217   4.354   7.475  0.5071  1.7634 -0.2784
  121OSM   H14G12846   6.125   4.201   7.450  3.3493  0.0508 -1.9473
  121OSM   C15F12847   6.028   4.357   7.576 -0.7690  0.2121 -0.1775
  121OSM   H15F12848   5.923   4.339   7.546 -0.5987 -0.4083 -0.4227
  121OSM   H15G12849   6.039   4.465   7.596  1.9238  0.0023 -0.1281
  121OSM   C16F12850   6.059   4.290   7.711 -0.3202 -0.4382  0.1851
  121OSM   H16F12851   6.145   4.347   7.753 -2.1479  1.8156  1.0274
  121OSM   H16G12852   6.081   4.181   7.700  0.9663 -0.2252  0.4232
  121OSM   C17F12853   5.948   4.312   7.817  0.9389  0.8042 -0.4823
  121OSM   H17F12854   5.902   4.413   7.812  0.1826  0.4716 -0.3113
  121OSM   H17G12855   5.989   4.302   7.919 -1.6702  0.2762  0.5889
  121OSM   C18F12856   5.829   4.206   7.800 -0.2051 -0.1464  0.2822
  121OSM   H18F12857   5.858   4.102   7.826 -0.8850 -0.3027  0.4374
  121OSM   H18G12858   5.790   4.220   7.697 -1.3373 -2.0708  0.4101
  121OSM   H18H12859   5.747   4.229   7.872 -1.9799 -0.5829 -1.5238
  122OSM      N12860   2.767   5.395   5.696 -0.2444 -0.4751  0.2494
  122OSM    C1512861   2.843   5.274   5.638  0.1939  0.5581  0.1449
  122OSM   H15A12862   2.931   5.257   5.699 -1.0085 -0.6156  1.6470
  122OSM   H15B12863   2.873   5.303   5.539  1.7067  2.5359  1.1032
  122OSM   H15C12864   2.788   5.182   5.629  1.8896 -0.3274 -2.2935
  122OSM    C1412865   2.658   5.428   5.602 -0.3917 -0.5258  1.0242
  122OSM   H14A12866   2.691   5.474   5.511 -0.9704 -0.0678  1.0375
  122OSM   H14B12867   2.586   5.500   5.639 -0.1171  0.7576 -0.8174
  122OSM   H14C12868   2.598   5.342   5.575 -3.1151  1.8616 -1.3567
  122OSM    C1312869   2.723   5.349   5.825 -0.3537 -0.2220  0.2072
  122OSM   H13A12870   2.801   5.301   5.883  1.9988  0.4347 -2.2254
  122OSM   H13B12871   2.656   5.266   5.806  0.5617 -0.7173 -0.9677
  122OSM   H13C12872   2.682   5.430   5.884  2.4631  0.2220  1.7426
  122OSM    C1212873   2.870   5.509   5.707  0.2642 -0.1330  0.1807
  122OSM   H12A12874   2.895   5.553   5.612  1.6596 -0.0664  0.5434
  122OSM   H12B12875   2.963   5.466   5.742  0.9068 -0.4109 -1.7839
  122OSM    C1112876   2.824   5.633   5.794  0.2897  0.1494  0.8345
  122OSM   H11A12877   2.916   5.687   5.825  1.0329  0.0359 -1.0679
  122OSM   H11B12878   2.777   5.599   5.889  1.8058 -0.8077  1.2816
  122OSM      P12879   2.788   5.837   5.654  0.0404  0.1235 -0.0427
  122OSM    O1312880   2.910   5.797   5.584 -0.4362 -0.0058  1.0709
  122OSM    O1412881   2.672   5.888   5.575  0.6128  0.1177  0.8143
  122OSM    O1112882   2.817   5.946   5.766 -0.1066 -0.4800 -0.7258
  122OSM    O1212883   2.733   5.716   5.723  0.4803  0.5665  0.3002
  122OSM    C1S12884   2.712   5.991   5.853  1.0315 -0.2297  0.4147
  122OSM    H1S12885   2.655   5.899   5.877 -0.7343  0.4018 -1.1158
  122OSM    H1T12886   2.636   6.055   5.804  0.7098 -1.0471 -0.1687
  122OSM     NF12887   2.654   6.107   6.065 -0.1947  0.1674  0.0640
  122OSM    HNF12888   2.630   6.203   6.063 -0.5438  0.1260  1.3493
  122OSM    C2S12889   2.767   6.055   5.986 -0.0764 -0.8517  0.4021
  122OSM    H2S12890   2.809   5.976   6.053 -1.9589 -1.4272  0.9608
  122OSM    C3S12891   2.878   6.152   5.953  0.2289 -0.6069 -0.6239
  122OSM    H3S12892   2.837   6.238   5.896 -0.8382  1.0794  2.4245
  122OSM     O312893   2.985   6.096   5.882  0.4983  0.9130  0.0121
  122OSM    HO312894   2.943   6.026   5.833 -0.4638  2.6317 -1.7803
  122OSM    C4S12895   2.920   6.207   6.091  0.5614  0.8029  0.1711
  122OSM    H4S12896   2.849   6.285   6.121 -0.7000 -0.6691  1.1487
  122OSM    C5S12897   3.008   6.158   6.179 -0.8547  0.6353  0.0101
  122OSM    H5S12898   3.068   6.072   6.143 -0.7637  1.1096 -1.0059
  122OSM    C6S12899   3.035   6.216   6.314  0.5325 -0.4866  0.1774
  122OSM    H6S12900   3.114   6.294   6.315 -1.7780  2.0020 -0.3602
  122OSM    H6T12901   3.050   6.125   6.376 -1.2308 -1.5703 -0.8977
  122OSM    C7S12902   2.919   6.285   6.386 -1.1669  0.7596  0.3664
  122OSM    H7S12903   2.832   6.219   6.368 -1.4131  1.7187 -2.6929
  122OSM    H7T12904   2.887   6.382   6.341 -1.3279  2.0286  3.0394
  122OSM    C8S12905   2.934   6.298   6.537 -0.4374 -0.2071  0.2068
  122OSM    H8S12906   2.854   6.361   6.581 -0.7795  0.6327 -1.5136
  122OSM    H8T12907   3.031   6.351   6.547 -0.7866  0.4069  0.3578
  122OSM    C9S12908   2.935   6.165   6.603  0.6841 -0.4795 -0.3571
  122OSM    H9S12909   3.037   6.119   6.599  0.6741 -0.9484  2.5681
  122OSM    H9T12910   2.853   6.100   6.566 -0.1065  0.3910 -0.1478
  122OSM   C10S12911   2.913   6.176   6.756  0.3724  0.8206 -0.7174
  122OSM   H10S12912   2.810   6.206   6.786  0.8897  1.6410  0.2902
  122OSM   H10T12913   2.987   6.248   6.798 -1.0283  1.8465  0.0667
  122OSM   C11S12914   2.948   6.043   6.825  0.5981 -0.1189  0.5711
  122OSM   H11S12915   3.035   5.999   6.772  0.5161  1.1975 -0.7321
  122OSM   H11T12916   2.859   5.977   6.826  0.4322  0.1034  2.1184
  122OSM   C12S12917   2.968   6.068   6.968  0.1524  0.9873 -0.1239
  122OSM   H12S12918   2.899   6.143   7.012  2.7587  2.0199  2.5986
  122OSM   H12T12919   3.069   6.114   6.980  0.4372  0.4332 -0.3739
  122OSM   C13S12920   2.965   5.934   7.050 -0.4396 -0.2028  0.1377
  122OSM   H13S12921   3.033   5.858   7.006 -2.1066 -0.7850 -1.5804
  122OSM   H13T12922   2.859   5.903   7.036 -1.1818  1.0191  2.5120
  122OSM   C14S12923   2.994   5.962   7.194  0.5165  0.2669  0.5427
  122OSM   H14S12924   2.917   6.035   7.226  0.3874  0.8201 -0.9594
  122OSM   H14T12925   3.095   6.008   7.195 -0.1394  1.8244 -0.6782
  122OSM   C15S12926   2.977   5.841   7.288  0.6937 -0.3246  0.0246
  122OSM   H15S12927   3.041   5.754   7.261  1.3428  0.2055 -0.1662
  122OSM   H15T12928   2.868   5.824   7.288  0.7469 -0.6661  0.0808
  122OSM   C16S12929   3.012   5.888   7.431  0.6131 -0.5284 -0.1939
  122OSM   H16S12930   2.939   5.961   7.472  0.4562 -0.6288 -0.2946
  122OSM   H16T12931   3.107   5.945   7.442 -0.0109  0.3594  0.8340
  122OSM   C17S12932   3.013   5.769   7.529  0.3225  0.6126  0.0940
  122OSM   H17S12933   3.081   5.689   7.490  0.3091  1.7046 -2.3515
  122OSM   H17T12934   2.917   5.713   7.522  0.3850  0.4837  0.2489
  122OSM   C18S12935   3.043   5.810   7.673  0.4740 -0.0542  0.8317
  122OSM   H18S12936   3.037   5.727   7.747  0.7760 -1.1584 -0.3408
  122OSM   H18T12937   2.968   5.885   7.707  0.3769 -0.4131  1.4265
  122OSM   H18U12938   3.147   5.847   7.679  1.3534 -2.1439 -0.6258
  122OSM    C1F12939   2.570   6.022   6.133  0.0715 -0.4444 -0.2841
  122OSM     OF12940   2.590   5.905   6.146  0.7896 -0.1232 -0.4989
  122OSM    C2F12941   2.457   6.094   6.203 -0.2466  0.7056 -0.5719
  122OSM    H2F12942   2.364   6.093   6.143 -1.0444  2.1423  0.5655
  122OSM    H2G12943   2.480   6.203   6.211 -3.7360  1.4446  1.7919
  122OSM    C3F12944   2.420   6.044   6.343 -0.3321 -0.8301  0.2514
  122OSM    H3F12945   2.343   6.114   6.380  1.0464  0.8301  0.1026
  122OSM    H3G12946   2.512   6.046   6.405  0.8227 -0.8820 -1.3899
  122OSM    C4F12947   2.367   5.894   6.351  0.0894 -0.2704 -0.8595
  122OSM    H4F12948   2.443   5.816   6.333 -0.3383 -0.8450 -0.2009
  122OSM    H4G12949   2.286   5.877   6.277 -2.0969 -0.6761  1.5044
  122OSM    C5F12950   2.289   5.870   6.479 -0.6081 -0.4314 -0.0109
  122OSM    H5F12951   2.257   5.764   6.487 -1.1173 -0.2040  1.1490
  122OSM    H5G12952   2.200   5.936   6.478  1.3093  2.3155 -0.5079
  122OSM    C6F12953   2.380   5.901   6.605  1.1265 -0.3689  0.4403
  122OSM    H6F12954   2.384   6.012   6.609 -0.5967 -0.1713 -1.5362
  122OSM    H6G12955   2.482   5.861   6.588  1.1032 -0.7580  1.1715
  122OSM    C7F12956   2.315   5.847   6.734 -0.5649 -0.7714  0.3208
  122OSM    H7F12957   2.311   5.738   6.754 -3.6790 -0.5853  1.2655
  122OSM    H7G12958   2.214   5.888   6.713  0.0952  1.5074  1.1904
  122OSM    C8F12959   2.367   5.914   6.859 -1.0397 -0.4869 -0.6082
  122OSM    H8F12960   2.292   5.885   6.935 -1.6729  0.1669 -0.9698
  122OSM    H8G12961   2.358   6.024   6.848 -0.6309 -0.6099 -2.4984
  122OSM    C9F12962   2.509   5.868   6.905  1.2325  1.2737  0.0292
  122OSM    H9F12963   2.589   5.876   6.830 -0.0479 -0.3767 -1.6184
  122OSM   C10F12964   2.530   5.789   7.015  0.0219  0.1401 -0.4958
  122OSM   H10F12965   2.634   5.755   7.030 -0.3304 -1.2449 -1.0696
  122OSM   C11F12966   2.443   5.742   7.120  0.1480  0.1415 -0.3378
  122OSM   H11F12967   2.385   5.654   7.088 -2.0832  1.3482  0.1490
  122OSM   H11G12968   2.367   5.820   7.143 -1.0357 -0.3466 -2.4159
  122OSM   C12F12969   2.524   5.706   7.247 -0.0459  0.5233  0.5215
  122OSM   H12F12970   2.568   5.803   7.281  2.2065 -0.2018 -0.1033
  122OSM   H12G12971   2.604   5.633   7.222  0.0350  0.3508  1.2723
  122OSM   C13F12972   2.434   5.653   7.357  0.0699  0.5349 -0.0817
  122OSM   H13F12973   2.366   5.574   7.318 -1.5419  0.5489  2.4295
  122OSM   H13G12974   2.379   5.746   7.386 -0.2350  1.1466 -2.3869
  122OSM   C14F12975   2.510   5.580   7.471  0.2006  0.2827 -0.3019
  122OSM   H14F12976   2.576   5.496   7.440 -1.2496 -1.6964  1.6651
  122OSM   H14G12977   2.431   5.536   7.536 -0.0191 -0.2073 -0.8861
  122OSM   C15F12978   2.602   5.681   7.547  0.7558  0.1815 -0.0828
  122OSM   H15F12979   2.536   5.769   7.560  0.1690 -0.1213 -0.9444
  122OSM   H15G12980   2.690   5.711   7.486 -0.4359  0.1834 -1.8528
  122OSM   C16F12981   2.644   5.624   7.680 -0.7659  0.2288  0.0126
  122OSM   H16F12982   2.717   5.541   7.675 -1.4852 -0.5883  2.0978
  122OSM   H16G12983   2.563   5.563   7.725  2.7449 -3.1667  2.3098
  122OSM   C17F12984   2.684   5.731   7.788  0.4655  0.5557 -0.3367
  122OSM   H17F12985   2.592   5.790   7.811  0.8380  0.5863  1.2038
  122OSM   H17G12986   2.757   5.802   7.743  0.2349  0.5836 -0.6709
  122OSM   C18F12987   2.735   5.669   7.922 -0.0376  0.0155  0.0650
  122OSM   H18F12988   2.721   5.748   7.999  1.7260 -2.2093  2.8601
  122OSM   H18G12989   2.840   5.634   7.913 -0.3911 -0.6771 -2.0789
  122OSM   H18H12990   2.680   5.578   7.954  0.4940 -0.2696  0.1797
  123OSM      N12991   1.942   1.727   5.455 -0.3390  0.2140  0.5162
  123OSM    C1512992   1.834   1.634   5.422  0.6374  0.1520  0.2301
  123OSM   H15A12993   1.880   1.548   5.375  0.2381 -0.0301  0.1688
  123OSM   H15B12994   1.762   1.674   5.353  0.9740 -0.2106 -0.3334
  123OSM   H15C12995   1.781   1.592   5.507  0.6489  0.7428  0.5387
  123OSM    C1412996   1.990   1.780   5.326  0.3924  0.4524 -0.0112
  123OSM   H14A12997   2.038   1.876   5.338  2.4783 -0.6713  1.2550
  123OSM   H14B12998   1.904   1.797   5.263  0.6376  0.5521 -0.3196
  123OSM   H14C12999   2.063   1.719   5.276  1.3134  0.6905  0.9982
  123OSM    C1313000   1.882   1.846   5.535  0.2255 -0.0781  0.2672
  123OSM   H13A13001   1.821   1.805   5.614 -1.3131  2.3476  0.4397
  123OSM   H13B13002   1.805   1.901   5.483 -0.4219 -0.1080  1.1790
  123OSM   H13C13003   1.947   1.912   5.590 -1.5023  1.1889  0.8790
  123OSM    C1213004   2.042   1.662   5.552 -0.0403 -0.6544  0.7852
  123OSM   H12A13005   1.989   1.609   5.630  0.4657 -2.8377 -0.2846
  123OSM   H12B13006   2.105   1.735   5.601  1.6957 -1.4421 -0.1792
  123OSM    C1113007   2.141   1.559   5.483 -0.0242  0.0832  0.0761
  123OSM   H11A13008   2.079   1.497   5.415 -0.4830  0.1677  0.4143
  123OSM   H11B13009   2.183   1.497   5.565  1.0599  0.2089 -0.3679
  123OSM      P13010   2.384   1.652   5.461  0.3869  0.0410 -0.1301
  123OSM    O1313011   2.493   1.624   5.363 -0.4344  0.2787 -0.3858
  123OSM    O1413012   2.368   1.796   5.500  0.1166 -0.3896  0.2331
  123OSM    O1113013   2.417   1.557   5.588  0.1154  0.3847 -0.3160
  123OSM    O1213014   2.246   1.609   5.400  0.1455  0.5489 -0.6086
  123OSM    C1S13015   2.536   1.593   5.675 -0.5903  0.2838 -0.2300
  123OSM    H1S13016   2.577   1.690   5.638 -0.5381  0.5826  0.5980
  123OSM    H1T13017   2.611   1.512   5.660 -1.9346 -0.8044 -1.3524
  123OSM     NF13018   2.607   1.643   5.906 -0.3112  0.6323 -0.5824
  123OSM    HNF13019   2.662   1.567   5.941 -2.0467 -1.4199 -1.9965
  123OSM    C2S13020   2.494   1.602   5.824 -0.1052  0.0288  0.5965
  123OSM    H2S13021   2.421   1.684   5.840  0.4431  0.7322 -0.4339
  123OSM    C3S13022   2.415   1.477   5.884 -0.3029  0.5935  0.2976
  123OSM    H3S13023   2.487   1.394   5.898  1.1239  1.9196  1.0760
  123OSM     O313024   2.317   1.415   5.802  0.4732 -0.1709 -0.2864
  123OSM    HO313025   2.334   1.447   5.713  4.0541  0.1857  0.3885
  123OSM    C4S13026   2.360   1.513   6.019 -0.1489 -0.5208  0.0197
  123OSM    H4S13027   2.274   1.581   6.008 -0.2906 -0.4550  1.3335
  123OSM    C5S13028   2.394   1.485   6.142  0.6565  0.1841  0.0042
  123OSM    H5S13029   2.467   1.402   6.141 -0.2960 -0.7848 -3.4383
  123OSM    C6S13030   2.321   1.534   6.266  0.2766 -0.0249  0.7241
  123OSM    H6S13031   2.257   1.451   6.304 -0.8048 -1.3089 -3.4456
  123OSM    H6T13032   2.261   1.625   6.246  2.1699  0.8056 -1.6576
  123OSM    C7S13033   2.408   1.560   6.388 -1.5094  0.4335 -0.4806
  123OSM    H7S13034   2.465   1.641   6.338  0.1498 -1.3640 -1.6333
  123OSM    H7T13035   2.484   1.480   6.401 -1.1787  0.8619  0.3418
  123OSM    C8S13036   2.338   1.587   6.518  0.2809 -0.3133  0.2048
  123OSM    H8S13037   2.410   1.596   6.602  0.5699 -2.4518  0.2411
  123OSM    H8T13038   2.272   1.500   6.539 -1.6168  0.9389 -0.3323
  123OSM    C9S13039   2.254   1.722   6.521 -0.4782  0.0559 -0.3023
  123OSM    H9S13040   2.181   1.713   6.604  0.0202 -0.8255  0.0588
  123OSM    H9T13041   2.196   1.731   6.426  0.6193 -0.3584 -1.0392
  123OSM   C10S13042   2.347   1.852   6.537  0.7306 -0.2489 -0.1559
  123OSM   H10S13043   2.288   1.946   6.524 -0.1258 -0.4752  1.8228
  123OSM   H10T13044   2.429   1.859   6.462  1.3084  0.8017  0.5480
  123OSM   C11S13045   2.405   1.858   6.674 -0.4583 -0.5824  0.3806
  123OSM   H11S13046   2.467   1.950   6.680 -0.1477 -0.7781  0.1915
  123OSM   H11T13047   2.478   1.779   6.699 -0.1237  0.2086  2.0035
  123OSM   C12S13048   2.301   1.868   6.791  0.1482 -0.3013 -0.6232
  123OSM   H12S13049   2.266   1.765   6.815 -3.2713  0.5792 -1.1971
  123OSM   H12T13050   2.206   1.920   6.763 -1.7446 -3.1194  0.1003
  123OSM   C13S13051   2.355   1.926   6.919 -0.3950  0.1635  0.0561
  123OSM   H13S13052   2.388   2.030   6.898  0.9220 -0.6823 -2.4699
  123OSM   H13T13053   2.439   1.870   6.965  0.1004  0.4054 -0.5494
  123OSM   C14S13054   2.244   1.922   7.025  0.2684  0.1760  0.2998
  123OSM   H14S13055   2.243   1.818   7.063 -0.5425  0.1457  0.2076
  123OSM   H14T13056   2.149   1.949   6.974 -0.3601  0.0778  1.3832
  123OSM   C15S13057   2.285   2.019   7.131  0.0234  0.2020  0.4770
  123OSM   H15S13058   2.305   2.118   7.087 -2.8545  0.2970 -0.8400
  123OSM   H15T13059   2.382   1.985   7.173  0.3017 -1.1175 -1.1356
  123OSM   C16S13060   2.170   2.036   7.235  0.2711  0.1422 -0.1636
  123OSM   H16S13061   2.152   1.940   7.288  0.5881  1.0655  1.7289
  123OSM   H16T13062   2.080   2.075   7.183 -0.1766  1.0771  1.2363
  123OSM   C17S13063   2.215   2.143   7.339  0.5303  0.5775  0.3219
  123OSM   H17S13064   2.200   2.240   7.289 -2.3067 -1.1436 -2.5346
  123OSM   H17T13065   2.321   2.129   7.369  0.3779  1.4970  1.3322
  123OSM   C18S13066   2.137   2.145   7.467 -0.0357 -0.3475 -0.3739
  123OSM   H18S13067   2.184   2.224   7.529  0.5318 -0.6463 -0.4245
  123OSM   H18T13068   2.142   2.046   7.518 -3.1137  0.3802  1.6026
  123OSM   H18U13069   2.032   2.175   7.443 -1.0417 -1.1065  2.6027
  123OSM    C1F13070   2.658   1.768   5.901 -0.3498  0.0604  0.6387
  123OSM     OF13071   2.593   1.859   5.847 -0.0180  1.1391 -0.3896
  123OSM    C2F13072   2.797   1.791   5.958  0.4060 -0.5908 -0.1979
  123OSM    H2F13073   2.867   1.821   5.877  0.4855 -1.2137 -0.3646
  123OSM    H2G13074   2.837   1.707   6.019 -0.2744 -0.4625  0.4404
  123OSM    C3F13075   2.803   1.913   6.048  0.3454 -0.3457 -0.4136
  123OSM    H3F13076   2.775   2.009   5.999  0.7099  0.0507  0.1473
  123OSM    H3G13077   2.907   1.939   6.075  0.6501 -1.3035 -0.6202
  123OSM    C4F13078   2.715   1.897   6.179  0.6176  1.2230 -0.4153
  123OSM    H4F13079   2.736   1.810   6.244  0.3383  0.5008 -1.2654
  123OSM    H4G13080   2.610   1.885   6.144  0.5507  4.6810 -1.8008
  123OSM    C5F13081   2.740   2.016   6.272 -0.1760  0.5831 -0.2375
  123OSM    H5F13082   2.728   2.110   6.214 -0.8138  0.2249 -0.7005
  123OSM    H5G13083   2.840   2.018   6.320  0.1522 -0.4489 -0.8491
  123OSM    C6F13084   2.634   2.024   6.383  0.4777  0.6173  0.2672
  123OSM    H6F13085   2.659   1.948   6.460 -0.9574  0.2986  0.4561
  123OSM    H6G13086   2.539   1.993   6.335 -1.1121  3.2391  1.4507
  123OSM    C7F13087   2.611   2.165   6.435 -0.3829 -0.0336 -1.0862
  123OSM    H7F13088   2.532   2.154   6.513 -0.8978 -1.2300 -1.7486
  123OSM    H7G13089   2.556   2.221   6.356 -3.0429 -2.6904 -1.2959
  123OSM    C8F13090   2.733   2.240   6.481  0.4988  0.3642  0.8129
  123OSM    H8F13091   2.792   2.260   6.389 -0.4862 -0.4309 -0.0156
  123OSM    H8G13092   2.790   2.178   6.553 -1.1341  0.0248  1.8639
  123OSM    C9F13093   2.703   2.374   6.544  0.2214  0.3110  0.6915
  123OSM    H9F13094   2.643   2.450   6.493  0.2821  1.3326  2.0905
  123OSM   C10F13095   2.740   2.400   6.671 -0.5786 -0.2334 -0.2443
  123OSM   H10F13096   2.714   2.500   6.708  0.1452  0.1471 -0.7512
  123OSM   C11F13097   2.814   2.314   6.773 -0.2062 -0.2442  0.2429
  123OSM   H11F13098   2.922   2.338   6.761 -0.4854  0.6350 -0.5943
  123OSM   H11G13099   2.804   2.206   6.750  0.8302  0.3090 -3.3828
  123OSM   C12F13100   2.756   2.343   6.919 -0.1128  0.4534 -0.3824
  123OSM   H12F13101   2.651   2.307   6.923  0.4095 -1.0408  0.8147
  123OSM   H12G13102   2.750   2.452   6.940  0.5472  0.4361 -0.0868
  123OSM   C13F13103   2.827   2.272   7.040  0.3894 -0.5223 -0.0295
  123OSM   H13F13104   2.924   2.324   7.056 -0.7864  1.4062  1.4579
  123OSM   H13G13105   2.859   2.169   7.017  5.4340  1.0970 -1.6439
  123OSM   C14F13106   2.742   2.287   7.170 -0.0894  0.3502  0.4479
  123OSM   H14F13107   2.656   2.222   7.144  0.5243 -0.1398 -0.4396
  123OSM   H14G13108   2.717   2.389   7.206  0.5619  0.5280  0.4150
  123OSM   C15F13109   2.816   2.224   7.295  0.5216  0.1158 -0.2057
  123OSM   H15F13110   2.879   2.138   7.263  1.0094 -0.0250  1.0988
  123OSM   H15G13111   2.742   2.186   7.369  0.6462 -1.6690 -0.9339
  123OSM   C16F13112   2.929   2.318   7.355 -0.6154  0.1850  0.0939
  123OSM   H16F13113   2.876   2.410   7.387 -0.2426  0.7519 -0.8677
  123OSM   H16G13114   3.006   2.331   7.275 -0.6900  0.4310  0.0631
  123OSM   C17F13115   3.001   2.266   7.478  0.4813 -0.1246  0.3963
  123OSM   H17F13116   2.936   2.280   7.566  0.9342  1.1051  0.5459
  123OSM   H17G13117   3.088   2.333   7.492  0.6528  0.3550 -2.2824
  123OSM   C18F13118   3.046   2.118   7.479  0.6361 -0.0713 -0.0237
  123OSM   H18F13119   3.101   2.087   7.387  1.4433  0.5644  0.2292
  123OSM   H18G13120   2.959   2.050   7.488  1.0939 -0.4728  1.6930
  123OSM   H18H13121   3.103   2.105   7.574  1.7333  3.0147 -0.1603
  124OSM      N13122   1.133   4.017   5.075  0.1518  0.2389  0.4176
  124OSM    C1513123   1.261   3.951   5.126  0.6370  0.5874 -0.0308
  124OSM   H15A13124   1.246   3.845   5.134 -2.3119  0.8273 -1.0790
  124OSM   H15B13125   1.298   3.987   5.221  0.8237 -1.8075  0.8723
  124OSM   H15C13126   1.341   3.959   5.053 -0.8570  1.1965 -1.6798
  124OSM    C1413127   1.154   4.162   5.074  0.0055  0.1498  0.1525
  124OSM   H14A13128   1.064   4.219   5.057 -1.0480 -2.0115 -2.0999
  124OSM   H14B13129   1.233   4.197   5.009  1.1539 -0.6406  1.0802
  124OSM   H14C13130   1.195   4.195   5.169 -0.6477 -1.6515  1.1071
  124OSM    C1313131   1.102   3.971   4.938  0.4452 -0.4637  0.5423
  124OSM   H13A13132   1.039   4.044   4.890  1.5133  1.3212  1.7578
  124OSM   H13B13133   1.053   3.875   4.926 -2.8518  1.3839 -2.6224
  124OSM   H13C13134   1.199   3.974   4.890  0.2160 -1.7665 -0.0729
  124OSM    C1213135   1.024   3.980   5.167  0.6303 -0.2882 -0.0098
  124OSM   H12A13136   0.989   3.879   5.153 -0.5260  0.0980  0.0262
  124OSM   H12B13137   0.936   4.035   5.140  0.5093 -0.9509 -1.0035
  124OSM    C1113138   1.037   3.999   5.324 -0.2818  0.0828 -0.1693
  124OSM   H11A13139   1.109   3.922   5.361 -2.5745 -2.2438 -0.2482
  124OSM   H11B13140   0.933   3.978   5.356 -1.2559  1.6430 -2.1445
  124OSM      P13141   1.195   4.155   5.464 -0.3546 -0.0391  0.1768
  124OSM    O1313142   1.307   4.064   5.418  0.1233 -0.2096  0.3688
  124OSM    O1413143   1.236   4.294   5.468 -0.2951  0.3687  0.3462
  124OSM    O1113144   1.140   4.111   5.605  0.0202 -0.7251 -0.1528
  124OSM    O1213145   1.066   4.135   5.364  0.1170  0.2614 -0.0799
  124OSM    C1S13146   1.008   4.152   5.639 -0.3359  0.0127 -0.0385
  124OSM    H1S13147   0.930   4.103   5.578 -0.9605 -1.8867  2.1375
  124OSM    H1T13148   1.001   4.263   5.641 -1.7393 -0.0212 -1.3953
  124OSM     NF13149   0.838   4.156   5.815 -0.0407 -1.0880  0.4618
  124OSM    HNF13150   0.812   4.247   5.846 -0.5550 -0.2314 -2.1999
  124OSM    C2S13151   0.968   4.107   5.787 -0.1086  0.0055 -0.2914
  124OSM    H2S13152   0.964   3.996   5.786  0.6435 -0.0616 -2.2417
  124OSM    C3S13153   1.082   4.141   5.886 -0.9987 -0.7085 -0.0069
  124OSM    H3S13154   1.093   4.251   5.883 -1.8287 -0.6126  0.3242
  124OSM     O313155   1.217   4.103   5.840  0.1252  0.5917  0.2892
  124OSM    HO313156   1.202   4.108   5.746 -1.4299  2.1323  0.5459
  124OSM    C4S13157   1.056   4.092   6.021  0.4154 -0.3575  0.8606
  124OSM    H4S13158   1.048   4.174   6.094  0.6926 -1.4753  2.1957
  124OSM    C5S13159   1.049   3.969   6.069  0.3961  0.3076  0.5193
  124OSM    H5S13160   1.063   3.885   5.999  1.9193  0.8180  0.1505
  124OSM    C6S13161   1.017   3.927   6.210 -1.2479  0.0742 -0.1970
  124OSM    H6S13162   1.103   3.869   6.251 -1.2636  0.9271  1.1209
  124OSM    H6T13163   0.932   3.856   6.211 -0.1920 -1.2768 -1.4830
  124OSM    C7S13164   0.988   4.036   6.318  0.4166  0.4674 -1.1262
  124OSM    H7S13165   0.902   4.095   6.279 -1.6530 -2.6546 -1.6110
  124OSM    H7T13166   1.077   4.102   6.324  0.7377  0.0126 -0.8008
  124OSM    C8S13167   0.949   3.993   6.455 -0.1297 -0.5094  0.1830
  124OSM    H8S13168   1.033   3.940   6.505 -0.5795  0.4132  2.0070
  124OSM    H8T13169   0.866   3.919   6.452 -0.5428 -0.0207 -0.5077
  124OSM    C9S13170   0.909   4.112   6.541  0.5107 -0.0390 -0.0237
  124OSM    H9S13171   0.819   4.159   6.496 -0.1965 -2.3845 -1.2310
  124OSM    H9T13172   0.986   4.192   6.544 -0.0635  0.5453 -0.4706
  124OSM   C10S13173   0.870   4.062   6.682  0.2980  0.1105  0.5686
  124OSM   H10S13174   0.946   3.992   6.723 -0.6861 -0.7403  0.9676
  124OSM   H10T13175   0.774   4.009   6.669  0.5086  0.3995 -3.2226
  124OSM   C11S13176   0.850   4.178   6.781 -0.2983 -0.3688 -0.4985
  124OSM   H11S13177   0.777   4.245   6.731 -1.6375 -0.7335  0.8745
  124OSM   H11T13178   0.944   4.230   6.809 -1.6223  0.6349  2.5252
  124OSM   C12S13179   0.788   4.122   6.911 -0.0955  0.2801 -0.0478
  124OSM   H12S13180   0.859   4.044   6.945  0.6534  0.8596 -0.2495
  124OSM   H12T13181   0.686   4.083   6.893  0.0084  0.3418 -0.7919
  124OSM   C13S13182   0.780   4.229   7.029 -0.8729 -0.7711 -1.0716
  124OSM   H13S13183   0.734   4.324   6.994 -0.2702 -0.7054 -1.7016
  124OSM   H13T13184   0.885   4.261   7.049 -1.3397 -0.5582  1.3874
  124OSM   C14S13185   0.731   4.174   7.162  0.8490 -0.2221  0.0111
  124OSM   H14S13186   0.799   4.099   7.208 -0.9371 -2.0646 -0.2390
  124OSM   H14T13187   0.636   4.119   7.150  1.0579 -0.5227 -0.2814
  124OSM   C15S13188   0.701   4.283   7.269  0.4560 -0.5994 -0.2077
  124OSM   H15S13189   0.596   4.318   7.277  0.8611  1.1127 -1.7648
  124OSM   H15T13190   0.770   4.363   7.236 -1.4370  0.4424 -1.8432
  124OSM   C16S13191   0.739   4.233   7.407 -0.1139  0.0933 -0.1857
  124OSM   H16S13192   0.850   4.228   7.413  0.2319  3.7562 -1.0645
  124OSM   H16T13193   0.688   4.138   7.430 -0.8461  0.5155 -0.0298
  124OSM   C17S13194   0.701   4.328   7.525  0.0326 -0.4114 -0.4409
  124OSM   H17S13195   0.592   4.347   7.527 -0.3066 -1.9766 -2.0440
  124OSM   H17T13196   0.757   4.423   7.510 -2.2204  1.2370  0.9478
  124OSM   C18S13197   0.766   4.290   7.664  0.6793  0.0804  0.5372
  124OSM   H18S13198   0.796   4.381   7.719  1.5524 -1.3964  2.6225
  124OSM   H18T13199   0.860   4.230   7.661 -0.9549 -2.6454 -0.3143
  124OSM   H18U13200   0.688   4.230   7.715 -1.1357  2.1897  0.3882
  124OSM    C1F13201   0.736   4.088   5.760 -0.5303 -1.0722 -0.1592
  124OSM     OF13202   0.752   3.986   5.698 -0.0778 -0.0841 -0.3377
  124OSM    C2F13203   0.606   4.157   5.765 -0.4036  0.4210 -0.6180
  124OSM    H2F13204   0.545   4.141   5.674  0.4122 -0.6763 -0.9951
  124OSM    H2G13205   0.611   4.268   5.771 -0.1373  0.5537 -2.6340
  124OSM    C3F13206   0.511   4.100   5.876  0.0017  0.1253  0.1318
  124OSM    H3F13207   0.568   4.084   5.970 -0.6260 -3.2705  0.0710
  124OSM    H3G13208   0.483   3.999   5.840 -0.1360 -0.2919  1.3429
  124OSM    C4F13209   0.376   4.172   5.914 -0.3267  0.1838  0.2845
  124OSM    H4F13210   0.324   4.193   5.818 -1.2504  0.6144  0.8548
  124OSM    H4G13211   0.402   4.268   5.964 -0.4158  0.7495 -0.7445
  124OSM    C5F13212   0.284   4.102   6.012 -0.0015  0.6993  0.3759
  124OSM    H5F13213   0.236   4.009   5.976  1.9929 -1.2355  2.3839
  124OSM    H5G13214   0.194   4.166   6.028 -1.2649 -1.1898  1.1543
  124OSM    C6F13215   0.338   4.079   6.153 -0.2938 -0.1686 -0.1336
  124OSM    H6F13216   0.414   3.997   6.143 -0.4085 -0.4257  1.0202
  124OSM    H6G13217   0.258   4.036   6.216 -0.8859  0.9740 -0.1030
  124OSM    C7F13218   0.411   4.192   6.227  0.4316 -0.1015 -0.6884
  124OSM    H7F13219   0.352   4.286   6.233 -3.7669 -2.4519 -0.5481
  124OSM    H7G13220   0.511   4.204   6.181  2.3005  2.3335  3.4283
  124OSM    C8F13221   0.464   4.148   6.364 -0.3149 -0.2408  0.5229
  124OSM    H8F13222   0.531   4.227   6.404 -2.8283  1.2316  2.1345
  124OSM    H8G13223   0.520   4.058   6.331  1.8034  1.0717  0.3755
  124OSM    C9F13224   0.361   4.124   6.477 -0.6541 -0.3666 -0.3581
  124OSM    H9F13225   0.258   4.106   6.443 -1.6360  0.7535  1.8245
  124OSM   C10F13226   0.385   4.134   6.609  0.0534  0.0409  0.6433
  124OSM   H10F13227   0.317   4.088   6.681  1.7525 -2.4045  0.8240
  124OSM   C11F13228   0.509   4.170   6.680  0.1439  0.0273 -0.5073
  124OSM   H11F13229   0.589   4.188   6.604  0.5865 -2.1511 -0.6317
  124OSM   H11G13230   0.543   4.081   6.738  0.1652  0.2450 -0.1847
  124OSM   C12F13231   0.487   4.297   6.757 -0.0572  0.0604 -0.2198
  124OSM   H12F13232   0.421   4.370   6.704 -1.1330  0.0085  0.9993
  124OSM   H12G13233   0.585   4.345   6.777 -0.4500  0.1778  1.5745
  124OSM   C13F13234   0.418   4.274   6.899  0.1012 -0.2046 -0.4528
  124OSM   H13F13235   0.473   4.195   6.954 -0.7372  1.4987  3.0848
  124OSM   H13G13236   0.312   4.241   6.891  0.1744 -1.5895  2.7643
  124OSM   C14F13237   0.414   4.392   6.994  0.6231  0.1684  0.6843
  124OSM   H14F13238   0.370   4.477   6.938  1.3899  1.3188  1.7592
  124OSM   H14G13239   0.518   4.404   7.032  0.8918 -1.0083  0.3573
  124OSM   C15F13240   0.313   4.353   7.104 -0.1110 -0.1735 -0.3844
  124OSM   H15F13241   0.335   4.247   7.129  2.5236  0.2882 -0.4497
  124OSM   H15G13242   0.211   4.358   7.061  0.4835  1.4381 -1.7213
  124OSM   C16F13243   0.322   4.434   7.226  0.2977  0.4486 -0.3440
  124OSM   H16F13244   0.427   4.446   7.260 -0.3121  1.1939  1.4161
  124OSM   H16G13245   0.276   4.371   7.306  0.6665  0.7532  0.1139
  124OSM   C17F13246   0.236   4.554   7.212 -0.4917  0.1890 -0.5346
  124OSM   H17F13247   0.134   4.534   7.174 -0.6781 -0.1006  0.1027
  124OSM   H17G13248   0.277   4.601   7.120  0.3645 -1.9289 -1.3022
  124OSM   C18F13249   0.222   4.644   7.335 -0.2747 -0.6882 -1.3261
  124OSM   H18F13250   0.197   4.580   7.422  0.1572  0.6834 -0.1640
  124OSM   H18G13251   0.152   4.730   7.329  1.5279  1.1420  1.6891
  124OSM   H18H13252   0.319   4.688   7.367 -0.6854 -1.8046  1.7565
  125OSM      N13253   5.815   1.547   5.114  0.5052 -0.3485 -0.2714
  125OSM    C1513254   5.960   1.525   5.151 -0.2698  0.5988 -0.7493
  125OSM   H15A13255   6.025   1.609   5.136  0.6442 -0.1352 -1.0187
  125OSM   H15B13256   6.002   1.444   5.093  0.7238  1.5693 -1.4163
  125OSM   H15C13257   5.948   1.493   5.254 -0.4036  1.5374 -0.4651
  125OSM    C1413258   5.817   1.595   4.971 -0.6252 -0.0600  1.2462
  125OSM   H14A13259   5.721   1.572   4.926  0.4617 -3.4522  0.3778
  125OSM   H14B13260   5.881   1.540   4.905 -2.2877  1.7374 -2.1546
  125OSM   H14C13261   5.858   1.695   4.958  0.7726 -0.6400  1.0213
  125OSM    C1313262   5.737   1.419   5.109 -0.4238 -0.3276  0.3378
  125OSM   H13A13263   5.639   1.432   5.067 -0.3478  1.9761  0.7810
  125OSM   H13B13264   5.730   1.386   5.212  0.3308  0.1502  0.5549
  125OSM   H13C13265   5.795   1.344   5.056  1.9785  0.2125  1.9862
  125OSM    C1213266   5.742   1.649   5.200  0.0573  0.6223  0.0582
  125OSM   H12A13267   5.646   1.660   5.152 -0.4494  1.3597  1.2056
  125OSM   H12B13268   5.791   1.743   5.183  0.5687  0.2147 -0.8155
  125OSM    C1113269   5.747   1.615   5.348 -0.2022 -0.5357  0.6629
  125OSM   H11A13270   5.720   1.709   5.400  1.1146 -0.4958  1.3300
  125OSM   H11B13271   5.857   1.610   5.368  0.3988 -1.0169 -2.3709
  125OSM      P13272   5.714   1.408   5.489  0.0120  0.4700 -0.3250
  125OSM    O1313273   5.600   1.315   5.517  0.0706 -0.2813 -0.2568
  125OSM    O1413274   5.841   1.338   5.449  0.3409 -0.3959  0.5117
  125OSM    O1113275   5.737   1.478   5.628 -0.5141  0.6420 -0.1540
  125OSM    O1213276   5.667   1.509   5.380  0.1305 -0.5433  0.5774
  125OSM    C1S13277   5.636   1.569   5.676 -0.6824 -0.5803 -0.7434
  125OSM    H1S13278   5.535   1.524   5.659  0.1923 -3.6003  1.2489
  125OSM    H1T13279   5.639   1.670   5.630  0.2077 -0.0694  0.3710
  125OSM     NF13280   5.529   1.637   5.890 -0.1800 -0.6465  0.2502
  125OSM    HNF13281   5.526   1.737   5.895 -1.7793 -0.6591 -0.1692
  125OSM    C2S13282   5.649   1.579   5.830  0.5024  0.2005  0.1116
  125OSM    H2S13283   5.659   1.471   5.854  0.5866 -0.1879 -1.5424
  125OSM    C3S13284   5.774   1.658   5.864 -0.3574  0.5528 -0.2079
  125OSM    H3S13285   5.777   1.764   5.831  2.0481  0.3948 -0.6718
  125OSM     O313286   5.892   1.609   5.802 -0.6171 -0.3177 -0.3170
  125OSM    HO313287   5.853   1.541   5.746 -2.3493  1.0251 -0.8254
  125OSM    C4S13288   5.792   1.667   6.017  0.5275 -0.8693 -0.2686
  125OSM    H4S13289   5.871   1.597   6.049  0.4912 -0.9766 -0.4155
  125OSM    C5S13290   5.745   1.761   6.101  0.0131 -0.1338  0.6938
  125OSM    H5S13291   5.694   1.848   6.057  0.5148  0.6325  1.5890
  125OSM    C6S13292   5.785   1.776   6.244 -0.7801  0.5005  0.2178
  125OSM    H6S13293   5.748   1.870   6.291 -1.2708  0.9381 -0.9818
  125OSM    H6T13294   5.895   1.765   6.244 -0.9581 -2.4327  2.5242
  125OSM    C7S13295   5.748   1.662   6.328  0.8119 -0.7756 -0.4906
  125OSM    H7S13296   5.757   1.559   6.287 -1.5074 -1.3792  0.3386
  125OSM    H7T13297   5.637   1.664   6.335  0.9023 -1.5674  2.2034
  125OSM    C8S13298   5.811   1.670   6.464 -0.1536 -0.1104 -0.4538
  125OSM    H8S13299   5.833   1.772   6.502  0.2405 -0.8825  1.5349
  125OSM    H8T13300   5.913   1.628   6.448 -0.7756 -2.3296  0.8947
  125OSM    C9S13301   5.746   1.590   6.575 -0.6036 -0.2692  0.4500
  125OSM    H9S13302   5.738   1.481   6.554  1.2967 -1.0393  3.1492
  125OSM    H9T13303   5.643   1.633   6.571  0.0657  1.3408 -0.3785
  125OSM   C10S13304   5.799   1.593   6.716 -0.3472 -0.2342 -0.0695
  125OSM   H10S13305   5.793   1.700   6.747 -2.2160 -0.7162  1.4026
  125OSM   H10T13306   5.905   1.563   6.705  0.4220  0.7643  3.4343
  125OSM   C11S13307   5.726   1.495   6.817 -0.7055 -0.5599  0.1859
  125OSM   H11S13308   5.718   1.396   6.765 -1.3716  0.2515 -1.3394
  125OSM   H11T13309   5.626   1.541   6.833 -0.3972  1.1484 -2.2301
  125OSM   C12S13310   5.790   1.483   6.951 -0.2565 -0.6445  0.4875
  125OSM   H12S13311   5.719   1.426   7.015 -0.8758  0.5759  0.9287
  125OSM   H12T13312   5.791   1.584   6.997 -1.0480 -0.6020  0.4272
  125OSM   C13S13313   5.920   1.417   6.959 -0.1415  0.1752 -0.6848
  125OSM   H13S13314   5.997   1.471   6.899  1.2033  0.7686  1.4743
  125OSM   H13T13315   5.915   1.314   6.919  0.7740 -1.5959  3.2929
  125OSM   C14S13316   5.970   1.411   7.102  0.4377  0.0304  0.4846
  125OSM   H14S13317   5.892   1.382   7.174  0.4846  1.1962  1.0316
  125OSM   H14T13318   5.989   1.514   7.139  0.0438  0.1740  0.2954
  125OSM   C15S13319   6.087   1.311   7.128 -0.2009  0.3262  0.2109
  125OSM   H15S13320   6.178   1.331   7.067 -0.4799 -1.3463 -0.8283
  125OSM   H15T13321   6.056   1.217   7.077 -1.8498  0.8591  0.1827
  125OSM   C16S13322   6.129   1.277   7.273  0.2827  0.2134  0.2754
  125OSM   H16S13323   6.208   1.199   7.274  0.6718  0.6071  0.9631
  125OSM   H16T13324   6.036   1.236   7.317 -0.6811 -1.1760 -2.7872
  125OSM   C17S13325   6.176   1.398   7.359 -0.2049  1.2413  0.5218
  125OSM   H17S13326   6.167   1.353   7.461  0.1259 -2.1906 -0.8326
  125OSM   H17T13327   6.107   1.485   7.353 -1.1331  0.4819 -0.1664
  125OSM   C18S13328   6.319   1.450   7.320  0.0984 -0.3224  0.5695
  125OSM   H18S13329   6.392   1.367   7.321  1.4606  0.7722 -1.5042
  125OSM   H18T13330   6.352   1.522   7.398 -0.1756  0.8726 -0.3804
  125OSM   H18U13331   6.318   1.502   7.222  0.3187 -0.9449  0.2327
  125OSM    C1F13332   5.415   1.563   5.911  0.3569  0.0115 -0.0009
  125OSM     OF13333   5.415   1.443   5.889 -0.1482 -0.1220 -0.0020
  125OSM    C2F13334   5.289   1.638   5.950  0.0666 -0.0695  0.1219
  125OSM    H2F13335   5.207   1.627   5.876 -0.7274 -0.8244  1.0858
  125OSM    H2G13336   5.313   1.747   5.957  0.1918 -0.0128 -0.9802
  125OSM    C3F13337   5.235   1.572   6.081 -0.1385  0.4945  0.0453
  125OSM    H3F13338   5.214   1.464   6.065 -0.6063  0.8680 -2.1559
  125OSM    H3G13339   5.143   1.630   6.103 -0.5154 -0.1899  0.3060
  125OSM    C4F13340   5.322   1.596   6.205  0.5976  0.7728  0.4740
  125OSM    H4F13341   5.327   1.701   6.238  1.8282  0.4193  1.5123
  125OSM    H4G13342   5.429   1.566   6.203  0.6004  0.7546  0.8083
  125OSM    C5F13343   5.251   1.514   6.315  0.0832  0.3237 -0.5162
  125OSM    H5F13344   5.225   1.409   6.287 -1.9487  1.4016 -3.1130
  125OSM    H5G13345   5.150   1.556   6.331 -0.2403 -0.8615  0.8027
  125OSM    C6F13346   5.328   1.513   6.449 -0.8061  0.0920 -0.0135
  125OSM    H6F13347   5.370   1.613   6.473  1.4819 -1.1916  1.8565
  125OSM    H6G13348   5.423   1.455   6.438 -0.7197  0.4022 -0.9916
  125OSM    C7F13349   5.251   1.443   6.558  0.3169 -0.4667 -0.3142
  125OSM    H7F13350   5.234   1.341   6.517 -0.4869  0.5240 -2.6679
  125OSM    H7G13351   5.158   1.498   6.584 -0.0146 -1.0533 -0.2298
  125OSM    C8F13352   5.334   1.430   6.690 -0.6273 -0.8498  0.3390
  125OSM    H8F13353   5.444   1.432   6.675 -0.4154 -0.5348  1.8409
  125OSM    H8G13354   5.310   1.333   6.739  2.1014 -0.6978  2.1504
  125OSM    C9F13355   5.305   1.540   6.786 -0.4058  0.1102 -0.1351
  125OSM    H9F13356   5.320   1.642   6.749 -3.8267  1.8339  2.6059
  125OSM   C10F13357   5.271   1.537   6.915 -0.4461  0.4520  0.0325
  125OSM   H10F13358   5.264   1.635   6.963 -1.8554  0.4338 -0.0809
  125OSM   C11F13359   5.248   1.413   6.993  0.5560  0.4891 -0.4934
  125OSM   H11F13360   5.218   1.332   6.924  1.9665  0.6547 -1.3471
  125OSM   H11G13361   5.162   1.439   7.058 -0.0125 -1.3873 -0.4384
  125OSM   C12F13362   5.367   1.362   7.078  0.2664  0.4240  0.2458
  125OSM   H12F13363   5.447   1.336   7.006  1.1665  0.8881  1.0579
  125OSM   H12G13364   5.347   1.267   7.133  0.5417  1.0422  1.4539
  125OSM   C13F13365   5.411   1.469   7.173  0.2343  0.0253 -0.5941
  125OSM   H13F13366   5.322   1.502   7.231 -0.5824 -1.1307 -1.1370
  125OSM   H13G13367   5.447   1.560   7.120  0.8214 -0.4263 -0.9780
  125OSM   C14F13368   5.516   1.415   7.270  0.0523 -0.0752  0.1952
  125OSM   H14F13369   5.606   1.382   7.215 -0.4932  0.4272 -1.0538
  125OSM   H14G13370   5.464   1.339   7.332  0.8050  0.6521  1.7764
  125OSM   C15F13371   5.562   1.510   7.384 -0.5159 -1.1604  0.6490
  125OSM   H15F13372   5.485   1.567   7.440 -0.3120  0.1959 -0.4252
  125OSM   H15G13373   5.622   1.593   7.343  0.7137 -0.4905  3.5441
  125OSM   C16F13374   5.651   1.431   7.473  0.1193  0.2557 -0.3374
  125OSM   H16F13375   5.741   1.390   7.424  0.7289 -0.5805  1.4139
  125OSM   H16G13376   5.602   1.345   7.524  0.6287  0.4448  0.5002
  125OSM   C17F13377   5.704   1.511   7.596 -0.2638  0.4749  0.5240
  125OSM   H17F13378   5.749   1.428   7.654 -2.0608 -0.9490 -0.0430
  125OSM   H17G13379   5.629   1.559   7.663 -0.1971  1.1930  0.0909
  125OSM   C18F13380   5.817   1.604   7.563 -0.1865 -0.3295  0.7536
  125OSM   H18F13381   5.805   1.663   7.470  4.1174 -0.3364 -0.0016
  125OSM   H18G13382   5.908   1.544   7.543  0.1208  0.8077 -1.5589
  125OSM   H18H13383   5.845   1.660   7.655  0.3589  0.2849  0.2180
  126OSM      N13384   3.216   0.746   5.265 -0.0335  0.0060  0.4862
  126OSM    C1513385   3.188   0.659   5.144 -0.0519 -0.2950 -0.6207
  126OSM   H15A13386   3.148   0.715   5.060 -3.9122 -0.9340  0.6024
  126OSM   H15B13387   3.107   0.587   5.154  0.4318 -0.6959  0.5062
  126OSM   H15C13388   3.274   0.604   5.110  1.3292  0.1017  1.9962
  126OSM    C1413389   3.323   0.838   5.228  0.1661 -0.2953  0.4202
  126OSM   H14A13390   3.296   0.899   5.143  4.1213  1.5893  0.3175
  126OSM   H14B13391   3.408   0.778   5.201  0.2249 -0.5412  1.1225
  126OSM   H14C13392   3.341   0.903   5.313 -2.1057  2.7072 -1.1910
  126OSM    C1313393   3.089   0.818   5.284 -0.5267 -0.8483  0.9053
  126OSM   H13A13394   3.070   0.902   5.218  0.2589 -1.7554 -0.5251
  126OSM   H13B13395   3.091   0.860   5.384 -0.0564 -0.0306  0.5647
  126OSM   H13C13396   3.006   0.749   5.287 -1.5475  0.3594  1.7536
  126OSM    C1213397   3.249   0.666   5.386  0.2923  0.2680 -0.1755
  126OSM   H12A13398   3.338   0.607   5.369 -0.9692 -1.6607 -0.4686
  126OSM   H12B13399   3.174   0.589   5.397  0.1807  0.5936  1.7367
  126OSM    C1113400   3.264   0.739   5.517  0.8868 -0.4581 -0.9555
  126OSM   H11A13401   3.280   0.662   5.595  0.7117  0.8104  0.3748
  126OSM   H11B13402   3.165   0.783   5.541  0.8163 -0.6992 -0.7981
  126OSM      P13403   3.492   0.831   5.588 -0.1884  0.3465  0.2913
  126OSM    O1313404   3.561   0.704   5.547  0.1303  0.4812  0.8511
  126OSM    O1413405   3.568   0.956   5.570  0.0587 -0.4823 -0.1316
  126OSM    O1113406   3.457   0.813   5.737 -0.3827  0.4416 -0.7455
  126OSM    O1213407   3.354   0.844   5.515 -0.1347  0.4542  0.8062
  126OSM    C1S13408   3.368   0.907   5.803  0.1574  1.5221  0.5024
  126OSM    H1S13409   3.264   0.892   5.767  0.5569 -3.0107  0.7450
  126OSM    H1T13410   3.394   1.011   5.772 -3.3898  2.2737 -0.3768
  126OSM     NF13411   3.253   0.962   6.017  0.7937  0.1848 -0.8132
  126OSM    HNF13412   3.272   1.043   6.071  1.5472 -0.5886  0.1219
  126OSM    C2S13413   3.364   0.893   5.958 -0.2015  1.3867  0.4075
  126OSM    H2S13414   3.359   0.786   5.985 -0.8752  1.2127 -0.3866
  126OSM    C3S13415   3.503   0.951   6.007  0.8063  0.3005  0.4467
  126OSM    H3S13416   3.493   1.061   5.991 -1.9462  0.3822  2.1140
  126OSM     O313417   3.613   0.912   5.929 -0.3743 -0.4055  0.0901
  126OSM    HO313418   3.574   0.881   5.847 -0.1872  1.5587 -0.7972
  126OSM    C4S13419   3.533   0.920   6.153  0.1261  0.6914 -0.3800
  126OSM    H4S13420   3.529   0.814   6.181  2.3939  0.7816  0.5349
  126OSM    C5S13421   3.553   1.005   6.254  0.1647 -0.3325 -0.0373
  126OSM    H5S13422   3.571   1.106   6.216  2.7779 -1.4795 -2.1453
  126OSM    C6S13423   3.570   0.984   6.405  0.2267 -0.4360  0.1437
  126OSM    H6S13424   3.656   1.046   6.437 -0.1444 -0.4127  1.0995
  126OSM    H6T13425   3.586   0.874   6.417 -1.9532 -0.9803 -1.2826
  126OSM    C7S13426   3.452   1.019   6.504  0.0321 -0.1755 -0.3174
  126OSM    H7S13427   3.361   0.966   6.471  0.0725 -1.0663  0.8934
  126OSM    H7T13428   3.436   1.128   6.495  1.5221  0.2638  1.5788
  126OSM    C8S13429   3.479   0.998   6.652  0.5376 -0.2289 -0.2423
  126OSM    H8S13430   3.580   1.036   6.677  0.3926  0.3852 -0.5453
  126OSM    H8T13431   3.474   0.887   6.657 -3.1441 -0.3986 -3.1809
  126OSM    C9S13432   3.359   1.065   6.740  0.3674 -0.4794 -0.5446
  126OSM    H9S13433   3.271   1.007   6.705  0.2272 -0.8133  0.3336
  126OSM    H9T13434   3.341   1.173   6.723 -2.3578 -0.3041  2.5622
  126OSM   C10S13435   3.382   1.057   6.889  0.3906  0.0412  0.1613
  126OSM   H10S13436   3.332   1.134   6.952 -2.4920 -1.6822  0.1432
  126OSM   H10T13437   3.490   1.064   6.913  0.8223  1.9183 -1.9853
  126OSM   C11S13438   3.357   0.912   6.938  0.2437 -0.0792  0.4952
  126OSM   H11S13439   3.409   0.845   6.866 -0.6717 -0.2358 -0.0437
  126OSM   H11T13440   3.247   0.899   6.927  0.1731  1.1469 -0.5777
  126OSM   C12S13441   3.398   0.889   7.080 -0.2457 -0.7293  0.6328
  126OSM   H12S13442   3.348   0.973   7.133 -1.3108 -1.2918  0.5305
  126OSM   H12T13443   3.508   0.906   7.087 -0.2139 -0.0466 -1.0759
  126OSM   C13S13444   3.354   0.750   7.132 -0.5247  0.3060 -0.3491
  126OSM   H13S13445   3.384   0.669   7.062 -1.6676  1.4868 -2.2940
  126OSM   H13T13446   3.243   0.754   7.134 -0.4966  1.9890 -0.8667
  126OSM   C14S13447   3.390   0.719   7.283  0.1167  0.2668 -0.4511
  126OSM   H14S13448   3.328   0.792   7.340 -1.0966  1.1859 -2.8093
  126OSM   H14T13449   3.499   0.726   7.304  0.1751 -0.0682 -0.6382
  126OSM   C15S13450   3.350   0.571   7.308 -0.1839  0.3000 -0.5604
  126OSM   H15S13451   3.390   0.506   7.227  1.9968  0.4095  0.3575
  126OSM   H15T13452   3.239   0.558   7.305  0.0559 -2.2503 -1.4945
  126OSM   C16S13453   3.409   0.516   7.441 -0.4345 -0.1391 -0.0420
  126OSM   H16S13454   3.375   0.583   7.523 -0.4334 -1.3637  0.9833
  126OSM   H16T13455   3.520   0.526   7.433 -0.3435  0.2534  1.4155
  126OSM   C17S13456   3.366   0.373   7.481  0.0246  0.7877 -0.2859
  126OSM   H17S13457   3.425   0.339   7.569  0.1871  1.1446 -0.2554
  126OSM   H17T13458   3.388   0.302   7.399 -0.4936  0.7736 -0.4157
  126OSM   C18S13459   3.223   0.368   7.533 -0.1037  0.8044 -0.2624
  126OSM   H18S13460   3.220   0.429   7.625  1.4985 -0.7603  0.8970
  126OSM   H18T13461   3.183   0.267   7.558 -1.4864  1.4523  0.2173
  126OSM   H18U13462   3.161   0.414   7.452  0.2953  1.5771 -0.1337
  126OSM    C1F13463   3.124   0.916   6.018 -0.9089  0.1577  0.1608
  126OSM     OF13464   3.093   0.819   5.954 -0.3050 -0.2653  0.6732
  126OSM    C2F13465   3.022   1.004   6.085 -0.0457  0.6048  0.2704
  126OSM    H2F13466   2.939   1.021   6.014 -1.6582  0.4776  2.0456
  126OSM    H2G13467   3.078   1.099   6.099 -0.0971  0.8555 -1.1345
  126OSM    C3F13468   2.959   0.972   6.224 -0.0523  0.2777  0.3159
  126OSM    H3F13469   2.885   0.893   6.202  0.9209 -0.0173 -2.2615
  126OSM    H3G13470   2.905   1.059   6.267  1.4031  0.5530  1.7073
  126OSM    C4F13471   3.062   0.925   6.332 -0.2204 -0.3257  0.3075
  126OSM    H4F13472   3.114   1.022   6.349 -5.1040  2.9072 -1.2167
  126OSM    H4G13473   3.135   0.846   6.302  2.3318  2.4757 -1.4574
  126OSM    C5F13474   2.996   0.872   6.461  0.6491 -0.2150  0.0882
  126OSM    H5F13475   2.908   0.815   6.423 -0.3262  1.3072 -0.0080
  126OSM    H5G13476   2.951   0.947   6.530  0.5066  1.6779 -1.9658
  126OSM    C6F13477   3.087   0.782   6.544 -0.6752  0.2305 -0.4372
  126OSM    H6F13478   3.187   0.826   6.566 -1.3082  1.3548  0.2589
  126OSM    H6G13479   3.125   0.697   6.483  2.1677  0.0530  1.3741
  126OSM    C7F13480   3.026   0.732   6.671  0.4505 -0.3381  0.7258
  126OSM    H7F13481   2.947   0.660   6.643 -0.8622  1.0213  0.8144
  126OSM    H7G13482   2.985   0.816   6.730  1.0035  0.0394  0.5830
  126OSM    C8F13483   3.110   0.638   6.763 -0.2892 -0.8024  0.3595
  126OSM    H8F13484   3.039   0.602   6.841  0.4870 -0.4299  1.2640
  126OSM    H8G13485   3.177   0.711   6.814  1.9068 -1.8976 -0.8299
  126OSM    C9F13486   3.185   0.522   6.695 -0.1315 -0.1659 -0.3883
  126OSM    H9F13487   3.116   0.470   6.627 -2.3437 -0.5843  2.0198
  126OSM   C10F13488   3.317   0.488   6.701  0.5040  1.0317 -0.2272
  126OSM   H10F13489   3.346   0.398   6.646 -0.9719  0.6675 -0.4534
  126OSM   C11F13490   3.416   0.565   6.787  0.1544 -0.1398  0.4864
  126OSM   H11F13491   3.408   0.533   6.893  1.6752 -0.0468  0.6535
  126OSM   H11G13492   3.396   0.674   6.790  0.9740  0.0889 -1.1717
  126OSM   C12F13493   3.566   0.556   6.750  0.7091  0.5506 -1.1161
  126OSM   H12F13494   3.565   0.590   6.644  1.3908 -2.0295 -2.0050
  126OSM   H12G13495   3.597   0.449   6.753  1.8686  0.8191 -2.4474
  126OSM   C13F13496   3.657   0.646   6.831  0.4261 -0.0797 -0.2879
  126OSM   H13F13497   3.652   0.635   6.941 -0.5665  0.8369 -0.2258
  126OSM   H13G13498   3.630   0.753   6.819  2.8491  0.6430  0.0526
  126OSM   C14F13499   3.804   0.636   6.790  0.2785  0.9474  0.5653
  126OSM   H14F13500   3.813   0.613   6.682  2.7593  1.6186  0.5715
  126OSM   H14G13501   3.848   0.548   6.842 -0.0408  0.3910 -0.0839
  126OSM   C15F13502   3.894   0.755   6.816 -0.2166 -0.0226 -0.3919
  126OSM   H15F13503   3.873   0.848   6.760 -0.0001 -1.1235 -2.4071
  126OSM   H15G13504   3.996   0.731   6.780  0.5504  3.3705 -0.7312
  126OSM   C16F13505   3.907   0.770   6.965  0.2060 -0.5921  0.6046
  126OSM   H16F13506   3.808   0.813   6.989  1.2517  3.2290 -1.0953
  126OSM   H16G13507   3.970   0.862   6.975  1.9849 -1.3896 -2.0260
  126OSM   C17F13508   3.946   0.653   7.051 -0.2649 -0.4727  0.3976
  126OSM   H17F13509   4.052   0.626   7.034 -0.7521 -2.4936  0.3780
  126OSM   H17G13510   3.892   0.557   7.035  1.5084 -1.6740  1.3190
  126OSM   C18F13511   3.913   0.706   7.188  0.7133 -0.2324 -0.1512
  126OSM   H18F13512   3.950   0.809   7.207 -0.2863 -0.1835  1.7632
  126OSM   H18G13513   3.961   0.643   7.266 -0.6590 -0.1546  0.7762
  126OSM   H18H13514   3.806   0.696   7.216  1.0185  1.5487  1.8702
  127OSM      N13515   1.778   1.051   4.946  0.2841 -0.3743  0.9862
  127OSM    C1513516   1.788   0.908   4.998 -0.3790 -0.2848  0.8493
  127OSM   H15A13517   1.689   0.869   4.981 -0.4961  1.1430 -2.5923
  127OSM   H15B13518   1.816   0.910   5.102  2.7945 -0.2690  0.1127
  127OSM   H15C13519   1.862   0.852   4.943 -1.2803 -0.3435 -0.3339
  127OSM    C1413520   1.731   1.047   4.805 -0.1509 -0.6253 -0.1080
  127OSM   H14A13521   1.793   0.980   4.747  0.1752  0.3625 -0.9321
  127OSM   H14B13522   1.740   1.145   4.760  0.4609 -0.7200 -0.2045
  127OSM   H14C13523   1.628   1.017   4.795  0.0040 -2.0191  1.9174
  127OSM    C1313524   1.676   1.123   5.020  0.0835  0.4443 -0.7978
  127OSM   H13A13525   1.648   1.216   4.972  0.6337 -0.0702 -2.1565
  127OSM   H13B13526   1.716   1.151   5.116 -0.2139 -0.0535 -0.5242
  127OSM   H13C13527   1.588   1.060   5.028  2.3667 -2.9521 -0.5970
  127OSM    C1213528   1.913   1.120   4.962  0.1442  0.4309 -0.1896
  127OSM   H12A13529   1.915   1.225   4.935  2.9163  1.2205  2.5463
  127OSM   H12B13530   1.984   1.068   4.901 -1.4328 -1.3938 -0.5865
  127OSM    C1113531   1.967   1.126   5.109 -0.4396  0.2007  0.4166
  127OSM   H11A13532   2.069   1.170   5.103 -0.4513  0.5264  2.1215
  127OSM   H11B13533   1.970   1.021   5.144  1.6051  0.7295  1.9875
  127OSM      P13534   1.884   1.205   5.349 -0.1036  0.0637  0.4751
  127OSM    O1313535   1.830   1.335   5.394 -0.0473 -0.8302 -0.5775
  127OSM    O1413536   1.818   1.080   5.394  0.5604  0.3391 -0.6687
  127OSM    O1113537   2.034   1.192   5.401  0.3476 -0.1409 -0.2161
  127OSM    O1213538   1.891   1.206   5.195 -0.5542 -0.6543  0.4660
  127OSM    C1S13539   2.062   1.220   5.542 -0.6078 -0.2443 -0.0491
  127OSM    H1S13540   2.000   1.303   5.581 -3.2181 -0.9621 -2.3313
  127OSM    H1T13541   2.171   1.234   5.553 -0.4493  0.8313 -2.4006
  127OSM     NF13542   2.067   1.152   5.778 -0.5644  0.0131 -0.4174
  127OSM    HNF13543   2.160   1.134   5.810  0.1531  1.0693 -1.7887
  127OSM    C2S13544   2.036   1.100   5.640 -0.4828  0.0093  0.0740
  127OSM    H2S13545   1.928   1.073   5.643 -1.1427  2.4691  1.4493
  127OSM    C3S13546   2.135   0.989   5.588 -0.6242  0.7356  0.7336
  127OSM    H3S13547   2.237   1.027   5.568 -1.3394  1.2397 -2.5327
  127OSM     O313548   2.096   0.937   5.454 -0.2214  0.0129 -0.2125
  127OSM    HO313549   2.033   1.000   5.417 -0.3571 -0.2093 -0.3604
  127OSM    C4S13550   2.137   0.882   5.697 -0.0426  0.8261 -0.4298
  127OSM    H4S13551   2.046   0.821   5.702  0.8809 -0.5711  0.0564
  127OSM    C5S13552   2.238   0.836   5.778  0.5244 -0.6160 -0.0432
  127OSM    H5S13553   2.341   0.860   5.750  0.0196  0.8048 -0.7823
  127OSM    C6S13554   2.219   0.739   5.893 -0.0085 -0.0502  0.5406
  127OSM    H6S13555   2.319   0.697   5.917 -0.2718 -0.0664  1.6558
  127OSM    H6T13556   2.145   0.659   5.873 -2.4717  2.5637 -1.5501
  127OSM    C7S13557   2.171   0.817   6.016 -0.0550  0.0439  0.1224
  127OSM    H7S13558   2.181   0.755   6.108  0.0989 -0.7642 -0.4292
  127OSM    H7T13559   2.063   0.829   5.996 -0.8770 -2.3607  2.5482
  127OSM    C8S13560   2.244   0.955   6.040 -0.3420  0.3697  0.5136
  127OSM    H8S13561   2.202   1.032   5.971 -0.2159  0.1481  0.1900
  127OSM    H8T13562   2.352   0.940   6.023  0.2327 -0.8841  4.2592
  127OSM    C9S13563   2.212   1.000   6.180 -0.4259 -0.5376 -0.0912
  127OSM    H9S13564   2.195   0.917   6.253 -1.5823 -0.1362  0.1237
  127OSM    H9T13565   2.120   1.061   6.167  0.4941  1.0076  0.5188
  127OSM   C10S13566   2.328   1.087   6.239  0.4549 -0.0620  0.4806
  127OSM   H10S13567   2.348   1.172   6.169  0.0529 -0.5765 -0.2704
  127OSM   H10T13568   2.423   1.033   6.258 -0.1766 -0.1321  4.2103
  127OSM   C11S13569   2.290   1.144   6.376  0.2094 -0.2039 -0.0197
  127OSM   H11S13570   2.196   1.203   6.367  1.0068  1.2949  1.0195
  127OSM   H11T13571   2.368   1.220   6.400  0.3566  0.2225 -1.6903
  127OSM   C12S13572   2.276   1.045   6.493 -0.4550  0.6514  0.4711
  127OSM   H12S13573   2.378   1.004   6.510 -0.9361 -0.4410  0.8033
  127OSM   H12T13574   2.211   0.963   6.458  1.9434 -1.0517 -0.2349
  127OSM   C13S13575   2.210   1.108   6.621 -0.1306  0.0763  0.2555
  127OSM   H13S13576   2.173   1.023   6.683  1.0452 -0.0448  0.8292
  127OSM   H13T13577   2.121   1.163   6.587 -0.3632  0.6184  1.6774
  127OSM   C14S13578   2.306   1.205   6.690 -0.4878  0.8440  0.0159
  127OSM   H14S13579   2.352   1.277   6.620  1.3225 -0.3929 -0.1216
  127OSM   H14T13580   2.391   1.148   6.734  0.1994 -0.5972 -2.9279
  127OSM   C15S13581   2.235   1.291   6.801  0.2617  0.1861 -0.1995
  127OSM   H15S13582   2.174   1.226   6.867 -0.9408  1.4807  0.0207
  127OSM   H15T13583   2.158   1.361   6.763 -1.3210 -0.8270  1.0084
  127OSM   C16S13584   2.330   1.364   6.894  0.8931  0.0362 -0.5320
  127OSM   H16S13585   2.415   1.299   6.924  0.8921  0.3439  0.1531
  127OSM   H16T13586   2.280   1.400   6.986  1.6885 -0.2739  0.0284
  127OSM   C17S13587   2.389   1.484   6.830  0.9100  0.4687 -0.3057
  127OSM   H17S13588   2.304   1.549   6.800 -0.2429 -0.6864  0.3645
  127OSM   H17T13589   2.438   1.446   6.737 -0.8516 -2.8803 -0.0239
  127OSM   C18S13590   2.485   1.567   6.908 -0.3620 -0.1832 -0.6940
  127OSM   H18S13591   2.558   1.617   6.840  0.8811 -0.4871  0.3811
  127OSM   H18T13592   2.546   1.504   6.975  0.1039  1.1196  0.1596
  127OSM   H18U13593   2.445   1.642   6.980  2.2983 -0.2157  0.9252
  127OSM    C1F13594   1.990   1.242   5.843 -0.0187  0.4112 -1.0118
  127OSM     OF13595   1.883   1.273   5.797 -0.7684 -0.4670  0.1904
  127OSM    C2F13596   2.050   1.297   5.970  0.1665  0.4737  0.2599
  127OSM    H2F13597   2.126   1.373   5.941 -1.5429  1.8071 -0.9543
  127OSM    H2G13598   2.096   1.211   6.023  0.2153  0.3427  0.0095
  127OSM    C3F13599   1.937   1.367   6.044 -0.4283  0.9968  0.2258
  127OSM    H3F13600   1.853   1.300   6.071 -0.0039  0.2215 -0.3316
  127OSM    H3G13601   1.895   1.445   5.977  0.9978  2.0779  0.5462
  127OSM    C4F13602   1.988   1.419   6.177 -0.1734  0.0757 -0.4861
  127OSM    H4F13603   2.064   1.500   6.167 -1.9497  2.1035  1.2731
  127OSM    H4G13604   2.039   1.337   6.231 -0.6071  0.7033  0.9334
  127OSM    C5F13605   1.884   1.485   6.267  0.7791 -0.2397  0.0966
  127OSM    H5F13606   1.804   1.413   6.296  2.1460 -1.9679 -0.2474
  127OSM    H5G13607   1.828   1.556   6.203 -0.8105 -1.2305  0.3379
  127OSM    C6F13608   1.936   1.553   6.389 -0.1711  0.4803  0.5452
  127OSM    H6F13609   2.016   1.624   6.360  0.1204 -0.1265 -0.1773
  127OSM    H6G13610   1.985   1.480   6.457  0.1500  1.2175  1.1055
  127OSM    C7F13611   1.833   1.636   6.472  0.0243  0.3357  0.5776
  127OSM    H7F13612   1.755   1.569   6.514  0.6647 -0.9434 -0.1859
  127OSM    H7G13613   1.783   1.703   6.400 -0.4943  0.0563  0.6768
  127OSM    C8F13614   1.903   1.707   6.576  0.2036 -0.1163  0.7352
  127OSM    H8F13615   1.963   1.782   6.521 -0.1939 -1.3959 -1.5507
  127OSM    H8G13616   1.971   1.643   6.637 -0.3410 -1.2976  0.1271
  127OSM    C9F13617   1.811   1.770   6.683  0.7728  0.5222  0.8065
  127OSM    H9F13618   1.798   1.880   6.683  4.3696  1.0768  0.5235
  127OSM   C10F13619   1.758   1.709   6.794 -0.0925  0.1558  1.1987
  127OSM   H10F13620   1.679   1.770   6.840 -3.1846 -3.3645  1.0152
  127OSM   C11F13621   1.774   1.567   6.842 -0.2524 -0.2495 -0.0991
  127OSM   H11F13622   1.828   1.501   6.772  0.9504 -0.3538  0.9020
  127OSM   H11G13623   1.672   1.524   6.851  0.1383 -0.8980  1.6576
  127OSM   C12F13624   1.851   1.566   6.978 -0.7516  0.6504 -0.2166
  127OSM   H12F13625   1.790   1.597   7.065  1.0660  0.9753  1.0069
  127OSM   H12G13626   1.928   1.646   6.967 -0.8879  0.7001 -0.8505
  127OSM   C13F13627   1.913   1.434   7.022  0.9726  0.9521  0.3227
  127OSM   H13F13628   1.979   1.386   6.947  2.1110  1.0524  1.2164
  127OSM   H13G13629   1.840   1.355   7.049  1.5473  0.9709  2.1207
  127OSM   C14F13630   1.996   1.462   7.147  0.2515 -0.3087  0.0661
  127OSM   H14F13631   1.943   1.516   7.228  0.4303  1.3834 -0.9092
  127OSM   H14G13632   2.082   1.525   7.115 -0.0933  0.5416  0.7714
  127OSM   C15F13633   2.050   1.331   7.207 -0.7559 -0.0286 -0.2954
  127OSM   H15F13634   2.131   1.352   7.281 -0.9876  2.9045 -0.7572
  127OSM   H15G13635   2.086   1.263   7.127  0.1256  1.4973 -1.2474
  127OSM   C16F13636   1.946   1.256   7.293  0.1525  0.6098 -0.3881
  127OSM   H16F13637   1.868   1.208   7.230  0.3614 -0.4853  0.1639
  127OSM   H16G13638   1.887   1.323   7.360  2.9474  1.4856  1.3512
  127OSM   C17F13639   2.009   1.152   7.384 -0.3567 -0.9468 -0.1123
  127OSM   H17F13640   2.049   1.209   7.470 -1.1050  1.4348 -1.2489
  127OSM   H17G13641   2.092   1.113   7.321 -2.0273  0.5509 -3.5297
  127OSM   C18F13642   1.913   1.041   7.430  0.3884 -0.2921 -0.2688
  127OSM   H18F13643   1.840   1.083   7.502  1.8010  1.3594  0.2823
  127OSM   H18G13644   1.971   0.960   7.478 -0.4071 -1.3967 -1.1190
  127OSM   H18H13645   1.862   0.997   7.341 -1.4631 -0.0648  0.6235
  128OSM      N13646   6.269   4.999   5.415  0.6052  0.4666  0.4426
  128OSM    C1513647   6.221   4.920   5.295 -0.7726  0.2429  0.5622
  128OSM   H15A13648   6.142   4.853   5.325  0.2919 -0.2183  2.6028
  128OSM   H15B13649   6.308   4.863   5.266 -2.3648 -1.7955 -0.4657
  128OSM   H15C13650   6.186   4.985   5.217 -1.6110 -0.5778  0.2432
  128OSM    C1413651   6.328   4.905   5.523  0.3652  0.7667  0.7616
  128OSM   H14A13652   6.265   4.825   5.560 -0.4036  1.5823  1.2665
  128OSM   H14B13653   6.377   4.953   5.607  0.0247 -1.9440  2.6428
  128OSM   H14C13654   6.407   4.845   5.481  0.0490  0.6178  0.3678
  128OSM    C1313655   6.383   5.082   5.373  0.4741 -0.1068  0.0569
  128OSM   H13A13656   6.453   5.025   5.314  0.0345 -0.6866  0.0761
  128OSM   H13B13657   6.428   5.138   5.453 -0.2779  2.7068 -1.3433
  128OSM   H13C13658   6.347   5.158   5.306 -0.8925  0.2524  1.1614
  128OSM    C1213659   6.155   5.089   5.474 -0.2406 -0.0428 -0.7383
  128OSM   H12A13660   6.198   5.145   5.556  0.6396  2.0768 -2.5155
  128OSM   H12B13661   6.074   5.026   5.508  0.4494 -1.4309 -1.5676
  128OSM    C1113662   6.088   5.202   5.390  0.0529 -0.1149  0.2738
  128OSM   H11A13663   6.007   5.242   5.454  0.2322  0.7955 -0.0528
  128OSM   H11B13664   6.036   5.145   5.311  1.0221 -2.0484  0.9417
  128OSM      P13665   6.195   5.435   5.413 -0.3070 -0.4642  0.3546
  128OSM    O1313666   6.316   5.500   5.358 -1.0129 -0.3195  0.1318
  128OSM    O1413667   6.071   5.513   5.408  0.2883 -0.6214  0.3478
  128OSM    O1113668   6.220   5.405   5.564 -0.0536 -0.2363  0.2089
  128OSM    O1213669   6.176   5.299   5.344 -0.4723  0.0604  0.2639
  128OSM    C1S13670   6.203   5.493   5.676 -0.3697  0.2892  0.4296
  128OSM    H1S13671   6.095   5.510   5.697 -0.6183  0.1101 -0.6352
  128OSM    H1T13672   6.245   5.595   5.661  1.6925 -0.4696  0.7164
  128OSM     NF13673   6.261   5.561   5.902 -0.0444 -0.2235  0.0763
  128OSM    HNF13674   6.333   5.626   5.925  0.8082 -0.8722 -0.6722
  128OSM    C2S13675   6.284   5.459   5.801 -0.2691  0.0219  0.2413
  128OSM    H2S13676   6.244   5.362   5.837 -0.1686  0.3566  1.2904
  128OSM    C3S13677   6.438   5.442   5.758  0.6167 -0.5755 -0.2660
  128OSM    H3S13678   6.449   5.540   5.708  2.2669  0.2088  1.5308
  128OSM     O313679   6.454   5.341   5.662  0.0605  0.2837 -0.7602
  128OSM    HO313680   6.376   5.343   5.606 -2.4183 -0.9286  2.3835
  128OSM    C4S13681   6.530   5.429   5.875  0.3763  0.2139 -0.1897
  128OSM    H4S13682   6.581   5.522   5.905  1.7201 -0.5076 -0.1643
  128OSM    C5S13683   6.528   5.329   5.962 -0.3368  0.2041 -0.2020
  128OSM    H5S13684   6.459   5.243   5.960 -0.1092 -0.2828  3.7470
  128OSM    C6S13685   6.617   5.315   6.086 -0.2340 -0.3670  0.0861
  128OSM    H6S13686   6.709   5.379   6.087 -1.4069  1.4850  3.1237
  128OSM    H6T13687   6.653   5.214   6.114  0.2320  0.0496  1.0804
  128OSM    C7S13688   6.531   5.377   6.204  0.0939  0.2610  0.6830
  128OSM    H7S13689   6.432   5.325   6.207 -0.3579  0.6060 -2.9469
  128OSM    H7T13690   6.509   5.485   6.192 -3.1875 -0.4452 -0.9274
  128OSM    C8S13691   6.606   5.348   6.340  0.0691 -0.4843  0.3278
  128OSM    H8S13692   6.704   5.399   6.340 -0.5128  0.8378 -2.7502
  128OSM    H8T13693   6.621   5.238   6.341  0.8265 -0.4831 -2.6017
  128OSM    C9S13694   6.527   5.384   6.468  0.1326 -0.6745 -0.0853
  128OSM    H9S13695   6.437   5.318   6.463  1.6068 -2.8155  0.1896
  128OSM    H9T13696   6.501   5.491   6.453  1.2128 -0.2115  1.1381
  128OSM   C10S13697   6.590   5.358   6.601  0.2468 -0.3743  0.5850
  128OSM   H10S13698   6.662   5.441   6.614  0.6108 -0.7663  1.1194
  128OSM   H10T13699   6.637   5.257   6.597 -1.1537 -1.0227 -1.8943
  128OSM   C11S13700   6.491   5.348   6.715  0.0348 -0.2389 -0.2259
  128OSM   H11S13701   6.402   5.293   6.676 -2.8444  4.6224 -1.3468
  128OSM   H11T13702   6.449   5.448   6.737 -2.2079 -1.3984  1.0098
  128OSM   C12S13703   6.565   5.297   6.840 -0.1121 -0.4056 -0.5102
  128OSM   H12S13704   6.649   5.369   6.855 -0.1657 -0.8471  2.5148
  128OSM   H12T13705   6.616   5.199   6.829  1.5062  0.1699  1.2698
  128OSM   C13S13706   6.486   5.298   6.969 -0.1092  0.2513 -0.6764
  128OSM   H13S13707   6.399   5.229   6.967  0.0880 -0.0004 -0.6260
  128OSM   H13T13708   6.440   5.398   6.984 -0.2183  0.4511 -2.2487
  128OSM   C14S13709   6.575   5.258   7.087  0.0355 -0.4344 -0.2459
  128OSM   H14S13710   6.546   5.307   7.182  1.1641 -1.7977  0.8290
  128OSM   H14T13711   6.676   5.299   7.067 -0.0114 -1.5330 -3.3230
  128OSM   C15S13712   6.570   5.105   7.109  0.5689  0.5388 -0.0868
  128OSM   H15S13713   6.661   5.076   7.167  0.0661 -1.5379 -0.2804
  128OSM   H15T13714   6.573   5.056   7.010  0.3456  0.9416 -0.2927
  128OSM   C16S13715   6.448   5.065   7.182  0.5337 -0.5544 -0.0610
  128OSM   H16S13716   6.362   5.110   7.129  0.0377 -0.9112  0.4302
  128OSM   H16T13717   6.443   5.096   7.289 -1.1050 -1.9481  0.3156
  128OSM   C17S13718   6.423   4.921   7.185 -1.0274  0.5916 -0.5771
  128OSM   H17S13719   6.414   4.893   7.078  0.5580 -1.1070 -0.3041
  128OSM   H17T13720   6.333   4.902   7.248  0.1588  1.2668  1.4370
  128OSM   C18S13721   6.544   4.837   7.245  0.1564  0.1348  0.3623
  128OSM   H18S13722   6.520   4.729   7.252 -2.0757  0.6003  0.8802
  128OSM   H18T13723   6.574   4.866   7.348 -1.2453  1.0020  0.5542
  128OSM   H18U13724   6.635   4.847   7.182  1.1273 -0.5601  1.6076
  128OSM    C1F13725   6.149   5.551   5.982  0.4689 -0.4014 -0.2097
  128OSM     OF13726   6.047   5.501   5.950 -0.0352 -0.2795  0.0273
  128OSM    C2F13727   6.163   5.622   6.120 -0.1338  0.3606  0.0525
  128OSM    H2F13728   6.119   5.723   6.106 -0.5387 -0.1354 -3.0922
  128OSM    H2G13729   6.273   5.635   6.126 -0.0953  0.8867 -1.4365
  128OSM    C3F13730   6.117   5.530   6.236 -0.7154  0.1525  0.0656
  128OSM    H3F13731   6.161   5.428   6.239  1.6678  1.1094  0.3698
  128OSM    H3G13732   6.007   5.523   6.249 -0.4541 -1.4041  1.8727
  128OSM    C4F13733   6.171   5.585   6.374 -0.0840 -0.1853 -0.3632
  128OSM    H4F13734   6.142   5.691   6.394 -0.2839 -0.2746 -0.1859
  128OSM    H4G13735   6.282   5.584   6.365 -0.1841 -0.3993 -1.7776
  128OSM    C5F13736   6.124   5.493   6.479 -0.6109  0.9240  0.4340
  128OSM    H5F13737   6.166   5.393   6.456  0.1897  1.4064 -0.2614
  128OSM    H5G13738   6.015   5.472   6.479 -0.2722 -1.1484 -1.7712
  128OSM    C6F13739   6.157   5.539   6.623  0.3146 -0.1746  0.1111
  128OSM    H6F13740   6.108   5.638   6.633  0.7820  0.0063  0.6628
  128OSM    H6G13741   6.266   5.563   6.626 -0.0196  1.3314  1.4892
  128OSM    C7F13742   6.106   5.456   6.741 -0.1772 -0.2563  0.2112
  128OSM    H7F13743   6.149   5.357   6.713 -2.1181 -1.5316  1.5248
  128OSM    H7G13744   5.997   5.438   6.742 -0.2423 -0.0512 -1.1202
  128OSM    C8F13745   6.148   5.504   6.881  0.1473 -0.4778 -0.8971
  128OSM    H8F13746   6.095   5.600   6.900 -0.3831 -1.0739  0.7647
  128OSM    H8G13747   6.254   5.537   6.879  0.0555  1.0870  4.7511
  128OSM    C9F13748   6.127   5.406   6.990 -0.0353 -0.2423 -0.4069
  128OSM    H9F13749   6.086   5.310   6.957 -2.4295  0.8328 -0.8340
  128OSM   C10F13750   6.162   5.418   7.119  0.3704  0.1860  0.1547
  128OSM   H10F13751   6.141   5.332   7.184 -0.5957  0.6880  0.5306
  128OSM   C11F13752   6.241   5.524   7.179  0.0353 -0.4468 -0.1812
  128OSM   H11F13753   6.207   5.627   7.154 -0.3644 -0.1805  1.3721
  128OSM   H11G13754   6.349   5.519   7.155  0.3627 -1.0490  1.3746
  128OSM   C12F13755   6.252   5.523   7.334  0.3334  0.0410 -0.1125
  128OSM   H12F13756   6.152   5.507   7.378  0.3855  0.2821  0.0945
  128OSM   H12G13757   6.286   5.628   7.350  0.7780 -0.0818 -0.2265
  128OSM   C13F13758   6.350   5.415   7.386 -0.2825 -0.0547  0.4402
  128OSM   H13F13759   6.456   5.421   7.354  0.0785  3.2027  1.8152
  128OSM   H13G13760   6.303   5.319   7.355 -1.0346  0.0378  1.2621
  128OSM   C14F13761   6.341   5.420   7.540 -0.8531  0.0006  0.1331
  128OSM   H14F13762   6.236   5.433   7.575 -1.2241  3.4815 -1.8733
  128OSM   H14G13763   6.395   5.514   7.562 -3.8431  2.1721 -1.0817
  128OSM   C15F13764   6.407   5.297   7.611  0.2239 -0.7751  0.1494
  128OSM   H15F13765   6.516   5.298   7.629  0.0680 -2.6222  1.5458
  128OSM   H15G13766   6.372   5.207   7.556 -1.3277  1.2735 -2.4565
  128OSM   C16F13767   6.350   5.286   7.756 -0.3100  0.2385  0.0262
  128OSM   H16F13768   6.239   5.276   7.749 -0.4882  2.6948 -1.6010
  128OSM   H16G13769   6.363   5.385   7.804  0.6103 -0.5049  1.3728
  128OSM   C17F13770   6.423   5.184   7.850  0.4263  0.8735 -0.8580
  128OSM   H17F13771   6.527   5.220   7.868 -0.4635  1.9861  2.7417
  128OSM   H17G13772   6.441   5.091   7.791  1.3231 -1.1844  2.4139
  128OSM   C18F13773   6.373   5.159   7.991  0.2576  0.1828 -0.2998
  128OSM   H18F13774   6.350   5.260   8.032  0.5325  0.9508 -1.9523
  128OSM   H18G13775   6.441   5.102   8.059 -0.2954 -0.1057  0.0211
  128OSM   H18H13776   6.272   5.114   7.978 -0.8221  2.5661 -0.6858
  129OSM      N13777   4.442   0.469   5.519 -0.1959  0.4496 -0.0570
  129OSM    C1513778   4.536   0.456   5.410 -0.3455 -0.7317 -0.4118
  129OSM   H15A13779   4.546   0.548   5.354 -0.4004 -0.0815  0.6226
  129OSM   H15B13780   4.510   0.387   5.331 -1.1360  0.6612 -1.4159
  129OSM   H15C13781   4.639   0.446   5.442 -0.1136  2.0906  0.0483
  129OSM    C1413782   4.465   0.601   5.584  0.2898 -1.0463 -0.1984
  129OSM   H14A13783   4.384   0.620   5.652  1.3131 -2.7680  1.5743
  129OSM   H14B13784   4.465   0.684   5.514 -0.2325 -1.9215 -1.2583
  129OSM   H14C13785   4.556   0.605   5.643 -0.2797  1.8426  0.6795
  129OSM    C1313786   4.303   0.469   5.456  0.0715 -0.1006 -0.4538
  129OSM   H13A13787   4.304   0.550   5.384  2.4230  1.5733  1.3158
  129OSM   H13B13788   4.226   0.492   5.529 -0.2904  0.5227 -1.0152
  129OSM   H13C13789   4.276   0.373   5.416 -1.2719 -0.5988  1.5152
  129OSM    C1213790   4.463   0.363   5.619 -0.1552 -0.1918 -0.6883
  129OSM   H12A13791   4.562   0.369   5.662 -0.9780 -2.1162  1.7380
  129OSM   H12B13792   4.461   0.260   5.584 -0.9078  0.4054 -2.5117
  129OSM    C1113793   4.379   0.350   5.752 -0.9563  0.5287  0.5158
  129OSM   H11A13794   4.402   0.433   5.823  1.4752 -0.9150  1.5592
  129OSM   H11B13795   4.410   0.262   5.812 -0.2446  1.4785  1.5965
  129OSM      P13796   4.173   0.218   5.687  0.3004  0.2292  0.2879
  129OSM    O1313797   4.025   0.253   5.669  0.0787 -0.1046 -0.0636
  129OSM    O1413798   4.246   0.160   5.571  0.2849  0.3883 -0.1736
  129OSM    O1113799   4.196   0.127   5.820  0.0466 -0.2003 -0.1627
  129OSM    O1213800   4.243   0.353   5.721  0.1095 -0.3153  0.0566
  129OSM    C1S13801   4.079   0.053   5.870  0.6930  0.7136  0.1560
  129OSM    H1S13802   4.051  -0.030   5.801 -1.0456  0.6211  0.9057
  129OSM    H1T13803   3.991   0.119   5.887  1.2296  1.6578 -0.6553
  129OSM     NF13804   3.976  -0.113   6.035  0.3948 -0.4670  0.1373
  129OSM    HNF13805   3.904  -0.075   6.092 -0.1302 -0.6906 -0.3709
  129OSM    C2S13806   4.089  -0.014   6.009  0.2560  0.1267 -0.1872
  129OSM    H2S13807   4.178  -0.080   6.018 -0.0745 -0.5910 -1.8128
  129OSM    C3S13808   4.110   0.094   6.115 -0.1261  0.0014 -0.9867
  129OSM    H3S13809   4.015   0.152   6.113  0.7240  1.5064  0.0177
  129OSM     O313810   4.217   0.186   6.088  0.4192  0.5877 -0.5301
  129OSM    HO313811   4.227   0.181   5.993  3.2305  0.7175 -0.3195
  129OSM    C4S13812   4.124   0.039   6.258 -0.2724  0.2589 -0.5574
  129OSM    H4S13813   4.034   0.029   6.321  2.2845 -2.9397  3.0829
  129OSM    C5S13814   4.241   0.019   6.327  0.3921  0.2600 -0.2864
  129OSM    H5S13815   4.338   0.043   6.283 -0.3308  0.3285 -1.8923
  129OSM    C6S13816   4.240  -0.040   6.470 -0.3795  1.2920 -0.2728
  129OSM    H6S13817   4.301   0.033   6.527  1.1974  1.9619 -2.6689
  129OSM    H6T13818   4.302  -0.133   6.471 -0.8479  0.9044 -2.6098
  129OSM    C7S13819   4.110  -0.084   6.533 -0.0830  0.5849 -0.0157
  129OSM    H7S13820   4.068  -0.161   6.465  0.8139 -0.3670  0.4679
  129OSM    H7T13821   4.043   0.005   6.530 -0.8848  0.1052  2.0758
  129OSM    C8S13822   4.130  -0.137   6.673 -0.3918 -0.5203 -0.7260
  129OSM    H8S13823   4.175  -0.054   6.731 -3.1670 -0.4114  1.5113
  129OSM    H8T13824   4.216  -0.208   6.672  0.1250  0.0687  0.3521
  129OSM    C9S13825   4.003  -0.189   6.744  0.3873  0.1409 -0.0506
  129OSM    H9S13826   3.982  -0.293   6.711  3.4566 -0.3295 -0.8088
  129OSM    H9T13827   3.914  -0.126   6.725  1.7035  2.2657  0.5111
  129OSM   C10S13828   4.030  -0.199   6.894  0.0445 -0.3238 -0.2394
  129OSM   H10S13829   4.054  -0.105   6.948  0.9884 -1.5402  1.5249
  129OSM   H10T13830   4.118  -0.263   6.915 -0.3245 -0.5747  0.5491
  129OSM   C11S13831   3.910  -0.258   6.966 -0.6737 -0.5076 -0.3832
  129OSM   H11S13832   3.873  -0.346   6.909 -2.0036  0.7060 -1.4626
  129OSM   H11T13833   3.831  -0.180   6.973  0.5394  0.6688  0.7094
  129OSM   C12S13834   3.957  -0.306   7.105 -0.0501 -0.0656 -0.8375
  129OSM   H12S13835   4.000  -0.408   7.099 -1.6829 -0.8666  0.2937
  129OSM   H12T13836   3.862  -0.306   7.162 -0.6332 -0.7963 -1.7790
  129OSM   C13S13837   4.039  -0.205   7.190 -0.3196  0.1229  0.0103
  129OSM   H13S13838   4.009  -0.100   7.168  0.9645  0.8991  1.7170
  129OSM   H13T13839   4.148  -0.213   7.168 -0.0162  0.3097  1.3348
  129OSM   C14S13840   4.039  -0.224   7.342 -0.1512 -0.2454  0.1123
  129OSM   H14S13841   4.077  -0.124   7.372  1.2758 -0.4224 -1.0185
  129OSM   H14T13842   4.122  -0.289   7.377 -0.1682  0.2834  1.1820
  129OSM   C15S13843   3.909  -0.256   7.413 -0.1291 -0.7143 -0.0464
  129OSM   H15S13844   3.875  -0.358   7.384  0.2456 -0.8445 -0.0348
  129OSM   H15T13845   3.832  -0.188   7.372 -1.0935 -2.2478 -0.9043
  129OSM   C16S13846   3.913  -0.245   7.569 -0.2421 -0.2498  0.2894
  129OSM   H16S13847   3.962  -0.340   7.602 -1.8156 -1.4276 -0.6199
  129OSM   H16T13848   3.810  -0.251   7.609 -0.4906  1.2818 -0.0644
  129OSM   C17S13849   3.976  -0.120   7.627  0.2766  0.0809  0.0004
  129OSM   H17S13850   3.904  -0.048   7.584  1.7207 -0.0439 -2.9013
  129OSM   H17T13851   4.077  -0.092   7.589  0.2895 -0.3230 -0.2650
  129OSM   C18S13852   3.965  -0.111   7.780  0.1868  0.6607  0.1417
  129OSM   H18S13853   3.986  -0.007   7.811  1.6405  1.1243 -2.1800
  129OSM   H18T13854   4.035  -0.183   7.828 -2.9013 -3.6957 -1.1805
  129OSM   H18U13855   3.871  -0.153   7.822  0.0822  1.3307  0.5914
  129OSM    C1F13856   3.961  -0.233   5.984 -0.7543 -0.6543 -1.4285
  129OSM     OF13857   4.031  -0.275   5.897  0.1555  0.1249  0.1784
  129OSM    C2F13858   3.852  -0.312   6.046 -0.4188  0.2728 -0.1423
  129OSM    H2F13859   3.748  -0.277   6.028 -1.2537 -1.3432  1.3026
  129OSM    H2G13860   3.869  -0.294   6.154  1.3553 -1.2230 -0.1333
  129OSM    C3F13861   3.864  -0.471   6.011  0.4405 -0.6477 -0.4408
  129OSM    H3F13862   3.879  -0.486   5.902  1.2668 -1.7466 -0.1888
  129OSM    H3G13863   3.760  -0.504   6.031  0.5406 -0.3653  0.5960
  129OSM    C4F13864   3.959  -0.557   6.092 -0.3856 -0.2009  1.0354
  129OSM    H4F13865   3.971  -0.651   6.034  0.0477  0.7052 -0.3864
  129OSM    H4G13866   3.914  -0.573   6.192 -0.5326  1.1552  1.2132
  129OSM    C5F13867   4.098  -0.499   6.111  0.5037 -0.6127 -0.1438
  129OSM    H5F13868   4.087  -0.397   6.152  2.5223 -0.1154 -0.7394
  129OSM    H5G13869   4.148  -0.501   6.012  0.9641  1.9944 -0.0392
  129OSM    C6F13870   4.182  -0.587   6.209  0.1865  0.7180  0.2171
  129OSM    H6F13871   4.288  -0.555   6.196 -1.0191  4.2136 -2.8955
  129OSM    H6G13872   4.186  -0.696   6.189 -0.1262  0.8279 -0.4623
  129OSM    C7F13873   4.138  -0.580   6.355  0.0731  0.8122  0.5871
  129OSM    H7F13874   4.179  -0.673   6.399 -1.8789  0.6819  2.2530
  129OSM    H7G13875   4.029  -0.605   6.358 -0.1613  1.8463  1.6339
  129OSM    C8F13876   4.174  -0.448   6.429 -0.0009  0.5879 -0.0411
  129OSM    H8F13877   4.108  -0.427   6.516  1.8911  0.6749  1.4365
  129OSM    H8G13878   4.172  -0.360   6.361 -0.6597  0.7391  0.1697
  129OSM    C9F13879   4.317  -0.459   6.464 -0.2147 -0.0501  0.6283
  129OSM    H9F13880   4.388  -0.457   6.380  0.5738 -0.1943  1.2753
  129OSM   C10F13881   4.370  -0.475   6.585  0.0828  0.5371 -0.5424
  129OSM   H10F13882   4.474  -0.513   6.589  0.5190  1.7589  0.3864
  129OSM   C11F13883   4.284  -0.495   6.709 -0.3559 -0.0077  0.0650
  129OSM   H11F13884   4.264  -0.602   6.731 -1.2340  0.0183 -0.5390
  129OSM   H11G13885   4.186  -0.443   6.704  1.0483  2.7308 -1.1108
  129OSM   C12F13886   4.352  -0.436   6.832  0.0928 -0.4655 -0.0185
  129OSM   H12F13887   4.345  -0.325   6.830  0.8731 -0.4136 -0.4961
  129OSM   H12G13888   4.463  -0.439   6.821  0.2459  0.6009  1.0102
  129OSM   C13F13889   4.316  -0.493   6.968  0.3183  0.3901  0.0321
  129OSM   H13F13890   4.244  -0.578   6.963 -1.3161  1.6751  0.8412
  129OSM   H13G13891   4.257  -0.418   7.024 -1.2049 -0.1338 -0.8045
  129OSM   C14F13892   4.431  -0.553   7.057 -0.0824 -0.2682  0.3275
  129OSM   H14F13893   4.492  -0.464   7.087 -0.0694  1.3331 -3.7517
  129OSM   H14G13894   4.500  -0.611   6.992 -1.0089 -0.7528 -0.2310
  129OSM   C15F13895   4.381  -0.625   7.178  0.2004  0.2826 -0.0661
  129OSM   H15F13896   4.324  -0.719   7.160  0.0928  0.5328 -1.0414
  129OSM   H15G13897   4.317  -0.547   7.225  0.8914  0.1753  1.1037
  129OSM   C16F13898   4.496  -0.657   7.276 -0.4801  0.1144  0.0957
  129OSM   H16F13899   4.450  -0.673   7.375  1.8394 -1.8655  0.9606
  129OSM   H16G13900   4.549  -0.560   7.278 -0.7877  0.2743  1.6235
  129OSM   C17F13901   4.582  -0.785   7.250 -0.1305 -0.4253 -0.1571
  129OSM   H17F13902   4.629  -0.762   7.151 -2.0680 -0.5767 -1.1573
  129OSM   H17G13903   4.509  -0.868   7.245 -0.4859 -0.0883 -0.6668
  129OSM   C18F13904   4.690  -0.807   7.350 -0.2207  0.1673  0.2431
  129OSM   H18F13905   4.669  -0.851   7.450  0.4120  1.1582  0.8310
  129OSM   H18G13906   4.757  -0.725   7.383  5.5269 -4.7844  2.7677
  129OSM   H18H13907   4.758  -0.886   7.312 -1.6507 -1.6629  1.2942
  130OSM      N13908   7.136   3.093   5.391 -0.1669  0.6742  0.2363
  130OSM    C1513909   7.238   3.041   5.298  0.0289  0.1848 -0.1727
  130OSM   H15A13910   7.234   2.935   5.279 -1.4131  0.3705 -1.0706
  130OSM   H15B13911   7.336   3.062   5.338 -0.7300 -0.5835  2.2075
  130OSM   H15C13912   7.227   3.087   5.200  0.9527  1.8739  0.4695
  130OSM    C1413913   7.162   3.027   5.527 -0.7338  0.1756  0.3569
  130OSM   H14A13914   7.263   3.032   5.562 -1.0001  0.7857  1.0617
  130OSM   H14B13915   7.131   2.923   5.520  0.0823 -0.1229  1.1057
  130OSM   H14C13916   7.099   3.074   5.601  0.1507 -0.0222  1.2470
  130OSM    C1313917   7.134   3.237   5.405  0.1741  0.5051 -0.3550
  130OSM   H13A13918   7.066   3.277   5.478  1.7782  0.1454  1.4319
  130OSM   H13B13919   7.122   3.296   5.316 -0.6073  0.6930 -0.1299
  130OSM   H13C13920   7.224   3.265   5.458  0.7480 -1.6093 -0.1039
  130OSM    C1213921   7.001   3.049   5.347  0.9386  0.7010 -0.0165
  130OSM   H12A13922   6.976   3.077   5.246  1.9747 -0.8795 -0.7568
  130OSM   H12B13923   6.923   3.083   5.413  1.6248  0.1834  1.0992
  130OSM    C1113924   6.971   2.900   5.337  0.3393 -0.8795 -0.4636
  130OSM   H11A13925   7.038   2.846   5.267  1.1631  0.4483 -0.7401
  130OSM   H11B13926   6.867   2.902   5.300  0.1988  1.4899 -0.1178
  130OSM      P13927   6.915   2.690   5.481 -0.3237 -0.2409  0.0186
  130OSM    O1313928   6.771   2.696   5.522 -0.2237 -0.8948 -0.4996
  130OSM    O1413929   6.959   2.606   5.365  0.5250 -0.7003 -0.0281
  130OSM    O1113930   7.001   2.656   5.602 -0.0567  0.4466  0.2359
  130OSM    O1213931   6.967   2.834   5.460 -0.3042  0.1950 -0.7246
  130OSM    C1S13932   7.146   2.628   5.577  0.4488 -0.3940 -0.6459
  130OSM    H1S13933   7.192   2.721   5.539 -1.0434  0.2352 -0.9685
  130OSM    H1T13934   7.164   2.542   5.509  2.8649 -0.3021 -0.2026
  130OSM     NF13935   7.363   2.617   5.701  0.2525  0.5091  0.1142
  130OSM    HNF13936   7.413   2.533   5.719 -0.6708 -0.3898 -1.2973
  130OSM    C2S13937   7.215   2.612   5.716 -0.4701 -0.0628 -0.2432
  130OSM    H2S13938   7.185   2.706   5.768  0.5978  1.8313 -2.8324
  130OSM    C3S13939   7.165   2.487   5.801  0.4674 -0.4941  0.1855
  130OSM    H3S13940   7.209   2.395   5.757 -0.6918 -0.1090 -1.9372
  130OSM     O313941   7.022   2.464   5.793 -0.1166  0.4521  1.0773
  130OSM    HO313942   7.005   2.521   5.718 -0.2457  0.1669  0.8866
  130OSM    C4S13943   7.196   2.506   5.944  0.0105 -0.0790 -0.3727
  130OSM    H4S13944   7.117   2.548   6.009  0.2649  0.3344 -0.3268
  130OSM    C5S13945   7.297   2.442   6.006 -0.0088  0.0454  0.3995
  130OSM    H5S13946   7.357   2.372   5.944 -2.4129 -1.6357 -0.1696
  130OSM    C6S13947   7.318   2.430   6.151 -0.4323  0.6336 -0.0743
  130OSM    H6S13948   7.398   2.500   6.183  0.4814 -1.0870  1.5805
  130OSM    H6T13949   7.344   2.328   6.187 -0.4804  1.1613  1.5475
  130OSM    C7S13950   7.212   2.482   6.251 -0.2007 -0.6825 -0.0968
  130OSM    H7S13951   7.122   2.418   6.238  0.9465 -2.8146  1.7070
  130OSM    H7T13952   7.189   2.587   6.226  0.8422 -0.2319  0.7698
  130OSM    C8S13953   7.264   2.479   6.397 -0.2868  0.0237  0.9573
  130OSM    H8S13954   7.351   2.548   6.403 -1.3887  1.9745 -2.5117
  130OSM    H8T13955   7.307   2.380   6.425 -1.5506 -1.1407 -0.9540
  130OSM    C9S13956   7.157   2.527   6.493 -0.8156  0.6875 -1.1710
  130OSM    H9S13957   7.068   2.461   6.492  1.4054 -2.7783  1.8190
  130OSM    H9T13958   7.119   2.629   6.471 -0.2695  0.9160 -1.0662
  130OSM   C10S13959   7.211   2.517   6.640 -0.2777  0.1575 -1.4185
  130OSM   H10S13960   7.306   2.575   6.650 -0.7118  0.7673 -0.6896
  130OSM   H10T13961   7.230   2.414   6.676 -2.4902  0.3608  0.5400
  130OSM   C11S13962   7.124   2.567   6.751 -0.2445  0.0081  0.1971
  130OSM   H11S13963   7.023   2.521   6.746 -0.6382  0.8854 -0.0404
  130OSM   H11T13964   7.108   2.675   6.732 -2.6372 -0.4383 -0.6473
  130OSM   C12S13965   7.182   2.535   6.887  0.2805  0.4158  0.5680
  130OSM   H12S13966   7.176   2.426   6.904  1.9234  0.2210  0.0857
  130OSM   H12T13967   7.118   2.594   6.956  0.2134  0.4541  0.4731
  130OSM   C13S13968   7.337   2.563   6.901  0.6598 -0.0924 -0.2500
  130OSM   H13S13969   7.352   2.672   6.886 -2.8758  0.5699  0.1638
  130OSM   H13T13970   7.404   2.513   6.828  0.5286 -1.8779  0.8046
  130OSM   C14S13971   7.390   2.514   7.041 -0.0146 -0.0564 -0.2997
  130OSM   H14S13972   7.485   2.567   7.061 -1.3490  2.2814  0.1994
  130OSM   H14T13973   7.417   2.406   7.037 -0.0906 -0.0793 -0.2228
  130OSM   C15S13974   7.297   2.531   7.167  0.1243 -0.5658  0.0488
  130OSM   H15S13975   7.364   2.504   7.251 -0.7427 -2.4579  0.1982
  130OSM   H15T13976   7.203   2.473   7.180 -0.8076  0.9615  0.3949
  130OSM   C16S13977   7.266   2.689   7.188 -0.2179 -0.6994  0.4138
  130OSM   H16S13978   7.197   2.723   7.108 -1.0901 -1.7711  0.6891
  130OSM   H16T13979   7.359   2.746   7.167  0.5854 -1.4738  1.7273
  130OSM   C17S13980   7.205   2.720   7.327 -0.9658  0.4422  0.1320
  130OSM   H17S13981   7.270   2.680   7.408 -0.3237 -0.3989 -0.7895
  130OSM   H17T13982   7.109   2.664   7.330  0.4456 -2.0770  1.9724
  130OSM   C18S13983   7.162   2.859   7.367  0.0920  0.5254  0.0474
  130OSM   H18S13984   7.117   2.908   7.278 -0.4741 -1.0674 -0.5715
  130OSM   H18T13985   7.241   2.927   7.408  0.4315  2.3558 -3.3000
  130OSM   H18U13986   7.076   2.851   7.437  0.4210 -3.2344  0.2182
  130OSM    C1F13987   7.432   2.723   5.655  0.4224  0.0151 -0.3045
  130OSM     OF13988   7.375   2.829   5.615 -0.6431 -0.1808 -0.0044
  130OSM    C2F13989   7.582   2.714   5.660 -0.3376 -0.6858 -0.1484
  130OSM    H2F13990   7.634   2.807   5.628  2.1452 -1.5605  1.0594
  130OSM    H2G13991   7.597   2.636   5.582 -0.4662 -0.9990  0.1378
  130OSM    C3F13992   7.639   2.649   5.786 -0.7531  0.3325  0.1638
  130OSM    H3F13993   7.745   2.631   5.759 -0.7719 -0.1175  0.3709
  130OSM    H3G13994   7.592   2.549   5.804  0.5378 -1.0761 -3.3963
  130OSM    C4F13995   7.631   2.731   5.911  0.3603  0.4301 -0.4144
  130OSM    H4F13996   7.523   2.746   5.932 -0.4029 -2.7898 -1.5700
  130OSM    H4G13997   7.667   2.836   5.900  0.6360  0.4830  0.8064
  130OSM    C5F13998   7.708   2.661   6.022  0.3182  0.6973  0.2432
  130OSM    H5F13999   7.806   2.638   5.974 -1.6395 -0.5207 -3.5431
  130OSM    H5G14000   7.666   2.560   6.043  0.5772  0.6565  0.5774
  130OSM    C6F14001   7.729   2.741   6.144 -0.8903 -0.5479 -0.6704
  130OSM    H6F14002   7.632   2.732   6.198 -1.1722  0.1820 -1.0359
  130OSM    H6G14003   7.753   2.847   6.120  0.0557 -0.1183  1.8162
  130OSM    C7F14004   7.839   2.691   6.243 -0.2893 -0.3361 -0.3067
  130OSM    H7F14005   7.935   2.689   6.187  0.3592 -1.2824  0.8009
  130OSM    H7G14006   7.815   2.586   6.268 -1.2142 -0.3274 -1.0887
  130OSM    C8F14007   7.864   2.771   6.371 -0.6309  0.2697  0.0667
  130OSM    H8F14008   7.925   2.859   6.340 -1.8089  0.8133 -0.7525
  130OSM    H8G14009   7.926   2.701   6.431  0.7259  1.4466  0.0840
  130OSM    C9F14010   7.750   2.819   6.453 -0.4098 -0.1689 -0.6248
  130OSM    H9F14011   7.690   2.889   6.392 -0.0881 -0.4359 -1.2561
  130OSM   C10F14012   7.704   2.773   6.575 -0.2543  0.1768 -0.1684
  130OSM   H10F14013   7.616   2.826   6.613  0.9339  1.0224  1.4987
  130OSM   C11F14014   7.757   2.662   6.662 -0.4272 -0.3752  0.9576
  130OSM   H11F14015   7.848   2.612   6.624 -0.0684  0.9869 -0.0336
  130OSM   H11G14016   7.679   2.583   6.660 -0.5629 -0.2506  1.2120
  130OSM   C12F14017   7.792   2.705   6.808 -0.2234  0.9022  0.1797
  130OSM   H12F14018   7.869   2.784   6.795  0.1781  0.5263  0.2563
  130OSM   H12G14019   7.821   2.613   6.863 -3.7622 -0.8089 -0.5524
  130OSM   C13F14020   7.668   2.752   6.882 -0.1624  0.1278 -0.1113
  130OSM   H13F14021   7.592   2.672   6.868 -0.7093  1.1126 -3.8840
  130OSM   H13G14022   7.622   2.840   6.833  1.3005  1.7809  1.3157
  130OSM   C14F14023   7.706   2.785   7.029  0.0158  0.6124  0.2756
  130OSM   H14F14024   7.804   2.836   7.016 -1.2302  2.6575 -2.1686
  130OSM   H14G14025   7.730   2.693   7.086 -2.3418  0.7907  1.6924
  130OSM   C15F14026   7.616   2.887   7.095  1.0587  0.3153 -0.4746
  130OSM   H15F14027   7.511   2.853   7.081  0.6406  1.7941 -1.1703
  130OSM   H15G14028   7.620   2.989   7.051  0.4922  0.5305 -0.0445
  130OSM   C16F14029   7.641   2.899   7.241 -0.2206  0.7966 -0.6438
  130OSM   H16F14030   7.624   2.801   7.291 -0.3197  0.9374 -0.4004
  130OSM   H16G14031   7.569   2.973   7.281  0.1327 -0.0011  1.6307
  130OSM   C17F14032   7.782   2.964   7.266 -0.1513 -0.8301 -0.7588
  130OSM   H17F14033   7.792   3.060   7.211  0.4098 -0.6402 -0.3406
  130OSM   H17G14034   7.858   2.899   7.217  1.7793  2.0760 -1.8695
  130OSM   C18F14035   7.808   2.969   7.420 -0.0560 -0.0479 -0.2608
  130OSM   H18F14036   7.804   2.873   7.475  0.6743 -0.3913 -0.7887
  130OSM   H18G14037   7.739   3.044   7.464  2.0730  1.4906  0.6081
  130OSM   H18H14038   7.910   3.010   7.434  0.0571 -0.3182 -0.2892
  131OSM      N14039   0.935   0.495   5.221  0.3763  0.1354 -0.3858
  131OSM    C1514040   0.789   0.495   5.197 -0.6640 -0.6868  0.3098
  131OSM   H15A14041   0.740   0.416   5.253 -1.8850 -0.6842 -0.7005
  131OSM   H15B14042   0.765   0.467   5.096  2.0700 -2.3524  0.0470
  131OSM   H15C14043   0.739   0.589   5.216  1.3544  0.3257  0.8479
  131OSM    C1414044   0.982   0.354   5.244 -0.0639  0.3923 -0.7601
  131OSM   H14A14045   0.916   0.302   5.310 -2.0730 -0.3401 -3.2036
  131OSM   H14B14046   1.078   0.350   5.293  0.5155  1.9882 -1.6602
  131OSM   H14C14047   0.990   0.300   5.151  0.6550  0.0286 -0.4989
  131OSM    C1314048   1.002   0.546   5.100 -0.3139  0.1916 -0.5123
  131OSM   H13A14049   1.110   0.545   5.108 -0.1761 -3.3486 -1.0809
  131OSM   H13B14050   0.974   0.649   5.082 -0.2312  0.0693 -1.3662
  131OSM   H13C14051   0.976   0.484   5.015 -0.5617  1.1628 -1.1660
  131OSM    C1214052   0.965   0.577   5.336  0.2728 -0.7625 -1.3773
  131OSM   H12A14053   0.927   0.544   5.432 -0.3224 -0.1008 -1.3750
  131OSM   H12B14054   0.938   0.678   5.309  1.1082 -0.3289 -0.6170
  131OSM    C1114055   1.113   0.592   5.380 -0.4194  0.1175  0.8618
  131OSM   H11A14056   1.117   0.654   5.472 -0.5568  0.1749  0.8286
  131OSM   H11B14057   1.164   0.661   5.309 -1.1612 -1.3136 -1.1464
  131OSM      P14058   1.334   0.460   5.409 -0.0500  0.0148  0.1466
  131OSM    O1314059   1.371   0.342   5.488  0.0742 -0.1846  0.1505
  131OSM    O1414060   1.390   0.469   5.272  0.5507 -0.5387 -0.1116
  131OSM    O1114061   1.375   0.583   5.499 -0.1389 -0.2813 -0.1701
  131OSM    O1214062   1.185   0.465   5.397  0.1243 -0.3593  0.2763
  131OSM    C1S14063   1.467   0.580   5.611  0.0904  0.1358  0.0358
  131OSM    H1S14064   1.571   0.600   5.576  0.3787 -2.6962 -1.0660
  131OSM    H1T14065   1.478   0.484   5.665  0.2491  0.7120  1.0385
  131OSM     NF14066   1.539   0.730   5.802  0.0533  0.7301  0.3389
  131OSM    HNF14067   1.523   0.714   5.900  0.6920 -0.1158  0.3176
  131OSM    C2S14068   1.429   0.691   5.713  0.4096 -0.1962 -0.0201
  131OSM    H2S14069   1.405   0.779   5.650  0.1071  0.0296  0.4061
  131OSM    C3S14070   1.304   0.660   5.799  0.1837  0.0594  0.1740
  131OSM    H3S14071   1.344   0.585   5.871  2.7060 -0.8431 -1.9988
  131OSM     O314072   1.185   0.601   5.735  0.9297  0.5906  0.2045
  131OSM    HO314073   1.217   0.567   5.651  0.9032  1.3421 -0.1162
  131OSM    C4S14074   1.264   0.781   5.888 -0.2263 -0.1507 -0.5367
  131OSM    H4S14075   1.257   0.873   5.828 -1.4891 -0.2933 -0.6372
  131OSM    C5S14076   1.243   0.771   6.022 -0.0134 -0.3040 -0.1372
  131OSM    H5S14077   1.271   0.690   6.091 -1.5835  1.1446  2.3653
  131OSM    C6S14078   1.206   0.902   6.096 -0.2297  0.1481 -0.4752
  131OSM    H6S14079   1.114   0.878   6.154 -0.2971 -0.6983 -0.9039
  131OSM    H6T14080   1.165   0.979   6.027 -0.8825 -0.5315 -0.8681
  131OSM    C7S14081   1.308   0.952   6.195  0.4648 -0.2611  0.2686
  131OSM    H7S14082   1.406   0.954   6.143 -0.0941 -2.5734 -1.0034
  131OSM    H7T14083   1.305   0.874   6.275  1.2286  2.0867  2.7272
  131OSM    C8S14084   1.276   1.092   6.250 -1.2974  0.1724 -0.4002
  131OSM    H8S14085   1.241   1.150   6.162  1.1759 -0.5782 -1.9786
  131OSM    H8T14086   1.372   1.131   6.290 -0.8469  0.7126 -1.9639
  131OSM    C9S14087   1.169   1.101   6.354  0.9591 -0.3786 -0.2941
  131OSM    H9S14088   1.201   1.056   6.450  0.4914 -0.8609 -0.3594
  131OSM    H9T14089   1.076   1.058   6.311  0.5137  2.6086 -2.6417
  131OSM   C10S14090   1.125   1.246   6.380  0.2882  0.1201 -0.7822
  131OSM   H10S14091   1.079   1.298   6.293  0.3633  1.0886 -0.2647
  131OSM   H10T14092   1.217   1.302   6.409 -0.4298  0.3666  1.0967
  131OSM   C11S14093   1.017   1.249   6.493  0.8347  0.9982 -0.1015
  131OSM   H11S14094   0.947   1.164   6.478  2.2122 -0.2575  0.2968
  131OSM   H11T14095   0.957   1.342   6.497  1.1673  1.1834  1.5071
  131OSM   C12S14096   1.073   1.222   6.632 -0.1758  0.4708 -0.4833
  131OSM   H12S14097   1.149   1.297   6.665  0.4211 -0.6759  0.8445
  131OSM   H12T14098   1.125   1.124   6.636 -0.6150  0.1950 -1.2910
  131OSM   C13S14099   0.978   1.217   6.747 -0.0950 -0.0103  0.2638
  131OSM   H13S14100   0.891   1.154   6.718  0.9322 -0.1454 -2.7989
  131OSM   H13T14101   0.951   1.322   6.770  0.6013  0.9030 -2.7189
  131OSM   C14S14102   1.035   1.145   6.873  0.3407 -0.2929  0.5832
  131OSM   H14S14103   1.120   1.201   6.918  2.6532 -0.3577 -3.2411
  131OSM   H14T14104   1.071   1.044   6.841  2.7417  0.8438 -0.5758
  131OSM   C15S14105   0.916   1.126   6.965  0.5307  0.4442  0.0950
  131OSM   H15S14106   0.837   1.064   6.916  0.1721  0.2287  0.9198
  131OSM   H15T14107   0.862   1.222   6.978 -1.6071 -0.9576  2.9559
  131OSM   C16S14108   0.933   1.043   7.100 -0.5774  0.1099  0.3100
  131OSM   H16S14109   0.996   0.954   7.082 -0.5537  0.1195  0.3447
  131OSM   H16T14110   0.836   1.012   7.143 -0.2725 -0.0782  0.8669
  131OSM   C17S14111   1.006   1.124   7.210 -0.0892 -0.7674 -0.3761
  131OSM   H17S14112   1.111   1.147   7.181 -0.5427 -0.8374 -2.1926
  131OSM   H17T14113   1.016   1.055   7.296 -1.8266 -1.3776 -0.6159
  131OSM   C18S14114   0.942   1.246   7.271 -0.3975  0.1974 -0.4053
  131OSM   H18S14115   1.019   1.280   7.343  0.5778 -0.5168 -1.0736
  131OSM   H18T14116   0.846   1.223   7.321 -0.2063 -0.4232 -0.3114
  131OSM   H18U14117   0.926   1.326   7.196 -2.6739 -0.2861 -0.5163
  131OSM    C1F14118   1.654   0.777   5.768 -0.2171 -0.0127  0.1210
  131OSM     OF14119   1.682   0.805   5.649  0.6419  0.5406  0.0619
  131OSM    C2F14120   1.752   0.802   5.879  0.3861  0.1382 -0.3515
  131OSM    H2F14121   1.811   0.884   5.834  1.8462 -0.2068  0.8570
  131OSM    H2G14122   1.815   0.712   5.894  0.0531 -0.6889 -3.2611
  131OSM    C3F14123   1.688   0.854   6.010  0.1794  0.4025  0.9034
  131OSM    H3F14124   1.634   0.766   6.049 -0.0148  0.2495  0.3032
  131OSM    H3G14125   1.617   0.937   5.989 -1.2387 -0.9835  0.0641
  131OSM    C4F14126   1.788   0.904   6.113  0.9035  0.6535 -0.7272
  131OSM    H4F14127   1.842   0.990   6.068  1.8729 -0.6260 -2.0852
  131OSM    H4G14128   1.866   0.828   6.132 -0.7549 -0.8624  0.2953
  131OSM    C5F14129   1.711   0.944   6.240  0.4868 -0.4493 -0.0239
  131OSM    H5F14130   1.666   0.854   6.286 -2.1408  1.0965  0.6329
  131OSM    H5G14131   1.630   1.006   6.197 -1.0679 -2.3450  0.0606
  131OSM    C6F14132   1.778   1.026   6.353 -0.9146 -0.1361 -0.0835
  131OSM    H6F14133   1.849   1.087   6.294  0.4237 -1.7898 -0.2449
  131OSM    H6G14134   1.820   0.942   6.412 -1.5267 -1.9488 -2.1264
  131OSM    C7F14135   1.698   1.117   6.445  0.5530  0.6492 -0.0111
  131OSM    H7F14136   1.640   1.184   6.378  1.9086 -0.1860 -2.1171
  131OSM    H7G14137   1.770   1.178   6.504 -0.2137  0.5199  1.0857
  131OSM    C8F14138   1.594   1.042   6.534 -0.3563 -0.1570  0.2129
  131OSM    H8F14139   1.643   0.977   6.610 -0.8186 -0.7445  0.0117
  131OSM    H8G14140   1.542   0.966   6.473 -2.6143  1.7532 -0.3794
  131OSM    C9F14141   1.485   1.122   6.598 -0.7752 -0.3981 -0.5170
  131OSM    H9F14142   1.387   1.130   6.550 -1.9096  0.6427  1.8112
  131OSM   C10F14143   1.517   1.182   6.715 -0.5325  0.3215  0.8612
  131OSM   H10F14144   1.446   1.250   6.763  0.5568  0.5110  2.2716
  131OSM   C11F14145   1.649   1.160   6.786 -0.3948 -0.1027  1.0860
  131OSM   H11F14146   1.667   1.245   6.855  1.6311  0.3665  0.0474
  131OSM   H11G14147   1.734   1.168   6.715 -0.3675 -0.7596  1.0333
  131OSM   C12F14148   1.655   1.036   6.876 -0.0943  0.1730 -0.0628
  131OSM   H12F14149   1.761   1.018   6.905  0.0408 -0.1797 -0.7547
  131OSM   H12G14150   1.639   0.938   6.826 -0.9564 -0.3039  1.0993
  131OSM   C13F14151   1.557   1.033   6.996 -0.7681  0.1963 -0.0479
  131OSM   H13F14152   1.463   1.087   6.973 -0.8257 -0.1587 -0.6566
  131OSM   H13G14153   1.607   1.094   7.074  0.5159  0.4311 -1.0115
  131OSM   C14F14154   1.528   0.893   7.056 -0.4970 -0.3587 -0.0901
  131OSM   H14F14155   1.549   0.807   6.989 -1.3319 -0.2145 -0.5420
  131OSM   H14G14156   1.423   0.883   7.091 -0.4085  1.8537  0.9913
  131OSM   C15F14157   1.615   0.858   7.176 -0.6951 -0.4911  0.2457
  131OSM   H15F14158   1.604   0.944   7.246  0.1735  0.9058 -1.2603
  131OSM   H15G14159   1.722   0.856   7.145 -0.3965 -0.5345  1.2358
  131OSM   C16F14160   1.573   0.728   7.255  0.0000 -0.2937 -0.1520
  131OSM   H16F14161   1.582   0.639   7.189 -0.8570 -0.6577  0.2040
  131OSM   H16G14162   1.466   0.728   7.286  0.4516 -0.5072  1.4869
  131OSM   C17F14163   1.651   0.722   7.380 -0.3485  0.0498  0.2386
  131OSM   H17F14164   1.634   0.812   7.443  0.6119 -0.3662  1.1109
  131OSM   H17G14165   1.759   0.735   7.360 -0.4009 -0.8679 -0.7545
  131OSM   C18F14166   1.638   0.594   7.463 -0.4655 -0.2435  0.3292
  131OSM   H18F14167   1.689   0.509   7.412  1.4312 -0.6490  2.7249
  131OSM   H18G14168   1.533   0.571   7.489  0.1907 -1.2445  2.2699
  131OSM   H18H14169   1.691   0.602   7.560  1.0139 -0.4320 -0.4219
  132OSM      N14170   0.826   6.841   5.599 -0.2282 -0.6340  0.5705
  132OSM    C1514171   0.681   6.845   5.547  0.3058 -0.0855 -0.6340
  132OSM   H15A14172   0.620   6.894   5.622 -0.2915  1.0398 -1.8228
  132OSM   H15B14173   0.646   6.744   5.530  1.0869 -0.4921  0.0792
  132OSM   H15C14174   0.689   6.903   5.457  0.4154  0.6752 -0.1382
  132OSM    C1414175   0.825   6.772   5.727 -0.2004  0.0877 -0.2466
  132OSM   H14A14176   0.769   6.679   5.720 -0.7025  0.4412 -1.0474
  132OSM   H14B14177   0.770   6.828   5.800 -0.2562 -2.7377  2.0632
  132OSM   H14C14178   0.925   6.747   5.761 -0.9767 -2.4090  0.3995
  132OSM    C1314179   0.906   6.758   5.506 -0.2201 -0.1610 -0.9647
  132OSM   H13A14180   0.918   6.816   5.416  0.7395  3.9769  1.5878
  132OSM   H13B14181   0.858   6.661   5.499 -0.6442 -0.0753  0.5419
  132OSM   H13C14182   1.011   6.754   5.533  0.4784  1.1627 -3.2165
  132OSM    C1214183   0.880   6.983   5.607  1.1364 -0.1883  0.1740
  132OSM   H12A14184   0.799   7.045   5.644  0.2653 -1.0028 -0.3098
  132OSM   H12B14185   0.883   7.018   5.505 -2.8635 -0.6920 -0.2761
  132OSM    C1114186   1.013   7.005   5.674 -0.2681 -0.3054  0.3583
  132OSM   H11A14187   1.013   6.963   5.777 -0.7055 -0.3466  0.3448
  132OSM   H11B14188   1.021   7.115   5.685  0.4533 -0.4799  1.8040
  132OSM      P14189   1.264   6.985   5.640 -0.2270 -0.3432  0.0650
  132OSM    O1314190   1.365   6.943   5.539 -0.3494  0.0102 -0.0644
  132OSM    O1414191   1.264   7.126   5.679 -0.0495  0.7794 -0.0704
  132OSM    O1114192   1.297   6.896   5.769 -0.1252 -0.1704 -0.1999
  132OSM    O1214193   1.118   6.942   5.591  0.2277  0.0059 -1.1845
  132OSM    C1S14194   1.247   6.763   5.782 -0.2948 -0.3600  0.3746
  132OSM    H1S14195   1.309   6.695   5.720  0.3872 -0.1078  0.7754
  132OSM    H1T14196   1.139   6.754   5.758 -0.4195 -2.2197  1.4625
  132OSM     NF14197   1.174   6.804   6.016  0.3762 -0.3956  0.5331
  132OSM    HNF14198   1.201   6.890   6.058  1.9076 -0.4626 -0.2453
  132OSM    C2S14199   1.267   6.733   5.935 -0.1342 -0.1202 -0.6958
  132OSM    H2S14200   1.236   6.627   5.950  0.0251 -0.0806 -0.0664
  132OSM    C3S14201   1.422   6.742   5.965  1.0155 -0.9251  0.7635
  132OSM    H3S14202   1.451   6.840   5.922  1.2369 -0.8932  0.9825
  132OSM     O314203   1.502   6.649   5.884 -0.1738  0.1662  0.3054
  132OSM    HO314204   1.451   6.624   5.807  0.5448  4.0180 -1.6669
  132OSM    C4S14205   1.459   6.724   6.109 -0.1409 -0.1163 -0.7625
  132OSM    H4S14206   1.451   6.623   6.150  0.2560 -0.9091 -2.5707
  132OSM    C5S14207   1.537   6.809   6.177  0.7574 -0.4104 -0.7344
  132OSM    H5S14208   1.592   6.893   6.132  1.4397 -0.4199  0.0607
  132OSM    C6S14209   1.589   6.790   6.316 -0.3383 -0.1662  0.0338
  132OSM    H6S14210   1.659   6.869   6.353 -0.2115  0.2540 -1.0546
  132OSM    H6T14211   1.644   6.694   6.316  0.8213  0.4574 -0.9931
  132OSM    C7S14212   1.475   6.768   6.413  0.2293 -1.4338 -1.0913
  132OSM    H7S14213   1.388   6.705   6.384 -0.4476 -0.5132 -1.1196
  132OSM    H7T14214   1.439   6.866   6.451  0.5952 -0.9585 -1.9286
  132OSM    C8S14215   1.514   6.702   6.550 -0.4679  0.3074 -0.4029
  132OSM    H8S14216   1.606   6.743   6.596 -0.8944 -0.9800  1.7695
  132OSM    H8T14217   1.536   6.597   6.520  2.2542  0.9285 -0.8021
  132OSM    C9S14218   1.406   6.714   6.654  0.4677  0.4788 -0.9285
  132OSM    H9S14219   1.317   6.655   6.622  0.5935 -0.0877 -0.2487
  132OSM    H9T14220   1.376   6.819   6.675 -0.0879  0.2004 -0.2815
  132OSM   C10S14221   1.447   6.671   6.797 -0.0219  1.1306  0.6071
  132OSM   H10S14222   1.545   6.721   6.812  0.0684  0.8378  1.0263
  132OSM   H10T14223   1.469   6.563   6.788 -0.1449  1.2904 -3.5090
  132OSM   C11S14224   1.341   6.708   6.896  0.5839  1.2255 -0.8401
  132OSM   H11S14225   1.256   6.641   6.873  0.1535  2.4015 -2.9916
  132OSM   H11T14226   1.306   6.814   6.887 -2.7027  0.4492  1.2370
  132OSM   C12S14227   1.376   6.702   7.050  0.4126  0.0055 -0.2289
  132OSM   H12S14228   1.465   6.761   7.079  1.8784 -2.0077 -0.4553
  132OSM   H12T14229   1.390   6.599   7.088 -0.9812 -0.7768 -1.6955
  132OSM   C13S14230   1.254   6.730   7.133 -0.6042 -0.2290 -0.0965
  132OSM   H13S14231   1.171   6.658   7.114 -0.6349 -0.1720 -0.1773
  132OSM   H13T14232   1.217   6.828   7.097  0.6219  0.0135 -0.7732
  132OSM   C14S14233   1.296   6.747   7.275 -0.2452  0.2643  0.1841
  132OSM   H14S14234   1.369   6.828   7.295  0.9410 -1.1337  1.7795
  132OSM   H14T14235   1.332   6.647   7.308 -1.4714 -0.0984  0.4747
  132OSM   C15S14236   1.163   6.782   7.354  0.0702 -0.2566  0.8625
  132OSM   H15S14237   1.089   6.718   7.301  0.7692 -1.0904  0.8762
  132OSM   H15T14238   1.122   6.884   7.343  1.4783  0.4260  1.6407
  132OSM   C16S14239   1.170   6.733   7.501  0.3390  0.0740  0.2609
  132OSM   H16S14240   1.212   6.820   7.556  1.6421  1.0906 -2.1812
  132OSM   H16T14241   1.241   6.651   7.522 -1.0701 -1.6038 -1.1968
  132OSM   C17S14242   1.038   6.695   7.566  0.5463  0.4592 -0.0549
  132OSM   H17S14243   0.964   6.770   7.533  0.0206 -0.4043 -0.8874
  132OSM   H17T14244   1.049   6.687   7.676  2.8865  0.7437 -0.2146
  132OSM   C18S14245   0.989   6.557   7.515 -0.5195 -0.4449  0.5022
  132OSM   H18S14246   0.886   6.539   7.551  0.3652 -1.3903  2.7866
  132OSM   H18T14247   1.053   6.477   7.558  1.7305 -0.4982 -2.5406
  132OSM   H18U14248   0.990   6.555   7.404  0.7999 -0.1712  0.4927
  132OSM    C1F14249   1.043   6.774   6.018 -0.0639 -0.0788 -0.4818
  132OSM     OF14250   1.006   6.678   5.951  0.1657 -0.3708  0.3915
  132OSM    C2F14251   0.942   6.865   6.088 -0.0582 -0.4181 -0.1602
  132OSM    H2F14252   0.862   6.894   6.016  0.9563  0.0513 -1.1219
  132OSM    H2G14253   0.987   6.960   6.124  1.1850 -1.2615  0.5829
  132OSM    C3F14254   0.877   6.800   6.210  0.9362 -0.3484  0.5701
  132OSM    H3F14255   0.847   6.699   6.175  0.0557  0.4468 -1.0655
  132OSM    H3G14256   0.784   6.856   6.232  0.6433  1.9765 -4.9489
  132OSM    C4F14257   0.966   6.807   6.339 -0.2515  0.2815 -0.0953
  132OSM    H4F14258   0.965   6.911   6.378 -3.0366  0.1725  0.3508
  132OSM    H4G14259   1.072   6.792   6.310  0.1919 -0.0660  1.5731
  132OSM    C5F14260   0.925   6.711   6.447  0.2048  0.2369  0.2524
  132OSM    H5F14261   0.896   6.612   6.404 -0.1998  0.3035  0.3708
  132OSM    H5G14262   0.830   6.754   6.484 -0.5488 -2.4297  1.7177
  132OSM    C6F14263   1.046   6.688   6.545  0.1915  0.1955 -0.0684
  132OSM    H6F14264   1.085   6.781   6.591 -0.4862  0.3214  0.2554
  132OSM    H6G14265   1.128   6.638   6.488 -0.5383 -2.9314  1.4142
  132OSM    C7F14266   1.013   6.583   6.645 -0.3058  0.3999  0.7914
  132OSM    H7F14267   1.099   6.515   6.661 -0.1853  0.2896 -0.3081
  132OSM    H7G14268   0.946   6.507   6.601 -0.8143  0.6270  1.1608
  132OSM    C8F14269   0.992   6.632   6.788  0.6837 -0.3038  0.2353
  132OSM    H8F14270   1.070   6.707   6.811  0.6762 -0.6814  1.5757
  132OSM    H8G14271   1.025   6.551   6.856  0.1946  0.4530  1.4122
  132OSM    C9F14272   0.860   6.694   6.812  0.7195  0.4679  0.3546
  132OSM    H9F14273   0.823   6.781   6.756 -0.9097 -0.8189 -0.6769
  132OSM   C10F14274   0.769   6.647   6.898 -0.1669 -0.3646  0.5228
  132OSM   H10F14275   0.663   6.674   6.901 -0.1278 -0.2292  0.7050
  132OSM   C11F14276   0.800   6.523   6.974 -0.6320 -0.3554 -0.2903
  132OSM   H11F14277   0.838   6.555   7.073 -2.2323  0.5093  0.0778
  132OSM   H11G14278   0.878   6.455   6.934  1.7288  1.6137  0.7365
  132OSM   C12F14279   0.676   6.432   6.999 -1.0085  0.1673 -0.6404
  132OSM   H12F14280   0.721   6.347   7.054 -0.4882  1.4486  1.0000
  132OSM   H12G14281   0.648   6.399   6.897  0.5924  0.2397 -1.1242
  132OSM   C13F14282   0.560   6.481   7.093 -0.4497  0.0381  0.0468
  132OSM   H13F14283   0.485   6.399   7.090  0.6344 -0.9716 -3.1772
  132OSM   H13G14284   0.517   6.576   7.055 -0.6421 -0.0621  0.0128
  132OSM   C14F14285   0.609   6.483   7.244  0.3112 -0.0477  0.4120
  132OSM   H14F14286   0.669   6.573   7.270 -0.1047 -0.1029  1.6217
  132OSM   H14G14287   0.672   6.394   7.265 -1.1254 -0.7098  2.2542
  132OSM   C15F14288   0.493   6.480   7.347 -0.4343 -0.8118 -0.5509
  132OSM   H15F14289   0.417   6.404   7.321 -0.4260 -0.4325 -1.7598
  132OSM   H15G14290   0.437   6.576   7.340  1.5756  0.3324 -2.3010
  132OSM   C16F14291   0.535   6.460   7.495  0.3243  0.5407 -0.7089
  132OSM   H16F14292   0.441   6.467   7.554  0.2646  1.9330 -0.9331
  132OSM   H16G14293   0.612   6.535   7.523 -0.3299  1.7123 -1.9713
  132OSM   C17F14294   0.593   6.321   7.521 -0.3035  0.4800 -0.5666
  132OSM   H17F14295   0.663   6.298   7.439  1.8929 -0.7306  1.5293
  132OSM   H17G14296   0.515   6.243   7.508 -0.0320  0.4092 -1.8953
  132OSM   C18F14297   0.662   6.312   7.659  0.5849  0.5443 -0.3663
  132OSM   H18F14298   0.704   6.210   7.674 -0.2306  0.2295 -0.1408
  132OSM   H18G14299   0.590   6.318   7.744  0.6514 -0.4530 -0.2265
  132OSM   H18H14300   0.735   6.393   7.677  0.4746  0.3968  0.8328
  133SAPE     N14301   3.007   3.656   9.864 -0.4402  0.6475 -0.2542
  133SAPE   HN114302   2.943   3.731   9.830 -0.0184  0.7448 -0.8303
  133SAPE   HN214303   3.031   3.679   9.963  0.5608  0.1608 -0.3726
  133SAPE   HN314304   3.084   3.642   9.796 -0.5615  0.0864 -0.2829
  133SAPE   C1214305   2.928   3.522   9.872  0.1502  0.0057 -0.0402
  133SAPE  H12A14306   2.827   3.547   9.913  0.5466  0.3044  0.7822
  133SAPE  H12B14307   2.997   3.449   9.920  0.4386 -0.6909 -1.4839
  133SAPE   C1114308   2.895   3.464   9.726  0.1676  0.3241  0.1196
  133SAPE  H11A14309   2.997   3.437   9.690  0.3488 -1.2728  1.7252
  133SAPE  H11B14310   2.873   3.550   9.659  0.6111  0.6277  0.3525
  133SAPE     P14311   2.672   3.345   9.627  0.0083 -0.2167 -0.2507
  133SAPE   O1314312   2.642   3.201   9.604  0.5685  0.0003 -0.2388
  133SAPE   O1414313   2.564   3.419   9.688 -0.2848 -0.0589 -0.4054
  133SAPE   O1214314   2.801   3.359   9.721  0.0842  0.1672 -0.4016
  133SAPE   O1114315   2.714   3.411   9.495 -0.2714  0.0114  0.7021
  133SAPE    C114316   2.809   3.341   9.405  0.0578 -0.1350  0.0624
  133SAPE    HA14317   2.880   3.277   9.462 -0.2064 -1.6883 -1.2844
  133SAPE    HB14318   2.749   3.286   9.329 -0.5843  1.8824 -0.9552
  133SAPE    C214319   2.890   3.446   9.326  0.2111  0.4498  0.1335
  133SAPE    HS14320   2.940   3.505   9.406 -1.7927  1.2840  0.8302
  133SAPE   O2114321   2.801   3.535   9.256 -0.0278 -0.0712 -0.1659
  133SAPE   C2114322   2.873   3.635   9.202  0.1909 -0.5067  0.1066
  133SAPE   O2214323   2.990   3.656   9.236  0.1978  0.0722 -0.6039
  133SAPE   C2214324   2.785   3.718   9.106 -0.2463 -0.6803  0.1768
  133SAPE   H2R14325   2.698   3.657   9.071  0.4473 -0.0640 -2.9207
  133SAPE   H2S14326   2.750   3.801   9.170  1.8419  0.6472 -0.3089
  133SAPE    C314327   2.984   3.374   9.218 -0.1446 -0.9472 -0.0928
  133SAPE    HX14328   3.036   3.289   9.267 -0.2987 -0.6576  0.5860
  133SAPE    HY14329   3.067   3.442   9.192 -0.4010 -1.4068 -2.3126
  133SAPE   O3114330   2.917   3.344   9.096  0.3685  0.5093 -0.0663
  133SAPE   C3114331   2.855   3.221   9.086  0.2179 -0.1971  0.1104
  133SAPE   O3214332   2.860   3.134   9.173  0.0189 -0.4730  0.2204
  133SAPE   C3214333   2.777   3.203   8.954  0.5390  0.6581  0.3563
  133SAPE   H2X14334   2.749   3.096   8.963  1.2381  0.5925  2.3224
  133SAPE   H2Y14335   2.844   3.224   8.868 -1.6540  0.9423 -1.3783
  133SAPE   C2314336   2.865   3.775   8.987 -0.4032 -0.0224 -0.0170
  133SAPE   H3R14337   2.957   3.829   9.018 -1.3753  1.9799 -0.4665
  133SAPE   H3S14338   2.802   3.857   8.947  1.5887  0.5634 -2.2527
  133SAPE   C2414339   2.889   3.676   8.875  0.8025 -0.8693  0.5174
  133SAPE   H4R14340   2.795   3.620   8.852 -1.3099  2.1572  1.2308
  133SAPE   H4S14341   2.967   3.602   8.903 -0.3372 -3.1942 -1.9301
  133SAPE   C2514342   2.920   3.750   8.741 -0.5568  0.3767 -0.1079
  133SAPE   H5R14343   2.843   3.810   8.691  1.1196  1.1060 -1.9403
  133SAPE   C2614344   3.037   3.747   8.676  0.1354 -0.3355 -0.6430
  133SAPE   H6R14345   3.049   3.796   8.578  1.1276 -2.0631 -1.4313
  133SAPE   C2714346   3.160   3.666   8.706  0.2885  0.4935 -0.9415
  133SAPE   H7R14347   3.151   3.621   8.808 -1.9732 -0.1215 -1.3486
  133SAPE   H7S14348   3.256   3.721   8.712  1.3570 -1.4171  1.6520
  133SAPE   C2814349   3.159   3.553   8.614 -0.0672  0.2818 -0.0732
  133SAPE   H8R14350   3.101   3.467   8.651  0.9515 -0.0257  0.8698
  133SAPE   C2914351   3.221   3.540   8.497  0.4059 -0.0903 -0.4822
  133SAPE   H9R14352   3.171   3.465   8.434 -0.7831  0.3290 -0.0554
  133SAPE  C21014353   3.318   3.635   8.435 -0.0449 -0.3170 -0.3484
  133SAPE  H10R14354   3.360   3.715   8.499 -0.7407  0.6068 -1.0221
  133SAPE  H10S14355   3.260   3.689   8.357 -1.8410 -1.4756  0.1068
  133SAPE  C21114356   3.446   3.579   8.389 -0.0069 -0.0387 -0.0072
  133SAPE  H11R14357   3.524   3.587   8.466 -0.9634  0.9151  0.9110
  133SAPE  C21214358   3.466   3.509   8.278 -0.0187 -0.0161 -0.4809
  133SAPE  H12R14359   3.569   3.482   8.250  0.2555 -1.1018  1.3952
  133SAPE  C21314360   3.359   3.473   8.175  0.0440 -0.0115  0.0296
  133SAPE  H13R14361   3.321   3.569   8.134 -0.3482  0.4819  1.4723
  133SAPE  H13S14362   3.274   3.415   8.216  0.9732 -0.7381  1.0120
  133SAPE  C21414363   3.416   3.388   8.061 -0.4204 -0.6532  0.1404
  133SAPE  H14R14364   3.459   3.292   8.093 -1.3174 -0.7529  1.0854
  133SAPE  C21514365   3.405   3.412   7.933  0.9926  0.5577  0.0042
  133SAPE  H15R14366   3.470   3.347   7.872 -2.2030 -2.2468 -0.7696
  133SAPE  C21614367   3.336   3.522   7.863 -0.3769 -0.4868  0.2552
  133SAPE  H16R14368   3.257   3.566   7.929 -0.3670 -0.7811  0.4641
  133SAPE  H16S14369   3.284   3.492   7.770 -1.1886  1.5061  0.0019
  133SAPE  C21714370   3.434   3.641   7.824  0.1801 -0.1652  0.0129
  133SAPE  H17R14371   3.506   3.669   7.904  2.0144  0.3430 -1.7321
  133SAPE  H17S14372   3.372   3.730   7.799  2.6576  0.9867 -2.7376
  133SAPE  C21814373   3.530   3.615   7.707  0.1014 -0.9036  0.0525
  133SAPE  H18R14374   3.618   3.553   7.736  0.5833 -0.0118  0.5486
  133SAPE  H18S14375   3.567   3.719   7.692 -1.9190 -0.3150 -1.2143
  133SAPE  C21914376   3.464   3.568   7.582 -0.2002  0.0907 -0.4382
  133SAPE  H19R14377   3.383   3.643   7.567  0.1541  1.1316  2.3807
  133SAPE  H19S14378   3.426   3.465   7.602  0.3574 -0.0433 -0.0690
  133SAPE  C22014379   3.554   3.557   7.457  0.8368  0.7611 -0.7738
  133SAPE  H20R14380   3.635   3.487   7.485  0.8809  1.4463  0.9616
  133SAPE  H20S14381   3.589   3.656   7.421 -2.7443  2.2260 -0.6654
  133SAPE  H20T14382   3.490   3.513   7.378 -1.1614 -0.3027  1.3078
  133SAPE   C3314383   2.645   3.286   8.954 -0.7643  0.1761 -0.3517
  133SAPE   H3X14384   2.679   3.391   8.957 -0.2671  0.1443 -2.9309
  133SAPE   H3Y14385   2.598   3.274   9.055 -0.1558  1.9563  0.1854
  133SAPE   C3414386   2.542   3.272   8.843 -0.1958 -0.2718  0.1807
  133SAPE   H4X14387   2.463   3.350   8.838 -0.0765 -0.0499 -5.8793
  133SAPE   H4Y14388   2.491   3.175   8.858 -1.0734 -0.0697 -1.3045
  133SAPE   C3514389   2.614   3.262   8.708 -0.3442 -0.0043  0.2114
  133SAPE   H5X14390   2.540   3.235   8.629 -0.6598  1.5691 -0.0610
  133SAPE   H5Y14391   2.692   3.183   8.704 -0.8458 -0.4792 -0.2858
  133SAPE   C3614392   2.676   3.394   8.676 -0.2681 -0.4515  0.5013
  133SAPE   H6X14393   2.786   3.386   8.684 -0.2965 -0.5326  0.8496
  133SAPE   H6Y14394   2.653   3.473   8.751 -0.6285 -0.0523 -0.0253
  133SAPE   C3714395   2.645   3.433   8.530  0.0188  0.1252 -0.3787
  133SAPE   H7X14396   2.540   3.470   8.522  0.1291  0.2719 -1.3351
  133SAPE   H7Y14397   2.659   3.349   8.459 -1.7830 -2.2058  1.8522
  133SAPE   C3814398   2.748   3.534   8.482 -0.2148 -0.4074  0.4105
  133SAPE   H8X14399   2.852   3.494   8.484 -0.1167 -0.5006 -2.2536
  133SAPE   H8Y14400   2.753   3.611   8.562  0.4170 -0.0242  0.0093
  133SAPE   C3914401   2.698   3.585   8.346 -0.2957  0.0633 -0.0519
  133SAPE   H9X14402   2.599   3.636   8.351  1.4668  3.7241  3.3904
  133SAPE   H9Y14403   2.698   3.498   8.278 -1.5274  1.0121 -1.3405
  133SAPE  C31014404   2.792   3.691   8.285 -0.2665  0.1089  0.1685
  133SAPE  H10X14405   2.774   3.792   8.328 -0.2116  0.2775 -0.1968
  133SAPE  H10Y14406   2.764   3.691   8.178 -0.7532  0.1335  0.2961
  133SAPE  C31114407   2.946   3.654   8.284  0.2949 -0.7684 -0.4505
  133SAPE  H11X14408   2.968   3.550   8.252  2.4857 -1.1450  1.9353
  133SAPE  H11Y14409   2.985   3.671   8.387  0.7021  1.2187 -0.9069
  133SAPE  C31214410   3.034   3.744   8.195 -0.0342  0.1414 -0.0164
  133SAPE  H12X14411   3.015   3.731   8.086  0.1007  1.9190 -0.2753
  133SAPE  H12Y14412   3.138   3.706   8.208  0.3580  0.1987 -2.5171
  133SAPE  C31314413   3.038   3.895   8.223  0.5307  0.6960 -0.5344
  133SAPE  H13X14414   3.098   3.907   8.316  0.3745  0.5577 -0.4158
  133SAPE  H13Y14415   2.935   3.927   8.250  0.7514 -0.6409  2.2586
  133SAPE  C31414416   3.111   3.966   8.108  0.2937  0.3818  0.3083
  133SAPE  H14X14417   3.197   3.900   8.085  1.0148  1.5363 -0.3956
  133SAPE  H14Y14418   3.143   4.062   8.154 -1.7807  1.3879 -0.2212
  133SAPE  C31514419   3.031   3.997   7.975 -0.0233 -0.0965  0.5485
  133SAPE  H15X14420   2.930   4.035   7.998 -0.2308  1.3079 -2.2402
  133SAPE  H15Y14421   3.016   3.892   7.941 -1.3818  0.6607 -1.3812
  133SAPE  C31614422   3.112   4.074   7.876  0.8902  0.2687 -0.0698
  133SAPE  H16X14423   3.214   4.029   7.876  0.8198 -0.0201  2.4438
  133SAPE  H16Y14424   3.126   4.177   7.914  1.4281  0.4687 -0.7935
  133SAPE  C31714425   3.052   4.058   7.733  0.4052  0.0855  0.3172
  133SAPE  H17X14426   2.949   4.097   7.733  0.7262  1.1397  2.7695
  133SAPE  H17Y14427   3.051   3.950   7.709  0.9394  0.2062 -0.2768
  133SAPE  C31814428   3.132   4.135   7.627  0.2274  0.4881 -0.2587
  133SAPE  H18X14429   3.170   4.233   7.663 -0.1713  1.6208 -2.6611
  133SAPE  H18Y14430   3.089   4.155   7.526  1.0451 -1.6241 -1.0841
  133SAPE  H18Z14431   3.225   4.077   7.609 -1.4449 -2.2400 -0.7636
  134SAPE     N14432   5.495   2.814   9.612 -0.2835 -0.1422 -0.1352
  134SAPE   HN114433   5.578   2.818   9.549 -1.0362  0.1900 -1.1199
  134SAPE   HN214434   5.518   2.782   9.708 -1.0996  1.9853  0.8263
  134SAPE   HN314435   5.425   2.749   9.571  0.2697 -0.2871 -0.8710
  134SAPE   C1214436   5.417   2.941   9.620 -0.7929  0.3723  0.4732
  134SAPE  H12A14437   5.471   3.004   9.694  0.2921 -1.9836  1.7949
  134SAPE  H12B14438   5.317   2.916   9.662 -1.2946  1.9281  0.2555
  134SAPE   C1114439   5.402   3.022   9.492 -0.2615  0.1742  0.5049
  134SAPE  H11A14440   5.361   2.945   9.423 -0.2457  2.0680 -1.7533
  134SAPE  H11B14441   5.487   3.042   9.424  0.4841  2.1928  1.9114
  134SAPE     P14442   5.176   3.145   9.478 -0.1640  0.0850  0.5611
  134SAPE   O1314443   5.115   3.008   9.485  0.0083  0.0640  0.5730
  134SAPE   O1414444   5.109   3.251   9.558 -0.0280  0.6325  0.2920
  134SAPE   O1214445   5.325   3.142   9.508 -0.3886 -0.4550  0.0470
  134SAPE   O1114446   5.167   3.188   9.328 -0.0197 -0.4654 -0.5398
  134SAPE    C114447   5.219   3.316   9.284  0.4434 -0.2319  0.1907
  134SAPE    HA14448   5.131   3.360   9.231  0.9046 -0.0796 -0.4531
  134SAPE    HB14449   5.233   3.382   9.373 -2.0329 -0.0452  0.5250
  134SAPE    C214450   5.339   3.324   9.186 -0.3926 -0.2210 -0.0727
  134SAPE    HS14451   5.428   3.295   9.246  0.9385 -1.9421 -2.6984
  134SAPE   O2114452   5.352   3.458   9.125  0.1082 -0.6479 -0.0675
  134SAPE   C2114453   5.478   3.494   9.086 -0.5739  0.1841 -0.1289
  134SAPE   O2214454   5.575   3.435   9.129 -0.6280 -0.0945 -0.3728
  134SAPE   C2214455   5.476   3.613   8.983  0.3880  0.4429  0.4804
  134SAPE   H2R14456   5.460   3.569   8.882  0.2926 -5.5592  2.6713
  134SAPE   H2S14457   5.400   3.685   9.019 -1.2542 -0.4329 -1.1300
  134SAPE    C314458   5.329   3.216   9.077 -0.4493  0.1277  0.3925
  134SAPE    HX14459   5.220   3.219   9.055 -0.4514  1.5927  0.5114
  134SAPE    HY14460   5.335   3.120   9.133  0.4269  0.7627  1.4277
  134SAPE   O3114461   5.413   3.232   8.960  0.2237 -0.1878 -0.4619
  134SAPE   C3114462   5.506   3.138   8.938 -0.3954  0.0467  0.7989
  134SAPE   O3214463   5.525   3.032   8.995  0.3946 -0.3514  0.2268
  134SAPE   C3214464   5.615   3.204   8.843 -0.4908 -0.1344  0.2031
  134SAPE   H2X14465   5.586   3.310   8.830  1.6310  0.5402  0.6092
  134SAPE   H2Y14466   5.601   3.165   8.739  0.2543  3.0656 -1.2260
  134SAPE   C2314467   5.608   3.689   8.971 -0.3237 -0.2421  0.1330
  134SAPE   H3R14468   5.656   3.712   9.068 -0.5374 -0.0761  0.1998
  134SAPE   H3S14469   5.579   3.783   8.919 -0.1034 -0.6238 -0.7074
  134SAPE   C2414470   5.719   3.624   8.880 -0.1082  0.0484 -0.1359
  134SAPE   H4R14471   5.744   3.532   8.936 -2.0831  0.7096  1.9992
  134SAPE   H4S14472   5.806   3.692   8.888 -0.2387  0.1831  0.1522
  134SAPE   C2514473   5.689   3.596   8.736  0.5816  0.6363 -0.1066
  134SAPE   H5R14474   5.642   3.497   8.728  0.2903  0.8341 -0.8981
  134SAPE   C2614475   5.731   3.654   8.621  0.5411 -1.0952  0.4194
  134SAPE   H6R14476   5.693   3.611   8.527 -1.2671 -2.0058  1.5062
  134SAPE   C2714477   5.827   3.776   8.613  0.2982 -0.0560  1.0986
  134SAPE   H7R14478   5.888   3.788   8.705  0.3117  2.3048  0.8199
  134SAPE   H7S14479   5.759   3.864   8.613 -3.0328 -2.3919 -1.0270
  134SAPE   C2814480   5.923   3.770   8.498 -0.0160 -0.4925  0.2104
  134SAPE   H8R14481   5.992   3.684   8.493 -0.4025 -0.9659  2.3310
  134SAPE   C2914482   5.938   3.864   8.401 -0.1766  0.2035  0.3253
  134SAPE   H9R14483   6.026   3.855   8.335  2.5346 -0.6152  3.7793
  134SAPE  C21014484   5.866   3.999   8.402 -0.4900  0.6709  0.1113
  134SAPE  H10R14485   5.760   3.982   8.432 -0.2859  2.9469  2.4160
  134SAPE  H10S14486   5.872   4.043   8.300 -0.7774 -1.0484 -0.6881
  134SAPE  C21114487   5.914   4.103   8.497 -0.0986  0.6773  0.6496
  134SAPE  H11R14488   6.000   4.074   8.558 -0.8118  0.7812  1.7318
  134SAPE  C21214489   5.868   4.228   8.499 -0.6392 -0.0374 -0.0648
  134SAPE  H12R14490   5.925   4.296   8.563  1.8467  0.2439 -2.3771
  134SAPE  C21314491   5.766   4.275   8.398  0.3489 -0.1301 -0.7501
  134SAPE  H13R14492   5.719   4.356   8.458 -0.7203 -1.7255  0.6793
  134SAPE  H13S14493   5.680   4.204   8.390  0.4251 -0.4617  0.9732
  134SAPE  C21414494   5.820   4.326   8.266  0.1599  0.0595 -0.6526
  134SAPE  H14R14495   5.925   4.360   8.266  0.7933 -1.7648 -0.1768
  134SAPE  C21514496   5.761   4.325   8.144  0.3113 -1.1053 -0.2249
  134SAPE  H15R14497   5.816   4.354   8.054  1.1944  1.1318  0.9398
  134SAPE  C21614498   5.620   4.282   8.110 -0.5306  0.3661 -0.3912
  134SAPE  H16R14499   5.593   4.326   8.011  0.0272  1.8738  0.0970
  134SAPE  H16S14500   5.547   4.320   8.184  0.5560  1.4370  0.1780
  134SAPE  C21714501   5.609   4.129   8.097 -0.2589  0.3881  0.1434
  134SAPE  H17R14502   5.621   4.081   8.196 -1.5805  0.7877  0.5013
  134SAPE  H17S14503   5.678   4.075   8.027 -1.1597 -0.8923  0.2113
  134SAPE  C21814504   5.468   4.093   8.052 -0.6955 -0.6085 -0.2784
  134SAPE  H18R14505   5.396   4.174   8.073  1.0357  0.9249  0.0292
  134SAPE  H18S14506   5.446   4.001   8.110  2.3866 -0.9699  0.5029
  134SAPE  C21914507   5.442   4.053   7.903  0.5057  0.7956  0.3854
  134SAPE  H19R14508   5.342   4.004   7.898 -0.0065  1.8767 -4.1456
  134SAPE  H19S14509   5.510   3.971   7.873 -0.8199  0.3110 -1.5005
  134SAPE  C22014510   5.438   4.171   7.809  0.1272 -0.4583  0.1271
  134SAPE  H20R14511   5.352   4.239   7.830 -0.4424 -0.3261 -2.3357
  134SAPE  H20S14512   5.444   4.137   7.704 -2.3116  1.0705 -0.5986
  134SAPE  H20T14513   5.529   4.231   7.827 -0.1900  0.0290  0.1361
  134SAPE   C3314514   5.757   3.197   8.907  0.1441  0.1530  0.2991
  134SAPE   H3X14515   5.763   3.222   9.015  2.2474 -0.1921  0.3053
  134SAPE   H3Y14516   5.818   3.275   8.857 -0.5931  1.0030  0.6857
  134SAPE   C3414517   5.813   3.049   8.892 -0.0435  0.1195  0.3284
  134SAPE   H4X14518   5.775   3.016   8.793  2.2947 -1.0357 -0.2401
  134SAPE   H4Y14519   5.778   2.980   8.971  0.6638 -1.2795 -0.5553
  134SAPE   C3514520   5.965   3.031   8.874  0.5667  0.6977  0.3017
  134SAPE   H5X14521   5.999   3.116   8.810 -0.2948 -0.4132 -1.7347
  134SAPE   H5Y14522   5.973   2.932   8.824 -0.0026  0.3691  0.8540
  134SAPE   C3614523   6.042   3.010   9.006  0.6143  0.0818 -0.1291
  134SAPE   H6X14524   5.989   2.929   9.061  1.5802 -0.8249 -0.4976
  134SAPE   H6Y14525   6.058   3.103   9.066  2.2427  0.6538 -1.3898
  134SAPE   C3714526   6.191   2.948   8.992  1.1678  0.6715 -1.2222
  134SAPE   H7X14527   6.186   2.840   8.969  0.9051  0.8461 -2.0555
  134SAPE   H7Y14528   6.229   2.973   9.093  1.4838  0.4025 -1.2723
  134SAPE   C3814529   6.269   3.008   8.883 -0.1871  0.5821  0.0753
  134SAPE   H8X14530   6.276   3.115   8.912  0.7808  0.3800  0.6010
  134SAPE   H8Y14531   6.210   3.000   8.789  0.2090  1.1629 -0.2276
  134SAPE   C3914532   6.417   2.958   8.871 -0.5308  0.6559 -0.3945
  134SAPE   H9X14533   6.428   2.848   8.874  0.7137  0.6681 -2.4059
  134SAPE   H9Y14534   6.480   2.993   8.956 -0.9611 -1.8082  1.0201
  134SAPE  C31014535   6.489   2.987   8.736  0.1657 -0.6064  0.2754
  134SAPE  H10X14536   6.595   3.013   8.759  0.1300  1.4789 -1.5627
  134SAPE  H10Y14537   6.459   3.085   8.693  1.6314 -0.1818  0.1906
  134SAPE  C31114538   6.467   2.895   8.620  0.0213  0.9275  0.1538
  134SAPE  H11X14539   6.497   2.797   8.662  0.2509  0.8696 -0.1445
  134SAPE  H11Y14540   6.540   2.915   8.538 -0.3476  2.7356  0.2296
  134SAPE  C31214541   6.325   2.896   8.556  0.0225 -0.0070 -0.1345
  134SAPE  H12X14542   6.280   2.997   8.549  1.1963  0.4772 -1.0698
  134SAPE  H12Y14543   6.255   2.830   8.612 -0.5123 -0.6919 -1.5540
  134SAPE  C31314544   6.331   2.839   8.414  0.0374 -0.3473  0.2529
  134SAPE  H13X14545   6.417   2.882   8.359  0.9645 -3.1386 -0.6590
  134SAPE  H13Y14546   6.232   2.859   8.367 -0.2423 -0.1104  0.9323
  134SAPE  C31414547   6.361   2.683   8.415  0.5592  0.2114 -0.2891
  134SAPE  H14X14548   6.310   2.630   8.499  0.0552  0.3856 -0.4826
  134SAPE  H14Y14549   6.471   2.675   8.429  0.4336  0.8522  1.2282
  134SAPE  C31514550   6.311   2.632   8.278 -0.2492  0.9902  0.1143
  134SAPE  H15X14551   6.363   2.671   8.188 -1.9832 -2.7124 -2.7637
  134SAPE  H15Y14552   6.205   2.666   8.274 -0.4146  0.6657  1.3866
  134SAPE  C31614553   6.331   2.479   8.273 -0.3316 -0.2226 -0.1389
  134SAPE  H16X14554   6.282   2.440   8.365  0.7511  0.4696  0.7659
  134SAPE  H16Y14555   6.436   2.445   8.283  0.0600  0.7969 -0.5972
  134SAPE  C31714556   6.264   2.423   8.148 -0.1723  0.5386  0.1928
  134SAPE  H17X14557   6.269   2.312   8.157 -2.1620  0.3458 -0.6939
  134SAPE  H17Y14558   6.325   2.457   8.062  0.6268 -0.6054  0.2738
  134SAPE  C31814559   6.120   2.459   8.120 -0.0981 -0.6652 -0.9026
  134SAPE  H18X14560   6.113   2.565   8.088 -1.1095 -0.7882 -1.1213
  134SAPE  H18Y14561   6.060   2.451   8.213  1.8263 -1.0955  0.3479
  134SAPE  H18Z14562   6.065   2.404   8.040  0.4313 -2.4118 -0.1257
  135SAPE     N14563   4.733   1.897   9.383  0.0883  0.3382 -0.0067
  135SAPE   HN114564   4.711   1.798   9.406 -1.4874  1.0613  1.9612
  135SAPE   HN214565   4.665   1.926   9.310 -1.2809  0.4028  1.2482
  135SAPE   HN314566   4.832   1.911   9.354  1.1127 -3.8013  0.9199
  135SAPE   C1214567   4.708   1.990   9.498 -0.1624  0.1681 -0.1505
  135SAPE  H12A14568   4.608   1.965   9.538 -0.0379 -0.7301 -0.3793
  135SAPE  H12B14569   4.719   2.095   9.465  2.4112 -0.0003 -0.0617
  135SAPE   C1114570   4.807   1.970   9.611  0.2600  0.0179  0.5839
  135SAPE  H11A14571   4.791   1.874   9.665 -0.9634  0.4660  1.0438
  135SAPE  H11B14572   4.791   2.054   9.682 -0.6217  0.3083  0.0449
  135SAPE     P14573   5.057   1.953   9.681 -0.1248 -0.3716 -0.0141
  135SAPE   O1314574   5.050   2.062   9.780  0.7218  0.0429  0.1262
  135SAPE   O1414575   5.046   1.818   9.735 -0.2871 -0.0858 -0.2473
  135SAPE   O1214576   4.940   1.978   9.571  0.3027 -0.6470 -0.2769
  135SAPE   O1114577   5.183   1.973   9.598  0.5060 -0.3753  0.1487
  135SAPE    C114578   5.174   1.986   9.456 -0.3724  0.6959  0.4667
  135SAPE    HA14579   5.266   1.951   9.404 -1.6875 -1.3941 -0.5813
  135SAPE    HB14580   5.094   1.920   9.418 -0.3752  2.0311 -2.0946
  135SAPE    C214581   5.154   2.136   9.416  0.3022 -0.1368 -0.0946
  135SAPE    HS14582   5.067   2.178   9.469  0.3251 -1.5657  1.1532
  135SAPE   O2114583   5.140   2.161   9.271  0.0175  0.0917 -0.2676
  135SAPE   C2114584   5.048   2.087   9.212 -0.9687  0.2157  1.3089
  135SAPE   O2214585   4.952   2.042   9.271  0.2120  0.2967 -0.4830
  135SAPE   C2214586   5.084   2.058   9.060 -0.0866  0.1198  0.1086
  135SAPE   H2R14587   5.108   2.158   9.019 -0.1120  0.8349  1.7508
  135SAPE   H2S14588   5.179   2.000   9.059 -0.0248  0.2322 -0.8186
  135SAPE    C314589   5.265   2.224   9.480  0.4902 -0.5678  0.2335
  135SAPE    HX14590   5.280   2.192   9.586 -0.4411  1.2727  0.9789
  135SAPE    HY14591   5.218   2.324   9.497 -0.6163 -0.9181 -0.6879
  135SAPE   O3114592   5.386   2.226   9.398 -0.3599 -0.0386 -0.2261
  135SAPE   C3114593   5.409   2.332   9.324  0.4068 -0.3128 -0.1099
  135SAPE   O3214594   5.333   2.428   9.310  0.1104  0.0462  0.2220
  135SAPE   C3214595   5.540   2.306   9.255 -0.1164  0.6717  0.4740
  135SAPE   H2X14596   5.603   2.246   9.324 -1.5167 -1.8407 -0.3304
  135SAPE   H2Y14597   5.579   2.409   9.242  0.9214 -0.0155 -2.8995
  135SAPE   C2314598   4.973   1.991   8.973 -0.1817  0.2256  0.0900
  135SAPE   H3R14599   4.914   1.911   9.023 -0.4424 -0.1098 -0.7380
  135SAPE   H3S14600   5.013   1.934   8.886 -3.5968  1.6854 -2.7046
  135SAPE   C2414601   4.870   2.088   8.909  0.2621 -0.1671 -0.0139
  135SAPE   H4R14602   4.814   2.139   8.990 -1.1123 -0.1161 -0.9529
  135SAPE   H4S14603   4.790   2.024   8.865  1.1412 -1.2718 -0.0379
  135SAPE   C2514604   4.917   2.198   8.816  0.7120  0.6984 -0.2830
  135SAPE   H5R14605   4.957   2.285   8.869  0.2461  1.0815 -0.5523
  135SAPE   C2614606   4.920   2.192   8.684 -0.1253  0.5407 -0.1045
  135SAPE   H6R14607   4.956   2.281   8.631 -2.2851  0.9640 -0.9786
  135SAPE   C2714608   4.883   2.080   8.585  0.5445  0.0909  0.0071
  135SAPE   H7R14609   4.900   1.984   8.640  1.0170  0.4140  0.4346
  135SAPE   H7S14610   4.949   2.086   8.496 -1.1495  2.3655 -1.1831
  135SAPE   C2814611   4.734   2.068   8.550 -0.4392  0.3801 -0.9167
  135SAPE   H8R14612   4.672   2.015   8.624  1.2013 -0.5083 -0.1144
  135SAPE   C2914613   4.674   2.114   8.437 -0.3492  0.5685  0.0215
  135SAPE   H9R14614   4.569   2.088   8.420 -0.1451 -1.9490  1.9668
  135SAPE  C21014615   4.738   2.169   8.310  0.6426  0.8154 -1.2977
  135SAPE  H10R14616   4.691   2.110   8.228  0.8213  0.4166 -1.1183
  135SAPE  H10S14617   4.845   2.139   8.310 -0.2215 -2.8375  0.3966
  135SAPE  C21114618   4.730   2.321   8.297  0.2927  0.5936  0.2318
  135SAPE  H11R14619   4.752   2.388   8.382 -0.1714  1.8098 -0.5842
  135SAPE  C21214620   4.695   2.386   8.187  0.1926  0.2631  0.1680
  135SAPE  H12R14621   4.669   2.492   8.204  0.8321  0.4122  0.2327
  135SAPE  C21314622   4.665   2.334   8.047  0.1169  0.2197  0.0871
  135SAPE  H13R14623   4.670   2.223   8.039 -0.2549  0.3287 -3.1162
  135SAPE  H13S14624   4.736   2.377   7.973  0.9713  0.2861  0.9279
  135SAPE  C21414625   4.515   2.358   8.013  0.3856 -0.2765 -0.3261
  135SAPE  H14R14626   4.461   2.285   8.074  4.0661 -0.5995  3.0035
  135SAPE  C21514627   4.457   2.450   7.938  0.9582 -0.2136  0.1834
  135SAPE  H15R14628   4.347   2.448   7.936  0.8503  2.1123 -2.4632
  135SAPE  C21614629   4.530   2.551   7.848 -0.8430 -0.3214 -0.9568
  135SAPE  H16R14630   4.481   2.564   7.750  0.2950  1.3114 -1.3587
  135SAPE  H16S14631   4.634   2.517   7.828 -0.4635 -0.6143  1.2304
  135SAPE  C21714632   4.540   2.687   7.919 -0.2195 -0.0193  0.0754
  135SAPE  H17R14633   4.605   2.669   8.007  0.1962 -1.5801 -0.5276
  135SAPE  H17S14634   4.445   2.727   7.962 -0.0089  2.9849 -1.9403
  135SAPE  C21814635   4.592   2.799   7.827  0.3174 -0.3247  0.3754
  135SAPE  H18R14636   4.546   2.799   7.727 -1.2754  0.1595  1.0744
  135SAPE  H18S14637   4.702   2.781   7.822  0.2858 -1.6817  2.9418
  135SAPE  C21914638   4.568   2.938   7.888 -0.3156 -0.2977  0.9868
  135SAPE  H19R14639   4.617   2.944   7.987 -1.1416  0.6118  1.3548
  135SAPE  H19S14640   4.461   2.958   7.908 -0.4674 -0.5418  0.4357
  135SAPE  C22014641   4.634   3.042   7.798  0.5355  0.5904 -0.0361
  135SAPE  H20R14642   4.637   3.021   7.689 -0.4410 -1.6064  0.3071
  135SAPE  H20S14643   4.742   3.029   7.821  0.6052 -3.3312 -1.7045
  135SAPE  H20T14644   4.589   3.142   7.816 -2.7016 -0.4732 -1.3674
  135SAPE   C3314645   5.538   2.225   9.124 -0.4902  0.0739 -0.1711
  135SAPE   H3X14646   5.481   2.131   9.142 -0.8941  0.2960 -0.2793
  135SAPE   H3Y14647   5.641   2.196   9.094 -0.6419  0.8382 -1.4642
  135SAPE   C3414648   5.485   2.310   9.007  0.4242  0.0182 -1.1270
  135SAPE   H4X14649   5.529   2.411   9.021  2.8307 -1.1665  0.8500
  135SAPE   H4Y14650   5.375   2.321   9.016  0.5422  0.7460 -0.4263
  135SAPE   C3514651   5.531   2.252   8.868 -0.0790  0.0345  0.4327
  135SAPE   H5X14652   5.511   2.142   8.866  0.8186 -0.1482 -2.3717
  135SAPE   H5Y14653   5.641   2.259   8.855 -0.3649  0.0529 -2.7364
  135SAPE   C3614654   5.456   2.329   8.759 -0.2223 -0.9369 -0.3886
  135SAPE   H6X14655   5.493   2.434   8.764  0.2769 -1.0976 -0.6399
  135SAPE   H6Y14656   5.349   2.324   8.787 -0.6276  0.0286 -1.6873
  135SAPE   C3714657   5.480   2.279   8.617  1.0046 -0.0179 -0.3545
  135SAPE   H7X14658   5.471   2.169   8.622 -0.4823  0.1050  0.0255
  135SAPE   H7Y14659   5.584   2.296   8.582  1.2824 -0.8876  0.0271
  135SAPE   C3814660   5.378   2.341   8.507 -0.0305  0.0990 -0.1069
  135SAPE   H8X14661   5.417   2.441   8.475  1.1473 -0.2249  0.2456
  135SAPE   H8Y14662   5.281   2.355   8.558  0.0261 -2.0005  0.6387
  135SAPE   C3914663   5.345   2.254   8.386 -0.5110 -0.0632 -0.1333
  135SAPE   H9X14664   5.313   2.160   8.435  0.3822 -0.3256 -0.0425
  135SAPE   H9Y14665   5.432   2.236   8.319 -0.5760  1.1661 -0.5883
  135SAPE  C31014666   5.231   2.311   8.308  0.3617 -0.6056  0.0787
  135SAPE  H10X14667   5.253   2.410   8.265  1.6274  0.3316  2.6601
  135SAPE  H10Y14668   5.150   2.333   8.380  0.9683  2.6566 -0.0937
  135SAPE  C31114669   5.194   2.212   8.206  0.3133  0.6397 -0.5350
  135SAPE  H11X14670   5.159   2.120   8.257  0.5679  0.6202 -0.3889
  135SAPE  H11Y14671   5.279   2.190   8.137 -0.9206 -0.4636 -1.7608
  135SAPE  C31214672   5.082   2.272   8.107  0.3764 -0.3764  0.0254
  135SAPE  H12X14673   4.999   2.314   8.168 -0.5206 -1.6215 -0.2901
  135SAPE  H12Y14674   5.052   2.185   8.044  0.1254  0.0024 -0.3905
  135SAPE  C31314675   5.130   2.394   8.027  1.0256 -0.6227  0.7004
  135SAPE  H13X14676   5.221   2.360   7.973 -0.4304 -1.2057 -1.5499
  135SAPE  H13Y14677   5.168   2.486   8.077 -0.7547 -0.4377  1.7970
  135SAPE  C31414678   5.026   2.430   7.921  0.0280 -0.3200  0.3027
  135SAPE  H14X14679   4.929   2.449   7.972 -0.3210  0.7917 -0.7536
  135SAPE  H14Y14680   5.025   2.341   7.854 -0.8229 -0.6778  0.7721
  135SAPE  C31514681   5.056   2.556   7.838 -0.2601 -0.2262  0.4535
  135SAPE  H15X14682   5.147   2.546   7.775 -2.1995  1.9785 -3.0775
  135SAPE  H15Y14683   5.075   2.638   7.911  0.1148 -0.1441  0.2675
  135SAPE  C31614684   4.938   2.601   7.754 -0.0820  0.1267  0.0864
  135SAPE  H16X14685   4.935   2.712   7.763 -1.2263  0.1142  0.0662
  135SAPE  H16Y14686   4.849   2.545   7.789  1.2645 -1.9912  0.3140
  135SAPE  C31714687   4.951   2.569   7.602 -0.8857  0.5553  0.2918
  135SAPE  H17X14688   4.931   2.460   7.597  0.5513  0.2929  0.0140
  135SAPE  H17Y14689   5.056   2.583   7.571 -0.7745 -2.4480 -0.9879
  135SAPE  C31814690   4.862   2.650   7.508  0.3110 -0.0355 -0.0538
  135SAPE  H18X14691   4.760   2.667   7.548 -0.0049  2.0306 -1.5898
  135SAPE  H18Y14692   4.844   2.601   7.410 -1.1165  2.3229 -1.0687
  135SAPE  H18Z14693   4.903   2.753   7.500  0.0197  0.1957  1.1555
  136SAPE     N14694   1.687   2.979   9.689  0.6107 -0.7825 -0.5331
  136SAPE   HN114695   1.774   2.942   9.732  1.5941  1.1036 -0.7767
  136SAPE   HN214696   1.656   2.936   9.599 -3.0380 -0.6541  0.5395
  136SAPE   HN314697   1.702   3.082   9.686  2.5659 -0.9940  0.3374
  136SAPE   C1214698   1.585   2.953   9.793 -0.3308  0.3201 -0.3281
  136SAPE  H12A14699   1.505   3.030   9.795 -0.1759  0.5484  2.6722
  136SAPE  H12B14700   1.636   2.952   9.892  0.9274  2.5080 -0.8894
  136SAPE   C1114701   1.528   2.805   9.774  0.3127 -0.7132 -0.0306
  136SAPE  H11A14702   1.473   2.789   9.678  1.9992 -1.5095 -0.8942
  136SAPE  H11B14703   1.443   2.810   9.846 -3.8818  0.9359 -4.4753
  136SAPE     P14704   1.552   2.560   9.815 -0.3755 -0.0204 -0.4146
  136SAPE   O1314705   1.652   2.477   9.891  0.0458 -0.0597  0.0750
  136SAPE   O1414706   1.416   2.574   9.872 -0.5536  0.0660 -0.1783
  136SAPE   O1214707   1.618   2.704   9.802 -0.0735  0.3333  0.0777
  136SAPE   O1114708   1.547   2.508   9.668  0.8127 -0.0313 -0.4878
  136SAPE    C114709   1.646   2.550   9.574  0.2677  1.1572  0.1776
  136SAPE    HA14710   1.598   2.620   9.502  2.3838  0.6474 -1.8545
  136SAPE    HB14711   1.734   2.602   9.618  1.1764 -0.0083 -0.2119
  136SAPE    C214712   1.693   2.431   9.482 -0.5578  0.1022 -0.2663
  136SAPE    HS14713   1.786   2.469   9.436  0.0978 -2.0668 -0.8507
  136SAPE   O2114714   1.594   2.387   9.392  0.1991  0.0069 -0.5557
  136SAPE   C2114715   1.593   2.443   9.278 -0.0076  0.4667  0.1038
  136SAPE   O2214716   1.673   2.532   9.245  0.5725  0.5793  0.5008
  136SAPE   C2214717   1.482   2.385   9.186  0.0208  0.1237 -0.1360
  136SAPE   H2R14718   1.522   2.289   9.147 -0.5205 -1.3183  2.6382
  136SAPE   H2S14719   1.402   2.345   9.252  0.7664 -0.5012  0.4046
  136SAPE    C314720   1.745   2.315   9.568 -0.0802  0.0667  0.3635
  136SAPE    HX14721   1.663   2.269   9.627  1.3491 -0.8684  1.7122
  136SAPE    HY14722   1.822   2.356   9.636 -0.5240  2.2829 -0.4128
  136SAPE   O3114723   1.787   2.208   9.484  0.2700 -0.4963  0.6773
  136SAPE   C3114724   1.919   2.223   9.445  0.4758  0.3285  0.4876
  136SAPE   O3214725   1.995   2.310   9.482  0.4579 -0.1655  0.1530
  136SAPE   C3214726   1.950   2.105   9.353 -0.4672  0.1703  1.2555
  136SAPE   H2X14727   1.853   2.054   9.334 -0.9868  1.3501  0.6319
  136SAPE   H2Y14728   2.025   2.043   9.406  1.7066  1.6075  0.0255
  136SAPE   C2314729   1.424   2.494   9.096 -0.6612 -0.7313  0.0100
  136SAPE   H3R14730   1.495   2.576   9.070  0.2932 -0.8529  2.0115
  136SAPE   H3S14731   1.338   2.546   9.144 -1.4428 -0.9303 -1.1210
  136SAPE   C2414732   1.375   2.431   8.966  0.2646  0.8675 -0.8737
  136SAPE   H4R14733   1.294   2.359   8.992 -0.1682  1.1876 -1.3239
  136SAPE   H4S14734   1.459   2.384   8.910  1.7287 -0.7276  2.4125
  136SAPE   C2514735   1.302   2.532   8.887 -0.0644 -0.4904 -0.3587
  136SAPE   H5R14736   1.244   2.607   8.943 -1.1362  0.8001 -3.0314
  136SAPE   C2614737   1.321   2.561   8.760  0.0374 -0.4361 -0.3640
  136SAPE   H6R14738   1.271   2.652   8.725 -0.9583 -0.1215  1.7361
  136SAPE   C2714739   1.410   2.490   8.662  0.3807 -0.2564 -0.7021
  136SAPE   H7R14740   1.490   2.437   8.717  0.1784  1.0019  0.8553
  136SAPE   H7S14741   1.462   2.566   8.599  0.5265 -1.6543 -2.3459
  136SAPE   C2814742   1.336   2.399   8.570  0.1110 -0.2528  0.9093
  136SAPE   H8R14743   1.338   2.295   8.605  0.5479 -1.0532 -1.3429
  136SAPE   C2914744   1.277   2.412   8.453 -0.0591 -1.1348 -0.1996
  136SAPE   H9R14745   1.232   2.323   8.406 -0.3798 -1.1660  0.1559
  136SAPE  C21014746   1.271   2.536   8.370  0.2871  0.1220  0.2503
  136SAPE  H10R14747   1.279   2.624   8.437  0.3302  1.2878 -1.2515
  136SAPE  H10S14748   1.171   2.540   8.322 -0.9359  3.9076  2.6872
  136SAPE  C21114749   1.378   2.542   8.268  0.2678  0.0736 -1.0045
  136SAPE  H11R14750   1.474   2.508   8.310 -0.7376 -0.7325  0.7397
  136SAPE  C21214751   1.370   2.599   8.147 -0.0651  0.3109 -0.0687
  136SAPE  H12R14752   1.459   2.598   8.082  0.1779 -1.2527  0.2496
  136SAPE  C21314753   1.251   2.673   8.090 -0.2869  0.7530 -0.4722
  136SAPE  H13R14754   1.193   2.715   8.174  0.4671  0.9366 -0.0426
  136SAPE  H13S14755   1.181   2.596   8.049 -1.2495  0.0669  2.2420
  136SAPE  C21414756   1.279   2.779   7.989 -0.3969  0.1091 -0.5002
  136SAPE  H14R14757   1.285   2.876   8.040  2.1082 -0.9837  1.4919
  136SAPE  C21514758   1.288   2.758   7.852 -0.5195  0.2217 -0.0863
  136SAPE  H15R14759   1.291   2.844   7.784  0.6817  0.5855  0.3969
  136SAPE  C21614760   1.273   2.636   7.769 -0.6065 -0.0084  0.2929
  136SAPE  H16R14761   1.228   2.553   7.828  0.1861 -0.0589  0.8422
  136SAPE  H16S14762   1.375   2.606   7.736 -1.3219 -2.4825  0.1634
  136SAPE  C21714763   1.192   2.660   7.640  0.3975  0.1839 -0.4792
  136SAPE  H17R14764   1.195   2.570   7.576  1.0521 -0.6656  0.6985
  136SAPE  H17S14765   1.238   2.743   7.582  0.5616 -0.6206 -1.5175
  136SAPE  C21814766   1.037   2.677   7.657 -0.2254 -0.1143 -0.3147
  136SAPE  H18R14767   1.026   2.769   7.719  1.5972 -0.6213  0.8360
  136SAPE  H18S14768   0.998   2.587   7.709  2.0617 -0.9253  0.0992
  136SAPE  C21914769   0.977   2.693   7.513 -0.3721  0.6698 -0.7382
  136SAPE  H19R14770   1.028   2.618   7.449 -0.3935  0.0359 -0.0368
  136SAPE  H19S14771   1.014   2.789   7.473 -1.7733  2.3040  1.6231
  136SAPE  C22014772   0.825   2.682   7.514  0.3154  0.0625  0.4143
  136SAPE  H20R14773   0.788   2.754   7.590  0.1003 -4.1072  4.7257
  136SAPE  H20S14774   0.796   2.578   7.541  1.9365 -0.1492  1.4936
  136SAPE  H20T14775   0.785   2.705   7.413 -0.9710 -1.8358  0.4354
  136SAPE   C3314776   2.008   2.157   9.219  0.3536 -0.3090 -0.1743
  136SAPE   H3X14777   2.033   2.072   9.152  0.0047 -0.3998 -0.1951
  136SAPE   H3Y14778   2.104   2.209   9.236  1.1311 -1.9580  0.7452
  136SAPE   C3414779   1.902   2.243   9.146 -0.7762 -0.8803  0.4553
  136SAPE   H4X14780   1.898   2.344   9.193 -1.1466  0.7238 -2.7947
  136SAPE   H4Y14781   1.796   2.215   9.162 -0.6637  0.0820  3.8129
  136SAPE   C3514782   1.941   2.286   9.007  0.3111 -0.0941 -0.0060
  136SAPE   H5X14783   1.942   2.204   8.932 -0.6432 -0.1278  0.0092
  136SAPE   H5Y14784   2.049   2.312   9.012  0.9145 -2.4386  0.3507
  136SAPE   C3614785   1.844   2.394   8.954  0.3458  0.5985  0.0893
  136SAPE   H6X14786   1.859   2.478   9.025  1.2919 -0.4514  1.2109
  136SAPE   H6Y14787   1.737   2.365   8.953  0.5894 -0.3191 -0.9270
  136SAPE   C3714788   1.873   2.435   8.806  0.9094 -0.5723  0.0496
  136SAPE   H7X14789   1.823   2.354   8.748  2.3891 -2.0438  0.7337
  136SAPE   H7Y14790   1.980   2.452   8.782  0.9486  1.6373  1.4550
  136SAPE   C3814791   1.826   2.568   8.765  0.6382  0.3708 -0.3841
  136SAPE   H8X14792   1.856   2.651   8.833 -0.6500 -0.3365  1.1163
  136SAPE   H8Y14793   1.715   2.558   8.764  0.5373  1.3562  0.0883
  136SAPE   C3914794   1.864   2.601   8.623 -0.0664 -0.1522  0.5497
  136SAPE   H9X14795   1.973   2.624   8.620 -0.4705  2.0290  1.0899
  136SAPE   H9Y14796   1.812   2.695   8.599  0.7948  0.7106  1.9217
  136SAPE  C31014797   1.817   2.496   8.512  0.4091  0.1016 -0.3879
  136SAPE  H10X14798   1.708   2.510   8.531  0.8864  1.3621  1.7171
  136SAPE  H10Y14799   1.855   2.395   8.536  2.3784  0.5457 -1.4767
  136SAPE  C31114800   1.861   2.544   8.375  0.9361 -0.2004  0.2833
  136SAPE  H11X14801   1.969   2.527   8.353  0.5665 -0.2569 -1.6059
  136SAPE  H11Y14802   1.829   2.649   8.364  1.7929 -0.0286 -0.7368
  136SAPE  C31214803   1.793   2.473   8.261  0.2269 -0.0650  0.5573
  136SAPE  H12X14804   1.836   2.496   8.161 -0.3680 -0.8560  0.0985
  136SAPE  H12Y14805   1.687   2.505   8.248  0.1164 -0.3552  0.7175
  136SAPE  C31314806   1.786   2.318   8.277 -0.3869 -0.0766  0.4300
  136SAPE  H13X14807   1.686   2.310   8.324 -0.4180  0.1524  0.4046
  136SAPE  H13Y14808   1.859   2.290   8.357 -0.5737 -0.3891  0.4935
  136SAPE  C31414809   1.791   2.230   8.154 -0.3758 -0.2837 -0.4153
  136SAPE  H14X14810   1.781   2.126   8.190  1.7329 -0.8101 -1.1806
  136SAPE  H14Y14811   1.887   2.233   8.098 -0.6370  0.8358 -0.8426
  136SAPE  C31514812   1.681   2.268   8.062 -0.0284 -0.0725  0.4083
  136SAPE  H15X14813   1.715   2.344   7.988  0.9604 -0.1527  0.7707
  136SAPE  H15Y14814   1.597   2.315   8.118 -2.3238 -1.8684 -1.3240
  136SAPE  C31614815   1.612   2.149   7.987  0.5867 -0.0947 -0.6256
  136SAPE  H16X14816   1.535   2.122   8.062  0.9560  0.7567  0.0681
  136SAPE  H16Y14817   1.692   2.073   7.997  1.4220  0.9473  1.2420
  136SAPE  C31714818   1.566   2.169   7.848 -0.7395 -0.3787 -0.2151
  136SAPE  H17X14819   1.531   2.079   7.793 -1.9511 -0.0209 -0.0507
  136SAPE  H17Y14820   1.646   2.219   7.788 -0.8355 -0.9479 -0.8297
  136SAPE  C31814821   1.443   2.262   7.852  0.0057  0.0654 -0.2027
  136SAPE  H18X14822   1.398   2.275   7.752 -0.3305 -0.1284 -0.0770
  136SAPE  H18Y14823   1.471   2.361   7.893 -1.3523  0.6565 -0.6486
  136SAPE  H18Z14824   1.367   2.229   7.926  0.7844  2.3839  1.7787
  137SAPE     N14825   5.785   5.266   9.530 -0.3967 -0.1583  0.0890
  137SAPE   HN114826   5.759   5.175   9.571  0.7400  0.5300  2.5041
  137SAPE   HN214827   5.877   5.244   9.487 -0.2958 -0.2303  0.3423
  137SAPE   HN314828   5.799   5.335   9.607 -1.7366  1.2679 -0.8811
  137SAPE   C1214829   5.686   5.322   9.437 -0.8953 -0.2191 -0.4396
  137SAPE  H12A14830   5.584   5.319   9.481 -0.2537  2.9385  1.5894
  137SAPE  H12B14831   5.678   5.264   9.342 -1.1386 -2.3059  0.8011
  137SAPE   C1114832   5.718   5.471   9.413 -0.0460 -0.6350  0.9348
  137SAPE  H11A14833   5.654   5.511   9.332  0.9966  0.9700  0.8485
  137SAPE  H11B14834   5.822   5.484   9.375  0.5631 -1.7843  2.0968
  137SAPE     P14835   5.584   5.630   9.570 -0.0131  0.6804 -0.0370
  137SAPE   O1314836   5.549   5.602   9.709  0.5313  0.1025  0.0461
  137SAPE   O1414837   5.615   5.768   9.534  0.5963 -0.2159  0.3035
  137SAPE   O1214838   5.710   5.544   9.538  0.0109  0.5188  0.1857
  137SAPE   O1114839   5.476   5.572   9.473 -0.2216 -0.4612 -0.0295
  137SAPE    C114840   5.334   5.571   9.495  0.2589 -0.3807 -0.1005
  137SAPE    HA14841   5.302   5.669   9.538  0.8348 -1.3202  2.6880
  137SAPE    HB14842   5.286   5.556   9.397  1.1245 -0.6042 -0.4975
  137SAPE    C214843   5.280   5.457   9.591 -0.5465 -0.5049 -0.1952
  137SAPE    HS14844   5.367   5.422   9.651 -0.8168  0.3097  0.6967
  137SAPE   O2114845   5.220   5.365   9.502  0.3474  0.8417 -0.6993
  137SAPE   C2114846   5.180   5.256   9.568 -0.2693 -0.0079  0.1412
  137SAPE   O2214847   5.209   5.227   9.682 -0.2404  0.1773 -0.0182
  137SAPE   C2214848   5.113   5.176   9.469  0.7240  0.6404 -0.4576
  137SAPE   H2R14849   5.123   5.072   9.506 -1.1462  0.0598 -1.4471
  137SAPE   H2S14850   5.008   5.211   9.455  0.6965  1.0411  0.6958
  137SAPE    C314851   5.175   5.523   9.678  0.5680 -0.1821 -0.0038
  137SAPE    HX14852   5.233   5.595   9.739  1.1759 -1.3650  0.8711
  137SAPE    HY14853   5.134   5.446   9.748  3.1148 -0.8167  0.8736
  137SAPE   O3114854   5.075   5.591   9.599  0.4932  0.8823 -0.6743
  137SAPE   C3114855   4.955   5.554   9.596 -0.3750  0.6247  0.2997
  137SAPE   O3214856   4.909   5.457   9.657  0.1333  0.0230  0.1168
  137SAPE   C3214857   4.868   5.640   9.500 -0.1932 -0.9799  0.0447
  137SAPE   H2X14858   4.937   5.714   9.455 -0.1149  0.4261  2.3193
  137SAPE   H2Y14859   4.801   5.705   9.561  1.2782  1.6756 -1.0075
  137SAPE   C2314860   5.185   5.187   9.332  0.7981 -0.1546  0.2391
  137SAPE   H3R14861   5.189   5.287   9.284 -2.6011 -0.5550 -1.2092
  137SAPE   H3S14862   5.123   5.133   9.256 -0.4981  0.7558  0.6214
  137SAPE   C2414863   5.324   5.137   9.339 -0.2980  0.3043  0.7014
  137SAPE   H4R14864   5.313   5.040   9.392 -0.2987 -0.1412 -0.0937
  137SAPE   H4S14865   5.391   5.203   9.399  0.7887 -0.9489  0.9171
  137SAPE   C2514866   5.382   5.125   9.202  0.0325  0.5331 -0.4062
  137SAPE   H5R14867   5.389   5.022   9.163  0.3969  0.1299  0.6602
  137SAPE   C2614868   5.440   5.224   9.132 -0.7495  0.1802  0.7341
  137SAPE   H6R14869   5.473   5.203   9.028 -2.6520  0.7907 -0.0334
  137SAPE   C2714870   5.458   5.367   9.170  0.5018  0.8113  1.0791
  137SAPE   H7R14871   5.565   5.396   9.164  0.3180  1.2134 -1.3848
  137SAPE   H7S14872   5.420   5.390   9.272 -2.7998 -1.2769  0.4710
  137SAPE   C2814873   5.371   5.447   9.072  0.0496 -0.2313 -0.2294
  137SAPE   H8R14874   5.283   5.479   9.130  0.8177 -0.6473  1.2261
  137SAPE   C2914875   5.374   5.469   8.943 -0.2283  0.8241  0.5230
  137SAPE   H9R14876   5.308   5.548   8.905 -1.5180 -0.7483 -0.6374
  137SAPE  C21014877   5.472   5.426   8.839 -0.1106 -0.3584 -0.3081
  137SAPE  H10R14878   5.568   5.393   8.883 -0.3259  1.1055  1.3691
  137SAPE  H10S14879   5.495   5.510   8.770  1.1874 -1.6525 -1.5303
  137SAPE  C21114880   5.419   5.312   8.762 -0.2807 -0.2477 -0.6491
  137SAPE  H11R14881   5.364   5.239   8.823 -0.0443 -0.2381 -0.4230
  137SAPE  C21214882   5.403   5.308   8.629 -0.5485  0.6460  0.1908
  137SAPE  H12R14883   5.362   5.213   8.591  2.6004 -1.0613  0.6127
  137SAPE  C21314884   5.450   5.412   8.528 -0.1991 -0.0337  0.7349
  137SAPE  H13R14885   5.417   5.513   8.562  0.9306 -0.1337  2.2249
  137SAPE  H13S14886   5.385   5.396   8.439 -0.1234  1.3566  0.3940
  137SAPE  C21414887   5.596   5.424   8.497  0.1224  0.8482  0.3815
  137SAPE  H14R14888   5.667   5.381   8.570  3.1637  1.1509 -2.1581
  137SAPE  C21514889   5.643   5.484   8.377  0.4837 -0.0196  0.1205
  137SAPE  H15R14890   5.750   5.507   8.364  0.6998 -0.8200  0.4251
  137SAPE  C21614891   5.559   5.552   8.269  0.0904 -0.0870 -0.7737
  137SAPE  H16R14892   5.577   5.661   8.263 -0.5379  0.0914  0.3544
  137SAPE  H16S14893   5.453   5.541   8.300  1.0714  0.0300  3.0917
  137SAPE  C21714894   5.586   5.490   8.133  0.6879 -0.6660  0.1346
  137SAPE  H17R14895   5.692   5.476   8.106  1.3037 -0.2828  2.1942
  137SAPE  H17S14896   5.550   5.559   8.054  0.1085  0.5721  1.4395
  137SAPE  C21814897   5.541   5.340   8.116 -0.1949  0.3815 -0.2662
  137SAPE  H18R14898   5.433   5.328   8.138  0.5682 -1.8542  3.1801
  137SAPE  H18S14899   5.588   5.283   8.200 -1.3034 -0.7420 -0.3686
  137SAPE  C21914900   5.583   5.292   7.976  0.1081  0.5268 -0.1270
  137SAPE  H19R14901   5.568   5.182   7.974  0.0716  0.5217 -2.1811
  137SAPE  H19S14902   5.694   5.298   7.973  0.3574 -1.2410  2.6000
  137SAPE  C22014903   5.523   5.360   7.852 -0.8509  0.1733  0.2803
  137SAPE  H20R14904   5.413   5.352   7.836 -0.7362  0.2805 -0.6519
  137SAPE  H20S14905   5.570   5.304   7.768 -1.9731 -1.8364  0.9299
  137SAPE  H20T14906   5.561   5.464   7.843  1.4154 -0.7176 -1.4445
  137SAPE   C3314907   4.795   5.545   9.416 -0.3462 -0.0733  0.0579
  137SAPE   H3X14908   4.711   5.601   9.369 -0.3117  0.1586  0.2702
  137SAPE   H3Y14909   4.764   5.451   9.467  3.8915 -0.4475  2.4019
  137SAPE   C3414910   4.895   5.499   9.307  0.3062 -0.2981 -0.6738
  137SAPE   H4X14911   4.984   5.457   9.357  0.5187  0.4205 -0.4374
  137SAPE   H4Y14912   4.938   5.581   9.246  3.0318 -2.3456 -1.6780
  137SAPE   C3514913   4.836   5.398   9.206 -0.2985  0.2238  0.4307
  137SAPE   H5X14914   4.753   5.460   9.165  0.7454  0.5387 -1.3173
  137SAPE   H5Y14915   4.788   5.307   9.247 -0.8379  0.5880  0.6202
  137SAPE   C3614916   4.926   5.367   9.087 -0.4454  0.4139  0.1088
  137SAPE   H6X14917   5.019   5.317   9.119  1.0170  1.1065 -2.6944
  137SAPE   H6Y14918   4.959   5.462   9.040  0.0460  0.5030  0.6321
  137SAPE   C3714919   4.854   5.274   8.986  0.7873  0.6165  0.5616
  137SAPE   H7X14920   4.749   5.304   8.966  0.5060 -0.3864  0.4901
  137SAPE   H7Y14921   4.833   5.185   9.048 -0.5551 -0.3582 -1.1955
  137SAPE   C3814922   4.927   5.219   8.859  1.1460 -0.0766 -0.0330
  137SAPE   H8X14923   4.859   5.159   8.795  0.1509 -0.2593  1.1507
  137SAPE   H8Y14924   5.003   5.147   8.894 -0.1242 -1.1478  0.6013
  137SAPE   C3914925   4.983   5.333   8.770  0.3502  0.9635 -0.5784
  137SAPE   H9X14926   5.079   5.372   8.812 -0.1101 -1.0500  2.7370
  137SAPE   H9Y14927   4.909   5.416   8.770 -0.1388  0.5485  0.3077
  137SAPE  C31014928   4.987   5.283   8.622 -0.2690 -0.0574  0.0016
  137SAPE  H10X14929   4.887   5.253   8.585 -0.8156  0.9433  0.6340
  137SAPE  H10Y14930   5.055   5.196   8.609 -2.5004 -1.5053 -4.2941
  137SAPE  C31114931   5.029   5.389   8.517  0.3630 -0.6701  1.0608
  137SAPE  H11X14932   5.114   5.451   8.552  0.0169  0.3146  0.1983
  137SAPE  H11Y14933   4.945   5.461   8.523  1.0243 -0.0033  2.8026
  137SAPE  C31214934   5.055   5.324   8.377 -0.4180  0.0309 -0.2123
  137SAPE  H12X14935   4.965   5.277   8.333 -1.0582  0.0542  1.0087
  137SAPE  H12Y14936   5.138   5.251   8.383 -0.2822  0.2769  1.6930
  137SAPE  C31314937   5.093   5.428   8.267  0.0728 -0.1595  0.3231
  137SAPE  H13X14938   5.197   5.463   8.283 -0.2540  1.7192 -1.3562
  137SAPE  H13Y14939   5.019   5.510   8.275 -0.1057 -0.4700  3.2455
  137SAPE  C31414940   5.069   5.369   8.127 -0.4941 -0.2896 -0.2703
  137SAPE  H14X14941   5.096   5.452   8.057 -0.6984  2.0166  2.2327
  137SAPE  H14Y14942   4.959   5.359   8.110 -0.4528  1.3602 -1.8530
  137SAPE  C31514943   5.137   5.243   8.098  0.2352  0.6990  0.3744
  137SAPE  H15X14944   5.099   5.162   8.164 -1.2152 -0.7897 -2.1286
  137SAPE  H15Y14945   5.246   5.249   8.117  0.5592  0.5626 -1.2880
  137SAPE  C31614946   5.127   5.212   7.953  0.0027  0.1559 -0.4002
  137SAPE  H16X14947   5.177   5.115   7.931  1.9951  1.0508 -0.0485
  137SAPE  H16Y14948   5.169   5.294   7.891 -1.1515  1.0331 -0.0666
  137SAPE  C31714949   4.981   5.198   7.905 -0.8198  1.0832 -0.0183
  137SAPE  H17X14950   4.925   5.294   7.912 -0.4419  1.2544  0.8910
  137SAPE  H17Y14951   4.930   5.127   7.974  0.0196  1.3267  0.8708
  137SAPE  C31814952   4.983   5.142   7.763  0.2132 -0.2030 -0.0403
  137SAPE  H18X14953   4.988   5.031   7.761  2.6759 -0.3004  2.7925
  137SAPE  H18Y14954   5.076   5.168   7.708 -0.4265 -0.4777 -1.2835
  137SAPE  H18Z14955   4.894   5.178   7.708 -0.1250 -1.5380 -0.4124
  138SAPE     N14956   2.767   5.645   9.637  0.0443  0.3051  0.5316
  138SAPE   HN114957   2.666   5.637   9.660 -0.1623 -0.3159 -0.5619
  138SAPE   HN214958   2.762   5.689   9.543  1.5989  0.3141  0.4127
  138SAPE   HN314959   2.789   5.545   9.619 -2.0420 -0.0772 -0.0995
  138SAPE   C1214960   2.860   5.708   9.732 -0.0262  0.0029 -0.1373
  138SAPE  H12A14961   2.959   5.722   9.684  0.9155 -0.1942  1.6526
  138SAPE  H12B14962   2.870   5.639   9.818  0.9846 -0.6384 -0.7572
  138SAPE   C1114963   2.793   5.843   9.777 -0.0714  0.3625 -0.4142
  138SAPE  H11A14964   2.861   5.878   9.858  2.5683  0.0648 -2.3880
  138SAPE  H11B14965   2.692   5.819   9.818  0.1701 -0.6655 -0.3980
  138SAPE     P14966   2.796   6.086   9.668  0.2092  0.1099  0.1236
  138SAPE   O1314967   2.670   6.149   9.713  0.1798 -0.1532 -0.6234
  138SAPE   O1414968   2.924   6.130   9.730 -0.7378 -0.4121 -0.1443
  138SAPE   O1214969   2.794   5.927   9.661 -0.1675  0.5304 -0.3296
  138SAPE   O1114970   2.811   6.138   9.518  0.1710  0.5106  0.3517
  138SAPE    C114971   2.851   6.042   9.420 -0.3507 -0.5338  0.5126
  138SAPE    HA14972   2.823   5.935   9.433 -2.1856 -0.3351 -1.2365
  138SAPE    HB14973   2.810   6.073   9.321  1.7664  0.6292 -0.0498
  138SAPE    C214974   3.008   6.043   9.400 -0.9841 -0.0747 -0.2119
  138SAPE    HS14975   3.058   6.038   9.499  0.2085  0.5502 -0.7611
  138SAPE   O2114976   3.057   6.166   9.335 -0.3367  0.7468  0.0311
  138SAPE   C2114977   3.180   6.179   9.342  0.0592  0.3839 -0.0366
  138SAPE   O2214978   3.255   6.133   9.426  0.5878  0.4013 -0.2336
  138SAPE   C2214979   3.222   6.274   9.238 -0.1244 -0.1785 -0.6272
  138SAPE   H2R14980   3.196   6.236   9.137  0.9659 -2.3484 -0.1469
  138SAPE   H2S14981   3.177   6.373   9.259  0.7101 -0.0769  0.7896
  138SAPE    C314982   3.049   5.917   9.316  0.1812 -0.0858 -0.2572
  138SAPE    HX14983   3.020   5.826   9.372 -0.7825  0.4743  0.1847
  138SAPE    HY14984   3.156   5.908   9.289  1.1398  0.3669  2.9627
  138SAPE   O3114985   2.969   5.906   9.196  0.3209  0.1949  0.8038
  138SAPE   C3114986   3.023   5.956   9.088 -0.2958 -0.1200 -0.1227
  138SAPE   O3214987   3.137   6.006   9.079  0.0609  0.4187  0.4071
  138SAPE   C3214988   2.922   5.945   8.969 -0.3773  1.0439  0.2518
  138SAPE   H2X14989   2.865   5.850   8.980  0.1052  0.8824  1.5717
  138SAPE   H2Y14990   2.977   5.941   8.872 -1.5419 -0.7394 -0.3897
  138SAPE   C2314991   3.375   6.305   9.250 -0.1404  0.0463 -0.2603
  138SAPE   H3R14992   3.434   6.212   9.231  0.0163 -0.3010  1.7167
  138SAPE   H3S14993   3.410   6.336   9.350 -2.0189  1.8604 -0.1063
  138SAPE   C2414994   3.422   6.417   9.151 -0.0043 -0.3134 -0.2106
  138SAPE   H4R14995   3.404   6.390   9.044  0.7452 -0.9637 -0.1831
  138SAPE   H4S14996   3.532   6.415   9.162  0.2134 -1.9238 -2.0155
  138SAPE   C2514997   3.367   6.549   9.197 -0.3986 -0.5400  0.5029
  138SAPE   H5R14998   3.351   6.551   9.305 -0.5077  0.0034  0.4778
  138SAPE   C2614999   3.324   6.652   9.121 -0.1289 -0.1179  0.5118
  138SAPE   H6R15000   3.286   6.741   9.174 -0.4234 -0.1916  0.4264
  138SAPE   C2715001   3.323   6.661   8.971  0.3223 -0.3916 -0.2356
  138SAPE   H7R15002   3.240   6.725   8.932  1.0788  0.1500 -1.0038
  138SAPE   H7S15003   3.302   6.558   8.937 -0.3150 -0.1371 -0.6364
  138SAPE   C2815004   3.446   6.711   8.904 -0.0352 -0.5983  0.6291
  138SAPE   H8R15005   3.485   6.803   8.951  1.1442 -1.1635  0.7967
  138SAPE   C2915006   3.500   6.666   8.789 -0.1994 -0.1633 -0.0057
  138SAPE   H9R15007   3.595   6.706   8.752  0.4084 -0.4927  1.1396
  138SAPE  C21015008   3.430   6.558   8.712  0.5509 -0.1792 -0.1397
  138SAPE  H10R15009   3.320   6.568   8.719  0.6559  1.1759 -0.2194
  138SAPE  H10S15010   3.450   6.461   8.764  0.7557  0.2716  0.6486
  138SAPE  C21115011   3.464   6.548   8.561 -0.5637  0.1586 -0.2124
  138SAPE  H11R15012   3.387   6.591   8.496  1.2110  1.0240 -1.8675
  138SAPE  C21215013   3.559   6.480   8.504  0.7385  0.1790  0.4762
  138SAPE  H12R15014   3.581   6.494   8.397 -1.6162  1.4751  0.0955
  138SAPE  C21315015   3.661   6.384   8.572  0.9766  0.6565 -0.7683
  138SAPE  H13R15016   3.653   6.276   8.544  0.0603  0.2793  0.8061
  138SAPE  H13S15017   3.652   6.386   8.683  0.6972 -2.8861 -0.5835
  138SAPE  C21415018   3.804   6.441   8.547  0.4476 -0.1662  0.9177
  138SAPE  H14R15019   3.827   6.528   8.611  0.8027 -0.5478  1.3178
  138SAPE  C21515020   3.902   6.401   8.459 -0.2573  0.4476  0.2215
  138SAPE  H15R15021   3.994   6.462   8.459  0.9836 -1.2533 -2.3830
  138SAPE  C21615022   3.906   6.283   8.366  0.2324 -0.0083  0.3083
  138SAPE  H16R15023   3.823   6.216   8.399  0.6470  0.0080  1.4141
  138SAPE  H16S15024   4.007   6.238   8.378  0.8911  1.3821  0.0753
  138SAPE  C21715025   3.874   6.303   8.217 -0.1758 -0.6513  0.5560
  138SAPE  H17R15026   3.885   6.214   8.151 -0.0610 -0.4318  0.2758
  138SAPE  H17S15027   3.948   6.377   8.178 -1.6192  0.5984  0.0484
  138SAPE  C21815028   3.739   6.375   8.193  0.0490 -0.0984  0.5112
  138SAPE  H18R15029   3.745   6.482   8.220  0.0992  0.0990 -0.2567
  138SAPE  H18S15030   3.661   6.322   8.251  0.1596 -1.0702 -0.1879
  138SAPE  C21915031   3.696   6.363   8.041 -0.1972 -0.5957 -0.6256
  138SAPE  H19R15032   3.595   6.409   8.043  0.6984  1.4901  0.6304
  138SAPE  H19S15033   3.687   6.262   7.996 -3.5557  0.6068 -3.0267
  138SAPE  C22015034   3.790   6.442   7.949  0.8304 -0.1899  0.1227
  138SAPE  H20R15035   3.745   6.453   7.848 -1.8651  0.4342  1.2944
  138SAPE  H20S15036   3.880   6.377   7.946 -0.9947 -2.9352  0.8894
  138SAPE  H20T15037   3.810   6.541   7.995 -0.8059 -0.5630  1.7473
  138SAPE   C3315038   2.829   6.067   8.970  0.9988  0.0756  0.3354
  138SAPE   H3X15039   2.772   6.089   9.063  0.0653 -0.5509 -0.0727
  138SAPE   H3Y15040   2.749   6.042   8.898  0.2715 -0.0466  1.1639
  138SAPE   C3415041   2.895   6.191   8.911  0.8708 -0.0626 -0.0203
  138SAPE   H4X15042   2.972   6.244   8.972  0.5062 -0.1813  0.5400
  138SAPE   H4Y15043   2.820   6.273   8.915  3.1370  2.1444  0.2676
  138SAPE   C3515044   2.936   6.177   8.766 -0.2255 -0.0178  0.0097
  138SAPE   H5X15045   2.882   6.092   8.720  0.0374 -0.6800  0.8979
  138SAPE   H5Y15046   3.036   6.127   8.768  0.0539  0.4374 -1.3848
  138SAPE   C3615047   2.929   6.302   8.682 -0.8288 -0.4416 -0.0970
  138SAPE   H6X15048   3.001   6.377   8.719 -2.7297 -0.1345  3.4846
  138SAPE   H6Y15049   2.830   6.352   8.687 -1.1295 -1.0326  0.0870
  138SAPE   C3715050   2.955   6.283   8.532 -0.8495  0.3896  0.0522
  138SAPE   H7X15051   2.869   6.231   8.485  0.5884 -0.5590 -1.6300
  138SAPE   H7Y15052   3.046   6.222   8.513 -0.8243  0.1191  0.9577
  138SAPE   C3815053   2.967   6.406   8.453 -0.2090  0.0931  0.0117
  138SAPE   H8X15054   3.060   6.455   8.486  0.1468  1.9149 -3.2281
  138SAPE   H8Y15055   2.890   6.484   8.471  1.2075  1.8421 -1.1788
  138SAPE   C3915056   2.976   6.384   8.298  0.3071 -0.3257  0.2630
  138SAPE   H9X15057   3.046   6.305   8.265  1.1702 -0.0586  1.3965
  138SAPE   H9Y15058   3.030   6.470   8.254 -0.2678  0.1554  0.4758
  138SAPE  C31015059   2.847   6.387   8.219  0.0256  0.4421  0.1372
  138SAPE  H10X15060   2.774   6.438   8.284 -0.3884 -1.9163  1.6540
  138SAPE  H10Y15061   2.809   6.282   8.215  0.2409  0.3708 -0.0883
  138SAPE  C31115062   2.863   6.453   8.081  0.0105 -0.3698 -0.0314
  138SAPE  H11X15063   2.917   6.390   8.007 -0.8770 -0.4197 -0.6502
  138SAPE  H11Y15064   2.921   6.546   8.097 -0.5127 -0.2644  1.3351
  138SAPE  C31215065   2.734   6.479   8.023 -0.1700 -0.1267  0.0040
  138SAPE  H12X15066   2.665   6.541   8.084 -2.2097  1.6751 -3.7833
  138SAPE  H12Y15067   2.679   6.384   8.003 -1.1525  0.9645 -2.9811
  138SAPE  C31315068   2.748   6.556   7.884 -0.4963 -0.1852  0.3848
  138SAPE  H13X15069   2.806   6.484   7.823  0.1207 -0.6092  1.4450
  138SAPE  H13Y15070   2.799   6.654   7.890 -0.5254 -0.1375 -0.0761
  138SAPE  C31415071   2.617   6.560   7.807  0.1651  0.2372 -0.2643
  138SAPE  H14X15072   2.539   6.603   7.874 -1.2648  0.0854 -1.7845
  138SAPE  H14Y15073   2.584   6.457   7.782  0.3829  0.0178  0.3249
  138SAPE  C31515074   2.603   6.630   7.670  0.5510 -0.0295  0.9382
  138SAPE  H15X15075   2.618   6.739   7.687  3.3946 -0.4788  1.8058
  138SAPE  H15Y15076   2.502   6.610   7.628  1.2602 -1.1091 -0.2916
  138SAPE  C31615077   2.713   6.574   7.588 -0.3237 -0.6295 -0.6396
  138SAPE  H16X15078   2.711   6.466   7.564  0.9045 -0.1741 -3.3032
  138SAPE  H16Y15079   2.814   6.592   7.630 -0.0754 -1.4348 -0.8854
  138SAPE  C31715080   2.720   6.633   7.447  0.0257  0.4580  0.9782
  138SAPE  H17X15081   2.630   6.601   7.390  0.5674  0.5642  0.0315
  138SAPE  H17Y15082   2.800   6.592   7.381 -0.7783  0.6858 -0.1630
  138SAPE  C31815083   2.752   6.785   7.454  0.5583 -0.2616  0.5089
  138SAPE  H18X15084   2.840   6.796   7.521 -0.2764 -0.1655  1.6171
  138SAPE  H18Y15085   2.663   6.842   7.488 -1.1945 -2.6122  0.1708
  138SAPE  H18Z15086   2.791   6.828   7.359 -0.9920  3.7297  1.4755
  139SAPE     N15087   2.448   6.172   9.902  0.2527  0.2064  0.3380
  139SAPE   HN115088   2.429   6.273   9.886 -1.3415 -0.4297 -2.5274
  139SAPE   HN215089   2.448   6.153  10.004  2.1103  0.1449  0.3630
  139SAPE   HN315090   2.541   6.143   9.864  0.7104  1.9949  0.0269
  139SAPE   C1215091   2.328   6.103   9.841 -0.0833  0.3511 -0.2074
  139SAPE  H12A15092   2.333   6.122   9.732  0.0794  2.0319  0.0653
  139SAPE  H12B15093   2.240   6.153   9.888 -0.4467  1.1483 -1.6800
  139SAPE   C1115094   2.318   5.952   9.884  0.0488 -0.1422  0.0678
  139SAPE  H11A15095   2.219   5.916   9.847  0.8276 -2.5323  0.1548
  139SAPE  H11B15096   2.311   5.940   9.995 -0.6847 -2.4141 -0.1677
  139SAPE     P15097   2.393   5.774   9.727 -0.0850  0.0612 -0.1958
  139SAPE   O1315098   2.510   5.690   9.684  0.0732 -0.0790  0.2504
  139SAPE   O1415099   2.278   5.700   9.791  0.5426 -0.2984  0.1023
  139SAPE   O1215100   2.436   5.884   9.837 -1.0102  0.4290  0.3119
  139SAPE   O1115101   2.341   5.862   9.605  0.3463  0.6049 -0.0808
  139SAPE    C115102   2.442   5.936   9.529 -0.1836 -0.0170  0.5030
  139SAPE    HA15103   2.493   6.013   9.592 -0.4622  0.1936  0.4742
  139SAPE    HB15104   2.510   5.864   9.480  0.4455  1.3225 -0.6436
  139SAPE    C215105   2.382   6.027   9.415  0.9167 -0.1408 -0.2355
  139SAPE    HS15106   2.315   6.109   9.447 -0.3955 -2.0408  2.3376
  139SAPE   O2115107   2.315   5.939   9.327  0.2387 -0.7806 -0.5257
  139SAPE   C2115108   2.180   5.946   9.338 -0.2455  0.0595 -0.5580
  139SAPE   O2215109   2.117   6.011   9.422  0.1502  0.2383 -0.4471
  139SAPE   C2215110   2.122   5.893   9.208 -0.3699  0.0736  0.6745
  139SAPE   H2R15111   2.202   5.863   9.137  0.2300 -0.0312  1.3828
  139SAPE   H2S15112   2.055   5.811   9.241 -0.9718 -0.0538 -0.7814
  139SAPE    C315113   2.487   6.104   9.327  0.0035  0.3974 -0.5235
  139SAPE    HX15114   2.537   6.024   9.268 -2.7194 -1.8354 -0.0218
  139SAPE    HY15115   2.557   6.144   9.403 -1.7676 -0.1957  1.5363
  139SAPE   O3115116   2.426   6.209   9.248  0.2648 -0.2500 -0.0289
  139SAPE   C3115117   2.527   6.285   9.187  0.0209  0.5401  0.3866
  139SAPE   O3215118   2.646   6.273   9.205  0.2891  0.5160 -0.5250
  139SAPE   C3215119   2.454   6.405   9.114 -0.3264 -1.3117  0.1445
  139SAPE   H2X15120   2.528   6.485   9.096 -1.7027 -0.3651 -1.7635
  139SAPE   H2Y15121   2.372   6.434   9.183 -1.5985 -0.8247 -1.4927
  139SAPE   C2315122   2.022   5.981   9.132  0.3587 -0.5295  1.2189
  139SAPE   H3R15123   1.941   6.003   9.205 -1.4119  0.3648 -0.9020
  139SAPE   H3S15124   1.976   5.924   9.048  1.7852 -1.1664  0.8464
  139SAPE   C2415125   2.089   6.107   9.087 -0.1602 -0.0119 -0.3667
  139SAPE   H4R15126   2.187   6.096   9.035  0.3379  0.5974  0.4231
  139SAPE   H4S15127   2.128   6.163   9.174 -0.7949 -1.9283  1.2209
  139SAPE   C2515128   1.994   6.191   9.012  0.5213  0.2585  0.0271
  139SAPE   H5R15129   1.931   6.247   9.083 -0.5525  0.3245 -0.9495
  139SAPE   C2615130   1.982   6.212   8.879 -0.3867  0.3139 -0.0183
  139SAPE   H6R15131   1.933   6.303   8.842  0.4227  0.6159 -0.3550
  139SAPE   C2715132   2.071   6.136   8.781 -0.0327 -0.3474 -0.0616
  139SAPE   H7R15133   2.167   6.102   8.826  0.2858  0.5839 -0.0118
  139SAPE   H7S15134   2.095   6.205   8.698  1.7208  0.0836  0.7497
  139SAPE   C2815135   2.012   6.017   8.721 -0.1375  0.8903 -0.3366
  139SAPE   H8R15136   1.955   5.947   8.785  0.0929  0.0016 -1.0776
  139SAPE   C2915137   2.008   5.994   8.587  0.4341 -0.2991 -0.5703
  139SAPE   H9R15138   1.971   5.896   8.553  0.3326 -0.5598  0.2779
  139SAPE  C21015139   2.070   6.087   8.479 -0.5822  0.8490 -0.9642
  139SAPE  H10R15140   2.116   6.020   8.403  0.8926 -1.4641  1.7806
  139SAPE  H10S15141   2.157   6.147   8.515  0.3266 -0.2658 -1.2666
  139SAPE  C21115142   1.966   6.188   8.427 -0.3244  0.1855 -0.0593
  139SAPE  H11R15143   1.909   6.241   8.504  0.2798 -0.0077  0.5300
  139SAPE  C21215144   1.944   6.223   8.303 -0.0701 -0.5543 -0.5199
  139SAPE  H12R15145   1.875   6.305   8.279 -1.2194 -1.5307 -0.6435
  139SAPE  C21315146   2.020   6.176   8.185 -0.4614  0.4829  0.4706
  139SAPE  H13R15147   2.102   6.107   8.215 -0.9037 -0.9296 -1.4181
  139SAPE  H13S15148   2.082   6.258   8.143 -0.6315  0.9095  1.0310
  139SAPE  C21415149   1.926   6.103   8.092 -0.0551  0.3273  0.1009
  139SAPE  H14R15150   1.859   6.166   8.031  0.5243  0.0078 -0.9018
  139SAPE  C21515151   1.918   5.967   8.079 -0.2264  0.6125  0.7951
  139SAPE  H15R15152   1.843   5.929   8.008 -0.7181 -2.6942  2.8733
  139SAPE  C21615153   2.000   5.864   8.154  0.3484  0.2512  0.0805
  139SAPE  H16R15154   1.929   5.780   8.173  0.3960  0.3273  0.6250
  139SAPE  H16S15155   2.026   5.898   8.257 -2.2260 -1.7111  1.5302
  139SAPE  C21715156   2.122   5.813   8.083  0.0015 -0.2984 -0.0508
  139SAPE  H17R15157   2.187   5.768   8.161 -0.3106 -0.7428 -0.0489
  139SAPE  H17S15158   2.173   5.908   8.053 -3.2958  1.6427  0.0381
  139SAPE  C21815159   2.107   5.719   7.967 -0.3937  0.2431 -0.2678
  139SAPE  H18R15160   2.049   5.758   7.881 -2.8111 -1.8352  0.2744
  139SAPE  H18S15161   2.053   5.634   8.014 -0.7303  1.3294  1.4074
  139SAPE  C21915162   2.242   5.662   7.923 -0.2335 -0.4113 -0.7359
  139SAPE  H19R15163   2.298   5.629   8.013 -1.6908  0.4954  0.5488
  139SAPE  H19S15164   2.303   5.748   7.889 -2.2702 -0.1119 -4.1736
  139SAPE  C22015165   2.239   5.576   7.803 -0.0031 -0.0098  0.8194
  139SAPE  H20R15166   2.344   5.541   7.789  0.0914  0.2133  0.9726
  139SAPE  H20S15167   2.211   5.628   7.709  0.5521 -3.5327 -1.5220
  139SAPE  H20T15168   2.173   5.489   7.825  0.4986 -0.7133 -0.3883
  139SAPE   C3315169   2.395   6.380   8.971 -0.2952  0.5440 -0.9245
  139SAPE   H3X15170   2.337   6.467   8.935 -0.5543  0.7502 -0.0170
  139SAPE   H3Y15171   2.319   6.300   8.986  2.5312 -1.6343  5.1367
  139SAPE   C3415172   2.507   6.329   8.880 -0.2784  0.2518  0.3088
  139SAPE   H4X15173   2.571   6.259   8.938  0.6653  1.3304  0.5989
  139SAPE   H4Y15174   2.576   6.413   8.861 -1.0040  0.7197 -0.3575
  139SAPE   C3515175   2.463   6.270   8.743  1.0861  0.0879  0.0881
  139SAPE   H5X15176   2.388   6.335   8.692 -0.9347 -2.2809 -0.1444
  139SAPE   H5Y15177   2.393   6.185   8.755 -0.9621  1.6650 -0.1700
  139SAPE   C3615178   2.578   6.251   8.646  0.0468  0.4143  0.3442
  139SAPE   H6X15179   2.659   6.217   8.714 -1.0298 -2.2338  0.3926
  139SAPE   H6Y15180   2.615   6.347   8.603 -1.2445  0.8451  0.1421
  139SAPE   C3715181   2.551   6.139   8.554  0.4449  0.0120 -0.4095
  139SAPE   H7X15182   2.503   6.065   8.621  0.2747 -0.6235 -1.2080
  139SAPE   H7Y15183   2.648   6.100   8.516 -0.1574 -2.3366  0.2883
  139SAPE   C3815184   2.457   6.178   8.440  0.0981 -0.0322  0.3308
  139SAPE   H8X15185   2.353   6.204   8.470  0.2551  0.7640  0.1924
  139SAPE   H8Y15186   2.445   6.088   8.376  2.2049 -0.6400  0.7145
  139SAPE   C3915187   2.505   6.286   8.342 -0.3630  0.0019 -0.1608
  139SAPE   H9X15188   2.609   6.265   8.308 -0.2701  1.2320 -0.6766
  139SAPE   H9Y15189   2.506   6.380   8.401 -1.9883  0.1162 -0.2581
  139SAPE  C31015190   2.406   6.312   8.229 -0.4025 -1.0616 -1.3009
  139SAPE  H10X15191   2.451   6.401   8.181 -0.8472  0.9476  1.7778
  139SAPE  H10Y15192   2.302   6.334   8.263 -0.1817  0.8180 -1.7526
  139SAPE  C31115193   2.417   6.201   8.121 -0.3434  0.1648 -0.4883
  139SAPE  H11X15194   2.359   6.110   8.149 -1.9945  0.3526 -2.9438
  139SAPE  H11Y15195   2.524   6.172   8.125  0.4751  3.0793  2.4717
  139SAPE  C31215196   2.398   6.257   7.979  0.1385  0.1751  0.0391
  139SAPE  H12X15197   2.488   6.303   7.933  0.2411  1.4019  1.3995
  139SAPE  H12Y15198   2.315   6.330   7.978 -1.5834 -1.6642  1.3506
  139SAPE  C31315199   2.344   6.149   7.877  0.8550 -0.0458  0.1724
  139SAPE  H13X15200   2.304   6.057   7.924  1.4349 -2.0627 -2.9990
  139SAPE  H13Y15201   2.426   6.126   7.806 -0.0006  1.0686 -1.2235
  139SAPE  C31415202   2.240   6.194   7.775 -0.0510 -0.8702  0.1639
  139SAPE  H14X15203   2.144   6.220   7.826  0.2070  0.0879  0.1892
  139SAPE  H14Y15204   2.205   6.109   7.714 -0.8145 -0.5179  0.0960
  139SAPE  C31515205   2.289   6.311   7.694 -0.4122  0.0748 -0.0157
  139SAPE  H15X15206   2.395   6.292   7.670 -0.4882 -1.4797  0.8319
  139SAPE  H15Y15207   2.293   6.404   7.756  1.7845  1.0624 -1.5128
  139SAPE  C31615208   2.208   6.327   7.565 -0.1656  0.5013 -0.3057
  139SAPE  H16X15209   2.233   6.250   7.490 -1.8727  0.1714 -0.5927
  139SAPE  H16Y15210   2.104   6.306   7.599  0.4606 -2.6214 -0.0239
  139SAPE  C31715211   2.224   6.462   7.492 -0.6184 -0.2374 -0.1137
  139SAPE  H17X15212   2.329   6.489   7.468 -1.3995  1.9089 -1.4417
  139SAPE  H17Y15213   2.208   6.542   7.568  1.8112  0.0448  0.1937
  139SAPE  C31815214   2.142   6.482   7.363 -0.2230 -0.7161 -0.2109
  139SAPE  H18X15215   2.032   6.475   7.380 -0.3811  1.9790  0.3959
  139SAPE  H18Y15216   2.170   6.418   7.277 -1.1332  0.1033 -1.1574
  139SAPE  H18Z15217   2.156   6.587   7.329  0.0330 -0.8144 -0.4036
  140SAPE     N15218   5.265   0.986   9.996 -0.6657  0.1334 -0.1842
  140SAPE   HN115219   5.252   1.024  10.092 -0.8279  0.7332 -0.4379
  140SAPE   HN215220   5.196   1.037   9.937  0.8136 -0.7694 -2.9321
  140SAPE   HN315221   5.238   0.887   9.984  0.2963 -0.4663  2.1224
  140SAPE   C1215222   5.406   1.025   9.938  0.5630 -0.2776 -0.1024
  140SAPE  H12A15223   5.480   0.962   9.993  0.4143 -0.5569 -0.2220
  140SAPE  H12B15224   5.403   1.135   9.951 -1.8455 -0.1943 -0.9910
  140SAPE   C1115225   5.425   0.978   9.794 -0.0554  0.2453 -0.3205
  140SAPE  H11A15226   5.528   0.981   9.753  0.3239 -2.8000  0.1770
  140SAPE  H11B15227   5.365   1.040   9.724 -1.1886 -2.9182 -2.3405
  140SAPE     P15228   5.467   0.717   9.796 -0.2918  0.2079 -0.0055
  140SAPE   O1315229   5.595   0.762   9.859 -0.1689  0.2494  0.0908
  140SAPE   O1415230   5.389   0.608   9.864 -0.0991 -0.3937 -0.5207
  140SAPE   O1215231   5.375   0.845   9.778  0.4046  0.5284  0.5587
  140SAPE   O1115232   5.507   0.685   9.649 -0.0365  0.2072  0.2784
  140SAPE    C115233   5.411   0.657   9.544  0.2269  0.3728 -0.2342
  140SAPE    HA15234   5.384   0.549   9.547 -0.9929  0.6934  1.4348
  140SAPE    HB15235   5.318   0.717   9.554  0.0639  0.5627 -2.4421
  140SAPE    C215236   5.468   0.704   9.415 -0.0990 -0.0609  1.5889
  140SAPE    HS15237   5.397   0.666   9.339  2.2814  0.1225 -0.8815
  140SAPE   O2115238   5.594   0.658   9.372  0.0787  0.7567  0.7614
  140SAPE   C2115239   5.623   0.530   9.389  0.4461 -0.6879 -0.5087
  140SAPE   O2215240   5.553   0.445   9.436  0.2867  0.1497 -0.0822
  140SAPE   C2215241   5.778   0.522   9.369 -0.5191 -0.2524  0.3974
  140SAPE   H2R15242   5.820   0.611   9.318  2.3222 -0.2619  2.5239
  140SAPE   H2S15243   5.832   0.521   9.466 -1.3812 -2.8897  0.9376
  140SAPE    C315244   5.492   0.856   9.396  0.1774 -0.0046  0.2182
  140SAPE    HX15245   5.600   0.881   9.390  0.0786  0.4169  0.2119
  140SAPE    HY15246   5.453   0.910   9.485  0.8793 -0.5375  0.8659
  140SAPE   O3115247   5.426   0.895   9.269  0.0533 -0.6364 -0.5621
  140SAPE   C3115248   5.424   1.027   9.255 -0.0084  0.0011  0.1916
  140SAPE   O3215249   5.450   1.108   9.346  0.1795 -0.3306  0.5474
  140SAPE   C3215250   5.367   1.064   9.118 -0.2348 -0.6934 -0.2930
  140SAPE   H2X15251   5.273   1.118   9.142  0.7825 -0.1793  3.1118
  140SAPE   H2Y15252   5.354   0.974   9.053 -1.2768  0.4775 -1.7737
  140SAPE   C2315253   5.828   0.414   9.273 -0.6707 -0.2661  0.4635
  140SAPE   H3R15254   5.800   0.315   9.316  1.0066  0.2339  2.8961
  140SAPE   H3S15255   5.938   0.414   9.286 -0.8148  1.5031  2.1181
  140SAPE   C2415256   5.802   0.438   9.119 -0.6642 -0.4073 -0.3107
  140SAPE   H4R15257   5.884   0.390   9.061 -2.5703 -2.8493 -1.1396
  140SAPE   H4S15258   5.785   0.548   9.117  3.1220  0.4028  1.4316
  140SAPE   C2515259   5.671   0.380   9.072 -0.6067  0.3977 -0.3238
  140SAPE   H5R15260   5.590   0.392   9.146 -2.1546 -0.2421 -1.8561
  140SAPE   C2615261   5.633   0.307   8.968  0.5500  0.4764 -0.0766
  140SAPE   H6R15262   5.524   0.295   8.955  0.2084  3.9181 -1.5537
  140SAPE   C2715263   5.728   0.260   8.855 -0.0151 -0.2583 -0.5627
  140SAPE   H7R15264   5.784   0.180   8.907 -3.2487 -1.3032  1.6744
  140SAPE   H7S15265   5.806   0.332   8.824  3.0429 -3.3545 -0.7259
  140SAPE   C2815266   5.679   0.217   8.719  0.2033  0.8857  0.2462
  140SAPE   H8R15267   5.696   0.111   8.693 -0.6037  0.8382 -0.1116
  140SAPE   C2915268   5.639   0.302   8.617  0.3118  0.7360  0.8724
  140SAPE   H9R15269   5.610   0.258   8.520  1.9727 -0.7443  0.9772
  140SAPE  C21015270   5.640   0.455   8.632  0.0602 -0.0195  0.0087
  140SAPE  H10R15271   5.609   0.475   8.737  1.7274  1.4628  0.2675
  140SAPE  H10S15272   5.555   0.504   8.579 -1.5173  0.4815  2.8331
  140SAPE  C21115273   5.773   0.510   8.591 -0.6114 -0.0584 -0.2829
  140SAPE  H11R15274   5.853   0.479   8.660 -0.1496  0.4845 -0.5610
  140SAPE  C21215275   5.803   0.566   8.468  0.4244 -0.7344  0.1422
  140SAPE  H12R15276   5.901   0.611   8.450 -0.1741  1.2719  1.6178
  140SAPE  C21315277   5.710   0.594   8.352  0.2338  0.2818 -0.2930
  140SAPE  H13R15278   5.675   0.699   8.341 -0.3706 -0.1360 -3.2396
  140SAPE  H13S15279   5.622   0.529   8.371  0.4889  0.1689  0.5475
  140SAPE  C21415280   5.765   0.564   8.217 -0.4786 -0.0235 -0.3834
  140SAPE  H14R15281   5.856   0.617   8.184  0.5795 -1.5855 -0.1242
  140SAPE  C21515282   5.718   0.477   8.124  0.0814 -0.8857  0.4422
  140SAPE  H15R15283   5.749   0.481   8.018 -0.2908  0.9500  0.3624
  140SAPE  C21615284   5.597   0.400   8.138  0.0611  0.2536  0.0552
  140SAPE  H16R15285   5.546   0.375   8.042 -0.4202  1.0434  0.0939
  140SAPE  H16S15286   5.520   0.458   8.194  1.4355  2.3558 -0.1371
  140SAPE  C21715287   5.635   0.268   8.214 -0.0854  0.0731 -0.1205
  140SAPE  H17R15288   5.670   0.289   8.317  1.3254 -0.8068 -0.4008
  140SAPE  H17S15289   5.695   0.192   8.160 -2.4659 -1.3839 -0.8516
  140SAPE  C21815290   5.519   0.171   8.249  0.4728 -0.1765  0.8245
  140SAPE  H18R15291   5.440   0.233   8.297 -0.5544 -1.0359  0.2901
  140SAPE  H18S15292   5.539   0.091   8.323  1.7034  0.9744  1.7924
  140SAPE  C21915293   5.453   0.109   8.121 -0.2025 -0.0567  0.0301
  140SAPE  H19R15294   5.456   0.187   8.043  1.3213 -0.4757 -0.3476
  140SAPE  H19S15295   5.346   0.090   8.145 -0.4231  0.0489 -0.8406
  140SAPE  C22015296   5.528  -0.014   8.077 -0.1270 -0.4648  0.0006
  140SAPE  H20R15297   5.488  -0.098   8.139  0.2705  1.1178  2.5762
  140SAPE  H20S15298   5.637  -0.009   8.095  0.2614  1.4136 -2.4238
  140SAPE  H20T15299   5.502  -0.039   7.972  1.8640  1.8627 -1.1376
  140SAPE   C3315300   5.464   1.160   9.054 -0.8957 -0.9269 -0.8107
  140SAPE   H3X15301   5.567   1.119   9.047 -0.3786 -0.4463  2.3023
  140SAPE   H3Y15302   5.478   1.252   9.114 -1.1486 -0.5036 -1.3901
  140SAPE   C3415303   5.422   1.212   8.913 -0.4682  0.8589  0.2778
  140SAPE   H4X15304   5.312   1.223   8.918 -0.2836  2.5061  1.8488
  140SAPE   H4Y15305   5.458   1.138   8.839  2.2897  0.1766  2.1308
  140SAPE   C3515306   5.491   1.346   8.878 -0.0225 -0.3758 -0.2011
  140SAPE   H5X15307   5.597   1.360   8.907 -0.2744 -2.1399  1.8573
  140SAPE   H5Y15308   5.435   1.426   8.931  0.4303 -0.5784  0.5924
  140SAPE   C3615309   5.472   1.364   8.726 -0.0990 -0.0509 -0.0640
  140SAPE   H6X15310   5.368   1.381   8.691 -0.5752 -0.5174  1.0961
  140SAPE   H6Y15311   5.506   1.271   8.675 -1.4231 -0.5255 -0.1278
  140SAPE   C3715312   5.554   1.486   8.683  0.2728 -0.2307 -0.4437
  140SAPE   H7X15313   5.661   1.460   8.671  0.9009  2.9989 -3.6833
  140SAPE   H7Y15314   5.554   1.561   8.766 -2.4885  0.4191 -0.9224
  140SAPE   C3815315   5.501   1.538   8.549 -0.0203  0.3772 -0.4472
  140SAPE   H8X15316   5.393   1.552   8.568  0.0533  1.9521 -1.0576
  140SAPE   H8Y15317   5.516   1.451   8.480 -1.0921 -0.1984  0.0144
  140SAPE   C3915318   5.565   1.668   8.504  0.0546  0.2807  0.0273
  140SAPE   H9X15319   5.674   1.654   8.491  0.4760  1.3025  2.0681
  140SAPE   H9Y15320   5.545   1.747   8.580  0.6082  0.5737 -0.1299
  140SAPE  C31015321   5.508   1.719   8.369  0.3782 -0.0227 -0.3912
  140SAPE  H10X15322   5.397   1.731   8.368  0.0994 -2.0530 -2.8101
  140SAPE  H10Y15323   5.528   1.640   8.294  0.0053 -1.1325  0.6351
  140SAPE  C31115324   5.572   1.847   8.328 -0.2361  0.1512  0.0710
  140SAPE  H11X15325   5.667   1.824   8.276  0.6423 -1.7051  2.3455
  140SAPE  H11Y15326   5.595   1.914   8.414  2.1213 -0.1315 -0.2650
  140SAPE  C31215327   5.481   1.921   8.223  0.2051  0.0820  1.4377
  140SAPE  H12X15328   5.541   2.011   8.194  3.8137 -2.0348  1.6969
  140SAPE  H12Y15329   5.380   1.947   8.260 -0.7960  0.6009 -1.3679
  140SAPE  C31315330   5.446   1.835   8.093 -1.0580 -0.0432 -0.2013
  140SAPE  H13X15331   5.385   1.743   8.108 -0.8320  0.0250  1.3196
  140SAPE  H13Y15332   5.545   1.811   8.051 -0.8328  1.4185 -0.5823
  140SAPE  C31415333   5.370   1.921   7.993 -0.1223 -0.1910  0.0883
  140SAPE  H14X15334   5.423   2.015   7.967 -0.7998  0.8003  2.1132
  140SAPE  H14Y15335   5.270   1.953   8.028 -0.3838 -2.6239  1.7821
  140SAPE  C31515336   5.344   1.839   7.865  0.5258 -0.3773  0.6326
  140SAPE  H15X15337   5.270   1.757   7.880  1.0681 -0.9633  0.1429
  140SAPE  H15Y15338   5.442   1.804   7.828  1.2064  0.8700  1.1958
  140SAPE  C31615339   5.288   1.934   7.747  0.2609  0.0396 -0.0602
  140SAPE  H16X15340   5.253   1.861   7.671 -0.4980 -0.8125  1.0842
  140SAPE  H16Y15341   5.370   1.996   7.703 -1.5019  1.1567 -1.9238
  140SAPE  C31715342   5.177   2.031   7.791 -0.4059  0.1932  0.3632
  140SAPE  H17X15343   5.209   2.108   7.864 -1.0713  0.3103  0.5409
  140SAPE  H17Y15344   5.102   1.975   7.851  0.2847 -1.0004  0.1443
  140SAPE  C31815345   5.102   2.097   7.677 -0.6337  0.4254 -0.4489
  140SAPE  H18X15346   5.060   2.012   7.619  2.6601 -1.0038 -0.9750
  140SAPE  H18Y15347   5.175   2.152   7.615 -0.9174  3.6177  1.7952
  140SAPE  H18Z15348   5.030   2.175   7.708 -0.5579  0.2726  0.1252
  141SAPE     N15349   6.330   2.888   9.986 -0.4990  0.1392  0.7475
  141SAPE   HN115350   6.359   2.808   9.927  1.1471 -0.2697  2.0266
  141SAPE   HN215351   6.403   2.962   9.985 -2.0636  1.7771 -1.0514
  141SAPE   HN315352   6.319   2.841  10.078  1.1916  0.9855  1.4275
  141SAPE   C1215353   6.200   2.949   9.942  0.0663  0.1694 -0.3412
  141SAPE  H12A15354   6.218   3.051   9.903 -0.0562  1.1608  2.0435
  141SAPE  H12B15355   6.123   2.956  10.021 -0.7802  1.4242 -1.2533
  141SAPE   C1115356   6.129   2.864   9.827 -1.1847  0.0132  0.0810
  141SAPE  H11A15357   6.019   2.878   9.838 -1.2921 -1.8325  1.7744
  141SAPE  H11B15358   6.155   2.759   9.853 -0.7092  0.3350  0.9536
  141SAPE     P15359   6.124   3.029   9.611 -0.1348  0.3125 -0.2375
  141SAPE   O1315360   5.977   3.031   9.605  0.3780  0.9006  0.6725
  141SAPE   O1415361   6.191   3.144   9.670 -0.1963 -0.0765 -0.3246
  141SAPE   O1215362   6.170   2.909   9.700 -0.1841 -0.3436  0.0544
  141SAPE   O1115363   6.186   2.992   9.468 -0.3615  0.6634 -0.0179
  141SAPE    C115364   6.253   2.870   9.450 -0.4678  0.3709  0.2904
  141SAPE    HA15365   6.220   2.784   9.512  0.7509 -0.8351 -0.6643
  141SAPE    HB15366   6.231   2.842   9.345  1.6331  2.6015 -0.8595
  141SAPE    C215367   6.407   2.877   9.466  0.1335  0.3240 -0.0822
  141SAPE    HS15368   6.440   2.924   9.562  0.5587 -0.6347  0.2583
  141SAPE   O2115369   6.455   2.952   9.349  0.3854  0.5259 -0.4362
  141SAPE   C2115370   6.573   2.993   9.355 -0.5430  0.2283 -0.2792
  141SAPE   O2215371   6.649   2.962   9.446 -0.1365 -0.2326  0.2396
  141SAPE   C2215372   6.603   3.076   9.223 -0.2949 -0.0374  0.0720
  141SAPE   H2R15373   6.540   3.043   9.138 -0.9299 -0.4028  0.6655
  141SAPE   H2S15374   6.574   3.181   9.242 -0.2169 -0.1656  0.9823
  141SAPE    C315375   6.465   2.735   9.461  0.0004 -0.4409  0.3992
  141SAPE    HX15376   6.446   2.690   9.561  0.8032  1.1295  1.2901
  141SAPE    HY15377   6.574   2.754   9.461 -0.4669  2.8636  0.9282
  141SAPE   O3115378   6.419   2.667   9.349  0.3164 -0.4347  0.2287
  141SAPE   C3115379   6.501   2.646   9.249 -0.4181  0.5664  0.1647
  141SAPE   O3215380   6.622   2.662   9.249  0.0699 -0.6162  0.1352
  141SAPE   C3215381   6.421   2.578   9.134  0.3295 -0.5289 -0.6977
  141SAPE   H2X15382   6.319   2.617   9.115  1.2893  1.0268 -3.2384
  141SAPE   H2Y15383   6.415   2.471   9.162  1.7000 -0.0411  1.6968
  141SAPE   C2315384   6.756   3.082   9.178  0.1780 -0.3671  0.3107
  141SAPE   H3R15385   6.805   3.159   9.242  2.8710 -0.5169 -1.4052
  141SAPE   H3S15386   6.755   3.128   9.077  0.8458  2.0396  1.3351
  141SAPE   C2415387   6.835   2.952   9.204 -0.4669 -0.7779 -0.3265
  141SAPE   H4R15388   6.825   2.909   9.306  0.6430 -0.4430 -0.0641
  141SAPE   H4S15389   6.945   2.969   9.206 -0.3435 -1.2045  3.1586
  141SAPE   C2515390   6.807   2.862   9.093  0.2758  0.2475  0.7866
  141SAPE   H5R15391   6.701   2.833   9.101  0.4089 -0.8821 -1.0436
  141SAPE   C2615392   6.874   2.810   8.995 -0.1953 -0.6284  0.7422
  141SAPE   H6R15393   6.821   2.737   8.931 -1.9319 -0.1069  1.5097
  141SAPE   C2715394   7.015   2.836   8.948  0.3943  0.1410 -0.0915
  141SAPE   H7R15395   7.048   2.744   8.895  2.0498 -0.3252  1.6561
  141SAPE   H7S15396   7.082   2.860   9.033  1.0347 -0.9281 -0.2813
  141SAPE   C2815397   7.031   2.951   8.856 -0.3251 -0.3074 -0.1483
  141SAPE   H8R15398   7.061   3.039   8.914 -1.9927 -1.0193  1.9237
  141SAPE   C2915399   7.031   2.968   8.727 -0.3353  0.1248  0.0062
  141SAPE   H9R15400   7.030   3.072   8.689 -1.1022 -0.1448 -0.7583
  141SAPE  C21015401   7.030   2.852   8.623 -0.1825 -0.0126 -0.7213
  141SAPE  H10R15402   7.026   2.749   8.665 -1.6717  0.6324  0.8331
  141SAPE  H10S15403   7.116   2.848   8.552  0.1983  2.4531 -0.5148
  141SAPE  C21115404   6.908   2.876   8.534  0.1304 -0.6143  0.1379
  141SAPE  H11R15405   6.819   2.815   8.554 -0.7618  0.0280 -1.6745
  141SAPE  C21215406   6.914   2.951   8.422 -0.0546 -0.7461  0.0175
  141SAPE  H12R15407   6.821   2.978   8.369  0.6789 -0.9359 -1.4252
  141SAPE  C21315408   7.034   3.028   8.376 -0.3572  0.1888  0.4778
  141SAPE  H13R15409   7.094   3.065   8.462  1.1035 -1.2697  0.1331
  141SAPE  H13S15410   6.990   3.120   8.330 -1.8886 -2.3537 -3.6971
  141SAPE  C21415411   7.131   2.948   8.291  0.0341 -0.1613  0.0311
  141SAPE  H14R15412   7.149   2.844   8.320  1.7500  0.1718  0.2655
  141SAPE  C21515413   7.200   2.990   8.177  0.5829  0.3534 -0.6488
  141SAPE  H15R15414   7.271   2.925   8.124  1.1582  0.7670 -0.3819
  141SAPE  C21615415   7.187   3.120   8.112 -0.5766  0.4521 -0.8943
  141SAPE  H16R15416   7.289   3.164   8.112  0.1213 -1.0697  0.2556
  141SAPE  H16S15417   7.113   3.187   8.161 -0.1754  1.7126 -1.9558
  141SAPE  C21715418   7.152   3.115   7.968  0.3778  0.0173 -0.3686
  141SAPE  H17R15419   7.199   3.030   7.915 -2.4443 -0.5953 -2.1001
  141SAPE  H17S15420   7.186   3.207   7.915 -1.8728  0.2220 -1.5822
  141SAPE  C21815421   6.998   3.097   7.948 -0.0358  0.1395  0.0339
  141SAPE  H18R15422   6.954   3.187   7.996 -1.0211 -0.5790  0.5147
  141SAPE  H18S15423   6.969   3.003   7.999 -2.2207  0.5765 -0.3185
  141SAPE  C21915424   6.959   3.075   7.799  0.7172  0.1456 -0.4919
  141SAPE  H19R15425   7.023   2.990   7.764  1.3223 -0.1986  1.3437
  141SAPE  H19S15426   6.983   3.169   7.746  1.7316  1.2021  1.7318
  141SAPE  C22015427   6.811   3.042   7.775 -0.1523  0.3634 -0.1531
  141SAPE  H20R15428   6.746   3.125   7.811 -0.1039 -0.0870  1.0209
  141SAPE  H20S15429   6.772   2.953   7.829  1.0877  1.5327  2.8774
  141SAPE  H20T15430   6.784   3.027   7.668 -2.4531 -2.1257  0.6612
  141SAPE   C3315431   6.500   2.577   9.000  0.0956 -0.4224  0.1030
  141SAPE   H3X15432   6.602   2.546   9.028  0.3498  1.2979  1.2279
  141SAPE   H3Y15433   6.503   2.683   8.968  0.2828 -0.1556  0.9720
  141SAPE   C3415434   6.442   2.472   8.895 -1.1650 -0.1812 -0.3181
  141SAPE   H4X15435   6.331   2.474   8.895 -1.2311 -1.7521 -0.9732
  141SAPE   H4Y15436   6.478   2.372   8.928  1.7545  0.5963 -0.9059
  141SAPE   C3515437   6.505   2.484   8.755  0.2300 -0.3821 -0.1547
  141SAPE   H5X15438   6.459   2.574   8.709  0.3884 -0.4228 -0.3919
  141SAPE   H5Y15439   6.470   2.396   8.698  0.6239 -0.0033 -0.9929
  141SAPE   C3615440   6.653   2.492   8.753 -0.3731  0.3955  0.3205
  141SAPE   H6X15441   6.700   2.405   8.804 -2.1668  0.4075  2.1357
  141SAPE   H6Y15442   6.689   2.576   8.817  0.1319 -1.2341  2.2652
  141SAPE   C3715443   6.703   2.526   8.612  0.8052 -0.1846  0.3018
  141SAPE   H7X15444   6.814   2.521   8.624  1.3528  1.3099 -2.9435
  141SAPE   H7Y15445   6.665   2.624   8.576  1.6627  0.0175 -0.0815
  141SAPE   C3815446   6.678   2.414   8.512  0.1513  0.4020  0.2131
  141SAPE   H8X15447   6.572   2.402   8.483 -0.0157  0.0228  0.9442
  141SAPE   H8Y15448   6.713   2.317   8.554 -1.4462  0.2476  1.2831
  141SAPE   C3915449   6.764   2.444   8.388  0.4238 -0.4709 -0.3190
  141SAPE   H9X15450   6.739   2.367   8.312  0.7942 -2.2349  1.2758
  141SAPE   H9Y15451   6.872   2.438   8.412  0.5982  1.5488 -0.3888
  141SAPE  C31015452   6.735   2.578   8.323 -0.0917  0.2787 -0.1004
  141SAPE  H10X15453   6.774   2.670   8.373 -0.1760  0.9833 -1.2968
  141SAPE  H10Y15454   6.626   2.593   8.308 -0.0747  0.8289  0.2898
  141SAPE  C31115455   6.787   2.575   8.177  0.0326  0.4367  0.9076
  141SAPE  H11X15456   6.750   2.484   8.126 -0.3687  1.3408 -0.4414
  141SAPE  H11Y15457   6.898   2.565   8.174 -0.0178  0.1911 -0.8004
  141SAPE  C31215458   6.758   2.701   8.104  0.2897  0.0324 -0.0892
  141SAPE  H12X15459   6.809   2.702   8.005 -1.8080  1.6540 -1.2421
  141SAPE  H12Y15460   6.795   2.793   8.154  1.4290  0.7562 -2.1365
  141SAPE  C31315461   6.611   2.728   8.077 -0.2563  0.2952  0.3686
  141SAPE  H13X15462   6.559   2.759   8.170 -0.6157 -0.1737  0.3320
  141SAPE  H13Y15463   6.572   2.628   8.047  0.2260  0.1474  0.2260
  141SAPE  C31415464   6.571   2.828   7.965 -0.0054  0.2235  0.0397
  141SAPE  H14X15465   6.617   2.787   7.872  1.4649  0.3383  0.6954
  141SAPE  H14Y15466   6.600   2.932   7.990  0.9914 -0.2996  1.1039
  141SAPE  C31515467   6.423   2.835   7.928 -0.1433  0.5476 -0.2194
  141SAPE  H15X15468   6.352   2.877   8.002 -1.2024 -1.7607  0.1600
  141SAPE  H15Y15469   6.394   2.728   7.919  1.0408  0.2762 -0.9929
  141SAPE  C31615470   6.391   2.899   7.790  0.6406 -0.7414 -0.6841
  141SAPE  H16X15471   6.293   2.857   7.756 -0.9963  0.2320  2.4630
  141SAPE  H16Y15472   6.465   2.870   7.712  0.7466  0.3416 -0.9997
  141SAPE  C31715473   6.372   3.051   7.798  0.3142  0.4801 -0.5991
  141SAPE  H17X15474   6.455   3.097   7.855 -0.4015  0.7028  0.2841
  141SAPE  H17Y15475   6.285   3.075   7.863  0.2440  0.0619 -0.5369
  141SAPE  C31815476   6.349   3.111   7.662  0.1244 -0.6247 -0.3554
  141SAPE  H18X15477   6.261   3.067   7.611 -2.1215  1.4576  1.4598
  141SAPE  H18Y15478   6.439   3.112   7.596 -0.4663  0.7399 -1.1972
  141SAPE  H18Z15479   6.334   3.221   7.674 -1.6867 -0.9604  0.8369
  142SAPE     N15480   6.717   1.706  10.048 -0.1130 -0.1631 -0.6651
  142SAPE   HN115481   6.743   1.659   9.958  0.8944 -0.5058 -0.2059
  142SAPE   HN215482   6.809   1.702  10.097 -0.6800  0.4950  0.4824
  142SAPE   HN315483   6.657   1.644  10.106  0.4758 -1.0002 -0.9254
  142SAPE   C1215484   6.652   1.845  10.033 -0.1632 -0.4234 -0.3264
  142SAPE  H12A15485   6.721   1.917  10.081 -0.9177  0.6435 -0.7882
  142SAPE  H12B15486   6.554   1.832  10.083 -0.0390 -0.4895 -0.0999
  142SAPE   C1115487   6.639   1.875   9.883  0.0906 -0.7640 -0.4657
  142SAPE  H11A15488   6.712   1.820   9.820  0.3184 -0.5949 -0.3526
  142SAPE  H11B15489   6.651   1.986   9.878 -1.6689 -0.3204  2.4416
  142SAPE     P15490   6.463   1.884   9.687 -0.2460  0.3313 -0.3889
  142SAPE   O1315491   6.360   1.798   9.632  0.2439 -0.3448 -0.0591
  142SAPE   O1415492   6.443   2.030   9.685 -0.1277  0.0642  0.0925
  142SAPE   O1215493   6.509   1.835   9.837  0.0188 -0.2408 -0.1646
  142SAPE   O1115494   6.596   1.849   9.610 -0.2945 -0.4563  1.3835
  142SAPE    C115495   6.669   1.951   9.528  0.4918  0.0244  0.4902
  142SAPE    HA15496   6.649   2.056   9.556 -1.5494 -0.0536 -0.4746
  142SAPE    HB15497   6.779   1.935   9.536  0.3835 -1.1242 -0.0768
  142SAPE    C215498   6.632   1.936   9.374 -0.5648 -0.0711 -0.0982
  142SAPE    HS15499   6.711   1.979   9.308 -0.5622 -0.8290 -0.6033
  142SAPE   O2115500   6.506   2.000   9.344 -0.4399 -0.2646 -0.5722
  142SAPE   C2115501   6.512   2.121   9.312  0.0553 -0.3830 -0.3628
  142SAPE   O2215502   6.609   2.198   9.312 -0.0826  0.0398  0.3775
  142SAPE   C2215503   6.367   2.175   9.298  0.0544  0.0535  0.4167
  142SAPE   H2R15504   6.305   2.114   9.366  0.0763 -0.4760 -0.0340
  142SAPE   H2S15505   6.381   2.280   9.332  2.7387 -0.1135  0.0808
  142SAPE    C315506   6.620   1.789   9.339  0.3556  0.1039 -0.4367
  142SAPE    HX15507   6.525   1.750   9.380  1.1758 -2.9245 -1.1791
  142SAPE    HY15508   6.710   1.741   9.383  0.2952 -2.0208 -2.4003
  142SAPE   O3115509   6.635   1.768   9.197  0.1996 -0.2050 -0.0417
  142SAPE   C3115510   6.631   1.632   9.170  0.5168 -0.2874 -0.0421
  142SAPE   O3215511   6.626   1.550   9.256  0.1116  0.4845 -0.0902
  142SAPE   C3215512   6.634   1.611   9.023 -0.2292  0.5584  0.6682
  142SAPE   H2X15513   6.729   1.649   8.980  0.8137 -2.0668  0.4579
  142SAPE   H2Y15514   6.545   1.660   8.979 -1.2410 -2.4034 -0.8061
  142SAPE   C2315515   6.328   2.179   9.152  0.3351 -0.3095  0.1662
  142SAPE   H3R15516   6.413   2.203   9.084 -0.3861  1.6361 -0.1092
  142SAPE   H3S15517   6.274   2.272   9.127  1.4276 -0.2443 -2.2848
  142SAPE   C2415518   6.240   2.060   9.110  0.4231 -0.2415  0.5703
  142SAPE   H4R15519   6.184   2.109   9.028 -1.0011 -0.1434  1.5558
  142SAPE   H4S15520   6.164   2.032   9.186 -0.5334  0.6130 -0.0595
  142SAPE   C2515521   6.329   1.947   9.071 -0.2829 -0.7273  0.6151
  142SAPE   H5R15522   6.394   1.914   9.154  1.8338  0.3473 -0.5238
  142SAPE   C2615523   6.338   1.892   8.946 -0.4630  0.2136  0.6922
  142SAPE   H6R15524   6.402   1.803   8.941 -2.6127 -1.3654 -0.6052
  142SAPE   C2715525   6.256   1.924   8.825  0.4436 -0.9747  0.6856
  142SAPE   H7R15526   6.153   1.957   8.850  0.2308  0.8435 -2.1973
  142SAPE   H7S15527   6.246   1.828   8.769  0.7179 -0.4230 -0.3248
  142SAPE   C2815528   6.328   2.041   8.750 -0.3139  0.1734 -0.1866
  142SAPE   H8R15529   6.342   2.132   8.810  2.2911 -1.0740  1.2643
  142SAPE   C2915530   6.357   2.054   8.616  0.4424 -0.1779 -0.4417
  142SAPE   H9R15531   6.398   2.148   8.577  0.4213 -0.1390 -0.3709
  142SAPE  C21015532   6.339   1.956   8.504  0.3530 -0.0836  0.0813
  142SAPE  H10R15533   6.358   2.007   8.407  0.5538 -2.1266 -1.0119
  142SAPE  H10S15534   6.238   1.912   8.515  0.6274 -0.3580  1.8091
  142SAPE  C21115535   6.427   1.833   8.510 -0.2072  0.2125 -0.6705
  142SAPE  H11R15536   6.453   1.793   8.609 -1.5361 -1.9771 -1.1601
  142SAPE  C21215537   6.467   1.754   8.402 -0.5520 -0.2766 -0.2859
  142SAPE  H12R15538   6.532   1.666   8.416  0.3261  0.3785 -0.1327
  142SAPE  C21315539   6.435   1.779   8.258  0.0524  0.7250  0.6128
  142SAPE  H13R15540   6.327   1.808   8.257  0.1994  1.8266 -3.9279
  142SAPE  H13S15541   6.452   1.697   8.185 -1.5522  0.8844 -0.0056
  142SAPE  C21415542   6.500   1.903   8.202 -0.7203  0.0757 -0.6236
  142SAPE  H14R15543   6.548   1.971   8.275 -1.1505 -0.9695  0.6743
  142SAPE  C21515544   6.516   1.928   8.071 -0.0769 -0.1145  0.1411
  142SAPE  H15R15545   6.574   2.018   8.043  2.7726 -1.7313  0.4099
  142SAPE  C21615546   6.464   1.837   7.965 -0.2496 -1.0610  0.4433
  142SAPE  H16R15547   6.356   1.857   7.950  0.1800  1.0624 -0.0722
  142SAPE  H16S15548   6.499   1.733   7.986 -1.7692 -1.8811 -0.8953
  142SAPE  C21715549   6.517   1.869   7.827  0.4026 -0.4517  0.5136
  142SAPE  H17R15550   6.625   1.893   7.835  0.2961 -0.2165  1.3197
  142SAPE  H17S15551   6.466   1.962   7.795  1.8724  0.8444  1.7893
  142SAPE  C21815552   6.503   1.759   7.715  0.1060  0.1980 -0.1236
  142SAPE  H18R15553   6.399   1.758   7.675  0.8694  1.4387 -2.3030
  142SAPE  H18S15554   6.541   1.667   7.764  0.8633  0.1471 -0.7928
  142SAPE  C21915555   6.601   1.782   7.601  0.8281  0.5622 -0.0260
  142SAPE  H19R15556   6.708   1.782   7.631  0.8250  1.0867 -0.0130
  142SAPE  H19S15557   6.579   1.880   7.553  0.9790 -0.2134 -1.7565
  142SAPE  C22015558   6.591   1.675   7.495 -0.0457  0.4471 -0.3056
  142SAPE  H20R15559   6.486   1.659   7.461 -0.1423 -2.1689  0.9525
  142SAPE  H20S15560   6.623   1.579   7.540  0.2616 -0.1355 -1.7194
  142SAPE  H20T15561   6.658   1.687   7.408  0.5072 -4.4177 -0.8581
  142SAPE   C3315562   6.629   1.467   8.983 -0.6260  0.6586  0.1833
  142SAPE   H3X15563   6.530   1.426   9.012 -0.9840  0.0368 -1.7574
  142SAPE   H3Y15564   6.713   1.403   9.020  2.5575  3.9581 -0.6952
  142SAPE   C3415565   6.622   1.441   8.831  0.1516 -0.1370 -0.1539
  142SAPE   H4X15566   6.533   1.497   8.795 -0.5573  0.8463  2.8582
  142SAPE   H4Y15567   6.599   1.334   8.814 -1.4256 -0.1361  1.6685
  142SAPE   C3515568   6.757   1.467   8.757  0.0388  0.4957 -0.6140
  142SAPE   H5X15569   6.835   1.400   8.801 -1.1501 -1.1819 -0.9760
  142SAPE   H5Y15570   6.786   1.574   8.766 -0.9664  0.8148 -1.0145
  142SAPE   C3615571   6.757   1.453   8.605  0.2044 -0.0414  0.0015
  142SAPE   H6X15572   6.713   1.545   8.561  1.7089  1.0984  0.7695
  142SAPE   H6Y15573   6.698   1.361   8.585  1.3582 -0.7949 -0.0611
  142SAPE   C3715574   6.904   1.424   8.562 -0.5277  0.0346 -0.7557
  142SAPE   H7X15575   6.942   1.340   8.625  1.4740  1.4360  0.0245
  142SAPE   H7Y15576   6.977   1.506   8.579  2.1621 -2.4529  0.7053
  142SAPE   C3815577   6.918   1.397   8.415 -0.2469 -0.2404 -0.7309
  142SAPE   H8X15578   7.024   1.380   8.388 -0.1401 -0.3692 -0.2337
  142SAPE   H8Y15579   6.881   1.487   8.362 -0.4712 -0.3846 -0.8235
  142SAPE   C3915580   6.844   1.275   8.370 -0.2498  0.3900  0.4539
  142SAPE   H9X15581   6.735   1.296   8.370  0.1094  2.5009  0.0930
  142SAPE   H9Y15582   6.859   1.188   8.438 -0.3007  0.1935  0.2166
  142SAPE  C31015583   6.881   1.235   8.222  0.5124 -0.3108 -0.5716
  142SAPE  H10X15584   6.985   1.197   8.218  0.0859 -1.9550  1.8013
  142SAPE  H10Y15585   6.865   1.327   8.162 -0.2326 -0.8208 -1.1710
  142SAPE  C31115586   6.788   1.119   8.160 -0.2071 -0.3249 -0.2691
  142SAPE  H11X15587   6.683   1.153   8.152  0.0253  0.2299 -1.1853
  142SAPE  H11Y15588   6.786   1.028   8.224  1.7419 -0.4364 -0.2926
  142SAPE  C31215589   6.824   1.075   8.023 -0.0880  0.3770 -0.2984
  142SAPE  H12X15590   6.744   1.010   7.981 -1.0041  0.8558  0.6485
  142SAPE  H12Y15591   6.920   1.021   8.021 -0.9005 -1.0963 -1.8999
  142SAPE  C31315592   6.836   1.191   7.931  0.2896 -0.0761 -0.6362
  142SAPE  H13X15593   6.928   1.249   7.954 -0.5323  1.4295 -0.9549
  142SAPE  H13Y15594   6.752   1.264   7.935 -1.7532 -2.3194 -0.7616
  142SAPE  C31415595   6.864   1.150   7.786  0.2180  0.3216  0.4341
  142SAPE  H14X15596   6.887   1.240   7.724  0.2324 -0.6989 -1.1021
  142SAPE  H14Y15597   6.776   1.095   7.747  1.2362 -1.9790  1.1929
  142SAPE  C31515598   6.982   1.052   7.772 -0.4561 -0.4338  0.2203
  142SAPE  H15X15599   6.955   0.960   7.829 -0.0362 -2.4135 -2.6041
  142SAPE  H15Y15600   7.071   1.101   7.817 -0.7209  0.3339 -0.0745
  142SAPE  C31615601   7.008   1.012   7.627  0.6467 -0.6483  0.3889
  142SAPE  H16X15602   7.025   1.104   7.568 -0.1883 -0.4437  0.4486
  142SAPE  H16Y15603   6.918   0.959   7.588 -1.1988  1.0760  2.0541
  142SAPE  C31715604   7.130   0.920   7.606 -0.6211 -0.0682 -0.0334
  142SAPE  H17X15605   7.118   0.824   7.660 -0.8165 -1.3058 -2.1627
  142SAPE  H17Y15606   7.219   0.968   7.652  0.2866 -1.2740 -0.5027
  142SAPE  C31815607   7.140   0.879   7.456 -0.6662 -0.1578 -0.6178
  142SAPE  H18X15608   7.042   0.835   7.427 -1.5900  1.7781 -0.6309
  142SAPE  H18Y15609   7.230   0.821   7.428  0.5371  1.2335  0.2809
  142SAPE  H18Z15610   7.146   0.976   7.402  0.1738  0.1188 -0.0276
  143SAPE     N15611   1.448   1.174   9.725  0.9825  0.8343 -0.4575
  143SAPE   HN115612   1.523   1.119   9.772 -0.1865 -0.8587 -0.4997
  143SAPE   HN215613   1.435   1.146   9.626  1.1309 -0.1666 -0.2038
  143SAPE   HN315614   1.456   1.278   9.727  1.8967  0.7732  0.7102
  143SAPE   C1215615   1.320   1.147   9.798 -0.3200 -0.4298 -0.3728
  143SAPE  H12A15616   1.358   1.162   9.901  0.9445  0.6464 -0.9581
  143SAPE  H12B15617   1.293   1.039   9.788 -0.0028 -0.8142  2.2427
  143SAPE   C1115618   1.214   1.244   9.760 -0.1418 -0.1519  0.9722
  143SAPE  H11A15619   1.256   1.347   9.758 -3.5769  1.3791 -0.8363
  143SAPE  H11B15620   1.135   1.239   9.838  0.5370 -0.6389  1.6364
  143SAPE     P15621   1.042   1.114   9.607  0.4356 -0.0783  0.2419
  143SAPE   O1315622   1.057   0.968   9.635  0.0895 -0.4859  0.0256
  143SAPE   O1415623   0.920   1.178   9.654 -0.0828  0.5276  0.3153
  143SAPE   O1215624   1.166   1.207   9.630 -0.7813  0.6897 -0.1622
  143SAPE   O1115625   1.025   1.126   9.454  0.0207  0.1636  0.0348
  143SAPE    C115626   1.091   1.024   9.379 -0.1204 -0.4526 -0.3748
  143SAPE    HA15627   1.136   1.069   9.288 -0.9776  1.9467  0.3355
  143SAPE    HB15628   1.173   0.966   9.428 -0.5686 -1.0922 -0.3730
  143SAPE    C215629   0.986   0.917   9.341 -0.4905 -0.4232  0.2739
  143SAPE    HS15630   0.969   0.855   9.432 -1.5819  1.6785  1.5921
  143SAPE   O2115631   1.047   0.843   9.239 -0.0812  0.2656  0.1386
  143SAPE   C2115632   0.993   0.720   9.226 -0.3276  0.1950  0.4254
  143SAPE   O2215633   0.897   0.679   9.292 -0.0038 -0.1054 -0.3713
  143SAPE   C2215634   1.070   0.642   9.119  0.2898 -0.5767 -0.3816
  143SAPE   H2R15635   1.025   0.670   9.022  1.0412 -1.8364 -1.1148
  143SAPE   H2S15636   1.177   0.671   9.131 -0.0532  2.1717 -2.7535
  143SAPE    C315637   0.848   0.980   9.290 -0.6798  0.2533 -0.9115
  143SAPE    HX15638   0.804   1.055   9.359 -1.7493 -2.3255  1.3534
  143SAPE    HY15639   0.781   0.892   9.306 -0.0843  0.3177  2.4700
  143SAPE   O3115640   0.845   1.018   9.147 -0.0634  0.3361  0.3318
  143SAPE   C3115641   0.832   1.144   9.113 -0.3291  0.8462  0.3118
  143SAPE   O3215642   0.785   1.232   9.183 -0.6490 -0.1160 -0.0886
  143SAPE   C3215643   0.856   1.163   8.961  0.5912  0.1720  0.1912
  143SAPE   H2X15644   0.795   1.087   8.906 -1.1857  1.0447  0.8647
  143SAPE   H2Y15645   0.966   1.153   8.950  0.4988  0.3147 -1.1105
  143SAPE   C2315646   1.059   0.489   9.130  0.4944  0.9515  0.3455
  143SAPE   H3R15647   0.960   0.461   9.173  0.9158 -1.5842 -0.1637
  143SAPE   H3S15648   1.137   0.434   9.186  1.8886  0.9957 -1.4403
  143SAPE   C2415649   1.068   0.428   8.982  0.3095 -0.8145 -0.5870
  143SAPE   H4R15650   1.013   0.498   8.915  1.6761 -1.4275 -2.4070
  143SAPE   H4S15651   1.002   0.339   8.981 -2.4440  1.0851  0.0963
  143SAPE   C2515652   1.207   0.406   8.922 -0.0051 -0.1465  0.0833
  143SAPE   H5R15653   1.262   0.328   8.976 -2.0819  0.2234  2.9889
  143SAPE   C2615654   1.261   0.470   8.819  0.2599 -0.2555 -0.0132
  143SAPE   H6R15655   1.362   0.440   8.786 -0.0286 -1.7065  0.4026
  143SAPE   C2715656   1.199   0.587   8.743  0.3254 -0.0095  0.5290
  143SAPE   H7R15657   1.112   0.632   8.795  0.1903  1.2727 -0.7697
  143SAPE   H7S15658   1.158   0.549   8.647 -2.0589 -0.4367  1.6540
  143SAPE   C2815659   1.293   0.708   8.724 -0.5532  0.2492 -0.5518
  143SAPE   H8R15660   1.305   0.773   8.812 -1.1271 -0.4948  0.0988
  143SAPE   C2915661   1.358   0.749   8.613 -1.0561  0.0310  0.0695
  143SAPE   H9R15662   1.437   0.824   8.622 -1.0211  0.0569 -0.4453
  143SAPE  C21015663   1.349   0.680   8.481 -0.4010 -0.1587 -0.0415
  143SAPE  H10R15664   1.256   0.715   8.431 -0.3817  1.5821  1.0689
  143SAPE  H10S15665   1.341   0.570   8.495 -0.9898  0.0244  1.1297
  143SAPE  C21115666   1.464   0.709   8.383 -0.1034 -0.1239 -0.0702
  143SAPE  H11R15667   1.498   0.812   8.403 -1.3529  0.2913  0.0435
  143SAPE  C21215668   1.524   0.627   8.292  0.1721 -0.6618 -0.0038
  143SAPE  H12R15669   1.608   0.661   8.230  0.1198  0.0037  0.2838
  143SAPE  C21315670   1.492   0.480   8.284  0.0389  0.4629  0.4274
  143SAPE  H13R15671   1.448   0.462   8.184 -2.7095 -0.4383  1.6994
  143SAPE  H13S15672   1.408   0.444   8.347  0.3815 -1.3007 -0.0850
  143SAPE  C21415673   1.616   0.396   8.315 -0.5341 -0.4773 -0.6123
  143SAPE  H14R15674   1.644   0.391   8.421  3.6660  1.1394 -1.4371
  143SAPE  C21515675   1.681   0.318   8.233  0.1164 -0.5581  0.1500
  143SAPE  H15R15676   1.774   0.280   8.277 -0.2180  0.2041  1.5838
  143SAPE  C21615677   1.656   0.305   8.084  0.4899 -0.1543  0.1372
  143SAPE  H16R15678   1.557   0.260   8.060  0.6292 -0.8977  0.9100
  143SAPE  H16S15679   1.720   0.229   8.037 -0.4482 -1.4241  0.8472
  143SAPE  C21715680   1.692   0.439   8.014  0.6397  0.4089  0.4462
  143SAPE  H17R15681   1.800   0.466   8.018  0.5141  1.2860 -1.3047
  143SAPE  H17S15682   1.638   0.527   8.054 -0.8868 -0.5715  0.6380
  143SAPE  C21815683   1.644   0.432   7.860  0.8085  0.3031  0.0378
  143SAPE  H18R15684   1.666   0.330   7.822 -1.5608 -0.0358 -0.5919
  143SAPE  H18S15685   1.702   0.508   7.804  1.0837  0.6704  0.7979
  143SAPE  C21915686   1.494   0.455   7.843 -0.0988 -0.9539  0.2182
  143SAPE  H19R15687   1.472   0.563   7.849 -0.9076 -1.1718  1.6018
  143SAPE  H19S15688   1.436   0.420   7.930 -1.8421  1.9724  0.3689
  143SAPE  C22015689   1.428   0.390   7.722  0.0821  0.1034  0.1105
  143SAPE  H20R15690   1.317   0.404   7.721 -0.0794 -1.0238 -1.1244
  143SAPE  H20S15691   1.443   0.280   7.727  1.4826  0.2778 -0.0764
  143SAPE  H20T15692   1.456   0.430   7.623 -0.8248 -2.3844 -1.2593
  143SAPE   C3315693   0.808   1.296   8.897  0.5134 -0.2500  0.0319
  143SAPE   H3X15694   0.850   1.390   8.938 -0.3641 -0.4532  1.4758
  143SAPE   H3Y15695   0.698   1.293   8.915  0.4834  2.3544  0.6106
  143SAPE   C3415696   0.840   1.303   8.749 -0.2843 -0.1185  0.6838
  143SAPE   H4X15697   0.803   1.211   8.698 -2.6256  0.0897  1.8580
  143SAPE   H4Y15698   0.951   1.300   8.742  0.0762  1.3088  3.8138
  143SAPE   C3515699   0.783   1.429   8.695  0.3259  0.2635 -0.2246
  143SAPE   H5X15700   0.817   1.516   8.756 -1.4149  0.1718  0.9471
  143SAPE   H5Y15701   0.676   1.409   8.717  0.6451  0.9973  2.2825
  143SAPE   C3615702   0.819   1.452   8.548  0.4661  0.2542 -0.2116
  143SAPE   H6X15703   0.749   1.532   8.514  0.9458  0.7522 -0.0458
  143SAPE   H6Y15704   0.799   1.359   8.490 -0.3833  0.2397  0.0978
  143SAPE   C3715705   0.966   1.497   8.529  0.5463 -0.1204 -0.7260
  143SAPE   H7X15706   1.028   1.424   8.586 -0.5245  0.1157  0.8139
  143SAPE   H7Y15707   0.950   1.597   8.574 -5.4685 -0.9301 -0.1411
  143SAPE   C3815708   1.010   1.503   8.385 -0.3176 -0.2163  0.1166
  143SAPE   H8X15709   0.940   1.559   8.320  0.3727 -0.7127 -1.0817
  143SAPE   H8Y15710   1.021   1.400   8.345  1.4364  0.4963 -1.3713
  143SAPE   C3915711   1.150   1.573   8.383 -0.0411  0.5369 -0.0097
  143SAPE   H9X15712   1.210   1.507   8.449  0.1519 -0.0099 -0.7289
  143SAPE   H9Y15713   1.154   1.677   8.424 -0.6493 -0.3351  2.3883
  143SAPE  C31015714   1.204   1.567   8.243 -0.2116 -0.9386  0.1602
  143SAPE  H10X15715   1.127   1.601   8.171 -0.2393 -0.1694  0.5365
  143SAPE  H10Y15716   1.232   1.464   8.211  1.2166  0.1957 -2.5584
  143SAPE  C31115717   1.337   1.644   8.229 -0.4295 -0.0364 -0.0398
  143SAPE  H11X15718   1.403   1.588   8.299 -1.1991 -1.2883 -0.2826
  143SAPE  H11Y15719   1.332   1.754   8.244 -0.4632  0.1626 -1.4159
  143SAPE  C31215720   1.402   1.621   8.093 -0.9185  0.9323 -0.0365
  143SAPE  H12X15721   1.328   1.636   8.012  0.2147 -0.6220 -1.4478
  143SAPE  H12Y15722   1.421   1.512   8.085 -2.4034  0.4661  2.1211
  143SAPE  C31315723   1.536   1.695   8.069 -0.0507 -0.0538 -0.0441
  143SAPE  H13X15724   1.613   1.651   8.135 -0.3947  1.2579  1.2842
  143SAPE  H13Y15725   1.529   1.803   8.091  1.8148 -0.1252  1.1019
  143SAPE  C31415726   1.596   1.679   7.926  0.0322 -0.8376 -0.2948
  143SAPE  H14X15727   1.691   1.736   7.934 -1.4537  1.5239  2.6661
  143SAPE  H14Y15728   1.539   1.732   7.847  2.3266  1.1964 -0.6865
  143SAPE  C31515729   1.631   1.536   7.876 -0.1362  0.0327 -0.3820
  143SAPE  H15X15730   1.542   1.474   7.900 -0.7300  0.2279 -1.9432
  143SAPE  H15Y15731   1.728   1.502   7.918 -1.1959 -0.2605  1.9810
  143SAPE  C31615732   1.634   1.539   7.722 -0.6835 -0.3224  0.1886
  143SAPE  H16X15733   1.555   1.604   7.680  2.0922  1.7942 -2.1610
  143SAPE  H16Y15734   1.630   1.439   7.674 -0.1178 -0.1355 -0.2603
  143SAPE  C31715735   1.765   1.606   7.669 -0.0757  0.1530 -0.2017
  143SAPE  H17X15736   1.858   1.567   7.717 -0.9568 -0.8675  0.7289
  143SAPE  H17Y15737   1.768   1.715   7.689 -1.6584  0.1545  0.1470
  143SAPE  C31815738   1.782   1.591   7.515 -0.0604  0.0998  0.2825
  143SAPE  H18X15739   1.854   1.665   7.474 -0.2422 -0.5297 -1.2136
  143SAPE  H18Y15740   1.687   1.600   7.458 -0.1724 -1.7248  0.1297
  143SAPE  H18Z15741   1.834   1.495   7.496 -0.2908  0.3141 -1.5789
  144SAPE     N15742   4.993   0.246   9.637  0.6852  0.6331 -0.0239
  144SAPE   HN115743   5.088   0.287   9.651  1.0536 -0.5120  1.0332
  144SAPE   HN215744   4.995   0.152   9.591 -0.4174 -0.1489  1.4241
  144SAPE   HN315745   4.947   0.306   9.567 -0.2480 -2.4636 -2.3116
  144SAPE   C1215746   4.923   0.241   9.772  0.3997 -0.1952 -0.7322
  144SAPE  H12A15747   4.931   0.338   9.826 -2.6511 -0.3352  0.1473
  144SAPE  H12B15748   4.967   0.156   9.829 -0.9302  1.0391  2.3870
  144SAPE   C1115749   4.766   0.221   9.753 -0.8933 -0.3371  0.2689
  144SAPE  H11A15750   4.727   0.222   9.857 -0.1757 -0.1319  0.5461
  144SAPE  H11B15751   4.750   0.127   9.696  1.2084 -0.0287 -0.9471
  144SAPE     P15752   4.679   0.473   9.735 -0.6389 -0.3131  0.1066
  144SAPE   O1315753   4.565   0.459   9.829  0.2437  0.2498  0.0892
  144SAPE   O1415754   4.808   0.535   9.780  0.3566 -0.1688  0.1370
  144SAPE   O1215755   4.716   0.332   9.675  0.3639  0.1882  0.0789
  144SAPE   O1115756   4.635   0.554   9.609 -0.0969  0.6523 -1.0121
  144SAPE    C115757   4.527   0.500   9.524 -0.3486 -0.1322 -0.3370
  144SAPE    HA15758   4.479   0.412   9.572 -1.8728  0.7286 -0.1976
  144SAPE    HB15759   4.443   0.572   9.511  0.1296  0.2043 -1.6361
  144SAPE    C215760   4.579   0.452   9.390  0.2344 -0.4627  0.6653
  144SAPE    HS15761   4.618   0.349   9.410 -0.2414 -0.9947 -1.0283
  144SAPE   O2115762   4.686   0.539   9.343  0.0972 -0.0136 -0.2668
  144SAPE   C2115763   4.651   0.665   9.322  0.7146  0.2266  0.0945
  144SAPE   O2215764   4.546   0.725   9.343 -0.3115 -0.2840 -0.2579
  144SAPE   C2215765   4.770   0.742   9.270 -0.3745 -0.8649  0.4122
  144SAPE   H2R15766   4.855   0.673   9.251  1.3746  0.9853  1.1270
  144SAPE   H2S15767   4.730   0.798   9.182  0.3433 -0.2507  0.4654
  144SAPE    C315768   4.461   0.430   9.290 -0.5598  0.0010 -0.2205
  144SAPE    HX15769   4.402   0.521   9.271  1.4492  0.9966 -2.1981
  144SAPE    HY15770   4.392   0.358   9.337 -1.2894 -0.5030 -1.9937
  144SAPE   O3115771   4.523   0.373   9.169  0.1521  0.6698 -0.4440
  144SAPE   C3115772   4.553   0.461   9.075  0.7854 -0.2326 -0.9491
  144SAPE   O3215773   4.531   0.580   9.086 -0.2995  0.1686 -0.3987
  144SAPE   C3215774   4.598   0.376   8.953  0.3432 -0.4231  1.3006
  144SAPE   H2X15775   4.503   0.335   8.911 -0.3155  2.2393  0.0145
  144SAPE   H2Y15776   4.673   0.299   8.983  0.5315 -0.6472  0.2686
  144SAPE   C2315777   4.821   0.853   9.364 -0.2993 -0.5519 -0.5299
  144SAPE   H3R15778   4.852   0.809   9.461 -1.0292  0.6554  0.2799
  144SAPE   H3S15779   4.739   0.919   9.398 -1.9357 -3.2751  1.1328
  144SAPE   C2415780   4.929   0.944   9.291  0.5770  0.3361  1.0748
  144SAPE   H4R15781   4.944   1.028   9.362  0.5070 -0.3290  1.8938
  144SAPE   H4S15782   4.888   0.984   9.196 -0.8347  1.3763  2.0726
  144SAPE   C2515783   5.055   0.874   9.262  1.0980  0.6677 -0.6264
  144SAPE   H5R15784   5.123   0.859   9.347 -0.2386  1.3254  0.6175
  144SAPE   C2615785   5.096   0.818   9.146  0.1433  0.1317 -0.2900
  144SAPE   H6R15786   5.190   0.761   9.147 -0.0843 -0.2607  0.8418
  144SAPE   C2715787   5.025   0.821   9.015  0.6881 -0.3811 -0.3003
  144SAPE   H7R15788   4.941   0.893   9.019  0.9889 -0.0190 -0.3967
  144SAPE   H7S15789   4.971   0.726   8.996  2.8334 -1.4971 -1.2142
  144SAPE   C2815790   5.104   0.860   8.901 -0.0297  0.7003 -0.3910
  144SAPE   H8R15791   5.115   0.969   8.888 -2.5736  0.9218 -1.2194
  144SAPE   C2915792   5.164   0.783   8.811  0.1096  0.1710 -0.3670
  144SAPE   H9R15793   5.216   0.834   8.728 -0.8470 -1.9136 -2.3531
  144SAPE  C21015794   5.160   0.629   8.804 -0.1445 -0.5613 -0.0136
  144SAPE  H10R15795   5.162   0.593   8.699  0.2036 -1.4406  0.2887
  144SAPE  H10S15796   5.062   0.592   8.839 -0.1662 -0.0106  0.5369
  144SAPE  C21115797   5.267   0.562   8.878  0.5655  0.3295 -0.4357
  144SAPE  H11R15798   5.365   0.612   8.878  0.9412 -0.3840 -1.3494
  144SAPE  C21215799   5.259   0.441   8.938  0.2012  0.5556  0.1669
  144SAPE  H12R15800   5.349   0.412   8.995 -0.9578  1.2786  2.4579
  144SAPE  C21315801   5.142   0.340   8.936 -0.1534 -0.1043  0.0413
  144SAPE  H13R15802   5.098   0.337   8.834 -1.5686  0.2700  0.6217
  144SAPE  H13S15803   5.066   0.382   9.005  0.9438  1.5373  0.3108
  144SAPE  C21415804   5.193   0.207   8.980 -0.0932  0.2277 -0.2328
  144SAPE  H14R15805   5.256   0.204   9.071  1.6707  3.3384 -1.2170
  144SAPE  C21515806   5.135   0.089   8.946 -0.3392 -0.2916 -0.2653
  144SAPE  H15R15807   5.187   0.001   8.985  1.5317  1.3300  1.0882
  144SAPE  C21615808   5.022   0.057   8.846 -0.4671 -0.6136 -0.5751
  144SAPE  H16R15809   4.966   0.151   8.823  0.1998 -0.1644 -0.3579
  144SAPE  H16S15810   4.954  -0.006   8.907 -1.4928  1.5794  0.6949
  144SAPE  C21715811   5.069  -0.019   8.721 -0.1832  0.1702 -0.4657
  144SAPE  H17R15812   4.982  -0.035   8.652 -0.6359  1.4184 -0.2237
  144SAPE  H17S15813   5.107  -0.121   8.743 -0.1465  0.2080 -0.3551
  144SAPE  C21815814   5.176   0.050   8.634  0.1107 -0.0598 -0.1741
  144SAPE  H18R15815   5.178   0.156   8.667  1.1693 -0.1481  0.0830
  144SAPE  H18S15816   5.150   0.045   8.526 -3.4714  1.0299  0.5043
  144SAPE  C21915817   5.314  -0.015   8.662  0.1161 -0.2518  0.4188
  144SAPE  H19R15818   5.287  -0.122   8.662  1.3347 -0.5746  0.2688
  144SAPE  H19S15819   5.346   0.031   8.759 -2.0822 -1.4574  1.7943
  144SAPE  C22015820   5.413   0.003   8.545  0.0375 -0.3562 -0.1935
  144SAPE  H20R15821   5.425   0.113   8.535  1.7341 -0.4667  0.2842
  144SAPE  H20S15822   5.373  -0.031   8.447  0.8741 -1.6576 -0.1113
  144SAPE  H20T15823   5.516  -0.038   8.554  0.6178  0.8418 -1.1887
  144SAPE   C3315824   4.664   0.471   8.849 -0.3154  0.0965 -0.5190
  144SAPE   H3X15825   4.743   0.532   8.897  0.2697 -0.2903 -0.9705
  144SAPE   H3Y15826   4.599   0.548   8.803 -0.9264 -0.3532 -0.4112
  144SAPE   C3415827   4.730   0.391   8.735 -0.0164  0.3494  0.5699
  144SAPE   H4X15828   4.655   0.329   8.682 -0.8294 -0.1329  2.2282
  144SAPE   H4Y15829   4.796   0.310   8.772 -0.4202 -0.3237 -0.1531
  144SAPE   C3515830   4.820   0.476   8.637 -0.0616  0.1249 -0.3267
  144SAPE   H5X15831   4.867   0.556   8.698  0.2074  0.7494 -1.3352
  144SAPE   H5Y15832   4.760   0.520   8.555  1.4974 -1.1845 -2.2659
  144SAPE   C3615833   4.922   0.393   8.562  0.5526  0.1128 -0.1010
  144SAPE   H6X15834   4.893   0.302   8.506  2.1757  0.2433 -1.2402
  144SAPE   H6Y15835   5.000   0.353   8.630  1.0470  0.7502 -0.2758
  144SAPE   C3715836   5.004   0.480   8.463 -0.0280  0.0717  0.3541
  144SAPE   H7X15837   5.053   0.567   8.511 -1.1387  0.3272  1.0700
  144SAPE   H7Y15838   4.937   0.527   8.388 -0.5532 -1.8604 -0.4370
  144SAPE   C3815839   5.111   0.394   8.391 -0.3992 -0.0602  0.3111
  144SAPE   H8X15840   5.053   0.314   8.339  1.0837  0.3577 -2.1177
  144SAPE   H8Y15841   5.179   0.332   8.453  0.3298 -1.3936 -1.7122
  144SAPE   C3915842   5.197   0.466   8.283  0.2366  0.6044  0.6757
  144SAPE   H9X15843   5.130   0.488   8.197 -0.2550  0.5096  1.0323
  144SAPE   H9Y15844   5.277   0.397   8.250  1.5710  2.0122  0.8134
  144SAPE  C31015845   5.261   0.597   8.324  0.3510 -0.0039  0.1430
  144SAPE  H10X15846   5.334   0.572   8.404 -1.0695  0.0517  1.4978
  144SAPE  H10Y15847   5.191   0.666   8.375 -0.6555 -2.0200  1.6232
  144SAPE  C31115848   5.325   0.670   8.208  0.2149 -0.0695  0.5561
  144SAPE  H11X15849   5.373   0.592   8.146  0.1636  1.5609 -1.6467
  144SAPE  H11Y15850   5.416   0.722   8.246  0.0594  1.0830 -0.5793
  144SAPE  C31215851   5.235   0.755   8.119  0.1386 -0.6273  0.7598
  144SAPE  H12X15852   5.169   0.819   8.181  1.0684  0.8621  0.2541
  144SAPE  H12Y15853   5.163   0.690   8.065  0.0043 -0.2182  0.4397
  144SAPE  C31315854   5.305   0.851   8.010  1.2338 -0.0307 -0.3055
  144SAPE  H13X15855   5.386   0.798   7.957  0.8736  0.8637 -1.8506
  144SAPE  H13Y15856   5.361   0.938   8.051  1.5332 -0.3414 -0.0575
  144SAPE  C31415857   5.205   0.897   7.906  0.1031 -0.0650 -0.3545
  144SAPE  H14X15858   5.129   0.974   7.933 -1.7943 -2.3323  1.2498
  144SAPE  H14Y15859   5.155   0.805   7.869 -2.2038  1.0726 -0.2872
  144SAPE  C31515860   5.280   0.962   7.789 -0.4100 -0.3006 -0.6038
  144SAPE  H15X15861   5.361   0.889   7.764 -0.8743 -0.5304 -1.5049
  144SAPE  H15Y15862   5.339   1.050   7.822  0.2528 -1.0043  0.1154
  144SAPE  C31615863   5.198   0.991   7.665 -0.8042  0.5748  0.2911
  144SAPE  H16X15864   5.113   1.060   7.685 -2.0534 -0.1395 -2.1343
  144SAPE  H16Y15865   5.155   0.894   7.631  0.2741 -0.2803  1.2964
  144SAPE  C31715866   5.288   1.048   7.556  0.0390 -0.1059  0.4041
  144SAPE  H17X15867   5.370   0.976   7.531  0.4464  0.7047 -0.6920
  144SAPE  H17Y15868   5.337   1.141   7.592  2.1944 -1.5316  1.3765
  144SAPE  C31815869   5.202   1.071   7.427  0.9908  0.3060  0.0899
  144SAPE  H18X15870   5.124   1.147   7.448  2.0352  1.8146 -1.2559
  144SAPE  H18Y15871   5.154   0.978   7.389  0.5223  0.3733  0.5012
  144SAPE  H18Z15872   5.264   1.107   7.342  1.2334 -0.1282  0.0825
  145SAPE     N15873   1.712   0.052   9.517  0.6894 -0.2027 -0.5059
  145SAPE   HN115874   1.730  -0.049   9.534  0.5127 -0.1623 -0.0668
  145SAPE   HN215875   1.691   0.068   9.417 -0.9899 -1.9778 -0.5036
  145SAPE   HN315876   1.799   0.097   9.552  1.3809 -2.6590  1.2192
  145SAPE   C1215877   1.594   0.099   9.608 -0.1847 -0.2339  0.0061
  145SAPE  H12A15878   1.608   0.208   9.618 -2.4658 -0.0367  1.8533
  145SAPE  H12B15879   1.606   0.043   9.703  1.6075  1.9222  1.1392
  145SAPE   C1115880   1.468   0.080   9.534 -0.0750 -0.3105 -0.4839
  145SAPE  H11A15881   1.377   0.093   9.598 -0.0166 -0.3158 -0.4003
  145SAPE  H11B15882   1.468  -0.022   9.492  1.5296  0.3421 -2.1697
  145SAPE     P15883   1.404   0.312   9.425  0.4568  0.1292 -0.2991
  145SAPE   O1315884   1.266   0.310   9.380 -0.2781  0.2182 -0.4945
  145SAPE   O1415885   1.429   0.367   9.559 -0.3806 -0.2058  0.3334
  145SAPE   O1215886   1.469   0.165   9.419 -0.0218 -0.0362 -0.0956
  145SAPE   O1115887   1.492   0.381   9.315 -0.1846 -0.0628 -0.2845
  145SAPE    C115888   1.518   0.326   9.187 -0.2725  0.1333  0.1110
  145SAPE    HA15889   1.560   0.225   9.205 -0.0415  0.0471 -0.8503
  145SAPE    HB15890   1.426   0.320   9.124 -1.3236  2.9937  1.2272
  145SAPE    C215891   1.631   0.391   9.108  0.0089  0.7106  0.1447
  145SAPE    HS15892   1.707   0.410   9.187 -0.9443 -0.2420  1.3536
  145SAPE   O2115893   1.579   0.507   9.053  0.0407  0.0718  0.2087
  145SAPE   C2115894   1.545   0.606   9.131  0.0516 -0.1661 -0.3899
  145SAPE   O2215895   1.581   0.630   9.245  0.0213  0.4505  0.0615
  145SAPE   C2215896   1.460   0.701   9.046  0.1361 -0.2475  0.2380
  145SAPE   H2R15897   1.521   0.735   8.959  1.4989  2.0525  1.9542
  145SAPE   H2S15898   1.372   0.645   9.010 -0.8486 -1.9393  4.5807
  145SAPE    C315899   1.691   0.307   8.995  0.8269  0.5335 -0.6010
  145SAPE    HX15900   1.727   0.212   9.039  0.4288  0.9152  0.6159
  145SAPE    HY15901   1.780   0.357   8.951  0.0383  2.6006  0.0092
  145SAPE   O3115902   1.592   0.274   8.899  0.5644  0.3383  0.2138
  145SAPE   C3115903   1.654   0.204   8.796  0.5586  0.3021 -0.8582
  145SAPE   O3215904   1.775   0.184   8.790 -0.3271  0.0308  0.1786
  145SAPE   C3215905   1.543   0.164   8.698 -0.3694 -0.3548 -1.2054
  145SAPE   H2X15906   1.497   0.261   8.670  1.5588  1.3660  1.0972
  145SAPE   H2Y15907   1.476   0.096   8.754 -0.2192 -0.7824 -1.5419
  145SAPE   C2315908   1.410   0.825   9.118  0.7137 -0.3572  0.4218
  145SAPE   H3R15909   1.499   0.872   9.164  1.2201  0.2430 -1.1152
  145SAPE   H3S15910   1.339   0.792   9.197  0.1409 -1.0269 -0.3536
  145SAPE   C2415911   1.332   0.912   9.013 -0.6436 -0.1390  0.4339
  145SAPE   H4R15912   1.232   0.867   8.998 -0.1043 -0.7823 -1.6403
  145SAPE   H4S15913   1.390   0.905   8.918 -0.7432  1.5223  0.2079
  145SAPE   C2515914   1.320   1.054   9.061 -0.2281 -0.5545 -0.4111
  145SAPE   H5R15915   1.293   1.071   9.166  3.8759  0.7251  0.6162
  145SAPE   C2615916   1.336   1.169   8.990  0.4072  0.2661  1.0331
  145SAPE   H6R15917   1.330   1.271   9.031  1.9956  0.3113  1.2148
  145SAPE   C2715918   1.365   1.173   8.843  0.5826 -1.1481  0.5838
  145SAPE   H7R15919   1.424   1.081   8.822  0.3423 -0.9714 -1.0677
  145SAPE   H7S15920   1.419   1.267   8.818 -0.2579 -0.4086  1.4921
  145SAPE   C2815921   1.242   1.152   8.759  0.5607  0.2371 -0.4487
  145SAPE   H8R15922   1.151   1.168   8.819  1.2538  1.2558  0.3869
  145SAPE   C2915923   1.238   1.134   8.627  0.6513  0.3833  0.5516
  145SAPE   H9R15924   1.137   1.130   8.583 -0.5188 -0.4974  3.1100
  145SAPE  C21015925   1.351   1.117   8.541  0.1532 -0.1440  0.9116
  145SAPE  H10R15926   1.337   1.035   8.468 -0.0038 -0.1582  0.9575
  145SAPE  H10S15927   1.435   1.092   8.610 -0.8914  1.1998  2.7561
  145SAPE  C21115928   1.379   1.251   8.476  0.3593 -0.0634  0.2650
  145SAPE  H11R15929   1.333   1.343   8.514  0.9833  0.3934 -0.0726
  145SAPE  C21215930   1.453   1.267   8.367  0.7845  0.2609  0.6258
  145SAPE  H12R15931   1.462   1.375   8.349 -3.0093  0.6981  0.5212
  145SAPE  C21315932   1.516   1.166   8.277  0.2065  0.7532  0.0927
  145SAPE  H13R15933   1.470   1.067   8.295  0.9407  0.2879 -0.5312
  145SAPE  H13S15934   1.625   1.154   8.294 -0.2914 -2.9210  1.6070
  145SAPE  C21415935   1.495   1.210   8.134 -0.1710 -0.0846 -0.4826
  145SAPE  H14R15936   1.507   1.319   8.124 -0.0558 -0.0255  0.2306
  145SAPE  C21515937   1.441   1.140   8.031 -0.4152 -0.4612 -0.2244
  145SAPE  H15R15938   1.443   1.181   7.929  1.4221  2.1050  0.7259
  145SAPE  C21615939   1.393   0.998   8.040  0.0983  0.2045 -0.2734
  145SAPE  H16R15940   1.447   0.958   8.129 -0.5926  0.3149  0.2096
  145SAPE  H16S15941   1.426   0.941   7.951  0.8877 -0.3978  0.3839
  145SAPE  C21715942   1.247   0.972   8.067  0.1470 -0.1988 -0.3475
  145SAPE  H17R15943   1.227   0.863   8.078 -2.1931  0.1769 -0.2427
  145SAPE  H17S15944   1.194   1.006   7.975  0.2907  0.4237 -0.2036
  145SAPE  C21815945   1.190   1.040   8.185 -0.5742 -0.3408 -0.3977
  145SAPE  H18R15946   1.216   1.148   8.181  0.3950 -0.5783 -0.7281
  145SAPE  H18S15947   1.234   1.007   8.282 -2.3073 -0.8450  0.2591
  145SAPE  C21915948   1.039   1.035   8.189  0.7541  0.9484  0.2527
  145SAPE  H19R15949   0.999   1.051   8.086  1.4975 -1.0334 -0.3816
  145SAPE  H19S15950   0.993   1.121   8.241 -0.9891  0.0821  0.1938
  145SAPE  C22015951   0.985   0.905   8.256  0.4701 -0.1912  0.0515
  145SAPE  H20R15952   0.991   0.902   8.366  0.0688 -3.1347  0.0934
  145SAPE  H20S15953   1.037   0.813   8.220 -1.2677 -1.0262 -0.4416
  145SAPE  H20T15954   0.876   0.919   8.238  0.2644  2.3875  2.6721
  145SAPE   C3315955   1.597   0.091   8.579 -0.8178  0.0490  0.2662
  145SAPE   H3X15956   1.647  -0.004   8.605 -1.3631  0.0670  1.4373
  145SAPE   H3Y15957   1.665   0.159   8.523  2.2487 -1.5338  1.8714
  145SAPE   C3415958   1.482   0.036   8.481  0.0240  0.0936 -0.9978
  145SAPE   H4X15959   1.410   0.111   8.445 -0.0609  1.3361  1.5305
  145SAPE   H4Y15960   1.415  -0.029   8.541  1.0694  0.1627  0.2905
  145SAPE   C3515961   1.552  -0.032   8.360  0.3144  0.4502  0.0947
  145SAPE   H5X15962   1.557  -0.139   8.390  1.4781  0.7696  1.1366
  145SAPE   H5Y15963   1.649   0.015   8.335  0.0658  1.1064  0.3449
  145SAPE   C3615964   1.469  -0.034   8.229  0.8324 -0.1962  0.2619
  145SAPE   H6X15965   1.470   0.070   8.191 -0.9405 -0.0614  0.5067
  145SAPE   H6Y15966   1.361  -0.055   8.245  0.6988  0.5795  0.3865
  145SAPE   C3715967   1.524  -0.135   8.129 -0.0116 -0.2203  1.0208
  145SAPE   H7X15968   1.491  -0.237   8.157 -0.4440 -0.1736  0.7025
  145SAPE   H7Y15969   1.635  -0.139   8.119 -0.0504  0.5804  0.0573
  145SAPE   C3815970   1.475  -0.085   7.990 -0.3670 -0.1732  0.3575
  145SAPE   H8X15971   1.538   0.002   7.964 -0.7907 -0.3964 -1.5537
  145SAPE   H8Y15972   1.375  -0.037   7.990 -1.4903 -1.7338 -5.2169
  145SAPE   C3915973   1.461  -0.193   7.882 -0.3232 -0.3557  0.0823
  145SAPE   H9X15974   1.405  -0.282   7.919 -1.2005  0.1301 -0.0530
  145SAPE   H9Y15975   1.560  -0.229   7.846 -0.5000  1.4469 -2.4899
  145SAPE  C31015976   1.400  -0.143   7.751  0.6302 -0.3870  0.1087
  145SAPE  H10X15977   1.304  -0.099   7.787  1.0823  1.4736 -0.8101
  145SAPE  H10Y15978   1.378  -0.229   7.685  2.9832  1.0326 -2.7516
  145SAPE  C31115979   1.475  -0.031   7.686 -0.3981 -0.2874 -0.3599
  145SAPE  H11X15980   1.580  -0.044   7.651 -0.0951  2.6599 -0.7768
  145SAPE  H11Y15981   1.493   0.042   7.767  2.2640  0.1058 -1.2060
  145SAPE  C31215982   1.399   0.037   7.570 -0.0936  0.2834  0.6261
  145SAPE  H12X15983   1.320   0.107   7.606 -0.1420 -0.1629  1.4156
  145SAPE  H12Y15984   1.346  -0.048   7.521 -1.2189  1.6321 -0.5741
  145SAPE  C31315985   1.485   0.106   7.464  0.2272  0.9471  0.1764
  145SAPE  H13X15986   1.570   0.042   7.432  1.2992  3.4140 -2.1863
  145SAPE  H13Y15987   1.536   0.193   7.510  1.1001  1.4994 -1.7657
  145SAPE  C31415988   1.403   0.162   7.345 -0.6663 -0.6693  0.1044
  145SAPE  H14X15989   1.316   0.218   7.384 -1.9573 -2.4214 -0.1188
  145SAPE  H14Y15990   1.358   0.080   7.284  0.4646  0.6443 -2.6584
  145SAPE  C31515991   1.492   0.250   7.265 -0.1074  0.0641  0.0181
  145SAPE  H15X15992   1.593   0.208   7.246 -0.3460 -1.0318  1.1187
  145SAPE  H15Y15993   1.513   0.344   7.321  1.2807 -2.4577  4.1526
  145SAPE  C31615994   1.428   0.290   7.130  0.3087  0.5508 -0.5200
  145SAPE  H16X15995   1.470   0.387   7.093 -0.3018 -0.1958 -3.4073
  145SAPE  H16Y15996   1.320   0.294   7.152  0.3002  0.1452 -0.4891
  145SAPE  C31715997   1.472   0.188   7.021  0.6397  0.0998 -0.6664
  145SAPE  H17X15998   1.454   0.081   7.045  3.4958 -0.6031 -1.3064
  145SAPE  H17Y15999   1.582   0.197   7.008  0.6403 -1.7199 -2.4197
  145SAPE  C31816000   1.389   0.228   6.899 -0.2435  0.3362 -0.3297
  145SAPE  H18X16001   1.282   0.206   6.918 -0.3317  0.2858 -0.8737
  145SAPE  H18Y16002   1.425   0.168   6.814  2.5668 -0.5642  1.3469
  145SAPE  H18Z16003   1.397   0.334   6.868  1.4058  0.4069  0.2414
  146SAPE     N16004   6.008   0.627   9.655  0.1432 -0.0640  0.2997
  146SAPE   HN116005   6.029   0.699   9.584  0.6139 -0.7471 -0.2572
  146SAPE   HN216006   6.083   0.627   9.727  1.2778  0.8780 -0.8415
  146SAPE   HN316007   6.011   0.533   9.611 -1.6109  0.0740 -0.2052
  146SAPE   C1216008   5.876   0.649   9.720 -0.3013 -0.3022 -0.0363
  146SAPE  H12A16009   5.795   0.649   9.645 -2.0473  0.3627  1.7511
  146SAPE  H12B16010   5.885   0.753   9.759  2.3621  0.2752 -1.9065
  146SAPE   C1116011   5.838   0.532   9.821  0.7904 -0.3595  0.5656
  146SAPE  H11A16012   5.749   0.565   9.880 -0.3932 -2.4618  0.0385
  146SAPE  H11B16013   5.916   0.530   9.901 -0.1771 -1.9661  1.5237
  146SAPE     P16014   5.921   0.297   9.736  0.0205 -0.3082  0.0168
  146SAPE   O1316015   5.967   0.244   9.867 -0.8255  0.6392 -0.7699
  146SAPE   O1416016   5.869   0.205   9.633  0.2130 -0.5645  0.1409
  146SAPE   O1216017   5.811   0.407   9.764  0.5303  0.4926  0.3278
  146SAPE   O1116018   6.045   0.376   9.670 -0.2145  0.2343  0.1573
  146SAPE    C116019   6.111   0.307   9.568  0.9326  0.0112 -0.6011
  146SAPE    HA16020   6.155   0.213   9.608 -1.1632 -0.4282  0.8451
  146SAPE    HB16021   6.048   0.277   9.482  0.1179 -2.7986  0.8482
  146SAPE    C216022   6.232   0.384   9.503 -0.7019 -0.2952 -0.2310
  146SAPE    HS16023   6.290   0.406   9.596 -1.8843  1.8651  0.0529
  146SAPE   O2116024   6.186   0.508   9.450  0.4914 -0.4027 -0.1786
  146SAPE   C2116025   6.282   0.597   9.431 -0.3237 -0.2645  0.3028
  146SAPE   O2216026   6.398   0.593   9.467  0.3349  0.4973  0.1047
  146SAPE   C2216027   6.219   0.717   9.357 -0.5853 -0.2874 -0.7222
  146SAPE   H2R16028   6.196   0.671   9.259 -1.5501 -1.2011 -0.0860
  146SAPE   H2S16029   6.126   0.753   9.406 -0.8812 -1.6098 -0.2835
  146SAPE    C316030   6.327   0.294   9.426 -0.3539  0.0982 -0.0983
  146SAPE    HX16031   6.374   0.225   9.499 -0.4652 -1.7798 -1.7279
  146SAPE    HY16032   6.407   0.355   9.378  0.2903  1.7906  2.8368
  146SAPE   O3116033   6.251   0.207   9.334 -0.8589  0.3076  0.2624
  146SAPE   C3116034   6.222   0.258   9.216 -0.2899  0.9154 -0.1005
  146SAPE   O3216035   6.261   0.360   9.163  0.3306 -0.5028 -0.1391
  146SAPE   C3216036   6.124   0.161   9.148  0.1573  0.0383 -0.1915
  146SAPE   H2X16037   6.031   0.179   9.206  0.6866 -0.4308  0.8286
  146SAPE   H2Y16038   6.153   0.055   9.166  1.0847  0.1966 -0.6602
  146SAPE   C2316039   6.320   0.839   9.340 -0.5250  0.0898 -0.3911
  146SAPE   H3R16040   6.399   0.801   9.272  0.6479 -1.4593  1.7266
  146SAPE   H3S16041   6.370   0.859   9.437 -0.2650 -1.6697 -0.1406
  146SAPE   C2416042   6.256   0.965   9.287  0.1482 -0.6194  0.0147
  146SAPE   H4R16043   6.185   0.997   9.367  2.2361  0.3449  1.5658
  146SAPE   H4S16044   6.180   0.944   9.209 -1.1199 -0.9694  1.2891
  146SAPE   C2516045   6.351   1.074   9.251 -0.2156 -0.5704 -0.4104
  146SAPE   H5R16046   6.420   1.111   9.328  0.0984  1.4846 -1.5998
  146SAPE   C2616047   6.365   1.120   9.130 -0.6968  0.4496 -0.3325
  146SAPE   H6R16048   6.443   1.197   9.120 -2.4040  2.0675 -1.9848
  146SAPE   C2716049   6.300   1.077   9.002  0.1195 -0.0300  0.6469
  146SAPE   H7R16050   6.248   1.166   8.961  0.0978 -0.5129 -0.4044
  146SAPE   H7S16051   6.226   0.996   9.016  0.7393 -1.1908 -2.0373
  146SAPE   C2816052   6.407   1.015   8.916  0.0673 -0.0713  0.0164
  146SAPE   H8R16053   6.476   0.948   8.970  3.3771  0.6785 -2.9130
  146SAPE   C2916054   6.439   1.049   8.784  0.8766 -0.3561 -1.0216
  146SAPE   H9R16055   6.526   1.000   8.739  0.3571 -2.2582 -0.0597
  146SAPE  C21016056   6.371   1.150   8.688  0.0689  0.3916 -0.1965
  146SAPE  H10R16057   6.454   1.195   8.629  1.6813 -2.4843 -0.2866
  146SAPE  H10S16058   6.319   1.237   8.733  0.5056 -0.2113  1.5673
  146SAPE  C21116059   6.276   1.075   8.600 -0.7017 -0.2775 -0.2747
  146SAPE  H11R16060   6.221   0.999   8.657  1.3779 -4.3645 -3.2042
  146SAPE  C21216061   6.257   1.097   8.468  0.4529 -0.0295  0.0329
  146SAPE  H12R16062   6.186   1.032   8.414 -1.2578  0.0521  2.0265
  146SAPE  C21316063   6.344   1.175   8.368 -0.2165 -0.4940 -0.9792
  146SAPE  H13R16064   6.345   1.112   8.277  0.5981 -1.9707  0.0206
  146SAPE  H13S16065   6.447   1.165   8.407  0.4093 -0.1445 -2.4868
  146SAPE  C21416066   6.323   1.324   8.353  0.3714 -1.0736  0.1307
  146SAPE  H14R16067   6.248   1.354   8.428 -0.5596 -2.6999 -0.0821
  146SAPE  C21516068   6.367   1.411   8.261 -0.1201  0.0701 -0.8686
  146SAPE  H15R16069   6.349   1.518   8.273  1.9594  0.3898 -0.2901
  146SAPE  C21616070   6.448   1.391   8.146  0.2367 -0.9257  0.3430
  146SAPE  H16R16071   6.492   1.290   8.158 -0.6027 -1.0958  2.4418
  146SAPE  H16S16072   6.539   1.456   8.144 -0.4902  0.1100 -0.8785
  146SAPE  C21716073   6.364   1.395   8.019 -0.0662  0.1204 -0.7087
  146SAPE  H17R16074   6.342   1.500   7.989  0.6242  0.3397 -0.4686
  146SAPE  H17S16075   6.262   1.351   8.017 -0.4451  0.9190  0.3173
  146SAPE  C21816076   6.453   1.324   7.911  0.3755 -0.4995  0.1848
  146SAPE  H18R16077   6.465   1.214   7.921 -0.2329 -0.7842 -1.8658
  146SAPE  H18S16078   6.557   1.360   7.923 -0.4544  1.3682  2.4640
  146SAPE  C21916079   6.410   1.364   7.772  0.2615  0.2498  0.9727
  146SAPE  H19R16080   6.408   1.474   7.765 -0.9640  0.2547  1.2078
  146SAPE  H19S16081   6.309   1.320   7.757  1.1668 -1.0387 -2.2475
  146SAPE  C22016082   6.492   1.297   7.657 -0.1888  0.0475  0.2473
  146SAPE  H20R16083   6.492   1.188   7.679 -1.8917  0.3304  1.9475
  146SAPE  H20S16084   6.597   1.332   7.647 -0.1225  0.2841  1.6059
  146SAPE  H20T16085   6.438   1.305   7.560  0.3282  1.3111  0.0418
  146SAPE   C3316086   6.099   0.190   9.000 -0.6340  0.6565  0.8980
  146SAPE   H3X16087   6.091   0.300   8.986  1.6354  0.9154  1.2767
  146SAPE   H3Y16088   5.998   0.145   8.986 -0.6524  1.2831 -1.4242
  146SAPE   C3416089   6.211   0.142   8.908  0.2333 -0.0836  0.1037
  146SAPE   H4X16090   6.213   0.031   8.907  0.1725 -0.0873  0.3784
  146SAPE   H4Y16091   6.305   0.178   8.956  1.0752  1.5687 -2.5055
  146SAPE   C3516092   6.191   0.186   8.760 -0.8307 -0.4729  0.1361
  146SAPE   H5X16093   6.278   0.162   8.696 -0.4415  1.2950 -0.0569
  146SAPE   H5Y16094   6.177   0.296   8.760  0.7087 -0.2354 -1.2641
  146SAPE   C3616095   6.060   0.131   8.695 -0.6066  0.1472 -0.3015
  146SAPE   H6X16096   5.980   0.203   8.722 -1.2669 -0.8477  0.4951
  146SAPE   H6Y16097   6.023   0.033   8.733  1.1498 -1.0519 -1.5375
  146SAPE   C3716098   6.070   0.119   8.544  0.8315  0.4293  0.9811
  146SAPE   H7X16099   6.153   0.050   8.514  1.2617  1.9980 -1.7214
  146SAPE   H7Y16100   6.099   0.220   8.510 -0.5761  1.2357  2.0882
  146SAPE   C3816101   5.934   0.079   8.479  0.6639  0.1413 -0.1752
  146SAPE   H8X16102   5.870   0.170   8.482  0.4402  0.0537 -1.7350
  146SAPE   H8Y16103   5.880  -0.003   8.531  1.3936 -0.0298  0.3283
  146SAPE   C3916104   5.948   0.046   8.329  0.7267 -0.7196  0.2442
  146SAPE   H9X16105   5.852   0.022   8.279  0.5300 -0.7223  0.6175
  146SAPE   H9Y16106   6.017  -0.041   8.334  2.3690  0.6090  2.5900
  146SAPE  C31016107   6.019   0.160   8.248  0.1242  0.4516 -0.1135
  146SAPE  H10X16108   6.122   0.169   8.289 -0.7239 -0.2085  2.3329
  146SAPE  H10Y16109   5.959   0.253   8.261  1.7035  1.2876  1.8984
  146SAPE  C31116110   6.031   0.122   8.103  0.3856  0.0064  0.7228
  146SAPE  H11X16111   5.925   0.116   8.070  0.7376 -1.5802 -0.2164
  146SAPE  H11Y16112   6.071   0.019   8.091  3.4923  1.0988  0.7473
  146SAPE  C31216113   6.102   0.225   8.009  0.1512 -0.5599 -0.1775
  146SAPE  H12X16114   6.108   0.180   7.908  1.9703 -1.4947  0.3029
  146SAPE  H12Y16115   6.209   0.227   8.038  0.2087 -2.9468 -0.0400
  146SAPE  C31316116   6.036   0.363   8.001 -0.0295  0.0615  0.2940
  146SAPE  H13X16117   6.027   0.402   8.105  1.2254 -0.1545  0.4892
  146SAPE  H13Y16118   5.932   0.358   7.961  0.0400 -1.2107  0.2341
  146SAPE  C31416119   6.126   0.465   7.924  0.0740  1.3055 -0.7319
  146SAPE  H14X16120   6.180   0.431   7.833  0.3403  1.3489 -0.5927
  146SAPE  H14Y16121   6.198   0.494   8.004  1.1039  0.6753 -1.4104
  146SAPE  C31516122   6.052   0.602   7.901  0.4316  0.2586  0.3400
  146SAPE  H15X16123   6.125   0.684   7.885 -0.1774  0.5603 -1.0074
  146SAPE  H15Y16124   6.002   0.631   7.997 -0.2303  1.2740 -0.2917
  146SAPE  C31616125   5.944   0.591   7.792  0.1816  0.2223 -0.3240
  146SAPE  H16X16126   5.890   0.494   7.788 -1.6884  1.2330 -2.7923
  146SAPE  H16Y16127   5.984   0.606   7.689 -0.3092 -2.0180 -0.9118
  146SAPE  C31716128   5.827   0.694   7.822  0.1680  0.5054  0.3571
  146SAPE  H17X16129   5.873   0.794   7.836  1.5001 -0.1877  1.2087
  146SAPE  H17Y16130   5.770   0.665   7.912 -0.6920  0.4070 -0.2115
  146SAPE  C31816131   5.726   0.709   7.709  0.0562  0.1434  0.0135
  146SAPE  H18X16132   5.660   0.619   7.714 -0.6699  0.6301 -0.6220
  146SAPE  H18Y16133   5.784   0.700   7.615 -2.1099 -0.0451 -1.3809
  146SAPE  H18Z16134   5.671   0.805   7.716 -0.6040  0.0522 -2.6997
  147SAPE     N16135   3.580   3.956   5.657  0.5928  0.4417  0.2312
  147SAPE   HN116136   3.544   3.859   5.668 -2.2641  1.3412 -0.4969
  147SAPE   HN216137   3.498   4.020   5.657 -0.7262 -1.1541  1.5872
  147SAPE   HN316138   3.617   3.966   5.560 -1.4006  0.4621 -0.5645
  147SAPE   C1216139   3.681   3.989   5.763  0.5353 -0.1476  0.3960
  147SAPE  H12A16140   3.762   3.912   5.758  2.2314  1.2107  3.6516
  147SAPE  H12B16141   3.622   3.968   5.855  0.1682 -0.1080  0.1699
  147SAPE   C1116142   3.737   4.126   5.748  0.4972 -0.2520  0.3435
  147SAPE  H11A16143   3.785   4.163   5.842 -0.4051 -0.6545  0.9725
  147SAPE  H11B16144   3.656   4.201   5.740  1.6165  1.0127  0.4069
  147SAPE     P16145   3.971   4.139   5.624 -0.1362 -0.3281  0.2314
  147SAPE   O1316146   4.029   4.002   5.619  0.3531 -0.3315  0.1243
  147SAPE   O1416147   4.007   4.236   5.518  0.1779  0.1119 -0.3376
  147SAPE   O1216148   3.816   4.125   5.630 -0.0083 -0.2928  0.1392
  147SAPE   O1116149   4.017   4.206   5.760  0.2495 -0.1718  0.4741
  147SAPE    C116150   4.147   4.186   5.816  0.5070 -0.7258  0.0594
  147SAPE    HA16151   4.217   4.194   5.729 -0.9959  0.0896 -1.1179
  147SAPE    HB16152   4.166   4.276   5.877 -1.1228  0.3462 -0.9447
  147SAPE    C216153   4.165   4.063   5.904 -0.2917  0.4389  0.2734
  147SAPE    HS16154   4.145   3.976   5.839 -2.8812  1.4066 -0.3384
  147SAPE   O2116155   4.078   4.081   6.011 -0.1413 -0.2877 -0.2864
  147SAPE   C2116156   3.969   4.010   6.014 -0.1872  0.2364 -0.0995
  147SAPE   O2216157   3.935   3.923   5.935  0.0252 -0.0261 -0.6387
  147SAPE   C2216158   3.893   4.060   6.145  0.8906 -0.0398  0.3457
  147SAPE   H2R16159   3.859   4.163   6.122  2.3281  0.1042 -1.2969
  147SAPE   H2S16160   3.804   3.995   6.159  0.9317  0.2099  2.0296
  147SAPE    C316161   4.315   4.049   5.954 -0.0810  0.5628  0.1941
  147SAPE    HX16162   4.332   4.140   6.016  0.3151  0.8439 -0.3224
  147SAPE    HY16163   4.385   4.050   5.868  1.0923 -0.3988  1.1095
  147SAPE   O3116164   4.329   3.929   6.031 -0.0837  0.6782 -0.0800
  147SAPE   C3116165   4.333   3.814   5.968 -0.1603  0.0158 -0.9152
  147SAPE   O3216166   4.330   3.800   5.847  0.0092 -0.1674 -0.4660
  147SAPE   C3216167   4.351   3.706   6.065  0.3038  0.2804  0.6483
  147SAPE   H2X16168   4.405   3.743   6.155 -1.0567  1.6916  0.9199
  147SAPE   H2Y16169   4.418   3.630   6.019 -2.4749 -1.9670  0.0660
  147SAPE   C2316170   3.985   4.051   6.266  0.7244 -0.5526 -0.3216
  147SAPE   H3R16171   4.030   4.152   6.280 -0.0835 -0.0141 -1.4391
  147SAPE   H3S16172   4.063   3.975   6.249 -0.8620 -2.0935 -1.0784
  147SAPE   C2416173   3.907   4.005   6.391  0.0455 -0.4877 -0.2904
  147SAPE   H4R16174   3.975   3.977   6.475  1.2126 -0.0101 -1.0493
  147SAPE   H4S16175   3.850   3.911   6.371 -0.7904  0.1827 -1.1107
  147SAPE   C2516176   3.810   4.118   6.435  0.3063  0.5058 -0.0054
  147SAPE   H5R16177   3.841   4.222   6.417 -0.2651  0.9084  1.2173
  147SAPE   C2616178   3.688   4.106   6.489  0.2626  0.0454  0.9655
  147SAPE   H6R16179   3.619   4.191   6.496 -1.2829 -1.1027  0.2927
  147SAPE   C2716180   3.619   3.977   6.526 -0.1290  0.3227 -0.0789
  147SAPE   H7R16181   3.570   3.989   6.625 -0.6832 -0.5776 -0.2385
  147SAPE   H7S16182   3.698   3.899   6.533  0.8742  1.2146 -1.0406
  147SAPE   C2816183   3.509   3.928   6.434  0.2485  0.6649 -0.1428
  147SAPE   H8R16184   3.539   3.920   6.328  0.1893 -3.7597  0.0065
  147SAPE   C2916185   3.387   3.889   6.477 -0.0154  0.8540  0.3861
  147SAPE   H9R16186   3.323   3.841   6.402  1.5585  1.3052 -1.3139
  147SAPE  C21016187   3.325   3.885   6.612  0.3529  0.0757 -0.8524
  147SAPE  H10R16188   3.401   3.900   6.691 -0.7394  0.2825  0.1883
  147SAPE  H10S16189   3.289   3.783   6.636  1.3128 -0.3567 -1.2288
  147SAPE  C21116190   3.210   3.989   6.623 -0.2516 -0.3236 -0.3786
  147SAPE  H11R16191   3.139   3.992   6.539 -3.6295  0.0507  2.2745
  147SAPE  C21216192   3.188   4.068   6.733  0.1298  0.0536  0.2740
  147SAPE  H12R16193   3.099   4.132   6.728 -0.6849 -1.0935 -1.0177
  147SAPE  C21316194   3.276   4.062   6.859  0.1294  0.1605  0.2162
  147SAPE  H13R16195   3.370   4.005   6.844 -0.1343 -0.5066  1.0037
  147SAPE  H13S16196   3.221   4.009   6.940  0.9485  0.0947  0.7393
  147SAPE  C21416197   3.302   4.206   6.903  0.4831 -0.3550  0.5391
  147SAPE  H14R16198   3.252   4.292   6.857 -0.1428  0.3343  2.3956
  147SAPE  C21516199   3.372   4.245   7.015 -0.5091 -0.8796 -0.6969
  147SAPE  H15R16200   3.378   4.347   7.056 -1.5878 -1.5910  1.3697
  147SAPE  C21616201   3.428   4.147   7.110 -0.0176 -0.4283 -0.2271
  147SAPE  H16R16202   3.489   4.072   7.056 -0.0299  1.6014 -3.3460
  147SAPE  H16S16203   3.345   4.085   7.149 -0.2169 -0.0543 -0.0470
  147SAPE  C21716204   3.501   4.202   7.231 -0.0775 -0.2736 -0.0845
  147SAPE  H17R16205   3.436   4.263   7.297 -3.2229 -1.5283 -1.8175
  147SAPE  H17S16206   3.585   4.260   7.185 -0.7120  0.8026  0.0745
  147SAPE  C21816207   3.585   4.094   7.304 -0.6051 -0.1945 -0.1401
  147SAPE  H18R16208   3.683   4.063   7.261  0.8875  0.7887  2.3357
  147SAPE  H18S16209   3.524   4.002   7.320  0.3540 -0.6474  1.0709
  147SAPE  C21916210   3.636   4.145   7.444 -0.5365  1.4036  0.5219
  147SAPE  H19R16211   3.538   4.164   7.493 -1.3051 -1.3438  0.1999
  147SAPE  H19S16212   3.696   4.237   7.425  1.6917 -0.0038  0.3119
  147SAPE  C22016213   3.701   4.040   7.543  0.4160 -0.2245  0.3538
  147SAPE  H20R16214   3.806   4.015   7.517  1.0457  1.5900  1.0022
  147SAPE  H20S16215   3.630   3.954   7.550  0.0492  0.1903  2.1162
  147SAPE  H20T16216   3.701   4.083   7.645 -0.8723 -3.2195  1.7378
  147SAPE   C3316217   4.217   3.624   6.090 -0.5389 -0.2999 -0.5934
  147SAPE   H3X16218   4.248   3.517   6.087  0.8970  0.0235  0.8311
  147SAPE   H3Y16219   4.156   3.631   5.998 -0.6835  0.4990 -0.4421
  147SAPE   C3416220   4.130   3.661   6.211 -0.0136 -0.4098 -0.3789
  147SAPE   H4X16221   4.023   3.650   6.183 -0.9424  1.9991  1.7878
  147SAPE   H4Y16222   4.151   3.768   6.235 -0.2271 -0.5020  0.2460
  147SAPE   C3516223   4.154   3.579   6.338 -0.3471  0.9349  0.5232
  147SAPE   H5X16224   4.253   3.610   6.378 -0.4741  2.1856 -0.1044
  147SAPE   H5Y16225   4.143   3.470   6.321 -1.9639  1.1380  0.1081
  147SAPE   C3616226   4.055   3.621   6.444 -0.4982  0.0980 -0.4316
  147SAPE   H6X16227   3.954   3.578   6.431 -1.5046  1.6875  1.5613
  147SAPE   H6Y16228   4.042   3.731   6.432 -1.2386  0.4182  2.4819
  147SAPE   C3716229   4.098   3.583   6.588  0.3065  0.3031  0.6625
  147SAPE   H7X16230   4.184   3.645   6.623  0.3788  0.6757 -0.1510
  147SAPE   H7Y16231   4.133   3.478   6.595 -0.8784 -0.1868 -0.3858
  147SAPE   C3816232   3.989   3.599   6.699  0.0414  0.0817  0.4667
  147SAPE   H8X16233   3.894   3.557   6.661  0.6400 -0.5997 -0.3223
  147SAPE   H8Y16234   3.983   3.705   6.731  1.2482  0.7818 -1.4512
  147SAPE   C3916235   4.037   3.532   6.820  0.0529  0.0408 -0.5415
  147SAPE   H9X16236   4.138   3.577   6.835  0.3716  0.8458 -4.1429
  147SAPE   H9Y16237   4.066   3.426   6.805  1.3953  0.3000  0.0569
  147SAPE  C31016238   3.946   3.557   6.943  0.0043  0.2495 -0.8899
  147SAPE  H10X16239   3.946   3.666   6.962  1.7577 -0.1090  1.8554
  147SAPE  H10Y16240   3.990   3.500   7.028  0.6523  0.8653 -0.8009
  147SAPE  C31116241   3.793   3.521   6.936  0.6504 -0.2217  0.4313
  147SAPE  H11X16242   3.784   3.411   6.935 -1.4661 -0.1068 -1.3864
  147SAPE  H11Y16243   3.743   3.555   6.842  0.4490 -2.5986 -0.3777
  147SAPE  C31216244   3.719   3.560   7.066  0.0194  0.5398  0.4795
  147SAPE  H12X16245   3.696   3.669   7.069 -2.2968  0.2386 -2.2048
  147SAPE  H12Y16246   3.782   3.527   7.151 -0.1583  0.0399  0.4162
  147SAPE  C31316247   3.582   3.489   7.067  0.5591  0.5222  0.2825
  147SAPE  H13X16248   3.528   3.495   7.163  3.1879 -1.4479  2.0407
  147SAPE  H13Y16249   3.593   3.379   7.052 -1.9441  0.1899  0.4954
  147SAPE  C31416250   3.480   3.542   6.960  0.2862  0.0314  0.2393
  147SAPE  H14X16251   3.386   3.482   6.957 -1.0329  2.0212 -0.2089
  147SAPE  H14Y16252   3.523   3.520   6.860  0.8826  0.7135  0.3368
  147SAPE  C31516253   3.458   3.698   6.963 -0.5029  0.0499  0.0738
  147SAPE  H15X16254   3.396   3.712   6.871 -0.4540 -0.1716  0.0086
  147SAPE  H15Y16255   3.554   3.747   6.936 -0.1839 -1.6202 -2.1137
  147SAPE  C31616256   3.413   3.764   7.088  0.8062  1.0770  0.0996
  147SAPE  H16X16257   3.392   3.867   7.054  3.6656  1.1942 -1.5904
  147SAPE  H16Y16258   3.497   3.757   7.161  0.7600 -0.0865  0.0687
  147SAPE  C31716259   3.283   3.704   7.150 -0.0085  0.2482  0.1683
  147SAPE  H17X16260   3.323   3.614   7.201 -0.4664  0.2038  0.4576
  147SAPE  H17Y16261   3.210   3.658   7.079  1.2004  1.6729 -2.1138
  147SAPE  C31816262   3.216   3.785   7.260 -0.8265  0.5142  0.2208
  147SAPE  H18X16263   3.144   3.718   7.313  0.8714 -1.7100 -0.1438
  147SAPE  H18Y16264   3.153   3.862   7.209  0.8283 -0.2914 -3.2983
  147SAPE  H18Z16265   3.295   3.826   7.326 -2.2303  1.1711  1.5716
  148SAPE     N16266   3.975   3.452   5.654 -0.3091 -0.4031 -0.8826
  148SAPE   HN116267   3.987   3.364   5.707 -0.4374  0.0123 -0.1557
  148SAPE   HN216268   4.061   3.490   5.610 -0.1980  0.6374  0.1880
  148SAPE   HN316269   3.948   3.528   5.719  1.6778 -1.1193  0.8796
  148SAPE   C1216270   3.871   3.421   5.548 -0.1516 -0.6139  0.1352
  148SAPE  H12A16271   3.896   3.320   5.511  0.1688 -1.2142  1.9172
  148SAPE  H12B16272   3.899   3.486   5.462 -0.0250 -1.7301 -0.6748
  148SAPE   C1116273   3.724   3.439   5.610  0.0436 -0.0724  0.3535
  148SAPE  H11A16274   3.667   3.417   5.518  1.4528  0.1075 -0.5990
  148SAPE  H11B16275   3.701   3.544   5.637  0.1863  0.4816 -1.5442
  148SAPE     P16276   3.542   3.320   5.755  0.1310  0.2069  0.5403
  148SAPE   O1316277   3.473   3.454   5.765 -0.2272 -0.2120  0.1999
  148SAPE   O1416278   3.484   3.221   5.665  0.1725  1.2594  0.1642
  148SAPE   O1216279   3.688   3.357   5.719  0.1727  0.0616  0.1036
  148SAPE   O1116280   3.555   3.265   5.895 -0.2117 -0.6205 -0.6887
  148SAPE    C116281   3.585   3.335   6.015  0.3343 -0.1200 -0.3790
  148SAPE    HA16282   3.560   3.443   6.010 -0.4777 -0.2974 -0.3005
  148SAPE    HB16283   3.528   3.296   6.101 -0.2721 -0.7528 -1.0617
  148SAPE    C216284   3.737   3.323   6.046  0.1578  0.1182 -0.1975
  148SAPE    HS16285   3.788   3.317   5.947 -0.4879 -0.2313 -0.5198
  148SAPE   O2116286   3.753   3.194   6.117  0.1937 -0.0109  0.1247
  148SAPE   C2116287   3.869   3.143   6.111 -0.5980  0.1399 -0.5365
  148SAPE   O2216288   3.970   3.201   6.071  0.2099 -0.0946  0.3576
  148SAPE   C2216289   3.866   3.004   6.161  0.1587 -0.1246  0.0372
  148SAPE   H2R16290   3.771   2.977   6.212  0.3309 -2.2405 -0.6871
  148SAPE   H2S16291   3.875   2.929   6.080  0.1303  0.8408 -0.8845
  148SAPE    C316292   3.795   3.445   6.127  0.7053  0.3839 -0.5069
  148SAPE    HX16293   3.791   3.537   6.066 -6.6115 -0.9618 -3.0245
  148SAPE    HY16294   3.905   3.436   6.143  0.9186  3.9229  0.8158
  148SAPE   O3116295   3.729   3.466   6.257  0.4214 -0.2794  0.5543
  148SAPE   C3116296   3.633   3.561   6.260 -0.1253  0.0582 -0.5214
  148SAPE   O3216297   3.612   3.646   6.172 -0.0097 -0.1664 -0.3381
  148SAPE   C3216298   3.553   3.540   6.389  1.1635 -0.3103 -0.2208
  148SAPE   H2X16299   3.453   3.515   6.345  0.9560 -0.1162  0.1405
  148SAPE   H2Y16300   3.540   3.636   6.442  0.7548  0.2099 -1.2371
  148SAPE   C2316301   3.986   2.973   6.250 -0.1434 -0.9752 -0.7117
  148SAPE   H3R16302   4.001   3.042   6.336  1.2237 -1.4150 -0.5771
  148SAPE   H3S16303   4.078   2.999   6.194  0.2627 -0.5333  0.1323
  148SAPE   C2416304   3.996   2.825   6.286  0.3165  0.2180 -0.3658
  148SAPE   H4R16305   4.102   2.802   6.308  0.1341 -1.5799 -1.2238
  148SAPE   H4S16306   3.968   2.760   6.200  0.1263 -0.0374 -0.1145
  148SAPE   C2516307   3.898   2.789   6.402  0.2540 -0.3555  0.0706
  148SAPE   H5R16308   3.794   2.769   6.373  0.1765 -0.7329  0.5988
  148SAPE   C2616309   3.941   2.771   6.525 -0.7735  0.4069 -0.1466
  148SAPE   H6R16310   3.859   2.745   6.593  0.0320 -1.0365  0.3155
  148SAPE   C2716311   4.085   2.774   6.571  0.0313  0.6070 -0.9452
  148SAPE   H7R16312   4.150   2.837   6.506  0.3660  0.1027 -1.1055
  148SAPE   H7S16313   4.124   2.670   6.565 -0.1189  0.5382 -0.7439
  148SAPE   C2816314   4.101   2.821   6.715 -0.8569  0.8390  0.7660
  148SAPE   H8R16315   4.138   2.923   6.731  1.2146  0.5130 -1.4864
  148SAPE   C2916316   4.076   2.751   6.830 -0.1173 -0.0480  1.1311
  148SAPE   H9R16317   4.095   2.804   6.924  2.1094  0.5550  0.4047
  148SAPE  C21016318   4.038   2.608   6.831  0.2010 -0.3673 -0.2652
  148SAPE  H10R16319   4.039   2.558   6.731  1.7729 -0.7969 -0.0662
  148SAPE  H10S16320   3.937   2.594   6.875  0.2556 -0.9240 -0.3126
  148SAPE  C21116321   4.138   2.543   6.918  0.0044 -0.4089 -0.8336
  148SAPE  H11R16322   4.162   2.604   7.007 -1.2271 -1.0124 -0.0675
  148SAPE  C21216323   4.213   2.428   6.900  0.2902  0.3759 -0.2857
  148SAPE  H12R16324   4.270   2.390   6.985  1.4332  0.0195 -1.1857
  148SAPE  C21316325   4.197   2.324   6.788 -0.1342 -0.3034 -0.3780
  148SAPE  H13R16326   4.294   2.283   6.754 -1.3615 -1.4513 -2.8071
  148SAPE  H13S16327   4.162   2.381   6.699  0.2933  0.5419 -0.0168
  148SAPE  C21416328   4.103   2.203   6.801  0.1979 -0.3417  0.0343
  148SAPE  H14R16329   4.009   2.206   6.744 -0.3929 -2.1443  0.8335
  148SAPE  C21516330   4.111   2.105   6.893 -0.8007 -0.7372 -0.2277
  148SAPE  H15R16331   4.037   2.024   6.894 -1.5572 -0.0441  0.2121
  148SAPE  C21616332   4.221   2.088   6.994  0.1207 -0.2562 -0.2082
  148SAPE  H16R16333   4.313   2.145   6.969  0.1432 -0.2233 -0.0488
  148SAPE  H16S16334   4.267   1.987   7.000  1.2261  0.2946  1.0018
  148SAPE  C21716335   4.187   2.128   7.145 -0.3860 -0.7002  0.3056
  148SAPE  H17R16336   4.105   2.061   7.183 -0.9125 -0.2841 -0.0824
  148SAPE  H17S16337   4.159   2.235   7.153 -1.1109 -0.9095  0.7014
  148SAPE  C21816338   4.303   2.113   7.254 -0.1358  0.8669 -0.2181
  148SAPE  H18R16339   4.330   2.008   7.275 -1.5695  0.4268 -0.4943
  148SAPE  H18S16340   4.263   2.167   7.342  1.9023  2.3551 -0.1252
  148SAPE  C21916341   4.425   2.194   7.219  0.2186  0.4155 -0.7269
  148SAPE  H19R16342   4.387   2.299   7.226  0.2879  0.3894  0.1216
  148SAPE  H19S16343   4.463   2.178   7.116  1.8446  0.0436 -0.0889
  148SAPE  C22016344   4.535   2.178   7.324 -0.0805 -0.3453  0.4485
  148SAPE  H20R16345   4.518   2.091   7.391  1.2472 -0.8442  0.1741
  148SAPE  H20S16346   4.522   2.262   7.395 -1.3765 -0.4106  0.3037
  148SAPE  H20T16347   4.638   2.166   7.282 -0.4110  0.1994 -0.5652
  148SAPE   C3316348   3.598   3.426   6.490  0.4365 -1.1333 -0.2887
  148SAPE   H3X16349   3.692   3.449   6.546  0.0261  0.4134 -0.1917
  148SAPE   H3Y16350   3.622   3.337   6.428  0.2220 -0.8985 -0.7155
  148SAPE   C3416351   3.490   3.373   6.583  0.5396 -1.1344  0.2180
  148SAPE   H4X16352   3.395   3.354   6.528 -0.4326 -0.1612  1.4935
  148SAPE   H4Y16353   3.479   3.461   6.649  2.3216 -1.3188  0.8093
  148SAPE   C3516354   3.545   3.243   6.645 -0.8300  0.0253 -0.3246
  148SAPE   H5X16355   3.588   3.184   6.561 -0.2821 -0.0080 -0.0238
  148SAPE   H5Y16356   3.463   3.191   6.698  0.6136 -0.7515  1.2016
  148SAPE   C3616357   3.658   3.262   6.750 -0.2770 -0.4511  0.6261
  148SAPE   H6X16358   3.609   3.310   6.837  0.3504 -0.3961  0.9526
  148SAPE   H6Y16359   3.743   3.325   6.718 -0.1209 -0.0081  1.8504
  148SAPE   C3716360   3.719   3.128   6.789 -0.4444 -0.1576  0.1177
  148SAPE   H7X16361   3.761   3.082   6.697 -0.6766 -2.0446  0.8972
  148SAPE   H7Y16362   3.642   3.049   6.805 -1.2242  0.3523 -1.0373
  148SAPE   C3816363   3.817   3.123   6.919  0.3226  0.0790 -0.2011
  148SAPE   H8X16364   3.770   3.191   6.993 -0.5151 -0.5893 -0.0978
  148SAPE   H8Y16365   3.919   3.160   6.898 -0.4368  1.1643 -2.2414
  148SAPE   C3916366   3.821   2.979   6.976 -0.3872 -0.4032 -0.5366
  148SAPE   H9X16367   3.896   2.994   7.057 -0.9456 -0.6002  0.0289
  148SAPE   H9Y16368   3.851   2.895   6.910  0.5098 -0.0146 -0.6412
  148SAPE  C31016369   3.694   2.940   7.052  0.1180  0.6079  0.0024
  148SAPE  H10X16370   3.598   2.935   6.996 -0.0438  2.4255  0.0503
  148SAPE  H10Y16371   3.661   3.022   7.119  0.2687  1.5604 -1.0601
  148SAPE  C31116372   3.712   2.803   7.112  0.8694 -0.2076  0.1042
  148SAPE  H11X16373   3.708   2.730   7.029 -2.8167  0.1963 -0.2518
  148SAPE  H11Y16374   3.618   2.783   7.167  0.2909 -1.5450 -1.3195
  148SAPE  C31216375   3.830   2.781   7.199  0.1306 -0.0685 -0.2694
  148SAPE  H12X16376   3.826   2.856   7.280 -0.5577  1.5761 -1.7581
  148SAPE  H12Y16377   3.923   2.808   7.145  0.0383  0.6790 -0.0574
  148SAPE  C31316378   3.838   2.640   7.263 -0.7163 -0.5817  0.2793
  148SAPE  H13X16379   3.835   2.563   7.183 -2.4365 -0.4210  0.1519
  148SAPE  H13Y16380   3.747   2.616   7.321 -1.3097 -1.9285 -1.1649
  148SAPE  C31416381   3.956   2.614   7.359  0.3837 -0.7091  0.4250
  148SAPE  H14X16382   3.930   2.520   7.412 -0.1983  0.4691  2.3780
  148SAPE  H14Y16383   3.960   2.696   7.435 -0.2473  0.7530 -1.0779
  148SAPE  C31516384   4.091   2.587   7.286  0.0364 -0.5529 -0.3718
  148SAPE  H15X16385   4.114   2.664   7.210  0.6862 -0.8075 -0.4448
  148SAPE  H15Y16386   4.089   2.491   7.229  1.6023 -1.9903  1.8096
  148SAPE  C31616387   4.210   2.569   7.384 -0.0680  0.2959 -0.7397
  148SAPE  H16X16388   4.181   2.471   7.426 -0.0383 -0.1312 -1.6873
  148SAPE  H16Y16389   4.187   2.634   7.471  2.3528 -0.6438  0.6899
  148SAPE  C31716390   4.350   2.595   7.338  0.7029 -0.5384 -0.4636
  148SAPE  H17X16391   4.362   2.698   7.297 -1.6850  0.8051  1.8938
  148SAPE  H17Y16392   4.379   2.524   7.257 -1.5105 -0.3325 -1.5154
  148SAPE  C31816393   4.449   2.583   7.453  0.4753 -0.2791  0.4097
  148SAPE  H18X16394   4.552   2.578   7.411  0.2118 -2.2640 -0.0800
  148SAPE  H18Y16395   4.434   2.493   7.516  0.8291 -0.1978  0.6157
  148SAPE  H18Z16396   4.435   2.670   7.521  1.8089  0.6690 -0.4701
  149SAPE     N16397   2.703   3.356   5.912  0.4552  0.3650 -0.1077
  149SAPE   HN116398   2.711   3.348   5.809 -2.3980  0.5145 -0.3960
  149SAPE   HN216399   2.798   3.333   5.948  0.4423  1.6280  0.7843
  149SAPE   HN316400   2.638   3.279   5.937  1.4412 -1.2327 -2.1420
  149SAPE   C1216401   2.656   3.486   5.953  0.1333 -0.9544  0.1029
  149SAPE  H12A16402   2.685   3.500   6.060  0.4628  1.5337 -0.2570
  149SAPE  H12B16403   2.545   3.491   5.952  0.0318  1.9802  3.5584
  149SAPE   C1116404   2.718   3.600   5.870 -0.0591  0.0728 -0.2708
  149SAPE  H11A16405   2.660   3.690   5.900  0.0743 -0.1932  0.8280
  149SAPE  H11B16406   2.696   3.575   5.764  2.4490 -3.2118 -0.1655
  149SAPE     P16407   2.951   3.723   5.842 -0.0225  0.0132 -0.1581
  149SAPE   O1316408   3.094   3.683   5.841  0.6312 -0.3553 -0.2434
  149SAPE   O1416409   2.896   3.760   5.709  0.4617  0.8076 -0.4923
  149SAPE   O1216410   2.858   3.620   5.911 -0.5877  0.1998 -0.0267
  149SAPE   O1116411   2.928   3.855   5.930 -0.3896  0.0354  0.0279
  149SAPE    C116412   2.893   3.839   6.067 -0.4624 -0.4495 -0.1555
  149SAPE    HA16413   2.853   3.739   6.096 -2.4385  0.0580 -0.9629
  149SAPE    HB16414   2.976   3.843   6.141 -1.6038  0.7510  1.1210
  149SAPE    C216415   2.802   3.961   6.114 -0.3154 -0.2991  0.2587
  149SAPE    HS16416   2.865   4.048   6.085  0.1587 -0.0722  1.8830
  149SAPE   O2116417   2.789   3.974   6.251 -0.1724  0.5222 -0.7744
  149SAPE   C2116418   2.742   4.101   6.295 -0.0805 -0.3710 -0.2976
  149SAPE   O2216419   2.730   4.190   6.221  0.5293 -0.0835  0.2398
  149SAPE   C2216420   2.703   4.114   6.441 -0.2733 -0.0309 -0.6984
  149SAPE   H2R16421   2.721   4.220   6.468  0.7954 -0.3436 -0.1409
  149SAPE   H2S16422   2.594   4.092   6.450 -0.0944 -0.7411 -0.1305
  149SAPE    C316423   2.669   3.938   6.044 -0.3041 -1.3212 -0.7107
  149SAPE    HX16424   2.697   3.927   5.937 -1.6209 -3.4886 -0.8941
  149SAPE    HY16425   2.603   4.027   6.031  1.5106  0.0264 -1.0116
  149SAPE   O3116426   2.605   3.815   6.086 -0.0787  0.5261 -0.6902
  149SAPE   C3116427   2.514   3.847   6.187 -0.5928  0.7929  0.1348
  149SAPE   O3216428   2.479   3.960   6.222 -0.3718 -0.2513 -0.4568
  149SAPE   C3216429   2.463   3.716   6.231  0.0626  0.1591 -0.9543
  149SAPE   H2X16430   2.478   3.641   6.150  1.2968 -2.2192  1.3583
  149SAPE   H2Y16431   2.354   3.728   6.250  0.0921 -1.6100  0.5875
  149SAPE   C2316432   2.795   4.041   6.547 -0.2137  0.0882  0.0568
  149SAPE   H3R16433   2.903   4.049   6.522  0.4293  3.6829  3.0021
  149SAPE   H3S16434   2.778   3.932   6.554  0.9557 -0.0471  1.2981
  149SAPE   C2416435   2.782   4.097   6.686 -0.5343  0.7310  0.2760
  149SAPE   H4R16436   2.673   4.114   6.704 -0.1871  2.2881  1.1384
  149SAPE   H4S16437   2.829   4.196   6.706  0.6277 -0.4407  4.3577
  149SAPE   C2516438   2.834   4.001   6.788  0.2117  0.4232 -0.6252
  149SAPE   H5R16439   2.839   3.899   6.747  1.8721  0.3056 -0.2236
  149SAPE   C2616440   2.866   4.023   6.917  0.0419 -0.6427  0.1080
  149SAPE   H6R16441   2.910   3.943   6.980  1.8290  0.2068 -0.0128
  149SAPE   C2716442   2.855   4.153   6.989  0.1462 -0.6559  0.0799
  149SAPE   H7R16443   2.777   4.214   6.939  0.1438 -0.3210  0.4908
  149SAPE   H7S16444   2.943   4.218   6.973  0.2099 -0.7942 -0.1471
  149SAPE   C2816445   2.824   4.135   7.139 -0.2395  0.0389  0.3083
  149SAPE   H8R16446   2.910   4.113   7.204  1.1848 -1.5082 -1.9554
  149SAPE   C2916447   2.710   4.175   7.194  0.2929 -0.0744  0.6144
  149SAPE   H9R16448   2.706   4.149   7.300  0.6617 -1.3456  0.3375
  149SAPE  C21016449   2.587   4.246   7.132  0.4121  0.4817 -0.2287
  149SAPE  H10R16450   2.552   4.191   7.042  0.9439  0.5816 -0.5033
  149SAPE  H10S16451   2.622   4.344   7.091  0.4023 -0.1166 -1.7176
  149SAPE  C21116452   2.475   4.264   7.233  0.1685 -0.7908 -0.1402
  149SAPE  H11R16453   2.384   4.203   7.223 -0.3476 -0.2317  0.9520
  149SAPE  C21216454   2.479   4.368   7.317 -0.3272 -0.4410  0.2454
  149SAPE  H12R16455   2.388   4.402   7.369 -0.5787 -0.9685  0.1642
  149SAPE  C21316456   2.581   4.475   7.331  0.0620  0.1550 -0.4676
  149SAPE  H13R16457   2.672   4.451   7.270  0.4568 -1.5959  0.7314
  149SAPE  H13S16458   2.624   4.463   7.433  0.7432 -0.5639 -0.8264
  149SAPE  C21416459   2.538   4.618   7.308  0.3182  0.1477  0.2639
  149SAPE  H14R16460   2.467   4.629   7.224 -0.1924 -1.2164  0.4997
  149SAPE  C21516461   2.579   4.728   7.370 -0.5424 -0.0914  0.2279
  149SAPE  H15R16462   2.546   4.821   7.321 -1.2633 -0.8306 -0.7150
  149SAPE  C21616463   2.684   4.747   7.470 -0.9912 -0.5031 -0.6955
  149SAPE  H16R16464   2.726   4.654   7.514 -0.2609  0.5334  0.8812
  149SAPE  H16S16465   2.638   4.803   7.554  2.0870  2.1118 -0.5851
  149SAPE  C21716466   2.802   4.829   7.417  0.7210 -0.2104 -0.3345
  149SAPE  H17R16467   2.769   4.934   7.403  1.8944 -0.0109 -1.9974
  149SAPE  H17S16468   2.832   4.789   7.317 -1.4052 -1.9722 -0.3360
  149SAPE  C21816469   2.921   4.823   7.512  0.3852  0.2427 -0.3199
  149SAPE  H18R16470   2.964   4.721   7.512 -0.1232  0.0230  0.2779
  149SAPE  H18S16471   2.884   4.834   7.616  0.0484 -0.5564 -0.3472
  149SAPE  C21916472   3.027   4.935   7.497  0.7724 -0.0919  0.1823
  149SAPE  H19R16473   3.096   4.944   7.584  3.5298 -0.6526 -1.8226
  149SAPE  H19S16474   2.972   5.032   7.492 -3.1688 -2.0042  2.0135
  149SAPE  C22016475   3.103   4.935   7.369  0.2611  0.4308  0.0083
  149SAPE  H20R16476   3.185   4.861   7.360 -1.4060 -1.5913  0.7413
  149SAPE  H20S16477   3.150   5.030   7.336  1.1202  0.2189  0.5803
  149SAPE  H20T16478   3.030   4.908   7.290  1.0507 -4.0019  0.5111
  149SAPE   C3316479   2.524   3.674   6.368 -0.2527  0.4520  0.2881
  149SAPE   H3X16480   2.634   3.688   6.354 -0.2183 -0.1837 -0.1467
  149SAPE   H3Y16481   2.516   3.563   6.371 -0.8459  0.5029  2.8398
  149SAPE   C3416482   2.470   3.734   6.497 -0.0799 -0.2426  1.1295
  149SAPE   H4X16483   2.359   3.736   6.494 -0.0580  1.9098 -0.5242
  149SAPE   H4Y16484   2.505   3.839   6.489 -1.1715  0.0717  0.1993
  149SAPE   C3516485   2.538   3.656   6.614  0.0161  0.1786  0.0484
  149SAPE   H5X16486   2.648   3.666   6.598  0.0270 -0.4999 -0.3327
  149SAPE   H5Y16487   2.516   3.548   6.606  1.6306 -0.0972 -1.0385
  149SAPE   C3616488   2.499   3.722   6.751  0.6457  0.7116  0.7387
  149SAPE   H6X16489   2.389   3.736   6.759  0.2765 -1.8821  1.1573
  149SAPE   H6Y16490   2.543   3.824   6.747 -0.9460  1.3984 -0.0620
  149SAPE   C3716491   2.556   3.642   6.865  1.3582 -0.1415  0.1603
  149SAPE   H7X16492   2.665   3.628   6.849  1.1617 -1.5100 -0.0829
  149SAPE   H7Y16493   2.519   3.538   6.856  1.8684 -0.1862 -1.8627
  149SAPE   C3816494   2.526   3.705   6.998  0.0856 -0.2298  0.4767
  149SAPE   H8X16495   2.418   3.730   7.004 -0.2479 -1.8894  1.9972
  149SAPE   H8Y16496   2.570   3.808   7.002 -1.0817  0.2495  1.3335
  149SAPE   C3916497   2.553   3.625   7.119 -0.0025 -0.3314  0.9756
  149SAPE   H9X16498   2.643   3.560   7.123  0.3910  0.0459 -0.9202
  149SAPE   H9Y16499   2.461   3.565   7.135 -2.7989  2.8538 -1.6428
  149SAPE  C31016500   2.582   3.717   7.241 -0.4880  0.6539 -0.2882
  149SAPE  H10X16501   2.599   3.645   7.324 -0.7726  1.0271  0.0981
  149SAPE  H10Y16502   2.487   3.770   7.260 -0.6822 -0.3519  1.7979
  149SAPE  C31116503   2.708   3.799   7.233  0.0388 -0.0701 -0.1492
  149SAPE  H11X16504   2.707   3.877   7.154 -1.1292  0.6977  0.5893
  149SAPE  H11Y16505   2.788   3.726   7.208  0.8351 -0.1179  2.3082
  149SAPE  C31216506   2.743   3.866   7.362 -0.2159  0.0291 -0.0485
  149SAPE  H12X16507   2.659   3.934   7.387 -0.4625 -1.1679  2.6911
  149SAPE  H12Y16508   2.823   3.941   7.345 -1.1052  0.8470 -0.7366
  149SAPE  C31316509   2.791   3.770   7.469  0.4319 -0.0581  0.1634
  149SAPE  H13X16510   2.895   3.745   7.441  0.3813  0.5740 -0.6075
  149SAPE  H13Y16511   2.721   3.683   7.470 -1.3872  1.2473 -2.3806
  149SAPE  C31416512   2.786   3.838   7.608  0.5049 -0.1046  0.1549
  149SAPE  H14X16513   2.680   3.864   7.629  1.0483  0.1769  2.9352
  149SAPE  H14Y16514   2.847   3.931   7.601  0.9021 -0.4748 -3.4398
  149SAPE  C31516515   2.851   3.754   7.721  0.7426 -0.3086 -0.3621
  149SAPE  H15X16516   2.847   3.814   7.814 -3.0530 -1.7864  0.6575
  149SAPE  H15Y16517   2.958   3.739   7.697  1.2887  0.8583  1.1576
  149SAPE  C31616518   2.780   3.620   7.746 -0.0577 -0.5780 -0.2958
  149SAPE  H16X16519   2.807   3.539   7.675  0.6652  0.3904 -1.1588
  149SAPE  H16Y16520   2.671   3.633   7.728 -0.0172  0.8370  0.3771
  149SAPE  C31716521   2.807   3.568   7.888 -0.0965 -0.2431  0.5367
  149SAPE  H17X16522   2.713   3.523   7.928 -1.1010  1.1226 -0.1907
  149SAPE  H17Y16523   2.826   3.652   7.958  1.5731  1.1292 -1.4741
  149SAPE  C31816524   2.923   3.475   7.878 -0.6068  0.2303 -0.1615
  149SAPE  H18X16525   2.951   3.437   7.978 -0.4172  0.7098 -0.0308
  149SAPE  H18Y16526   3.013   3.530   7.842 -0.8670  0.1526 -0.9564
  149SAPE  H18Z16527   2.916   3.384   7.815  1.5949  1.2184 -2.0016
  150SAPE     N16528   2.139   4.708   5.284 -0.6162  0.0804 -0.0663
  150SAPE   HN116529   2.108   4.771   5.208 -0.6912  0.2393  0.0946
  150SAPE   HN216530   2.151   4.608   5.259 -3.1296  0.3078 -2.5708
  150SAPE   HN316531   2.070   4.719   5.361  1.2069  2.4437  1.4209
  150SAPE   C1216532   2.267   4.764   5.333  0.0360 -0.5840 -0.1722
  150SAPE  H12A16533   2.268   4.874   5.345  0.2510 -0.3230 -2.2860
  150SAPE  H12B16534   2.345   4.739   5.258 -0.3374  1.5030 -1.3208
  150SAPE   C1116535   2.302   4.696   5.471  0.4238  0.0191 -0.2145
  150SAPE  H11A16536   2.217   4.684   5.542 -0.4243 -1.9502 -1.4907
  150SAPE  H11B16537   2.370   4.769   5.519  0.4335  0.9021 -1.5242
  150SAPE     P16538   2.389   4.468   5.562 -0.2087  0.1207  0.2109
  150SAPE   O1316539   2.382   4.328   5.510 -0.1272 -0.2283  0.0822
  150SAPE   O1416540   2.515   4.510   5.618 -0.1152  0.0997  0.0101
  150SAPE   O1216541   2.355   4.567   5.445  0.3829  0.0061 -0.1883
  150SAPE   O1116542   2.272   4.496   5.667 -0.4196  0.4714 -0.1061
  150SAPE    C116543   2.145   4.435   5.663 -0.1207 -0.2930 -0.0392
  150SAPE    HA16544   2.106   4.413   5.561  1.3905  2.0456 -1.1913
  150SAPE    HB16545   2.144   4.348   5.733  1.7143 -0.5014 -0.2345
  150SAPE    C216546   2.024   4.521   5.719 -0.1704 -0.7906  0.2880
  150SAPE    HS16547   2.014   4.606   5.648 -0.3218 -1.0269  0.0210
  150SAPE   O2116548   2.053   4.558   5.857  0.3196 -0.3038  0.2837
  150SAPE   C2116549   2.095   4.678   5.886 -0.4491 -0.5265  0.0970
  150SAPE   O2216550   2.108   4.770   5.807 -0.0937  0.5111 -0.4295
  150SAPE   C2216551   2.129   4.685   6.034  0.2163 -0.5075 -0.1653
  150SAPE   H2R16552   2.078   4.776   6.071  0.0851 -0.7857  0.3401
  150SAPE   H2S16553   2.082   4.597   6.082  1.1063 -1.0466 -0.2502
  150SAPE    C316554   1.890   4.445   5.703  0.4109 -0.0549 -0.7846
  150SAPE    HX16555   1.866   4.424   5.596 -0.8619 -0.8279 -0.3714
  150SAPE    HY16556   1.809   4.515   5.733  0.5807  0.0389 -0.5461
  150SAPE   O3116557   1.895   4.320   5.781  0.6180 -0.4692  1.0656
  150SAPE   C3116558   1.846   4.324   5.908  0.2258  0.8059  0.0238
  150SAPE   O3216559   1.775   4.409   5.960 -0.4675  0.3141 -0.0763
  150SAPE   C3216560   1.884   4.196   5.977 -0.6600  0.1067  0.5687
  150SAPE   H2X16561   1.964   4.151   5.914 -0.7361  1.1777 -0.3145
  150SAPE   H2Y16562   1.797   4.127   5.969  0.5882 -1.4918  0.2056
  150SAPE   C2316563   2.281   4.700   6.063  0.0574  0.3299 -0.4809
  150SAPE   H3R16564   2.290   4.705   6.174 -0.1766  0.7722 -0.4829
  150SAPE   H3S16565   2.312   4.792   6.011 -3.3926  0.4381 -2.6638
  150SAPE   C2416566   2.366   4.576   6.021  0.7622 -0.6033  0.7907
  150SAPE   H4R16567   2.470   4.592   6.056  0.8828 -2.3337  1.3410
  150SAPE   H4S16568   2.381   4.588   5.911  0.6369 -0.5055  0.7841
  150SAPE   C2516569   2.319   4.435   6.048  0.6895  0.2519  0.4272
  150SAPE   H5R16570   2.277   4.384   5.960 -1.7274  3.3416 -0.4307
  150SAPE   C2616571   2.308   4.378   6.170  0.5138  0.1624  0.3674
  150SAPE   H6R16572   2.255   4.281   6.170  1.2907 -0.2748  0.6242
  150SAPE   C2716573   2.338   4.439   6.305  0.5816  0.0631  0.3600
  150SAPE   H7R16574   2.355   4.549   6.300 -2.7257  0.7197  1.0680
  150SAPE   H7S16575   2.425   4.381   6.343 -0.4896 -2.8337 -1.2681
  150SAPE   C2816576   2.218   4.423   6.399  0.0851 -0.0215  0.7853
  150SAPE   H8R16577   2.129   4.485   6.383  0.3999  0.3157  0.3263
  150SAPE   C2916578   2.215   4.351   6.509  0.1959 -0.2270 -0.0980
  150SAPE   H9R16579   2.118   4.369   6.558  0.2903 -0.5008  0.1947
  150SAPE  C21016580   2.320   4.270   6.579 -0.4220 -0.6956  0.5064
  150SAPE  H10R16581   2.327   4.301   6.685 -3.3848 -0.3057  0.6822
  150SAPE  H10S16582   2.420   4.298   6.541 -1.1498  0.3431 -0.7383
  150SAPE  C21116583   2.308   4.117   6.553  0.1557  0.3582 -0.0684
  150SAPE  H11R16584   2.324   4.088   6.448 -1.4603 -0.2840 -0.1599
  150SAPE  C21216585   2.261   4.033   6.642 -0.1301 -0.2352 -0.2338
  150SAPE  H12R16586   2.258   3.927   6.613  1.1189  0.0844 -1.6773
  150SAPE  C21316587   2.226   4.063   6.778  0.5698 -0.5003 -0.8454
  150SAPE  H13R16588   2.126   4.017   6.796  0.7860 -0.7725 -0.3038
  150SAPE  H13S16589   2.203   4.170   6.797 -1.1173 -1.1767  1.3899
  150SAPE  C21416590   2.329   4.029   6.888 -0.1960  0.0833 -0.4417
  150SAPE  H14R16591   2.432   4.028   6.850  0.2503 -1.2508  0.7446
  150SAPE  C21516592   2.311   4.027   7.022  0.0817 -0.4272 -0.2654
  150SAPE  H15R16593   2.396   3.993   7.082  0.7309 -0.7415 -1.3301
  150SAPE  C21616594   2.177   4.056   7.087  0.4938  0.4586  0.3084
  150SAPE  H16R16595   2.095   4.041   7.014 -0.2159 -0.3502  1.2380
  150SAPE  H16S16596   2.173   4.163   7.117 -0.1161  0.2705  0.9161
  150SAPE  C21716597   2.161   3.958   7.204 -0.6852 -0.1653 -0.1870
  150SAPE  H17R16598   2.161   3.854   7.165 -1.1443  0.5725 -2.2989
  150SAPE  H17S16599   2.062   3.975   7.252  0.1808 -0.9887  2.0668
  150SAPE  C21816600   2.257   3.963   7.330  0.1924  0.1464  0.6130
  150SAPE  H18R16601   2.254   4.070   7.358  0.7506  1.0208 -2.3056
  150SAPE  H18S16602   2.362   3.944   7.298 -0.7118 -3.9769 -0.6008
  150SAPE  C21916603   2.221   3.863   7.435 -0.0083 -0.4448 -0.2469
  150SAPE  H19R16604   2.247   3.760   7.401  1.6849  0.7970 -3.1286
  150SAPE  H19S16605   2.111   3.867   7.452 -0.4539  0.9091 -2.8554
  150SAPE  C22016606   2.295   3.889   7.569 -0.0386  0.6854  0.0906
  150SAPE  H20R16607   2.252   3.823   7.647 -3.3999  1.8467 -0.5985
  150SAPE  H20S16608   2.276   3.991   7.609  0.4913  0.5520  0.7013
  150SAPE  H20T16609   2.406   3.898   7.561  0.0094  0.1034  0.0687
  150SAPE   C3316610   1.948   4.220   6.119  0.8779 -0.3765 -0.1142
  150SAPE   H3X16611   1.982   4.324   6.137 -1.0706  0.0199  1.6616
  150SAPE   H3Y16612   2.037   4.154   6.131  0.7527 -0.7364 -1.0983
  150SAPE   C3416613   1.843   4.202   6.224 -0.0852 -0.0308  0.3310
  150SAPE   H4X16614   1.783   4.114   6.193 -0.8645  0.2080  1.1125
  150SAPE   H4Y16615   1.789   4.298   6.230 -0.7868 -0.3835 -0.2447
  150SAPE   C3516616   1.898   4.179   6.365 -0.2771 -0.3188 -0.6270
  150SAPE   H5X16617   1.939   4.274   6.405  1.0094 -0.3396 -1.8351
  150SAPE   H5Y16618   1.989   4.117   6.378 -0.2856 -0.3665 -0.7967
  150SAPE   C3616619   1.794   4.111   6.459 -0.7232 -0.9162  0.2965
  150SAPE   H6X16620   1.769   4.005   6.435 -1.3864 -0.4017 -1.4980
  150SAPE   H6Y16621   1.700   4.170   6.466  1.8618  3.4392  2.0348
  150SAPE   C3716622   1.861   4.112   6.596 -0.5991 -0.3168 -0.6981
  150SAPE   H7X16623   1.890   4.214   6.627  0.9386 -1.1437  0.7478
  150SAPE   H7Y16624   1.959   4.062   6.581  0.6260  2.3276 -2.1912
  150SAPE   C3816625   1.776   4.047   6.696  0.3356 -0.1653 -0.9375
  150SAPE   H8X16626   1.766   3.942   6.660 -2.5602 -0.0551 -0.6361
  150SAPE   H8Y16627   1.681   4.103   6.695  0.4162  0.0562  1.0118
  150SAPE   C3916628   1.834   4.078   6.838 -0.2244  0.0196 -0.2394
  150SAPE   H9X16629   1.837   4.188   6.855 -0.6726 -0.0638  0.4222
  150SAPE   H9Y16630   1.936   4.035   6.844 -0.2450 -0.0829 -0.6408
  150SAPE  C31016631   1.730   4.029   6.943  0.0592 -0.1855  0.7006
  150SAPE  H10X16632   1.694   3.925   6.928 -0.9343  0.3315 -0.7031
  150SAPE  H10Y16633   1.638   4.091   6.944 -0.4989 -0.9750  2.2088
  150SAPE  C31116634   1.782   4.028   7.086  0.0197  0.2674 -0.0739
  150SAPE  H11X16635   1.818   4.130   7.106 -0.0991  0.8075 -2.3603
  150SAPE  H11Y16636   1.877   3.972   7.101  0.6316  1.0240 -1.0379
  150SAPE  C31216637   1.677   3.989   7.183  0.8335  0.1380 -0.3840
  150SAPE  H12X16638   1.595   4.063   7.172  0.8296  0.1836 -0.0616
  150SAPE  H12Y16639   1.718   4.009   7.285  0.9910  0.4450 -0.5072
  150SAPE  C31316640   1.633   3.842   7.183  0.1424  0.3470 -0.1264
  150SAPE  H13X16641   1.726   3.785   7.161  0.6812 -0.1036  2.8939
  150SAPE  H13Y16642   1.554   3.833   7.105 -0.2672  1.6162  0.1205
  150SAPE  C31416643   1.593   3.785   7.318  0.3214 -0.8406 -0.5508
  150SAPE  H14X16644   1.674   3.812   7.389 -0.9341  0.2546  0.5209
  150SAPE  H14Y16645   1.591   3.674   7.322 -2.3586 -0.8443  0.4030
  150SAPE  C31516646   1.465   3.848   7.366 -0.2571  0.6623  0.2551
  150SAPE  H15X16647   1.383   3.840   7.292 -0.2672  1.5087  0.1687
  150SAPE  H15Y16648   1.476   3.954   7.395 -0.9872  1.1711 -1.2291
  150SAPE  C31616649   1.408   3.770   7.484 -0.1045  0.1789  0.3905
  150SAPE  H16X16650   1.368   3.674   7.447 -1.5324  1.8389 -2.7883
  150SAPE  H16Y16651   1.321   3.818   7.533 -0.3610 -0.3249  0.4304
  150SAPE  C31716652   1.511   3.748   7.594 -0.4118  0.1476 -0.6648
  150SAPE  H17X16653   1.599   3.697   7.548  1.0683  0.4681  1.6383
  150SAPE  H17Y16654   1.467   3.672   7.661 -0.3539 -0.2801 -1.1033
  150SAPE  C31816655   1.555   3.886   7.662 -0.0869 -0.1541  0.0098
  150SAPE  H18X16656   1.621   3.951   7.600 -0.3188 -0.2910 -0.3803
  150SAPE  H18Y16657   1.611   3.853   7.753 -0.7744 -1.6377 -0.0839
  150SAPE  H18Z16658   1.462   3.935   7.699 -0.7178 -1.0645 -0.3516
  151SAPE     N16659   5.051   2.208   5.634 -0.1023 -0.0662 -0.3924
  151SAPE   HN116660   5.130   2.144   5.614  1.1254  1.4523 -0.5444
  151SAPE   HN216661   5.046   2.207   5.738  1.9986 -1.0084 -0.2544
  151SAPE   HN316662   4.961   2.176   5.593  0.1234 -0.7131 -0.3921
  151SAPE   C1216663   5.082   2.351   5.577 -0.2084  0.0486  1.0906
  151SAPE  H12A16664   5.123   2.338   5.474 -0.0751  2.2786  0.8167
  151SAPE  H12B16665   5.160   2.398   5.642 -1.8435  2.1228  1.6638
  151SAPE   C1116666   4.964   2.440   5.575 -0.1240 -0.2281  0.3262
  151SAPE  H11A16667   4.888   2.389   5.512  2.8486 -4.5172 -0.2323
  151SAPE  H11B16668   4.994   2.537   5.529  2.2373 -0.9152  0.2831
  151SAPE     P16669   4.881   2.595   5.767  0.4324  0.1115 -0.2973
  151SAPE   O1316670   4.995   2.690   5.773  0.2407  0.7537  0.7458
  151SAPE   O1416671   4.758   2.627   5.694  0.2515  0.2709  0.5464
  151SAPE   O1216672   4.924   2.452   5.710 -0.3315  0.3005 -0.0512
  151SAPE   O1116673   4.844   2.545   5.916 -0.2758 -0.1820  0.4079
  151SAPE    C116674   4.775   2.423   5.932 -0.2066 -0.2246  1.3596
  151SAPE    HA16675   4.699   2.433   6.012 -0.8802 -0.1891  0.7341
  151SAPE    HB16676   4.712   2.396   5.844 -1.8182  0.2404  2.3238
  151SAPE    C216677   4.873   2.306   5.970 -0.3614  0.3666 -0.1696
  151SAPE    HS16678   4.925   2.264   5.882  1.7031  0.7482  0.7855
  151SAPE   O2116679   4.786   2.205   6.028 -0.4862 -0.8385 -0.3217
  151SAPE   C2116680   4.805   2.079   5.994 -0.2780 -0.4833 -0.4807
  151SAPE   O2216681   4.898   2.040   5.926  0.3467 -0.1687 -0.1635
  151SAPE   C2216682   4.694   2.005   6.054  0.1402  0.1216 -0.8584
  151SAPE   H2R16683   4.681   2.044   6.158  0.2199  2.5535 -1.7008
  151SAPE   H2S16684   4.603   2.021   5.992 -1.8514 -2.3056  1.2363
  151SAPE    C316685   4.987   2.346   6.071 -0.1154  0.6780 -0.0213
  151SAPE    HX16686   4.932   2.387   6.158 -1.3512  2.6598 -1.6486
  151SAPE    HY16687   5.045   2.429   6.026  0.3303 -0.2643 -1.2406
  151SAPE   O3116688   5.066   2.230   6.109  0.2346  0.7416  0.6024
  151SAPE   C3116689   5.160   2.193   6.020  0.2644 -0.0649  0.1519
  151SAPE   O3216690   5.162   2.228   5.904 -0.1704 -0.1463 -0.6434
  151SAPE   C3216691   5.247   2.085   6.084  0.4275  0.2251  0.3711
  151SAPE   H2X16692   5.324   2.069   6.005  0.6757  0.0687  0.6443
  151SAPE   H2Y16693   5.170   2.004   6.086  0.9409 -0.3014 -0.5769
  151SAPE   C2316694   4.731   1.856   6.061  0.2734  1.0024 -0.2627
  151SAPE   H3R16695   4.810   1.825   5.989 -0.0475  0.2606 -0.3018
  151SAPE   H3S16696   4.634   1.804   6.044  0.5843 -0.4849  2.1293
  151SAPE   C2416697   4.792   1.797   6.188 -0.1219 -0.3952  0.1036
  151SAPE   H4R16698   4.903   1.799   6.176 -0.2654  1.5606 -1.3076
  151SAPE   H4S16699   4.759   1.691   6.188 -0.7652 -0.1996 -0.1837
  151SAPE   C2516700   4.739   1.855   6.320 -0.2279 -0.2961 -0.4703
  151SAPE   H5R16701   4.630   1.847   6.331 -0.1791  1.2100  2.0053
  151SAPE   C2616702   4.811   1.916   6.416 -0.1595  0.3418  0.1046
  151SAPE   H6R16703   4.762   1.949   6.509 -1.5054  1.7056 -1.0403
  151SAPE   C2716704   4.953   1.951   6.426 -0.0836  0.1085  0.9045
  151SAPE   H7R16705   4.972   2.027   6.505  0.4599 -0.9550  1.8313
  151SAPE   H7S16706   4.980   2.008   6.334 -0.2258  0.1749  0.9037
  151SAPE   C2816707   5.053   1.842   6.446 -0.4234  0.2671  0.1690
  151SAPE   H8R16708   5.108   1.806   6.359  1.7616 -1.0603  1.9926
  151SAPE   C2916709   5.083   1.790   6.567  0.3282 -0.3478 -0.2416
  151SAPE   H9R16710   5.167   1.720   6.579  0.0048 -0.4616  1.6230
  151SAPE  C21016711   5.024   1.823   6.695  0.4083  0.2079  0.4087
  151SAPE  H10R16712   5.037   1.734   6.761  0.7883  0.6542  0.9472
  151SAPE  H10S16713   4.917   1.831   6.670  1.1182 -0.0108 -3.1521
  151SAPE  C21116714   5.070   1.946   6.766  0.0060 -0.2812  0.3651
  151SAPE  H11R16715   5.095   2.029   6.699  2.0407 -1.5948 -0.5771
  151SAPE  C21216716   5.081   1.966   6.897 -0.0428  0.1557 -0.4548
  151SAPE  H12R16717   5.111   2.064   6.935 -0.1756  0.7977 -1.9433
  151SAPE  C21316718   5.052   1.862   7.002  0.0701 -0.1589 -0.3875
  151SAPE  H13R16719   5.136   1.865   7.074 -0.9586  1.8825  0.8147
  151SAPE  H13S16720   5.041   1.761   6.957  1.9612 -0.9593  0.8103
  151SAPE  C21416721   4.927   1.896   7.090 -0.8406  0.6047  0.4676
  151SAPE  H14R16722   4.857   1.959   7.032  0.0056  1.8562  0.7485
  151SAPE  C21516723   4.910   1.867   7.224  0.0149 -0.3697  0.2461
  151SAPE  H15R16724   4.815   1.894   7.272  1.2267 -0.3959  2.7846
  151SAPE  C21616725   4.997   1.793   7.319 -0.0664  0.1005  0.5277
  151SAPE  H16R16726   5.002   1.851   7.414 -1.9409  0.6751  0.3124
  151SAPE  H16S16727   5.101   1.791   7.279  0.7014  0.7111  2.3742
  151SAPE  C21716728   4.952   1.651   7.350 -0.4029  0.2790 -0.8644
  151SAPE  H17R16729   4.913   1.609   7.255 -0.4088 -0.7752 -0.4057
  151SAPE  H17S16730   4.876   1.658   7.430  1.7031 -0.8680  1.3517
  151SAPE  C21816731   5.069   1.569   7.405 -0.4263  0.3354  0.9557
  151SAPE  H18R16732   5.153   1.563   7.333 -0.5463  1.3692  0.7200
  151SAPE  H18S16733   5.024   1.467   7.412  1.5156 -0.8268 -1.8226
  151SAPE  C21916734   5.137   1.621   7.537 -0.6885  0.3093 -0.0471
  151SAPE  H19R16735   5.065   1.623   7.621 -0.7356  0.2967 -0.0865
  151SAPE  H19S16736   5.172   1.724   7.517  0.9211 -0.1170  0.4483
  151SAPE  C22016737   5.258   1.532   7.582  0.3317  0.4220  0.4991
  151SAPE  H20R16738   5.347   1.597   7.564  0.7339 -0.2791 -0.0826
  151SAPE  H20S16739   5.243   1.516   7.691  0.0621  1.2206  0.5810
  151SAPE  H20T16740   5.262   1.437   7.525  0.4437  0.8883 -0.2774
  151SAPE   C3316741   5.290   2.115   6.231  0.1527  0.3008 -0.0578
  151SAPE   H3X16742   5.200   2.143   6.289 -0.4004  0.7667 -1.1128
  151SAPE   H3Y16743   5.362   2.199   6.217  0.8432 -0.3078 -0.2367
  151SAPE   C3416744   5.356   1.996   6.294 -0.8564  0.5757 -0.3724
  151SAPE   H4X16745   5.419   1.953   6.213  1.6677 -0.1180  1.8065
  151SAPE   H4Y16746   5.282   1.918   6.321  0.3327 -1.0026 -1.4924
  151SAPE   C3516747   5.443   2.031   6.414 -0.1873  0.5110  0.4854
  151SAPE   H5X16748   5.492   2.129   6.397  1.3618 -0.7334 -3.1785
  151SAPE   H5Y16749   5.523   1.955   6.424 -2.2728 -1.8353  0.6115
  151SAPE   C3616750   5.365   2.033   6.543  0.2363 -0.3849 -0.4406
  151SAPE   H6X16751   5.302   1.942   6.555 -0.8617  0.5681  1.7062
  151SAPE   H6Y16752   5.293   2.118   6.533  0.5178 -0.1717 -0.6842
  151SAPE   C3716753   5.446   2.048   6.677 -0.0691  0.2410 -1.0187
  151SAPE   H7X16754   5.377   2.034   6.763 -0.7497  0.2894 -1.5452
  151SAPE   H7Y16755   5.473   2.154   6.693 -1.5903  0.5925 -0.5725
  151SAPE   C3816756   5.554   1.937   6.692 -0.8307  0.3212 -0.1087
  151SAPE   H8X16757   5.632   1.972   6.621 -1.6646  0.9063 -0.7540
  151SAPE   H8Y16758   5.511   1.838   6.666  2.0905 -1.7259  2.1793
  151SAPE   C3916759   5.618   1.931   6.829 -0.9633  0.1483  0.1129
  151SAPE   H9X16760   5.654   2.035   6.846 -0.5779  0.1763 -0.8321
  151SAPE   H9Y16761   5.711   1.871   6.833 -0.9107  0.2343  0.1908
  151SAPE  C31016762   5.530   1.882   6.948 -0.0465  0.7168 -0.5728
  151SAPE  H10X16763   5.463   1.801   6.910  0.0253  0.5787 -0.4061
  151SAPE  H10Y16764   5.459   1.959   6.985 -0.5209  0.3035 -0.6111
  151SAPE  C31116765   5.618   1.827   7.059 -0.4502 -0.0250 -0.6650
  151SAPE  H11X16766   5.688   1.759   7.006 -1.7450 -0.8101 -1.4335
  151SAPE  H11Y16767   5.564   1.759   7.129 -0.5003 -1.1330 -1.7451
  151SAPE  C31216768   5.699   1.935   7.135 -0.6618  0.0398 -1.1504
  151SAPE  H12X16769   5.689   2.030   7.079 -1.5298  0.9246  0.4188
  151SAPE  H12Y16770   5.797   1.886   7.154 -0.5781  0.3889 -0.6722
  151SAPE  C31316771   5.653   1.956   7.280  0.9674  0.3460 -0.4414
  151SAPE  H13X16772   5.735   2.014   7.328 -1.0826  1.7317  1.5433
  151SAPE  H13Y16773   5.644   1.866   7.343 -3.3442  0.6836 -0.2988
  151SAPE  C31416774   5.531   2.048   7.293 -0.7003  0.3972 -0.3340
  151SAPE  H14X16775   5.527   2.128   7.216 -0.7741  0.4517 -0.2750
  151SAPE  H14Y16776   5.537   2.096   7.394 -0.5838 -0.1678 -0.0685
  151SAPE  C31516777   5.404   1.972   7.287  0.9844 -0.0506 -0.1032
  151SAPE  H15X16778   5.400   1.893   7.365  0.1046 -0.2693 -0.3509
  151SAPE  H15Y16779   5.395   1.916   7.191 -0.4327  1.7483 -1.0755
  151SAPE  C31616780   5.283   2.074   7.304 -0.5181  0.4928  0.9523
  151SAPE  H16X16781   5.293   2.134   7.396  0.2016 -0.2697  1.3881
  151SAPE  H16Y16782   5.191   2.012   7.309  0.9555 -1.8957  0.1714
  151SAPE  C31716783   5.265   2.169   7.189  0.3212 -0.1507  0.2498
  151SAPE  H17X16784   5.263   2.122   7.088  0.0718 -0.6555  0.4881
  151SAPE  H17Y16785   5.337   2.254   7.190 -0.6177  0.6922 -0.9928
  151SAPE  C31816786   5.130   2.244   7.210  0.0037 -0.2168  0.4069
  151SAPE  H18X16787   5.135   2.318   7.293  1.9936  0.1112  0.0651
  151SAPE  H18Y16788   5.053   2.169   7.236  0.8223 -1.0491  0.4580
  151SAPE  H18Z16789   5.109   2.299   7.116  1.1292  1.9326  1.3354
  152SAPE     N16790   0.975   4.652   5.291 -0.3070  0.0451 -0.1511
  152SAPE   HN116791   0.978   4.573   5.359 -1.4523  0.3643  0.2919
  152SAPE   HN216792   0.935   4.614   5.203 -1.3954  0.3442  0.1990
  152SAPE   HN316793   1.071   4.684   5.269 -0.0641 -0.7064 -0.2183
  152SAPE   C1216794   0.894   4.766   5.349 -0.1001 -0.6626 -0.3355
  152SAPE  H12A16795   0.792   4.729   5.370  0.0847 -0.9228  0.1200
  152SAPE  H12B16796   0.896   4.845   5.271  0.2358  0.9214  1.2122
  152SAPE   C1116797   0.941   4.827   5.490  0.4129  0.5492  0.6287
  152SAPE  H11A16798   0.935   4.755   5.574  1.7298  1.2781  1.3878
  152SAPE  H11B16799   0.870   4.912   5.500 -1.5549 -0.8860 -0.3659
  152SAPE     P16800   1.114   5.012   5.445 -0.0595  0.0368 -0.1437
  152SAPE   O1316801   1.124   5.023   5.296 -0.5928 -0.6471  0.0758
  152SAPE   O1416802   1.027   5.111   5.512 -0.5427 -0.6453 -0.5017
  152SAPE   O1216803   1.078   4.866   5.482  0.2292  0.7940 -0.0993
  152SAPE   O1116804   1.256   5.020   5.505 -0.3707 -0.3448 -0.3257
  152SAPE    C116805   1.313   5.136   5.572  0.9446 -0.2955  0.2133
  152SAPE    HA16806   1.409   5.165   5.524  1.4634  0.9349  1.8883
  152SAPE    HB16807   1.238   5.219   5.574 -1.0626 -1.9735 -1.1071
  152SAPE    C216808   1.338   5.114   5.724  0.2088 -0.0080  0.3964
  152SAPE    HS16809   1.378   5.212   5.759 -0.2731  0.0998  0.6591
  152SAPE   O2116810   1.431   5.001   5.746  0.4500  0.3504 -0.5211
  152SAPE   C2116811   1.554   5.029   5.701  0.6249  0.5246  0.0831
  152SAPE   O2216812   1.585   5.147   5.673  0.3254 -0.5846 -0.0164
  152SAPE   C2216813   1.636   4.902   5.682 -0.7904 -0.0895 -0.2098
  152SAPE   H2R16814   1.572   4.816   5.710 -0.4910 -1.1801 -2.6278
  152SAPE   H2S16815   1.652   4.906   5.572  1.7179  1.6735  0.1201
  152SAPE    C316816   1.210   5.106   5.810  0.0050  0.3099  0.6758
  152SAPE    HX16817   1.177   5.005   5.778  1.6546  0.0700 -0.3829
  152SAPE    HY16818   1.124   5.171   5.784 -1.1283 -1.3588  0.0237
  152SAPE   O3116819   1.247   5.110   5.950  0.1414  0.1618  0.0655
  152SAPE   C3116820   1.179   5.031   6.023 -0.7086 -0.8681 -0.5263
  152SAPE   O3216821   1.086   4.961   5.990 -0.2416  0.4545 -0.6225
  152SAPE   C3216822   1.236   5.033   6.162 -0.1789 -0.0805 -0.6772
  152SAPE   H2X16823   1.245   4.929   6.200 -1.0635  0.2815  0.5518
  152SAPE   H2Y16824   1.161   5.094   6.216  0.9436  1.4362 -0.7830
  152SAPE   C2316825   1.781   4.917   5.745  0.6448  0.3966  0.5172
  152SAPE   H3R16826   1.819   5.016   5.712  0.1677  1.3714  2.6754
  152SAPE   H3S16827   1.847   4.833   5.717 -2.2305 -1.8041 -0.1509
  152SAPE   C2416828   1.776   4.932   5.890 -0.0619  0.2937  0.5537
  152SAPE   H4R16829   1.705   5.008   5.930  1.1545  0.7595  1.8984
  152SAPE   H4S16830   1.874   4.968   5.928  0.9453 -1.9501  0.2634
  152SAPE   C2516831   1.740   4.799   5.953 -0.1297 -0.0659 -0.6094
  152SAPE   H5R16832   1.718   4.712   5.889  0.2710 -0.5725 -0.0632
  152SAPE   C2616833   1.726   4.771   6.082 -0.3214 -0.3197  0.5518
  152SAPE   H6R16834   1.699   4.665   6.092 -1.7772 -0.1413 -0.9539
  152SAPE   C2716835   1.734   4.862   6.200 -0.1975 -0.4891 -0.9042
  152SAPE   H7R16836   1.629   4.875   6.235 -0.2299 -2.0634 -0.3723
  152SAPE   H7S16837   1.771   4.964   6.175  0.1290 -0.6462 -1.0564
  152SAPE   C2816838   1.810   4.783   6.301 -0.1570  0.1703  0.3199
  152SAPE   H8R16839   1.895   4.723   6.267 -0.2952  0.5858 -0.8096
  152SAPE   C2916840   1.781   4.767   6.434 -0.6224  0.9943  0.0835
  152SAPE   H9R16841   1.844   4.694   6.487 -2.4051 -0.4262  0.3165
  152SAPE  C21016842   1.667   4.830   6.513 -0.1295  0.8090  0.1003
  152SAPE  H10R16843   1.576   4.791   6.462  1.1628 -3.4341  0.6067
  152SAPE  H10S16844   1.673   4.940   6.511 -0.0949  0.9936  3.6427
  152SAPE  C21116845   1.661   4.787   6.656  0.6036  0.1576 -0.1873
  152SAPE  H11R16846   1.622   4.686   6.676 -0.5188  1.0159  2.4704
  152SAPE  C21216847   1.716   4.856   6.760 -0.0901 -0.0200  0.3286
  152SAPE  H12R16848   1.714   4.826   6.866 -0.2898  0.3386  0.4283
  152SAPE  C21316849   1.786   4.988   6.748 -0.3239  0.0357  0.0845
  152SAPE  H13R16850   1.706   5.064   6.749  1.2109  1.8874 -2.8809
  152SAPE  H13S16851   1.834   5.009   6.650 -0.4447  1.4231  0.3147
  152SAPE  C21416852   1.885   5.030   6.855  0.2085 -0.6360 -0.1882
  152SAPE  H14R16853   1.961   4.955   6.879  1.2141  0.8615  1.6143
  152SAPE  C21516854   1.875   5.143   6.932 -0.7418  0.5232 -0.1338
  152SAPE  H15R16855   1.965   5.165   6.992 -0.3011 -0.7133 -0.3102
  152SAPE  C21616856   1.774   5.256   6.926  0.0943  0.8720 -0.4413
  152SAPE  H16R16857   1.673   5.217   6.951  0.3489  1.3434  1.4851
  152SAPE  H16S16858   1.778   5.309   6.828 -0.6708  3.2139  0.6964
  152SAPE  C21716859   1.795   5.366   7.028 -0.0361 -0.3029  0.1405
  152SAPE  H17R16860   1.818   5.326   7.129 -0.7798 -3.5055 -0.8239
  152SAPE  H17S16861   1.703   5.427   7.037  0.0563 -0.4850  3.3101
  152SAPE  C21816862   1.908   5.465   6.994  0.2099 -0.0777 -0.0304
  152SAPE  H18R16863   1.872   5.529   6.910 -2.2088 -0.5831  0.5490
  152SAPE  H18S16864   1.986   5.406   6.941 -2.7858 -0.7297 -4.2245
  152SAPE  C21916865   1.965   5.552   7.110  0.0127  0.6182 -0.5463
  152SAPE  H19R16866   2.009   5.479   7.182 -0.3624 -0.3161 -1.2360
  152SAPE  H19S16867   1.872   5.595   7.153  0.4183 -1.1880  2.3851
  152SAPE  C22016868   2.079   5.652   7.080  0.2028  0.4861 -0.5701
  152SAPE  H20R16869   2.158   5.618   7.009 -1.1410 -2.2699 -0.8670
  152SAPE  H20S16870   2.115   5.673   7.183 -1.7330 -0.2545  0.2935
  152SAPE  H20T16871   2.042   5.752   7.047 -0.4405  0.3180 -0.3697
  152SAPE   C3316872   1.371   5.110   6.181  0.4038 -0.1646  0.1503
  152SAPE   H3X16873   1.358   5.218   6.161  0.3693 -0.2626 -0.3652
  152SAPE   H3Y16874   1.448   5.070   6.112  0.4059  0.6351 -0.3233
  152SAPE   C3416875   1.441   5.107   6.319  0.6633 -0.2577  0.6367
  152SAPE   H4X16876   1.534   5.167   6.313  0.2188  0.3179 -1.2568
  152SAPE   H4Y16877   1.469   5.001   6.337  0.1857 -0.2423  1.5583
  152SAPE   C3516878   1.353   5.139   6.436  0.1485  0.1902  0.1955
  152SAPE   H5X16879   1.255   5.090   6.419 -1.1181  2.5657  0.2754
  152SAPE   H5Y16880   1.341   5.249   6.429 -0.3018  0.1577  0.4669
  152SAPE   C3616881   1.410   5.092   6.569 -0.2746  0.7539  0.3688
  152SAPE   H6X16882   1.483   5.172   6.593  0.4895  0.5040 -1.0140
  152SAPE   H6Y16883   1.454   4.993   6.548 -3.6189 -1.3324  2.3473
  152SAPE   C3716884   1.310   5.079   6.681 -0.7833 -0.3646 -0.0895
  152SAPE   H7X16885   1.240   5.001   6.643  0.9236 -0.6503 -3.0131
  152SAPE   H7Y16886   1.248   5.170   6.690 -1.7804 -1.1044  0.7299
  152SAPE   C3816887   1.377   5.050   6.819  0.2339  0.7449  0.4512
  152SAPE   H8X16888   1.341   5.118   6.899  0.6669  0.3694  0.9726
  152SAPE   H8Y16889   1.481   5.084   6.800 -0.0322  0.5035 -1.7470
  152SAPE   C3916890   1.375   4.901   6.859  0.0051  0.7357 -0.6972
  152SAPE   H9X16891   1.437   4.845   6.786  2.0686  0.7681  0.9479
  152SAPE   H9Y16892   1.272   4.865   6.839 -0.5636  1.4463  0.7814
  152SAPE  C31016893   1.434   4.868   7.002 -0.0163 -0.2638 -0.2646
  152SAPE  H10X16894   1.532   4.921   7.000 -0.6644  0.9913 -0.0907
  152SAPE  H10Y16895   1.461   4.762   7.019 -1.0165 -0.3024  1.2783
  152SAPE  C31116896   1.343   4.907   7.115 -0.8372  0.4044  0.1760
  152SAPE  H11X16897   1.237   4.875   7.109 -1.4573  2.3862 -0.0909
  152SAPE  H11Y16898   1.341   5.018   7.113  1.1995  0.4915  0.6428
  152SAPE  C31216899   1.402   4.867   7.253  0.0630  1.0928 -0.4885
  152SAPE  H12X16900   1.409   4.757   7.269  0.9182  1.4090  1.6411
  152SAPE  H12Y16901   1.327   4.894   7.330  1.5335 -1.8277  2.2087
  152SAPE  C31316902   1.533   4.931   7.299  0.0044  0.2030 -0.5715
  152SAPE  H13X16903   1.539   4.909   7.408  0.2172  1.3636 -0.3369
  152SAPE  H13Y16904   1.549   5.041   7.303 -0.0770  0.2658 -1.6697
  152SAPE  C31416905   1.653   4.857   7.239 -0.1565  0.1013  0.3310
  152SAPE  H14X16906   1.681   4.901   7.140  0.6156 -1.1054 -0.0078
  152SAPE  H14Y16907   1.635   4.749   7.225  1.3755 -0.2876  1.1638
  152SAPE  C31516908   1.783   4.873   7.321  0.3317  0.0611  0.0671
  152SAPE  H15X16909   1.771   4.838   7.426 -0.1314 -0.2001 -0.0690
  152SAPE  H15Y16910   1.807   4.982   7.326  1.4306 -0.1936  0.7437
  152SAPE  C31616911   1.902   4.798   7.252 -0.1971 -0.5546 -0.0861
  152SAPE  H16X16912   1.928   4.859   7.163 -3.8791  2.9365  0.9719
  152SAPE  H16Y16913   1.859   4.701   7.220 -0.1384  0.0679 -2.1469
  152SAPE  C31716914   2.027   4.774   7.341  0.5826 -0.0668  0.2020
  152SAPE  H17X16915   1.980   4.711   7.419  1.4289 -0.2717  0.5586
  152SAPE  H17Y16916   2.066   4.858   7.403  0.1865 -0.8914  1.6006
  152SAPE  C31816917   2.140   4.708   7.259  0.1188  0.4989  0.5066
  152SAPE  H18X16918   2.219   4.655   7.317 -0.6950 -0.1010  1.0926
  152SAPE  H18Y16919   2.196   4.781   7.198  0.7312 -2.5158 -2.8881
  152SAPE  H18Z16920   2.098   4.628   7.195 -0.9779 -0.4919  2.3575
  153SAPE     N16921   5.422   4.560   5.764  0.5913 -0.3304  0.2984
  153SAPE   HN116922   5.514   4.552   5.716  0.7997  0.4476  0.5459
  153SAPE   HN216923   5.402   4.463   5.795  0.2312 -0.9523 -1.7216
  153SAPE   HN316924   5.356   4.579   5.686  1.6802  0.4752 -0.4635
  153SAPE   C1216925   5.440   4.659   5.877  0.0617 -0.3985 -1.0232
  153SAPE  H12A16926   5.530   4.630   5.935 -0.5715 -0.9649 -0.3036
  153SAPE  H12B16927   5.358   4.645   5.951 -2.4467  0.8937 -3.3548
  153SAPE   C1116928   5.461   4.814   5.857 -0.0108 -0.1161  0.1998
  153SAPE  H11A16929   5.469   4.856   5.959 -1.3309 -1.4634  0.8957
  153SAPE  H11B16930   5.365   4.853   5.818 -0.8867 -0.3749  1.9821
  153SAPE     P16931   5.653   4.964   5.776 -0.0752 -0.0756 -0.3721
  153SAPE   O1316932   5.791   4.941   5.724 -0.1112  0.0800  0.4708
  153SAPE   O1416933   5.579   5.077   5.714  0.4319 -0.3493  0.2135
  153SAPE   O1216934   5.571   4.833   5.767 -0.3864  0.1343  0.1167
  153SAPE   O1116935   5.651   4.998   5.932 -0.3344  0.2028 -1.3543
  153SAPE    C116936   5.758   4.967   6.013 -0.1579  0.0458 -0.5323
  153SAPE    HA16937   5.854   4.938   5.965  0.4535  0.5029  0.3842
  153SAPE    HB16938   5.795   5.062   6.058  1.0639 -0.8628  0.4585
  153SAPE    C216939   5.738   4.853   6.114 -0.3239 -0.3417 -0.1592
  153SAPE    HS16940   5.752   4.765   6.047 -2.2292 -1.2150  0.5172
  153SAPE   O2116941   5.605   4.857   6.160 -0.4949 -0.6333  0.0066
  153SAPE   C2116942   5.566   4.758   6.231  0.9071  0.4585 -0.0111
  153SAPE   O2216943   5.620   4.649   6.244  0.0384  0.1030  1.0980
  153SAPE   C2216944   5.422   4.789   6.271 -0.6502 -0.1226  0.3374
  153SAPE   H2R16945   5.434   4.893   6.308  0.0134 -1.3860  4.2368
  153SAPE   H2S16946   5.351   4.783   6.186 -0.9537  0.9418  0.5012
  153SAPE    C316947   5.838   4.872   6.231  0.3704  0.5667 -0.3228
  153SAPE    HX16948   5.942   4.852   6.195 -0.6798  1.5934 -4.3936
  153SAPE    HY16949   5.823   4.802   6.316  1.3465  0.9926  0.2145
  153SAPE   O3116950   5.831   5.003   6.284 -0.3993  0.1575 -0.1965
  153SAPE   C3116951   5.744   5.024   6.388 -0.6408 -0.6131  0.3162
  153SAPE   O3216952   5.687   4.933   6.447  0.5701  0.2745  0.5838
  153SAPE   C3216953   5.770   5.165   6.442 -0.1178 -0.3864 -0.6074
  153SAPE   H2X16954   5.676   5.215   6.411 -1.6769 -1.2216  2.3761
  153SAPE   H2Y16955   5.857   5.216   6.395  0.8040 -2.9559 -1.8806
  153SAPE   C2316956   5.372   4.716   6.393  0.9988  0.3928  0.2746
  153SAPE   H3R16957   5.446   4.657   6.450  0.3539 -0.4923  0.2241
  153SAPE   H3S16958   5.300   4.641   6.351  1.7078  0.2750 -0.7800
  153SAPE   C2416959   5.281   4.797   6.488  0.1066 -0.5749  0.2963
  153SAPE   H4R16960   5.242   4.720   6.558 -0.9338 -0.7284 -0.4295
  153SAPE   H4S16961   5.195   4.841   6.433 -0.5468 -1.5399  0.5248
  153SAPE   C2516962   5.352   4.896   6.585  0.1728  1.1354  0.5598
  153SAPE   H5R16963   5.427   4.955   6.532  0.2052  0.3719 -0.2646
  153SAPE   C2616964   5.338   4.904   6.719  0.0716 -0.6148  0.4844
  153SAPE   H6R16965   5.395   4.982   6.772  0.1568 -1.4278  1.6456
  153SAPE   C2716966   5.247   4.815   6.792 -0.1592  0.1331  0.0429
  153SAPE   H7R16967   5.286   4.712   6.776 -0.7395  0.0420 -0.8227
  153SAPE   H7S16968   5.147   4.822   6.745  0.1845  1.0937 -0.5809
  153SAPE   C2816969   5.221   4.856   6.936  0.3130  0.0273 -0.3753
  153SAPE   H8R16970   5.185   4.959   6.949  1.0982  0.2920 -0.2244
  153SAPE   C2916971   5.240   4.790   7.046  0.8200  1.0089  0.0930
  153SAPE   H9R16972   5.202   4.838   7.138 -0.6953 -1.7979  1.0548
  153SAPE  C21016973   5.293   4.651   7.066  0.4663 -0.1512 -0.8436
  153SAPE  H10R16974   5.329   4.615   6.968 -1.2040 -2.9581 -0.5266
  153SAPE  H10S16975   5.213   4.579   7.093 -2.3878  2.7384 -0.9218
  153SAPE  C21116976   5.408   4.647   7.167 -0.1817  0.0799  0.5456
  153SAPE  H11R16977   5.383   4.676   7.270 -1.7775 -1.5375  0.6614
  153SAPE  C21216978   5.536   4.632   7.139  0.0562 -0.2633 -0.2036
  153SAPE  H12R16979   5.607   4.632   7.223 -2.0091 -1.7853  1.6510
  153SAPE  C21316980   5.594   4.601   7.000  0.4274 -0.2733  0.0270
  153SAPE  H13R16981   5.540   4.513   6.961 -1.7210  0.4714  1.1434
  153SAPE  H13S16982   5.702   4.581   7.020  0.1689 -1.2296  0.5070
  153SAPE  C21416983   5.583   4.714   6.893  0.7588  0.7647  0.1404
  153SAPE  H14R16984   5.552   4.813   6.928  2.5488  1.1598  0.6734
  153SAPE  C21516985   5.608   4.683   6.764  0.4960 -0.6383 -1.0523
  153SAPE  H15R16986   5.604   4.760   6.685  2.6623  0.1170 -0.4886
  153SAPE  C21616987   5.642   4.547   6.704 -0.9410  0.3486 -0.0345
  153SAPE  H16R16988   5.568   4.513   6.629  0.6447  0.1315 -1.5541
  153SAPE  H16S16989   5.637   4.465   6.779 -0.4205 -0.0685 -0.4522
  153SAPE  C21716990   5.779   4.541   6.636 -0.1634 -0.3296 -0.0994
  153SAPE  H17R16991   5.788   4.620   6.559 -2.0107  1.4754  1.4525
  153SAPE  H17S16992   5.790   4.441   6.587 -0.2475 -0.2297 -0.3243
  153SAPE  C21816993   5.900   4.552   6.730  0.6207 -0.1930 -0.4539
  153SAPE  H18R16994   5.897   4.644   6.793 -0.7733 -0.5735  0.0706
  153SAPE  H18S16995   5.993   4.564   6.671  1.0704 -1.7253 -0.1125
  153SAPE  C21916996   5.927   4.433   6.814 -0.3878 -0.0123  0.4330
  153SAPE  H19R16997   5.954   4.345   6.752  1.4125 -0.2207  1.4373
  153SAPE  H19S16998   5.845   4.393   6.877 -0.9461  0.4544  0.0105
  153SAPE  C22016999   6.054   4.453   6.895 -0.1517 -0.5428  0.6733
  153SAPE  H20R17000   6.044   4.543   6.959 -1.2438  0.6891 -1.1561
  153SAPE  H20S17001   6.147   4.465   6.836 -0.6510 -0.2074 -0.0713
  153SAPE  H20T17002   6.072   4.369   6.966 -0.3316  1.0537  2.7142
  153SAPE   C3317003   5.777   5.171   6.598 -0.4660  0.5182 -0.2593
  153SAPE   H3X17004   5.866   5.216   6.647 -1.6691  1.3503  1.2847
  153SAPE   H3Y17005   5.800   5.068   6.633  0.1171  1.8212  3.7908
  153SAPE   C3417006   5.646   5.212   6.659  0.0738 -0.2311  0.1695
  153SAPE   H4X17007   5.571   5.145   6.612 -0.4941  0.2433  0.3930
  153SAPE   H4Y17008   5.625   5.319   6.637  2.5598  0.3597  0.3399
  153SAPE   C3517009   5.622   5.196   6.809  0.1320  0.4517 -0.0461
  153SAPE   H5X17010   5.660   5.094   6.833  0.1407 -0.0145 -1.8994
  153SAPE   H5Y17011   5.512   5.199   6.822 -0.0051  0.3845 -1.1520
  153SAPE   C3617012   5.701   5.294   6.899  0.5988 -0.1841 -0.3807
  153SAPE   H6X17013   5.642   5.388   6.898 -1.5788 -1.4918 -1.5295
  153SAPE   H6Y17014   5.807   5.306   6.868  0.6362  1.6431  0.3640
  153SAPE   C3717015   5.705   5.241   7.050  0.1401 -0.2574  0.2949
  153SAPE   H7X17016   5.785   5.297   7.103  0.3890  2.6409 -2.7623
  153SAPE   H7Y17017   5.730   5.133   7.044  0.6891 -0.1073 -0.2759
  153SAPE   C3817018   5.568   5.264   7.125  0.0439 -0.6636  0.2716
  153SAPE   H8X17019   5.473   5.249   7.069 -0.0081 -2.2019  0.7117
  153SAPE   H8Y17020   5.553   5.370   7.153 -1.8929 -1.1857  1.3847
  153SAPE   C3917021   5.557   5.172   7.244 -0.1722 -0.3948 -0.4185
  153SAPE   H9X17022   5.628   5.221   7.314 -0.2239 -1.0501  0.0976
  153SAPE   H9Y17023   5.596   5.074   7.211  1.8587  0.1971  0.0907
  153SAPE  C31017024   5.421   5.157   7.303  0.2174  0.0716  0.0074
  153SAPE  H10X17025   5.434   5.096   7.394 -1.4803  2.6548  2.1129
  153SAPE  H10Y17026   5.357   5.100   7.231  2.2417 -2.5041  0.0860
  153SAPE  C31117027   5.341   5.278   7.373 -0.6857  0.7150 -0.4633
  153SAPE  H11X17028   5.336   5.361   7.300 -1.7779 -0.7718 -2.1839
  153SAPE  H11Y17029   5.400   5.302   7.464  0.9387 -0.1336 -1.2554
  153SAPE  C31217030   5.198   5.230   7.400 -0.1751 -0.4133  0.1889
  153SAPE  H12X17031   5.200   5.127   7.441 -1.3006 -1.3975 -2.0901
  153SAPE  H12Y17032   5.142   5.226   7.304  1.3684  1.9680 -0.8923
  153SAPE  C31317033   5.129   5.326   7.496  0.1193 -0.7207 -0.9536
  153SAPE  H13X17034   5.180   5.335   7.594 -1.3469  0.2865 -0.2354
  153SAPE  H13Y17035   5.030   5.277   7.513  0.4242 -1.9700 -2.5057
  153SAPE  C31417036   5.104   5.468   7.452 -0.2474  0.4904  0.0452
  153SAPE  H14X17037   5.065   5.464   7.348 -1.4388  1.6170  0.4091
  153SAPE  H14Y17038   5.194   5.532   7.444 -0.6140  1.0914  0.6544
  153SAPE  C31517039   4.991   5.527   7.532  0.7048 -0.8060  0.3412
  153SAPE  H15X17040   5.009   5.517   7.641 -0.7705  0.2515  0.7123
  153SAPE  H15Y17041   4.897   5.470   7.515 -1.1284  1.6146  1.7410
  153SAPE  C31617042   4.962   5.680   7.494 -0.3016  0.0278  0.0267
  153SAPE  H16X17043   4.973   5.689   7.384  0.9177 -1.0697  0.0275
  153SAPE  H16Y17044   5.043   5.739   7.541 -1.3058  1.4503  0.0403
  153SAPE  C31717045   4.825   5.733   7.547 -0.3078 -0.0868 -0.6957
  153SAPE  H17X17046   4.759   5.661   7.495  0.4087  0.4992 -2.5074
  153SAPE  H17Y17047   4.809   5.838   7.515 -0.4768 -0.3125 -1.3783
  153SAPE  C31817048   4.803   5.715   7.695  0.1738  0.0743  0.2961
  153SAPE  H18X17049   4.865   5.792   7.745 -1.5285  1.5024  0.3039
  153SAPE  H18Y17050   4.840   5.616   7.728  3.0037  1.2173  0.8343
  153SAPE  H18Z17051   4.693   5.720   7.711 -0.2838 -3.7669 -0.6828
  154SAPE     N17052   0.211   5.859   5.690  0.0866  0.0753 -0.2271
  154SAPE   HN117053   0.305   5.872   5.645  0.4114 -1.4761 -0.0508
  154SAPE   HN217054   0.150   5.821   5.615  1.2585 -1.9763 -0.2138
  154SAPE   HN317055   0.193   5.956   5.722 -1.6956 -0.4703  0.5089
  154SAPE   C1217056   0.230   5.747   5.787  0.0061 -0.1028 -0.0664
  154SAPE  H12A17057   0.236   5.654   5.726  0.8914  0.0273 -0.1925
  154SAPE  H12B17058   0.133   5.742   5.841 -0.2770 -0.5751 -0.6073
  154SAPE   C1117059   0.358   5.773   5.873  0.0110  0.2622  0.5234
  154SAPE  H11A17060   0.373   5.679   5.931 -1.8526 -1.1370 -1.1136
  154SAPE  H11B17061   0.334   5.852   5.947 -1.2430 -1.9262  2.6023
  154SAPE     P17062   0.559   5.670   5.745 -0.0461 -0.1689  0.2254
  154SAPE   O1317063   0.463   5.561   5.705 -0.4181  0.2441 -0.4486
  154SAPE   O1417064   0.649   5.722   5.639  0.0269  0.0422  0.2852
  154SAPE   O1217065   0.473   5.790   5.802  0.4596 -0.0591 -0.2853
  154SAPE   O1117066   0.648   5.617   5.869  0.0641 -0.2772 -0.3342
  154SAPE    C117067   0.723   5.717   5.928 -0.1568 -0.4564  0.3180
  154SAPE    HA17068   0.821   5.720   5.875  0.1956  0.6518  0.9990
  154SAPE    HB17069   0.682   5.819   5.918 -0.8768 -0.7980 -0.2652
  154SAPE    C217070   0.728   5.691   6.081 -0.5540 -0.3716 -0.5178
  154SAPE    HS17071   0.769   5.784   6.125 -1.6446  0.9112 -2.1184
  154SAPE   O2117072   0.815   5.584   6.110 -0.4276  0.0222 -0.2823
  154SAPE   C2117073   0.946   5.599   6.089 -1.2164  0.1413 -0.6555
  154SAPE   O2217074   1.008   5.703   6.056 -0.0462  0.3235 -0.0807
  154SAPE   C2217075   1.005   5.455   6.102  0.3837  0.1207  0.5579
  154SAPE   H2R17076   0.922   5.383   6.087  1.2704 -1.7146  3.5922
  154SAPE   H2S17077   1.073   5.452   6.014  1.7362  0.7920  1.5461
  154SAPE    C317078   0.590   5.663   6.144 -0.1686  0.5579  0.0338
  154SAPE    HX17079   0.547   5.572   6.096  2.1123 -0.5657  0.0026
  154SAPE    HY17080   0.520   5.747   6.124  0.6560  0.8125 -2.0484
  154SAPE   O3117081   0.594   5.630   6.285 -0.3052 -0.1045 -0.2610
  154SAPE   C3117082   0.594   5.734   6.374 -0.6467 -0.2213  0.5296
  154SAPE   O3217083   0.593   5.853   6.348  0.1841 -0.2063  0.3047
  154SAPE   C3217084   0.618   5.676   6.513 -0.1263  0.1958  0.1206
  154SAPE   H2X17085   0.727   5.657   6.507 -0.3245 -0.8329 -0.4673
  154SAPE   H2Y17086   0.562   5.581   6.524 -1.7298  1.2361  1.4493
  154SAPE   C2317087   1.087   5.435   6.233  0.3536 -0.3309 -0.0221
  154SAPE   H3R17088   1.123   5.535   6.265  5.0555 -2.3628  1.9336
  154SAPE   H3S17089   1.175   5.375   6.203 -0.1700 -1.0419 -0.1740
  154SAPE   C2417090   1.019   5.357   6.341 -0.2954  0.6523  0.3497
  154SAPE   H4R17091   1.102   5.329   6.409 -0.1301 -1.3172 -0.5842
  154SAPE   H4S17092   0.994   5.258   6.296  1.2565  1.4879 -2.5804
  154SAPE   C2517093   0.893   5.415   6.403  0.0122  0.3782 -0.5275
  154SAPE   H5R17094   0.817   5.442   6.328  3.2427  2.1511 -3.4554
  154SAPE   C2617095   0.867   5.429   6.533  0.2088  0.0211  0.0574
  154SAPE   H6R17096   0.763   5.452   6.561  1.0797  0.2517  3.6878
  154SAPE   C2717097   0.964   5.392   6.644  0.2417 -0.6620 -0.5327
  154SAPE   H7R17098   1.035   5.316   6.604  0.6866  1.1943 -3.5502
  154SAPE   H7S17099   0.904   5.340   6.722  1.2202 -0.9243  0.0782
  154SAPE   C2817100   1.031   5.524   6.695 -0.1274  0.1326  0.1653
  154SAPE   H8R17101   1.016   5.609   6.627 -1.2292 -0.2471 -0.0914
  154SAPE   C2917102   1.115   5.533   6.794 -0.2857  0.0239 -0.6779
  154SAPE   H9R17103   1.149   5.627   6.842  0.7024 -1.6233  2.0793
  154SAPE  C21017104   1.155   5.420   6.881 -0.2187  0.1179  0.5074
  154SAPE  H10R17105   1.113   5.323   6.846 -2.7050  1.6371 -0.9467
  154SAPE  H10S17106   1.105   5.426   6.980 -0.3408 -1.5965  0.5771
  154SAPE  C21117107   1.306   5.416   6.898 -0.3166  0.1434 -0.2248
  154SAPE  H11R17108   1.372   5.424   6.810 -0.7436 -0.5638 -0.6186
  154SAPE  C21217109   1.372   5.426   7.013  0.0109  0.3137 -0.1782
  154SAPE  H12R17110   1.481   5.420   7.000  0.0076 -0.4826  0.1075
  154SAPE  C21317111   1.318   5.427   7.156  0.1748 -0.2643  0.1363
  154SAPE  H13R17112   1.225   5.487   7.160  0.1834 -0.3061  2.6254
  154SAPE  H13S17113   1.383   5.492   7.218  0.8244  1.8855 -2.5780
  154SAPE  C21417114   1.300   5.293   7.223 -0.2130 -0.5267 -0.0508
  154SAPE  H14R17115   1.238   5.219   7.170 -1.5582 -0.1130  0.9146
  154SAPE  C21517116   1.351   5.251   7.347  0.3665 -0.4724  0.3277
  154SAPE  H15R17117   1.325   5.152   7.386 -3.1525  0.0947 -0.2826
  154SAPE  C21617118   1.434   5.338   7.438 -0.0395 -0.0060  0.3262
  154SAPE  H16R17119   1.422   5.292   7.538  2.0871  1.0132  1.1093
  154SAPE  H16S17120   1.390   5.439   7.428  1.4237  0.6724  0.4184
  154SAPE  C21717121   1.583   5.349   7.394  0.1736  0.4663 -0.0668
  154SAPE  H17R17122   1.587   5.416   7.305  0.7955  0.3151 -0.1636
  154SAPE  H17S17123   1.625   5.249   7.366 -3.7680 -0.8191 -2.0687
  154SAPE  C21817124   1.676   5.404   7.509 -0.2764  0.1444  0.5246
  154SAPE  H18R17125   1.656   5.346   7.602  1.3693 -0.6560  0.4141
  154SAPE  H18S17126   1.648   5.511   7.518 -2.4891 -0.5163  2.5732
  154SAPE  C21917127   1.827   5.387   7.478  0.7609  0.5443  0.3053
  154SAPE  H19R17128   1.850   5.437   7.381  1.3215 -0.9072 -0.3402
  154SAPE  H19S17129   1.846   5.279   7.462 -1.0234  0.1412  0.6678
  154SAPE  C22017130   1.925   5.442   7.583  0.1394  0.0292 -0.6095
  154SAPE  H20R17131   1.921   5.553   7.594  2.0998 -0.0549  1.4795
  154SAPE  H20S17132   2.024   5.406   7.549 -0.5605 -0.4266 -2.2826
  154SAPE  H20T17133   1.911   5.410   7.688 -2.5744 -1.3535 -1.2962
  154SAPE   C3317134   0.576   5.760   6.629  0.2442  0.2101 -0.1143
  154SAPE   H3X17135   0.483   5.816   6.606 -0.1464  1.2699  3.3992
  154SAPE   H3Y17136   0.647   5.843   6.651 -1.6880  1.5715  1.3198
  154SAPE   C3417137   0.560   5.682   6.760  0.0724 -0.3168 -0.0661
  154SAPE   H4X17138   0.482   5.602   6.765 -0.5504  0.3109  0.5873
  154SAPE   H4Y17139   0.516   5.747   6.838  0.9087  1.6991 -1.2035
  154SAPE   C3517140   0.689   5.631   6.815  0.0522 -0.6815 -0.1586
  154SAPE   H5X17141   0.772   5.704   6.819 -0.3016 -0.3396  1.8791
  154SAPE   H5Y17142   0.717   5.536   6.763  2.8461 -0.8891  1.5191
  154SAPE   C3617143   0.668   5.590   6.958  0.8206  0.5591  0.1580
  154SAPE   H6X17144   0.587   5.516   6.973 -0.6782  2.3390  1.3103
  154SAPE   H6Y17145   0.622   5.674   7.014  0.9738 -0.6260  2.1481
  154SAPE   C3717146   0.784   5.513   7.020  0.6869  0.0570 -0.1044
  154SAPE   H7X17147   0.875   5.575   7.034  0.0678  0.5823  1.9774
  154SAPE   H7Y17148   0.814   5.437   6.944 -0.1187  0.5042 -0.8961
  154SAPE   C3817149   0.758   5.453   7.164 -0.2645  0.2476  0.0518
  154SAPE   H8X17150   0.663   5.394   7.158 -0.6616  0.6211  1.9923
  154SAPE   H8Y17151   0.743   5.536   7.237 -0.4938 -1.1748  1.6810
  154SAPE   C3917152   0.862   5.360   7.226 -0.4036 -0.9848  0.0462
  154SAPE   H9X17153   0.822   5.348   7.329 -0.2805  2.6887  0.6602
  154SAPE   H9Y17154   0.960   5.410   7.233 -0.6606 -0.5008  0.2015
  154SAPE  C31017155   0.884   5.224   7.158  0.5205 -0.4591 -0.2935
  154SAPE  H10X17156   0.925   5.251   7.059  0.0826  4.1192  0.5405
  154SAPE  H10Y17157   0.790   5.167   7.140  2.3385 -2.8932 -2.9246
  154SAPE  C31117158   0.981   5.142   7.238 -0.1682  1.0433 -0.0354
  154SAPE  H11X17159   1.055   5.207   7.290  1.6450  0.5518 -1.8450
  154SAPE  H11Y17160   1.047   5.092   7.163 -0.1054  0.4337  0.4265
  154SAPE  C31217161   0.914   5.046   7.333 -0.4347  0.8929  0.7041
  154SAPE  H12X17162   0.996   4.988   7.381  0.2586  0.3645 -1.0149
  154SAPE  H12Y17163   0.869   4.959   7.280 -0.4547 -0.2777  2.5521
  154SAPE  C31317164   0.831   5.096   7.437 -0.0333 -0.8091  0.1920
  154SAPE  H13X17165   0.752   5.158   7.391 -1.6421 -1.1257  2.3644
  154SAPE  H13Y17166   0.892   5.166   7.498  1.3427 -0.9610 -0.9668
  154SAPE  C31417167   0.750   4.991   7.519  0.2833 -0.3146  0.1252
  154SAPE  H14X17168   0.688   5.054   7.585 -1.3987 -0.2541 -1.4307
  154SAPE  H14Y17169   0.821   4.936   7.585  0.4628 -0.0594  0.1447
  154SAPE  C31517170   0.653   4.900   7.446 -0.2371 -0.2526 -0.1165
  154SAPE  H15X17171   0.727   4.845   7.384  1.5279  1.4462  0.3903
  154SAPE  H15Y17172   0.585   4.964   7.385  0.7695  0.4149 -0.5667
  154SAPE  C31617173   0.574   4.805   7.531 -0.0032  0.8275 -0.2653
  154SAPE  H16X17174   0.623   4.772   7.626 -1.8892 -1.8422 -0.0726
  154SAPE  H16Y17175   0.545   4.714   7.475 -3.8033  1.4410  0.4295
  154SAPE  C31717176   0.441   4.868   7.578  0.0584  0.1507  0.0283
  154SAPE  H17X17177   0.391   4.898   7.484  0.6077  0.5144 -0.1537
  154SAPE  H17Y17178   0.472   4.957   7.637  2.0436  0.0557 -0.7632
  154SAPE  C31817179   0.348   4.774   7.649  0.4220  0.2599  0.6832
  154SAPE  H18X17180   0.355   4.676   7.596  0.6927  0.7419 -0.1978
  154SAPE  H18Y17181   0.242   4.806   7.646 -0.4087 -2.1814  1.6951
  154SAPE  H18Z17182   0.379   4.759   7.754  0.4595  1.4608  0.8559
  155SAPE     N17183   2.136   7.155   5.684  0.0603 -0.0659  0.2072
  155SAPE   HN117184   2.095   7.099   5.762 -3.4137 -1.3690 -2.2749
  155SAPE   HN217185   2.050   7.181   5.630 -0.4037  0.2407  1.0713
  155SAPE   HN317186   2.209   7.115   5.622  1.9964  1.1613  1.6080
  155SAPE   C1217187   2.190   7.284   5.723 -0.0108  0.2058 -0.0932
  155SAPE  H12A17188   2.141   7.313   5.819 -0.0979 -0.8197  0.1805
  155SAPE  H12B17189   2.156   7.352   5.642  0.8451 -1.3257 -1.7956
  155SAPE   C1117190   2.345   7.274   5.724  0.2709  0.7338 -0.0746
  155SAPE  H11A17191   2.371   7.231   5.823  0.9300  1.7312  0.2077
  155SAPE  H11B17192   2.391   7.375   5.716  1.3220  0.3196  0.3960
  155SAPE     P17193   2.552   7.179   5.613  0.1714 -0.0456  0.3351
  155SAPE   O1317194   2.587   7.061   5.535  0.1484 -0.0241  0.6238
  155SAPE   O1417195   2.609   7.302   5.563 -0.6431  0.4959 -0.2640
  155SAPE   O1217196   2.393   7.197   5.617 -0.3389 -0.3118 -0.0722
  155SAPE   O1117197   2.597   7.158   5.764  0.5155  0.2725 -0.3301
  155SAPE    C117198   2.660   7.034   5.800  0.6607  0.3100 -0.4340
  155SAPE    HA17199   2.746   7.017   5.732  1.6164 -3.1336  1.4075
  155SAPE    HB17200   2.693   7.046   5.905  1.2988 -3.2694 -0.1221
  155SAPE    C217201   2.566   6.909   5.804 -0.9089  0.6265 -0.4403
  155SAPE    HS17202   2.505   6.908   5.711 -0.3107  2.5445 -0.9125
  155SAPE   O2117203   2.487   6.923   5.930 -0.1491 -0.4626  0.1448
  155SAPE   C2117204   2.407   6.823   5.949 -0.4299  0.1969 -0.2093
  155SAPE   O2217205   2.386   6.733   5.871  0.4821  0.2018 -0.4171
  155SAPE   C2217206   2.329   6.852   6.083  0.3621  0.1149 -0.4357
  155SAPE   H2R17207   2.386   6.912   6.156 -0.3877 -0.1503  0.3848
  155SAPE   H2S17208   2.239   6.905   6.047  0.2958  1.5330  1.6777
  155SAPE    C317209   2.656   6.777   5.801 -0.3030 -0.1950 -0.0087
  155SAPE    HX17210   2.736   6.793   5.726  1.4180 -0.3765  1.7040
  155SAPE    HY17211   2.599   6.692   5.757  0.0194  0.0353 -0.8797
  155SAPE   O3117212   2.711   6.736   5.927  0.8710 -0.0263 -0.1551
  155SAPE   C3117213   2.826   6.796   5.955 -0.7946  1.0873 -0.5984
  155SAPE   O3217214   2.893   6.856   5.878  0.0277 -0.0006 -0.5030
  155SAPE   C3217215   2.862   6.784   6.100 -0.2136  0.6076 -0.3493
  155SAPE   H2X17216   2.970   6.808   6.102  0.0027  0.2546 -3.3663
  155SAPE   H2Y17217   2.848   6.679   6.132 -1.0149 -0.0579 -2.7215
  155SAPE   C2317218   2.284   6.715   6.152  0.2299  0.0724  0.3451
  155SAPE   H3R17219   2.227   6.648   6.084 -0.8054 -1.6584  2.7973
  155SAPE   H3S17220   2.204   6.741   6.224  0.6351  1.4718  0.3166
  155SAPE   C2417221   2.397   6.627   6.209 -0.1276 -0.6576 -0.5279
  155SAPE   H4R17222   2.491   6.624   6.149  1.1831  2.0077  1.1853
  155SAPE   H4S17223   2.351   6.526   6.212 -1.3120 -0.1684 -1.4120
  155SAPE   C2517224   2.434   6.688   6.347 -0.2676  0.5630  0.6576
  155SAPE   H5R17225   2.407   6.791   6.374 -1.7193  0.9866 -2.0412
  155SAPE   C2617226   2.469   6.605   6.446 -0.2385  0.1202  0.5117
  155SAPE   H6R17227   2.512   6.645   6.539 -0.5432  0.8375  0.3481
  155SAPE   C2717228   2.492   6.459   6.435 -0.4422 -0.2348  0.4081
  155SAPE   H7R17229   2.590   6.435   6.481 -0.7187 -0.2070  1.0225
  155SAPE   H7S17230   2.508   6.430   6.329  2.4204  1.0800  0.3938
  155SAPE   C2817231   2.374   6.391   6.490  0.2252  0.5092 -0.5382
  155SAPE   H8R17232   2.280   6.395   6.433 -0.8440 -4.0391  0.5259
  155SAPE   C2917233   2.378   6.319   6.607 -0.2117 -0.0536 -0.4710
  155SAPE   H9R17234   2.285   6.265   6.633  0.6233 -1.9180 -1.1739
  155SAPE  C21017235   2.494   6.278   6.695  0.0396  0.0914 -0.2911
  155SAPE  H10R17236   2.580   6.271   6.624  0.4322 -0.9661  0.2609
  155SAPE  H10S17237   2.471   6.181   6.745  0.9901 -0.5048 -0.9690
  155SAPE  C21117238   2.537   6.390   6.788 -0.4850 -0.7443 -0.0225
  155SAPE  H11R17239   2.545   6.484   6.731 -1.5712 -1.3194 -1.1788
  155SAPE  C21217240   2.552   6.391   6.917  0.0009  0.2585 -0.1686
  155SAPE  H12R17241   2.596   6.483   6.959  0.8567 -0.3278  0.2572
  155SAPE  C21317242   2.531   6.272   7.009 -0.2207  0.2658  0.8340
  155SAPE  H13R17243   2.625   6.213   7.018 -0.8070 -0.5825  1.5163
  155SAPE  H13S17244   2.474   6.192   6.958  3.2358 -0.8288 -1.7703
  155SAPE  C21417245   2.489   6.310   7.149  0.0796  0.2595 -0.3186
  155SAPE  H14R17246   2.392   6.362   7.153 -0.8872 -1.2675 -2.4315
  155SAPE  C21517247   2.547   6.269   7.260 -0.3534 -0.2810 -0.0379
  155SAPE  H15R17248   2.505   6.294   7.358 -0.8158 -2.2313  0.3015
  155SAPE  C21617249   2.660   6.175   7.271 -0.4700  0.6434  0.7341
  155SAPE  H16R17250   2.755   6.231   7.261 -0.5718  0.9106  1.2076
  155SAPE  H16S17251   2.665   6.098   7.191  0.2819  2.1248 -0.6945
  155SAPE  C21717252   2.639   6.094   7.398  0.7121  0.6133  0.3177
  155SAPE  H17R17253   2.718   6.015   7.400  0.7824  0.6496 -0.7481
  155SAPE  H17S17254   2.534   6.059   7.406  1.1852 -0.6605  1.3913
  155SAPE  C21817255   2.658   6.182   7.521 -0.0544  0.1414  0.2335
  155SAPE  H18R17256   2.556   6.216   7.552 -2.3981 -2.2351 -3.9286
  155SAPE  H18S17257   2.722   6.269   7.497 -0.0673 -0.3774 -1.8351
  155SAPE  C21917258   2.704   6.107   7.649 -0.2753  0.0095  1.1330
  155SAPE  H19R17259   2.805   6.062   7.644 -0.5750 -0.5525 -0.5652
  155SAPE  H19S17260   2.640   6.017   7.659  1.9127 -1.4765  2.6105
  155SAPE  C22017261   2.693   6.194   7.771  0.0599 -0.2468 -0.6946
  155SAPE  H20R17262   2.690   6.125   7.858  0.8120  0.3416 -0.1913
  155SAPE  H20S17263   2.596   6.249   7.771  0.4844  0.5221  0.9093
  155SAPE  H20T17264   2.780   6.261   7.788 -1.3250  1.2654  0.7472
  155SAPE   C3317265   2.789   6.894   6.176  0.4854  0.1818 -0.0938
  155SAPE   H3X17266   2.681   6.869   6.179 -0.0239  2.2411  0.1517
  155SAPE   H3Y17267   2.797   6.996   6.133  1.0206  0.5672  0.8926
  155SAPE   C3417268   2.836   6.907   6.317  0.2056  0.2528  0.0513
  155SAPE   H4X17269   2.787   6.988   6.375  3.0787  1.9810  0.3002
  155SAPE   H4Y17270   2.937   6.952   6.329 -0.2900  1.5216 -0.3550
  155SAPE   C3517271   2.827   6.777   6.397  0.2700  0.5193  0.9985
  155SAPE   H5X17272   2.903   6.700   6.371 -0.6845 -0.4892  1.1727
  155SAPE   H5Y17273   2.736   6.724   6.363  1.2270 -0.1788 -0.6094
  155SAPE   C3617274   2.844   6.804   6.543 -0.4084 -0.1570  0.0475
  155SAPE   H6X17275   2.763   6.873   6.575 -0.4335 -0.0921 -0.1541
  155SAPE   H6Y17276   2.938   6.860   6.562  0.3066 -1.1083 -0.6096
  155SAPE   C3717277   2.856   6.668   6.607 -0.2542  0.1558  0.0868
  155SAPE   H7X17278   2.940   6.609   6.565  0.5533 -1.2211  3.2896
  155SAPE   H7Y17279   2.765   6.608   6.586  0.9534 -2.5899  2.1154
  155SAPE   C3817280   2.875   6.681   6.754 -0.1001 -0.3816  0.0032
  155SAPE   H8X17281   2.791   6.741   6.794  0.7605  1.1286 -0.3804
  155SAPE   H8Y17282   2.967   6.738   6.779  0.7296 -1.9263  0.5864
  155SAPE   C3917283   2.895   6.547   6.830  1.1354  0.0427  1.2796
  155SAPE   H9X17284   2.977   6.493   6.778  2.8068  2.5788  1.0689
  155SAPE   H9Y17285   2.808   6.480   6.814  1.0803  0.1127  1.2807
  155SAPE  C31017286   2.945   6.559   6.978 -0.2562 -0.3955 -0.0325
  155SAPE  H10X17287   2.868   6.615   7.035  1.1948  1.0711  0.5616
  155SAPE  H10Y17288   3.032   6.628   6.985  0.3561 -1.0443 -1.0702
  155SAPE  C31117289   2.992   6.430   7.043 -0.9081  0.8923  0.0528
  155SAPE  H11X17290   3.088   6.389   7.005 -0.8991 -0.0347  1.0486
  155SAPE  H11Y17291   2.906   6.365   7.018  0.7430 -1.2101 -0.4018
  155SAPE  C31217292   3.010   6.448   7.193 -0.9430 -0.5847 -0.5897
  155SAPE  H12X17293   2.917   6.492   7.236 -0.0202 -0.0208  0.9407
  155SAPE  H12Y17294   3.088   6.526   7.204 -0.9836 -0.3538 -1.8495
  155SAPE  C31317295   3.071   6.326   7.277 -0.5170 -0.0755 -0.6936
  155SAPE  H13X17296   3.172   6.294   7.243 -0.6197 -0.1066 -0.9715
  155SAPE  H13Y17297   3.011   6.233   7.270 -3.1570  1.0910  3.2482
  155SAPE  C31417298   3.081   6.357   7.422 -0.1770  0.3511 -0.4809
  155SAPE  H14X17299   2.984   6.371   7.475 -0.0174 -0.3149  0.0043
  155SAPE  H14Y17300   3.133   6.455   7.428  1.6741 -0.5136 -1.5794
  155SAPE  C31517301   3.172   6.259   7.498 -0.0400  0.4408 -0.1355
  155SAPE  H15X17302   3.275   6.269   7.459 -0.2138  0.2429 -0.6532
  155SAPE  H15Y17303   3.141   6.156   7.471  0.2484  0.7083 -1.5608
  155SAPE  C31617304   3.172   6.289   7.649 -0.7364 -0.0309 -0.4808
  155SAPE  H16X17305   3.073   6.272   7.695 -0.1397 -0.0458  0.8496
  155SAPE  H16Y17306   3.192   6.397   7.662 -0.2512 -0.2571  0.9358
  155SAPE  C31717307   3.285   6.220   7.720 -0.4890  0.8317 -0.4654
  155SAPE  H17X17308   3.378   6.277   7.696  1.4232 -1.8871  0.0489
  155SAPE  H17Y17309   3.293   6.116   7.682  0.9821  0.2404  1.2844
  155SAPE  C31817310   3.274   6.205   7.880  0.1059 -0.0131 -0.1893
  155SAPE  H18X17311   3.166   6.184   7.898  0.2420 -1.2443 -0.7672
  155SAPE  H18Y17312   3.317   6.293   7.932 -1.3780  1.1371 -0.8075
  155SAPE  H18Z17313   3.322   6.115   7.923  2.1255  1.3425  0.5503
  156SAPE     N17314   0.809   5.861   5.490  0.0407 -0.3763  0.0118
  156SAPE   HN117315   0.777   5.877   5.392 -0.2730 -0.1940  0.1426
  156SAPE   HN217316   0.741   5.802   5.542  0.7989  0.0468  1.5365
  156SAPE   HN317317   0.785   5.949   5.541  1.9258 -0.6167  1.3965
  156SAPE   C1217318   0.945   5.830   5.503  1.1187 -0.3121 -0.3272
  156SAPE  H12A17319   1.010   5.896   5.441  2.8486 -0.3539  1.3260
  156SAPE  H12B17320   0.971   5.730   5.464 -0.3297 -0.4207 -1.0646
  156SAPE   C1117321   0.990   5.860   5.649  0.8808  0.1510 -0.0812
  156SAPE  H11A17322   1.101   5.856   5.650  0.9413  0.2600  3.0765
  156SAPE  H11B17323   0.963   5.776   5.716 -0.6668  1.8128  1.5356
  156SAPE     P17324   1.012   6.116   5.703 -0.0840  0.0735 -0.4868
  156SAPE   O1317325   1.036   6.146   5.563  0.1342  0.1978 -0.4948
  156SAPE   O1417326   0.940   6.219   5.778 -0.0329 -0.0850 -0.8200
  156SAPE   O1217327   0.930   5.985   5.707 -0.3908 -0.5118 -0.1268
  156SAPE   O1117328   1.152   6.073   5.766 -0.8128 -0.0631 -0.1545
  156SAPE    C117329   1.175   6.072   5.912 -0.4594 -0.0251 -0.5568
  156SAPE    HA17330   1.095   6.117   5.973 -0.8323  1.5855 -2.1540
  156SAPE    HB17331   1.173   5.963   5.933 -0.0334 -0.4803 -2.5736
  156SAPE    C217332   1.311   6.133   5.961  0.8607 -0.2427  0.7737
  156SAPE    HS17333   1.394   6.080   5.909 -0.8387 -1.6633 -0.6193
  156SAPE   O2117334   1.317   6.105   6.101 -0.0517 -0.2501 -0.1546
  156SAPE   C2117335   1.442   6.105   6.152  0.7256  0.0087 -0.1429
  156SAPE   O2217336   1.547   6.119   6.093  0.2613 -0.4618 -0.1148
  156SAPE   C2217337   1.423   6.061   6.304 -0.2752  0.3843 -0.0274
  156SAPE   H2R17338   1.315   6.069   6.327 -0.0921  0.8354  0.7363
  156SAPE   H2S17339   1.455   5.956   6.294  2.2142  0.9687  0.9504
  156SAPE    C317340   1.316   6.282   5.914 -0.3431 -0.1293  0.1454
  156SAPE    HX17341   1.303   6.304   5.806  2.4822  0.3016 -0.1964
  156SAPE    HY17342   1.416   6.327   5.932 -0.4867  0.4417 -0.4693
  156SAPE   O3117343   1.214   6.348   5.989 -0.1765  0.6611 -0.1176
  156SAPE   C3117344   1.250   6.409   6.102 -0.3162  0.1488  0.5099
  156SAPE   O3217345   1.364   6.429   6.139 -0.1183  0.1134 -0.2197
  156SAPE   C3217346   1.115   6.459   6.157 -0.4536 -0.9134 -0.3598
  156SAPE   H2X17347   1.044   6.464   6.071 -0.3743 -1.4689 -0.4647
  156SAPE   H2Y17348   1.132   6.566   6.178 -2.0204 -0.4672 -1.2167
  156SAPE   C2317349   1.522   6.108   6.414 -0.1290 -1.1966 -0.2203
  156SAPE   H3R17350   1.629   6.095   6.386 -0.0997  0.4018 -0.9815
  156SAPE   H3S17351   1.504   6.057   6.511  1.0344  0.7900  1.0878
  156SAPE   C2417352   1.509   6.257   6.448 -0.4580 -0.5862  0.0220
  156SAPE   H4R17353   1.403   6.276   6.474 -0.6463  4.1352 -2.9083
  156SAPE   H4S17354   1.540   6.316   6.359 -1.7416 -0.1641 -0.1650
  156SAPE   C2517355   1.589   6.315   6.562 -0.2981  0.5484 -0.3717
  156SAPE   H5R17356   1.678   6.372   6.532 -0.2285 -0.4762 -2.2222
  156SAPE   C2617357   1.564   6.306   6.690 -0.0612 -0.5370  0.0623
  156SAPE   H6R17358   1.621   6.366   6.762  0.0588 -0.5585 -0.0149
  156SAPE   C2717359   1.451   6.231   6.754 -0.1559 -0.1269 -0.0686
  156SAPE   H7R17360   1.432   6.136   6.700 -1.1316  0.0980 -0.1465
  156SAPE   H7S17361   1.357   6.292   6.752 -0.0192  0.1209  0.7077
  156SAPE   C2817362   1.479   6.196   6.894 -0.5734 -0.0249  0.0369
  156SAPE   H8R17363   1.586   6.172   6.910 -0.1587  0.1905 -2.1180
  156SAPE   C2917364   1.385   6.199   6.990  0.3610  0.3771  0.3853
  156SAPE   H9R17365   1.407   6.158   7.090 -1.5697 -2.5991 -0.2871
  156SAPE  C21017366   1.239   6.229   6.975  0.5412 -0.2092 -0.0046
  156SAPE  H10R17367   1.196   6.136   7.018  0.8974 -1.0741 -1.4467
  156SAPE  H10S17368   1.197   6.236   6.872 -0.1898 -1.2209  0.2144
  156SAPE  C21117369   1.186   6.350   7.054 -0.0884  0.3794  0.4239
  156SAPE  H11R17370   1.149   6.436   6.997  0.6697  1.0826  0.9634
  156SAPE  C21217371   1.191   6.362   7.190 -0.7142 -0.2004 -0.4080
  156SAPE  H12R17372   1.147   6.453   7.234 -2.1708 -1.7532  1.5484
  156SAPE  C21317373   1.231   6.277   7.306  0.3187  0.9511  0.8743
  156SAPE  H13R17374   1.305   6.335   7.366 -0.4863  0.9114  1.9319
  156SAPE  H13S17375   1.283   6.185   7.272  1.7626  2.5333 -1.4857
  156SAPE  C21417376   1.113   6.234   7.388 -0.3650  1.0574  0.2186
  156SAPE  H14R17377   1.015   6.250   7.341  1.0903  2.9152 -2.4777
  156SAPE  C21517378   1.126   6.186   7.514  0.4202 -0.3043  0.4530
  156SAPE  H15R17379   1.034   6.179   7.575 -1.3399  0.3403 -1.9591
  156SAPE  C21617380   1.256   6.171   7.581 -0.6258 -0.1011 -0.3062
  156SAPE  H16R17381   1.280   6.255   7.649  1.1882 -0.9000  0.0992
  156SAPE  H16S17382   1.344   6.171   7.513  0.6697 -1.0277  1.3121
  156SAPE  C21717383   1.250   6.042   7.667  0.4812  0.5640 -0.7604
  156SAPE  H17R17384   1.239   5.955   7.599  1.6077 -1.6845  1.7217
  156SAPE  H17S17385   1.163   6.047   7.736  0.0655  1.6614 -1.3458
  156SAPE  C21817386   1.375   6.008   7.756  0.0841  0.1051 -0.0323
  156SAPE  H18R17387   1.472   6.028   7.706  1.8441 -2.7885  1.8700
  156SAPE  H18S17388   1.369   5.898   7.773 -1.4543  0.3683  1.4500
  156SAPE  C21917389   1.357   6.080   7.899 -0.5002 -0.5469  0.4569
  156SAPE  H19R17390   1.281   6.029   7.961  1.9900  0.7311  5.0201
  156SAPE  H19S17391   1.330   6.185   7.875 -0.2956 -0.1688  1.8142
  156SAPE  C22017392   1.491   6.085   7.981  0.5112  0.0548  0.4361
  156SAPE  H20R17393   1.467   6.124   8.083  0.8599  2.6933 -0.4166
  156SAPE  H20S17394   1.563   6.156   7.935  2.2508 -0.2092  2.5479
  156SAPE  H20T17395   1.535   5.983   7.986 -1.3193 -0.7950  0.0752
  156SAPE   C3317396   1.070   6.374   6.280 -1.0850 -0.1896 -0.2965
  156SAPE   H3X17397   0.988   6.429   6.331 -0.7520 -0.8811  1.0292
  156SAPE   H3Y17398   1.147   6.359   6.359 -0.0232 -1.5210 -1.5096
  156SAPE   C3417399   1.031   6.230   6.240 -0.1164  0.3409  0.4574
  156SAPE   H4X17400   1.106   6.170   6.185 -0.7422 -0.7618  0.7854
  156SAPE   H4Y17401   0.943   6.224   6.172 -0.0896 -2.0999  0.5825
  156SAPE   C3517402   0.984   6.136   6.355 -1.0554 -0.4206 -0.4130
  156SAPE   H5X17403   0.878   6.161   6.378 -0.5597 -0.1381  1.8678
  156SAPE   H5Y17404   1.053   6.157   6.440 -2.1491  0.5086  0.2723
  156SAPE   C3617405   0.981   5.984   6.325  0.4493 -0.0148 -0.1324
  156SAPE   H6X17406   1.072   5.955   6.267 -1.0857 -0.4305 -2.4482
  156SAPE   H6Y17407   0.896   5.967   6.257 -1.4480  3.0796  1.2111
  156SAPE   C3717408   0.956   5.895   6.452  0.2948  0.1634  0.1907
  156SAPE   H7X17409   0.952   5.791   6.413  0.9178  0.3098 -0.2778
  156SAPE   H7Y17410   0.873   5.930   6.516  1.3835  0.3842  1.5130
  156SAPE   C3817411   1.064   5.884   6.552  0.2157  0.2508  0.1664
  156SAPE   H8X17412   1.022   5.844   6.647 -3.5147 -0.5305 -1.6280
  156SAPE   H8Y17413   1.098   5.985   6.582  3.2944 -0.1950 -1.4195
  156SAPE   C3917414   1.193   5.803   6.518  0.1234  0.2743 -0.1945
  156SAPE   H9X17415   1.242   5.836   6.424  0.6923  1.1473  0.3895
  156SAPE   H9Y17416   1.162   5.698   6.501 -1.3003  0.4188  1.2799
  156SAPE  C31017417   1.299   5.811   6.628 -0.0683 -0.2547 -0.1114
  156SAPE  H10X17418   1.259   5.800   6.731  0.4994  0.8074  0.2356
  156SAPE  H10Y17419   1.347   5.911   6.622  0.8067 -0.5815  1.1902
  156SAPE  C31117420   1.421   5.721   6.601  0.4282 -0.6591  0.3625
  156SAPE  H11X17421   1.467   5.779   6.518 -2.3399  1.1474 -0.0526
  156SAPE  H11Y17422   1.393   5.620   6.566  1.3578 -1.3048  1.4177
  156SAPE  C31217423   1.518   5.701   6.724 -0.8648 -0.4849 -0.1594
  156SAPE  H12X17424   1.593   5.625   6.695  1.2531  2.2595 -2.5330
  156SAPE  H12Y17425   1.462   5.675   6.816 -2.5042  1.6783 -0.4613
  156SAPE  C31317426   1.605   5.828   6.762  0.6534 -0.4631  0.2455
  156SAPE  H13X17427   1.529   5.909   6.765  1.7083  0.5384  0.5214
  156SAPE  H13Y17428   1.678   5.846   6.680  1.9468  0.5362  1.5588
  156SAPE  C31417429   1.684   5.808   6.895 -0.4673  0.2631 -0.4022
  156SAPE  H14X17430   1.770   5.878   6.898 -1.4445  1.6165 -2.1727
  156SAPE  H14Y17431   1.719   5.702   6.888 -1.3404  0.0414 -1.9375
  156SAPE  C31517432   1.602   5.828   7.019  0.2058  0.1727  0.3164
  156SAPE  H15X17433   1.518   5.756   7.029 -0.9523  0.9941 -2.5861
  156SAPE  H15Y17434   1.543   5.920   7.002  0.3843  0.2320  0.0031
  156SAPE  C31617435   1.675   5.811   7.153  0.7055  0.0289 -0.4583
  156SAPE  H16X17436   1.759   5.883   7.160  0.2385  0.5354  0.2103
  156SAPE  H16Y17437   1.701   5.705   7.173 -0.6139  0.0562  1.7757
  156SAPE  C31717438   1.587   5.846   7.277 -0.3311  0.6657 -0.4894
  156SAPE  H17X17439   1.648   5.827   7.368 -0.9273  1.0971  0.0033
  156SAPE  H17Y17440   1.506   5.770   7.286  0.8656 -0.5004  0.8222
  156SAPE  C31817441   1.534   5.994   7.273  0.0527  0.7823 -1.0102
  156SAPE  H18X17442   1.504   6.033   7.373  0.5228  0.4427 -0.7324
  156SAPE  H18Y17443   1.445   5.987   7.207 -0.5174  1.9658 -0.3988
  156SAPE  H18Z17444   1.609   6.060   7.226  0.1525  1.5547  0.2083
  157SAPE     N17445   5.170   1.258   5.457 -0.1060  0.7664  0.1002
  157SAPE   HN117446   5.254   1.308   5.492  0.5478 -1.1573  1.4368
  157SAPE   HN217447   5.191   1.225   5.361 -0.1386 -2.7748  1.1706
  157SAPE   HN317448   5.095   1.329   5.449 -0.3671  0.2957 -3.0127
  157SAPE   C1217449   5.143   1.145   5.552 -0.8587 -1.0277 -0.0683
  157SAPE  H12A17450   5.132   1.192   5.652  0.3272 -1.2931  0.2049
  157SAPE  H12B17451   5.240   1.092   5.562  0.4172  1.3323  0.7114
  157SAPE   C1117452   5.020   1.063   5.521 -0.3682 -0.2061  0.7581
  157SAPE  H11A17453   4.996   1.093   5.417  1.9411  0.6685  0.4022
  157SAPE  H11B17454   4.941   1.088   5.595  0.0692 -0.5775  1.3678
  157SAPE     P17455   5.038   0.836   5.658 -0.4076 -0.8864 -0.0149
  157SAPE   O1317456   4.895   0.836   5.692 -0.4598  0.3590  0.0327
  157SAPE   O1417457   5.103   0.718   5.614  0.4604  0.2596  0.2797
  157SAPE   O1217458   5.047   0.924   5.527  0.4125 -0.0830 -0.8427
  157SAPE   O1117459   5.127   0.918   5.753 -0.1567 -0.4855 -0.3924
  157SAPE    C117460   5.263   0.899   5.786  0.0217  1.0307  0.2233
  157SAPE    HA17461   5.299   0.804   5.742 -0.3952  0.3442  1.3377
  157SAPE    HB17462   5.317   0.980   5.733 -0.8633  0.9986 -0.7675
  157SAPE    C217463   5.294   0.902   5.935 -0.2634  0.2274 -0.2319
  157SAPE    HS17464   5.404   0.902   5.956 -0.3835 -1.5607  0.5683
  157SAPE   O2117465   5.232   0.784   5.992  0.7845  0.5590 -1.0224
  157SAPE   C2117466   5.286   0.731   6.102 -1.1001  0.2431  0.3277
  157SAPE   O2217467   5.392   0.765   6.157  0.2282  0.5372  0.0047
  157SAPE   C2217468   5.189   0.632   6.160 -0.0925 -0.5486  0.1827
  157SAPE   H2R17469   5.171   0.675   6.262  1.4003  2.0123 -0.5455
  157SAPE   H2S17470   5.094   0.641   6.104 -0.0419  1.3293  0.3072
  157SAPE    C317471   5.251   1.038   5.991  1.1072 -0.0180 -0.3394
  157SAPE    HX17472   5.146   1.064   5.966  0.6556  0.1602  1.5783
  157SAPE    HY17473   5.322   1.113   5.950  1.9013 -0.4085  0.3095
  157SAPE   O3117474   5.252   1.039   6.138  0.1115 -0.0299 -0.4781
  157SAPE   C3117475   5.362   1.092   6.197  0.0475  0.2290  1.2478
  157SAPE   O3217476   5.448   1.152   6.131 -0.6444  0.2277 -0.3135
  157SAPE   C3217477   5.365   1.055   6.341  0.1212 -0.2506 -0.1032
  157SAPE   H2X17478   5.323   0.954   6.363 -0.8368 -0.3922 -2.2723
  157SAPE   H2Y17479   5.306   1.136   6.388  2.0226  0.6897  0.7863
  157SAPE   C2317480   5.251   0.487   6.161  0.1008 -0.5976 -0.3182
  157SAPE   H3R17481   5.286   0.480   6.056  0.8342 -0.6658 -0.0750
  157SAPE   H3S17482   5.176   0.407   6.182 -0.6313  0.3261  0.7101
  157SAPE   C2417483   5.366   0.467   6.266  0.8004 -0.0686  0.0945
  157SAPE   H4R17484   5.435   0.553   6.260  0.7767 -0.0268  0.4025
  157SAPE   H4S17485   5.417   0.372   6.239  0.0302 -0.1449 -1.1822
  157SAPE   C2517486   5.300   0.432   6.401  0.3964 -0.1719  0.2535
  157SAPE   H5R17487   5.209   0.370   6.391  0.9404 -0.7828 -1.1516
  157SAPE   C2617488   5.331   0.480   6.523  0.0328 -0.3372  0.1867
  157SAPE   H6R17489   5.275   0.438   6.608  1.0552 -0.2009  0.9478
  157SAPE   C2717490   5.443   0.583   6.543  0.7003  0.2913  0.1894
  157SAPE   H7R17491   5.491   0.616   6.448 -0.0466  3.2574  0.7210
  157SAPE   H7S17492   5.526   0.542   6.604  1.3221 -1.0765 -1.5115
  157SAPE   C2817493   5.397   0.715   6.603  0.3708  0.1235  0.2775
  157SAPE   H8R17494   5.386   0.801   6.536  1.1231 -0.9183 -1.2155
  157SAPE   C2917495   5.376   0.731   6.731 -0.2558 -0.2761 -0.7155
  157SAPE   H9R17496   5.353   0.827   6.780  0.5395 -0.2401 -0.3987
  157SAPE  C21017497   5.405   0.630   6.835  0.6837  0.3141  0.7622
  157SAPE  H10R17498   5.464   0.543   6.802  1.1763  0.6560  0.7298
  157SAPE  H10S17499   5.315   0.576   6.871  0.1882  0.6637  0.0709
  157SAPE  C21117500   5.485   0.678   6.950  0.7296 -0.6776  0.1155
  157SAPE  H11R17501   5.592   0.695   6.929  0.3860  0.2161 -0.9976
  157SAPE  C21217502   5.437   0.685   7.075  0.8178 -0.4513  0.0133
  157SAPE  H12R17503   5.496   0.733   7.155  1.8006 -0.3982 -0.7334
  157SAPE  C21317504   5.292   0.664   7.120 -0.5518  0.6842  0.2664
  157SAPE  H13R17505   5.235   0.654   7.025  0.8003 -2.2241 -0.3565
  157SAPE  H13S17506   5.246   0.760   7.150  0.4038  1.2869 -0.1278
  157SAPE  C21417507   5.270   0.540   7.208  0.0436 -0.6197  0.5131
  157SAPE  H14R17508   5.249   0.458   7.138  3.3883 -1.0019 -0.1674
  157SAPE  C21517509   5.265   0.532   7.342 -0.3383  0.4830 -0.1523
  157SAPE  H15R17510   5.236   0.434   7.385  0.1340  0.8315  1.0051
  157SAPE  C21617511   5.280   0.650   7.441 -0.1924  0.4062 -0.2987
  157SAPE  H16R17512   5.184   0.692   7.479  0.3002  0.5349  0.8441
  157SAPE  H16S17513   5.331   0.735   7.391 -0.9759  0.5459 -0.8801
  157SAPE  C21717514   5.371   0.623   7.556 -0.3459  0.0301 -0.7642
  157SAPE  H17R17515   5.412   0.721   7.590 -0.8552  0.3821 -1.1559
  157SAPE  H17S17516   5.470   0.584   7.525  0.2923  0.3234  0.7699
  157SAPE  C21817517   5.304   0.553   7.680 -0.9750  0.0743  0.0640
  157SAPE  H18R17518   5.240   0.470   7.643 -0.9505 -0.0960  0.4026
  157SAPE  H18S17519   5.233   0.624   7.726 -0.4611  0.0344  0.9457
  157SAPE  C21917520   5.386   0.482   7.785  0.6728 -0.1415 -1.0967
  157SAPE  H19R17521   5.318   0.432   7.857  1.6750 -0.2728 -0.2329
  157SAPE  H19S17522   5.450   0.552   7.842  0.8181  0.3787 -1.8764
  157SAPE  C22017523   5.475   0.376   7.737 -0.1765  0.2971 -0.1140
  157SAPE  H20R17524   5.505   0.300   7.813  1.4440  0.0058 -1.0049
  157SAPE  H20S17525   5.574   0.413   7.703  0.3534  2.2924  3.1225
  157SAPE  H20T17526   5.433   0.333   7.644  0.5507  1.1194 -0.8486
  157SAPE   C3317527   5.502   1.063   6.413 -0.4563 -0.5322 -0.6982
  157SAPE   H3X17528   5.562   1.151   6.381 -3.2329  1.9540  0.3740
  157SAPE   H3Y17529   5.566   0.980   6.376  1.2510  0.7774 -0.8130
  157SAPE   C3417530   5.488   1.067   6.565 -0.1677 -0.9897 -0.6605
  157SAPE   H4X17531   5.440   0.985   6.622  1.6768 -0.2771  2.0852
  157SAPE   H4Y17532   5.426   1.157   6.588  2.2537  1.1497 -1.9826
  157SAPE   C3517533   5.623   1.068   6.643  0.4782 -0.5098 -1.1006
  157SAPE   H5X17534   5.683   1.158   6.616 -0.1214 -0.0026 -0.7611
  157SAPE   H5Y17535   5.678   0.977   6.612 -0.5767 -1.0122 -1.5385
  157SAPE   C3617536   5.592   1.065   6.797  0.0247 -0.2264 -0.0330
  157SAPE   H6X17537   5.537   0.970   6.810  1.1591 -1.1448 -1.6193
  157SAPE   H6Y17538   5.532   1.151   6.834  0.7903 -0.5233  1.9881
  157SAPE   C3717539   5.723   1.066   6.881  0.2111 -0.7324  0.5622
  157SAPE   H7X17540   5.785   1.147   6.837 -0.0105  1.0717  3.3309
  157SAPE   H7Y17541   5.771   0.969   6.854 -2.1115 -1.8709  0.2597
  157SAPE   C3817542   5.703   1.088   7.027  0.5307  0.7237 -0.1016
  157SAPE   H8X17543   5.655   1.184   7.054 -0.2372 -0.0373  1.3505
  157SAPE   H8Y17544   5.807   1.101   7.065  0.3356 -1.1108  1.1739
  157SAPE   C3917545   5.642   0.966   7.106  1.0443  0.2264  0.5072
  157SAPE   H9X17546   5.701   0.872   7.104 -1.8233 -1.7289  1.5797
  157SAPE   H9Y17547   5.540   0.942   7.071  0.7092  1.4464  0.6030
  157SAPE  C31017548   5.614   0.999   7.249 -0.2436 -0.5998 -0.3416
  157SAPE  H10X17549   5.533   0.936   7.291 -0.9252 -1.0412 -2.2162
  157SAPE  H10Y17550   5.566   1.099   7.256 -0.1547 -0.5274 -0.7572
  157SAPE  C31117551   5.741   1.001   7.335  0.3861 -0.2636  0.1079
  157SAPE  H11X17552   5.814   1.078   7.301 -2.2891  2.2918 -0.2701
  157SAPE  H11Y17553   5.798   0.906   7.323  0.4308 -0.3687  1.0482
  157SAPE  C31217554   5.697   1.036   7.480  0.0473  0.2410  0.0308
  157SAPE  H12X17555   5.630   0.956   7.518  1.8507 -1.1237  0.4952
  157SAPE  H12Y17556   5.649   1.136   7.484 -1.9935 -0.7237  2.1651
  157SAPE  C31317557   5.818   1.033   7.583  0.0673  0.4242  0.2454
  157SAPE  H13X17558   5.872   0.936   7.587  0.6271  0.6233 -1.4646
  157SAPE  H13Y17559   5.777   1.052   7.684 -1.9590 -1.2544 -0.1870
  157SAPE  C31417560   5.917   1.144   7.548 -0.1754 -0.7923 -0.1647
  157SAPE  H14X17561   5.865   1.242   7.535  0.9803 -0.0327  0.7587
  157SAPE  H14Y17562   5.980   1.123   7.459  0.7419 -2.8741  0.9170
  157SAPE  C31517563   5.987   1.196   7.672  0.5298 -0.4934 -0.2328
  157SAPE  H15X17564   5.911   1.242   7.739  1.7301 -0.2774  1.0055
  157SAPE  H15Y17565   6.055   1.277   7.637 -1.9087  1.7745 -0.0726
  157SAPE  C31617566   6.056   1.089   7.749  0.1312  0.5040  0.0595
  157SAPE  H16X17567   5.985   1.042   7.820  0.8615 -1.5969 -0.5182
  157SAPE  H16Y17568   6.131   1.141   7.814  2.7593  2.9321 -4.3683
  157SAPE  C31717569   6.141   0.975   7.680 -0.2595 -0.0761  0.2557
  157SAPE  H17X17570   6.147   0.993   7.570  1.0909 -1.6757  0.0117
  157SAPE  H17Y17571   6.072   0.888   7.681 -0.5676  0.0718 -2.2181
  157SAPE  C31817572   6.285   0.956   7.727  0.1365 -0.1423  0.2373
  157SAPE  H18X17573   6.349   0.909   7.649 -0.6866 -1.2927  0.2307
  157SAPE  H18Y17574   6.296   0.904   7.824  1.3169 -0.3438  0.0066
  157SAPE  H18Z17575   6.315   1.060   7.749  0.1429  0.3496 -1.8821
  158SAPE     N17576   0.693   6.199   5.919 -0.2688 -0.0976 -0.6708
  158SAPE   HN117577   0.646   6.290   5.934  1.2744  0.3069  2.7748
  158SAPE   HN217578   0.683   6.130   5.996  1.2663 -0.0550 -0.4022
  158SAPE   HN317579   0.794   6.207   5.896  0.3972  2.1994  2.4453
  158SAPE   C1217580   0.628   6.147   5.797 -0.6935  0.8261 -0.3323
  158SAPE  H12A17581   0.667   6.047   5.766 -1.3148  0.5153 -0.1129
  158SAPE  H12B17582   0.652   6.214   5.711  1.4643 -0.2326 -0.6425
  158SAPE   C1117583   0.475   6.115   5.805 -1.1632 -0.4960 -0.2843
  158SAPE  H11A17584   0.461   6.061   5.901 -3.0683 -0.3518 -0.4594
  158SAPE  H11B17585   0.444   6.038   5.730  1.7472 -1.2011 -0.9113
  158SAPE     P17586   0.255   6.242   5.786  0.0613 -0.2565  0.0473
  158SAPE   O1317587   0.232   6.335   5.671  0.2116 -0.1255  0.3841
  158SAPE   O1417588   0.204   6.101   5.765 -0.4610 -0.6166 -0.6362
  158SAPE   O1217589   0.406   6.243   5.815 -0.8198 -0.1125  0.0596
  158SAPE   O1117590   0.192   6.298   5.918  0.4530  0.2184  0.1889
  158SAPE    C117591   0.180   6.224   6.032 -0.2522  0.1846 -0.4321
  158SAPE    HA17592   0.085   6.244   6.085  0.3297  1.4021  0.2083
  158SAPE    HB17593   0.157   6.118   6.011 -2.6731  0.9123 -1.8201
  158SAPE    C217594   0.300   6.244   6.125 -0.2709 -0.2565 -0.5753
  158SAPE    HS17595   0.398   6.204   6.091  0.4977 -0.2749  1.5164
  158SAPE   O2117596   0.259   6.184   6.252  0.4939 -0.1523  0.1371
  158SAPE   C2117597   0.310   6.062   6.269 -0.1914 -0.1553 -0.1887
  158SAPE   O2217598   0.395   6.008   6.202  0.6721 -0.1487  0.8415
  158SAPE   C2217599   0.267   6.009   6.410 -0.2307 -1.1407  0.2718
  158SAPE   H2R17600   0.171   5.952   6.405  0.8495 -3.1395  1.3873
  158SAPE   H2S17601   0.347   5.944   6.451  1.1427  0.5120  0.3043
  158SAPE    C317602   0.332   6.393   6.139  0.4690  0.1640  0.8135
  158SAPE    HX17603   0.239   6.453   6.156 -0.5455 -1.2167  0.3506
  158SAPE    HY17604   0.377   6.429   6.045  0.1619  1.1227  1.0226
  158SAPE   O3117605   0.425   6.428   6.239 -0.8424 -0.0931  0.4196
  158SAPE   C3117606   0.555   6.410   6.225  0.3923 -0.7851  0.0738
  158SAPE   O3217607   0.608   6.352   6.132  0.7027  0.2223 -0.4726
  158SAPE   C3217608   0.629   6.501   6.328 -0.1348 -0.2232  0.3699
  158SAPE   H2X17609   0.631   6.603   6.285 -2.2304 -0.0063  0.6899
  158SAPE   H2Y17610   0.737   6.477   6.334  0.1763  0.2427 -2.2143
  158SAPE   C2317611   0.259   6.127   6.516 -0.0606  1.1519  0.5938
  158SAPE   H3R17612   0.189   6.204   6.477  0.4402  0.7642 -1.1229
  158SAPE   H3S17613   0.357   6.179   6.528  0.5810 -0.3524  2.4139
  158SAPE   C2417614   0.205   6.070   6.648  0.3053 -0.2628  0.5729
  158SAPE   H4R17615   0.264   5.977   6.666  1.2883  0.5472  1.7355
  158SAPE   H4S17616   0.099   6.037   6.650 -0.4336  1.9390  0.3997
  158SAPE   C2517617   0.220   6.171   6.763  0.3407  0.1982 -0.0843
  158SAPE   H5R17618   0.157   6.261   6.763  0.9165  0.6457  1.7817
  158SAPE   C2617619   0.292   6.159   6.874 -0.1039  0.4049 -0.1640
  158SAPE   H6R17620   0.298   6.252   6.932 -0.8007  0.5724 -0.3571
  158SAPE   C2717621   0.373   6.042   6.932 -0.5840  0.0686  0.1981
  158SAPE   H7R17622   0.479   6.075   6.935 -1.0152  1.3786  1.7655
  158SAPE   H7S17623   0.372   5.954   6.864  0.9880 -0.1068  0.3802
  158SAPE   C2817624   0.324   6.012   7.071 -0.1727 -0.0069  0.7749
  158SAPE   H8R17625   0.239   5.944   7.085  1.0998 -1.6720  0.8123
  158SAPE   C2917626   0.387   6.040   7.186  0.6434  0.3867 -0.2495
  158SAPE   H9R17627   0.345   6.002   7.280 -0.9830  0.2878 -0.9883
  158SAPE  C21017628   0.523   6.094   7.201  0.0717  0.1671  0.3058
  158SAPE  H10R17629   0.526   6.161   7.290  0.0170 -1.2053  1.3750
  158SAPE  H10S17630   0.542   6.171   7.123  1.8265  1.4954  1.9443
  158SAPE  C21117631   0.639   6.007   7.187 -0.3338  0.3839 -0.5669
  158SAPE  H11R17632   0.679   6.001   7.084  0.4443  0.8344 -0.2986
  158SAPE  C21217633   0.717   5.956   7.283  0.5817  0.0485 -0.6024
  158SAPE  H12R17634   0.803   5.894   7.258  1.6599  1.1022  0.3728
  158SAPE  C21317635   0.697   5.974   7.438  0.1150 -0.0103 -0.3558
  158SAPE  H13R17636   0.632   5.889   7.469  1.6049  0.0445  3.4656
  158SAPE  H13S17637   0.623   6.049   7.474 -1.9162 -2.4999  1.0192
  158SAPE  C21417638   0.834   5.984   7.497 -0.0831 -0.2616  0.0478
  158SAPE  H14R17639   0.907   6.039   7.436  1.9036 -1.0485  1.6024
  158SAPE  C21517640   0.876   5.930   7.612  0.3698  0.1543  0.0237
  158SAPE  H15R17641   0.985   5.918   7.618  0.5512  0.7727 -1.5577
  158SAPE  C21617642   0.787   5.844   7.702  0.4573  0.1975  0.4980
  158SAPE  H16R17643   0.735   5.762   7.647  2.4533 -0.1836 -0.9154
  158SAPE  H16S17644   0.702   5.903   7.742 -1.4442 -2.2595  0.3314
  158SAPE  C21717645   0.861   5.788   7.821  0.0580  0.1993  0.5532
  158SAPE  H17R17646   0.951   5.731   7.789 -1.7249 -1.6352 -1.5263
  158SAPE  H17S17647   0.797   5.732   7.893  1.3959 -0.4728  1.2673
  158SAPE  C21817648   0.914   5.896   7.920 -0.1504  0.5505  0.2221
  158SAPE  H18R17649   0.829   5.942   7.976 -0.5650 -1.9292  1.8153
  158SAPE  H18S17650   0.979   5.969   7.867 -0.5737 -0.7487 -2.1969
  158SAPE  C21917651   1.007   5.837   8.027  0.5962 -0.1876  0.3448
  158SAPE  H19R17652   1.097   5.793   7.979 -0.8224 -2.1441 -0.6692
  158SAPE  H19S17653   0.949   5.751   8.067 -0.1158  0.0921 -0.0673
  158SAPE  C22017654   1.048   5.944   8.134  0.5885  0.0564 -0.5383
  158SAPE  H20R17655   1.108   5.894   8.214  0.0543  1.2486  0.6446
  158SAPE  H20S17656   0.961   5.983   8.191  1.0356 -0.1680  0.3306
  158SAPE  H20T17657   1.110   6.028   8.095  3.6503 -1.5829  0.4255
  158SAPE   C3317658   0.569   6.509   6.468  0.0921 -0.5318 -0.3321
  158SAPE   H3X17659   0.477   6.571   6.479 -0.5470 -1.2109 -1.6656
  158SAPE   H3Y17660   0.647   6.566   6.523 -0.6196 -0.2701  0.4162
  158SAPE   C3417661   0.557   6.378   6.531  0.0003 -0.0531 -0.3163
  158SAPE   H4X17662   0.513   6.307   6.458 -0.0522  0.0822 -0.4152
  158SAPE   H4Y17663   0.486   6.386   6.616  0.3607  0.0445 -0.0244
  158SAPE   C3517664   0.693   6.324   6.572  0.1875  0.4521 -0.5766
  158SAPE   H5X17665   0.742   6.408   6.626  0.2386 -0.2433  0.4916
  158SAPE   H5Y17666   0.749   6.294   6.481  0.5690  1.4173 -0.6722
  158SAPE   C3617667   0.674   6.209   6.670  0.0714  0.7495  0.1077
  158SAPE   H6X17668   0.613   6.126   6.628 -0.8396  1.3648  0.1981
  158SAPE   H6Y17669   0.617   6.243   6.759 -0.1335 -1.8752  1.0667
  158SAPE   C3717670   0.810   6.167   6.730 -0.0376 -0.0736  0.0599
  158SAPE   H7X17671   0.875   6.155   6.641 -1.1309 -0.8336 -0.6480
  158SAPE   H7Y17672   0.850   6.250   6.793 -0.6668  1.9997 -2.1304
  158SAPE   C3817673   0.820   6.040   6.815 -0.1310  0.1192 -0.5981
  158SAPE   H8X17674   0.830   5.951   6.749  1.5898  0.7250 -1.1960
  158SAPE   H8Y17675   0.718   6.023   6.857 -0.1593 -0.4607 -0.8888
  158SAPE   C3917676   0.950   6.042   6.906  0.3931 -0.0252 -0.0905
  158SAPE   H9X17677   0.926   6.123   6.977 -2.1358 -0.1959 -0.6681
  158SAPE   H9Y17678   1.035   6.061   6.836  0.6637 -0.7220  0.0398
  158SAPE  C31017679   0.957   5.915   6.992  0.0074 -0.3573  0.5491
  158SAPE  H10X17680   0.983   5.826   6.930  0.8956 -0.6593  1.3379
  158SAPE  H10Y17681   0.861   5.883   7.037 -1.0144 -0.3692 -1.5079
  158SAPE  C31117682   1.058   5.932   7.102 -0.4632 -0.9087  0.0433
  158SAPE  H11X17683   1.015   6.015   7.162  1.8655 -0.0240  0.5869
  158SAPE  H11Y17684   1.164   5.953   7.076 -0.6106  1.1813  0.9027
  158SAPE  C31217685   1.070   5.822   7.203  0.1443  0.2154 -0.0028
  158SAPE  H12X17686   1.125   5.748   7.141 -0.9448 -0.3129 -0.3551
  158SAPE  H12Y17687   0.976   5.770   7.229  1.6014 -2.9657 -0.6894
  158SAPE  C31317688   1.153   5.859   7.329  0.1203  1.2215 -0.1015
  158SAPE  H13X17689   1.084   5.920   7.392 -1.7248 -1.1802  0.3575
  158SAPE  H13Y17690   1.239   5.917   7.290  1.0794  0.8971  1.4700
  158SAPE  C31417691   1.206   5.731   7.390 -0.2154 -0.1025 -0.4578
  158SAPE  H14X17692   1.271   5.746   7.479  0.1598 -2.2613 -0.3067
  158SAPE  H14Y17693   1.268   5.689   7.307 -0.5791  0.0799 -0.8221
  158SAPE  C31517694   1.082   5.658   7.437  0.6390 -0.4425  0.0007
  158SAPE  H15X17695   1.055   5.603   7.344  1.0436 -0.7719  0.0757
  158SAPE  H15Y17696   1.001   5.729   7.468  1.6330  0.6393  0.2084
  158SAPE  C31617697   1.101   5.555   7.553 -0.6367 -0.2434  0.8200
  158SAPE  H16X17698   1.089   5.605   7.651 -1.1398 -1.1822  1.2527
  158SAPE  H16Y17699   1.206   5.520   7.542 -0.8254 -0.4381 -0.5857
  158SAPE  C31717700   1.003   5.448   7.550  0.5504  0.2682  0.0044
  158SAPE  H17X17701   1.042   5.373   7.478 -1.6012 -4.0495  2.8982
  158SAPE  H17Y17702   0.909   5.492   7.511  0.8148 -0.9156 -2.0949
  158SAPE  C31817703   0.973   5.379   7.687 -0.0977 -0.2314 -0.1860
  158SAPE  H18X17704   1.006   5.447   7.769 -0.0015 -0.2301 -0.2267
  158SAPE  H18Y17705   1.041   5.292   7.700  2.6600  1.7599 -0.4931
  158SAPE  H18Z17706   0.866   5.352   7.704 -0.3559  0.5788 -0.4445
  159SAPE     N17707   1.125   1.990   5.723 -0.7681  0.3012 -0.5844
  159SAPE   HN117708   1.045   2.021   5.781 -0.6570  0.3722 -0.4685
  159SAPE   HN217709   1.149   1.891   5.745 -1.5329 -0.1037 -1.5055
  159SAPE   HN317710   1.200   2.054   5.757  2.0138 -2.8573 -0.1066
  159SAPE   C1217711   1.083   2.012   5.582 -0.2348 -0.4165  0.4177
  159SAPE  H12A17712   1.173   1.994   5.520  0.3855 -2.6719  1.8433
  159SAPE  H12B17713   1.070   2.121   5.566  1.8272 -0.4776 -2.5204
  159SAPE   C1117714   0.955   1.928   5.549  0.6557 -0.0870 -0.1721
  159SAPE  H11A17715   0.970   1.818   5.547 -3.6493 -0.9034 -4.0850
  159SAPE  H11B17716   0.934   1.956   5.443  5.0987  0.4179 -1.1151
  159SAPE     P17717   0.703   1.957   5.621 -0.4829 -0.0577 -0.3986
  159SAPE   O1317718   0.630   2.070   5.685 -0.5947 -0.0914 -0.5842
  159SAPE   O1417719   0.675   1.920   5.479  0.5263 -0.6371  0.3951
  159SAPE   O1217720   0.862   1.978   5.641  0.4850  0.6826  0.3957
  159SAPE   O1117721   0.677   1.823   5.704 -0.0708  0.0890  0.0078
  159SAPE    C117722   0.673   1.832   5.846  0.3398  0.3065 -0.2374
  159SAPE    HA17723   0.730   1.916   5.891  3.6451 -3.0010  2.3850
  159SAPE    HB17724   0.568   1.840   5.882  0.3274 -0.5179 -0.0613
  159SAPE    C217725   0.736   1.697   5.897 -0.2147 -0.1339 -0.4784
  159SAPE    HS17726   0.686   1.611   5.848 -1.1301  0.4956 -0.6923
  159SAPE   O2117727   0.720   1.703   6.036  0.0892 -0.0914 -0.1097
  159SAPE   C2117728   0.719   1.584   6.103  0.1736  0.4039  0.3413
  159SAPE   O2217729   0.720   1.474   6.052 -0.5984  0.5404 -0.1017
  159SAPE   C2217730   0.723   1.611   6.253  0.1091  0.4347 -0.6470
  159SAPE   H2R17731   0.803   1.686   6.266  2.3045 -1.6106 -1.6472
  159SAPE   H2S17732   0.619   1.640   6.280  0.6470  0.9854  0.9086
  159SAPE    C317733   0.886   1.703   5.872  0.2430 -1.1915 -0.2675
  159SAPE    HX17734   0.896   1.717   5.762 -1.4612 -1.0063 -0.4217
  159SAPE    HY17735   0.925   1.600   5.889 -0.3463 -1.3242  0.2866
  159SAPE   O3117736   0.959   1.805   5.935 -0.0549 -0.5468 -0.4569
  159SAPE   C3117737   1.027   1.773   6.047 -0.1705  0.0465  0.5520
  159SAPE   O3217738   1.028   1.665   6.099  0.2705  0.8257  0.5715
  159SAPE   C3217739   1.103   1.893   6.098 -0.1269 -0.6032 -0.0578
  159SAPE   H2X17740   1.174   1.919   6.016 -1.0515 -2.0977 -1.3980
  159SAPE   H2Y17741   1.163   1.867   6.187 -1.5296  1.7712  1.6964
  159SAPE   C2317742   0.771   1.487   6.333 -0.4867  0.0349  0.2351
  159SAPE   H3R17743   0.877   1.464   6.310 -0.8590 -1.6663  0.1236
  159SAPE   H3S17744   0.703   1.400   6.318  1.7138 -1.8585  0.7839
  159SAPE   C2417745   0.748   1.508   6.480 -0.2499 -0.0553 -0.5433
  159SAPE   H4R17746   0.826   1.584   6.501 -0.5879  0.3005 -0.5735
  159SAPE   H4S17747   0.770   1.420   6.544 -1.3683 -1.2383 -1.7199
  159SAPE   C2517748   0.620   1.571   6.528 -0.2936 -0.2519 -0.3940
  159SAPE   H5R17749   0.539   1.607   6.462  0.1214  0.8294 -0.3338
  159SAPE   C2617750   0.605   1.595   6.660  0.2102  0.5780 -0.1020
  159SAPE   H6R17751   0.516   1.639   6.707  1.4838  0.8956  2.1530
  159SAPE   C2717752   0.696   1.565   6.772  0.5165  0.3708  0.2253
  159SAPE   H7R17753   0.713   1.651   6.840  0.3721 -0.1948  0.9941
  159SAPE   H7S17754   0.797   1.550   6.727 -0.4549 -2.2860 -1.3196
  159SAPE   C2817755   0.658   1.440   6.851  0.0973  0.0104 -0.3100
  159SAPE   H8R17756   0.646   1.350   6.789  1.0767  0.6919 -1.5282
  159SAPE   C2917757   0.638   1.430   6.983 -0.0102 -0.3611  0.0624
  159SAPE   H9R17758   0.578   1.345   7.019 -2.4064  1.5455  0.8347
  159SAPE  C21017759   0.657   1.556   7.070  0.2313  0.2771  0.0720
  159SAPE  H10R17760   0.731   1.627   7.028  0.5073 -0.8346 -1.4041
  159SAPE  H10S17761   0.707   1.522   7.163  2.6435  1.6044 -0.6605
  159SAPE  C21117762   0.526   1.634   7.095 -0.2815  0.0459  0.0660
  159SAPE  H11R17763   0.501   1.707   7.016  2.3529 -0.0203 -0.9392
  159SAPE  C21217764   0.441   1.626   7.200 -0.5850 -0.0434 -0.4002
  159SAPE  H12R17765   0.349   1.686   7.200  0.3560  1.4606 -0.3557
  159SAPE  C21317766   0.452   1.535   7.326  0.4739  0.9361  0.4617
  159SAPE  H13R17767   0.500   1.438   7.301  1.1465  1.1714  0.8029
  159SAPE  H13S17768   0.353   1.494   7.354  1.7822 -3.7286 -0.9420
  159SAPE  C21417769   0.518   1.591   7.439 -0.0279 -0.2565 -0.7763
  159SAPE  H14R17770   0.561   1.692   7.434 -0.5385  0.0430  0.4805
  159SAPE  C21517771   0.532   1.531   7.561 -0.2111  0.3331  0.0644
  159SAPE  H15R17772   0.599   1.578   7.634 -0.8495  3.4958 -1.1988
  159SAPE  C21617773   0.470   1.398   7.612  0.4392  0.5430  0.1479
  159SAPE  H16R17774   0.436   1.327   7.534 -2.6364  0.9963  0.9629
  159SAPE  H16S17775   0.392   1.417   7.688  1.0974  1.0226  0.7139
  159SAPE  C21717776   0.573   1.309   7.686  0.0568 -0.2491 -0.1619
  159SAPE  H17R17777   0.659   1.295   7.617 -1.4875 -1.3281 -1.9961
  159SAPE  H17S17778   0.547   1.201   7.689  1.5642 -0.6270  2.6268
  159SAPE  C21817779   0.612   1.364   7.822 -0.4674 -0.1063 -0.0974
  159SAPE  H18R17780   0.523   1.353   7.887 -0.3446 -1.0830 -0.0733
  159SAPE  H18S17781   0.640   1.471   7.816  1.7137 -0.7061 -3.1955
  159SAPE  C21917782   0.742   1.302   7.878  0.2407 -0.1245 -0.5721
  159SAPE  H19R17783   0.829   1.303   7.808  0.1211 -0.2091 -0.7223
  159SAPE  H19S17784   0.714   1.199   7.907 -4.9990  1.8274  2.7552
  159SAPE  C22017785   0.798   1.379   8.003  0.2551  0.2787 -0.4404
  159SAPE  H20R17786   0.855   1.473   7.988  1.0156 -0.4183 -2.0901
  159SAPE  H20S17787   0.871   1.315   8.056  1.5424  1.4931 -0.7054
  159SAPE  H20T17788   0.718   1.395   8.079  2.0993  2.5279  1.1531
  159SAPE   C3317789   1.023   2.015   6.146  0.6198 -0.4663 -0.1831
  159SAPE   H3X17790   0.946   2.046   6.072 -0.9129 -0.2889  1.4195
  159SAPE   H3Y17791   1.099   2.095   6.162  0.7522 -1.0140  2.1804
  159SAPE   C3417792   0.927   1.995   6.274 -0.3624 -0.6348  0.2660
  159SAPE   H4X17793   0.851   1.916   6.256 -0.5746 -0.7174  1.4386
  159SAPE   H4Y17794   0.877   2.093   6.283  2.0538  0.6614  0.3282
  159SAPE   C3517795   1.008   1.973   6.406  0.9229  0.0927 -0.6347
  159SAPE   H5X17796   1.062   2.067   6.430 -1.9351  2.1802 -1.8551
  159SAPE   H5Y17797   1.087   1.895   6.405  1.5657  0.6873  1.0350
  159SAPE   C3617798   0.906   1.930   6.518 -0.4922  0.3194 -0.4258
  159SAPE   H6X17799   0.895   1.820   6.514 -0.6135  0.2797  0.6435
  159SAPE   H6Y17800   0.812   1.985   6.497  0.4529  1.4406 -1.8959
  159SAPE   C3717801   0.963   1.972   6.653 -0.7334 -0.4959  0.0830
  159SAPE   H7X17802   0.997   2.078   6.655  4.1631 -1.8128  2.2270
  159SAPE   H7Y17803   1.048   1.905   6.677  0.6638  0.1356 -2.7026
  159SAPE   C3817804   0.861   1.952   6.763 -0.7756 -0.3537  0.5523
  159SAPE   H8X17805   0.804   1.857   6.756 -0.8388 -0.2175 -1.3356
  159SAPE   H8Y17806   0.792   2.039   6.762  1.8386  1.9803 -2.5709
  159SAPE   C3917807   0.933   1.931   6.899 -0.4796  0.0744 -0.6898
  159SAPE   H9X17808   1.013   2.005   6.920  0.3302 -1.2144  1.0191
  159SAPE   H9Y17809   0.995   1.839   6.889 -0.6949  0.0120 -1.4853
  159SAPE  C31017810   0.832   1.943   7.013 -0.4457 -0.3604  0.0412
  159SAPE  H10X17811   0.749   1.873   6.992 -1.9996  2.0335 -2.5848
  159SAPE  H10Y17812   0.793   2.047   7.002 -0.1770 -0.3437 -0.9183
  159SAPE  C31117813   0.887   1.939   7.157 -0.5164  0.6428 -0.2829
  159SAPE  H11X17814   0.807   1.978   7.224 -0.0883  0.2303  0.4700
  159SAPE  H11Y17815   0.985   1.990   7.158 -0.0446 -0.2150 -1.2598
  159SAPE  C31217816   0.927   1.785   7.197  0.3140  0.2764  0.1065
  159SAPE  H12X17817   1.013   1.749   7.137  0.2184 -1.2203  0.8226
  159SAPE  H12Y17818   0.838   1.724   7.174  0.7889 -1.4784  2.4989
  159SAPE  C31317819   0.970   1.766   7.338  1.0003  0.6932 -1.3855
  159SAPE  H13X17820   0.912   1.832   7.407  1.5456 -0.2997  0.0672
  159SAPE  H13Y17821   1.073   1.808   7.344  0.8031  1.0119 -0.0439
  159SAPE  C31417822   0.963   1.628   7.394 -0.2781  0.4317  0.3864
  159SAPE  H14X17823   1.001   1.553   7.321 -1.8725 -0.0891  0.0476
  159SAPE  H14Y17824   0.856   1.603   7.410 -0.0673 -0.4383  0.4687
  159SAPE  C31517825   1.034   1.616   7.533  0.1347  0.9995  0.0777
  159SAPE  H15X17826   0.975   1.672   7.608 -1.8713 -2.3985  1.2244
  159SAPE  H15Y17827   1.137   1.657   7.534  0.2172  0.9649 -1.9202
  159SAPE  C31617828   1.048   1.468   7.567  0.1364  0.2047  0.0209
  159SAPE  H16X17829   1.119   1.418   7.498  0.8417 -0.6567  1.3238
  159SAPE  H16Y17830   0.951   1.415   7.557  0.1674  0.3984 -1.4523
  159SAPE  C31717831   1.096   1.457   7.718  0.1025 -0.6916  0.4951
  159SAPE  H17X17832   1.019   1.507   7.780 -0.8683 -1.3139 -0.1753
  159SAPE  H17Y17833   1.190   1.516   7.719 -0.2139 -0.1449 -0.6050
  159SAPE  C31817834   1.113   1.310   7.761  0.0659 -0.3919 -0.2164
  159SAPE  H18X17835   1.118   1.306   7.872 -0.2498 -3.2633 -0.2486
  159SAPE  H18Y17836   1.209   1.279   7.715  0.9354  2.1152 -0.2881
  159SAPE  H18Z17837   1.034   1.243   7.721 -0.7482  0.1031  0.5222
  160SAPE     N17838   1.187   0.137   5.564 -0.3133 -0.1331 -0.4883
  160SAPE   HN117839   1.127   0.082   5.500 -2.3588  1.2282  0.1860
  160SAPE   HN217840   1.257   0.198   5.516 -0.9984  0.3229 -0.9166
  160SAPE   HN317841   1.241   0.057   5.604  0.8691  0.4956 -0.7756
  160SAPE   C1217842   1.130   0.205   5.685  0.0112  0.0562 -0.0163
  160SAPE  H12A17843   1.186   0.294   5.721 -0.1071 -0.0452  0.4269
  160SAPE  H12B17844   1.136   0.131   5.767  1.9765  0.6438  0.4322
  160SAPE   C1117845   0.986   0.260   5.659  0.0159 -0.2356  0.2817
  160SAPE  H11A17846   0.989   0.350   5.594  0.9139  0.9929  1.9490
  160SAPE  H11B17847   0.953   0.299   5.758 -1.1994 -0.7305  0.0985
  160SAPE     P17848   0.767   0.117   5.701  0.5073 -0.1088  0.3241
  160SAPE   O1317849   0.675   0.230   5.731  0.1901 -0.1405 -0.1332
  160SAPE   O1417850   0.709  -0.005   5.630 -0.5662 -0.3536  0.3925
  160SAPE   O1217851   0.892   0.166   5.616  0.3152  0.1923  0.0896
  160SAPE   O1117852   0.834   0.074   5.835  0.2850  0.0987  0.1201
  160SAPE    C117853   0.795   0.120   5.962  0.1420 -0.6972 -0.4047
  160SAPE    HA17854   0.830   0.224   5.976 -2.4838  0.2738 -0.4590
  160SAPE    HB17855   0.685   0.135   5.973  0.0940 -0.5222 -1.1176
  160SAPE    C217856   0.863   0.044   6.074  0.7788 -0.5767  0.8070
  160SAPE    HS17857   0.813  -0.055   6.065 -0.1702 -0.4071  3.3857
  160SAPE   O2117858   0.832   0.099   6.205 -0.6465 -0.0495  0.2381
  160SAPE   C2117859   0.846   0.016   6.304 -0.2873  1.1845 -0.0244
  160SAPE   O2217860   0.861  -0.104   6.290  0.4152  0.3464  0.0458
  160SAPE   C2217861   0.827   0.087   6.433  0.2333 -0.1716 -0.3236
  160SAPE   H2R17862   0.720   0.118   6.442 -0.3907 -2.3182  0.2559
  160SAPE   H2S17863   0.824   0.012   6.515  0.6177  0.8267  0.6219
  160SAPE    C317864   1.016   0.041   6.047  0.0453  0.1419 -0.4206
  160SAPE    HX17865   1.031  -0.018   5.954  3.2144  0.6071 -0.3175
  160SAPE    HY17866   1.054  -0.004   6.142  1.2573  0.4404 -0.7429
  160SAPE   O3117867   1.062   0.173   6.019  0.4965  0.2759  0.4680
  160SAPE   C3117868   1.122   0.236   6.126 -0.4555  0.4579  0.5213
  160SAPE   O3217869   1.165   0.174   6.226  0.3591 -0.1266  0.5281
  160SAPE   C3217870   1.148   0.388   6.095  0.0173 -0.0056 -1.0981
  160SAPE   H2X17871   1.088   0.408   6.003 -2.6147 -1.4348  0.1914
  160SAPE   H2Y17872   1.252   0.407   6.063  0.0733  1.2760 -0.2261
  160SAPE   C2317873   0.931   0.201   6.470 -0.2595  0.2431  0.0841
  160SAPE   H3R17874   0.947   0.282   6.395 -1.8589 -0.6079 -1.2478
  160SAPE   H3S17875   1.026   0.146   6.482  0.6682  1.9335  0.8742
  160SAPE   C2417876   0.891   0.258   6.601 -0.4011  0.1401 -0.0845
  160SAPE   H4R17877   0.967   0.335   6.625 -0.0525 -0.2536  0.0819
  160SAPE   H4S17878   0.884   0.175   6.675 -2.5235  1.4809  1.3457
  160SAPE   C2517879   0.759   0.331   6.601 -0.1602  0.3691 -0.1134
  160SAPE   H5R17880   0.743   0.386   6.507 -0.0407  0.6849  0.0515
  160SAPE   C2617881   0.669   0.334   6.708 -0.2859 -0.0845  0.9599
  160SAPE   H6R17882   0.581   0.401   6.707 -1.9658 -2.1493 -1.0706
  160SAPE   C2717883   0.676   0.255   6.834  0.3667  0.9621 -0.0624
  160SAPE   H7R17884   0.781   0.224   6.855  0.0522  0.0196  0.1272
  160SAPE   H7S17885   0.613   0.166   6.814  1.4452  0.7181 -2.8112
  160SAPE   C2817886   0.623   0.341   6.942 -0.4081  0.2808  0.0097
  160SAPE   H8R17887   0.673   0.437   6.959 -0.7274  0.0933  2.3585
  160SAPE   C2917888   0.533   0.311   7.033  0.5619  0.2278 -0.1415
  160SAPE   H9R17889   0.523   0.384   7.115  1.3235  0.0531  0.1182
  160SAPE  C21017890   0.448   0.184   7.052  0.2490 -0.4739 -0.5357
  160SAPE  H10R17891   0.527   0.108   7.070 -0.3752 -0.6299  1.8886
  160SAPE  H10S17892   0.388   0.147   6.966 -1.1347  0.2613  0.0858
  160SAPE  C21117893   0.351   0.191   7.165 -0.0899 -0.1780 -0.2133
  160SAPE  H11R17894   0.242   0.192   7.152 -0.2006  1.4556  0.6603
  160SAPE  C21217895   0.377   0.177   7.296 -0.6652  0.2017  0.5993
  160SAPE  H12R17896   0.300   0.195   7.372  0.0799  1.6556  1.0583
  160SAPE  C21317897   0.519   0.167   7.353  1.1716  0.0156  0.3903
  160SAPE  H13R17898   0.587   0.140   7.270 -0.5990  1.0043 -1.4791
  160SAPE  H13S17899   0.526   0.072   7.410 -0.7700 -1.0650 -1.0370
  160SAPE  C21417900   0.561   0.291   7.419  0.8578 -0.7852 -0.1291
  160SAPE  H14R17901   0.611   0.372   7.363 -0.4526  0.7031  0.7617
  160SAPE  C21517902   0.565   0.312   7.550  0.5221  0.6989  0.2076
  160SAPE  H15R17903   0.608   0.404   7.590  3.6259 -0.4395 -0.2498
  160SAPE  C21617904   0.526   0.207   7.657  0.4483  0.5822  0.1605
  160SAPE  H16R17905   0.502   0.104   7.621  1.0938  0.0514  1.1948
  160SAPE  H16S17906   0.429   0.238   7.703 -1.0807  0.9571 -3.0277
  160SAPE  C21717907   0.637   0.214   7.767 -0.6724  0.0056  0.3271
  160SAPE  H17R17908   0.630   0.316   7.810  0.9523 -0.9467  3.0956
  160SAPE  H17S17909   0.741   0.201   7.732 -0.6424  2.1172 -0.4634
  160SAPE  C21817910   0.616   0.108   7.865 -0.1319 -0.0187 -0.4298
  160SAPE  H18R17911   0.654   0.013   7.822 -0.1787 -0.4456  0.4711
  160SAPE  H18S17912   0.510   0.111   7.899  0.4186  1.1566  1.3167
  160SAPE  C21917913   0.707   0.134   7.992  0.1861  0.9732 -0.3143
  160SAPE  H19R17914   0.678   0.232   8.036 -0.7164  1.0415 -1.0081
  160SAPE  H19S17915   0.813   0.129   7.961  0.6749  0.1539  1.4136
  160SAPE  C22017916   0.688   0.025   8.095  0.5860 -0.5540  0.9910
  160SAPE  H20R17917   0.708  -0.071   8.043 -0.1613 -0.0576 -0.2610
  160SAPE  H20S17918   0.579   0.022   8.112  0.1493  1.1647 -1.0836
  160SAPE  H20T17919   0.741   0.040   8.192  0.9642 -2.7593  1.1749
  160SAPE   C3317920   1.106   0.480   6.212 -0.5921 -0.4673  0.1452
  160SAPE   H3X17921   1.000   0.479   6.243 -0.6583  0.4714 -0.0105
  160SAPE   H3Y17922   1.122   0.585   6.177  1.6099 -1.0123 -0.6819
  160SAPE   C3417923   1.195   0.485   6.335 -0.0921  0.3892 -0.2561
  160SAPE   H4X17924   1.300   0.506   6.306  0.1278 -1.6826 -1.1881
  160SAPE   H4Y17925   1.192   0.384   6.382  0.4040  0.6603  0.3652
  160SAPE   C3517926   1.152   0.588   6.443 -0.1523 -0.3710 -0.3125
  160SAPE   H5X17927   1.069   0.545   6.504  0.0718  1.4087  1.3476
  160SAPE   H5Y17928   1.105   0.670   6.384  1.8005  0.5926 -0.5871
  160SAPE   C3617929   1.261   0.629   6.541  0.7225  0.2199 -0.7352
  160SAPE   H6X17930   1.311   0.723   6.508 -0.1045  0.2360 -2.0101
  160SAPE   H6Y17931   1.335   0.551   6.564 -0.3008 -0.2140  1.3301
  160SAPE   C3717932   1.192   0.663   6.670  0.0736 -0.4252  0.8046
  160SAPE   H7X17933   1.147   0.568   6.707 -2.5323  0.5324  0.3153
  160SAPE   H7Y17934   1.106   0.731   6.652 -1.2551 -1.7155  1.9043
  160SAPE   C3817935   1.277   0.718   6.785 -0.5847 -0.3414 -0.1418
  160SAPE   H8X17936   1.329   0.807   6.745 -0.2669 -1.4136 -2.2684
  160SAPE   H8Y17937   1.348   0.642   6.824 -1.4954 -0.8398  0.6035
  160SAPE   C3917938   1.196   0.759   6.908 -0.0521  0.3937 -0.1165
  160SAPE   H9X17939   1.094   0.751   6.865 -0.7739 -3.1188  1.8463
  160SAPE   H9Y17940   1.222   0.855   6.958 -1.2494  0.5302  0.2900
  160SAPE  C31017941   1.196   0.652   7.022 -0.4249 -0.4327 -0.5535
  160SAPE  H10X17942   1.206   0.713   7.114 -0.1018  1.4412 -1.7807
  160SAPE  H10Y17943   1.287   0.589   7.007  0.7047  1.4508 -2.0454
  160SAPE  C31117944   1.079   0.554   7.013  1.2082 -0.2216 -0.1531
  160SAPE  H11X17945   1.096   0.462   7.073 -2.9536 -1.9192 -1.2665
  160SAPE  H11Y17946   1.090   0.522   6.908  1.0034  1.2039 -0.6388
  160SAPE  C31217947   0.937   0.603   7.053 -0.0059 -0.4798  0.6087
  160SAPE  H12X17948   0.864   0.524   7.023 -1.7900  1.5263 -0.6646
  160SAPE  H12Y17949   0.913   0.694   6.994 -0.4335 -1.8378 -1.4157
  160SAPE  C31317950   0.922   0.627   7.200  0.0199 -0.0225 -0.1506
  160SAPE  H13X17951   0.985   0.715   7.225  0.4407 -0.3498 -0.0441
  160SAPE  H13Y17952   0.966   0.548   7.264 -1.0800  1.0586  2.0596
  160SAPE  C31417953   0.777   0.655   7.253 -0.9011 -0.0613  0.0225
  160SAPE  H14X17954   0.714   0.571   7.217  0.4908 -0.3231 -1.9676
  160SAPE  H14Y17955   0.750   0.743   7.191  1.4103  0.3866 -0.4406
  160SAPE  C31517956   0.757   0.688   7.401 -0.2352 -0.1859  0.2424
  160SAPE  H15X17957   0.768   0.598   7.465 -0.1330  0.2637  0.8729
  160SAPE  H15Y17958   0.652   0.722   7.417 -1.3675 -3.6288  0.9478
  160SAPE  C31617959   0.843   0.807   7.456 -0.1266  0.3638 -0.6848
  160SAPE  H16X17960   0.855   0.876   7.371 -0.0336  1.8882  0.5257
  160SAPE  H16Y17961   0.944   0.777   7.489 -0.4324  1.4315  1.3909
  160SAPE  C31717962   0.782   0.893   7.558 -0.0755 -0.0892  0.0827
  160SAPE  H17X17963   0.793   0.846   7.658 -1.0277  1.8924  1.1950
  160SAPE  H17Y17964   0.674   0.911   7.538  0.3043  2.4820 -0.0290
  160SAPE  C31817965   0.851   1.032   7.581  0.0802  0.4279  0.6994
  160SAPE  H18X17966   0.835   1.059   7.688 -1.2676 -1.1091  0.9161
  160SAPE  H18Y17967   0.813   1.115   7.518  1.5701 -0.2777 -1.2130
  160SAPE  H18Z17968   0.962   1.023   7.574  0.0033 -0.3750  0.4539
  161SOPE     N17969   3.637   2.152   9.639 -0.0653  0.7262  0.3082
  161SOPE   HN117970   3.648   2.081   9.713  0.8416  1.0923  0.5395
  161SOPE   HN217971   3.572   2.226   9.672 -0.9042 -0.5728  1.6620
  161SOPE   HN317972   3.582   2.107   9.563  1.0229 -0.8441  0.4082
  161SOPE   C1217973   3.773   2.212   9.592 -0.3686  0.2518 -0.5893
  161SOPE  H12A17974   3.763   2.217   9.481 -0.3068 -1.2063 -0.6790
  161SOPE  H12B17975   3.849   2.135   9.618  1.2435  1.0285 -2.7122
  161SOPE   C1117976   3.804   2.354   9.643 -0.4774  0.1461  0.1854
  161SOPE  H11A17977   3.909   2.370   9.609 -0.1359  2.4223  2.0704
  161SOPE  H11B17978   3.809   2.373   9.752  0.7469 -0.9372  0.3460
  161SOPE     P17979   3.586   2.505   9.624 -0.1270  0.2157  0.1123
  161SOPE   O1317980   3.609   2.627   9.702  0.1751  0.3623  0.2749
  161SOPE   O1417981   3.517   2.391   9.689 -0.1160 -0.0945 -0.1549
  161SOPE   O1217982   3.724   2.445   9.566 -0.2445 -0.0440 -0.4777
  161SOPE   O1117983   3.502   2.541   9.493 -0.9146  0.8784 -0.3888
  161SOPE    C117984   3.481   2.438   9.392 -0.2160  0.6610 -0.1924
  161SOPE    HA17985   3.376   2.403   9.401 -0.5918  2.0794  1.4952
  161SOPE    HB17986   3.525   2.340   9.421  0.0646  1.1387  1.0622
  161SOPE    C217987   3.504   2.477   9.246  0.0206 -0.0710 -0.1081
  161SOPE    HS17988   3.458   2.404   9.176 -0.6514  0.7842 -0.5817
  161SOPE   O2117989   3.649   2.481   9.230  0.3709 -0.5426  0.0051
  161SOPE   C2117990   3.708   2.359   9.242  0.7726  0.0115 -0.2901
  161SOPE   O2217991   3.648   2.252   9.236 -0.5427  0.4993 -0.3024
  161SOPE   C2217992   3.857   2.383   9.227 -0.4898 -0.0320 -0.0081
  161SOPE   H2R17993   3.908   2.285   9.237 -0.7887 -0.1615  0.2956
  161SOPE   H2S17994   3.883   2.450   9.311 -1.1502  0.6951 -0.3697
  161SOPE    C317995   3.434   2.616   9.226 -0.5342  0.7575 -0.2653
  161SOPE    HX17996   3.456   2.702   9.293 -0.9661  0.3577  0.4024
  161SOPE    HY17997   3.329   2.588   9.246  0.2341 -0.9992  1.6980
  161SOPE   O3117998   3.446   2.650   9.091 -0.5906  0.5134 -0.7740
  161SOPE   C3117999   3.537   2.739   9.062 -0.0003 -0.3333 -0.4514
  161SOPE   O3218000   3.617   2.792   9.143  0.2202 -0.0941  0.1341
  161SOPE   C3218001   3.531   2.764   8.909  0.4182  0.3599  0.8880
  161SOPE   H2X18002   3.587   2.855   8.879  1.6596 -1.3945 -2.6675
  161SOPE   H2Y18003   3.423   2.771   8.885  0.4743 -1.5732 -0.1360
  161SOPE   C2318004   3.904   2.454   9.102  0.3045  0.5640 -0.3459
  161SOPE   H3R18005   4.007   2.488   9.128 -0.1823  1.2594  0.7583
  161SOPE   H3S18006   3.832   2.533   9.073  0.4029  0.6576 -0.3375
  161SOPE   C2418007   3.915   2.362   8.983 -0.6443  0.0943 -0.1165
  161SOPE   H4R18008   3.964   2.433   8.913 -2.4847  1.7907  0.2235
  161SOPE   H4S18009   3.991   2.282   8.998 -0.1440  0.5560 -0.1267
  161SOPE   C2518010   3.786   2.308   8.926 -0.2025  0.5122  0.6930
  161SOPE   H5R18011   3.748   2.238   9.003 -1.2750 -0.1426 -0.3875
  161SOPE   H5S18012   3.723   2.397   8.907  0.9186  1.0399 -0.8473
  161SOPE   C2618013   3.817   2.245   8.791  0.1350 -0.4594  0.3808
  161SOPE   H6R18014   3.828   2.322   8.712  3.8244 -1.0606  0.0982
  161SOPE   H6S18015   3.902   2.174   8.782 -0.8133 -1.6171  0.3950
  161SOPE   C2718016   3.691   2.167   8.753  0.4425  0.0400 -0.2506
  161SOPE   H7R18017   3.664   2.107   8.842 -0.3846  0.9203  0.0976
  161SOPE   H7S18018   3.608   2.241   8.751  1.1227  1.0193  2.7195
  161SOPE   C2818019   3.692   2.086   8.617 -0.9390  0.6649  0.1085
  161SOPE   H8R18020   3.709   2.157   8.533 -1.1375 -1.3714 -1.7437
  161SOPE   H8S18021   3.771   2.007   8.615 -1.0377  0.5280  1.2628
  161SOPE   C2918022   3.561   2.020   8.581 -1.2006 -0.3085 -0.8694
  161SOPE   H9118023   3.478   2.036   8.652 -0.0679 -0.3379  0.5063
  161SOPE  C21018024   3.541   1.947   8.468  0.3107  0.1730  0.0505
  161SOPE  H10118025   3.447   1.891   8.453  0.5325 -0.4609  1.0070
  161SOPE  C21118026   3.641   1.926   8.358 -0.0139 -0.4490  0.6542
  161SOPE  H11R18027   3.636   1.822   8.320  0.1153  0.2364 -1.3404
  161SOPE  H11S18028   3.745   1.943   8.392 -0.6652  1.3531  1.9336
  161SOPE  C21218029   3.591   2.011   8.235 -0.4155 -0.5270  0.4700
  161SOPE  H12R18030   3.488   1.989   8.201  0.5105  1.8395 -4.8532
  161SOPE  H12S18031   3.665   1.985   8.157  0.0922  1.5551  0.1838
  161SOPE  C21318032   3.602   2.164   8.244 -0.1859 -0.2935  0.3706
  161SOPE  H13R18033   3.702   2.200   8.276  0.4981 -2.2096  0.5306
  161SOPE  H13S18034   3.517   2.211   8.299  2.1307  3.1234  1.3914
  161SOPE  C21418035   3.573   2.213   8.099 -0.1836 -0.5464  0.4773
  161SOPE  H14R18036   3.464   2.204   8.079 -1.5592 -1.5877  6.4941
  161SOPE  H14S18037   3.623   2.157   8.018 -0.7393  1.5042 -1.4075
  161SOPE  C21518038   3.607   2.365   8.078  0.1241  0.1795  0.5457
  161SOPE  H15R18039   3.717   2.375   8.069  0.1937 -0.2588  0.8380
  161SOPE  H15S18040   3.566   2.413   8.170 -0.0917  2.1036 -0.5196
  161SOPE  C21618041   3.548   2.420   7.948 -0.1060  0.3528  0.8397
  161SOPE  H16R18042   3.439   2.399   7.952  0.0523 -0.4078  1.4980
  161SOPE  H16S18043   3.581   2.361   7.860  3.0870  1.1105  1.3971
  161SOPE  C21718044   3.567   2.571   7.925 -0.1233  0.7765 -0.2779
  161SOPE  H17R18045   3.676   2.591   7.924  0.1737 -0.6786 -0.0964
  161SOPE  H17S18046   3.520   2.619   8.014  1.8008 -0.6204  1.5717
  161SOPE  C21818047   3.506   2.621   7.795  0.3077  0.1613  0.3321
  161SOPE  H18R18048   3.401   2.587   7.790  1.2473 -2.9297 -0.7482
  161SOPE  H18S18049   3.562   2.581   7.708 -0.9261  1.1398 -0.9518
  161SOPE  H18T18050   3.517   2.730   7.779  0.5739  0.1925  0.7107
  161SOPE   C3318051   3.593   2.642   8.834 -0.4817  0.0112 -0.2216
  161SOPE   H3X18052   3.548   2.546   8.867 -2.0552  0.0807 -2.0133
  161SOPE   H3Y18053   3.700   2.632   8.864 -0.8425  1.4509  1.7152
  161SOPE   C3418054   3.587   2.659   8.687  0.0542  0.7401  0.6314
  161SOPE   H4X18055   3.609   2.765   8.661  0.3261  0.1254 -1.9358
  161SOPE   H4Y18056   3.481   2.644   8.657  0.7642 -0.3384 -1.5284
  161SOPE   C3518057   3.675   2.559   8.611  0.0750 -0.3668 -0.9026
  161SOPE   H5X18058   3.633   2.460   8.641 -1.6569  0.3299 -0.9323
  161SOPE   H5Y18059   3.776   2.573   8.656  0.6800 -0.1665 -2.2835
  161SOPE   C3618060   3.685   2.567   8.449 -0.3911 -0.5786 -0.5058
  161SOPE   H6X18061   3.588   2.538   8.403 -1.1781 -1.3477  1.5136
  161SOPE   H6Y18062   3.759   2.491   8.416 -0.9587 -0.8882 -1.1102
  161SOPE   C3718063   3.737   2.709   8.408 -0.1921  0.5402 -0.2465
  161SOPE   H7X18064   3.824   2.731   8.475 -0.3137 -1.2577  0.5687
  161SOPE   H7Y18065   3.660   2.782   8.439  0.4157  1.1023 -0.0273
  161SOPE   C3818066   3.777   2.730   8.266  0.1947 -0.4389 -0.8057
  161SOPE   H8X18067   3.677   2.732   8.218  0.0014 -1.3105 -0.4418
  161SOPE   H8Y18068   3.833   2.641   8.230 -0.4434 -0.6956 -1.1841
  161SOPE   C3918069   3.849   2.866   8.246  0.3572  0.0132  0.0556
  161SOPE   H9X18070   3.947   2.853   8.296  0.0967  0.9251  0.8416
  161SOPE   H9Y18071   3.793   2.946   8.298  0.0953 -0.0321 -0.1553
  161SOPE  C31018072   3.881   2.890   8.099 -0.4910 -0.5626 -0.1974
  161SOPE  H10X18073   3.939   2.984   8.084 -1.8142  0.4620  0.8627
  161SOPE  H10Y18074   3.783   2.913   8.053 -0.0346 -0.4685 -1.1612
  161SOPE  C31118075   3.954   2.781   8.025 -0.0531  0.4721 -0.1384
  161SOPE  H11X18076   3.910   2.680   8.043  2.4898 -0.4498  1.6198
  161SOPE  H11Y18077   4.052   2.768   8.076  0.7833  2.2552 -1.1836
  161SOPE  C31218078   3.981   2.807   7.874  0.3782  0.0870  0.0271
  161SOPE  H12X18079   3.884   2.816   7.820  0.7245 -0.8831 -0.7865
  161SOPE  H12Y18080   4.022   2.716   7.826 -0.1805 -0.9988  1.5406
  161SOPE  C31318081   4.076   2.922   7.851 -0.3532  0.2898  0.0544
  161SOPE  H13X18082   4.166   2.906   7.914 -1.6599 -2.1439  1.4223
  161SOPE  H13Y18083   4.033   3.021   7.879 -1.4505 -0.2829  0.4353
  161SOPE  C31418084   4.114   2.938   7.701 -0.4840 -0.5946 -0.2958
  161SOPE  H14X18085   4.018   2.950   7.646 -0.2513 -0.4156 -0.6581
  161SOPE  H14Y18086   4.163   2.841   7.678 -1.0254 -0.8764 -0.2837
  161SOPE  C31518087   4.217   3.047   7.679 -0.2526 -0.1517 -0.7474
  161SOPE  H15X18088   4.261   3.027   7.579  0.4440  1.9613 -0.9186
  161SOPE  H15Y18089   4.305   3.043   7.747  0.3641  1.7845 -1.3501
  161SOPE  C31618090   4.155   3.190   7.673 -0.0196  0.0184 -0.6848
  161SOPE  H16X18091   4.095   3.212   7.764  1.6532 -0.5933  0.6416
  161SOPE  H16Y18092   4.087   3.191   7.585 -2.6717  0.3309  1.2372
  161SOPE  C31718093   4.256   3.305   7.656 -0.4221 -0.0677 -0.0838
  161SOPE  H17X18094   4.200   3.398   7.631 -1.7743 -1.0748 -0.9798
  161SOPE  H17Y18095   4.320   3.278   7.569  1.5666  0.4839  1.1363
  161SOPE  C31818096   4.342   3.331   7.774  0.1164  0.1201 -0.3707
  161SOPE  H18X18097   4.391   3.238   7.810  1.9593  1.2335  0.1406
  161SOPE  H18Y18098   4.276   3.373   7.852 -0.1521 -0.9981  0.0176
  161SOPE  H18Z18099   4.421   3.401   7.738 -0.4722  0.4300 -1.0846
  162SOPE     N18100   3.766   1.500  10.111 -0.1293 -0.2582 -0.0912
  162SOPE   HN118101   3.807   1.475  10.204  2.1751  1.6887 -0.4815
  162SOPE   HN218102   3.699   1.578  10.129  0.4382 -0.1953  2.0477
  162SOPE   HN318103   3.719   1.417  10.070 -1.0250  0.6209 -0.8854
  162SOPE   C1218104   3.878   1.559  10.029 -0.4354  0.1454 -0.3233
  162SOPE  H12A18105   3.963   1.487  10.032  0.4093  1.0268 -1.7823
  162SOPE  H12B18106   3.925   1.646  10.081  1.7484 -0.7795 -0.6520
  162SOPE   C1118107   3.831   1.603   9.888  0.4598 -0.3005  0.4453
  162SOPE  H11A18108   3.774   1.517   9.845 -0.1255  0.0375  0.5385
  162SOPE  H11B18109   3.927   1.622   9.836  0.0927 -0.0751 -0.1540
  162SOPE     P18110   3.719   1.803   9.759 -0.1190  0.0915 -0.0543
  162SOPE   O1318111   3.819   1.776   9.661  0.0626 -0.2515  0.0300
  162SOPE   O1418112   3.706   1.946   9.805 -0.3975  0.4470  0.0227
  162SOPE   O1218113   3.747   1.725   9.891 -0.6094  0.5597 -0.5573
  162SOPE   O1118114   3.580   1.747   9.706 -0.1912  0.3631 -0.3700
  162SOPE    C118115   3.542   1.606   9.705  0.3036  0.1213 -0.2752
  162SOPE    HA18116   3.506   1.574   9.805  0.4572  1.9833  0.4132
  162SOPE    HB18117   3.640   1.556   9.690  0.8192  0.1599  2.4578
  162SOPE    C218118   3.438   1.581   9.583  0.4119 -0.7720 -0.9976
  162SOPE    HS18119   3.442   1.471   9.570  3.7332 -0.6295 -2.0194
  162SOPE   O2118120   3.482   1.642   9.463  0.2066 -0.7243  1.0575
  162SOPE   C2118121   3.475   1.573   9.357 -0.8574  0.4742  0.7467
  162SOPE   O2218122   3.478   1.452   9.349  0.1791  0.1507 -0.5261
  162SOPE   C2218123   3.472   1.666   9.233 -0.4079 -0.0990  0.1268
  162SOPE   H2R18124   3.532   1.754   9.268  0.3650 -1.0778  1.3529
  162SOPE   H2S18125   3.367   1.701   9.222 -0.4751  0.0007  0.9737
  162SOPE    C318126   3.299   1.631   9.613  0.3717  0.0391 -0.0099
  162SOPE    HX18127   3.317   1.740   9.622  0.2228 -0.0568  1.9098
  162SOPE    HY18128   3.275   1.610   9.720  1.4878 -0.5551  0.1362
  162SOPE   O3118129   3.192   1.603   9.524  1.1766 -0.2305  0.0769
  162SOPE   C3118130   3.138   1.482   9.546  0.0902  0.8854  0.5145
  162SOPE   O3218131   3.155   1.417   9.647 -0.1248  0.1542 -0.5152
  162SOPE   C3218132   3.049   1.447   9.433  0.1818  0.0357  0.5466
  162SOPE   H2X18133   3.018   1.544   9.389  1.1263 -0.1796 -0.6506
  162SOPE   H2Y18134   2.963   1.388   9.472 -0.1369  0.6724  0.8146
  162SOPE   C2318135   3.522   1.604   9.099  0.2566  0.4514  0.5505
  162SOPE   H3R18136   3.629   1.575   9.108  0.3764  1.3988  3.2094
  162SOPE   H3S18137   3.513   1.696   9.037 -0.9523  1.5373  2.2582
  162SOPE   C2418138   3.432   1.487   9.055 -0.1626 -0.1424 -0.3076
  162SOPE   H4R18139   3.444   1.399   9.122  0.7172  0.3903  0.2604
  162SOPE   H4S18140   3.326   1.517   9.069 -0.5499 -1.1355 -0.9869
  162SOPE   C2518141   3.463   1.432   8.912  0.7028  0.0756 -0.0244
  162SOPE   H5R18142   3.452   1.515   8.839  0.6098 -0.2549 -0.3935
  162SOPE   H5S18143   3.572   1.414   8.909  0.6155 -0.5197  0.2357
  162SOPE   C2618144   3.384   1.309   8.864  0.3108  0.0704 -0.4740
  162SOPE   H6R18145   3.403   1.223   8.932 -2.4381  0.5475  1.0596
  162SOPE   H6S18146   3.275   1.332   8.859  0.3554  0.5186  0.4158
  162SOPE   C2718147   3.433   1.258   8.720 -0.2254  0.2468 -0.4094
  162SOPE   H7R18148   3.426   1.343   8.648 -0.8616  0.3508 -0.2290
  162SOPE   H7S18149   3.541   1.234   8.726  0.4531  2.2047 -3.0347
  162SOPE   C2818150   3.352   1.147   8.653 -0.4861  0.6178  0.1837
  162SOPE   H8R18151   3.249   1.183   8.633 -0.5638  0.3138  0.0415
  162SOPE   H8S18152   3.399   1.127   8.554  0.7001 -2.3698  1.2297
  162SOPE   C2918153   3.352   1.020   8.735 -0.8975 -0.1886 -0.0447
  162SOPE   H9118154   3.311   1.024   8.837  0.9487 -3.3720  0.9986
  162SOPE  C21018155   3.381   0.893   8.705  0.1630  0.3489 -0.2750
  162SOPE  H10118156   3.397   0.807   8.771 -3.4555 -0.2623  0.0493
  162SOPE  C21118157   3.429   0.850   8.571 -0.5104 -0.0503  0.4458
  162SOPE  H11R18158   3.382   0.902   8.485 -2.1541 -0.0254  1.3205
  162SOPE  H11S18159   3.402   0.743   8.557 -0.7780  0.2093 -1.3491
  162SOPE  C21218160   3.586   0.856   8.557  0.0351  0.9566  0.4889
  162SOPE  H12R18161   3.630   0.787   8.631 -0.6344 -0.9224 -0.7993
  162SOPE  H12S18162   3.609   0.957   8.598 -1.7125  1.2796  0.7422
  162SOPE  C21318163   3.649   0.834   8.416 -0.0377 -0.2977  0.4263
  162SOPE  H13R18164   3.756   0.862   8.430  0.1935 -0.7888 -0.2887
  162SOPE  H13S18165   3.607   0.909   8.346  1.9902 -1.1282 -1.8478
  162SOPE  C21418166   3.632   0.697   8.358  0.2517 -0.4269 -0.7878
  162SOPE  H14R18167   3.530   0.657   8.339 -0.1125  1.7067 -4.0681
  162SOPE  H14S18168   3.687   0.628   8.426 -0.7379  0.7076  1.2482
  162SOPE  C21518169   3.705   0.684   8.223  0.3510 -0.3732 -0.3780
  162SOPE  H15R18170   3.796   0.748   8.220  0.9458 -1.1737  0.1437
  162SOPE  H15S18171   3.633   0.719   8.147  1.2146 -1.4548 -1.7476
  162SOPE  C21618172   3.743   0.549   8.186 -0.7089  0.7325  0.0658
  162SOPE  H16R18173   3.654   0.483   8.184  0.8238 -1.4623  0.4950
  162SOPE  H16S18174   3.817   0.507   8.259 -2.1892 -3.8786 -0.7947
  162SOPE  C21718175   3.818   0.543   8.047 -0.0043  0.6158 -0.2631
  162SOPE  H17R18176   3.896   0.621   8.056  2.7351 -1.9148 -0.6562
  162SOPE  H17S18177   3.739   0.566   7.972 -0.6948 -2.1102 -0.4558
  162SOPE  C21818178   3.881   0.412   8.003  0.3360 -0.4045 -0.1017
  162SOPE  H18R18179   3.802   0.336   7.984 -0.7479  0.6114  0.2271
  162SOPE  H18S18180   3.942   0.377   8.090 -0.5598 -0.8800  0.3465
  162SOPE  H18T18181   3.940   0.414   7.909 -1.0580 -2.1261 -1.0648
  162SOPE   C3318182   3.125   1.376   9.323 -0.0771  0.1548  1.0945
  162SOPE   H3X18183   3.133   1.267   9.341  1.4775 -0.2869 -1.6720
  162SOPE   H3Y18184   3.223   1.428   9.316  0.0724 -0.0693  1.4962
  162SOPE   C3418185   3.056   1.385   9.187  0.3405  0.0979  0.6282
  162SOPE   H4X18186   3.055   1.482   9.131  0.4154  0.2137  0.8263
  162SOPE   H4Y18187   2.946   1.377   9.197  0.1634 -0.9065 -1.5030
  162SOPE   C3518188   3.092   1.264   9.093 -0.5381  0.9007 -0.7396
  162SOPE   H5X18189   3.063   1.171   9.147  1.9505 -0.0305 -0.8875
  162SOPE   H5Y18190   3.202   1.265   9.082 -0.3651 -0.3277  0.5244
  162SOPE   C3618191   3.018   1.272   8.958  0.6798 -0.2040  1.0535
  162SOPE   H6X18192   3.039   1.183   8.894 -1.1082 -0.7797  1.2336
  162SOPE   H6Y18193   3.063   1.361   8.908  1.7226 -1.1524  0.2477
  162SOPE   C3718194   2.863   1.273   8.952 -0.0930  0.9058  0.3620
  162SOPE   H7X18195   2.827   1.360   9.011  0.0962 -0.0949  2.0191
  162SOPE   H7Y18196   2.846   1.172   8.995 -1.3884  0.5581 -0.8838
  162SOPE   C3818197   2.803   1.276   8.810 -0.4180  0.3558 -0.4697
  162SOPE   H8X18198   2.692   1.277   8.815 -0.4558  1.2867 -1.3678
  162SOPE   H8Y18199   2.835   1.192   8.745  1.3867  1.2678 -0.8276
  162SOPE   C3918200   2.847   1.406   8.745 -0.7828 -0.2723  0.5508
  162SOPE   H9X18201   2.952   1.389   8.714 -0.1110  0.2247  2.4608
  162SOPE   H9Y18202   2.841   1.495   8.811  0.2459 -0.1356  0.4625
  162SOPE  C31018203   2.775   1.443   8.616  0.4196  0.3048  0.2547
  162SOPE  H10X18204   2.822   1.517   8.548  0.1270 -1.8252 -2.4454
  162SOPE  H10Y18205   2.667   1.469   8.626 -0.3555 -2.3486 -0.4977
  162SOPE  C31118206   2.775   1.322   8.517  0.3827 -0.5018 -0.0800
  162SOPE  H11X18207   2.709   1.241   8.555 -1.7374  0.4250 -1.5935
  162SOPE  H11Y18208   2.877   1.277   8.511  1.7288  2.2448  0.4381
  162SOPE  C31218209   2.724   1.363   8.378  0.3780 -0.6146 -0.0553
  162SOPE  H12X18210   2.786   1.438   8.325  0.2098  1.1186  2.0615
  162SOPE  H12Y18211   2.629   1.419   8.396 -0.4100 -1.3481 -1.7083
  162SOPE  C31318212   2.686   1.232   8.301 -0.3071 -0.7901  0.2725
  162SOPE  H13X18213   2.626   1.170   8.371 -1.7325  2.0222  1.7319
  162SOPE  H13Y18214   2.775   1.170   8.280 -0.0500 -0.5723  0.6938
  162SOPE  C31418215   2.619   1.265   8.167 -0.7214  0.1995 -0.8762
  162SOPE  H14X18216   2.666   1.357   8.125  0.4710  0.7765  1.5113
  162SOPE  H14Y18217   2.515   1.291   8.196  0.5384  2.0499  2.6796
  162SOPE  C31518218   2.627   1.156   8.063  0.4954  0.0708  0.7201
  162SOPE  H15X18219   2.544   1.168   7.990 -0.3025 -0.8472  1.4369
  162SOPE  H15Y18220   2.612   1.061   8.119  0.8108  0.2123  1.0518
  162SOPE  C31618221   2.767   1.142   8.006 -0.3373 -0.9482 -0.3918
  162SOPE  H16X18222   2.843   1.123   8.085 -1.1652 -3.1538 -0.0472
  162SOPE  H16Y18223   2.790   1.248   7.981 -0.0848 -0.8289  0.3149
  162SOPE  C31718224   2.781   1.046   7.886  0.5494 -0.5334 -0.2524
  162SOPE  H17X18225   2.772   0.941   7.921  0.6451 -0.3404  0.3706
  162SOPE  H17Y18226   2.883   1.057   7.844  0.7625 -0.6531  0.2333
  162SOPE  C31818227   2.687   1.074   7.772  0.2366  0.9322  0.9320
  162SOPE  H18X18228   2.733   1.014   7.690  0.6012  2.8033 -0.2829
  162SOPE  H18Y18229   2.702   1.183   7.756  1.3507  0.6584 -0.0915
  162SOPE  H18Z18230   2.579   1.049   7.782  0.6896 -0.9438  1.5926
  163SOPE     N18231   4.726   1.459   9.928  0.1564  0.1306  0.0527
  163SOPE   HN118232   4.654   1.518   9.973 -2.4713 -1.5618 -1.5840
  163SOPE   HN218233   4.667   1.403   9.863 -2.5827  0.2364  2.2722
  163SOPE   HN318234   4.768   1.388   9.991  0.6077 -1.9153 -2.3712
  163SOPE   C1218235   4.839   1.518   9.856 -0.3082  0.2924 -0.0917
  163SOPE  H12A18236   4.884   1.437   9.795 -2.5572  0.0176 -1.5292
  163SOPE  H12B18237   4.913   1.559   9.928 -1.0200 -1.7933  1.9609
  163SOPE   C1118238   4.794   1.625   9.760 -0.2606  0.1697  0.2979
  163SOPE  H11A18239   4.888   1.640   9.704  0.5040 -2.2725  0.8114
  163SOPE  H11B18240   4.774   1.715   9.823 -0.1140  0.8018 -0.5316
  163SOPE     P18241   4.686   1.529   9.542 -0.4404  0.5057 -0.4015
  163SOPE   O1318242   4.665   1.635   9.442 -0.3508 -0.4322  0.0167
  163SOPE   O1418243   4.595   1.410   9.531 -0.6186  0.3456  0.3067
  163SOPE   O1218244   4.679   1.591   9.684 -0.5944 -0.2087 -0.1417
  163SOPE   O1118245   4.834   1.484   9.515  0.0003  0.1849  0.0811
  163SOPE    C118246   4.880   1.383   9.426  0.5411  0.9551  0.3816
  163SOPE    HA18247   4.811   1.297   9.415 -0.0270  1.3741  0.6357
  163SOPE    HB18248   4.981   1.343   9.453  0.0674 -2.6932 -2.4040
  163SOPE    C218249   4.900   1.448   9.284 -0.0399 -0.0248 -0.0056
  163SOPE    HS18250   4.942   1.546   9.317 -0.4626  0.0652  0.2737
  163SOPE   O2118251   4.778   1.446   9.209 -0.3839  0.1374 -0.2496
  163SOPE   C2118252   4.759   1.550   9.134 -0.7719 -0.1963  0.3468
  163SOPE   O2218253   4.821   1.658   9.142 -0.4380 -0.1138  0.5634
  163SOPE   C2218254   4.652   1.511   9.035 -0.1392  0.6972  0.0745
  163SOPE   H2R18255   4.565   1.484   9.098 -0.1207 -0.2616 -0.2977
  163SOPE   H2S18256   4.683   1.415   8.990  0.7285  1.0913 -0.1961
  163SOPE    C318257   5.004   1.371   9.200  0.2718 -0.2286  0.4089
  163SOPE    HX18258   4.965   1.267   9.207 -1.6757  0.5030  1.1100
  163SOPE    HY18259   5.096   1.363   9.262  0.1460  2.5959  1.0814
  163SOPE   O3118260   5.030   1.424   9.071 -0.8096  0.7065 -0.1799
  163SOPE   C3118261   5.025   1.339   8.967  0.3208 -0.3648 -0.0684
  163SOPE   O3218262   5.010   1.218   8.968 -0.0321 -0.2748  0.4891
  163SOPE   C3218263   5.028   1.421   8.835 -0.7101 -0.4687 -0.3952
  163SOPE   H2X18264   5.136   1.444   8.818 -0.6002 -1.3088 -0.9040
  163SOPE   H2Y18265   4.973   1.516   8.847  0.0850 -0.1288  0.7803
  163SOPE   C2318266   4.621   1.620   8.935 -0.1338  0.0238  1.1945
  163SOPE   H3R18267   4.617   1.715   8.992 -0.6578 -0.2846  1.6797
  163SOPE   H3S18268   4.522   1.607   8.886  1.1108 -1.1821 -1.1679
  163SOPE   C2418269   4.733   1.635   8.828  0.8990 -0.2657  0.7468
  163SOPE   H4R18270   4.828   1.659   8.879  0.8210  0.2622  0.6477
  163SOPE   H4S18271   4.741   1.541   8.769 -2.1887 -0.6237  0.7407
  163SOPE   C2518272   4.698   1.752   8.734  0.2129 -0.0783  0.5379
  163SOPE   H5R18273   4.686   1.849   8.789 -0.1384  0.4187 -0.3971
  163SOPE   H5S18274   4.776   1.764   8.657 -1.1645 -0.6997 -1.0162
  163SOPE   C2618275   4.562   1.734   8.648  0.9312 -0.7666  0.5516
  163SOPE   H6R18276   4.481   1.690   8.710 -1.7166  0.5515 -1.7166
  163SOPE   H6S18277   4.532   1.835   8.613 -0.1091 -1.2052  0.1414
  163SOPE   C2718278   4.568   1.654   8.516  0.6985 -0.0659  0.2564
  163SOPE   H7R18279   4.635   1.707   8.445 -0.8804 -0.6731 -1.7965
  163SOPE   H7S18280   4.609   1.551   8.529 -1.5024 -0.8676  1.2980
  163SOPE   C2818281   4.428   1.634   8.456  0.3741 -0.1352 -0.2816
  163SOPE   H8R18282   4.371   1.729   8.447  0.0491 -0.3382 -0.3624
  163SOPE   H8S18283   4.447   1.601   8.351  4.1087 -2.6139  0.9533
  163SOPE   C2918284   4.347   1.536   8.537  0.2532 -0.6977  0.0905
  163SOPE   H9118285   4.330   1.565   8.642 -0.5067 -0.8372  0.0143
  163SOPE  C21018286   4.286   1.425   8.490  0.5007 -0.1204  0.2386
  163SOPE  H10118287   4.222   1.365   8.556  2.1640 -2.1833  0.0636
  163SOPE  C21118288   4.294   1.367   8.354 -0.3194  0.0308  0.4963
  163SOPE  H11R18289   4.296   1.257   8.363 -0.3061  0.0221  0.3882
  163SOPE  H11S18290   4.390   1.394   8.303 -0.2105 -1.1936  0.0179
  163SOPE  C21218291   4.179   1.408   8.258 -0.7725  0.4697 -0.4959
  163SOPE  H12R18292   4.092   1.346   8.286 -0.0163  0.4156  1.9374
  163SOPE  H12S18293   4.209   1.358   8.163 -0.1029 -1.9245  0.9000
  163SOPE  C21318294   4.153   1.559   8.245  1.0763  0.7225 -0.4688
  163SOPE  H13R18295   4.248   1.606   8.211  1.5716  1.3489  1.6118
  163SOPE  H13S18296   4.136   1.609   8.343  1.7954  1.2412 -0.6008
  163SOPE  C21418297   4.033   1.602   8.155 -0.2571  0.1118  0.7661
  163SOPE  H14R18298   3.940   1.575   8.207 -0.3605 -0.9320  0.0631
  163SOPE  H14S18299   4.042   1.551   8.056 -0.3888  2.5009 -0.5696
  163SOPE  C21518300   4.036   1.754   8.118  0.4327  0.0515 -0.2794
  163SOPE  H15R18301   4.124   1.765   8.052 -0.3747 -3.0714 -2.0929
  163SOPE  H15S18302   4.060   1.804   8.214  1.5876 -0.2796 -0.3851
  163SOPE  C21618303   3.902   1.802   8.056  0.1786 -0.5291 -0.1364
  163SOPE  H16R18304   3.864   1.888   8.114  0.6457  0.9225 -1.8830
  163SOPE  H16S18305   3.832   1.718   8.072 -0.2766 -0.3007 -0.8931
  163SOPE  C21718306   3.901   1.833   7.906 -0.2000 -1.0851 -0.5613
  163SOPE  H17R18307   3.884   1.741   7.845  1.4016 -1.6244 -0.2380
  163SOPE  H17S18308   3.997   1.880   7.874 -1.1944  2.5393  1.2731
  163SOPE  C21818309   3.778   1.918   7.867  0.4138  0.2465  0.0193
  163SOPE  H18R18310   3.766   1.913   7.757  0.2775  1.4661 -0.0351
  163SOPE  H18S18311   3.790   2.022   7.902  2.3145 -0.1066  0.5472
  163SOPE  H18T18312   3.694   1.877   7.927  0.5412  0.8732  0.6353
  163SOPE   C3318313   4.982   1.336   8.720  0.0190 -0.1760 -0.6636
  163SOPE   H3X18314   4.877   1.313   8.747 -0.5538  0.0168 -2.5656
  163SOPE   H3Y18315   5.037   1.242   8.700  1.1849  0.4165 -0.2980
  163SOPE   C3418316   4.957   1.417   8.586  0.8071 -0.8376  0.1952
  163SOPE   H4X18317   5.054   1.441   8.537  0.6795  4.1231  1.7895
  163SOPE   H4Y18318   4.919   1.516   8.621 -0.1818 -1.1408  0.0039
  163SOPE   C3518319   4.855   1.360   8.484 -0.1873 -0.1214 -0.8462
  163SOPE   H5X18320   4.754   1.357   8.530 -0.5089 -1.2887 -1.5740
  163SOPE   H5Y18321   4.878   1.253   8.460  0.6119 -0.6695  1.9990
  163SOPE   C3618322   4.840   1.442   8.358  0.1373  0.6117  0.4182
  163SOPE   H6X18323   4.936   1.449   8.302  1.0081 -0.3800  1.7098
  163SOPE   H6Y18324   4.799   1.540   8.389 -0.8382 -0.4395  2.6603
  163SOPE   C3718325   4.729   1.384   8.261  0.5272 -0.7312  0.6045
  163SOPE   H7X18326   4.700   1.457   8.184 -3.3931 -0.8549  1.7394
  163SOPE   H7Y18327   4.639   1.364   8.324  1.3881 -2.1170  1.4392
  163SOPE   C3818328   4.782   1.268   8.176  0.3963 -0.2409  0.5202
  163SOPE   H8X18329   4.696   1.197   8.170  1.3335 -1.3879  0.1334
  163SOPE   H8Y18330   4.877   1.227   8.217  0.1195 -0.6639  0.7534
  163SOPE   C3918331   4.800   1.307   8.032  0.4756 -0.9249  0.2552
  163SOPE   H9X18332   4.865   1.397   8.024  1.2511 -1.6235 -2.3844
  163SOPE   H9Y18333   4.699   1.336   7.996  1.4744  0.1411 -1.9119
  163SOPE  C31018334   4.865   1.210   7.931 -0.0165  0.3753  0.4805
  163SOPE  H10X18335   4.799   1.121   7.922  0.6043 -0.0464  0.0148
  163SOPE  H10Y18336   4.966   1.184   7.970  0.2729 -2.8916 -1.9786
  163SOPE  C31118337   4.878   1.270   7.785 -0.7479  0.5684 -0.3272
  163SOPE  H11X18338   4.908   1.193   7.711  0.5112  3.9193 -3.6485
  163SOPE  H11Y18339   4.972   1.330   7.790  1.7506 -3.0256  0.1515
  163SOPE  C31218340   4.755   1.346   7.731 -0.7313  0.4862 -0.4317
  163SOPE  H12X18341   4.787   1.385   7.632  1.2630 -1.6765 -0.7163
  163SOPE  H12Y18342   4.729   1.435   7.792  1.7990  0.7490  0.3712
  163SOPE  C31318343   4.637   1.246   7.701 -0.4464 -0.4118 -0.0004
  163SOPE  H13X18344   4.611   1.192   7.795  0.0656 -0.9380 -0.1559
  163SOPE  H13Y18345   4.673   1.170   7.629 -4.2038  0.1640 -2.7773
  163SOPE  C31418346   4.511   1.309   7.639  0.2023 -0.3027 -0.0512
  163SOPE  H14X18347   4.542   1.349   7.540 -0.3013 -0.7313 -0.3891
  163SOPE  H14Y18348   4.488   1.397   7.703  0.6126 -0.7462  0.7186
  163SOPE  C31518349   4.394   1.213   7.625 -0.8326  0.1789 -0.2028
  163SOPE  H15X18350   4.295   1.264   7.631 -0.9620  0.2384 -2.1645
  163SOPE  H15Y18351   4.386   1.130   7.697  0.7865 -1.0365 -1.3368
  163SOPE  C31618352   4.414   1.140   7.490  0.4067  0.6143 -0.1161
  163SOPE  H16X18353   4.510   1.084   7.494 -0.0915 -0.8233 -4.0430
  163SOPE  H16Y18354   4.433   1.207   7.403  2.4901  0.7499  0.3867
  163SOPE  C31718355   4.294   1.053   7.454  0.3798  0.0193  0.2986
  163SOPE  H17X18356   4.203   1.115   7.443 -1.6303 -2.2968  2.5161
  163SOPE  H17Y18357   4.268   0.988   7.540 -0.9074  0.3134  0.1507
  163SOPE  C31818358   4.323   0.971   7.334  0.7713 -0.1906  0.0902
  163SOPE  H18X18359   4.427   0.942   7.310  0.8430 -0.6529  0.9258
  163SOPE  H18Y18360   4.272   1.003   7.241 -0.0555 -1.5063  0.0746
  163SOPE  H18Z18361   4.263   0.881   7.360  0.6878 -1.1819 -3.0638
  164SOPE     N18362   5.510   4.613   9.909 -0.3318  0.3545  0.0847
  164SOPE   HN118363   5.484   4.628  10.008 -2.2831 -0.7078 -0.2388
  164SOPE   HN218364   5.501   4.516   9.874  0.2921  0.7215 -1.1838
  164SOPE   HN318365   5.610   4.644   9.910 -0.3189  0.3003  1.1146
  164SOPE   C1218366   5.442   4.709   9.815 -0.1164  0.2990 -0.3777
  164SOPE  H12A18367   5.466   4.808   9.860 -0.5076 -0.2200  1.0115
  164SOPE  H12B18368   5.331   4.701   9.813 -0.0601 -5.3557  1.9135
  164SOPE   C1118369   5.507   4.720   9.676 -0.3413  0.1116  0.1719
  164SOPE  H11A18370   5.448   4.779   9.604  3.2800  0.8395 -2.4731
  164SOPE  H11B18371   5.506   4.619   9.629  2.0063  0.5491 -0.9633
  164SOPE     P18372   5.769   4.695   9.678 -0.4651 -0.1630  0.2956
  164SOPE   O1318373   5.772   4.635   9.814  0.1684 -0.1012  0.7562
  164SOPE   O1418374   5.887   4.776   9.628  0.2869 -0.3247 -0.3806
  164SOPE   O1218375   5.636   4.777   9.681  0.1581  0.0777  0.3358
  164SOPE   O1118376   5.736   4.580   9.573 -0.0861  0.0598  0.6600
  164SOPE    C118377   5.834   4.490   9.518 -0.5641 -0.1219 -0.2136
  164SOPE    HA18378   5.780   4.393   9.507 -1.5920  0.2252  1.3062
  164SOPE    HB18379   5.917   4.472   9.590 -1.5930  0.4400  1.1504
  164SOPE    C218380   5.872   4.522   9.371 -0.4447 -0.0340  0.3167
  164SOPE    HS18381   5.901   4.434   9.310 -0.5024  0.7388 -0.8529
  164SOPE   O2118382   5.987   4.620   9.378 -0.3699  0.5353  0.0227
  164SOPE   C2118383   6.103   4.561   9.416  0.1056 -0.2946  0.2332
  164SOPE   O2218384   6.116   4.446   9.451 -0.1687  0.6450  0.3667
  164SOPE   C2218385   6.218   4.653   9.389  0.0749 -0.8963 -0.2471
  164SOPE   H2R18386   6.269   4.678   9.485 -0.9161  0.3525 -0.0077
  164SOPE   H2S18387   6.178   4.748   9.348 -0.6415 -1.6264 -1.2699
  164SOPE    C318388   5.760   4.604   9.297  0.4572  0.7628 -1.0623
  164SOPE    HX18389   5.769   4.711   9.323  1.5174  0.5544 -0.5253
  164SOPE    HY18390   5.661   4.559   9.319  1.8676 -1.2218  1.9325
  164SOPE   O3118391   5.779   4.613   9.158  0.3155 -0.0747 -0.2493
  164SOPE   C3118392   5.685   4.661   9.075  0.4228  0.3220  1.1201
  164SOPE   O3218393   5.584   4.719   9.109 -0.2217 -0.3187 -0.3699
  164SOPE   C3218394   5.737   4.652   8.931 -1.1214  0.1526  0.1767
  164SOPE   H2X18395   5.788   4.747   8.903  0.3363 -0.8047 -0.5101
  164SOPE   H2Y18396   5.649   4.633   8.865  0.6910 -0.5047 -2.1604
  164SOPE   C2318397   6.307   4.583   9.285 -0.5946 -0.3310  0.0870
  164SOPE   H3R18398   6.344   4.486   9.324  3.1154  0.2962 -1.4093
  164SOPE   H3S18399   6.397   4.648   9.276 -0.5191 -0.3140  0.8933
  164SOPE   C2418400   6.240   4.582   9.154 -0.5753 -0.4508  0.2776
  164SOPE   H4R18401   6.142   4.530   9.152 -0.9918  0.1943  2.1209
  164SOPE   H4S18402   6.233   4.688   9.123 -0.7867 -0.1200  1.4379
  164SOPE   C2518403   6.331   4.504   9.059 -0.7799 -0.3788  0.4224
  164SOPE   H5R18404   6.432   4.549   9.051 -0.3667 -1.4288 -0.5241
  164SOPE   H5S18405   6.348   4.405   9.107  1.6157 -0.1735  0.1386
  164SOPE   C2618406   6.272   4.496   8.921 -0.2680  0.0682 -0.3897
  164SOPE   H6R18407   6.182   4.432   8.931 -2.2467  2.5815 -1.0209
  164SOPE   H6S18408   6.249   4.600   8.889  0.1785  0.1624 -0.4234
  164SOPE   C2718409   6.369   4.424   8.823  0.3565 -0.7812 -0.2922
  164SOPE   H7R18410   6.467   4.477   8.828 -0.8115  1.5887 -1.1306
  164SOPE   H7S18411   6.381   4.319   8.857  0.7164 -0.7968 -0.4568
  164SOPE   C2818412   6.322   4.418   8.675 -0.1919 -0.0236 -0.3187
  164SOPE   H8R18413   6.219   4.375   8.666 -0.4149  0.6336 -0.9680
  164SOPE   H8S18414   6.321   4.518   8.627 -0.6367 -0.5140 -1.3777
  164SOPE   C2918415   6.409   4.330   8.583 -0.3523  0.5656 -0.3976
  164SOPE   H9118416   6.515   4.347   8.605 -0.2823 -2.3609  2.0936
  164SOPE  C21018417   6.380   4.233   8.497  0.4638  0.2253  0.2700
  164SOPE  H10118418   6.470   4.177   8.465  1.6181  2.6567 -0.9641
  164SOPE  C21118419   6.244   4.197   8.448 -0.0238 -0.2223 -0.3777
  164SOPE  H11R18420   6.168   4.249   8.509 -0.7393  1.7224 -2.7595
  164SOPE  H11S18421   6.225   4.087   8.457  1.5041 -0.7508 -2.7288
  164SOPE  C21218422   6.231   4.245   8.302  0.2545 -0.3339 -0.0579
  164SOPE  H12R18423   6.293   4.335   8.283 -0.5558  0.5210  1.2181
  164SOPE  H12S18424   6.125   4.270   8.276  0.1279  0.0976  0.8502
  164SOPE  C21318425   6.270   4.145   8.191  0.2178  0.0997  0.3709
  164SOPE  H13R18426   6.370   4.106   8.218 -0.9208 -1.8044  2.2676
  164SOPE  H13S18427   6.282   4.197   8.094  0.5781 -2.8130 -1.2372
  164SOPE  C21418428   6.165   4.038   8.153 -0.1253  0.3302  0.2810
  164SOPE  H14R18429   6.071   4.084   8.115 -1.1925 -0.8641  1.3737
  164SOPE  H14S18430   6.147   3.973   8.241  0.4080 -2.0898 -1.3225
  164SOPE  C21518431   6.206   3.937   8.047  0.6120  0.3929 -0.2329
  164SOPE  H15R18432   6.140   3.848   8.056  0.0833  0.9215  1.6241
  164SOPE  H15S18433   6.303   3.888   8.072  1.2009  1.9002  0.5701
  164SOPE  C21618434   6.212   4.003   7.913  0.1502 -0.2404  0.3397
  164SOPE  H16R18435   6.279   4.092   7.916  0.7275 -0.5778 -1.4576
  164SOPE  H16S18436   6.109   4.036   7.891  0.0971 -0.2457  0.5739
  164SOPE  C21718437   6.256   3.905   7.799  0.1492 -0.4976 -0.5937
  164SOPE  H17R18438   6.172   3.836   7.778  1.1784 -1.8426 -0.4202
  164SOPE  H17S18439   6.344   3.843   7.824  1.6213  2.1724  1.3733
  164SOPE  C21818440   6.281   3.973   7.661 -0.3551 -0.5544 -0.2522
  164SOPE  H18R18441   6.299   3.904   7.576  1.1940 -2.6468  1.6732
  164SOPE  H18S18442   6.369   4.038   7.679 -0.4716 -0.8318  1.4446
  164SOPE  H18T18443   6.197   4.044   7.640  1.4256  1.8681  0.3560
  164SOPE   C3318444   5.846   4.547   8.901 -0.5721  0.1874  0.5122
  164SOPE   H3X18445   5.804   4.448   8.927 -2.4623  0.4043 -1.4998
  164SOPE   H3Y18446   5.938   4.555   8.964 -0.4385 -0.0055  0.3427
  164SOPE   C3418447   5.878   4.516   8.757 -0.3425 -0.2474  0.7622
  164SOPE   H4X18448   5.785   4.502   8.699 -1.2071 -0.8643  2.2496
  164SOPE   H4Y18449   5.935   4.420   8.752  0.3766  0.2301 -2.2657
  164SOPE   C3518450   5.977   4.619   8.696 -0.2325  0.1088 -0.9018
  164SOPE   H5X18451   6.058   4.629   8.771 -1.7443  1.0174  0.7109
  164SOPE   H5Y18452   5.936   4.723   8.690 -1.5906 -0.4477 -1.6182
  164SOPE   C3618453   6.031   4.589   8.560 -0.5887 -0.1911 -0.1467
  164SOPE   H6X18454   6.045   4.479   8.550  0.4491 -0.0376 -0.4823
  164SOPE   H6Y18455   6.131   4.637   8.563 -1.1303  1.1588 -2.0872
  164SOPE   C3718456   5.958   4.637   8.435 -0.4386 -0.4618 -0.5410
  164SOPE   H7X18457   5.927   4.743   8.428  1.1468  0.0204 -0.6206
  164SOPE   H7Y18458   5.871   4.571   8.417 -0.0521 -1.9686  2.4921
  164SOPE   C3818459   6.051   4.608   8.309  0.4146  0.1355 -0.2355
  164SOPE   H8X18460   6.095   4.506   8.312  2.9057  1.1729  1.0348
  164SOPE   H8Y18461   6.133   4.682   8.314 -0.2708  0.9992 -1.2785
  164SOPE   C3918462   5.986   4.629   8.166  0.5759  0.3756 -0.8613
  164SOPE   H9X18463   5.960   4.736   8.182  0.1942  0.0364  1.1418
  164SOPE   H9Y18464   5.889   4.578   8.149 -0.8079  2.9120 -1.1092
  164SOPE  C31018465   6.083   4.618   8.054 -1.1517 -0.4620 -0.0691
  164SOPE  H10X18466   6.117   4.512   8.055  1.4274  0.2632 -1.2086
  164SOPE  H10Y18467   6.163   4.688   8.087 -2.2102  0.3596  0.8372
  164SOPE  C31118468   6.026   4.662   7.919  0.4041 -0.0284  0.1985
  164SOPE  H11X18469   5.981   4.758   7.950 -0.1526 -0.3682  0.4527
  164SOPE  H11Y18470   5.946   4.589   7.892  1.4168 -0.4325 -1.9142
  164SOPE  C31218471   6.125   4.658   7.806  0.4513  0.1686 -0.4590
  164SOPE  H12X18472   6.079   4.657   7.705 -0.3976 -2.6963 -0.1351
  164SOPE  H12Y18473   6.173   4.558   7.819 -0.5944 -0.0822  2.2062
  164SOPE  C31318474   6.226   4.773   7.812 -0.5482 -0.0791  0.6766
  164SOPE  H13X18475   6.291   4.773   7.901  2.7176 -1.3013 -1.5242
  164SOPE  H13Y18476   6.166   4.865   7.794  0.4633  0.1712 -1.8576
  164SOPE  C31418477   6.320   4.774   7.681 -0.5899 -0.2052 -0.3224
  164SOPE  H14X18478   6.366   4.875   7.675 -1.8401  0.3084 -3.5287
  164SOPE  H14Y18479   6.265   4.755   7.587 -0.9846  0.2964 -0.1984
  164SOPE  C31518480   6.443   4.683   7.695 -0.4020  0.2356 -0.3812
  164SOPE  H15X18481   6.407   4.582   7.722 -0.2404  0.7790  2.0396
  164SOPE  H15Y18482   6.513   4.719   7.773 -1.6050  0.6833  0.5207
  164SOPE  C31618483   6.516   4.668   7.565 -0.1328  0.7973  0.5376
  164SOPE  H16X18484   6.595   4.746   7.567  0.7401  0.0040  3.3462
  164SOPE  H16Y18485   6.449   4.684   7.479 -0.8560  0.5363  1.0438
  164SOPE  C31718486   6.592   4.532   7.555  0.2474  0.1380 -0.3375
  164SOPE  H17X18487   6.519   4.451   7.578  0.0513  0.5375  0.4764
  164SOPE  H17Y18488   6.681   4.525   7.621  0.1905 -0.5109 -0.3212
  164SOPE  C31818489   6.655   4.523   7.411  0.5115  0.5008  0.6491
  164SOPE  H18X18490   6.715   4.430   7.404 -1.6755 -0.8966 -1.7096
  164SOPE  H18Y18491   6.711   4.615   7.384  0.5589  1.0534  2.4899
  164SOPE  H18Z18492   6.574   4.518   7.335  0.6742 -0.5611  0.5213
  165SOPE     N18493   4.881   6.108  10.144 -0.3806  0.6245 -0.7786
  165SOPE   HN118494   4.917   6.153  10.231  3.5574 -2.1504 -0.7242
  165SOPE   HN218495   4.851   6.017  10.183 -2.0610  1.8065  0.8295
  165SOPE   HN318496   4.973   6.094  10.096  0.4107  1.1743  0.5188
  165SOPE   C1218497   4.769   6.173  10.065 -0.4520  1.0277 -0.4584
  165SOPE  H12A18498   4.682   6.170  10.134  0.4907  1.6557  0.7808
  165SOPE  H12B18499   4.754   6.106   9.977 -0.5510  1.8217 -1.0577
  165SOPE   C1118500   4.823   6.309  10.027 -0.2353 -0.3998 -0.5767
  165SOPE  H11A18501   4.838   6.383  10.108  2.3267  2.4096 -3.3488
  165SOPE  H11B18502   4.742   6.346   9.961 -0.4536  1.0806  0.4742
  165SOPE     P18503   4.996   6.398   9.848 -0.2536  0.6983  0.4211
  165SOPE   O1318504   5.140   6.414   9.862  0.7674 -0.0661  0.2454
  165SOPE   O1418505   4.919   6.525   9.858  0.0312  0.2942 -0.5085
  165SOPE   O1218506   4.950   6.302   9.959 -0.1499  0.3288  0.0335
  165SOPE   O1118507   4.953   6.337   9.704 -0.4473  0.4844 -0.1732
  165SOPE    C118508   4.888   6.209   9.697  0.8805  0.6947  0.2917
  165SOPE    HA18509   4.793   6.207   9.754 -0.3621 -2.1124 -1.6200
  165SOPE    HB18510   4.955   6.133   9.742 -0.0784 -0.1927  0.2606
  165SOPE    C218511   4.847   6.165   9.556 -0.1312  0.1792  0.2098
  165SOPE    HS18512   4.766   6.089   9.564  0.0964  0.0002  0.9348
  165SOPE   O2118513   4.961   6.115   9.482 -0.4863 -0.1555  0.1528
  165SOPE   C2118514   5.023   6.008   9.534  0.6924  0.3614  0.4877
  165SOPE   O2218515   4.963   5.928   9.603  0.4431 -0.1852 -1.5168
  165SOPE   C2218516   5.163   5.993   9.480  0.2980 -0.7435  0.0820
  165SOPE   H2R18517   5.220   5.943   9.561 -2.8010 -1.0778  2.2334
  165SOPE   H2S18518   5.210   6.087   9.445  0.6392 -1.0841 -0.3860
  165SOPE    C318519   4.783   6.272   9.466  0.0034 -0.0815  0.1116
  165SOPE    HX18520   4.850   6.361   9.459 -0.4029  0.1639 -0.8058
  165SOPE    HY18521   4.682   6.299   9.503  0.5360  0.8166  0.9792
  165SOPE   O3118522   4.778   6.225   9.331  0.4800  0.1206 -0.2637
  165SOPE   C3118523   4.690   6.127   9.304  0.8441  0.5674 -0.6389
  165SOPE   O3218524   4.602   6.100   9.383  0.3015 -0.2808 -0.7748
  165SOPE   C3218525   4.723   6.049   9.175 -0.0478  0.0070 -0.1427
  165SOPE   H2X18526   4.768   5.954   9.210  0.1043  0.1671  0.1089
  165SOPE   H2Y18527   4.797   6.097   9.108 -0.8969  2.1854  0.3892
  165SOPE   C2318528   5.180   5.889   9.362 -0.2444 -0.0729 -0.1484
  165SOPE   H3R18529   5.127   5.796   9.392 -0.8763 -1.1078 -3.9592
  165SOPE   H3S18530   5.289   5.872   9.354 -0.1079  0.2911  0.8043
  165SOPE   C2418531   5.131   5.938   9.223  0.3268  0.7878  0.4203
  165SOPE   H4R18532   5.022   5.960   9.215 -0.4184 -1.7816  2.0769
  165SOPE   H4S18533   5.187   6.024   9.180 -0.4547  1.7501  1.2762
  165SOPE   C2518534   5.151   5.820   9.119 -0.0039 -0.0661 -0.4253
  165SOPE   H5R18535   5.261   5.812   9.104  0.2564  1.6425  0.3237
  165SOPE   H5S18536   5.115   5.730   9.173  0.8887  0.3130  0.8503
  165SOPE   C2618537   5.080   5.848   8.984  0.4691 -0.3985 -0.4844
  165SOPE   H6R18538   4.974   5.847   9.018  0.7587 -1.0782  0.4397
  165SOPE   H6S18539   5.118   5.943   8.941 -0.3705 -1.0715 -2.8691
  165SOPE   C2718540   5.112   5.734   8.887  0.3301 -0.1683 -0.1610
  165SOPE   H7R18541   5.216   5.745   8.851  0.0779  1.0310 -0.5595
  165SOPE   H7S18542   5.111   5.640   8.946  1.0821 -1.1193 -1.6127
  165SOPE   C2818543   5.011   5.723   8.775 -0.8802 -0.0242 -0.1304
  165SOPE   H8R18544   5.045   5.636   8.714 -1.3267  1.2316 -2.2682
  165SOPE   H8S18545   4.908   5.694   8.803 -1.6103  2.0819 -0.5090
  165SOPE   C2918546   5.007   5.844   8.682 -0.8695 -0.6083  0.0628
  165SOPE   H9118547   4.930   5.918   8.709  0.6645  0.8091  0.7583
  165SOPE  C21018548   5.096   5.887   8.581  0.2250  0.0700 -0.4887
  165SOPE  H10118549   5.060   5.975   8.525 -1.6973  1.6141  2.8755
  165SOPE  C21118550   5.223   5.827   8.528  0.0795 -0.8911 -0.0239
  165SOPE  H11R18551   5.264   5.742   8.586  1.5922 -2.4884 -3.1549
  165SOPE  H11S18552   5.297   5.909   8.513 -0.3297 -0.5478 -0.2097
  165SOPE  C21218553   5.183   5.750   8.397 -0.8293 -0.2213 -0.3701
  165SOPE  H12R18554   5.093   5.688   8.417 -2.5675  2.3470  0.3596
  165SOPE  H12S18555   5.264   5.677   8.375 -1.2344 -0.1314 -2.2828
  165SOPE  C21318556   5.173   5.835   8.280 -0.3154  0.2158  0.1024
  165SOPE  H13R18557   5.251   5.913   8.287  0.0995 -0.2155  0.3256
  165SOPE  H13S18558   5.072   5.881   8.284 -0.4817 -0.2062  1.1920
  165SOPE  C21418559   5.181   5.753   8.150  0.5130 -0.7366 -0.4123
  165SOPE  H14R18560   5.102   5.676   8.149  0.0267 -0.3100  1.7162
  165SOPE  H14S18561   5.276   5.694   8.156  0.4411 -0.7853  0.2321
  165SOPE  C21518562   5.168   5.844   8.028 -0.8838 -0.5191  0.2796
  165SOPE  H15R18563   5.258   5.909   8.028 -1.2849  0.0600 -0.4675
  165SOPE  H15S18564   5.078   5.910   8.031  0.0753  1.0233 -2.1100
  165SOPE  C21618565   5.167   5.767   7.890 -0.6223 -0.1018  0.0731
  165SOPE  H16R18566   5.136   5.835   7.808  0.7706 -1.1719 -1.4225
  165SOPE  H16S18567   5.093   5.684   7.882  0.3322 -0.8338 -2.2475
  165SOPE  C21718568   5.308   5.718   7.848 -0.4082 -0.6463  0.1407
  165SOPE  H17R18569   5.341   5.644   7.924  1.0477  0.3224  0.4808
  165SOPE  H17S18570   5.379   5.802   7.856  0.3145 -1.1972 -0.2722
  165SOPE  C21818571   5.313   5.665   7.701 -0.2273  0.2013 -0.3647
  165SOPE  H18R18572   5.255   5.728   7.630  0.8967  1.4829 -0.1875
  165SOPE  H18S18573   5.272   5.562   7.706 -2.1414  0.9414  0.0646
  165SOPE  H18T18574   5.414   5.660   7.654  0.0464  2.7986 -0.2197
  165SOPE   C3318575   4.594   6.020   9.102 -0.1397  0.2635  0.6672
  165SOPE   H3X18576   4.553   6.122   9.086 -0.8133  0.0034  0.7013
  165SOPE   H3Y18577   4.528   5.964   9.171 -1.6644  1.9946  0.6907
  165SOPE   C3418578   4.615   5.969   8.961 -0.0451  0.2032 -0.3296
  165SOPE   H4X18579   4.514   5.941   8.922  0.1774 -0.0815 -0.7148
  165SOPE   H4Y18580   4.660   5.867   8.969 -2.1752 -0.7423  0.4364
  165SOPE   C3518581   4.695   6.068   8.874 -0.2225  0.0512 -0.2924
  165SOPE   H5X18582   4.804   6.060   8.890 -0.4817 -0.2905  1.5200
  165SOPE   H5Y18583   4.668   6.172   8.903  3.8828  1.2984 -0.4136
  165SOPE   C3618584   4.670   6.043   8.726  0.2282 -0.7877 -0.1591
  165SOPE   H6X18585   4.560   6.045   8.713  0.0439 -1.1491  1.1209
  165SOPE   H6Y18586   4.697   5.937   8.707 -1.1583 -0.9024 -1.6301
  165SOPE   C3718587   4.744   6.144   8.638 -0.5254 -0.0248  0.0407
  165SOPE   H7X18588   4.854   6.143   8.653 -0.1153 -0.5453 -2.4498
  165SOPE   H7Y18589   4.701   6.244   8.656  0.7943  0.4901  0.4827
  165SOPE   C3818590   4.718   6.106   8.486  0.2663 -0.2983 -0.6790
  165SOPE   H8X18591   4.611   6.113   8.457  0.6201  0.5482 -1.8501
  165SOPE   H8Y18592   4.738   5.997   8.478 -0.2144 -0.3136 -1.9889
  165SOPE   C3918593   4.795   6.190   8.389 -0.4106  0.2150  0.3290
  165SOPE   H9X18594   4.903   6.205   8.415  0.2810  0.9366 -2.6198
  165SOPE   H9Y18595   4.742   6.287   8.401 -1.2029 -0.4086  2.1530
  165SOPE  C31018596   4.782   6.145   8.240 -0.0006  0.9399 -0.1740
  165SOPE  H10X18597   4.675   6.130   8.214 -0.5497  2.7798  0.8530
  165SOPE  H10Y18598   4.845   6.053   8.240 -1.2763  0.0234 -0.7799
  165SOPE  C31118599   4.855   6.254   8.153 -0.1672  0.4195  0.1775
  165SOPE  H11X18600   4.944   6.279   8.215 -1.1907  0.6689  1.6132
  165SOPE  H11Y18601   4.781   6.337   8.144 -0.4915  0.1880  0.6755
  165SOPE  C31218602   4.902   6.214   8.016 -0.7024  0.5938  0.2795
  165SOPE  H12X18603   4.813   6.164   7.972  0.8367 -1.0986 -1.0392
  165SOPE  H12Y18604   4.975   6.130   8.018  1.1839  2.1509  0.3529
  165SOPE  C31318605   4.963   6.322   7.924  0.3475  0.2974 -0.1013
  165SOPE  H13X18606   5.050   6.370   7.973 -0.2717  2.5089 -1.0712
  165SOPE  H13Y18607   4.898   6.410   7.907 -0.0602 -0.1245 -0.7752
  165SOPE  C31418608   5.012   6.272   7.784  0.0661 -0.5481 -0.1346
  165SOPE  H14X18609   4.928   6.250   7.715 -2.0933  3.0085  1.1289
  165SOPE  H14Y18610   5.067   6.178   7.805 -0.3762 -0.5926  0.8269
  165SOPE  C31518611   5.075   6.379   7.706  0.4350 -0.5844  0.5703
  165SOPE  H15X18612   5.139   6.442   7.771  0.4262  0.2629 -0.2143
  165SOPE  H15Y18613   5.001   6.448   7.660  1.0260 -1.7617 -2.4092
  165SOPE  C31618614   5.170   6.338   7.580 -0.5112 -0.3133  0.0618
  165SOPE  H16X18615   5.273   6.320   7.615  0.0454  2.7870  0.2480
  165SOPE  H16Y18616   5.177   6.437   7.531 -1.1803 -0.2567  0.0608
  165SOPE  C31718617   5.115   6.230   7.485  0.4486 -0.4567  0.3123
  165SOPE  H17X18618   5.113   6.143   7.554 -1.1549 -0.6750  0.0234
  165SOPE  H17Y18619   5.183   6.205   7.401  0.1961  1.2537 -0.4443
  165SOPE  C31818620   4.977   6.249   7.426  0.3477  0.2940 -0.6819
  165SOPE  H18X18621   4.943   6.161   7.368  2.0892 -1.7569  1.2378
  165SOPE  H18Y18622   4.962   6.344   7.371  0.3482  0.2618 -0.7376
  165SOPE  H18Z18623   4.905   6.255   7.510 -0.4123 -0.8923 -1.2359
  166SOPE     N18624   6.987   6.337   9.928  0.0057  0.6424 -0.5742
  166SOPE   HN118625   7.066   6.404   9.916  0.7741 -0.4559 -1.9446
  166SOPE   HN218626   6.934   6.345   9.839 -0.0554  2.3437 -0.4304
  166SOPE   HN318627   6.923   6.371  10.002  1.3990  1.4145  0.3169
  166SOPE   C1218628   7.039   6.200   9.955  0.2292  0.3627 -0.2930
  166SOPE  H12A18629   6.950   6.133   9.957  0.5109 -0.0447 -0.8570
  166SOPE  H12B18630   7.099   6.211  10.048 -2.1130 -1.3084  1.5368
  166SOPE   C1118631   7.121   6.146   9.833 -0.2016 -0.7041  0.4943
  166SOPE  H11A18632   7.048   6.141   9.749  0.2015 -1.1555  0.1632
  166SOPE  H11B18633   7.147   6.038   9.841  0.6220 -0.7158 -1.6173
  166SOPE     P18634   7.345   6.177   9.696  0.0851  0.3524 -0.0923
  166SOPE   O1318635   7.390   6.038   9.737  0.4976  0.5229 -0.0162
  166SOPE   O1418636   7.444   6.282   9.691  0.2994 -0.4637  0.5414
  166SOPE   O1218637   7.229   6.232   9.794  0.1281 -0.0517  0.6953
  166SOPE   O1118638   7.255   6.163   9.564 -0.1564 -0.4564  0.0332
  166SOPE    C118639   7.204   6.287   9.513 -0.3486  0.0799  0.1766
  166SOPE    HA18640   7.289   6.335   9.461 -1.6169  1.3850 -0.7646
  166SOPE    HB18641   7.169   6.351   9.597 -0.5328  0.7939 -0.4360
  166SOPE    C218642   7.097   6.269   9.401 -0.3420  0.5970  0.0111
  166SOPE    HS18643   7.024   6.199   9.447  0.1622 -1.1087 -1.6667
  166SOPE   O2118644   7.167   6.197   9.293  0.1928 -0.7056  0.1353
  166SOPE   C2118645   7.085   6.110   9.232 -0.5580 -0.8029 -0.0338
  166SOPE   O2218646   6.975   6.079   9.270 -0.1598 -0.0248 -0.5493
  166SOPE   C2218647   7.165   6.068   9.107  0.0826  0.7993 -0.4954
  166SOPE   H2R18648   7.225   5.981   9.141 -2.7097 -0.0982  2.6847
  166SOPE   H2S18649   7.235   6.147   9.073  1.2222  0.1195  0.2099
  166SOPE    C318650   7.042   6.408   9.360  0.2843  0.5546 -0.2583
  166SOPE    HX18651   7.125   6.463   9.312 -0.0209  0.3905 -0.9921
  166SOPE    HY18652   7.003   6.466   9.447 -0.6480  1.4811 -1.2620
  166SOPE   O3118653   6.931   6.400   9.265  0.9885  0.2002  0.1457
  166SOPE   C3118654   6.814   6.385   9.309  1.1985 -0.5598  0.6785
  166SOPE   O3218655   6.774   6.397   9.426 -0.0645  0.0993  0.4195
  166SOPE   C3218656   6.722   6.373   9.186  0.0831  0.0070  0.6801
  166SOPE   H2X18657   6.787   6.373   9.096 -0.1646 -0.1628  0.4999
  166SOPE   H2Y18658   6.663   6.467   9.185  0.2171  0.1153 -0.9426
  166SOPE   C2318659   7.066   6.018   8.995 -0.0044  0.5611  0.1296
  166SOPE   H3R18660   6.998   6.101   8.965  0.7347  1.3967  0.7260
  166SOPE   H3S18661   7.004   5.937   9.039  0.1658  0.0639 -0.5374
  166SOPE   C2418662   7.153   5.968   8.877 -0.5260 -0.0594  0.2318
  166SOPE   H4R18663   7.219   6.051   8.844  0.6475 -0.7848  0.7041
  166SOPE   H4S18664   7.215   5.882   8.911 -1.2304 -1.6340 -2.2006
  166SOPE   C2518665   7.063   5.924   8.766 -0.5470  0.5979 -0.1087
  166SOPE   H5R18666   6.977   5.867   8.808  1.3463 -0.8697  1.9956
  166SOPE   H5S18667   7.010   6.009   8.718 -0.5520  2.0448  2.3058
  166SOPE   C2618668   7.148   5.845   8.662  0.7569  0.0022 -0.0519
  166SOPE   H6R18669   7.224   5.920   8.633 -0.3657  1.4061  0.4947
  166SOPE   H6S18670   7.187   5.763   8.727 -1.6706 -1.1761  0.0423
  166SOPE   C2718671   7.068   5.788   8.547  0.2406 -0.5601 -0.3536
  166SOPE   H7R18672   7.013   5.703   8.593  0.8955 -0.5147  0.5170
  166SOPE   H7S18673   6.992   5.854   8.500 -0.2515 -1.0153 -0.2210
  166SOPE   C2818674   7.162   5.729   8.440 -0.0786  0.3492  0.0730
  166SOPE   H8R18675   7.214   5.816   8.393 -0.7902 -0.6098 -2.6639
  166SOPE   H8S18676   7.242   5.666   8.484 -0.8362 -0.1843  0.7125
  166SOPE   C2918677   7.081   5.656   8.332 -0.2470  0.6874 -0.6665
  166SOPE   H9118678   6.977   5.627   8.355  0.3020 -0.4614  0.5199
  166SOPE  C21018679   7.114   5.662   8.202  0.1404 -0.2599 -0.9172
  166SOPE  H10118680   7.059   5.612   8.121  1.1415 -0.8921 -1.2229
  166SOPE  C21118681   7.230   5.728   8.135 -0.3966 -0.2824 -0.1763
  166SOPE  H11R18682   7.261   5.660   8.053  1.7931  1.0777 -0.5669
  166SOPE  H11S18683   7.313   5.747   8.207 -0.9451  0.7117  0.2056
  166SOPE  C21218684   7.194   5.871   8.077 -0.2174  0.0069  0.5428
  166SOPE  H12R18685   7.292   5.921   8.062 -0.3620  0.6483  1.6078
  166SOPE  H12S18686   7.134   5.929   8.151 -0.0381 -0.8535  1.3815
  166SOPE  C21318687   7.122   5.867   7.944  0.1949  0.6836  0.1194
  166SOPE  H13R18688   7.026   5.821   7.978  1.2658 -0.7720  1.2958
  166SOPE  H13S18689   7.170   5.801   7.869 -1.3330 -0.1790 -0.1561
  166SOPE  C21418690   7.113   6.002   7.881  0.0864  0.5833 -0.0552
  166SOPE  H14R18691   7.217   6.033   7.857  0.9493 -1.2284  1.0649
  166SOPE  H14S18692   7.070   6.074   7.954 -0.3576  0.8958 -0.6215
  166SOPE  C21518693   7.025   5.982   7.756 -0.1282  0.6468 -0.4301
  166SOPE  H15R18694   6.936   5.926   7.791  1.2565 -0.6189  1.2481
  166SOPE  H15S18695   7.070   5.905   7.689  1.0247 -0.3040  1.3529
  166SOPE  C21618696   6.977   6.105   7.680 -0.3115  0.4806 -0.2193
  166SOPE  H16R18697   7.069   6.165   7.661  1.4103 -1.7095  0.8239
  166SOPE  H16S18698   6.902   6.149   7.750  0.0894  0.4674  0.2172
  166SOPE  C21718699   6.905   6.065   7.544 -0.3979  0.0152  0.0283
  166SOPE  H17R18700   6.831   5.988   7.574 -0.2626 -0.0947  0.0787
  166SOPE  H17S18701   6.975   6.004   7.482 -0.7970  0.6046 -1.0296
  166SOPE  C21818702   6.865   6.186   7.469  0.0714 -0.4724  0.6148
  166SOPE  H18R18703   6.783   6.246   7.514  0.6984  1.6677 -0.9375
  166SOPE  H18S18704   6.838   6.176   7.362  0.9756  0.6366  0.2543
  166SOPE  H18T18705   6.954   6.253   7.471  1.9795 -2.8657  1.3514
  166SOPE   C3318706   6.633   6.244   9.187  0.0132 -0.6617 -0.3430
  166SOPE   H3X18707   6.560   6.245   9.271 -0.1506 -0.2891 -0.4919
  166SOPE   H3Y18708   6.700   6.156   9.201  0.9793  0.0416 -0.3857
  166SOPE   C3418709   6.560   6.226   9.052  0.6147  0.1652  0.7294
  166SOPE   H4X18710   6.485   6.306   9.031 -0.6476 -1.1657 -0.0206
  166SOPE   H4Y18711   6.503   6.131   9.056 -0.3715  0.5998 -1.5386
  166SOPE   C3518712   6.660   6.205   8.939  0.2384  0.3831 -0.1966
  166SOPE   H5X18713   6.628   6.112   8.887  0.2083  0.3449 -0.1084
  166SOPE   H5Y18714   6.766   6.182   8.961  0.0258  0.8423  1.4802
  166SOPE   C3618715   6.652   6.324   8.839  0.0179  0.3883  0.7972
  166SOPE   H6X18716   6.707   6.414   8.876  1.6390 -1.4196  3.0478
  166SOPE   H6Y18717   6.544   6.346   8.828 -0.1200 -1.0463 -1.2002
  166SOPE   C3718718   6.705   6.281   8.701 -0.4310 -0.0663 -0.3322
  166SOPE   H7X18719   6.701   6.363   8.626  2.3523 -0.3508 -0.8953
  166SOPE   H7Y18720   6.658   6.186   8.668  1.3515 -1.4131  0.8054
  166SOPE   C3818721   6.864   6.247   8.711 -0.4619  0.0766 -1.0128
  166SOPE   H8X18722   6.880   6.176   8.628 -1.5248  0.5614 -1.6637
  166SOPE   H8Y18723   6.894   6.190   8.801 -0.8741  1.7634  0.2591
  166SOPE   C3918724   6.949   6.376   8.685  0.5611  0.0315  0.2457
  166SOPE   H9X18725   6.928   6.458   8.757  0.5851  1.4017 -1.2618
  166SOPE   H9Y18726   6.937   6.403   8.578  0.2236 -1.2148 -0.0534
  166SOPE  C31018727   7.095   6.340   8.706  0.0902 -0.2660  0.3697
  166SOPE  H10X18728   7.132   6.265   8.633  0.3954  0.2339  0.0020
  166SOPE  H10Y18729   7.105   6.301   8.810  1.0717 -3.7751 -0.8850
  166SOPE  C31118730   7.200   6.451   8.692  0.9725  0.0238  0.3665
  166SOPE  H11X18731   7.296   6.397   8.685  1.0117  0.2666 -1.3576
  166SOPE  H11Y18732   7.211   6.510   8.786 -0.7432 -2.2576  2.1457
  166SOPE  C31218733   7.197   6.527   8.562  0.0995  0.0994 -0.8637
  166SOPE  H12X18734   7.106   6.591   8.565 -0.6895 -1.0104 -0.0224
  166SOPE  H12Y18735   7.187   6.452   8.480  0.7858 -1.7604  0.6845
  166SOPE  C31318736   7.323   6.616   8.539  0.9482 -0.1001  0.8736
  166SOPE  H13X18737   7.420   6.565   8.521 -0.0898 -2.6503  2.0933
  166SOPE  H13Y18738   7.336   6.682   8.627 -0.5952  0.1789  0.9127
  166SOPE  C31418739   7.301   6.708   8.415  0.0444 -0.5488 -0.0310
  166SOPE  H14X18740   7.208   6.763   8.444  0.1286 -0.4333  0.0224
  166SOPE  H14Y18741   7.289   6.646   8.324 -0.2630  0.0401 -0.3983
  166SOPE  C31518742   7.410   6.813   8.393 -0.3890  0.6431 -0.2875
  166SOPE  H15X18743   7.509   6.763   8.389  0.1497  1.4961  1.4008
  166SOPE  H15Y18744   7.412   6.877   8.484  2.0530  0.5431 -0.1989
  166SOPE  C31618745   7.398   6.900   8.273  0.8440 -0.6097 -0.2599
  166SOPE  H16X18746   7.423   7.008   8.289  1.3337 -0.8792  0.9326
  166SOPE  H16Y18747   7.288   6.905   8.254  0.7879 -0.6918  0.0388
  166SOPE  C31718748   7.471   6.858   8.146  0.5631  0.6071 -0.1381
  166SOPE  H17X18749   7.410   6.768   8.121 -2.0929  2.2001  0.2513
  166SOPE  H17Y18750   7.573   6.817   8.161 -0.1116 -1.5399 -1.0082
  166SOPE  C31818751   7.474   6.954   8.026 -0.0688  0.1426 -1.1203
  166SOPE  H18X18752   7.536   7.045   8.033  0.7223 -0.4901  0.7184
  166SOPE  H18Y18753   7.367   6.985   8.022  0.3006  1.5955 -0.4104
  166SOPE  H18Z18754   7.505   6.895   7.938  0.2671 -0.3497 -0.6814
  167SOPE     N18755   5.344   3.030   5.723 -0.3062  0.6990 -0.6136
  167SOPE   HN118756   5.287   2.974   5.790  0.6018 -0.4263 -0.7515
  167SOPE   HN218757   5.447   3.013   5.723 -0.1075  1.7538 -1.9385
  167SOPE   HN318758   5.331   3.128   5.755  0.6572  1.5630 -2.7049
  167SOPE   C1218759   5.308   3.006   5.579  0.0314  0.4124  0.1101
  167SOPE  H12A18760   5.200   3.030   5.578 -0.9768 -3.3018 -2.5025
  167SOPE  H12B18761   5.328   2.897   5.565  0.7807  0.6675 -0.9466
  167SOPE   C1118762   5.401   3.085   5.490  0.2314  0.0662 -0.0581
  167SOPE  H11A18763   5.382   3.035   5.393  1.2180 -0.9779  0.2556
  167SOPE  H11B18764   5.509   3.064   5.507  0.4249  0.0827 -1.1847
  167SOPE     P18765   5.430   3.320   5.383 -0.1296 -0.0645 -0.0093
  167SOPE   O1318766   5.325   3.336   5.282  0.0355  0.0173  0.2288
  167SOPE   O1418767   5.562   3.280   5.337 -0.7193 -0.5161  0.6165
  167SOPE   O1218768   5.373   3.229   5.502  0.2868  0.1367  0.1030
  167SOPE   O1118769   5.436   3.458   5.452 -1.0335  0.0078 -0.6464
  167SOPE    C118770   5.351   3.474   5.567 -0.4383 -0.4967  0.0055
  167SOPE    HA18771   5.264   3.405   5.569  0.7847 -2.1060 -0.6579
  167SOPE    HB18772   5.311   3.576   5.587 -0.7428 -0.7809  0.8731
  167SOPE    C218773   5.429   3.449   5.699 -0.2400  0.1243 -0.1347
  167SOPE    HS18774   5.479   3.349   5.700 -1.3861 -0.4841 -1.1364
  167SOPE   O2118775   5.345   3.485   5.807  0.6452  0.6529 -0.3232
  167SOPE   C2118776   5.284   3.379   5.866 -0.2891  0.7878  0.6404
  167SOPE   O2218777   5.288   3.262   5.832  0.1886  0.2166  0.3958
  167SOPE   C2218778   5.213   3.428   5.990 -0.2100 -0.7210 -0.3891
  167SOPE   H2R18779   5.103   3.436   5.976 -0.4609 -3.0160 -0.0407
  167SOPE   H2S18780   5.254   3.527   6.021 -1.1171 -0.8045  1.1807
  167SOPE    C318781   5.555   3.544   5.707 -0.3319  0.4317  0.2053
  167SOPE    HX18782   5.554   3.603   5.614  1.7718 -3.1483 -2.3293
  167SOPE    HY18783   5.649   3.485   5.703 -1.5486 -1.6222 -4.4239
  167SOPE   O3118784   5.537   3.634   5.816  0.3401  0.0405  0.4558
  167SOPE   C3118785   5.587   3.586   5.930 -0.3171 -0.2432 -0.5722
  167SOPE   O3218786   5.662   3.493   5.945 -0.4587  0.1063  0.1582
  167SOPE   C3218787   5.534   3.678   6.037  0.4989 -0.7958 -0.6146
  167SOPE   H2X18788   5.425   3.658   6.027  0.4147 -1.7385  1.6075
  167SOPE   H2Y18789   5.562   3.783   6.014 -0.3505 -0.1121  1.2521
  167SOPE   C2318790   5.228   3.337   6.117  0.0507  0.0210 -0.2007
  167SOPE   H3R18791   5.334   3.317   6.144  0.0571  0.5779  0.2034
  167SOPE   H3S18792   5.188   3.237   6.093 -0.1749 -0.0942  0.6071
  167SOPE   C2418793   5.154   3.370   6.248 -0.3071 -0.3865  0.6060
  167SOPE   H4R18794   5.049   3.368   6.213 -0.4166  1.3193  0.7344
  167SOPE   H4S18795   5.179   3.283   6.312  3.1124  0.0639  0.0888
  167SOPE   C2518796   5.209   3.493   6.317 -0.0333  0.2091  0.0383
  167SOPE   H5R18797   5.305   3.523   6.269 -0.8608  0.1982 -1.6698
  167SOPE   H5S18798   5.145   3.582   6.303  1.7484  1.3325 -1.4103
  167SOPE   C2618799   5.216   3.478   6.472  0.1944  0.2879 -0.4474
  167SOPE   H6R18800   5.285   3.401   6.511  0.4990  1.9005  2.4686
  167SOPE   H6S18801   5.253   3.570   6.522  2.1637 -0.2487 -0.8299
  167SOPE   C2718802   5.084   3.430   6.526  0.9694  0.2204 -0.6907
  167SOPE   H7R18803   5.007   3.478   6.463  2.4370  0.6990 -2.1775
  167SOPE   H7S18804   5.065   3.324   6.497 -0.8310 -0.2922  1.9331
  167SOPE   C2818805   5.056   3.447   6.672 -0.4035  0.3872  0.1264
  167SOPE   H8R18806   4.966   3.395   6.712  1.5839 -1.0660  3.0192
  167SOPE   H8S18807   5.140   3.393   6.719  0.4244  1.7520  0.2553
  167SOPE   C2918808   5.056   3.588   6.724  0.6320  0.0403  0.5891
  167SOPE   H9118809   5.044   3.660   6.641 -0.1141 -1.7537 -0.9453
  167SOPE  C21018810   5.068   3.622   6.850 -0.0817 -0.0771  0.0567
  167SOPE  H10118811   5.065   3.728   6.878  2.1599  0.1815 -0.4818
  167SOPE  C21118812   5.097   3.533   6.972 -0.1313 -0.5332 -0.2568
  167SOPE  H11R18813   5.200   3.549   7.008  0.5440 -0.1582 -2.2428
  167SOPE  H11S18814   5.092   3.424   6.948  0.3565 -0.5543 -0.2574
  167SOPE  C21218815   5.008   3.575   7.090  0.6342  0.1776  0.0119
  167SOPE  H12R18816   4.903   3.574   7.055  0.2298 -1.1673  1.1411
  167SOPE  H12S18817   5.032   3.677   7.127  1.8880  0.6328 -1.9501
  167SOPE  C21318818   5.022   3.485   7.216 -0.0589 -0.8808  0.1653
  167SOPE  H13R18819   5.132   3.470   7.218  0.0611 -0.0711 -0.0938
  167SOPE  H13S18820   4.986   3.380   7.205 -0.7946 -0.7367  1.0234
  167SOPE  C21418821   4.968   3.544   7.344  0.1293 -0.5688  0.6231
  167SOPE  H14R18822   5.012   3.645   7.352 -0.4766 -0.2081 -0.3816
  167SOPE  H14S18823   4.996   3.483   7.433  0.9643 -0.6913  0.2822
  167SOPE  C21518824   4.813   3.565   7.341  0.2002  0.7439 -0.6917
  167SOPE  H15R18825   4.765   3.469   7.312 -0.8932  1.0208  0.1437
  167SOPE  H15S18826   4.783   3.635   7.261 -0.4659  0.3859 -0.7615
  167SOPE  C21618827   4.755   3.607   7.475  0.6778  0.5244 -0.0368
  167SOPE  H16R18828   4.645   3.616   7.467  0.5892  0.3725  0.9095
  167SOPE  H16S18829   4.797   3.704   7.509  0.6783  0.0587  1.3534
  167SOPE  C21718830   4.771   3.503   7.588 -0.0394 -0.5268  0.4204
  167SOPE  H17R18831   4.708   3.535   7.673 -2.0256 -1.5815 -0.6030
  167SOPE  H17S18832   4.873   3.505   7.632  0.1763  1.7664 -0.0504
  167SOPE  C21818833   4.723   3.359   7.558 -0.1205  0.1140  0.1437
  167SOPE  H18R18834   4.786   3.314   7.478 -1.5791 -2.0466  0.1348
  167SOPE  H18S18835   4.613   3.350   7.541 -0.3464  1.9407  0.4441
  167SOPE  H18T18836   4.753   3.296   7.644 -1.6473 -0.0170  0.6115
  167SOPE   C3318837   5.564   3.651   6.185 -0.1890  0.7782 -0.4501
  167SOPE   H3X18838   5.673   3.645   6.204 -0.2929 -2.9858 -0.4603
  167SOPE   H3Y18839   5.508   3.561   6.218 -1.3464  1.0605 -1.5790
  167SOPE   C3418840   5.516   3.761   6.284  0.0693  0.5216 -0.1529
  167SOPE   H4X18841   5.410   3.783   6.259  0.6037  1.1130 -2.1091
  167SOPE   H4Y18842   5.568   3.856   6.260  1.5191 -0.1735  0.1224
  167SOPE   C3518843   5.528   3.732   6.432  0.1461  0.1183 -0.7560
  167SOPE   H5X18844   5.631   3.721   6.472  0.3053  0.4464 -1.0736
  167SOPE   H5Y18845   5.460   3.645   6.445 -0.3947  0.6724  0.2980
  167SOPE   C3618846   5.455   3.830   6.524  0.0164 -0.6257  0.2497
  167SOPE   H6X18847   5.367   3.856   6.462  1.7131  0.1677 -1.9853
  167SOPE   H6Y18848   5.509   3.926   6.539 -0.9505  0.3036 -1.8409
  167SOPE   C3718849   5.405   3.785   6.664 -0.0719  1.0447  0.2954
  167SOPE   H7X18850   5.341   3.695   6.648  1.6398 -0.0995 -0.4976
  167SOPE   H7Y18851   5.339   3.865   6.704  2.1115  2.3388  1.5085
  167SOPE   C3818852   5.512   3.747   6.768  0.5171 -0.1146 -0.0625
  167SOPE   H8X18853   5.576   3.836   6.785  0.6510  0.0140 -1.1542
  167SOPE   H8Y18854   5.584   3.672   6.728  0.4634  0.3555 -1.0783
  167SOPE   C3918855   5.435   3.706   6.893 -0.3641  0.0660 -0.1852
  167SOPE   H9X18856   5.400   3.601   6.879 -1.3477  0.2850  0.4878
  167SOPE   H9Y18857   5.353   3.774   6.924  1.4649  2.3947 -0.2321
  167SOPE  C31018858   5.545   3.707   7.004  0.2926 -1.1040 -0.0270
  167SOPE  H10X18859   5.595   3.804   7.022  1.5663 -1.9800  1.4163
  167SOPE  H10Y18860   5.628   3.644   6.965  1.1365 -0.5273  0.7975
  167SOPE  C31118861   5.509   3.627   7.122  0.1527 -0.6089 -0.6746
  167SOPE  H11X18862   5.600   3.618   7.186 -1.0916 -0.6272  1.1727
  167SOPE  H11Y18863   5.470   3.529   7.087 -2.7760  0.2858 -0.1140
  167SOPE  C31218864   5.392   3.676   7.206 -0.2482 -0.1099  0.3993
  167SOPE  H12X18865   5.379   3.615   7.298 -0.2249  0.3355  0.7015
  167SOPE  H12Y18866   5.299   3.658   7.147  0.6880 -1.8409 -0.6292
  167SOPE  C31318867   5.400   3.827   7.250 -0.7246 -0.0830 -0.2286
  167SOPE  H13X18868   5.296   3.858   7.273 -1.1163 -1.0281 -0.6455
  167SOPE  H13Y18869   5.440   3.890   7.168 -1.4801 -1.2777 -1.5703
  167SOPE  C31418870   5.480   3.853   7.382  0.1038  0.3978  0.6232
  167SOPE  H14X18871   5.577   3.908   7.372  2.5417 -3.5670  0.2836
  167SOPE  H14Y18872   5.525   3.752   7.396  1.7815  1.1393  0.9244
  167SOPE  C31518873   5.393   3.900   7.506 -0.0972 -0.4563  0.5175
  167SOPE  H15X18874   5.332   3.991   7.487 -0.4680 -1.3383 -3.4261
  167SOPE  H15Y18875   5.469   3.935   7.579  0.0267  1.0706 -0.3105
  167SOPE  C31618876   5.319   3.778   7.562  0.1906  0.4264  0.0085
  167SOPE  H16X18877   5.386   3.691   7.578 -0.4979  0.0626  0.9677
  167SOPE  H16Y18878   5.243   3.746   7.487 -0.1237  0.0104  0.4945
  167SOPE  C31718879   5.253   3.792   7.701  0.5609 -0.2849 -0.5162
  167SOPE  H17X18880   5.328   3.800   7.782 -0.0890  1.0555 -0.0009
  167SOPE  H17Y18881   5.204   3.693   7.714 -0.2738  0.2000  0.1412
  167SOPE  C31818882   5.147   3.901   7.715 -0.3194  0.1415  0.0447
  167SOPE  H18X18883   5.074   3.899   7.632 -1.2919  1.3514  0.8363
  167SOPE  H18Y18884   5.198   3.999   7.728 -1.2463  0.6237  0.1120
  167SOPE  H18Z18885   5.087   3.884   7.806  2.0075  1.0408  1.8689
  168SOPE     N18886   3.904   0.570   5.822  0.2740  0.4826  0.0609
  168SOPE   HN118887   3.815   0.516   5.814 -0.1492  0.8713  1.6673
  168SOPE   HN218888   3.962   0.566   5.736 -0.2459  0.3294 -0.2885
  168SOPE   HN318889   3.964   0.531   5.897  2.9452  0.3046 -2.0364
  168SOPE   C1218890   3.862   0.713   5.845 -0.1611  0.3806  0.0685
  168SOPE  H12A18891   3.797   0.724   5.935  0.3202  1.0396  0.3419
  168SOPE  H12B18892   3.798   0.737   5.758  0.9150  0.7996 -0.6261
  168SOPE   C1118893   3.983   0.804   5.861 -0.1409  0.1752  0.7830
  168SOPE  H11A18894   4.063   0.743   5.909  1.8930  0.7670 -1.6425
  168SOPE  H11B18895   3.957   0.881   5.936 -1.6369  0.7923 -0.3307
  168SOPE     P18896   4.140   0.782   5.651  0.0036 -0.3578  0.0053
  168SOPE   O1318897   4.174   0.862   5.532  0.4268  0.0442  0.1732
  168SOPE   O1418898   4.103   0.643   5.621 -0.2862  0.0705 -0.6024
  168SOPE   O1218899   4.031   0.857   5.733  0.5091  0.5040 -0.7700
  168SOPE   O1118900   4.267   0.788   5.744  0.4532  0.2935 -0.4742
  168SOPE    C118901   4.298   0.909   5.814 -0.0563  0.4788  0.9975
  168SOPE    HA18902   4.217   0.935   5.886  0.7555 -0.6611  2.3921
  168SOPE    HB18903   4.315   0.995   5.747 -0.9188 -1.2725 -1.6357
  168SOPE    C218904   4.421   0.888   5.902  0.1181 -0.0212 -0.3193
  168SOPE    HS18905   4.503   0.857   5.834  1.7940  0.3095  1.4779
  168SOPE   O2118906   4.397   0.791   6.005 -0.1246 -0.4840  0.0949
  168SOPE   C2118907   4.486   0.686   6.031 -0.3863  0.0404 -0.0711
  168SOPE   O2218908   4.596   0.675   5.974  0.5061  0.9328 -0.6143
  168SOPE   C2218909   4.436   0.596   6.132  0.3016  0.8784 -0.0482
  168SOPE   H2R18910   4.509   0.516   6.155 -1.1406 -0.5094 -0.1330
  168SOPE   H2S18911   4.346   0.541   6.098  1.8967 -0.8150 -1.7270
  168SOPE    C318912   4.465   1.027   5.963 -0.4835 -0.0948 -0.6491
  168SOPE    HX18913   4.515   1.092   5.887 -1.0156 -1.7152 -2.4734
  168SOPE    HY18914   4.551   1.010   6.031  0.2406 -1.4920 -1.8492
  168SOPE   O3118915   4.355   1.101   6.014  0.0947  0.0192 -0.9719
  168SOPE   C3118916   4.344   1.082   6.148  0.1982 -0.6061 -0.0585
  168SOPE   O3218917   4.430   1.043   6.223 -0.4368 -0.5909  0.2509
  168SOPE   C3218918   4.209   1.128   6.198  0.2131  0.0831  0.3207
  168SOPE   H2X18919   4.186   1.227   6.153 -0.6469  1.2110  3.0563
  168SOPE   H2Y18920   4.232   1.161   6.301 -0.7522 -1.4632  1.0627
  168SOPE   C2318921   4.401   0.678   6.260  0.2945  0.0919  0.9475
  168SOPE   H3R18922   4.319   0.633   6.319 -0.5393  1.2138  0.6561
  168SOPE   H3S18923   4.347   0.765   6.219  0.7978 -0.0240 -0.0035
  168SOPE   C2418924   4.524   0.702   6.348  0.0865 -0.1982  0.2000
  168SOPE   H4R18925   4.563   0.602   6.376  2.4074  0.9673  1.4354
  168SOPE   H4S18926   4.611   0.743   6.292  0.9110 -3.2758 -0.9887
  168SOPE   C2518927   4.495   0.783   6.475 -0.2090 -0.0295  1.1547
  168SOPE   H5R18928   4.591   0.780   6.532  0.3671 -0.6116  0.1713
  168SOPE   H5S18929   4.463   0.888   6.460 -1.2478 -0.7150 -2.1902
  168SOPE   C2618930   4.390   0.712   6.566 -0.8144  0.3712  0.7569
  168SOPE   H6R18931   4.292   0.721   6.514 -0.3502  0.9778 -0.0360
  168SOPE   H6S18932   4.426   0.607   6.557 -1.5096  0.2561 -1.0470
  168SOPE   C2718933   4.386   0.774   6.711  0.3657 -0.0033  0.4866
  168SOPE   H7R18934   4.350   0.701   6.786 -0.3016 -0.6620 -0.4475
  168SOPE   H7S18935   4.490   0.808   6.729  0.7140 -0.3507 -0.7384
  168SOPE   C2818936   4.302   0.908   6.713 -0.4280 -0.1204  0.3231
  168SOPE   H8R18937   4.335   0.967   6.624 -2.4412  0.5253 -0.0402
  168SOPE   H8S18938   4.197   0.875   6.701 -0.8822  0.6680  1.8020
  168SOPE   C2918939   4.304   0.991   6.834  0.6282  0.1784 -0.1427
  168SOPE   H9118940   4.308   0.944   6.934 -1.9642  0.0473 -0.0332
  168SOPE  C21018941   4.321   1.125   6.839  0.1568 -0.0419  0.2209
  168SOPE  H10118942   4.304   1.163   6.941  0.1916 -0.5469  0.4174
  168SOPE  C21118943   4.333   1.222   6.724 -0.3020 -0.0206  0.2450
  168SOPE  H11R18944   4.241   1.285   6.715 -1.4037 -1.4750  0.9546
  168SOPE  H11S18945   4.353   1.178   6.624 -0.6397  0.1248  0.1105
  168SOPE  C21218946   4.452   1.331   6.728  0.0968  0.3737 -0.2213
  168SOPE  H12R18947   4.539   1.285   6.782 -0.8540 -1.9924 -0.5860
  168SOPE  H12S18948   4.398   1.410   6.784 -1.0246 -1.6358  1.6985
  168SOPE  C21318949   4.489   1.378   6.586  0.7429  0.5215 -0.2643
  168SOPE  H13R18950   4.522   1.282   6.540  2.1187  0.1705  1.3461
  168SOPE  H13S18951   4.579   1.443   6.589  0.4069  1.1522 -2.3770
  168SOPE  C21418952   4.373   1.446   6.508 -0.0359 -0.6703 -0.0434
  168SOPE  H14R18953   4.348   1.540   6.563  0.0002 -1.7340  1.9031
  168SOPE  H14S18954   4.279   1.388   6.520  0.2778 -0.9855  1.0922
  168SOPE  C21518955   4.426   1.485   6.366 -0.2896  0.5022  0.7077
  168SOPE  H15R18956   4.481   1.393   6.340  0.2007  0.2438  2.5260
  168SOPE  H15S18957   4.498   1.568   6.380  1.0184 -0.1846 -1.4539
  168SOPE  C21618958   4.317   1.508   6.263  0.4384 -0.3039 -0.0061
  168SOPE  H16R18959   4.232   1.556   6.316  0.3189  0.4759 -0.8718
  168SOPE  H16S18960   4.289   1.413   6.212 -0.3887  0.9800 -2.0558
  168SOPE  C21718961   4.347   1.599   6.139  0.1283 -0.3607 -0.1736
  168SOPE  H17R18962   4.349   1.706   6.169  0.6857 -0.4254  0.0361
  168SOPE  H17S18963   4.262   1.583   6.069 -0.7382  2.3447  0.1258
  168SOPE  C21818964   4.476   1.572   6.063  0.0625 -0.0770  0.4358
  168SOPE  H18R18965   4.479   1.637   5.973 -0.6828 -0.7384 -0.0772
  168SOPE  H18S18966   4.477   1.467   6.027  1.4044  0.6775 -1.9017
  168SOPE  H18T18967   4.568   1.578   6.125 -0.0056 -0.8633  0.6272
  168SOPE   C3318968   4.090   1.036   6.178 -0.3780 -0.1168  0.1037
  168SOPE   H3X18969   4.092   0.986   6.078 -1.8131 -2.7440  1.2941
  168SOPE   H3Y18970   4.004   1.105   6.181 -1.1226 -1.0576  2.5660
  168SOPE   C3418971   4.081   0.927   6.279  0.5240  0.7427  0.4968
  168SOPE   H4X18972   4.122   0.975   6.370  0.8695  1.1065  0.1523
  168SOPE   H4Y18973   4.159   0.851   6.259  0.8678  1.7517 -2.6400
  168SOPE   C3518974   3.946   0.856   6.294 -0.4301 -0.4226 -0.1796
  168SOPE   H5X18975   3.869   0.899   6.226 -1.0121 -0.4021  0.4876
  168SOPE   H5Y18976   3.898   0.874   6.392  0.5846 -0.6745  0.3853
  168SOPE   C3618977   3.947   0.704   6.268 -0.2459 -0.1035 -0.6116
  168SOPE   H6X18978   3.973   0.680   6.162  0.1521  2.5767 -1.1879
  168SOPE   H6Y18979   3.845   0.661   6.278 -0.2681 -0.1989 -1.1713
  168SOPE   C3718980   4.035   0.633   6.367  0.1847 -0.3790  0.4423
  168SOPE   H7X18981   4.008   0.658   6.472 -0.4421 -0.3649  0.2815
  168SOPE   H7Y18982   4.138   0.672   6.357 -0.0990  0.1351 -0.6885
  168SOPE   C3818983   4.047   0.485   6.350  0.3238  0.0139 -0.4456
  168SOPE   H8X18984   4.095   0.477   6.250 -0.4984  1.4779 -0.9928
  168SOPE   H8Y18985   3.945   0.439   6.350  0.8810 -1.4834  2.7480
  168SOPE   C3918986   4.131   0.410   6.456 -0.4133 -0.2989 -0.1131
  168SOPE   H9X18987   4.234   0.451   6.457  0.0263 -1.3640  1.0898
  168SOPE   H9Y18988   4.134   0.301   6.435  1.4706 -0.5388  1.1712
  168SOPE  C31018989   4.076   0.413   6.600  0.0870 -0.2391  0.3727
  168SOPE  H10X18990   3.965   0.420   6.598 -0.0368 -1.9082 -0.0552
  168SOPE  H10Y18991   4.099   0.508   6.654 -1.4720 -1.2092  2.9517
  168SOPE  C31118992   4.102   0.298   6.693  0.2761 -0.0866 -0.0882
  168SOPE  H11X18993   4.210   0.277   6.685  0.6689  2.1872 -1.7091
  168SOPE  H11Y18994   4.050   0.212   6.645 -1.4132  2.2526 -2.8581
  168SOPE  C31218995   4.070   0.318   6.847  0.1328 -0.1461 -0.0477
  168SOPE  H12X18996   3.961   0.335   6.860  0.2200 -0.8293  1.8052
  168SOPE  H12Y18997   4.108   0.420   6.869 -0.6747  0.5093 -1.5315
  168SOPE  C31318998   4.123   0.215   6.943  0.7498  0.0160 -0.6629
  168SOPE  H13X18999   4.233   0.229   6.947  0.9673 -1.6432  0.4061
  168SOPE  H13Y19000   4.097   0.113   6.906  0.3918 -0.1588  0.0510
  168SOPE  C31419001   4.067   0.242   7.088 -0.4249 -0.7358 -0.3892
  168SOPE  H14X19002   4.121   0.332   7.126 -1.4601 -0.3199  0.1190
  168SOPE  H14Y19003   4.102   0.164   7.158 -3.0390  0.2721  2.2243
  168SOPE  C31519004   3.919   0.254   7.099 -0.5232  0.1055  0.2703
  168SOPE  H15X19005   3.865   0.166   7.056 -1.0371  1.0378 -1.0707
  168SOPE  H15Y19006   3.888   0.335   7.030 -0.3621 -1.1897 -1.3888
  168SOPE  C31619007   3.859   0.294   7.237  0.0440  0.0094  0.0720
  168SOPE  H16X19008   3.755   0.332   7.233  0.4781  1.2318 -0.2224
  168SOPE  H16Y19009   3.923   0.368   7.290  0.3209  0.4528 -0.8604
  168SOPE  C31719010   3.854   0.171   7.334 -0.2307 -0.4914  0.4343
  168SOPE  H17X19011   3.821   0.218   7.430 -1.7809  3.4527 -1.7783
  168SOPE  H17Y19012   3.959   0.135   7.339  1.3404  3.5541  0.3203
  168SOPE  C31819013   3.745   0.068   7.299  1.0266 -0.2375 -0.4487
  168SOPE  H18X19014   3.645   0.114   7.280  1.5410  1.2508  0.2949
  168SOPE  H18Y19015   3.727  -0.006   7.379 -0.9662  1.7128  1.0390
  168SOPE  H18Z19016   3.780   0.008   7.212 -0.9007 -2.1140  0.0028
  169SOPE     N19017   0.872   2.932   5.277 -0.1832 -0.1767 -0.0254
  169SOPE   HN119018   0.839   3.027   5.251  1.4250  0.1887 -0.8199
  169SOPE   HN219019   0.969   2.949   5.312  0.4114  0.0784 -1.7218
  169SOPE   HN319020   0.882   2.889   5.183  1.9802  0.1022  0.0291
  169SOPE   C1219021   0.800   2.851   5.374  0.2662  0.0679 -0.2990
  169SOPE  H12A19022   0.707   2.807   5.330 -0.2916 -0.9689  1.7754
  169SOPE  H12B19023   0.763   2.915   5.457  0.3939 -0.6807  0.3510
  169SOPE   C1119024   0.882   2.735   5.436 -0.0223  0.3292  0.6218
  169SOPE  H11A19025   0.909   2.661   5.358 -4.0216 -1.9164  1.1299
  169SOPE  H11B19026   0.815   2.686   5.509  1.0350 -1.6753  0.3041
  169SOPE     P19027   1.079   2.713   5.606  0.0978  0.0842 -0.2676
  169SOPE   O1319028   1.159   2.821   5.667 -0.2373  0.2526 -0.2034
  169SOPE   O1419029   1.150   2.588   5.552 -0.1764 -0.0591 -0.1703
  169SOPE   O1219030   1.001   2.783   5.493 -0.3910 -0.2561 -0.4083
  169SOPE   O1119031   0.975   2.665   5.712  0.2101  0.3132  0.6435
  169SOPE    C119032   0.882   2.757   5.773 -0.2979 -0.5970 -0.3292
  169SOPE    HA19033   0.778   2.718   5.769  0.2597 -2.2119  0.3994
  169SOPE    HB19034   0.877   2.859   5.728  0.0309 -1.0223 -1.3562
  169SOPE    C219035   0.921   2.768   5.923 -0.0828 -0.2323  0.2880
  169SOPE    HS19036   1.014   2.828   5.912  0.5875 -1.1479  0.8225
  169SOPE   O2119037   0.939   2.629   5.983  0.0591 -0.0365 -0.0439
  169SOPE   C2119038   1.061   2.621   6.040 -0.2408 -0.2778  0.4598
  169SOPE   O2219039   1.135   2.719   6.057  0.0473  0.3796  0.1230
  169SOPE   C2219040   1.098   2.481   6.097 -0.7009 -0.7060 -0.0503
  169SOPE   H2R19041   1.192   2.452   6.046 -1.1888 -1.9594 -0.2623
  169SOPE   H2S19042   1.021   2.408   6.065 -0.7412 -0.0485 -1.5079
  169SOPE    C319043   0.824   2.859   6.004  0.0219  0.4065  0.1270
  169SOPE    HX19044   0.748   2.780   6.018  0.2791 -0.1238 -1.3037
  169SOPE    HY19045   0.779   2.946   5.952 -0.2943  0.6748  0.8314
  169SOPE   O3119046   0.881   2.885   6.138  1.0595 -0.3475 -0.3056
  169SOPE   C3119047   0.926   3.006   6.148 -0.2741 -0.3690 -0.1483
  169SOPE   O3219048   0.915   3.088   6.056  0.1649  0.3221 -0.0493
  169SOPE   C3219049   0.985   3.035   6.284  0.3977  0.4195 -0.1490
  169SOPE   H2X19050   1.076   2.974   6.302 -0.7857 -0.8538  2.0384
  169SOPE   H2Y19051   0.916   2.995   6.362  0.4390 -0.5926 -0.6185
  169SOPE   C2319052   1.119   2.484   6.252  0.3598 -1.2648 -0.1151
  169SOPE   H3R19053   1.180   2.571   6.284  0.4466 -1.3854  0.0473
  169SOPE   H3S19054   1.186   2.398   6.272  0.5076 -0.9329  0.8606
  169SOPE   C2419055   0.995   2.454   6.346  0.1093 -0.1900 -0.0528
  169SOPE   H4R19056   0.900   2.487   6.299 -0.5456  0.3021  1.5547
  169SOPE   H4S19057   0.986   2.344   6.349  0.2424 -0.2037 -0.1300
  169SOPE   C2519058   1.019   2.515   6.479  0.1317  0.4550 -0.5657
  169SOPE   H5R19059   1.118   2.485   6.520 -0.7519 -1.0929  0.5372
  169SOPE   H5S19060   1.026   2.625   6.467 -1.4763  0.6240 -0.1789
  169SOPE   C2619061   0.913   2.466   6.579  0.3189  0.0775  0.1067
  169SOPE   H6R19062   0.817   2.492   6.530  0.1179 -1.2065 -0.2093
  169SOPE   H6S19063   0.907   2.358   6.601 -2.4553  0.1788  0.0857
  169SOPE   C2719064   0.932   2.531   6.723  0.1797  0.2642  0.3493
  169SOPE   H7R19065   1.039   2.534   6.753 -0.2101 -0.9549  2.0610
  169SOPE   H7S19066   0.896   2.636   6.728 -1.1282 -0.1718  0.5190
  169SOPE   C2819067   0.843   2.458   6.833 -0.3037  0.2735 -0.3774
  169SOPE   H8R19068   0.808   2.516   6.921 -1.7421 -0.3521 -0.5005
  169SOPE   H8S19069   0.747   2.431   6.785  0.2064  0.9373 -1.8094
  169SOPE   C2919070   0.906   2.322   6.873 -0.3002 -0.4903  0.1775
  169SOPE   H9119071   0.917   2.251   6.790 -0.6836 -1.1148  0.6534
  169SOPE  C21019072   0.929   2.292   6.998 -0.1609  0.6905 -0.3604
  169SOPE  H10119073   0.971   2.193   7.022 -0.3780  1.3857  3.5840
  169SOPE  C21119074   0.900   2.371   7.127  0.0892  0.8185  0.2360
  169SOPE  H11R19075   0.928   2.476   7.104 -0.1606  0.6589 -0.8971
  169SOPE  H11S19076   0.961   2.325   7.207  0.1029 -2.3718 -1.4026
  169SOPE  C21219077   0.745   2.359   7.157 -0.4526  0.7000 -0.8183
  169SOPE  H12R19078   0.719   2.252   7.176 -0.2623  0.9743  1.1691
  169SOPE  H12S19079   0.678   2.381   7.071  0.6481 -0.4034 -2.0102
  169SOPE  C21319080   0.714   2.440   7.287  0.3965 -0.2437 -0.1526
  169SOPE  H13R19081   0.737   2.549   7.277  2.1528 -0.3775  1.8353
  169SOPE  H13S19082   0.784   2.415   7.370  0.9755  0.6906 -0.3412
  169SOPE  C21419083   0.571   2.407   7.327  0.5425  0.4166  1.0441
  169SOPE  H14R19084   0.563   2.297   7.342 -0.0412  0.4542  1.0650
  169SOPE  H14S19085   0.494   2.437   7.253  0.5860 -1.5857  0.1028
  169SOPE  C21519086   0.534   2.474   7.451  0.1498  0.1358  0.1945
  169SOPE  H15R19087   0.568   2.580   7.448 -2.6958  1.1030 -0.7806
  169SOPE  H15S19088   0.588   2.437   7.542 -0.0961 -0.5632  0.0612
  169SOPE  C21619089   0.389   2.495   7.463 -0.2197  0.2145  0.6301
  169SOPE  H16R19090   0.347   2.395   7.442  1.4785 -0.3563 -0.2072
  169SOPE  H16S19091   0.351   2.568   7.387 -4.6342  0.8656  3.1433
  169SOPE  C21719092   0.337   2.547   7.598 -0.3631  0.2721 -0.0329
  169SOPE  H17R19093   0.230   2.571   7.583 -0.5141 -0.4093 -0.0473
  169SOPE  H17S19094   0.389   2.646   7.602  0.2192  0.1940 -3.2586
  169SOPE  C21819095   0.351   2.451   7.712  0.0304  0.2683 -0.6704
  169SOPE  H18R19096   0.283   2.367   7.688 -0.8069  1.1219 -1.3990
  169SOPE  H18S19097   0.321   2.496   7.809  2.1404 -2.0267  1.1750
  169SOPE  H18T19098   0.454   2.412   7.722 -0.6490 -1.2117  1.1766
  169SOPE   C3319099   1.006   3.187   6.298 -0.3436 -0.3216 -0.3853
  169SOPE   H3X19100   0.924   3.245   6.252  1.2452  2.4613  0.1062
  169SOPE   H3Y19101   1.097   3.225   6.247 -0.4950  0.8710  0.2168
  169SOPE   C3419102   1.009   3.244   6.437  0.3585 -0.2289 -0.6670
  169SOPE   H4X19103   1.092   3.198   6.496 -0.8277 -0.7586  0.6439
  169SOPE   H4Y19104   0.911   3.219   6.483  0.2940  0.6544 -0.3081
  169SOPE   C3519105   1.057   3.394   6.449  0.0788  0.6381  0.1827
  169SOPE   H5X19106   0.974   3.444   6.394 -0.4359  0.6752  0.9755
  169SOPE   H5Y19107   1.154   3.400   6.395  0.0971 -0.0732  0.1163
  169SOPE   C3619108   1.066   3.444   6.595  0.2502  1.5214 -0.3187
  169SOPE   H6X19109   1.168   3.427   6.633  0.0977  1.9063  0.2733
  169SOPE   H6Y19110   1.001   3.389   6.666  0.3667  2.3050  0.4075
  169SOPE   C3719111   1.020   3.587   6.609  0.1330 -0.1633 -0.2462
  169SOPE   H7X19112   0.909   3.589   6.611  0.1123  0.0174 -1.0503
  169SOPE   H7Y19113   1.054   3.651   6.525  4.2149  0.3405  1.5482
  169SOPE   C3819114   1.060   3.658   6.743  0.1606  0.4654 -0.1888
  169SOPE   H8X19115   1.017   3.759   6.757  0.1460  0.3965  0.2665
  169SOPE   H8Y19116   1.024   3.587   6.820  1.1738  0.6423  0.4610
  169SOPE   C3919117   1.212   3.667   6.745  0.1758  0.2520  1.0307
  169SOPE   H9X19118   1.248   3.705   6.647 -0.1497 -2.1605 -0.0984
  169SOPE   H9Y19119   1.260   3.568   6.757  0.3007  0.1606 -0.0980
  169SOPE  C31019120   1.273   3.751   6.860  0.5339  0.2929  0.2012
  169SOPE  H10X19121   1.216   3.846   6.855 -0.8650 -0.5730 -3.5294
  169SOPE  H10Y19122   1.379   3.780   6.839  0.4575  0.5660  0.1837
  169SOPE  C31119123   1.247   3.694   7.000  0.0505 -0.3492 -0.2819
  169SOPE  H11X19124   1.141   3.660   6.997 -0.1805  0.3038  0.2879
  169SOPE  H11Y19125   1.259   3.772   7.077  0.3627 -0.1826 -0.4958
  169SOPE  C31219126   1.344   3.573   7.027  0.1162 -0.5001  0.0444
  169SOPE  H12X19127   1.448   3.605   7.010 -0.5513  1.7094 -0.1399
  169SOPE  H12Y19128   1.313   3.497   6.952 -2.6190 -0.2740  0.8297
  169SOPE  C31319129   1.335   3.524   7.171 -0.3197 -0.7230  0.4927
  169SOPE  H13X19130   1.356   3.612   7.235  0.5074  1.2333 -2.2650
  169SOPE  H13Y19131   1.417   3.454   7.196 -1.6382 -2.2392  0.7499
  169SOPE  C31419132   1.212   3.448   7.211  0.0452  0.7162 -0.0555
  169SOPE  H14X19133   1.214   3.352   7.154 -0.5221  0.5666  0.1739
  169SOPE  H14Y19134   1.121   3.510   7.196  0.4767  1.1629 -0.9107
  169SOPE  C31519135   1.210   3.416   7.361  0.2492  0.6870  0.2069
  169SOPE  H15X19136   1.203   3.510   7.420 -0.3589 -0.3403  1.8377
  169SOPE  H15Y19137   1.307   3.369   7.387  0.4171  1.5830  1.2753
  169SOPE  C31619138   1.101   3.317   7.395 -0.2321 -0.0487  0.2624
  169SOPE  H16X19139   1.115   3.286   7.501 -0.2900 -0.9775  0.0011
  169SOPE  H16Y19140   1.117   3.227   7.332 -2.7370 -0.8353  0.6618
  169SOPE  C31719141   0.965   3.381   7.383  0.6158 -0.3646  0.2254
  169SOPE  H17X19142   0.953   3.417   7.279  0.6401 -2.3658 -0.5175
  169SOPE  H17Y19143   0.962   3.467   7.453 -0.3970  0.1001 -0.3792
  169SOPE  C31819144   0.847   3.285   7.421 -0.0566  0.2263 -0.2442
  169SOPE  H18X19145   0.862   3.248   7.525  0.7572 -1.7935 -1.0253
  169SOPE  H18Y19146   0.850   3.196   7.354 -1.1190 -0.2851  0.3634
  169SOPE  H18Z19147   0.749   3.338   7.416 -0.4072 -0.4675 -1.2280
  170SOPE     N19148   2.174   6.429   5.542  0.1401 -0.0785  0.4790
  170SOPE   HN119149   2.128   6.342   5.577  0.2255  0.4980  2.1226
  170SOPE   HN219150   2.144   6.431   5.443 -3.3397  0.0706  1.4019
  170SOPE   HN319151   2.277   6.431   5.550  0.1206  0.8143  0.5706
  170SOPE   C1219152   2.123   6.566   5.585  0.3174 -0.8401  0.0052
  170SOPE  H12A19153   2.089   6.622   5.495 -0.4104  1.9979  1.9126
  170SOPE  H12B19154   2.209   6.623   5.625 -0.7365 -0.4115  1.8034
  170SOPE   C1119155   2.010   6.544   5.681 -0.4632  0.5655 -0.4483
  170SOPE  H11A19156   1.980   6.642   5.725 -0.1324 -0.2399  1.6882
  170SOPE  H11B19157   2.044   6.485   5.769 -1.1170  0.0773 -0.5186
  170SOPE     P19158   1.845   6.338   5.611  0.0499 -0.0591 -0.1154
  170SOPE   O1319159   1.949   6.247   5.556  0.6555 -0.0410  0.1190
  170SOPE   O1419160   1.713   6.336   5.546 -0.2704 -0.4934  0.8483
  170SOPE   O1219161   1.897   6.484   5.611  0.2267 -0.0252  0.0909
  170SOPE   O1119162   1.838   6.314   5.764 -0.1314 -0.4205  0.1259
  170SOPE    C119163   1.756   6.377   5.858  0.4201 -0.3501 -0.3823
  170SOPE    HA19164   1.664   6.315   5.858  0.9605 -1.1674 -0.4642
  170SOPE    HB19165   1.728   6.478   5.822  0.6437 -1.0359 -2.6772
  170SOPE    C219166   1.829   6.357   5.993 -0.1769  0.3410  0.4224
  170SOPE    HS19167   1.909   6.433   5.982 -0.2997  0.4274  0.1051
  170SOPE   O2119168   1.872   6.217   6.011 -0.6192 -0.4681 -0.2504
  170SOPE   C2119169   1.999   6.207   6.070 -0.2163 -0.3789 -0.2907
  170SOPE   O2219170   2.084   6.292   6.085  0.1630  0.1201 -0.6111
  170SOPE   C2219171   2.030   6.064   6.107  0.1459  0.5975  0.4726
  170SOPE   H2R19172   2.139   6.066   6.130  0.3749  2.6123 -0.4914
  170SOPE   H2S19173   2.017   5.999   6.018 -0.4265  1.5982 -0.1905
  170SOPE    C319174   1.740   6.392   6.108 -0.0012  0.3037  0.7414
  170SOPE    HX19175   1.655   6.321   6.110  0.1718 -0.0332 -1.2900
  170SOPE    HY19176   1.690   6.487   6.081  3.9814  3.1355  2.4773
  170SOPE   O3119177   1.805   6.399   6.240  0.3128  0.2127 -0.0553
  170SOPE   C3119178   1.880   6.508   6.253 -0.2131 -0.1714  0.0117
  170SOPE   O3219179   1.891   6.604   6.180 -0.2275 -0.2157  0.4044
  170SOPE   C3219180   1.964   6.495   6.378 -0.0310 -0.1629 -0.4558
  170SOPE   H2X19181   2.060   6.443   6.359  1.2212  1.0235  2.0773
  170SOPE   H2Y19182   1.906   6.423   6.440  0.0667  0.0176 -0.1504
  170SOPE   C2319183   1.948   6.013   6.224  0.7015  1.0510  0.7196
  170SOPE   H3R19184   1.968   5.908   6.251 -3.1894  0.3346  1.4273
  170SOPE   H3S19185   1.838   6.033   6.225  0.0862 -1.9236  0.6410
  170SOPE   C2419186   1.981   6.089   6.353 -0.6608  0.2881  0.6593
  170SOPE   H4R19187   2.091   6.102   6.360 -0.9706  2.9474  1.4461
  170SOPE   H4S19188   1.935   6.190   6.344  1.2623  1.0790 -1.1513
  170SOPE   C2519189   1.933   6.024   6.476 -0.1065 -0.8028 -0.7107
  170SOPE   H5R19190   1.822   6.015   6.473 -0.1715 -0.2052 -0.2927
  170SOPE   H5S19191   1.976   5.923   6.492 -0.7895 -1.1396 -0.9574
  170SOPE   C2619192   1.957   6.112   6.603  0.4812 -0.2859 -0.3010
  170SOPE   H6R19193   2.064   6.136   6.620  0.4049  0.6901 -1.0719
  170SOPE   H6S19194   1.902   6.208   6.588 -1.4304 -1.2958 -0.0539
  170SOPE   C2719195   1.904   6.043   6.733 -0.0501  0.2029 -0.1333
  170SOPE   H7R19196   1.800   6.011   6.712 -0.1373 -0.2316  0.8943
  170SOPE   H7S19197   1.963   5.950   6.750 -0.6113 -0.0145  0.6650
  170SOPE   C2819198   1.893   6.132   6.859 -0.5310 -0.3634  0.0707
  170SOPE   H8R19199   1.822   6.211   6.827  0.4911  0.1352 -1.0557
  170SOPE   H8S19200   1.850   6.094   6.954  2.0197 -1.2631  0.9569
  170SOPE   C2919201   2.025   6.202   6.889 -0.0070  0.4915  0.3678
  170SOPE   H9119202   2.048   6.280   6.815 -0.8207  0.5778  0.1959
  170SOPE  C21019203   2.102   6.196   6.998  0.0189  1.3736 -0.3787
  170SOPE  H10119204   2.191   6.259   7.012  0.6119  0.1896  1.5788
  170SOPE  C21119205   2.067   6.102   7.113  0.8290  0.0602 -0.5570
  170SOPE  H11R19206   2.148   6.026   7.112  0.1523 -0.7475 -3.4596
  170SOPE  H11S19207   1.982   6.035   7.087  1.9301 -0.8718 -1.9528
  170SOPE  C21219208   2.039   6.161   7.250  0.0341  0.5342 -0.3535
  170SOPE  H12R19209   1.992   6.262   7.244  0.5446  0.8041  0.1880
  170SOPE  H12S19210   2.129   6.206   7.296 -0.2361  1.2679 -0.5293
  170SOPE  C21319211   1.971   6.065   7.349 -0.3835  0.8025  0.0441
  170SOPE  H13R19212   1.867   6.033   7.323  0.2454 -2.5143  1.0866
  170SOPE  H13S19213   1.950   6.131   7.436 -0.6799  0.9962 -0.1721
  170SOPE  C21419214   2.051   5.948   7.384 -0.5862  0.1558  0.8295
  170SOPE  H14R19215   2.161   5.952   7.369 -0.4159 -1.3614  1.4275
  170SOPE  H14S19216   2.024   5.879   7.301  2.4736  0.8095 -0.8495
  170SOPE  C21519217   2.030   5.891   7.526 -0.1692  0.9063 -0.3897
  170SOPE  H15R19218   2.068   5.963   7.602 -2.5763  0.4131  1.3648
  170SOPE  H15S19219   2.093   5.801   7.543 -0.1883  1.0864  0.7111
  170SOPE  C21619220   1.880   5.863   7.548 -0.1262  0.0401  0.0050
  170SOPE  H16R19221   1.859   5.769   7.492 -0.5890  0.9980 -1.4777
  170SOPE  H16S19222   1.816   5.942   7.505 -1.3860 -1.4864 -1.0443
  170SOPE  C21719223   1.857   5.835   7.693  0.0614 -0.4383  1.1325
  170SOPE  H17R19224   1.906   5.914   7.753  1.4567 -0.1077 -0.3872
  170SOPE  H17S19225   1.907   5.740   7.722 -1.3513 -1.3257  0.8127
  170SOPE  C21819226   1.709   5.806   7.739 -0.1131  0.6916 -0.0336
  170SOPE  H18R19227   1.669   5.711   7.698  2.6694 -0.7838  0.4361
  170SOPE  H18S19228   1.650   5.900   7.726 -0.7678  0.6419  2.2124
  170SOPE  H18T19229   1.713   5.792   7.849 -4.5256  1.2464  0.3542
  170SOPE   C3319230   1.996   6.633   6.440  0.2365  0.6211 -0.7722
  170SOPE   H3X19231   1.907   6.700   6.444  2.2016  3.4068 -1.2366
  170SOPE   H3Y19232   2.084   6.679   6.390 -0.6256  1.8284 -1.2214
  170SOPE   C3419233   2.060   6.625   6.580  0.0335 -0.2011 -0.5520
  170SOPE   H4X19234   2.081   6.732   6.604 -3.3246  0.3665  0.4537
  170SOPE   H4Y19235   2.153   6.567   6.565 -0.6238 -1.5490  0.4310
  170SOPE   C3519236   1.972   6.555   6.685  0.6141 -0.2181 -1.3632
  170SOPE   H5X19237   1.970   6.445   6.669  0.8916 -0.2214 -1.3890
  170SOPE   H5Y19238   1.870   6.596   6.669  0.1654 -0.6401  0.2684
  170SOPE   C3619239   2.017   6.600   6.822  0.5884  0.4997  0.4841
  170SOPE   H6X19240   2.027   6.710   6.823 -0.0485  0.5896 -0.9203
  170SOPE   H6Y19241   2.121   6.564   6.837 -0.1653 -0.7755  3.3242
  170SOPE   C3719242   1.928   6.541   6.935 -0.6773  0.0510  0.5691
  170SOPE   H7X19243   1.964   6.443   6.972 -4.7342 -0.8907  2.5335
  170SOPE   H7Y19244   1.827   6.522   6.891 -0.5025  2.1604 -0.8898
  170SOPE   C3819245   1.900   6.632   7.056 -0.1280 -0.6746 -0.1962
  170SOPE   H8X19246   1.847   6.722   7.019  0.2207 -0.5904 -0.4984
  170SOPE   H8Y19247   2.000   6.657   7.097 -1.8717  1.9757  2.9137
  170SOPE   C3919248   1.819   6.574   7.171  0.6162 -0.1588  0.8867
  170SOPE   H9X19249   1.787   6.651   7.244 -1.0808  1.6150 -1.6102
  170SOPE   H9Y19250   1.879   6.494   7.220 -0.9309 -1.4287  0.7966
  170SOPE  C31019251   1.695   6.489   7.120  0.1993  0.2481 -0.2769
  170SOPE  H10X19252   1.739   6.395   7.080  0.2074  0.1341 -0.0039
  170SOPE  H10Y19253   1.636   6.530   7.035 -0.5788 -0.0527  0.1108
  170SOPE  C31119254   1.592   6.436   7.226 -0.1426  0.0841  0.3688
  170SOPE  H11X19255   1.515   6.371   7.178  0.3476  0.7915 -1.4808
  170SOPE  H11Y19256   1.540   6.529   7.259  0.3181  1.1137 -1.6282
  170SOPE  C31219257   1.673   6.370   7.335  0.0964 -0.4202  0.2333
  170SOPE  H12X19258   1.734   6.453   7.377 -0.7319  1.2977 -1.7749
  170SOPE  H12Y19259   1.738   6.291   7.293 -0.0362  0.1939 -1.1948
  170SOPE  C31319260   1.585   6.318   7.447  0.1873 -0.4478 -0.6299
  170SOPE  H13X19261   1.525   6.236   7.402 -0.7175 -0.2341  0.1490
  170SOPE  H13Y19262   1.526   6.395   7.502 -1.1223 -1.0748 -1.1115
  170SOPE  C31419263   1.667   6.255   7.555  0.1760  0.8786  0.1807
  170SOPE  H14X19264   1.719   6.166   7.514 -2.2377 -0.0060 -1.1244
  170SOPE  H14Y19265   1.586   6.227   7.625 -0.2499 -1.8324 -1.3011
  170SOPE  C31519266   1.776   6.345   7.616  0.2661 -0.3782 -0.2157
  170SOPE  H15X19267   1.761   6.450   7.581  0.6641 -0.3195 -0.2069
  170SOPE  H15Y19268   1.877   6.305   7.594 -0.1711 -0.2320 -2.7280
  170SOPE  C31619269   1.762   6.356   7.769 -0.7046  0.3319 -0.4877
  170SOPE  H16X19270   1.784   6.259   7.819 -0.2317  1.2466  1.1597
  170SOPE  H16Y19271   1.658   6.383   7.797  0.0126  0.6150  2.1553
  170SOPE  C31719272   1.866   6.457   7.820 -0.0115 -1.1695 -0.3736
  170SOPE  H17X19273   1.838   6.557   7.782  0.1295  0.7549  4.0503
  170SOPE  H17Y19274   1.967   6.426   7.783  0.9646 -0.1390  1.2929
  170SOPE  C31819275   1.869   6.466   7.976 -0.4621  0.9406 -0.2309
  170SOPE  H18X19276   1.936   6.547   8.010  0.6414 -0.0575  0.0588
  170SOPE  H18Y19277   1.899   6.373   8.029 -1.2262  0.3071 -0.8713
  170SOPE  H18Z19278   1.768   6.488   8.017 -0.9015 -0.2868 -0.6096
  171SOPE     N19279   6.706   4.262   5.164  0.2840 -0.0502  0.4755
  171SOPE   HN119280   6.798   4.213   5.163 -0.7184 -2.0856 -1.3195
  171SOPE   HN219281   6.659   4.242   5.254 -0.9664  2.1869  0.3905
  171SOPE   HN319282   6.650   4.224   5.085  0.7958  0.3956 -0.1127
  171SOPE   C1219283   6.734   4.406   5.153 -0.4567  0.4337 -0.4118
  171SOPE  H12A19284   6.637   4.461   5.158  0.0325  1.3078 -0.2602
  171SOPE  H12B19285   6.786   4.418   5.055  1.9135 -4.2763  0.0001
  171SOPE   C1119286   6.829   4.453   5.267  0.5202  0.5502  0.1681
  171SOPE  H11A19287   6.835   4.563   5.252 -3.7268  0.5410 -4.4008
  171SOPE  H11B19288   6.926   4.402   5.248  0.1115 -0.6260  1.1164
  171SOPE     P19289   6.697   4.478   5.500 -0.1772  0.0099 -0.1715
  171SOPE   O1319290   6.682   4.401   5.627  0.1977  0.1766  0.7327
  171SOPE   O1419291   6.576   4.521   5.435 -0.3977 -0.4820 -0.1733
  171SOPE   O1219292   6.788   4.401   5.397  0.2327 -0.1294  0.3603
  171SOPE   O1119293   6.772   4.611   5.533 -0.2282 -0.0457 -0.3871
  171SOPE    C119294   6.898   4.605   5.606 -0.1686 -0.2108 -0.2901
  171SOPE    HA19295   6.986   4.602   5.539 -0.7550 -1.8314 -1.0542
  171SOPE    HB19296   6.922   4.514   5.665  3.0995  0.5721 -0.2471
  171SOPE    C219297   6.911   4.714   5.717  0.2782 -0.3811  0.5861
  171SOPE    HS19298   7.016   4.716   5.754  0.5018  0.1686 -0.0616
  171SOPE   O2119299   6.820   4.679   5.822 -0.4583 -0.4993  0.5650
  171SOPE   C2119300   6.862   4.587   5.905 -0.5644 -0.0901  1.0044
  171SOPE   O2219301   6.970   4.529   5.895 -0.4194  0.4233  0.8866
  171SOPE   C2219302   6.750   4.554   6.010 -0.0370  0.1272  0.0337
  171SOPE   H2R19303   6.679   4.472   5.984 -0.8309  0.6006  0.6760
  171SOPE   H2S19304   6.691   4.647   6.020 -1.8484 -0.9374 -0.3438
  171SOPE    C319305   6.873   4.849   5.664 -0.2059 -0.2647  0.3852
  171SOPE    HX19306   6.783   4.835   5.600 -1.0323 -1.4849  1.7486
  171SOPE    HY19307   6.952   4.887   5.596 -1.5705  0.7026 -0.7224
  171SOPE   O3119308   6.842   4.941   5.769  0.1377  0.5305 -0.2401
  171SOPE   C3119309   6.942   4.987   5.837  0.6809  0.0303 -0.5305
  171SOPE   O3219310   7.059   4.970   5.812  0.2812 -0.4390 -0.3339
  171SOPE   C3219311   6.889   5.076   5.952  0.4436  0.2655 -0.3877
  171SOPE   H2X19312   6.816   5.010   6.004 -1.3405 -1.1704 -4.2742
  171SOPE   H2Y19313   6.835   5.159   5.902 -1.3316  0.1728  1.2699
  171SOPE   C2319314   6.815   4.534   6.149  0.1034  0.3259  0.1665
  171SOPE   H3R19315   6.872   4.622   6.185 -0.5497  0.9929 -0.3871
  171SOPE   H3S19316   6.891   4.453   6.142  1.3964  1.6257 -2.8091
  171SOPE   C2419317   6.713   4.483   6.251 -0.9427 -0.1667  0.1281
  171SOPE   H4R19318   6.640   4.564   6.273 -0.5269  1.3259 -3.3275
  171SOPE   H4S19319   6.659   4.395   6.209  2.4239 -2.1382 -0.4109
  171SOPE   C2519320   6.781   4.421   6.376  0.6587 -0.4238  0.0909
  171SOPE   H5R19321   6.831   4.324   6.359 -2.1212 -1.7304 -1.4420
  171SOPE   H5S19322   6.866   4.487   6.405  2.6837 -3.2553  0.9749
  171SOPE   C2619323   6.659   4.394   6.467  0.0777 -0.1216  0.5898
  171SOPE   H6R19324   6.570   4.458   6.450 -0.1884 -0.9882 -1.5238
  171SOPE   H6S19325   6.615   4.295   6.445 -1.1608  0.4531  0.4205
  171SOPE   C2719326   6.708   4.396   6.614  0.5010  0.0523  0.5629
  171SOPE   H7R19327   6.804   4.343   6.632  0.9497  0.9942  1.0173
  171SOPE   H7S19328   6.725   4.500   6.650 -2.6727  0.5606  0.9498
  171SOPE   C2819329   6.604   4.338   6.713  0.5570 -0.0242  0.0802
  171SOPE   H8R19330   6.503   4.384   6.703  0.0951 -0.9054  0.5141
  171SOPE   H8S19331   6.596   4.236   6.669 -1.4470 -0.2128  0.7629
  171SOPE   C2919332   6.653   4.331   6.855 -0.3178 -0.3278  0.3897
  171SOPE   H9119333   6.726   4.252   6.880 -1.4950 -1.1473  1.3320
  171SOPE  C21019334   6.612   4.428   6.946 -0.6622  0.1294  0.3611
  171SOPE  H10119335   6.638   4.414   7.052 -1.1952  0.0968  0.4909
  171SOPE  C21119336   6.521   4.548   6.925  0.0373 -0.1971  0.3283
  171SOPE  H11R19337   6.522   4.612   7.016  1.3407  0.8603 -0.3789
  171SOPE  H11S19338   6.415   4.520   6.914  0.0615  0.6895 -3.0484
  171SOPE  C21219339   6.549   4.642   6.800 -0.5604  1.2592 -0.0318
  171SOPE  H12R19340   6.508   4.594   6.709 -0.3724 -2.3605  1.6205
  171SOPE  H12S19341   6.659   4.632   6.792 -0.7712 -3.2971  0.6195
  171SOPE  C21319342   6.493   4.788   6.831  0.3180  0.1162 -0.0594
  171SOPE  H13R19343   6.543   4.836   6.918  0.3396  0.1817 -0.1074
  171SOPE  H13S19344   6.386   4.787   6.859  0.5546 -1.4112  0.9175
  171SOPE  C21419345   6.510   4.878   6.707 -0.5833  0.0659  0.3260
  171SOPE  H14R19346   6.445   4.965   6.729 -1.2684 -0.4220  0.2568
  171SOPE  H14S19347   6.473   4.831   6.613  1.2503 -2.1765  0.6201
  171SOPE  C21519348   6.657   4.928   6.689 -0.3938  0.1832  0.0486
  171SOPE  H15R19349   6.723   4.839   6.699 -2.1802 -1.1515  0.4767
  171SOPE  H15S19350   6.692   4.997   6.769  0.3752 -0.9682  0.7459
  171SOPE  C21619351   6.694   4.974   6.552 -0.6799  0.3615  0.0065
  171SOPE  H16R19352   6.774   5.051   6.541  0.7471 -1.3215 -2.3285
  171SOPE  H16S19353   6.607   5.035   6.517  0.4809  2.5466  0.7347
  171SOPE  C21719354   6.715   4.854   6.466 -1.1989  0.2933 -0.2004
  171SOPE  H17R19355   6.654   4.764   6.487 -1.8644  0.8350  0.2461
  171SOPE  H17S19356   6.821   4.820   6.469 -0.7241  1.7683  1.0232
  171SOPE  C21819357   6.681   4.892   6.323  0.0828 -0.1785  0.1607
  171SOPE  H18R19358   6.573   4.915   6.319  0.1015 -0.2713 -1.6912
  171SOPE  H18S19359   6.705   4.806   6.258  1.4361  1.4172 -1.5856
  171SOPE  H18T19360   6.735   4.985   6.292 -2.1830  0.6623 -1.6163
  171SOPE   C3319361   6.997   5.122   6.049 -0.0745  0.0241  0.4054
  171SOPE   H3X19362   6.961   5.212   6.103  2.3397  1.5006 -0.2745
  171SOPE   H3Y19363   7.077   5.167   5.985  0.5444 -1.9990 -0.3143
  171SOPE   C3419364   7.042   5.007   6.144  0.1981 -0.0491 -0.2947
  171SOPE   H4X19365   7.091   4.925   6.087  2.2136  0.5960  0.4013
  171SOPE   H4Y19366   6.948   4.970   6.189  1.7257 -0.2512  3.0491
  171SOPE   C3519367   7.135   5.048   6.257 -0.0840 -0.7914 -0.1008
  171SOPE   H5X19368   7.231   5.081   6.213  0.8624 -1.5132  1.3682
  171SOPE   H5Y19369   7.157   4.955   6.313  2.2452 -0.5458 -0.5292
  171SOPE   C3619370   7.058   5.133   6.360 -0.0146 -1.0874 -0.2629
  171SOPE   H6X19371   6.973   5.069   6.392 -1.8464  1.5256  0.5218
  171SOPE   H6Y19372   7.012   5.223   6.313 -1.4400 -1.7697 -0.2396
  171SOPE   C3719373   7.132   5.179   6.487 -0.5653  0.5569 -0.3619
  171SOPE   H7X19374   7.213   5.243   6.448 -1.7281  1.1867 -1.8437
  171SOPE   H7Y19375   7.171   5.095   6.549 -0.5481  1.5126  0.9759
  171SOPE   C3819376   7.036   5.250   6.590  0.5414  0.4619 -0.4655
  171SOPE   H8X19377   7.080   5.244   6.692 -1.2962 -0.1261  0.3489
  171SOPE   H8Y19378   6.942   5.190   6.591  0.4378  0.6311 -0.0746
  171SOPE   C3919379   7.000   5.393   6.553 -0.6757 -0.5017 -0.2397
  171SOPE   H9X19380   6.913   5.412   6.486  1.4589  1.2584 -2.7201
  171SOPE   H9Y19381   7.084   5.428   6.490 -0.6166  0.6617  0.4589
  171SOPE  C31019382   6.975   5.477   6.678  0.1495  0.1370 -0.0607
  171SOPE  H10X19383   7.069   5.477   6.737 -0.3086 -0.6604  0.6941
  171SOPE  H10Y19384   6.887   5.430   6.727 -0.1072  1.0007  0.3251
  171SOPE  C31119385   6.920   5.616   6.647 -0.0442 -0.4608  1.0865
  171SOPE  H11X19386   6.833   5.612   6.579  0.7554  2.3079 -0.2346
  171SOPE  H11Y19387   6.998   5.682   6.604 -0.6947 -0.3688  0.0429
  171SOPE  C31219388   6.892   5.693   6.777 -0.1008  0.3519 -0.3279
  171SOPE  H12X19389   6.843   5.790   6.757  1.2729  0.7414 -2.1078
  171SOPE  H12Y19390   6.992   5.719   6.819  0.9704  0.7613 -2.8984
  171SOPE  C31319391   6.816   5.617   6.889 -0.3205  0.0674 -0.2819
  171SOPE  H13X19392   6.861   5.519   6.916 -1.2999 -0.1399  0.6910
  171SOPE  H13Y19393   6.711   5.596   6.856 -0.4411 -1.5042  0.9824
  171SOPE  C31419394   6.812   5.705   7.017 -0.9742 -0.4650  0.5261
  171SOPE  H14X19395   6.784   5.809   6.988 -0.9928 -0.4313  0.6639
  171SOPE  H14Y19396   6.918   5.725   7.045 -1.7707  1.8503  2.2779
  171SOPE  C31519397   6.733   5.653   7.128 -0.1605 -0.0204 -0.0358
  171SOPE  H15X19398   6.750   5.546   7.153  1.3342 -0.4743 -2.5964
  171SOPE  H15Y19399   6.626   5.661   7.098 -0.1646  2.8833  0.4841
  171SOPE  C31619400   6.752   5.747   7.244  0.5442  0.5194  0.0066
  171SOPE  H16X19401   6.859   5.773   7.251  0.6572  0.2655 -0.7844
  171SOPE  H16Y19402   6.716   5.687   7.331  0.7115 -0.1760 -0.3979
  171SOPE  C31719403   6.665   5.879   7.242 -0.5758  0.2487  0.4336
  171SOPE  H17X19404   6.689   5.918   7.141  0.9255 -1.3601  0.1155
  171SOPE  H17Y19405   6.702   5.941   7.327  0.4832 -0.4879  0.5304
  171SOPE  C31819406   6.512   5.872   7.248 -0.5365 -0.5606 -1.0116
  171SOPE  H18X19407   6.476   5.975   7.227 -0.1107 -0.2690 -0.3460
  171SOPE  H18Y19408   6.474   5.827   7.343 -1.1704 -0.6771 -1.3184
  171SOPE  H18Z19409   6.481   5.810   7.161 -3.0102  0.4293 -0.9220
  172SOPE     N19410   1.595   6.769   5.509 -0.3633  0.2793  0.5923
  172SOPE   HN119411   1.537   6.855   5.518  0.2338  0.6648  0.7854
  172SOPE   HN219412   1.611   6.747   5.409 -0.2187 -0.3583  0.7492
  172SOPE   HN319413   1.547   6.687   5.553  0.2080  0.2519  1.1732
  172SOPE   C1219414   1.729   6.770   5.578  0.0672  0.1336  0.2188
  172SOPE  H12A19415   1.780   6.676   5.549 -2.2492 -1.4600  1.0317
  172SOPE  H12B19416   1.703   6.764   5.686  0.8836  0.9299  0.4719
  172SOPE   C1119417   1.786   6.900   5.534 -0.1353 -0.4306  0.0601
  172SOPE  H11A19418   1.788   6.912   5.424  2.7462 -0.7591 -0.0151
  172SOPE  H11B19419   1.892   6.918   5.566  0.1996  0.6041 -1.5267
  172SOPE     P19420   1.743   7.142   5.662  0.3766  0.1316 -0.1090
  172SOPE   O1319421   1.645   7.240   5.613 -0.3909 -0.1263  0.1930
  172SOPE   O1419422   1.880   7.186   5.635  0.0589  0.1901  0.0916
  172SOPE   O1219423   1.707   7.004   5.592  0.3358 -0.0231  0.7719
  172SOPE   O1119424   1.732   7.123   5.817  0.3206  0.8277 -0.1548
  172SOPE    C119425   1.610   7.100   5.894  0.0348  0.7232 -0.0235
  172SOPE    HA19426   1.641   7.091   6.000  0.5038 -0.8750 -0.2623
  172SOPE    HB19427   1.572   6.999   5.867  0.7393  0.3126  0.4746
  172SOPE    C219428   1.510   7.214   5.893  0.3702 -0.5821 -0.0804
  172SOPE    HS19429   1.487   7.231   5.786  0.9928  0.5662 -0.0526
  172SOPE   O2119430   1.574   7.333   5.942 -0.6546 -0.1511  0.1953
  172SOPE   C2119431   1.516   7.446   5.915 -0.6530  0.1918 -0.8550
  172SOPE   O2219432   1.423   7.467   5.842 -0.1504 -0.2921 -0.5428
  172SOPE   C2219433   1.586   7.551   5.998  0.3042  0.0074 -0.1546
  172SOPE   H2R19434   1.564   7.654   5.963 -1.7853  0.5239  2.3780
  172SOPE   H2S19435   1.696   7.539   5.986  0.3134 -0.3162  0.2276
  172SOPE    C319436   1.373   7.188   5.966 -0.3458  0.3435 -0.4609
  172SOPE    HX19437   1.324   7.096   5.928 -1.1167  0.2283  0.7360
  172SOPE    HY19438   1.300   7.263   5.929  0.1264  0.8113 -0.4494
  172SOPE   O3119439   1.397   7.184   6.110 -0.2648  0.5720  0.1515
  172SOPE   C3119440   1.317   7.111   6.186  0.3196  0.9706  0.2844
  172SOPE   O3219441   1.226   7.038   6.147 -0.2046 -0.2131 -0.0959
  172SOPE   C3219442   1.347   7.145   6.328  0.4168  0.7586 -0.2019
  172SOPE   H2X19443   1.348   7.256   6.342 -0.7146  0.6345  1.1778
  172SOPE   H2Y19444   1.448   7.109   6.355  0.5572  1.7995  0.7536
  172SOPE   C2319445   1.543   7.541   6.150  0.0561 -0.0230 -0.0169
  172SOPE   H3R19446   1.550   7.434   6.178 -0.6356 -0.0962 -0.0964
  172SOPE   H3S19447   1.438   7.577   6.157  0.6459  2.0616 -1.0375
  172SOPE   C2419448   1.621   7.634   6.248 -0.1925  0.2982  1.1044
  172SOPE   H4R19449   1.731   7.630   6.229 -0.5356  2.7639 -2.6599
  172SOPE   H4S19450   1.597   7.742   6.234  0.3044  0.1849 -0.9702
  172SOPE   C2519451   1.584   7.594   6.391 -0.0639  1.0338 -0.1323
  172SOPE   H5R19452   1.474   7.587   6.407 -0.1921  0.1626 -1.3132
  172SOPE   H5S19453   1.613   7.490   6.414 -1.2642  0.6279 -0.3549
  172SOPE   C2619454   1.641   7.686   6.499 -0.0418 -0.1098 -0.1322
  172SOPE   H6R19455   1.751   7.669   6.494 -0.2329 -1.1514 -1.1396
  172SOPE   H6S19456   1.616   7.791   6.474 -1.1337  0.0764  1.5815
  172SOPE   C2719457   1.589   7.657   6.644 -0.2570  0.4562  0.1173
  172SOPE   H7R19458   1.480   7.649   6.628 -0.4217  3.6288 -1.1082
  172SOPE   H7S19459   1.619   7.556   6.677 -1.8085 -0.8218 -2.1273
  172SOPE   C2819460   1.641   7.768   6.740 -0.7832 -0.7155 -0.2357
  172SOPE   H8R19461   1.599   7.870   6.725 -0.2849 -0.2549  1.3475
  172SOPE   H8S19462   1.593   7.755   6.840 -2.5413  2.1603 -0.5734
  172SOPE   C2919463   1.791   7.760   6.757 -0.6558  0.1675 -0.0452
  172SOPE   H9119464   1.837   7.779   6.659 -0.0270  1.2530  0.4441
  172SOPE  C21019465   1.869   7.731   6.858  0.2333 -0.0913 -0.4207
  172SOPE  H10119466   1.975   7.720   6.834 -0.0499 -0.9146 -1.3268
  172SOPE  C21119467   1.833   7.707   7.007  0.2840  0.1410 -0.1350
  172SOPE  H11R19468   1.888   7.613   7.028  1.1980  0.3641 -1.4526
  172SOPE  H11S19469   1.724   7.697   7.025  0.6077 -1.7823  1.0482
  172SOPE  C21219470   1.887   7.822   7.092  0.0783 -0.7026  0.3271
  172SOPE  H12R19471   1.847   7.792   7.192  0.3168 -2.6564 -0.1238
  172SOPE  H12S19472   1.837   7.917   7.064  1.0582 -0.3636 -0.3432
  172SOPE  C21319473   2.035   7.841   7.093  0.7573 -0.3195  0.0681
  172SOPE  H13R19474   2.078   7.855   6.991  1.4970  1.6064  0.6142
  172SOPE  H13S19475   2.089   7.752   7.131  2.9865  0.3768 -1.2703
  172SOPE  C21419476   2.074   7.964   7.180 -0.3634  0.0671  0.4210
  172SOPE  H14R19477   1.980   7.994   7.229 -0.8073 -1.7628  0.7533
  172SOPE  H14S19478   2.103   8.042   7.107 -0.2277  0.7627  1.2092
  172SOPE  C21519479   2.192   7.930   7.279  0.3766 -0.0981 -0.2514
  172SOPE  H15R19480   2.285   7.923   7.219 -0.8066 -1.8713 -2.0285
  172SOPE  H15S19481   2.179   7.826   7.316 -4.1209  0.8791  1.5937
  172SOPE  C21619482   2.186   8.019   7.401  0.1603 -0.4801  0.3235
  172SOPE  H16R19483   2.079   8.002   7.427 -0.0670 -1.3088 -1.0494
  172SOPE  H16S19484   2.201   8.128   7.385 -0.4078 -0.6125 -1.3128
  172SOPE  C21719485   2.280   7.976   7.506 -0.1036  0.4392  0.3235
  172SOPE  H17R19486   2.379   7.986   7.456  0.3839 -1.4687  0.8286
  172SOPE  H17S19487   2.261   7.870   7.532  2.9427  0.0984  1.5743
  172SOPE  C21819488   2.280   8.064   7.625  0.3441 -0.3029 -0.7488
  172SOPE  H18R19489   2.332   8.022   7.713 -0.8995  0.5181  0.4196
  172SOPE  H18S19490   2.182   8.083   7.673  0.0420 -0.9048 -1.1151
  172SOPE  H18T19491   2.315   8.166   7.597  1.4109 -1.0241 -2.1823
  172SOPE   C3319492   1.233   7.085   6.422  0.5828 -0.5186 -1.0792
  172SOPE   H3X19493   1.266   6.980   6.438  0.9084 -0.3531 -0.6430
  172SOPE   H3Y19494   1.135   7.091   6.371  0.6125 -0.4487 -1.1283
  172SOPE   C3419495   1.223   7.166   6.551 -0.0601 -0.1308  0.0565
  172SOPE   H4X19496   1.209   7.274   6.531 -3.1533 -0.6406 -1.0303
  172SOPE   H4Y19497   1.317   7.152   6.608 -1.5723  0.0597  2.7998
  172SOPE   C3519498   1.122   7.108   6.651 -0.0953 -0.4754  0.8508
  172SOPE   H5X19499   1.142   6.999   6.654 -1.4993 -0.9818 -2.8087
  172SOPE   H5Y19500   1.017   7.123   6.618 -0.0558 -0.3548  0.7781
  172SOPE   C3619501   1.142   7.169   6.786 -0.0488  0.0088  0.5750
  172SOPE   H6X19502   1.153   7.280   6.780  2.7874 -0.2256 -0.0992
  172SOPE   H6Y19503   1.241   7.144   6.830  1.4813  0.3239 -2.4032
  172SOPE   C3719504   1.028   7.141   6.883 -0.0071 -0.0001  0.3480
  172SOPE   H7X19505   1.008   7.032   6.894 -0.4812  0.2220  1.9314
  172SOPE   H7Y19506   0.935   7.193   6.853 -0.0800  1.5516  2.9667
  172SOPE   C3819507   1.062   7.214   7.014 -0.0627 -0.6506 -0.5300
  172SOPE   H8X19508   1.054   7.319   6.977 -0.4568 -1.1002 -1.7628
  172SOPE   H8Y19509   1.167   7.187   7.040 -0.4153 -0.9579  0.6243
  172SOPE   C3919510   0.956   7.197   7.128 -0.8110  0.1123 -0.9760
  172SOPE   H9X19511   0.860   7.228   7.082  0.4866  0.3833 -3.6671
  172SOPE   H9Y19512   0.991   7.257   7.215  1.8892  0.2925 -2.0938
  172SOPE  C31019513   0.928   7.048   7.156  0.6300 -0.4410 -0.3991
  172SOPE  H10X19514   1.025   6.998   7.177  0.8048 -0.0950 -0.3737
  172SOPE  H10Y19515   0.880   7.012   7.062 -0.6754  0.6395 -0.1715
  172SOPE  C31119516   0.819   7.034   7.268  0.2942 -0.1608 -0.0419
  172SOPE  H11X19517   0.733   7.098   7.239  0.2922  0.4544  1.2802
  172SOPE  H11Y19518   0.848   7.082   7.363 -0.4173  0.5170 -0.1533
  172SOPE  C31219519   0.764   6.890   7.281  0.0530  0.4269  0.0774
  172SOPE  H12X19520   0.846   6.834   7.330 -0.8988 -0.1357  1.0688
  172SOPE  H12Y19521   0.732   6.854   7.181 -0.2159 -1.6040  0.8493
  172SOPE  C31319522   0.642   6.871   7.369  0.0560 -0.2847 -0.0122
  172SOPE  H13X19523   0.580   6.790   7.326  0.5360  0.0188 -1.3093
  172SOPE  H13Y19524   0.575   6.959   7.381  0.6639  0.2618 -0.5676
  172SOPE  C31419525   0.698   6.816   7.500  0.1879  0.5015 -0.2855
  172SOPE  H14X19526   0.778   6.885   7.536 -0.9393  1.8411 -0.2325
  172SOPE  H14Y19527   0.733   6.713   7.482  1.3440  0.4965  1.6676
  172SOPE  C31519528   0.587   6.806   7.605 -0.2951 -0.4143 -0.4150
  172SOPE  H15X19529   0.512   6.732   7.568 -1.5784  0.9337 -0.6324
  172SOPE  H15Y19530   0.537   6.905   7.610 -0.6515 -0.6333  0.6347
  172SOPE  C31619531   0.637   6.776   7.744  0.0677 -0.5841 -0.2942
  172SOPE  H16X19532   0.716   6.850   7.772  0.9059 -0.3544 -2.9794
  172SOPE  H16Y19533   0.676   6.672   7.749 -1.0569 -0.9562  2.9387
  172SOPE  C31719534   0.523   6.751   7.846 -0.2733  0.0453 -0.2874
  172SOPE  H17X19535   0.445   6.822   7.810 -0.9527  0.3512  1.6671
  172SOPE  H17Y19536   0.549   6.780   7.950  0.2323  0.7957 -0.6139
  172SOPE  C31819537   0.484   6.605   7.852 -0.3110 -0.2693 -0.5754
  172SOPE  H18X19538   0.576   6.544   7.861  0.3761  0.6580 -1.2075
  172SOPE  H18Y19539   0.429   6.570   7.762  3.1078 -2.9409 -1.8282
  172SOPE  H18Z19540   0.416   6.580   7.936  0.9557 -2.1740 -0.0565
  173SAPI   C1219541   2.375   4.476   9.942  0.2692 -0.5713 -0.6526
  173SAPI    H219542   2.421   4.447   9.845  0.2244 -0.8924 -0.5778
  173SAPI    O219543   2.273   4.568   9.908  0.5250  0.0532  0.2350
  173SAPI   HO219544   2.249   4.547   9.818  0.5421 -0.1840  0.2856
  173SAPI   C1319545   2.319   4.348  10.016 -0.1445 -0.8524  0.0906
  173SAPI    H319546   2.394   4.270  10.039  1.9620 -0.5542 -4.5637
  173SAPI    O319547   2.227   4.279   9.925 -0.0559  0.5339  0.1077
  173SAPI   HO319548   2.262   4.197   9.891  1.0192  0.7032  0.7420
  173SAPI   C1419549   2.252   4.394  10.147  0.0531  0.3678  0.0300
  173SAPI    H419550   2.178   4.476  10.141  0.5063  0.9661  1.7536
  173SAPI    O419551   2.205   4.273  10.210  0.4526 -0.0182 -0.1343
  173SAPI   HO419552   2.109   4.277  10.209  0.4697  1.1310  0.3818
  173SAPI   C1519553   2.368   4.457  10.229  0.4940  0.1290 -0.1908
  173SAPI    H519554   2.445   4.377  10.232 -1.6026 -1.9542  0.8780
  173SAPI    O519555   2.324   4.485  10.362  0.1691 -0.2690 -0.0776
  173SAPI   HO519556   2.236   4.522  10.369  0.1453 -0.5495  1.5705
  173SAPI   C1619557   2.433   4.582  10.163  0.5723 -0.4359  0.0988
  173SAPI    H619558   2.356   4.661  10.156 -0.3148 -1.3048 -0.1962
  173SAPI    O619559   2.538   4.629  10.247 -0.0700  0.1947  0.4484
  173SAPI   HO619560   2.602   4.670  10.188  2.5726 -3.0211  0.8161
  173SAPI   C1119561   2.484   4.541  10.029  0.1863  0.7097 -0.3640
  173SAPI    H119562   2.556   4.460  10.050  0.3340  0.7349 -0.7767
  173SAPI     P19563   2.666   4.623   9.839  0.7973  0.2385  0.0783
  173SAPI   O1319564   2.694   4.478   9.818 -0.5208 -0.6783 -0.0491
  173SAPI   O1419565   2.785   4.707   9.860 -0.4102  0.7129  0.1174
  173SAPI   O1219566   2.561   4.645   9.970 -0.0232  0.1014  0.4887
  173SAPI   O1119567   2.583   4.678   9.715  0.1990  0.6556  0.6499
  173SAPI    C119568   2.553   4.606   9.599  0.3014 -0.7218 -0.6003
  173SAPI    HA19569   2.491   4.521   9.636 -0.1400 -0.0208  0.2929
  173SAPI    HB19570   2.501   4.668   9.523  1.1719  0.3138 -0.3759
  173SAPI    C219571   2.673   4.551   9.522 -0.2212  0.4122 -0.0885
  173SAPI    HS19572   2.718   4.466   9.578  1.1190  0.3471 -1.1961
  173SAPI   O2119573   2.773   4.652   9.513 -0.5903  0.0196  0.0921
  173SAPI   C2119574   2.883   4.622   9.452 -0.6859 -0.8915 -0.4987
  173SAPI   O2219575   2.922   4.516   9.409  0.6073  0.0968 -0.2896
  173SAPI   C2219576   2.970   4.746   9.448 -0.0619 -0.7963  0.1462
  173SAPI   H2R19577   2.958   4.820   9.531  1.4092  0.2643 -0.5296
  173SAPI   H2S19578   3.072   4.708   9.471 -0.0896 -0.8050  0.2586
  173SAPI    C319579   2.625   4.499   9.390 -0.0975 -0.2116  0.5892
  173SAPI    HX19580   2.565   4.410   9.420  0.6820 -1.1194 -0.4875
  173SAPI    HY19581   2.714   4.461   9.335  1.0569 -1.1617  2.9618
  173SAPI   O3119582   2.544   4.593   9.326 -0.1470 -0.0001  0.4528
  173SAPI   C3119583   2.579   4.621   9.202 -0.1414  0.1605 -0.3018
  173SAPI   O3219584   2.637   4.545   9.127  0.0316 -0.3577 -0.4481
  173SAPI   C3219585   2.540   4.763   9.180  0.4284 -0.6897 -0.5571
  173SAPI   H2X19586   2.637   4.812   9.155  0.8795 -2.1703 -1.8773
  173SAPI   H2Y19587   2.501   4.813   9.271  4.8539 -0.3608  1.3935
  173SAPI   C2319588   2.961   4.827   9.316  0.1394  0.6733 -0.3426
  173SAPI   H3R19589   3.002   4.929   9.335  0.0172  0.5312  0.7071
  173SAPI   H3S19590   2.857   4.831   9.278  0.2989 -0.3518 -0.9297
  173SAPI   C2419591   3.043   4.760   9.209 -0.2921 -0.3451 -0.3707
  173SAPI   H4R19592   2.979   4.674   9.183 -0.9424  0.5732 -1.9048
  173SAPI   H4S19593   3.133   4.724   9.263 -0.0542  1.2225  0.3263
  173SAPI   C2519594   3.077   4.848   9.093  0.1663  0.0357  0.4283
  173SAPI   H5R19595   3.160   4.919   9.111  0.2999  0.0546 -0.2572
  173SAPI   C2619596   3.011   4.848   8.973 -0.3134 -0.2989  0.0673
  173SAPI   H6R19597   3.046   4.920   8.899  0.2145  1.8475  2.2802
  173SAPI   C2719598   2.884   4.773   8.932  0.5221 -0.4071  0.4784
  173SAPI   H7R19599   2.820   4.741   9.017  1.1884 -2.3705  0.2823
  173SAPI   H7S19600   2.911   4.682   8.874 -0.8085 -1.7779  1.9351
  173SAPI   C2819601   2.797   4.865   8.848  0.2551  0.4010 -0.3190
  173SAPI   H8R19602   2.753   4.952   8.899  0.2030 -0.1135  0.5404
  173SAPI   C2919603   2.755   4.841   8.720  0.3710  0.3379 -0.3074
  173SAPI   H9R19604   2.670   4.896   8.678 -0.5596 -0.1752  0.8331
  173SAPI  C21019605   2.801   4.723   8.641 -0.3060 -0.2474 -0.8031
  173SAPI  H10R19606   2.761   4.631   8.689  0.8104  0.1449  0.9622
  173SAPI  H10S19607   2.911   4.720   8.654 -0.1512 -2.0202 -2.1663
  173SAPI  C21119608   2.767   4.717   8.494  0.7403 -0.2277 -0.2292
  173SAPI  H11R19609   2.681   4.654   8.468  1.7112 -2.4704  1.6016
  173SAPI  C21219610   2.848   4.758   8.393 -0.5175  0.5556  0.1512
  173SAPI  H12R19611   2.831   4.730   8.288  0.4985  0.5265 -0.0205
  173SAPI  C21319612   2.985   4.823   8.417  0.0089 -0.3569 -0.1174
  173SAPI  H13R19613   3.016   4.826   8.523  3.8120 -3.5369 -0.8620
  173SAPI  H13S19614   2.980   4.923   8.369 -2.3771 -0.8416 -1.0195
  173SAPI  C21419615   3.091   4.735   8.351 -0.3475  0.5400  0.3792
  173SAPI  H14R19616   3.154   4.676   8.419  0.1688  0.4523 -0.1596
  173SAPI  C21519617   3.124   4.728   8.217  0.2760  0.4264  0.1668
  173SAPI  H15R19618   3.216   4.672   8.193  0.7593  1.7226 -1.1643
  173SAPI  C21619619   3.070   4.805   8.097 -0.1625 -0.3563 -0.0106
  173SAPI  H16R19620   3.059   4.914   8.115  1.3732 -0.1604 -0.1539
  173SAPI  H16S19621   2.966   4.772   8.075 -0.8433  1.1669  0.7497
  173SAPI  C21719622   3.139   4.762   7.963 -0.5018  0.3032 -0.0959
  173SAPI  H17R19623   3.070   4.769   7.877 -0.6257  0.2667  0.0001
  173SAPI  H17S19624   3.155   4.653   7.980 -0.2837  0.4643  0.7456
  173SAPI  C21819625   3.272   4.835   7.942 -0.0535  0.3630  0.6019
  173SAPI  H18R19626   3.321   4.846   8.042  0.8265 -0.0541  0.2314
  173SAPI  H18S19627   3.255   4.942   7.918  1.0235  0.6145  0.8891
  173SAPI  C21919628   3.370   4.767   7.850  0.4901 -0.0549  0.3779
  173SAPI  H19R19629   3.394   4.665   7.889  0.4691  0.4094  1.6513
  173SAPI  H19S19630   3.461   4.829   7.845  0.8524 -0.6720 -1.2455
  173SAPI  C22019631   3.320   4.750   7.704  0.2680  0.2813  0.2507
  173SAPI  H20R19632   3.376   4.670   7.651 -3.0145 -2.3496  0.3424
  173SAPI  H20S19633   3.307   4.843   7.646 -2.0065  0.6283  1.2119
  173SAPI  H20T19634   3.217   4.708   7.705  0.6633 -0.7313  0.0124
  173SAPI   C3319635   2.444   4.793   9.051  0.2211  0.7815  0.4229
  173SAPI   H3X19636   2.339   4.760   9.064 -0.0171  1.0178 -0.7383
  173SAPI   H3Y19637   2.483   4.735   8.964 -0.3942  1.1535 -0.1101
  173SAPI   C3419638   2.441   4.936   9.015  0.0795  0.5835  0.6021
  173SAPI   H4X19639   2.539   4.951   8.963 -0.8003  0.3500 -1.2081
  173SAPI   H4Y19640   2.445   4.987   9.113  2.4895 -0.4323  1.1076
  173SAPI   C3519641   2.323   4.975   8.925  0.6923 -0.1502  0.6274
  173SAPI   H5X19642   2.314   5.085   8.916  0.5908 -0.1914  0.1812
  173SAPI   H5Y19643   2.233   4.924   8.966  0.3719  1.0647  1.4735
  173SAPI   C3619644   2.353   4.938   8.781  0.2293 -0.2823 -0.4911
  173SAPI   H6X19645   2.385   4.832   8.784 -0.4664 -0.5212  2.8581
  173SAPI   H6Y19646   2.438   5.001   8.748  1.6565 -1.4682  0.7463
  173SAPI   C3719647   2.232   4.968   8.694 -0.1235  0.0611  0.4616
  173SAPI   H7X19648   2.209   5.076   8.706  1.1075  0.4966 -0.7953
  173SAPI   H7Y19649   2.150   4.912   8.742 -1.1847  0.4146 -0.8648
  173SAPI   C3819650   2.252   4.931   8.549  0.2383 -0.5719 -0.1045
  173SAPI   H8X19651   2.166   4.948   8.481  0.5278 -2.1381 -0.8977
  173SAPI   H8Y19652   2.262   4.821   8.541  1.4618 -0.4489 -0.5553
  173SAPI   C3919653   2.377   4.986   8.478  0.0526 -0.3281  1.1741
  173SAPI   H9X19654   2.471   4.947   8.524 -0.5910 -1.5679  1.4879
  173SAPI   H9Y19655   2.384   5.095   8.463 -0.8463 -0.3333  0.6459
  173SAPI  C31019656   2.385   4.922   8.334 -0.6272 -0.7715  0.3558
  173SAPI  H10X19657   2.287   4.937   8.284 -0.2416  2.4302  0.3313
  173SAPI  H10Y19658   2.386   4.814   8.358  0.2964 -1.0506 -0.8289
  173SAPI  C31119659   2.513   4.970   8.256  0.1886  0.6237  0.5092
  173SAPI  H11X19660   2.606   4.964   8.317  0.4540  2.6029  0.3578
  173SAPI  H11Y19661   2.503   5.080   8.244  0.2874  0.6301  0.4866
  173SAPI  C31219662   2.539   4.898   8.125 -0.6570 -0.6727 -0.0436
  173SAPI  H12X19663   2.563   4.794   8.155  0.5059 -0.0712  1.2315
  173SAPI  H12Y19664   2.625   4.940   8.068 -0.5115 -1.1986 -0.2201
  173SAPI  C31319665   2.412   4.877   8.038  0.0993 -0.0158  0.3363
  173SAPI  H13X19666   2.358   4.973   8.020  1.9048  0.8946 -0.5387
  173SAPI  H13Y19667   2.343   4.807   8.089 -1.6704  0.3412 -1.4271
  173SAPI  C31419668   2.453   4.803   7.902 -0.4307 -0.1769 -0.8095
  173SAPI  H14X19669   2.530   4.726   7.923 -0.8584 -0.9728 -2.0730
  173SAPI  H14Y19670   2.505   4.881   7.842 -0.3021 -0.1758 -0.6979
  173SAPI  C31519671   2.334   4.730   7.845 -0.4459 -0.4578 -0.1747
  173SAPI  H15X19672   2.244   4.794   7.842 -0.6179 -0.6367  0.9541
  173SAPI  H15Y19673   2.315   4.641   7.908  0.8043 -0.8545 -0.3330
  173SAPI  C31619674   2.369   4.674   7.703  0.1363 -0.1703  0.5334
  173SAPI  H16X19675   2.466   4.622   7.713  0.9188  1.2742  0.7040
  173SAPI  H16Y19676   2.396   4.756   7.632 -0.3091 -0.8942 -0.5035
  173SAPI  C31719677   2.260   4.575   7.651  0.1988  0.5329  0.4134
  173SAPI  H17X19678   2.287   4.554   7.546 -3.3495 -1.5314 -0.2301
  173SAPI  H17Y19679   2.160   4.623   7.645  0.7596  1.9320  1.5582
  173SAPI  C31819680   2.222   4.449   7.731 -0.6546 -0.9633 -0.8230
  173SAPI  H18X19681   2.306   4.379   7.750 -0.0698  0.1963  1.1913
  173SAPI  H18Y19682   2.153   4.381   7.675 -1.1251 -1.0013 -0.2135
  173SAPI  H18Z19683   2.171   4.476   7.826 -0.6697 -0.4933 -0.9614
  174SAPI   C1219684   4.017   5.995   9.836  0.0165 -0.0645 -0.7017
  174SAPI    H219685   3.986   5.991   9.943  0.2222 -1.9998 -0.6790
  174SAPI    O219686   3.900   5.990   9.754  0.3389 -0.3833 -0.3652
  174SAPI   HO219687   3.858   5.905   9.770 -0.5589 -0.0861 -1.0919
  174SAPI   C1319688   4.100   6.125   9.814  0.1945 -0.1470 -0.0534
  174SAPI    H319689   4.183   6.119   9.889 -0.4216  2.5303  0.9910
  174SAPI    O319690   4.015   6.234   9.854  0.2833  0.3231  0.2418
  174SAPI   HO319691   3.937   6.240   9.798  0.8876  1.1652 -0.5527
  174SAPI   C1419692   4.157   6.140   9.671  0.4119 -1.0894 -0.6753
  174SAPI    H419693   4.061   6.140   9.616 -0.4761  2.8659  0.5145
  174SAPI    O419694   4.212   6.267   9.635 -0.4404  0.3558 -0.0192
  174SAPI   HO419695   4.141   6.331   9.644  0.5706  1.4372  0.6893
  174SAPI   C1519696   4.241   6.022   9.641 -0.7490 -0.0251  0.4242
  174SAPI    H519697   4.328   6.016   9.710  0.8964  1.3300 -1.4190
  174SAPI    O519698   4.303   6.036   9.510  0.3034 -0.0654 -0.0063
  174SAPI   HO519699   4.232   6.067   9.453 -1.7011 -2.3231  1.0711
  174SAPI   C1619700   4.166   5.895   9.666  0.5046  0.1386 -0.2053
  174SAPI    H619701   4.080   5.891   9.595 -0.7510  0.0645  1.2690
  174SAPI    O619702   4.250   5.787   9.643 -0.0641 -0.2757  0.1818
  174SAPI   HO619703   4.198   5.706   9.643 -0.4821 -0.0111  0.3988
  174SAPI   C1119704   4.105   5.874   9.807 -0.2668 -0.3880  0.1965
  174SAPI    H119705   4.198   5.880   9.868 -0.4953  2.2305  0.4174
  174SAPI     P19706   4.089   5.614   9.882 -0.0307 -0.0694  0.4633
  174SAPI   O1319707   3.985   5.528   9.937  0.7156  0.0607  0.0487
  174SAPI   O1419708   4.197   5.643   9.985  0.3399  0.0893 -0.3369
  174SAPI   O1219709   4.025   5.756   9.830  0.2806 -0.3380 -0.0945
  174SAPI   O1119710   4.156   5.566   9.743 -0.2955 -0.5620  0.0335
  174SAPI    C119711   4.226   5.443   9.731 -0.0936 -0.5423  0.9254
  174SAPI    HA19712   4.334   5.452   9.754  0.5996  2.0087 -2.4402
  174SAPI    HB19713   4.181   5.365   9.796 -0.0240 -0.5520  0.9611
  174SAPI    C219714   4.209   5.391   9.582 -0.8742 -0.6338 -0.0347
  174SAPI    HS19715   4.263   5.297   9.558 -2.7356 -1.6169 -0.5519
  174SAPI   O2119716   4.250   5.492   9.482 -0.3335  0.0917  0.3492
  174SAPI   C2119717   4.379   5.502   9.464 -0.2126  0.3787 -0.2533
  174SAPI   O2219718   4.463   5.432   9.521  0.2177 -0.1026 -0.0295
  174SAPI   C2219719   4.405   5.631   9.376 -0.0815  0.2282 -0.0797
  174SAPI   H2R19720   4.342   5.705   9.430  1.1755 -0.1015  1.9778
  174SAPI   H2S19721   4.512   5.662   9.378 -0.1663  0.6402 -1.3197
  174SAPI    C319722   4.064   5.350   9.554 -0.1424 -0.3864  0.1976
  174SAPI    HX19723   4.001   5.439   9.572  0.4702  0.7858 -2.9518
  174SAPI    HY19724   4.031   5.266   9.619  0.8586 -1.6494 -0.8593
  174SAPI   O3119725   4.041   5.300   9.417 -0.9477  0.8250  0.4769
  174SAPI   C3119726   3.944   5.341   9.339  0.0770 -0.1779  0.2764
  174SAPI   O3219727   3.853   5.412   9.382 -0.3193  0.0394 -0.3017
  174SAPI   C3219728   3.959   5.294   9.198 -0.1437  0.3175  0.2079
  174SAPI   H2X19729   3.916   5.192   9.194 -1.3923  0.8271  0.1107
  174SAPI   H2Y19730   4.066   5.302   9.171 -0.5089 -0.9403 -1.7520
  174SAPI   C2319731   4.361   5.622   9.231  0.4973 -0.2405  0.2936
  174SAPI   H3R19732   4.383   5.722   9.187 -0.9886  0.0897  0.2462
  174SAPI   H3S19733   4.252   5.600   9.230 -0.1130  2.3949  0.0035
  174SAPI   C2419734   4.444   5.521   9.151 -0.0733 -0.4540 -0.5511
  174SAPI   H4R19735   4.477   5.438   9.218 -0.9742  1.5486  2.5844
  174SAPI   H4S19736   4.543   5.564   9.125  0.2338 -0.1632  0.9897
  174SAPI   C2519737   4.366   5.483   9.025 -0.2275  0.1087  0.6594
  174SAPI   H5R19738   4.273   5.434   9.057  0.6618 -2.4637 -0.4065
  174SAPI   C2619739   4.392   5.508   8.893 -0.3891  0.2854 -0.5087
  174SAPI   H6R19740   4.316   5.479   8.819 -0.7788 -1.9702  0.6946
  174SAPI   C2719741   4.509   5.583   8.830 -0.2570 -0.3108  0.2410
  174SAPI   H7R19742   4.569   5.643   8.902 -0.0273  0.9995 -0.9954
  174SAPI   H7S19743   4.480   5.666   8.761 -1.4873 -0.4336  0.5908
  174SAPI   C2819744   4.600   5.492   8.752  0.4322 -0.0893  0.4168
  174SAPI   H8R19745   4.661   5.420   8.808 -0.7640 -2.9343 -1.7086
  174SAPI   C2919746   4.628   5.492   8.618  0.3317  1.0155 -0.9145
  174SAPI   H9R19747   4.722   5.443   8.589  0.2818  0.5646 -0.3296
  174SAPI  C21019748   4.564   5.577   8.513 -0.6901 -0.3379 -0.7297
  174SAPI  H10R19749   4.648   5.595   8.442  0.0011 -5.3760 -1.5376
  174SAPI  H10S19750   4.515   5.668   8.553  0.0519 -0.4292  0.4526
  174SAPI  C21119751   4.461   5.500   8.429 -0.6326 -1.0547 -0.0886
  174SAPI  H11R19752   4.357   5.504   8.465 -0.5558 -1.0193  0.1332
  174SAPI  C21219753   4.490   5.427   8.325 -0.2552 -0.4762  0.7328
  174SAPI  H12R19754   4.405   5.375   8.277 -0.0058 -0.4687  0.2747
  174SAPI  C21319755   4.627   5.402   8.268  0.0827 -0.7739 -0.6536
  174SAPI  H13R19756   4.679   5.338   8.342 -0.2182 -0.0323  0.2164
  174SAPI  H13S19757   4.680   5.499   8.280 -3.4262  1.0522  1.6036
  174SAPI  C21419758   4.640   5.346   8.129  0.3572  0.3209  0.5336
  174SAPI  H14R19759   4.643   5.429   8.057 -0.9120  1.5933  1.8679
  174SAPI  C21519760   4.641   5.221   8.083 -0.5598  0.2714  0.0129
  174SAPI  H15R19761   4.644   5.211   7.973  0.7801  1.2043 -0.0658
  174SAPI  C21619762   4.635   5.092   8.152 -0.2213 -0.2880  0.8049
  174SAPI  H16R19763   4.530   5.055   8.156 -0.5190  0.6173  1.7575
  174SAPI  H16S19764   4.652   5.122   8.258 -1.8506  0.6222  0.8521
  174SAPI  C21719765   4.741   4.990   8.122  0.6948 -0.2865  0.6958
  174SAPI  H17R19766   4.732   4.905   8.193  0.7086  0.0161  1.0626
  174SAPI  H17S19767   4.837   5.041   8.146 -0.2878  2.6553 -1.1541
  174SAPI  C21819768   4.729   4.942   7.977  0.1527 -0.8131 -0.1737
  174SAPI  H18R19769   4.755   5.016   7.899 -0.0629 -0.7201 -0.1583
  174SAPI  H18S19770   4.623   4.915   7.957 -0.4027 -0.0824  1.6153
  174SAPI  C21919771   4.800   4.811   7.935  0.4147 -0.5109  0.6015
  174SAPI  H19R19772   4.779   4.721   7.996 -1.9709 -1.7793 -1.8904
  174SAPI  H19S19773   4.905   4.846   7.948  0.1240  0.9759 -0.7959
  174SAPI  C22019774   4.779   4.782   7.785 -0.3637  0.7217 -0.5561
  174SAPI  H20R19775   4.804   4.871   7.724  0.1769  1.2744  0.4445
  174SAPI  H20S19776   4.675   4.751   7.763 -0.0770  0.4876 -1.6056
  174SAPI  H20T19777   4.851   4.704   7.753 -1.7741 -0.4277 -1.0907
  174SAPI   C3319778   3.862   5.362   9.097 -0.2693 -0.2103 -0.3270
  174SAPI   H3X19779   3.828   5.467   9.105 -1.2823 -0.4848 -0.8394
  174SAPI   H3Y19780   3.765   5.307   9.093 -1.0034  1.1091 -1.9003
  174SAPI   C3419781   3.913   5.335   8.958 -0.6664  0.0627  0.0830
  174SAPI   H4X19782   3.911   5.224   8.946 -0.0497  0.0389  0.1897
  174SAPI   H4Y19783   4.014   5.381   8.954  0.3123 -1.5934  2.6945
  174SAPI   C3519784   3.823   5.398   8.854 -0.0155 -0.4827 -0.7606
  174SAPI   H5X19785   3.788   5.501   8.877  0.1157 -0.4160 -0.8579
  174SAPI   H5Y19786   3.726   5.344   8.861 -0.3560  0.2059  0.1678
  174SAPI   C3619787   3.879   5.398   8.712  0.2825 -0.0969 -0.2690
  174SAPI   H6X19788   3.879   5.292   8.680 -0.2183  0.0333 -0.7105
  174SAPI   H6Y19789   3.979   5.444   8.697 -0.6694  1.1816 -3.6709
  174SAPI   C3719790   3.795   5.471   8.607 -0.1084 -0.1263 -0.6602
  174SAPI   H7X19791   3.837   5.452   8.506  2.2608  0.1277  0.2144
  174SAPI   H7Y19792   3.795   5.580   8.626  0.7047  0.1582 -2.1162
  174SAPI   C3819793   3.652   5.424   8.613  0.1924  0.3330 -0.2417
  174SAPI   H8X19794   3.608   5.434   8.715 -1.5777 -0.1945 -0.9085
  174SAPI   H8Y19795   3.650   5.317   8.581  0.3206  0.2413  0.0551
  174SAPI   C3919796   3.551   5.491   8.517 -0.3898 -0.1542  0.2986
  174SAPI   H9X19797   3.573   5.469   8.411  0.5751 -0.0854  0.4758
  174SAPI   H9Y19798   3.574   5.597   8.539  0.6660 -0.2634 -0.2332
  174SAPI  C31019799   3.406   5.464   8.558  1.0239 -0.4901 -0.2830
  174SAPI  H10X19800   3.372   5.507   8.654  0.4020 -2.0722  0.2428
  174SAPI  H10Y19801   3.388   5.354   8.565 -2.0771 -0.1793 -1.8656
  174SAPI  C31119802   3.308   5.528   8.455 -0.0502  0.0205  0.4943
  174SAPI  H11X19803   3.204   5.493   8.477 -0.7270  1.0464 -0.8695
  174SAPI  H11Y19804   3.335   5.512   8.348 -1.2675 -1.4376  0.3692
  174SAPI  C31219805   3.296   5.683   8.466 -1.0262 -0.4563  0.6280
  174SAPI  H12X19806   3.255   5.713   8.565 -1.9648  1.4204 -0.2785
  174SAPI  H12Y19807   3.222   5.712   8.388  0.7946  1.3395 -0.5432
  174SAPI  C31319808   3.416   5.768   8.419  0.1509 -0.0256  0.0811
  174SAPI  H13X19809   3.465   5.712   8.337  2.2455 -0.9990  1.8921
  174SAPI  H13Y19810   3.488   5.768   8.504  0.1280 -0.2560  0.1032
  174SAPI  C31419811   3.374   5.908   8.383  0.0254 -0.1045  0.2585
  174SAPI  H14X19812   3.317   5.906   8.288 -0.3214 -1.3436  0.4753
  174SAPI  H14Y19813   3.472   5.954   8.355  1.6309 -1.9814  2.3987
  174SAPI  C31519814   3.290   5.990   8.480 -0.1753 -0.0089 -0.2656
  174SAPI  H15X19815   3.201   5.937   8.520 -0.1013  0.0464 -0.0286
  174SAPI  H15Y19816   3.245   6.075   8.424 -1.6511 -0.9273 -0.5311
  174SAPI  C31619817   3.375   6.044   8.598 -0.1029 -0.4042 -0.1260
  174SAPI  H16X19818   3.453   6.117   8.568 -0.7854  0.1022 -0.7128
  174SAPI  H16Y19819   3.433   5.955   8.631  2.0473  0.4237 -1.4684
  174SAPI  C31719820   3.304   6.089   8.725 -0.3789 -0.2333  0.3966
  174SAPI  H17X19821   3.231   6.013   8.758 -4.9683  2.6598 -2.0867
  174SAPI  H17Y19822   3.236   6.173   8.701  0.2293  0.5450  1.2775
  174SAPI  C31819823   3.394   6.137   8.835 -0.1594 -0.4691  0.4212
  174SAPI  H18X19824   3.334   6.197   8.907 -0.5896  1.3915 -1.3874
  174SAPI  H18Y19825   3.475   6.203   8.797 -1.4378  1.6240  1.1522
  174SAPI  H18Z19826   3.435   6.054   8.896  0.0361  0.4830  1.6084
  175SAPI   C1219827   1.318   3.122   5.600 -0.0227 -0.2918  0.1910
  175SAPI    H219828   1.373   3.129   5.697 -1.0216  2.2533  0.6562
  175SAPI    O219829   1.353   2.990   5.562 -0.2608  0.4101 -0.4060
  175SAPI   HO219830   1.281   2.927   5.558  0.4477 -0.4367 -0.3555
  175SAPI   C1319831   1.169   3.151   5.616 -0.2990 -0.1259  0.4260
  175SAPI    H319832   1.157   3.261   5.631  2.6418 -0.0299  2.7382
  175SAPI    O319833   1.110   3.078   5.721 -0.1599 -0.4933  0.0708
  175SAPI   HO319834   1.128   2.985   5.704 -0.6156  0.0144 -4.2079
  175SAPI   C1419835   1.102   3.120   5.485 -0.2248 -0.2796  0.3472
  175SAPI    H419836   1.128   3.014   5.462 -0.8341  0.0831 -2.3085
  175SAPI    O419837   0.953   3.129   5.485 -0.4422 -0.3813 -0.2770
  175SAPI   HO419838   0.918   3.215   5.509  0.5786  0.2714 -1.0131
  175SAPI   C1519839   1.166   3.208   5.374  0.1796  0.0271  0.7685
  175SAPI    H519840   1.124   3.311   5.382  0.6276  0.5413 -2.3828
  175SAPI    O519841   1.110   3.171   5.251  0.2239  0.6166  0.0994
  175SAPI   HO519842   1.116   3.077   5.235 -0.9975  0.5587 -0.0995
  175SAPI   C1619843   1.320   3.208   5.368 -0.3851 -0.1712 -0.1149
  175SAPI    H619844   1.360   3.110   5.335 -3.1862 -1.6411  0.6000
  175SAPI    O619845   1.362   3.319   5.283  0.0197  0.2669 -0.3559
  175SAPI   HO619846   1.431   3.367   5.329 -0.8633 -0.5801  2.0531
  175SAPI   C1119847   1.383   3.230   5.508  0.0829 -0.5466 -0.1201
  175SAPI    H119848   1.352   3.330   5.545  0.8809  0.1363 -1.2395
  175SAPI     P19849   1.620   3.357   5.515 -0.2885 -0.2731  0.2887
  175SAPI   O1319850   1.556   3.452   5.427 -0.0131  0.5292  0.2134
  175SAPI   O1419851   1.757   3.322   5.483 -0.6061 -0.5608  0.4316
  175SAPI   O1219852   1.526   3.221   5.521  0.5364  0.0468  0.7809
  175SAPI   O1119853   1.613   3.414   5.667 -0.0049  0.2274  0.2282
  175SAPI    C119854   1.685   3.355   5.777 -0.7152 -0.2244  0.3157
  175SAPI    HA19855   1.664   3.247   5.769  0.6598 -0.6589  1.8517
  175SAPI    HB19856   1.793   3.376   5.763 -0.5701 -1.1233  0.0348
  175SAPI    C219857   1.639   3.403   5.917  0.0190  0.6089  0.7547
  175SAPI    HS19858   1.532   3.375   5.917  0.5503 -1.6155  0.6879
  175SAPI   O2119859   1.669   3.539   5.931 -0.2350  0.1346  0.6071
  175SAPI   C2119860   1.584   3.610   6.004 -0.0984  0.4068  0.0171
  175SAPI   O2219861   1.481   3.567   6.051  0.3566 -0.4960  0.0522
  175SAPI   C2219862   1.628   3.760   6.020 -0.0453 -0.4237  0.0352
  175SAPI   H2R19863   1.638   3.774   6.130 -0.9473  0.0952  0.0622
  175SAPI   H2S19864   1.724   3.771   5.967  1.2011 -2.0024  1.8237
  175SAPI    C319865   1.712   3.311   6.012 -0.9233  0.2164 -0.5862
  175SAPI    HX19866   1.811   3.360   6.021 -1.5880  1.5390 -0.2478
  175SAPI    HY19867   1.723   3.211   5.965  2.0644  0.3757 -0.4554
  175SAPI   O3119868   1.655   3.310   6.144 -0.0540  0.6820  0.4250
  175SAPI   C3119869   1.589   3.202   6.178  0.0100 -0.0379  0.2099
  175SAPI   O3219870   1.553   3.106   6.110  0.2253 -0.0557 -0.5443
  175SAPI   C3219871   1.562   3.218   6.324 -0.0827 -0.8502 -1.0857
  175SAPI   H2X19872   1.489   3.299   6.345  0.1656 -0.4698 -1.6716
  175SAPI   H2Y19873   1.662   3.241   6.367 -0.6362  0.6683 -0.5610
  175SAPI   C2319874   1.526   3.861   5.961  0.5136  0.2182 -0.2552
  175SAPI   H3R19875   1.469   3.819   5.875 -1.5060 -1.1689  1.6495
  175SAPI   H3S19876   1.578   3.957   5.937  1.5858 -0.4095 -0.4995
  175SAPI   C2419877   1.423   3.899   6.066  0.3881  1.1461 -0.1722
  175SAPI   H4R19878   1.384   3.813   6.125 -1.0289  0.7655 -1.5929
  175SAPI   H4S19879   1.335   3.947   6.018 -0.7277  0.3182  0.9650
  175SAPI   C2519880   1.477   3.989   6.174  0.1353  0.0753 -0.3967
  175SAPI   H5R19881   1.506   4.089   6.140  1.7437  0.0641  0.8128
  175SAPI   C2619882   1.482   3.966   6.309  0.2484 -0.0820  0.9112
  175SAPI   H6R19883   1.518   4.053   6.365 -1.2246  1.4296 -0.4030
  175SAPI   C2719884   1.430   3.845   6.384  0.5270 -0.2597 -0.0551
  175SAPI   H7R19885   1.439   3.756   6.317 -0.9556  0.6701 -1.5490
  175SAPI   H7S19886   1.321   3.864   6.393  0.5537 -0.7112  1.5437
  175SAPI   C2819887   1.494   3.820   6.517 -0.5023  0.1233 -0.7891
  175SAPI   H8R19888   1.486   3.901   6.590 -4.0914 -0.1674 -0.7021
  175SAPI   C2919889   1.549   3.707   6.565  0.2762  1.0061  0.0583
  175SAPI   H9R19890   1.581   3.710   6.670  0.6060  3.4073 -0.0541
  175SAPI  C21019891   1.563   3.579   6.497  0.6838 -0.1771 -0.0816
  175SAPI  H10R19892   1.662   3.544   6.533  1.0828  1.6582  0.6910
  175SAPI  H10S19893   1.562   3.581   6.386 -3.0536 -1.8808 -0.2382
  175SAPI  C21119894   1.451   3.478   6.545 -0.4531 -0.4454 -0.1678
  175SAPI  H11R19895   1.357   3.490   6.489 -0.6061  0.4996  0.2799
  175SAPI  C21219896   1.466   3.379   6.641 -0.0905  0.2207 -0.2114
  175SAPI  H12R19897   1.386   3.309   6.670  0.9418 -1.5892 -1.5112
  175SAPI  C21319898   1.593   3.346   6.717  0.0534 -0.3385  0.1490
  175SAPI  H13R19899   1.670   3.377   6.643 -1.5945 -0.1953 -1.5804
  175SAPI  H13S19900   1.603   3.238   6.743  0.0623 -0.1891  0.7862
  175SAPI  C21419901   1.608   3.439   6.844 -0.5289  0.4375 -0.3262
  175SAPI  H14R19902   1.559   3.536   6.833 -1.3650 -0.1875 -2.6250
  175SAPI  C21519903   1.679   3.408   6.956 -0.9063 -0.3645  0.2765
  175SAPI  H15R19904   1.653   3.465   7.046 -3.0907 -0.1365 -0.4179
  175SAPI  C21619905   1.750   3.279   6.978  0.0810 -0.4528  0.1547
  175SAPI  H16R19906   1.837   3.296   7.045  0.3768  1.5660 -0.6717
  175SAPI  H16S19907   1.800   3.244   6.886  1.0874 -1.0029  0.8920
  175SAPI  C21719908   1.658   3.163   7.036 -0.0100 -0.4963 -0.1700
  175SAPI  H17R19909   1.719   3.071   7.047  0.1621 -0.3295  0.2873
  175SAPI  H17S19910   1.581   3.136   6.960  1.2884  1.0482 -2.1048
  175SAPI  C21819911   1.571   3.191   7.160 -0.5712  0.3807 -0.9178
  175SAPI  H18R19912   1.498   3.270   7.130 -0.2056  0.3479 -1.9521
  175SAPI  H18S19913   1.637   3.230   7.239  0.3795  1.5836 -2.2529
  175SAPI  C21919914   1.497   3.064   7.200 -0.3234  0.3323  0.5306
  175SAPI  H19R19915   1.578   2.989   7.187 -0.6195  0.3247 -1.6570
  175SAPI  H19S19916   1.411   3.038   7.136  0.4300  0.6439 -0.6568
  175SAPI  C22019917   1.446   3.050   7.344  0.0166 -0.3331 -0.7012
  175SAPI  H20R19918   1.513   3.106   7.413  0.7560  1.1371 -2.5378
  175SAPI  H20S19919   1.446   2.942   7.369  2.0841  0.0680  1.4271
  175SAPI  H20T19920   1.342   3.088   7.351  0.0406 -0.5220  1.5100
  175SAPI   C3319921   1.516   3.094   6.396 -0.1892  0.2707 -0.1420
  175SAPI   H3X19922   1.537   3.103   6.505  0.0294  2.5996 -0.3300
  175SAPI   H3Y19923   1.582   3.009   6.370  0.1523  0.9928 -1.7690
  175SAPI   C3419924   1.364   3.067   6.399  0.3765 -0.6435  0.3123
  175SAPI   H4X19925   1.320   3.026   6.305  0.6900  1.6127 -0.8728
  175SAPI   H4Y19926   1.309   3.163   6.393  0.0411 -0.7957  0.8789
  175SAPI   C3519927   1.319   3.000   6.530 -0.1561 -0.3492  0.0583
  175SAPI   H5X19928   1.219   3.038   6.561 -0.4600 -0.9126 -0.2041
  175SAPI   H5Y19929   1.388   3.034   6.609  0.3783 -1.2367 -0.0118
  175SAPI   C3619930   1.322   2.850   6.521  0.6571  0.2311 -0.2034
  175SAPI   H6X19931   1.429   2.825   6.507  0.1105 -0.6898 -3.4479
  175SAPI   H6Y19932   1.259   2.823   6.434 -1.0389 -0.4575  1.1710
  175SAPI   C3719933   1.268   2.772   6.644 -0.4789 -0.0057  0.4652
  175SAPI   H7X19934   1.248   2.670   6.605  2.1052 -0.4377  0.1120
  175SAPI   H7Y19935   1.186   2.830   6.691 -0.5634  0.7155 -0.5404
  175SAPI   C3819936   1.391   2.749   6.737 -0.3597 -0.0279 -0.1276
  175SAPI   H8X19937   1.447   2.845   6.734  0.0307 -0.2752 -0.8323
  175SAPI   H8Y19938   1.458   2.672   6.695 -1.4248 -1.5753  0.8893
  175SAPI   C3919939   1.348   2.694   6.878 -0.6120 -0.5620  0.1264
  175SAPI   H9X19940   1.311   2.589   6.873  1.3043 -1.4659  2.8642
  175SAPI   H9Y19941   1.277   2.765   6.926 -0.3795 -0.4922  0.3679
  175SAPI  C31019942   1.468   2.683   6.975 -0.0598  0.3706  0.5902
  175SAPI  H10X19943   1.530   2.775   6.970  1.1191 -0.3291  1.7693
  175SAPI  H10Y19944   1.539   2.601   6.949  0.3824  0.7883  0.4668
  175SAPI  C31119945   1.425   2.653   7.117 -0.1618 -0.1509  0.1614
  175SAPI  H11X19946   1.345   2.727   7.139 -0.5923 -0.7278  0.5738
  175SAPI  H11Y19947   1.514   2.654   7.185  2.7927 -1.5743 -3.3491
  175SAPI  C31219948   1.372   2.512   7.143 -0.8964 -0.5357  0.5118
  175SAPI  H12X19949   1.445   2.442   7.098 -0.1754 -0.4362  1.5065
  175SAPI  H12Y19950   1.282   2.506   7.078  0.3598  0.8252 -1.4891
  175SAPI  C31319951   1.339   2.487   7.290 -0.3091  0.0911  0.0517
  175SAPI  H13X19952   1.245   2.543   7.308  0.0374  0.8172 -0.3531
  175SAPI  H13Y19953   1.416   2.529   7.359  2.1871 -2.7283 -0.7741
  175SAPI  C31419954   1.315   2.336   7.318  0.0905  0.6039  0.0472
  175SAPI  H14X19955   1.409   2.278   7.313  0.2089  0.7645  0.3549
  175SAPI  H14Y19956   1.257   2.307   7.227 -0.8331  1.7409  0.2508
  175SAPI  C31519957   1.252   2.313   7.458 -0.1148 -0.1509 -0.1588
  175SAPI  H15X19958   1.153   2.364   7.458  0.1989  0.4780 -1.0477
  175SAPI  H15Y19959   1.322   2.348   7.537  0.4351 -1.4653 -0.0408
  175SAPI  C31619960   1.200   2.170   7.480  0.3665  0.2266 -0.2909
  175SAPI  H16X19961   1.283   2.096   7.473 -0.7402 -1.0882 -0.1122
  175SAPI  H16Y19962   1.119   2.153   7.405 -0.8204 -3.8177  1.6102
  175SAPI  C31719963   1.159   2.145   7.625 -0.2366  0.3147 -0.5751
  175SAPI  H17X19964   1.099   2.227   7.669  2.4762  0.9698  2.3107
  175SAPI  H17Y19965   1.255   2.147   7.681 -0.4974  0.6917 -0.1328
  175SAPI  C31819966   1.094   2.014   7.652 -1.1109  0.0495 -0.0104
  175SAPI  H18X19967   1.135   1.930   7.592  1.6894  0.8838  0.5901
  175SAPI  H18Y19968   0.986   2.012   7.624 -0.5986 -1.3134 -2.1600
  175SAPI  H18Z19969   1.104   1.991   7.760  0.4028 -0.2659 -0.2042
  176SAPI   C1219970   1.486   1.711   5.341  0.2111 -0.2601 -0.2069
  176SAPI    H219971   1.535   1.634   5.405 -0.0920 -0.8469 -0.6660
  176SAPI    O219972   1.545   1.837   5.355 -0.4865  0.1628  0.1166
  176SAPI   HO219973   1.507   1.872   5.437 -0.4022 -0.1352  0.2814
  176SAPI   C1319974   1.502   1.651   5.205  1.0214  0.4240  0.4327
  176SAPI    H319975   1.450   1.554   5.195 -1.0776  1.3711  1.4225
  176SAPI    O319976   1.638   1.627   5.179  0.1743 -0.4284  0.3298
  176SAPI   HO319977   1.656   1.561   5.112  0.8110 -0.1304  0.1914
  176SAPI   C1419978   1.439   1.743   5.106 -0.3080  0.3122 -0.0349
  176SAPI    H419979   1.496   1.837   5.116  3.0122 -1.5270 -0.2552
  176SAPI    O419980   1.461   1.704   4.968 -0.5345  0.2355  0.2013
  176SAPI   HO419981   1.403   1.761   4.917 -1.2734  0.8686  1.6648
  176SAPI   C1519982   1.287   1.762   5.132 -0.3942  0.3056 -0.0283
  176SAPI    H519983   1.232   1.666   5.121 -1.5435  0.7302  1.5540
  176SAPI    O519984   1.225   1.860   5.039 -0.4487 -0.2315 -0.3638
  176SAPI   HO519985   1.288   1.927   5.012 -0.0792 -0.9710 -1.4161
  176SAPI   C1619986   1.263   1.799   5.278  0.8311  0.4922  0.7307
  176SAPI    H619987   1.290   1.905   5.294  1.1340  0.9981 -2.5083
  176SAPI    O619988   1.119   1.779   5.299 -0.1503 -0.5609 -0.4241
  176SAPI   HO619989   1.077   1.849   5.249  0.6662  3.7312  4.0402
  176SAPI   C1119990   1.336   1.716   5.378  0.2298  0.4613 -0.2886
  176SAPI    H119991   1.287   1.618   5.359 -1.8493  0.7599  2.6505
  176SAPI     P19992   1.299   1.662   5.637 -0.4268  0.2853  0.3368
  176SAPI   O1319993   1.264   1.523   5.598 -0.4706 -0.2330 -0.2217
  176SAPI   O1419994   1.222   1.725   5.744 -0.6096  0.1758 -0.0939
  176SAPI   O1219995   1.304   1.756   5.507 -0.1999 -0.6903 -0.2238
  176SAPI   O1119996   1.453   1.664   5.673 -0.2346 -0.2957 -1.0003
  176SAPI    C119997   1.524   1.783   5.694  0.3564 -0.5787 -0.1990
  176SAPI    HA19998   1.589   1.798   5.604 -0.2850  0.9042 -0.4524
  176SAPI    HB19999   1.455   1.869   5.705  0.2807 -0.8837  2.1780
  176SAPI    C220000   1.602   1.776   5.829  0.8060 -0.1536  0.4752
  176SAPI    HS20001   1.682   1.700   5.819  1.3735  0.2921  1.4809
  176SAPI   O2120002   1.508   1.739   5.936  0.3435 -0.3226 -0.3740
  176SAPI   C2120003   1.546   1.623   5.998 -0.3752  0.0820 -0.0693
  176SAPI   O2220004   1.638   1.548   5.969  0.3447 -0.2411 -0.5628
  176SAPI   C2220005   1.445   1.602   6.112 -0.3945  0.0205 -0.7374
  176SAPI   H2R20006   1.369   1.683   6.113  0.1603  0.5458 -0.6083
  176SAPI   H2S20007   1.400   1.502   6.090  0.3852 -0.7158  0.8624
  176SAPI    C320008   1.676   1.914   5.856 -0.7097  0.0101  0.2044
  176SAPI    HX20009   1.590   1.985   5.853 -1.0296 -0.3894 -1.4785
  176SAPI    HY20010   1.741   1.946   5.772  0.0705 -1.5484  0.1797
  176SAPI   O3120011   1.721   1.909   6.001 -0.4594 -0.4754  0.3310
  176SAPI   C3120012   1.837   1.857   6.015 -0.3126 -0.4062  1.0786
  176SAPI   O3220013   1.919   1.838   5.929 -0.2048  0.9269  0.3563
  176SAPI   C3220014   1.870   1.862   6.165  0.1533  1.0004  0.0635
  176SAPI   H2X20015   1.937   1.776   6.183 -0.8840 -0.0098 -0.7208
  176SAPI   H2Y20016   1.774   1.858   6.221  0.0023 -3.4904 -0.1851
  176SAPI   C2320017   1.512   1.586   6.248  0.0441  0.5711 -0.3014
  176SAPI   H3R20018   1.559   1.680   6.282 -0.6837  0.4561  1.1139
  176SAPI   H3S20019   1.592   1.509   6.244 -0.8242 -0.4385  0.7922
  176SAPI   C2420020   1.424   1.535   6.363  0.2244 -0.0827  0.4759
  176SAPI   H4R20021   1.496   1.511   6.444  1.4785 -1.6168 -1.0200
  176SAPI   H4S20022   1.390   1.432   6.337  0.4281  0.1044 -0.5989
  176SAPI   C2520023   1.302   1.620   6.380  0.3938 -0.1850  0.2163
  176SAPI   H5R20024   1.265   1.666   6.287  1.0036  0.0392  0.0807
  176SAPI   C2620025   1.236   1.642   6.498  1.0903  0.7034  0.1513
  176SAPI   H6R20026   1.147   1.707   6.504 -0.7267 -1.7722  1.9572
  176SAPI   C2720027   1.264   1.592   6.637 -0.3997 -0.5603 -0.2196
  176SAPI   H7R20028   1.339   1.661   6.681 -2.5777  1.9795 -0.2703
  176SAPI   H7S20029   1.331   1.505   6.616 -1.9116 -1.3835 -1.9232
  176SAPI   C2820030   1.160   1.551   6.736 -0.4729  0.2420 -0.4784
  176SAPI   H8R20031   1.064   1.527   6.688  0.0733  1.9857 -2.5928
  176SAPI   C2920032   1.169   1.538   6.873  0.1258  0.6497 -0.7876
  176SAPI   H9R20033   1.082   1.498   6.926  1.5690 -0.5002  0.8699
  176SAPI  C21020034   1.290   1.549   6.967 -0.3919 -0.0509 -0.3359
  176SAPI  H10R20035   1.257   1.581   7.068 -0.5493  1.7532 -0.9190
  176SAPI  H10S20036   1.358   1.626   6.926  1.3932 -0.3797  1.7678
  176SAPI  C21120037   1.384   1.434   6.954 -0.7523 -0.0770  0.3322
  176SAPI  H11R20038   1.411   1.408   6.851  0.6207  0.7471  0.4546
  176SAPI  C21220039   1.447   1.359   7.044 -0.0306  0.0517  0.5507
  176SAPI  H12R20040   1.527   1.294   7.004 -0.2706 -0.4789  0.9240
  176SAPI  C21320041   1.432   1.376   7.189  0.4016  0.4532 -0.6952
  176SAPI  H13R20042   1.332   1.399   7.231  0.1481 -2.0401  0.2373
  176SAPI  H13S20043   1.491   1.469   7.202 -2.5791  2.5971 -1.4630
  176SAPI  C21420044   1.497   1.266   7.264 -0.2663  0.2023 -0.4030
  176SAPI  H14R20045   1.604   1.261   7.242 -0.6430 -0.3785 -2.2093
  176SAPI  C21520046   1.450   1.194   7.368  0.1555 -0.4840 -0.3460
  176SAPI  H15R20047   1.514   1.113   7.406  0.1771  0.0788  0.8545
  176SAPI  C21620048   1.308   1.206   7.425  0.2504 -0.3268  0.0894
  176SAPI  H16R20049   1.243   1.247   7.345  0.2699 -3.6866 -1.8502
  176SAPI  H16S20050   1.301   1.277   7.510  0.5432 -0.3318  0.1188
  176SAPI  C21720051   1.240   1.074   7.463 -0.0653  0.4763  0.7644
  176SAPI  H17R20052   1.259   1.011   7.373 -1.5965 -0.5129  1.1056
  176SAPI  H17S20053   1.130   1.080   7.473 -0.2793 -1.0079 -0.4351
  176SAPI  C21820054   1.288   1.000   7.594  0.3798  0.4581  0.0671
  176SAPI  H18R20055   1.260   1.056   7.685  2.3940  0.4515  0.7513
  176SAPI  H18S20056   1.394   0.970   7.607  0.0840 -0.1661  1.0820
  176SAPI  C21920057   1.225   0.858   7.610 -0.1789  0.3710 -0.1855
  176SAPI  H19R20058   1.247   0.805   7.515  1.9560  2.2324 -0.8469
  176SAPI  H19S20059   1.115   0.860   7.616 -0.3365  0.7900 -2.2619
  176SAPI  C22020060   1.281   0.763   7.721 -0.0728  0.1031  0.7978
  176SAPI  H20R20061   1.212   0.676   7.724  0.4631 -0.5407 -2.2547
  176SAPI  H20S20062   1.295   0.820   7.816  1.6048 -0.5551  0.9740
  176SAPI  H20T20063   1.381   0.731   7.686  0.4183  1.1223  1.2229
  176SAPI   C3320064   1.947   1.991   6.176  0.0405  0.0007 -0.5915
  176SAPI   H3X20065   1.889   2.082   6.149 -0.5126  0.9121  3.0922
  176SAPI   H3Y20066   2.047   1.988   6.128  1.5206  3.3535  1.8538
  176SAPI   C3420067   1.980   2.014   6.326  0.5675  0.0533 -0.0073
  176SAPI   H4X20068   2.059   1.941   6.355  0.8185  1.3775  3.0710
  176SAPI   H4Y20069   1.893   1.998   6.394  0.5262  4.2592  1.2349
  176SAPI   C3520070   2.028   2.158   6.362 -0.3379  0.2667  0.1334
  176SAPI   H5X20071   1.948   2.228   6.332 -1.6617 -1.2973 -0.1422
  176SAPI   H5Y20072   2.110   2.184   6.292  1.9588 -0.2544  2.4384
  176SAPI   C3620073   2.074   2.171   6.512 -0.0752  0.4683  0.0620
  176SAPI   H6X20074   2.132   2.081   6.542 -2.1690 -1.1274 -0.4211
  176SAPI   H6Y20075   1.976   2.170   6.564  0.5119 -2.5990  1.3428
  176SAPI   C3720076   2.152   2.293   6.551 -0.9494 -0.2248  0.4513
  176SAPI   H7X20077   2.087   2.378   6.519  1.3984  1.8082  0.7018
  176SAPI   H7Y20078   2.237   2.295   6.479 -0.0029 -2.0175  1.4575
  176SAPI   C3820079   2.209   2.312   6.692 -0.4245 -0.3472 -0.0171
  176SAPI   H8X20080   2.288   2.236   6.712 -0.4425 -1.0241 -2.1688
  176SAPI   H8Y20081   2.121   2.299   6.758 -0.4892 -1.1454 -0.2384
  176SAPI   C3920082   2.260   2.451   6.712 -0.1463 -0.3012  0.1501
  176SAPI   H9X20083   2.184   2.532   6.706  0.3835  0.1933 -0.0087
  176SAPI   H9Y20084   2.332   2.480   6.633  1.4447 -3.2775  0.3600
  176SAPI  C31020085   2.312   2.481   6.856 -0.0087 -0.3709  0.4236
  176SAPI  H10X20086   2.413   2.437   6.843 -0.5639 -1.6005  0.1585
  176SAPI  H10Y20087   2.251   2.416   6.922  0.4791 -0.0245  1.2382
  176SAPI  C31120088   2.324   2.633   6.896 -0.1599 -0.0439 -0.3283
  176SAPI  H11X20089   2.231   2.691   6.878 -1.2895 -1.6947 -0.0133
  176SAPI  H11Y20090   2.401   2.677   6.830  1.5826  0.7154  2.0370
  176SAPI  C31220091   2.360   2.661   7.046  0.0858  0.2594  0.3394
  176SAPI  H12X20092   2.405   2.762   7.060 -2.2954  1.7641 -1.9866
  176SAPI  H12Y20093   2.440   2.588   7.070  2.0002  2.2027  0.1656
  176SAPI  C31320094   2.243   2.627   7.142 -0.1783  0.7282 -0.9460
  176SAPI  H13X20095   2.208   2.522   7.127  1.0895 -0.1441  1.6564
  176SAPI  H13Y20096   2.157   2.694   7.121 -0.0702  0.4141 -2.5414
  176SAPI  C31420097   2.277   2.627   7.296  0.1118  0.1421 -0.0328
  176SAPI  H14X20098   2.385   2.613   7.317  0.2363  1.4745  0.2923
  176SAPI  H14Y20099   2.221   2.545   7.346 -0.7601  1.0888  0.5901
  176SAPI  C31520100   2.253   2.761   7.365  0.0222 -0.7238 -0.3930
  176SAPI  H15X20101   2.316   2.839   7.316 -0.0475 -0.3103  0.1653
  176SAPI  H15Y20102   2.284   2.735   7.469  1.4513 -2.1091 -1.1144
  176SAPI  C31620103   2.105   2.806   7.376  0.2532 -0.0153 -0.9591
  176SAPI  H16X20104   2.064   2.731   7.447  0.1469  1.9767  1.2393
  176SAPI  H16Y20105   2.055   2.813   7.277  0.6146  0.9961 -1.0872
  176SAPI  C31720106   2.088   2.939   7.456 -0.8961 -0.3205  0.1670
  176SAPI  H17X20107   2.101   3.022   7.384 -0.0106  1.8166  2.6273
  176SAPI  H17Y20108   2.173   2.943   7.528  1.0681  0.3007 -2.0478
  176SAPI  C31820109   1.956   2.952   7.522 -0.4465 -0.3390 -0.6401
  176SAPI  H18X20110   1.921   2.851   7.552  0.6810 -1.2904 -2.3791
  176SAPI  H18Y20111   1.890   3.018   7.462 -2.6738  0.2090  2.2225
  176SAPI  H18Z20112   1.960   3.011   7.616 -0.7852 -0.4766 -0.5371
  177SLPC     N20113   4.744   4.995   9.757  0.2088 -0.8887 -0.3480
  177SLPC   C1320114   4.862   5.083   9.772  0.2597  0.0478 -0.6758
  177SLPC  H13A20115   4.830   5.186   9.778 -1.0199 -0.4168  2.6256
  177SLPC  H13B20116   4.912   5.071   9.867  1.5375  2.2398 -1.0101
  177SLPC  H13C20117   4.937   5.067   9.695  0.2190 -0.8943 -0.5295
  177SLPC   C1420118   4.658   5.011   9.874 -0.7981 -0.2063 -0.1389
  177SLPC  H14A20119   4.689   4.952   9.959 -2.4001 -1.0034 -0.0812
  177SLPC  H14B20120   4.659   5.113   9.911 -0.1617  0.7297 -2.5341
  177SLPC  H14C20121   4.557   4.991   9.843 -0.0337 -0.5237 -2.6566
  177SLPC   C1520122   4.789   4.857   9.745 -0.8286  0.2926  0.6845
  177SLPC  H15A20123   4.859   4.838   9.824  0.5190  1.0541 -0.2957
  177SLPC  H15B20124   4.718   4.775   9.739 -0.2582 -0.1032 -1.7763
  177SLPC  H15C20125   4.838   4.838   9.651 -1.7738 -3.0327  0.7355
  177SLPC   C1220126   4.672   5.027   9.629 -0.1629 -0.0774 -1.2537
  177SLPC  H12A20127   4.633   5.128   9.641 -0.9066 -0.4873 -0.0055
  177SLPC  H12B20128   4.588   4.960   9.617 -0.2077 -0.1853 -0.4047
  177SLPC   C1120129   4.748   5.041   9.494  0.1884  0.6996  0.2706
  177SLPC  H11A20130   4.826   5.118   9.511 -1.9251  3.3323 -1.1230
  177SLPC  H11B20131   4.686   5.089   9.415  0.1802 -1.0149 -0.8137
  177SLPC     P20132   4.708   4.809   9.396 -0.0328 -0.0577  0.2383
  177SLPC   O1320133   4.767   4.678   9.427  0.1881  0.5165  0.1700
  177SLPC   O1420134   4.570   4.836   9.436 -0.0547  0.1690 -0.0449
  177SLPC   O1220135   4.809   4.917   9.458 -0.1308  0.5358  0.3933
  177SLPC   O1120136   4.716   4.825   9.247 -0.0396  0.1294 -0.3827
  177SLPC    C120137   4.805   4.909   9.169 -0.0057  0.0938 -1.0849
  177SLPC    HA20138   4.739   4.953   9.092 -2.1160 -1.0450 -0.0144
  177SLPC    HB20139   4.841   4.992   9.235 -1.7105  0.9258 -1.1361
  177SLPC    C220140   4.920   4.827   9.109 -0.3750 -0.0095 -0.2054
  177SLPC    HS20141   4.967   4.774   9.195 -2.1583 -0.6859  0.4079
  177SLPC   O2120142   5.010   4.915   9.029 -0.3593  0.5252 -0.0174
  177SLPC   C2120143   5.139   4.874   9.029  0.2062 -0.8585  0.1171
  177SLPC   O2220144   5.184   4.794   9.109  0.5594  0.5167  0.2731
  177SLPC   C2220145   5.218   4.941   8.918  0.2208  0.2305  0.7806
  177SLPC   H2R20146   5.170   4.905   8.825 -0.0047  1.8262  0.2504
  177SLPC   H2S20147   5.191   5.047   8.936  0.2959  0.3807  0.0467
  177SLPC    C320148   4.871   4.715   9.014  0.5477 -0.3765 -0.3653
  177SLPC    HX20149   4.802   4.660   9.081  2.1881  1.2393  2.8968
  177SLPC    HY20150   4.961   4.656   8.990  0.0357 -1.9297  1.3660
  177SLPC   O3120151   4.793   4.777   8.911  0.0356  0.4453  0.1706
  177SLPC   C3120152   4.862   4.769   8.787  0.0209 -0.7489  0.9264
  177SLPC   O3220153   4.962   4.707   8.767 -0.4095 -0.5384 -0.1468
  177SLPC   C3220154   4.783   4.851   8.679  0.2392 -0.0482 -0.3102
  177SLPC   H2X20155   4.728   4.928   8.737 -0.2094 -0.2458 -0.4682
  177SLPC   H2Y20156   4.712   4.786   8.624 -1.7670  1.4381  0.4107
  177SLPC   C2320157   5.364   4.915   8.905  0.0334 -0.0665  0.3883
  177SLPC   H3R20158   5.398   4.815   8.940 -0.6198 -0.0798  1.0018
  177SLPC   H3S20159   5.430   4.972   8.974  1.1624  0.6469 -1.2046
  177SLPC   C2420160   5.422   4.942   8.768 -0.2342 -0.1253  0.4749
  177SLPC   H4R20161   5.529   4.971   8.778 -0.9541  1.8058  5.6356
  177SLPC   H4S20162   5.373   5.031   8.724 -0.2520  0.0281  0.8054
  177SLPC   C2520163   5.406   4.819   8.672 -0.0360  0.0335  0.6161
  177SLPC   H5R20164   5.300   4.813   8.639  0.3638  1.3813 -1.0300
  177SLPC   H5S20165   5.450   4.732   8.725 -0.2488 -0.4810 -0.0461
  177SLPC   C2620166   5.487   4.849   8.552 -0.4662  0.2416 -0.3262
  177SLPC   H6R20167   5.590   4.883   8.576 -0.4735  1.0691 -1.3677
  177SLPC   H6S20168   5.439   4.936   8.501 -0.0115  0.6837 -0.0160
  177SLPC   C2720169   5.495   4.731   8.458  0.2677  0.8858  0.2839
  177SLPC   H7R20170   5.393   4.704   8.425  0.7784 -0.0449 -0.5898
  177SLPC   H7S20171   5.544   4.647   8.512 -0.4547 -0.4370 -1.0356
  177SLPC   C2820172   5.583   4.767   8.338  0.4926  0.2987  0.4333
  177SLPC   H8R20173   5.692   4.764   8.363  0.8350  0.2110 -0.9931
  177SLPC   H8S20174   5.563   4.871   8.307 -1.4420 -0.0779  0.3438
  177SLPC   C2920175   5.579   4.672   8.217 -0.2154 -0.0660 -0.4523
  177SLPC   H9R20176   5.553   4.568   8.240 -0.8884 -0.2341 -1.8075
  177SLPC  C21020177   5.620   4.703   8.091  0.0383  0.3435  0.3197
  177SLPC  H10R20178   5.602   4.633   8.007  1.1715  1.3629 -0.8242
  177SLPC  C21120179   5.676   4.835   8.039  0.3519  0.7764 -0.1820
  177SLPC  H11R20180   5.718   4.894   8.123  2.3530 -1.0255  0.1582
  177SLPC  H11S20181   5.764   4.810   7.975  0.3382 -3.5653  1.2209
  177SLPC  C21220182   5.567   4.901   7.956 -0.3791 -0.2155  0.1588
  177SLPC  H12R20183   5.479   4.930   8.014 -0.2411 -3.3422  2.1732
  177SLPC  C21320184   5.573   4.934   7.827  0.4438  0.0067  1.0127
  177SLPC  H13R20185   5.483   4.988   7.796 -0.2099 -2.1084 -1.0253
  177SLPC  C21420186   5.679   4.923   7.716  0.0336  0.2637 -0.0040
  177SLPC  H14R20187   5.782   4.905   7.753  0.2076 -0.4626 -0.7968
  177SLPC  H14S20188   5.684   5.015   7.654 -1.5507 -2.2548 -4.3910
  177SLPC  C21520189   5.657   4.809   7.614 -0.3023 -0.5657  0.1326
  177SLPC  H15R20190   5.734   4.816   7.534  0.1520  0.9246  0.6739
  177SLPC  H15S20191   5.563   4.834   7.560 -0.5503  1.0179  1.2445
  177SLPC  C21620192   5.674   4.675   7.686 -0.1869 -0.3403  0.6611
  177SLPC  H16R20193   5.610   4.649   7.773 -0.5369 -1.4264  0.0998
  177SLPC  H16S20194   5.771   4.669   7.739 -0.1921  0.4304  0.7707
  177SLPC  C21720195   5.672   4.556   7.593 -1.0487 -0.5009  0.5034
  177SLPC  H17R20196   5.750   4.490   7.635 -2.2289 -1.4099  1.3585
  177SLPC  H17S20197   5.719   4.575   7.494  0.8538 -0.7959  1.3116
  177SLPC  C21820198   5.549   4.475   7.584 -1.2318  0.4578 -0.9248
  177SLPC  H18R20199   5.535   4.422   7.681 -2.8465  0.8019 -0.9509
  177SLPC  H18S20200   5.557   4.389   7.515  0.3004 -0.8407  0.7515
  177SLPC  H18T20201   5.456   4.530   7.558 -1.0206  1.8376  0.9635
  177SLPC   C3320202   4.894   4.938   8.603  0.3794  0.1216  0.3697
  177SLPC   H3X20203   4.973   4.976   8.672  1.8195 -3.1086  0.6948
  177SLPC   H3Y20204   4.841   5.023   8.556 -0.0767 -0.0425  0.5901
  177SLPC   C3420205   4.968   4.855   8.490 -0.5461 -0.3446 -1.1583
  177SLPC   H4X20206   4.900   4.774   8.458 -1.0407  0.0200 -1.0427
  177SLPC   H4Y20207   5.052   4.795   8.531 -1.2761  0.2585  1.4013
  177SLPC   C3520208   5.013   4.938   8.369  0.4258 -0.7980 -0.4516
  177SLPC   H5X20209   5.103   4.994   8.400 -0.3745  0.7417 -0.8056
  177SLPC   H5Y20210   4.928   5.005   8.343  0.4186 -1.0184 -1.0281
  177SLPC   C3620211   5.037   4.865   8.238 -0.6850  0.0284  0.1783
  177SLPC   H6X20212   5.038   4.934   8.151 -0.5550  0.2314  0.3401
  177SLPC   H6Y20213   4.952   4.794   8.231 -0.2672 -0.3630 -1.3782
  177SLPC   C3720214   5.165   4.792   8.258 -0.6727 -0.4716 -0.6474
  177SLPC   H7X20215   5.150   4.722   8.343  2.4936  0.5486  0.9109
  177SLPC   H7Y20216   5.246   4.865   8.279 -2.3578  2.1924 -2.6729
  177SLPC   C3820217   5.214   4.698   8.143  0.6277  0.8035  0.1399
  177SLPC   H8X20218   5.146   4.611   8.131  2.8099 -0.8245 -1.0083
  177SLPC   H8Y20219   5.316   4.660   8.162  0.9652 -0.5685 -3.6506
  177SLPC   C3920220   5.209   4.761   8.002 -0.5229 -0.0671  0.1107
  177SLPC   H9X20221   5.269   4.854   8.008  0.1923 -0.6114  1.6919
  177SLPC   H9Y20222   5.107   4.798   7.977 -1.3327 -1.9645  0.4507
  177SLPC  C31020223   5.256   4.662   7.890 -0.0982  0.1236  0.0505
  177SLPC  H10X20224   5.186   4.575   7.888  0.0308  0.0236 -0.1470
  177SLPC  H10Y20225   5.358   4.629   7.917  0.3515  0.6229 -0.9716
  177SLPC  C31120226   5.272   4.725   7.749  0.4059  0.6631 -0.0336
  177SLPC  H11X20227   5.302   4.640   7.685 -0.9659  0.2345 -0.1219
  177SLPC  H11Y20228   5.337   4.816   7.744  0.3896  0.7811  1.2869
  177SLPC  C31220229   5.135   4.771   7.686  0.0115  0.4283  0.8556
  177SLPC  H12X20230   5.077   4.842   7.748  0.9780  0.1015  2.1777
  177SLPC  H12Y20231   5.075   4.678   7.696  1.4790 -0.8830 -1.5437
  177SLPC  C31320232   5.145   4.815   7.536 -0.0703 -0.2233 -0.0132
  177SLPC  H13X20233   5.204   4.740   7.479 -2.3980 -0.1753 -2.7021
  177SLPC  H13Y20234   5.201   4.910   7.530  1.2146 -0.8263  1.5850
  177SLPC  C31420235   5.009   4.846   7.468  0.8821  0.1857  0.2198
  177SLPC  H14X20236   5.012   4.894   7.367  0.2229 -0.7387 -0.2547
  177SLPC  H14Y20237   4.949   4.907   7.538 -0.7322 -1.6359  0.5093
  177SLPC  C31520238   4.927   4.722   7.439 -0.1668  0.2632  0.1623
  177SLPC  H15X20239   4.830   4.739   7.387 -0.2048 -2.1640 -0.6486
  177SLPC  H15Y20240   4.906   4.670   7.535 -4.2233 -0.0021 -0.6909
  177SLPC  C31620241   4.992   4.622   7.340  0.8058 -0.3588 -0.0380
  177SLPC  H16X20242   5.092   4.595   7.378  0.2232 -1.0609  1.0473
  177SLPC  H16Y20243   5.005   4.676   7.244  1.9235 -1.1000 -0.3138
  177SLPC  C31720244   4.915   4.489   7.300 -0.6722  0.2821 -0.6184
  177SLPC  H17X20245   4.804   4.493   7.304 -0.7162  1.1505 -2.2315
  177SLPC  H17Y20246   4.957   4.406   7.362 -0.1305  0.8921 -0.1439
  177SLPC  C31820247   4.944   4.458   7.150  0.4343  0.0564  0.5807
  177SLPC  H18X20248   4.885   4.520   7.078  1.9201 -0.7513 -1.4282
  177SLPC  H18Y20249   4.910   4.354   7.130 -0.4408 -0.2746  3.3956
  177SLPC  H18Z20250   5.053   4.472   7.136  0.8338  1.6538  4.1455
  178SLPC     N20251   2.515   2.180   9.565  0.6194 -0.4419  0.2985
  178SLPC   C1320252   2.482   2.268   9.681 -0.6552 -0.0303  0.4446
  178SLPC  H13A20253   2.380   2.259   9.714 -1.8020  0.3391 -2.6538
  178SLPC  H13B20254   2.560   2.278   9.755  0.7208 -0.8195 -0.8396
  178SLPC  H13C20255   2.483   2.366   9.634 -1.9980 -1.2881 -2.4198
  178SLPC   C1420256   2.566   2.048   9.618  1.0191  0.3733 -0.5638
  178SLPC  H14A20257   2.623   1.991   9.546  0.7315  1.8552 -2.0287
  178SLPC  H14B20258   2.627   2.068   9.704 -1.2928  2.4136  0.7312
  178SLPC  H14C20259   2.480   1.987   9.644 -0.1075  2.4889  0.9641
  178SLPC   C1520260   2.629   2.237   9.485 -0.4218 -0.5015  0.2023
  178SLPC  H15A20261   2.722   2.241   9.541 -0.7541 -0.9343  0.7978
  178SLPC  H15B20262   2.643   2.173   9.399 -3.3936 -1.3204  0.2139
  178SLPC  H15C20263   2.606   2.339   9.459 -0.9403 -0.5846  0.3222
  178SLPC   C1220264   2.398   2.166   9.476 -0.1418  0.4177 -0.3877
  178SLPC  H12A20265   2.372   2.266   9.444  1.0163  0.8789  0.0725
  178SLPC  H12B20266   2.319   2.119   9.533  1.0270 -1.9747 -0.6241
  178SLPC   C1120267   2.405   2.077   9.352  0.0386 -0.3627 -0.0550
  178SLPC  H11A20268   2.478   2.126   9.284 -0.7429  1.0962  0.1173
  178SLPC  H11B20269   2.303   2.094   9.311 -0.1380  0.0695  0.5597
  178SLPC     P20270   2.306   1.853   9.431 -0.2239 -0.1606 -0.5718
  178SLPC   O1320271   2.367   1.725   9.474 -0.6737 -0.7416  0.0410
  178SLPC   O1420272   2.230   1.928   9.533 -0.4555 -0.8202  0.1433
  178SLPC   O1220273   2.427   1.942   9.382 -0.0071  0.3128 -0.1506
  178SLPC   O1120274   2.231   1.824   9.301 -0.2151 -0.3077 -0.7478
  178SLPC    C120275   2.298   1.818   9.177  0.0980  0.3003 -0.2359
  178SLPC    HA20276   2.217   1.826   9.101 -0.2046  0.1193  0.0645
  178SLPC    HB20277   2.374   1.898   9.160  0.0439  0.0763 -1.6763
  178SLPC    C220278   2.351   1.668   9.150 -0.6394 -0.1319 -0.0963
  178SLPC    HS20279   2.446   1.654   9.205  0.4868 -0.1474 -1.9600
  178SLPC   O2120280   2.369   1.640   9.007  0.2532  0.5282 -0.0119
  178SLPC   C2120281   2.456   1.545   8.977  0.0623  0.0494 -0.2079
  178SLPC   O2220282   2.531   1.493   9.057  0.0967  0.8119 -0.0286
  178SLPC   C2220283   2.457   1.518   8.824  0.0428 -0.1186 -0.2334
  178SLPC   H2R20284   2.566   1.515   8.805  0.5605  0.1482  2.4234
  178SLPC   H2S20285   2.419   1.416   8.799 -0.0888  0.2523 -1.6836
  178SLPC    C320286   2.250   1.564   9.208  0.0449 -0.2030  0.3448
  178SLPC    HX20287   2.149   1.596   9.176  0.9416 -0.0415 -2.6234
  178SLPC    HY20288   2.264   1.563   9.319  0.1711  0.2879  0.3353
  178SLPC   O3120289   2.270   1.438   9.144 -0.3845  0.1573 -0.6261
  178SLPC   C3120290   2.251   1.323   9.227 -0.4152 -0.6329  0.0050
  178SLPC   O3220291   2.209   1.335   9.341  0.0494  0.3725 -0.2925
  178SLPC   C3220292   2.287   1.191   9.163 -0.1113 -0.0165 -0.2291
  178SLPC   H2X20293   2.286   1.108   9.237 -1.6117 -0.6507 -0.9147
  178SLPC   H2Y20294   2.383   1.186   9.108  0.5242  2.2049  0.5877
  178SLPC   C2320295   2.381   1.614   8.741  0.2610 -0.3638  0.6468
  178SLPC   H3R20296   2.387   1.721   8.772  1.7061 -0.0930 -0.4609
  178SLPC   H3S20297   2.272   1.603   8.760 -0.5546  0.7449 -2.7302
  178SLPC   C2420298   2.401   1.607   8.586 -0.8484 -0.4961 -0.1433
  178SLPC   H4R20299   2.418   1.504   8.548  1.0139  0.4047 -1.9050
  178SLPC   H4S20300   2.490   1.660   8.547 -0.5142 -0.1526  1.0481
  178SLPC   C2520301   2.285   1.665   8.509  0.1573  0.4680 -0.3663
  178SLPC   H5R20302   2.216   1.726   8.571  1.2556  2.0134 -0.6130
  178SLPC   H5S20303   2.217   1.581   8.482  1.0109 -0.4109  0.1215
  178SLPC   C2620304   2.331   1.739   8.381  0.6018  0.2230 -0.0516
  178SLPC   H6R20305   2.390   1.831   8.398 -0.2473  1.3015 -2.3973
  178SLPC   H6S20306   2.240   1.777   8.328  0.3376 -0.0764  0.1853
  178SLPC   C2720307   2.410   1.645   8.277 -0.0000 -0.9145 -0.0607
  178SLPC   H7R20308   2.375   1.540   8.277 -1.2822 -0.5069  0.1270
  178SLPC   H7S20309   2.507   1.629   8.328  0.1596  0.4271  0.1037
  178SLPC   C2820310   2.431   1.711   8.137 -0.3586 -0.3012 -0.8905
  178SLPC   H8R20311   2.485   1.808   8.141 -2.5718  0.9876 -0.5785
  178SLPC   H8S20312   2.333   1.734   8.089 -0.6706 -0.0929 -0.1687
  178SLPC   C2920313   2.507   1.618   8.049  0.3917 -0.2778 -1.0494
  178SLPC   H9R20314   2.518   1.514   8.085 -0.1217  0.4573  1.3935
  178SLPC  C21020315   2.566   1.664   7.934  0.2217  0.2583 -0.6785
  178SLPC  H10R20316   2.608   1.585   7.870 -2.4528 -0.9686 -1.0579
  178SLPC  C21120317   2.572   1.800   7.870 -0.2429 -0.5714 -0.4211
  178SLPC  H11R20318   2.553   1.878   7.947  0.1662 -0.2729 -0.6222
  178SLPC  H11S20319   2.490   1.807   7.795  1.2258  1.8579 -1.9158
  178SLPC  C21220320   2.710   1.832   7.816 -0.2193 -0.2767 -0.1495
  178SLPC  H12R20321   2.795   1.806   7.880 -1.5450  0.6207  2.1070
  178SLPC  C21320322   2.735   1.921   7.720  0.0455  0.1922 -0.0116
  178SLPC  H13R20323   2.837   1.943   7.686  0.4330 -0.4519  0.7266
  178SLPC  C21420324   2.625   2.001   7.656  0.1919  0.0049  0.1874
  178SLPC  H14R20325   2.524   1.973   7.693  0.9455 -1.8677  0.9346
  178SLPC  H14S20326   2.613   1.981   7.547 -1.9507  0.1163  0.3590
  178SLPC  C21520327   2.639   2.156   7.677 -0.1114 -0.5264  0.4652
  178SLPC  H15R20328   2.730   2.188   7.623 -0.2057 -1.4167 -0.2472
  178SLPC  H15S20329   2.657   2.183   7.783  0.3106  0.6528  0.1115
  178SLPC  C21620330   2.517   2.236   7.615  0.1043  0.2983 -0.5074
  178SLPC  H16R20331   2.416   2.204   7.647 -0.9080  3.6602 -0.0025
  178SLPC  H16S20332   2.503   2.219   7.506  2.0372  2.1322 -1.0942
  178SLPC  C21720333   2.539   2.383   7.638  0.3993  0.0888 -0.5111
  178SLPC  H17R20334   2.645   2.410   7.619  0.8322 -0.3149  1.1755
  178SLPC  H17S20335   2.513   2.404   7.744 -1.3029 -0.5789 -0.7647
  178SLPC  C21820336   2.431   2.464   7.566 -0.0893  1.0927  0.9777
  178SLPC  H18R20337   2.330   2.453   7.612 -0.2039  0.3090  0.5480
  178SLPC  H18S20338   2.434   2.459   7.456  0.8331  1.7811  0.9581
  178SLPC  H18T20339   2.461   2.568   7.594  4.8730 -0.0763  0.9348
  178SLPC   C3320340   2.180   1.154   9.056 -0.4566  0.3210  0.1898
  178SLPC   H3X20341   2.078   1.165   9.099 -0.7917 -0.0746 -0.4793
  178SLPC   H3Y20342   2.188   1.045   9.038 -1.2441  0.1543  0.7715
  178SLPC   C3420343   2.209   1.221   8.920  0.7709  0.7852  0.1500
  178SLPC   H4X20344   2.314   1.210   8.885  0.7455  1.1656 -0.0515
  178SLPC   H4Y20345   2.179   1.328   8.912 -2.2492  0.1887  2.0836
  178SLPC   C3520346   2.124   1.140   8.822 -0.3956 -0.4389  0.6616
  178SLPC   H5X20347   2.017   1.146   8.851 -0.8113  3.1307 -0.9830
  178SLPC   H5Y20348   2.150   1.034   8.805 -2.2373 -0.7148 -0.8025
  178SLPC   C3620349   2.140   1.204   8.677 -0.2742  0.4507 -0.3719
  178SLPC   H6X20350   2.094   1.305   8.680 -1.6930 -0.2002  0.8006
  178SLPC   H6Y20351   2.069   1.149   8.612  1.1058 -0.9625 -0.7457
  178SLPC   C3720352   2.277   1.190   8.605  0.6139  0.5351 -0.8049
  178SLPC   H7X20353   2.286   1.080   8.590  3.4377  0.2569  1.9414
  178SLPC   H7Y20354   2.361   1.217   8.672 -2.7632  2.1774  3.2087
  178SLPC   C3820355   2.282   1.277   8.478 -0.1686  0.3212 -0.0375
  178SLPC   H8X20356   2.384   1.245   8.446  0.0358 -1.4705  2.1605
  178SLPC   H8Y20357   2.268   1.381   8.515 -1.8423  0.0418  0.2016
  178SLPC   C3920358   2.184   1.230   8.368 -0.3491 -0.1831  0.1021
  178SLPC   H9X20359   2.077   1.235   8.397 -0.4085  0.9779 -0.2756
  178SLPC   H9Y20360   2.198   1.120   8.355 -1.0425 -0.1101 -1.5270
  178SLPC  C31020361   2.189   1.308   8.232  0.2310  0.7034  0.3764
  178SLPC  H10X20362   2.293   1.306   8.193  0.0145  0.6752 -0.2001
  178SLPC  H10Y20363   2.166   1.415   8.251  0.7462  0.8899 -0.0340
  178SLPC  C31120364   2.074   1.259   8.137  0.5499 -0.3407 -0.3049
  178SLPC  H11X20365   1.974   1.280   8.179  1.0702 -2.0871  2.0329
  178SLPC  H11Y20366   2.077   1.148   8.131 -0.5921 -0.6472  2.8780
  178SLPC  C31220367   2.095   1.327   8.008 -0.1930 -0.1489  0.2211
  178SLPC  H12X20368   2.082   1.437   8.022  0.2247 -0.0002 -0.5026
  178SLPC  H12Y20369   2.010   1.302   7.942  1.4912  0.7342 -2.4512
  178SLPC  C31320370   2.227   1.290   7.938  0.5045  0.3544  0.4478
  178SLPC  H13X20371   2.244   1.181   7.945 -0.1118  0.0672 -1.6610
  178SLPC  H13Y20372   2.317   1.342   7.978  0.2330  1.6272 -0.5028
  178SLPC  C31420373   2.227   1.334   7.793  0.5763  0.6170 -0.3877
  178SLPC  H14X20374   2.208   1.444   7.790  0.3355  0.5505 -2.3664
  178SLPC  H14Y20375   2.140   1.285   7.745  0.9578 -0.9320  0.4145
  178SLPC  C31520376   2.353   1.292   7.720 -0.2119 -0.2321 -0.0719
  178SLPC  H15X20377   2.442   1.354   7.747 -0.3190 -0.8033  1.7609
  178SLPC  H15Y20378   2.372   1.189   7.757 -1.1178 -0.2220  0.4574
  178SLPC  C31620379   2.328   1.285   7.569  0.6426  0.2253  0.0017
  178SLPC  H16X20380   2.283   1.376   7.525  1.4230  0.1645 -0.9692
  178SLPC  H16Y20381   2.248   1.211   7.546  2.0922 -0.8121 -2.0756
  178SLPC  C31720382   2.439   1.239   7.475  0.4810  0.3467  0.6606
  178SLPC  H17X20383   2.451   1.132   7.503 -0.3514  0.3460  1.0517
  178SLPC  H17Y20384   2.527   1.299   7.506  1.3049 -0.2604 -0.4323
  178SLPC  C31820385   2.410   1.270   7.330 -0.2726 -0.2752  0.1481
  178SLPC  H18X20386   2.399   1.381   7.323 -0.3752 -0.1925  1.4804
  178SLPC  H18Y20387   2.307   1.232   7.315 -2.0088  2.4462  3.7071
  178SLPC  H18Z20388   2.482   1.236   7.252 -0.7258 -0.5285 -0.1657
  179SLPC     N20389   2.469   4.994   9.619  0.6581 -0.3369  0.1690
  179SLPC   C1320390   2.450   5.098   9.726  0.0440  0.3430  0.2058
  179SLPC  H13A20391   2.495   5.066   9.819  0.9174  1.4887  0.2008
  179SLPC  H13B20392   2.500   5.190   9.699 -0.4023  0.6095  0.2781
  179SLPC  H13C20393   2.346   5.119   9.744  0.3414  1.3681  0.8214
  179SLPC   C1420394   2.412   5.041   9.490  0.4443 -1.3012 -0.6086
  179SLPC  H14A20395   2.429   4.968   9.413  1.9763 -0.5063 -1.0721
  179SLPC  H14B20396   2.310   5.072   9.507  1.1873  0.6456  0.7589
  179SLPC  H14C20397   2.463   5.133   9.463  0.0881 -0.2961  1.8089
  179SLPC   C1520398   2.385   4.877   9.667 -0.5890 -0.7192 -0.2058
  179SLPC  H15A20399   2.438   4.833   9.749 -0.9688  0.1783  0.5425
  179SLPC  H15B20400   2.283   4.900   9.695 -1.0801 -2.0218 -0.8503
  179SLPC  H15C20401   2.374   4.813   9.580 -0.6223 -0.7774 -0.1582
  179SLPC   C1220402   2.618   4.949   9.608 -0.3351  0.1314 -0.0969
  179SLPC  H12A20403   2.620   4.850   9.565  0.6445 -0.2203  0.7335
  179SLPC  H12B20404   2.647   4.921   9.708 -1.0072 -1.4842 -0.3133
  179SLPC   C1120405   2.718   5.047   9.532  0.4389 -0.1599  0.3788
  179SLPC  H11A20406   2.680   5.067   9.430 -3.6121  0.4952  1.8274
  179SLPC  H11B20407   2.811   4.987   9.535 -0.6892 -2.0545 -0.6867
  179SLPC     P20408   2.719   5.313   9.554 -0.0188  0.0794  0.0885
  179SLPC   O1320409   2.589   5.355   9.614  0.7853  0.0090  0.9575
  179SLPC   O1420410   2.842   5.379   9.602 -0.0979 -0.2901  0.3016
  179SLPC   O1220411   2.738   5.159   9.601  0.2537  0.2288  0.1944
  179SLPC   O1120412   2.726   5.317   9.396 -0.2658 -0.0534 -0.0910
  179SLPC    C120413   2.857   5.312   9.323  0.5172 -0.2453 -0.1586
  179SLPC    HA20414   2.925   5.241   9.374  0.4044  0.3753  0.8774
  179SLPC    HB20415   2.843   5.278   9.218  1.7397  1.1915 -0.8394
  179SLPC    C220416   2.926   5.448   9.309  0.1823 -0.4596  0.1149
  179SLPC    HS20417   2.915   5.503   9.405 -0.5015  1.3352 -0.9453
  179SLPC   O2120418   2.864   5.537   9.212  0.6969  0.5942  0.5358
  179SLPC   C2120419   2.767   5.619   9.248 -0.4519  0.5599 -0.0847
  179SLPC   O2220420   2.749   5.649   9.365  0.4774 -0.3502 -0.2268
  179SLPC   C2220421   2.681   5.648   9.127  0.3996 -0.8691  0.2096
  179SLPC   H2R20422   2.751   5.672   9.044  0.0220  2.0460  0.6415
  179SLPC   H2S20423   2.629   5.553   9.099  1.4361 -1.1219 -0.9779
  179SLPC    C320424   3.082   5.440   9.283  0.2636 -0.0501 -0.3659
  179SLPC    HX20425   3.123   5.370   9.359  0.1130 -0.2131 -0.4336
  179SLPC    HY20426   3.144   5.532   9.289 -0.2636  0.3644 -1.1092
  179SLPC   O3120427   3.122   5.392   9.154  0.1992 -0.1322  0.4032
  179SLPC   C3120428   3.124   5.257   9.141  0.9086 -0.1007  0.2228
  179SLPC   O3220429   3.111   5.176   9.232 -0.2290 -0.0080 -0.0286
  179SLPC   C3220430   3.151   5.220   8.989  0.8748  0.1123  0.7000
  179SLPC   H2X20431   3.182   5.113   8.985  0.1736 -0.0667 -0.3032
  179SLPC   H2Y20432   3.245   5.275   8.969  0.1271  1.1312 -0.0664
  179SLPC   C2320433   2.587   5.768   9.152 -0.8226  0.6368 -1.2292
  179SLPC   H3R20434   2.656   5.855   9.164  0.6492 -0.4905 -1.2245
  179SLPC   H3S20435   2.531   5.761   9.248  1.4200 -0.4475  0.0862
  179SLPC   C2420436   2.485   5.798   9.048 -0.8269  1.0126  0.9268
  179SLPC   H4R20437   2.438   5.897   9.058 -0.7117  1.1057  0.5859
  179SLPC   H4S20438   2.406   5.720   9.048  0.3598 -0.3242 -1.5619
  179SLPC   C2520439   2.543   5.782   8.903 -0.2242  0.4247  0.4186
  179SLPC   H5R20440   2.565   5.675   8.889 -1.2050  0.1007  1.2023
  179SLPC   H5S20441   2.633   5.847   8.894  0.4426 -0.6238 -0.9017
  179SLPC   C2620442   2.428   5.830   8.802  0.2372 -0.2615 -0.7054
  179SLPC   H6R20443   2.408   5.938   8.821 -3.4793 -1.0530  0.8005
  179SLPC   H6S20444   2.330   5.782   8.821  0.4400 -1.0062 -1.4923
  179SLPC   C2720445   2.468   5.790   8.661 -0.2955  0.4624  0.4287
  179SLPC   H7R20446   2.482   5.680   8.660  0.1565  0.5218  0.0055
  179SLPC   H7S20447   2.556   5.856   8.648 -1.7706  2.3769 -0.3932
  179SLPC   C2820448   2.374   5.805   8.539  0.7192  0.3565  0.2990
  179SLPC   H8R20449   2.329   5.906   8.541  1.6497  0.7919 -0.4362
  179SLPC   H8S20450   2.279   5.749   8.555  0.3288  1.2370  1.1579
  179SLPC   C2920451   2.438   5.758   8.408  0.4470 -0.2312  0.3189
  179SLPC   H9R20452   2.510   5.837   8.379  0.7858  0.7159  3.3928
  179SLPC  C21020453   2.429   5.642   8.345  0.3813  0.1560  0.4624
  179SLPC  H10R20454   2.466   5.650   8.241 -3.4705 -0.1637 -1.0866
  179SLPC  C21120455   2.355   5.519   8.387  0.2737  0.0232  0.7298
  179SLPC  H11R20456   2.249   5.535   8.357  0.9611 -0.8337 -2.4736
  179SLPC  H11S20457   2.356   5.526   8.498 -3.2560  0.3369  0.8378
  179SLPC  C21220458   2.421   5.389   8.355  0.1689  0.3847 -0.0020
  179SLPC  H12R20459   2.385   5.353   8.257  1.3197  1.9107 -1.0260
  179SLPC  C21320460   2.521   5.331   8.428  0.3884  0.1848  0.2995
  179SLPC  H13R20461   2.553   5.229   8.405 -1.9570 -0.8099  1.1812
  179SLPC  C21420462   2.576   5.376   8.557  0.3050  0.1133  0.2863
  179SLPC  H14R20463   2.559   5.486   8.567 -2.2848 -0.0141 -1.7260
  179SLPC  H14S20464   2.687   5.368   8.567  0.6256 -1.3670 -3.1848
  179SLPC  C21520465   2.495   5.306   8.666  0.8031  0.1370 -0.4669
  179SLPC  H15R20466   2.482   5.198   8.641 -2.9306  0.4022 -0.2504
  179SLPC  H15S20467   2.393   5.350   8.667 -0.0258 -1.6873  0.9756
  179SLPC  C21620468   2.557   5.336   8.802 -0.1881  0.1045 -0.2999
  179SLPC  H16R20469   2.472   5.339   8.874 -2.4941  0.7770 -2.8803
  179SLPC  H16S20470   2.600   5.438   8.808 -1.0781  0.4451  0.7268
  179SLPC  C21720471   2.665   5.229   8.841 -0.5790 -0.2409  0.4687
  179SLPC  H17R20472   2.757   5.241   8.779  1.7807 -0.5156  3.6511
  179SLPC  H17S20473   2.632   5.126   8.816  0.8018 -0.8139  0.8797
  179SLPC  C21820474   2.689   5.235   8.992  0.7853  0.3591 -0.0800
  179SLPC  H18R20475   2.602   5.212   9.056  0.1537 -0.8267 -1.3016
  179SLPC  H18S20476   2.736   5.331   9.022  0.6701  0.4737 -0.2663
  179SLPC  H18T20477   2.766   5.157   9.012 -1.1093 -1.9908 -1.3784
  179SLPC   C3320478   3.044   5.251   8.883 -0.2318  0.0864 -0.5182
  179SLPC   H3X20479   2.973   5.334   8.902  0.5291  0.8957 -1.1395
  179SLPC   H3Y20480   2.975   5.164   8.878 -0.0826 -0.2186  1.7029
  179SLPC   C3420481   3.115   5.268   8.749 -0.3642 -0.6029  0.3046
  179SLPC   H4X20482   3.185   5.183   8.730 -0.3685 -0.2358 -1.5598
  179SLPC   H4Y20483   3.176   5.361   8.749 -1.4357  0.1764  3.0592
  179SLPC   C3520484   3.017   5.272   8.629 -0.4576  0.2545 -0.0497
  179SLPC   H5X20485   3.056   5.344   8.555  1.6882 -0.4561  0.3385
  179SLPC   H5Y20486   2.927   5.324   8.670 -2.1264 -1.1073 -1.7621
  179SLPC   C3620487   2.981   5.133   8.586 -0.6123 -1.0685 -0.6109
  179SLPC   H6X20488   2.946   5.079   8.677 -1.3506 -0.9764 -0.8346
  179SLPC   H6Y20489   3.067   5.074   8.547 -0.1239 -2.0936  1.7882
  179SLPC   C3720490   2.859   5.141   8.488  0.1223 -0.3675  0.3328
  179SLPC   H7X20491   2.767   5.187   8.530 -0.1805  1.9147 -2.5037
  179SLPC   H7Y20492   2.845   5.035   8.460  0.2965 -0.1138 -0.7736
  179SLPC   C3820493   2.891   5.217   8.361 -0.1253 -0.7923  0.8510
  179SLPC   H8X20494   2.998   5.211   8.333 -0.1178 -1.4465  1.0111
  179SLPC   H8Y20495   2.872   5.323   8.391  1.8745 -0.4209  0.9691
  179SLPC   C3920496   2.811   5.180   8.238  0.3143  0.7282  1.3038
  179SLPC   H9X20497   2.707   5.160   8.272  0.4932  0.0645  1.4914
  179SLPC   H9Y20498   2.830   5.077   8.200 -0.6032  1.1637 -0.4357
  179SLPC  C31020499   2.801   5.287   8.128  0.1866 -0.3098 -0.0978
  179SLPC  H10X20500   2.904   5.317   8.098 -0.5587  0.5485 -1.9150
  179SLPC  H10Y20501   2.751   5.373   8.177 -1.0042 -1.4283  0.7260
  179SLPC  C31120502   2.737   5.244   7.988  0.1282  0.0752 -0.6324
  179SLPC  H11X20503   2.700   5.340   7.946  2.4741  0.5614 -1.7862
  179SLPC  H11Y20504   2.655   5.171   7.999  0.2593 -0.2646 -1.7226
  179SLPC  C31220505   2.840   5.188   7.883  0.8123 -0.5638  0.5269
  179SLPC  H12X20506   2.894   5.103   7.931  0.6470 -0.9878 -0.0170
  179SLPC  H12Y20507   2.913   5.265   7.850  0.8468 -1.1751 -0.9129
  179SLPC  C31320508   2.778   5.135   7.754  0.3548 -0.0901  0.2344
  179SLPC  H13X20509   2.696   5.065   7.783  0.8209 -0.4628  0.6643
  179SLPC  H13Y20510   2.858   5.092   7.690  1.6184  1.8071  0.4675
  179SLPC  C31420511   2.720   5.246   7.661  0.7155 -0.4170 -0.2501
  179SLPC  H14X20512   2.796   5.306   7.605  0.4999  0.9141  0.8406
  179SLPC  H14Y20513   2.667   5.314   7.730  1.3494 -0.0415 -0.1244
  179SLPC  C31520514   2.619   5.198   7.556 -0.7746  0.1647  0.0117
  179SLPC  H15X20515   2.661   5.137   7.474 -0.7286 -0.8961  0.8011
  179SLPC  H15Y20516   2.585   5.286   7.497  0.6989 -0.9467 -2.6817
  179SLPC  C31620517   2.494   5.132   7.604 -0.5745  0.1653 -0.8595
  179SLPC  H16X20518   2.521   5.043   7.666 -1.0886  0.7045  0.1737
  179SLPC  H16Y20519   2.441   5.076   7.524 -1.5730 -1.3558  0.7709
  179SLPC  C31720520   2.384   5.217   7.676 -0.7669 -0.1153  0.2867
  179SLPC  H17X20521   2.358   5.298   7.605  2.3664 -0.9196 -2.0018
  179SLPC  H17Y20522   2.423   5.268   7.767 -0.3916 -1.4356  0.8874
  179SLPC  C31820523   2.267   5.131   7.722  0.5052  0.1238 -0.3414
  179SLPC  H18X20524   2.194   5.184   7.786  0.5160 -0.9990  0.6519
  179SLPC  H18Y20525   2.314   5.044   7.772  1.1522  0.2967 -0.6332
  179SLPC  H18Z20526   2.204   5.092   7.640  0.8551  0.6545 -0.8676
  180SLPC     N20527   5.469   1.864   9.788 -0.5002 -0.4052 -0.5157
  180SLPC   C1320528   5.370   1.869   9.893  0.2822  0.3875 -0.8241
  180SLPC  H13A20529   5.387   1.941   9.971  0.0757  0.2656 -0.6654
  180SLPC  H13B20530   5.270   1.879   9.854 -0.6657 -1.8503  0.7768
  180SLPC  H13C20531   5.364   1.774   9.944 -2.4035  0.4135 -0.9574
  180SLPC   C1420532   5.595   1.828   9.854 -0.0872 -0.3257  0.0807
  180SLPC  H14A20533   5.605   1.721   9.862 -2.7690 -0.6439 -0.0529
  180SLPC  H14B20534   5.677   1.852   9.787 -1.2518  1.3145 -0.8084
  180SLPC  H14C20535   5.604   1.870   9.953 -1.3091 -0.2628  0.1720
  180SLPC   C1520536   5.477   2.000   9.733 -0.6514  0.0446 -0.3963
  180SLPC  H15A20537   5.515   2.068   9.808  1.9571 -1.6848 -0.0121
  180SLPC  H15B20538   5.543   2.009   9.648 -1.2527  2.1670 -0.6967
  180SLPC  H15C20539   5.375   2.020   9.704 -0.7716 -1.0679 -0.7554
  180SLPC   C1220540   5.433   1.767   9.677 -0.1634  0.4653  0.4410
  180SLPC  H12A20541   5.508   1.772   9.600  1.5761 -3.5682  1.6441
  180SLPC  H12B20542   5.340   1.794   9.627 -0.7069 -1.0093  0.6158
  180SLPC   C1120543   5.419   1.620   9.703 -0.1908 -0.1173  0.3794
  180SLPC  H11A20544   5.368   1.561   9.624 -1.8485  0.3882  1.0319
  180SLPC  H11B20545   5.353   1.616   9.793  0.0635 -0.4192  0.5553
  180SLPC     P20546   5.651   1.507   9.648 -0.0141 -0.1495 -0.3494
  180SLPC   O1320547   5.769   1.586   9.680 -0.1237 -0.2737  0.4797
  180SLPC   O1420548   5.664   1.357   9.642 -0.0396  0.0800  0.0548
  180SLPC   O1220549   5.537   1.549   9.745  0.0423 -0.2291 -0.1086
  180SLPC   O1120550   5.597   1.550   9.501  0.2994  0.3132 -0.9258
  180SLPC    C120551   5.622   1.455   9.394  0.2090  0.1778 -0.7134
  180SLPC    HA20552   5.725   1.415   9.401 -0.1784 -0.5856  1.6525
  180SLPC    HB20553   5.571   1.359   9.417 -1.2150  0.5397 -2.1245
  180SLPC    C220554   5.565   1.509   9.263  0.1424  0.5164 -0.1734
  180SLPC    HS20555   5.590   1.442   9.177 -0.1419  0.8726 -0.5368
  180SLPC   O2120556   5.607   1.645   9.233 -0.3013 -0.2593 -0.0537
  180SLPC   C2120557   5.733   1.648   9.184 -0.5364  0.3327 -0.2533
  180SLPC   O2220558   5.799   1.550   9.154  0.1285  0.0330  0.1317
  180SLPC   C2220559   5.794   1.785   9.191  0.2043 -0.0644 -0.1679
  180SLPC   H2R20560   5.722   1.865   9.218 -0.9671 -1.3592  0.6924
  180SLPC   H2S20561   5.869   1.800   9.272 -0.5029 -1.3889  0.7855
  180SLPC    C320562   5.415   1.504   9.273  0.6021 -0.1790 -0.6961
  180SLPC    HX20563   5.387   1.558   9.365 -0.0504 -0.4150 -0.7469
  180SLPC    HY20564   5.397   1.398   9.301  3.4260 -0.6711 -0.5220
  180SLPC   O3120565   5.348   1.537   9.152 -0.9288 -0.0603 -0.4693
  180SLPC   C3120566   5.307   1.664   9.156 -0.0337 -0.3530 -0.1715
  180SLPC   O3220567   5.317   1.740   9.255  0.7893 -0.1086 -0.2848
  180SLPC   C3220568   5.271   1.712   9.022  0.4454 -0.0547  0.1423
  180SLPC   H2X20569   5.204   1.800   9.031  1.7919  1.2680 -1.7539
  180SLPC   H2Y20570   5.207   1.638   8.969 -0.3363 -0.5101  1.6763
  180SLPC   C2320571   5.874   1.828   9.064  0.1422 -0.0653  0.4007
  180SLPC   H3R20572   5.950   1.763   9.016  0.9813 -0.3156  1.9869
  180SLPC   H3S20573   5.929   1.922   9.084 -0.4392  0.3638 -0.0157
  180SLPC   C2420574   5.772   1.859   8.956  0.0750  0.9588 -0.2270
  180SLPC   H4R20575   5.688   1.925   8.986 -1.7661  0.3068 -3.4867
  180SLPC   H4S20576   5.714   1.768   8.930 -0.6221  1.1320  0.6669
  180SLPC   C2520577   5.849   1.916   8.837  0.2910  0.1161 -0.3932
  180SLPC   H5R20578   5.934   1.849   8.812  0.4806 -0.2218  1.1018
  180SLPC   H5S20579   5.893   2.015   8.862 -0.0585  0.2117 -0.1449
  180SLPC   C2620580   5.757   1.933   8.710 -0.6453 -0.3412 -0.9391
  180SLPC   H6R20581   5.671   2.000   8.729 -0.6643 -0.4941 -0.4781
  180SLPC   H6S20582   5.707   1.837   8.688  0.9468 -0.9226 -2.2189
  180SLPC   C2720583   5.844   1.975   8.585  0.2043 -0.0950 -0.0253
  180SLPC   H7R20584   5.793   1.952   8.489 -1.1763  2.4067  0.0397
  180SLPC   H7S20585   5.930   1.905   8.594 -1.2056 -2.3702 -2.6169
  180SLPC   C2820586   5.870   2.131   8.581  0.1620  0.3676  0.3160
  180SLPC   H8R20587   5.906   2.169   8.679  1.0096  2.6175 -0.7922
  180SLPC   H8S20588   5.770   2.174   8.555 -2.4499 -4.0930  1.9298
  180SLPC   C2920589   5.968   2.168   8.469  0.2750 -0.2478 -0.0118
  180SLPC   H9R20590   6.068   2.201   8.503  0.3694 -0.9007  0.3739
  180SLPC  C21020591   5.947   2.171   8.338 -0.2769 -0.3728 -0.0890
  180SLPC  H10R20592   6.032   2.201   8.275  0.2689 -0.0839  0.7624
  180SLPC  C21120593   5.816   2.138   8.271 -0.7714 -0.2963  0.4157
  180SLPC  H11R20594   5.753   2.069   8.332 -1.5118 -1.6398 -1.7815
  180SLPC  H11S20595   5.845   2.091   8.175  0.0928 -0.8390  0.9263
  180SLPC  C21220596   5.734   2.264   8.250 -0.7004 -0.3998 -0.6141
  180SLPC  H12R20597   5.715   2.307   8.349  0.2578  0.3742 -0.7559
  180SLPC  C21320598   5.673   2.320   8.143 -0.5429 -0.3657 -0.1148
  180SLPC  H13R20599   5.619   2.412   8.169 -3.1866 -1.9780  0.5313
  180SLPC  C21420600   5.670   2.259   8.008  0.1821 -0.1396  0.0376
  180SLPC  H14R20601   5.684   2.149   8.006 -2.5157 -0.5792  0.8910
  180SLPC  H14S20602   5.744   2.297   7.934 -0.1422  0.0027 -0.2113
  180SLPC  C21520603   5.532   2.296   7.947  0.0031  0.1464  0.0096
  180SLPC  H15R20604   5.489   2.398   7.961  1.6421  1.1556 -1.8748
  180SLPC  H15S20605   5.459   2.223   7.989 -0.4536  1.4437  1.5564
  180SLPC  C21620606   5.536   2.277   7.798 -0.0488 -0.1652  0.2834
  180SLPC  H16R20607   5.563   2.171   7.777 -0.2634 -0.5212  1.6674
  180SLPC  H16S20608   5.616   2.341   7.755  1.0256 -1.2621  0.5967
  180SLPC  C21720609   5.406   2.327   7.734 -0.7526  0.4887 -0.7184
  180SLPC  H17R20610   5.387   2.431   7.767 -0.5009  0.4021 -0.2816
  180SLPC  H17S20611   5.323   2.263   7.771  0.3093 -0.8495 -0.5560
  180SLPC  C21820612   5.418   2.317   7.586  0.3976 -0.0038  0.2603
  180SLPC  H18R20613   5.421   2.211   7.554 -0.8134  0.0217 -0.0019
  180SLPC  H18S20614   5.495   2.382   7.541  0.3726 -0.2392 -0.1184
  180SLPC  H18T20615   5.332   2.352   7.526 -0.1479 -0.9184  0.4830
  180SLPC   C3320616   5.401   1.750   8.950 -0.0433  0.3852 -0.6668
  180SLPC   H3X20617   5.464   1.660   8.933 -0.2540  0.3320 -1.1779
  180SLPC   H3Y20618   5.461   1.822   9.010  1.7560 -0.1083 -1.7804
  180SLPC   C3420619   5.370   1.836   8.822 -0.3572 -0.0751 -0.4672
  180SLPC   H4X20620   5.463   1.857   8.764 -0.5436  0.1209 -0.7008
  180SLPC   H4Y20621   5.339   1.935   8.862  0.6100 -1.0551  3.0199
  180SLPC   C3520622   5.260   1.780   8.730  0.1700  0.0461  0.5751
  180SLPC   H5X20623   5.156   1.778   8.770 -0.5253 -2.8623 -1.0382
  180SLPC   H5Y20624   5.282   1.672   8.717 -1.8633 -0.1767 -1.7870
  180SLPC   C3620625   5.242   1.858   8.595  0.3241  0.4907  0.4886
  180SLPC   H6X20626   5.332   1.840   8.532 -0.7389  0.2526 -0.9962
  180SLPC   H6Y20627   5.238   1.969   8.600 -1.3247  0.6181 -1.9643
  180SLPC   C3720628   5.125   1.800   8.513  0.7031 -0.5063 -0.2967
  180SLPC   H7X20629   5.038   1.850   8.561  1.6590  0.3705  0.5934
  180SLPC   H7Y20630   5.119   1.692   8.536 -0.7499  0.1619  3.0603
  180SLPC   C3820631   5.127   1.843   8.367  0.0414  0.4530  0.7077
  180SLPC   H8X20632   5.223   1.822   8.314 -0.8970  1.2759 -1.4422
  180SLPC   H8Y20633   5.115   1.953   8.364 -2.5099  0.2312  0.2458
  180SLPC   C3920634   5.000   1.790   8.291 -0.2424 -0.1432 -0.5071
  180SLPC   H9X20635   4.909   1.803   8.354  0.8146  0.8782  0.8808
  180SLPC   H9Y20636   5.012   1.683   8.263  0.7182 -0.1184 -0.2170
  180SLPC  C31020637   4.987   1.871   8.159 -0.7867  0.6203  0.3304
  180SLPC  H10X20638   5.090   1.891   8.122  0.2920 -2.2259  1.4508
  180SLPC  H10Y20639   4.937   1.970   8.171 -1.2685  0.3295  0.7598
  180SLPC  C31120640   4.909   1.805   8.048 -1.0969 -0.6804  0.2121
  180SLPC  H11X20641   4.965   1.711   8.026 -0.2293 -0.2996  0.7263
  180SLPC  H11Y20642   4.918   1.878   7.966  0.3975 -1.9513 -0.8150
  180SLPC  C31220643   4.755   1.779   8.083  0.2704 -0.7793  0.4118
  180SLPC  H12X20644   4.717   1.882   8.102 -1.1730 -1.4348  1.2691
  180SLPC  H12Y20645   4.752   1.721   8.178  1.4885 -1.6929 -0.0754
  180SLPC  C31320646   4.665   1.719   7.972 -0.0196 -0.9502  0.0462
  180SLPC  H13X20647   4.707   1.636   7.912  0.3988 -0.0254 -0.9879
  180SLPC  H13Y20648   4.651   1.805   7.903 -1.3959 -1.9380 -0.9548
  180SLPC  C31420649   4.529   1.674   8.014  0.0134 -0.4182  0.1461
  180SLPC  H14X20650   4.536   1.584   8.078 -2.2466 -0.2034  0.8125
  180SLPC  H14Y20651   4.473   1.632   7.928 -1.0475 -0.4951  0.8561
  180SLPC  C31520652   4.449   1.790   8.080 -0.1365  0.2792  0.6084
  180SLPC  H15X20653   4.479   1.821   8.183  2.7412 -0.3953  0.0602
  180SLPC  H15Y20654   4.346   1.748   8.081  0.1279 -0.5389 -1.7627
  180SLPC  C31620655   4.437   1.908   7.977  0.0030 -0.4481 -0.1751
  180SLPC  H16X20656   4.419   1.850   7.884 -1.1311 -1.3767  0.5847
  180SLPC  H16Y20657   4.531   1.965   7.990 -0.9349  0.6256  2.6583
  180SLPC  C31720658   4.313   1.997   7.992  0.2630 -0.3377 -0.4235
  180SLPC  H17X20659   4.327   2.048   8.090 -0.5269  4.3705 -2.5012
  180SLPC  H17Y20660   4.224   1.930   7.999  0.1021 -0.0345  0.6249
  180SLPC  C31820661   4.292   2.099   7.889 -0.3104 -0.3385 -0.2477
  180SLPC  H18X20662   4.242   2.053   7.801 -3.4833 -0.2374  1.3615
  180SLPC  H18Y20663   4.386   2.153   7.865 -0.7688  0.7250  0.2539
  180SLPC  H18Z20664   4.233   2.186   7.925  1.5459  1.1607 -0.6455
  181SLPC     N20665   6.464   5.329   9.604 -0.1503  0.2929 -0.1130
  181SLPC   C1320666   6.515   5.424   9.709 -0.0952 -0.6739 -0.2680
  181SLPC  H13A20667   6.613   5.466   9.692 -0.0331 -0.9757 -0.6846
  181SLPC  H13B20668   6.440   5.498   9.730  0.2903 -0.9121  2.3289
  181SLPC  H13C20669   6.514   5.379   9.807 -0.2296  0.4799  0.2736
  181SLPC   C1420670   6.336   5.257   9.637  0.0189  0.3551 -0.5322
  181SLPC  H14A20671   6.346   5.182   9.714  1.0499  0.8884 -0.1254
  181SLPC  H14B20672   6.260   5.316   9.687  0.6366  2.0471 -1.4910
  181SLPC  H14C20673   6.284   5.223   9.549 -0.7820  0.9636 -0.3125
  181SLPC   C1520674   6.561   5.218   9.580  0.0858  0.0712 -0.0278
  181SLPC  H15A20675   6.650   5.253   9.529  0.2775 -0.8555 -0.3319
  181SLPC  H15B20676   6.600   5.181   9.674 -2.4594 -1.6837  0.4351
  181SLPC  H15C20677   6.514   5.135   9.530  0.6241 -0.1166 -0.2258
  181SLPC   C1220678   6.434   5.416   9.476  0.0651  0.5803 -0.3968
  181SLPC  H12A20679   6.524   5.470   9.451  0.9305 -0.6919 -0.1292
  181SLPC  H12B20680   6.359   5.487   9.508  1.3719  1.7806  0.1095
  181SLPC   C1120681   6.389   5.335   9.349 -0.0779 -0.3368 -0.3386
  181SLPC  H11A20682   6.463   5.253   9.334  1.1554  0.3049  1.8033
  181SLPC  H11B20683   6.411   5.410   9.271  3.1365  0.7086  1.3872
  181SLPC     P20684   6.127   5.366   9.377 -0.1129  0.5539 -0.0643
  181SLPC   O1320685   6.018   5.264   9.380 -0.3725  0.5045  0.0690
  181SLPC   O1420686   6.134   5.457   9.489  0.4005 -0.3036 -0.5634
  181SLPC   O1220687   6.259   5.286   9.352 -0.3792  0.3378  0.3005
  181SLPC   O1120688   6.100   5.448   9.244 -0.1663  0.1880 -0.0973
  181SLPC    C120689   6.115   5.375   9.118 -0.0284  0.7670 -0.2282
  181SLPC    HA20690   6.163   5.444   9.045  1.6731  0.8338  0.9047
  181SLPC    HB20691   6.180   5.286   9.128  3.2051  3.1385  1.6389
  181SLPC    C220692   5.972   5.345   9.060 -0.9690  0.6020 -0.6199
  181SLPC    HS20693   5.917   5.288   9.138 -2.3693 -0.2253 -2.1199
  181SLPC   O2120694   5.991   5.268   8.942  0.2433  0.1162  1.0369
  181SLPC   C2120695   5.895   5.177   8.920 -0.9263  0.1059  0.2108
  181SLPC   O2220696   5.794   5.167   8.983 -0.5496  0.0378  0.3138
  181SLPC   C2220697   5.930   5.092   8.800 -0.2421  0.1477  0.1004
  181SLPC   H2R20698   6.021   5.141   8.757 -1.7551  2.9648 -0.1034
  181SLPC   H2S20699   5.949   4.985   8.824  2.7348  0.6716  0.4812
  181SLPC    C320700   5.904   5.481   9.037 -0.5737  1.1096 -0.0457
  181SLPC    HX20701   5.911   5.531   9.136 -0.5731 -0.9503  1.0491
  181SLPC    HY20702   5.806   5.461   8.990 -0.6230  1.1784  0.0278
  181SLPC   O3120703   5.977   5.561   8.943  0.0392  0.7310 -0.3898
  181SLPC   C3120704   5.961   5.533   8.817  0.2952 -0.1691  0.0655
  181SLPC   O3220705   5.867   5.479   8.759 -0.4735  0.1962 -0.5924
  181SLPC   C3220706   6.084   5.580   8.745 -0.0523  0.5013  0.0352
  181SLPC   H2X20707   6.170   5.548   8.807  0.1477 -0.1606 -0.5727
  181SLPC   H2Y20708   6.080   5.691   8.735  0.7382  0.3670 -2.3396
  181SLPC   C2320709   5.828   5.102   8.680  0.1211  0.0539 -0.0013
  181SLPC   H3R20710   5.811   5.209   8.654 -2.6265  0.0726  1.4519
  181SLPC   H3S20711   5.727   5.078   8.720 -0.3631  1.8777 -0.0533
  181SLPC   C2420712   5.869   5.023   8.558  0.1003  0.4341  0.7064
  181SLPC   H4R20713   5.814   4.927   8.552  1.1194 -0.1456 -4.1101
  181SLPC   H4S20714   5.976   4.993   8.562 -0.0289 -0.6249 -1.8989
  181SLPC   C2520715   5.832   5.099   8.423  0.2359  0.3714 -0.2288
  181SLPC   H5R20716   5.849   5.208   8.431 -0.0756  0.5562 -1.7601
  181SLPC   H5S20717   5.721   5.089   8.412 -0.4833  0.7548  4.6523
  181SLPC   C2620718   5.909   5.047   8.299  0.1546  0.7055 -0.6082
  181SLPC   H6R20719   5.882   4.940   8.281  0.6332 -0.3556  3.6478
  181SLPC   H6S20720   6.018   5.054   8.318  0.1440 -2.6622  1.6103
  181SLPC   C2720721   5.879   5.124   8.172  0.0824  0.3825 -0.8394
  181SLPC   H7R20722   5.890   5.234   8.187  0.0774 -0.0494  3.7899
  181SLPC   H7S20723   5.775   5.099   8.141  0.9279 -3.2130 -1.1748
  181SLPC   C2820724   5.971   5.088   8.057  0.3884 -0.3965  0.0198
  181SLPC   H8R20725   5.964   4.979   8.036 -0.7653 -0.1910 -0.7355
  181SLPC   H8S20726   6.075   5.123   8.077 -0.2756  1.0898  1.0840
  181SLPC   C2920727   5.922   5.157   7.931 -0.4333  0.6059  0.3193
  181SLPC   H9R20728   5.852   5.097   7.871  1.8869 -0.3722 -1.5660
  181SLPC  C21020729   5.961   5.281   7.884  0.8371 -0.0526  0.7807
  181SLPC  H10R20730   5.926   5.314   7.786  2.4853 -0.3429  0.0529
  181SLPC  C21120731   6.059   5.378   7.944 -0.1685  0.1059 -0.1420
  181SLPC  H11R20732   6.107   5.434   7.861 -0.9405 -0.2992 -0.8763
  181SLPC  H11S20733   6.140   5.314   7.987 -0.8835 -0.8429 -0.1849
  181SLPC  C21220734   6.018   5.463   8.059 -0.1029  0.1095 -0.4996
  181SLPC  H12R20735   5.917   5.454   8.101  0.3712  3.6266  1.7925
  181SLPC  C21320736   6.094   5.548   8.133  0.1773  0.0263 -0.7718
  181SLPC  H13R20737   6.042   5.617   8.201  1.2353 -2.3905  2.8008
  181SLPC  C21420738   6.238   5.575   8.109 -0.1626 -0.7780  0.5695
  181SLPC  H14R20739   6.286   5.489   8.059 -2.0285 -0.9366 -1.0584
  181SLPC  H14S20740   6.291   5.592   8.205  2.1264 -0.6936 -0.6264
  181SLPC  C21520741   6.261   5.697   8.021  0.3085 -0.0176 -0.5644
  181SLPC  H15R20742   6.182   5.718   7.945  0.4828 -0.2754 -0.8196
  181SLPC  H15S20743   6.352   5.667   7.964 -0.0947 -2.3729 -0.0625
  181SLPC  C21620744   6.297   5.820   8.100  0.3343  0.5840  0.1340
  181SLPC  H16R20745   6.387   5.802   8.163  0.6122  0.3065 -0.3355
  181SLPC  H16S20746   6.206   5.842   8.159 -0.7811 -1.4569 -0.7075
  181SLPC  C21720747   6.329   5.945   8.016 -0.5230  0.1763 -0.6118
  181SLPC  H17R20748   6.230   5.980   7.980 -1.5122 -0.1610  1.6185
  181SLPC  H17S20749   6.383   5.913   7.925 -0.4244 -0.6977 -0.2573
  181SLPC  C21820750   6.404   6.052   8.087 -0.7190 -0.4213 -0.4515
  181SLPC  H18R20751   6.510   6.027   8.111 -0.7841 -0.7331 -0.4960
  181SLPC  H18S20752   6.360   6.074   8.187 -0.3319  2.4517 -0.8314
  181SLPC  H18T20753   6.397   6.144   8.025 -3.4354 -1.2787 -1.5547
  181SLPC   C3320754   6.104   5.506   8.612 -0.3910 -0.6068 -1.0226
  181SLPC   H3X20755   6.037   5.546   8.533 -0.8876 -2.1913 -1.4427
  181SLPC   H3Y20756   6.092   5.398   8.634  0.8888 -0.2406  1.9086
  181SLPC   C3420757   6.243   5.504   8.560 -0.1497  0.5698  0.2097
  181SLPC   H4X20758   6.327   5.509   8.633 -0.8808  2.9188  0.9802
  181SLPC   H4Y20759   6.242   5.599   8.502 -0.4908 -0.5582 -1.7005
  181SLPC   C3520760   6.267   5.400   8.454  0.1137  0.3672  0.0579
  181SLPC   H5X20761   6.355   5.438   8.398 -1.3727  1.9973 -1.3072
  181SLPC   H5Y20762   6.183   5.407   8.381  0.1867 -3.8860 -0.7194
  181SLPC   C3620763   6.284   5.254   8.509  0.1213  0.3561  0.3925
  181SLPC   H6X20764   6.188   5.207   8.540  0.2655  0.2597  0.6958
  181SLPC   H6Y20765   6.347   5.250   8.600 -1.6864  0.8367  1.7176
  181SLPC   C3720766   6.349   5.170   8.402 -0.7021  1.0736 -0.0823
  181SLPC   H7X20767   6.451   5.213   8.388 -0.9241  1.8535  0.5968
  181SLPC   H7Y20768   6.291   5.167   8.307  2.2116  0.8907 -1.9860
  181SLPC   C3820769   6.353   5.026   8.448  0.5814 -0.0082  0.4420
  181SLPC   H8X20770   6.249   4.995   8.473  0.3698  0.2937 -0.0518
  181SLPC   H8Y20771   6.409   5.030   8.544 -1.2446 -0.9397  1.6047
  181SLPC   C3920772   6.402   4.922   8.350  0.1720  0.4129  0.6578
  181SLPC   H9X20773   6.504   4.944   8.313  1.0697 -0.8397  2.2128
  181SLPC   H9Y20774   6.338   4.917   8.259  0.0337  0.4780  0.7501
  181SLPC  C31020775   6.416   4.781   8.419  0.1872  0.4136  0.3514
  181SLPC  H10X20776   6.314   4.746   8.444  0.1653  0.0074 -0.2725
  181SLPC  H10Y20777   6.475   4.812   8.508 -1.1604  3.6692  0.2430
  181SLPC  C31120778   6.488   4.660   8.346  0.1665  0.3654  0.3408
  181SLPC  H11X20779   6.487   4.578   8.421 -3.3862  1.8858  2.2080
  181SLPC  H11Y20780   6.590   4.699   8.327  0.0709  0.3618 -0.1952
  181SLPC  C31220781   6.427   4.609   8.213 -1.2421 -0.0846  0.2051
  181SLPC  H12X20782   6.446   4.698   8.150  0.7612 -0.2250  0.5644
  181SLPC  H12Y20783   6.317   4.593   8.226 -2.0300  1.2565 -3.4678
  181SLPC  C31320784   6.495   4.490   8.143  0.4560 -0.2274 -0.2463
  181SLPC  H13X20785   6.428   4.402   8.132  0.8683 -0.3243 -2.1893
  181SLPC  H13Y20786   6.586   4.458   8.198 -0.6330 -2.4950  0.3673
  181SLPC  C31420787   6.540   4.533   8.004  0.0535  0.3216 -0.3492
  181SLPC  H14X20788   6.604   4.624   8.012  1.0262 -0.2964 -0.8482
  181SLPC  H14Y20789   6.448   4.560   7.948 -0.1496  0.9985  0.2807
  181SLPC  C31520790   6.644   4.444   7.941 -0.5268 -0.1294  0.1021
  181SLPC  H15X20791   6.740   4.452   7.998  0.0462  0.9196 -0.9873
  181SLPC  H15Y20792   6.655   4.494   7.843  1.5368 -1.1844 -0.2488
  181SLPC  C31620793   6.597   4.302   7.915  0.1261 -0.4574  0.0266
  181SLPC  H16X20794   6.500   4.297   7.861 -0.5122 -1.0729  1.1878
  181SLPC  H16Y20795   6.583   4.260   8.017 -3.1705  0.8462  0.2529
  181SLPC  C31720796   6.695   4.206   7.840 -0.0006 -0.2251 -0.1388
  181SLPC  H17X20797   6.802   4.225   7.862 -0.6150  0.6746  2.3883
  181SLPC  H17Y20798   6.689   4.249   7.737 -2.4755 -0.6105 -0.2056
  181SLPC  C31820799   6.650   4.061   7.830 -0.1954 -0.2382 -0.2263
  181SLPC  H18X20800   6.715   3.996   7.767 -0.8242 -1.5877  0.4879
  181SLPC  H18Y20801   6.546   4.068   7.793  0.8905  2.0451 -3.3690
  181SLPC  H18Z20802   6.653   4.002   7.924 -1.0618  0.6669  0.3889
  182SLPC     N20803   6.603   1.493   9.644  0.5073 -0.2460  0.2422
  182SLPC   C1320804   6.728   1.562   9.605  0.8042 -0.4564  0.4380
  182SLPC  H13A20805   6.712   1.669   9.611 -1.7568 -0.6015 -1.8597
  182SLPC  H13B20806   6.805   1.538   9.676  1.3584 -0.2253 -0.0798
  182SLPC  H13C20807   6.753   1.535   9.504 -1.9329  0.6636 -0.6639
  182SLPC   C1420808   6.491   1.532   9.545 -1.3996  0.0714  0.0478
  182SLPC  H14A20809   6.403   1.473   9.563 -0.3207 -1.3271  0.9482
  182SLPC  H14B20810   6.468   1.634   9.573 -1.4422  0.3185 -0.8580
  182SLPC  H14C20811   6.512   1.524   9.440 -3.0775 -2.4678 -0.1700
  182SLPC   C1520812   6.574   1.537   9.784  0.4641  0.1254  0.1683
  182SLPC  H15A20813   6.489   1.478   9.816  0.5273  0.6883  1.4600
  182SLPC  H15B20814   6.658   1.512   9.847  0.6816 -0.9330 -0.5211
  182SLPC  H15C20815   6.555   1.643   9.791 -2.3095 -0.3381  1.1656
  182SLPC   C1220816   6.618   1.339   9.631 -0.6351 -0.8582  0.4585
  182SLPC  H12A20817   6.523   1.289   9.642 -0.0781 -1.5502  2.4182
  182SLPC  H12B20818   6.673   1.304   9.717  0.2566 -1.6622 -0.4110
  182SLPC   C1120819   6.701   1.288   9.512 -0.1805 -0.4775  0.4170
  182SLPC  H11A20820   6.676   1.346   9.420 -0.6825  0.1754  0.9512
  182SLPC  H11B20821   6.678   1.183   9.487 -1.6281  0.2683 -1.6868
  182SLPC     P20822   6.932   1.217   9.635 -0.0210 -0.0633  0.2072
  182SLPC   O1320823   7.069   1.276   9.669  0.4525  0.6359 -0.5100
  182SLPC   O1420824   6.849   1.182   9.747 -0.2632 -0.0535 -0.3605
  182SLPC   O1220825   6.848   1.309   9.528 -0.2166  0.9019  0.4914
  182SLPC   O1120826   6.966   1.086   9.561  0.2034  0.0732 -0.4661
  182SLPC    C120827   6.882   0.972   9.567  0.2971 -0.3265 -0.5131
  182SLPC    HA20828   6.936   0.893   9.624 -0.0383  0.6080  1.1624
  182SLPC    HB20829   6.789   0.990   9.624  2.3410  1.3093  2.6220
  182SLPC    C220830   6.842   0.916   9.435 -0.3776 -0.1008  0.5339
  182SLPC    HS20831   6.935   0.866   9.399 -0.5214 -0.1787  0.2653
  182SLPC   O2120832   6.807   1.024   9.345 -0.1347 -0.4829  0.1519
  182SLPC   C2120833   6.850   1.004   9.214 -0.0682  0.4594  0.0954
  182SLPC   O2220834   6.947   0.939   9.184  0.0450 -0.4045  0.2965
  182SLPC   C2220835   6.735   1.052   9.115  0.0928  0.2060 -0.1038
  182SLPC   H2R20836   6.651   0.979   9.123 -0.9999  1.5521  1.1527
  182SLPC   H2S20837   6.695   1.148   9.153  1.2795  1.7488 -2.5080
  182SLPC    C320838   6.729   0.804   9.428 -0.0351  1.1090 -0.2805
  182SLPC    HX20839   6.643   0.862   9.468  0.6848  0.6552  2.1169
  182SLPC    HY20840   6.758   0.727   9.502 -0.8054  0.5747 -0.5271
  182SLPC   O3120841   6.705   0.749   9.299 -0.1987 -0.7452 -0.0741
  182SLPC   C3120842   6.703   0.620   9.278  0.9542 -0.4716  0.0477
  182SLPC   O3220843   6.731   0.532   9.360  0.3161 -0.2977 -0.0596
  182SLPC   C3220844   6.665   0.593   9.139  0.1441  0.4073  0.4834
  182SLPC   H2X20845   6.715   0.501   9.102 -0.8699 -0.1615  0.4621
  182SLPC   H2Y20846   6.691   0.681   9.077  0.1314 -0.1387 -0.3143
  182SLPC   C2320847   6.767   1.093   8.969 -0.1932 -1.2557 -0.0062
  182SLPC   H3R20848   6.844   1.173   8.980 -1.8573  0.5048 -0.5460
  182SLPC   H3S20849   6.681   1.145   8.921 -0.0981 -1.9391 -0.9431
  182SLPC   C2420850   6.804   0.979   8.884 -0.7799  0.1010 -0.1842
  182SLPC   H4R20851   6.714   0.916   8.871 -1.3176  1.1001 -1.5039
  182SLPC   H4S20852   6.886   0.914   8.921  0.9128  1.5255 -1.2714
  182SLPC   C2520853   6.832   1.021   8.737  0.4548 -0.5309 -0.8966
  182SLPC   H5R20854   6.929   1.073   8.751 -0.3807  0.4045  2.2187
  182SLPC   H5S20855   6.764   1.099   8.696  2.0450  2.1733  1.2748
  182SLPC   C2620856   6.856   0.905   8.635 -0.6070  0.2399 -0.7369
  182SLPC   H6R20857   6.913   0.820   8.679  0.7070  1.1670 -0.5769
  182SLPC   H6S20858   6.916   0.942   8.549  1.8367 -2.0072 -0.1400
  182SLPC   C2720859   6.721   0.851   8.584  0.8558  0.0939  0.0584
  182SLPC   H7R20860   6.671   0.938   8.536  0.8404  1.4461  2.3839
  182SLPC   H7S20861   6.654   0.823   8.668  2.0681  1.4485  1.5584
  182SLPC   C2820862   6.746   0.730   8.491  0.3422 -0.0912 -0.1488
  182SLPC   H8R20863   6.643   0.701   8.461 -0.0664  0.8660  0.2670
  182SLPC   H8S20864   6.787   0.649   8.556  1.2653  0.9418  0.5872
  182SLPC   C2920865   6.840   0.751   8.376  0.3036  0.4392 -0.4443
  182SLPC   H9R20866   6.943   0.773   8.408 -0.5563  1.3925  1.8907
  182SLPC  C21020867   6.818   0.733   8.248  0.1743  0.4707 -0.3123
  182SLPC  H10R20868   6.900   0.751   8.177 -0.3189  2.4455 -0.4578
  182SLPC  C21120869   6.687   0.694   8.181  0.4974 -0.3215  0.0936
  182SLPC  H11R20870   6.622   0.647   8.258 -0.9896 -0.1754 -1.0273
  182SLPC  H11S20871   6.705   0.610   8.111 -0.4592 -0.4188 -0.0581
  182SLPC  C21220872   6.607   0.799   8.118 -0.6399 -0.1055  0.1946
  182SLPC  H12R20873   6.571   0.875   8.189  1.1284  0.4724  0.5248
  182SLPC  C21320874   6.568   0.803   7.989  0.0059  0.7188 -0.5540
  182SLPC  H13R20875   6.510   0.894   7.967 -0.8003  1.0549  2.5354
  182SLPC  C21420876   6.609   0.707   7.874  0.5870  0.2741 -0.2622
  182SLPC  H14R20877   6.517   0.651   7.846  0.3225  0.9529 -0.7796
  182SLPC  H14S20878   6.685   0.629   7.895  0.2312 -0.3988 -1.3366
  182SLPC  C21520879   6.657   0.768   7.745 -0.1008  0.0573 -0.0919
  182SLPC  H15R20880   6.762   0.805   7.746 -0.4993  1.2017  1.1299
  182SLPC  H15S20881   6.596   0.855   7.715  0.7544  0.3344 -1.0860
  182SLPC  C21620882   6.648   0.656   7.635 -0.9757 -0.0038  0.2520
  182SLPC  H16R20883   6.551   0.601   7.635 -0.6148 -0.8303 -2.4404
  182SLPC  H16S20884   6.709   0.569   7.666 -0.9222  0.6850  2.1643
  182SLPC  C21720885   6.677   0.708   7.491  0.0278 -0.5542  0.2419
  182SLPC  H17R20886   6.780   0.746   7.471  0.8524 -3.4351 -1.5050
  182SLPC  H17S20887   6.609   0.794   7.473  0.4447 -0.4098 -0.6558
  182SLPC  C21820888   6.656   0.602   7.383  0.5087 -0.5614 -0.3387
  182SLPC  H18R20889   6.675   0.652   7.286  0.4915 -0.2025 -0.1621
  182SLPC  H18S20890   6.556   0.556   7.393 -0.4128  0.6876 -3.0644
  182SLPC  H18T20891   6.734   0.524   7.399 -0.0134 -0.6160  2.6005
  182SLPC   C3320892   6.514   0.564   9.130 -0.0813 -0.1246 -0.1770
  182SLPC   H3X20893   6.445   0.626   9.191  0.5309 -0.0199  0.4224
  182SLPC   H3Y20894   6.507   0.461   9.172  0.8872 -0.2319 -0.2544
  182SLPC   C3420895   6.462   0.541   8.985 -0.2647 -0.0815  0.0251
  182SLPC   H4X20896   6.415   0.441   8.980  0.6205 -0.6948  2.5567
  182SLPC   H4Y20897   6.549   0.528   8.918 -0.9709 -0.5206 -0.8305
  182SLPC   C3520898   6.363   0.647   8.934  0.3052  0.3987 -0.1460
  182SLPC   H5X20899   6.384   0.663   8.826 -2.7206 -0.5461 -0.9751
  182SLPC   H5Y20900   6.380   0.743   8.988 -3.7068  1.8326 -1.0695
  182SLPC   C3620901   6.215   0.610   8.945  0.1734  0.4786  0.4979
  182SLPC   H6X20902   6.193   0.586   9.051  0.7378  3.4931  1.3717
  182SLPC   H6Y20903   6.203   0.517   8.884  0.4657  1.1374 -0.5831
  182SLPC   C3720904   6.120   0.721   8.887  0.0440  0.5614  0.5284
  182SLPC   H7X20905   6.122   0.721   8.776 -0.5374 -0.2678  0.5075
  182SLPC   H7Y20906   6.161   0.816   8.926 -2.6555  1.5523  1.2219
  182SLPC   C3820907   5.979   0.709   8.932  0.2581 -0.4038 -1.1505
  182SLPC   H8X20908   5.968   0.742   9.037 -0.0046 -1.2416 -0.9091
  182SLPC   H8Y20909   5.956   0.601   8.920 -0.3495 -0.3940 -0.1528
  182SLPC   C3920910   5.883   0.782   8.840 -0.1003  0.7309  0.2079
  182SLPC   H9X20911   5.914   0.757   8.736  0.5391  0.2200  0.5097
  182SLPC   H9Y20912   5.908   0.889   8.855  0.0564  0.4967  1.7643
  182SLPC  C31020913   5.743   0.746   8.874 -0.5000 -0.8625  1.0309
  182SLPC  H10X20914   5.725   0.739   8.983 -0.1907  3.0120  1.4742
  182SLPC  H10Y20915   5.716   0.652   8.821 -1.7293  1.3063 -2.5179
  182SLPC  C31120916   5.643   0.853   8.816  1.2859 -0.2776  0.4423
  182SLPC  H11X20917   5.681   0.953   8.847  1.2853 -0.6926  1.8674
  182SLPC  H11Y20918   5.549   0.843   8.874  1.2126  0.3633  0.4345
  182SLPC  C31220919   5.619   0.845   8.661  0.5639  1.0254 -0.4684
  182SLPC  H12X20920   5.568   0.748   8.649  1.6007  0.5771 -1.4196
  182SLPC  H12Y20921   5.717   0.837   8.610  2.0331 -0.8332  2.3470
  182SLPC  C31320922   5.533   0.960   8.610  0.0719  0.4117 -0.3602
  182SLPC  H13X20923   5.588   1.054   8.633  1.5120 -0.8738  1.7794
  182SLPC  H13Y20924   5.437   0.968   8.666  0.9323  0.4455  1.1479
  182SLPC  C31420925   5.512   0.939   8.456  0.2078 -0.6619 -0.3633
  182SLPC  H14X20926   5.474   0.836   8.438  0.3598 -1.4903  3.3055
  182SLPC  H14Y20927   5.617   0.945   8.418  0.1704  2.2018 -0.2369
  182SLPC  C31520928   5.430   1.044   8.389 -0.0205  0.3319 -0.7426
  182SLPC  H15X20929   5.442   1.028   8.280  2.4470 -0.1934 -0.4512
  182SLPC  H15Y20930   5.474   1.144   8.414  0.1855 -0.0531  0.5113
  182SLPC  C31620931   5.284   1.039   8.432  0.1610 -0.0501 -0.0553
  182SLPC  H16X20932   5.260   1.098   8.523 -3.1742 -0.6774 -0.3942
  182SLPC  H16Y20933   5.250   0.934   8.441 -2.2379  0.6210 -0.6475
  182SLPC  C31720934   5.194   1.112   8.326  0.8663  0.0338 -0.1007
  182SLPC  H17X20935   5.093   1.078   8.358  1.6852 -2.7834 -0.3013
  182SLPC  H17Y20936   5.193   1.063   8.227  2.4968 -1.3605  0.5366
  182SLPC  C31820937   5.204   1.263   8.330  0.1313  0.2961  0.8047
  182SLPC  H18X20938   5.302   1.286   8.285  1.3175 -3.2938  1.2275
  182SLPC  H18Y20939   5.196   1.309   8.431  1.1140  0.8746  0.6268
  182SLPC  H18Z20940   5.129   1.310   8.263  0.2168  0.4244  0.7977
  183SLPC     N20941   0.035   1.132   9.335  0.3721  0.3764 -0.6998
  183SLPC   C1320942  -0.064   1.154   9.225 -0.4418 -0.2046 -0.3321
  183SLPC  H13A20943  -0.081   1.066   9.166  1.7302 -0.8803 -0.0193
  183SLPC  H13B20944  -0.156   1.192   9.268  0.2352 -1.0950  2.0656
  183SLPC  H13C20945  -0.013   1.228   9.165  2.1767 -0.6200  1.2589
  183SLPC   C1420946   0.169   1.116   9.272 -0.1271 -0.2138  0.5496
  183SLPC  H14A20947   0.164   1.066   9.177 -1.7334 -2.2728  1.6541
  183SLPC  H14B20948   0.225   1.207   9.254  2.2290 -2.1157 -2.8038
  183SLPC  H14C20949   0.230   1.053   9.335 -1.2829 -0.2066  1.7183
  183SLPC   C1520950  -0.019   0.998   9.393 -0.0739  0.4646  0.0573
  183SLPC  H15A20951   0.044   0.956   9.470 -1.6480  2.1193  2.3638
  183SLPC  H15B20952  -0.118   1.014   9.433 -0.6488 -1.0903 -0.6676
  183SLPC  H15C20953  -0.027   0.932   9.308 -0.0937  0.1761  0.2791
  183SLPC   C1220954   0.027   1.250   9.435 -0.4147 -0.1403 -0.4226
  183SLPC  H12A20955   0.094   1.224   9.516 -2.4901 -2.5613  0.6654
  183SLPC  H12B20956  -0.064   1.240   9.492 -1.2277 -4.2375 -2.0676
  183SLPC   C1120957   0.046   1.404   9.396 -0.4072 -0.2083  0.5258
  183SLPC  H11A20958   0.046   1.456   9.494  1.1755  0.4711  0.2015
  183SLPC  H11B20959  -0.045   1.427   9.337  0.3555 -1.9077 -1.4555
  183SLPC     P20960   0.269   1.538   9.368  0.0189 -0.0461  0.7292
  183SLPC   O1320961   0.215   1.675   9.369 -0.4351  0.6026  0.0069
  183SLPC   O1420962   0.331   1.490   9.498 -0.0068  0.4306  0.4842
  183SLPC   O1220963   0.165   1.437   9.315 -0.1168 -0.0937 -0.7894
  183SLPC   O1120964   0.387   1.525   9.271  0.1579 -0.2281  1.3815
  183SLPC    C120965   0.397   1.596   9.143  0.6528 -0.0943  0.2310
  183SLPC    HA20966   0.293   1.619   9.112  0.4633  0.0368  0.9427
  183SLPC    HB20967   0.455   1.690   9.151  0.6755 -0.2130  1.6232
  183SLPC    C220968   0.467   1.511   9.032 -0.2418  0.1305 -0.1502
  183SLPC    HS20969   0.576   1.518   9.053 -0.2907  0.0617  0.1224
  183SLPC   O2120970   0.424   1.564   8.905 -0.0158  0.7276  0.1175
  183SLPC   C2120971   0.516   1.634   8.840 -0.6668  0.5028  0.0205
  183SLPC   O2220972   0.633   1.657   8.875  0.1980  0.2168 -0.1145
  183SLPC   C2220973   0.441   1.698   8.723  0.5273 -0.5992 -1.1356
  183SLPC   H2R20974   0.377   1.619   8.678 -1.5202  0.8464 -0.8890
  183SLPC   H2S20975   0.371   1.774   8.764  0.1509 -1.8661  0.6979
  183SLPC    C320976   0.413   1.359   9.045 -0.1862 -0.0072 -0.4669
  183SLPC    HX20977   0.304   1.371   9.027 -0.4920 -1.7617  0.0043
  183SLPC    HY20978   0.434   1.327   9.149  1.1266  0.0445 -0.6878
  183SLPC   O3120979   0.464   1.265   8.948 -0.2298  0.1026 -0.0122
  183SLPC   C3120980   0.394   1.155   8.942  0.2594 -0.0508  0.2252
  183SLPC   O3220981   0.291   1.133   8.999  0.3942 -0.2696  0.0272
  183SLPC   C3220982   0.459   1.054   8.847  0.5394  0.1534 -0.2188
  183SLPC   H2X20983   0.372   0.993   8.815  0.3969  0.7741 -1.0684
  183SLPC   H2Y20984   0.541   0.998   8.897 -1.4101 -2.0683  0.6745
  183SLPC   C2320985   0.525   1.758   8.620 -0.7879 -1.2008 -0.3426
  183SLPC   H3R20986   0.613   1.701   8.583  1.0449  1.0444  0.2907
  183SLPC   H3S20987   0.578   1.846   8.662  1.9335 -1.6523 -2.4750
  183SLPC   C2420988   0.442   1.806   8.497  0.0531 -0.8796 -1.6859
  183SLPC   H4R20989   0.367   1.878   8.537  1.6388  0.0693 -0.2701
  183SLPC   H4S20990   0.382   1.722   8.457  1.0469 -1.5325 -1.8469
  183SLPC   C2520991   0.529   1.878   8.395  0.0002 -0.0996  0.2417
  183SLPC   H5R20992   0.599   1.933   8.462  0.2290 -1.0963  0.8320
  183SLPC   H5S20993   0.469   1.952   8.337  0.2246 -0.9920 -1.1688
  183SLPC   C2620994   0.606   1.778   8.298  0.2421 -0.1655 -0.4417
  183SLPC   H6R20995   0.522   1.715   8.262 -0.9532  0.2277  1.5567
  183SLPC   H6S20996   0.677   1.711   8.351 -0.2373  1.3238  2.2774
  183SLPC   C2720997   0.665   1.846   8.175 -0.2054 -0.4783  0.4615
  183SLPC   H7R20998   0.580   1.889   8.117 -0.4985 -1.8726 -0.1666
  183SLPC   H7S20999   0.699   1.774   8.097  1.7502 -0.7990  1.5548
  183SLPC   C2821000   0.768   1.961   8.205  0.4147  0.2663 -1.1304
  183SLPC   H8R21001   0.704   2.043   8.247  0.6768  0.1508 -0.4909
  183SLPC   H8S21002   0.813   2.001   8.112 -0.0664  1.1465 -1.0047
  183SLPC   C2921003   0.871   1.935   8.313  0.2976 -0.3645  0.9052
  183SLPC   H9R21004   0.832   1.920   8.414 -1.1306 -1.9671  0.1676
  183SLPC  C21021005   1.010   1.933   8.297  0.9602 -0.4392  0.1545
  183SLPC  H10R21006   1.078   1.929   8.384 -2.0889  2.2578  2.9519
  183SLPC  C21121007   1.083   1.951   8.166  0.0768  0.4428  0.6366
  183SLPC  H11R21008   1.013   1.934   8.082  0.1329 -1.8581  0.9970
  183SLPC  H11S21009   1.156   1.868   8.154  2.7283  2.7089 -0.0930
  183SLPC  C21221010   1.167   2.072   8.146  0.5777  0.5337 -0.3946
  183SLPC  H12R21011   1.128   2.122   8.056 -1.9211 -0.0069  0.3297
  183SLPC  C21321012   1.267   2.124   8.222  0.0142  0.3293  0.0501
  183SLPC  H13R21013   1.324   2.205   8.175  1.9158 -1.8363 -1.6217
  183SLPC  C21421014   1.334   2.049   8.342 -0.0560  0.9200  0.7613
  183SLPC  H14R21015   1.340   1.941   8.317  0.8875  0.9235  0.9395
  183SLPC  H14S21016   1.279   2.064   8.437  1.6670 -0.1036  1.9839
  183SLPC  C21521017   1.476   2.097   8.369  0.4999 -0.1437  0.7241
  183SLPC  H15R21018   1.487   2.203   8.400  2.7210 -0.1844  0.2808
  183SLPC  H15S21019   1.544   2.094   8.281  0.9686  3.4674  0.8092
  183SLPC  C21621020   1.535   2.009   8.474  0.3869  0.0150 -0.2333
  183SLPC  H16R21021   1.521   1.906   8.436 -0.3389 -0.4261  1.1620
  183SLPC  H16S21022   1.469   2.024   8.563  0.4270  0.6734 -0.3071
  183SLPC  C21721023   1.686   2.025   8.498 -0.1436  0.0436 -0.7214
  183SLPC  H17R21024   1.744   2.043   8.405 -0.0084 -3.0439 -1.3610
  183SLPC  H17S21025   1.720   1.944   8.565  1.2130  0.1823 -1.2076
  183SLPC  C21821026   1.707   2.142   8.589  0.2909  0.2940 -0.1204
  183SLPC  H18R21027   1.676   2.105   8.689  0.6808 -1.8141 -0.7290
  183SLPC  H18S21028   1.650   2.231   8.555 -0.3936  0.2528  0.8581
  183SLPC  H18T21029   1.815   2.166   8.603  0.9291 -1.5358 -1.4662
  183SLPC   C3321030   0.499   1.106   8.708 -0.7188  0.1669 -0.6387
  183SLPC   H3X21031   0.564   1.195   8.705  0.7489 -0.8823 -2.8613
  183SLPC   H3Y21032   0.409   1.139   8.652 -1.1239 -0.0303 -0.1172
  183SLPC   C3421033   0.580   1.001   8.626  0.6073  0.2159  0.1531
  183SLPC   H4X21034   0.521   0.907   8.617  1.6373 -0.5379  0.9578
  183SLPC   H4Y21035   0.676   0.992   8.681  0.0953  1.5905  1.3227
  183SLPC   C3521036   0.602   1.041   8.475 -0.5927 -0.0334  0.1303
  183SLPC   H5X21037   0.671   0.969   8.426  0.9007  1.6158 -0.3180
  183SLPC   H5Y21038   0.646   1.143   8.479  0.5792 -0.5558  1.1842
  183SLPC   C3621039   0.470   1.039   8.391 -0.4124  0.6063 -0.0041
  183SLPC   H6X21040   0.395   1.101   8.445  1.3358  1.1293  1.9090
  183SLPC   H6Y21041   0.440   0.932   8.398  1.4789  0.1390  1.8405
  183SLPC   C3721042   0.486   1.101   8.259 -0.2008 -1.4366 -0.3762
  183SLPC   H7X21043   0.382   1.106   8.220  0.2229  0.7719 -1.3434
  183SLPC   H7Y21044   0.528   1.024   8.191  0.0085 -0.9069 -0.8458
  183SLPC   C3821045   0.553   1.236   8.240  0.2980 -0.2210  0.1820
  183SLPC   H8X21046   0.571   1.272   8.136 -0.7200 -0.6439 -0.1543
  183SLPC   H8Y21047   0.652   1.226   8.289  0.3325  0.3142  0.2238
  183SLPC   C3921048   0.473   1.344   8.312 -0.2649 -0.0277 -0.0816
  183SLPC   H9X21049   0.527   1.441   8.323 -0.8456  0.1503  1.5769
  183SLPC   H9Y21050   0.450   1.312   8.416  0.3293 -2.1993 -0.5830
  183SLPC  C31021051   0.341   1.378   8.236  0.4180  0.2341 -0.4208
  183SLPC  H10X21052   0.264   1.299   8.229  0.6128  0.0816 -0.8650
  183SLPC  H10Y21053   0.369   1.394   8.129 -0.1057  2.8637 -0.2410
  183SLPC  C31121054   0.282   1.496   8.307  0.5502  0.5568  0.9362
  183SLPC  H11X21055   0.333   1.586   8.267  2.1062 -0.5578  0.2978
  183SLPC  H11Y21056   0.307   1.485   8.415  0.0335 -0.2356  0.9845
  183SLPC  C31221057   0.130   1.517   8.288 -0.3455 -0.0503  0.2020
  183SLPC  H12X21058   0.080   1.425   8.324  1.6563 -0.5307  1.9899
  183SLPC  H12Y21059   0.118   1.514   8.177  5.8210  2.1100 -0.9713
  183SLPC  C31321060   0.068   1.640   8.352  0.7281  0.5816  0.0967
  183SLPC  H13X21061  -0.031   1.671   8.313  1.0908 -0.0405 -1.3791
  183SLPC  H13Y21062   0.140   1.724   8.339  0.1788  1.1863  0.8644
  183SLPC  C31421063   0.056   1.634   8.502 -0.0479  0.2991 -0.7259
  183SLPC  H14X21064   0.146   1.588   8.548 -1.7854 -1.5186  1.0824
  183SLPC  H14Y21065  -0.030   1.574   8.537  1.3974 -0.8615  1.0476
  183SLPC  C31521066   0.031   1.774   8.554 -0.0482 -0.0852 -0.7692
  183SLPC  H15X21067  -0.048   1.827   8.496  0.2516  0.7811 -0.3908
  183SLPC  H15Y21068   0.126   1.830   8.541 -1.0895  1.4060 -2.5619
  183SLPC  C31621069  -0.014   1.786   8.701 -0.2795  0.6701 -0.5509
  183SLPC  H16X21070   0.045   1.713   8.760 -0.3605  0.3670 -0.8439
  183SLPC  H16Y21071  -0.116   1.743   8.701  0.0726 -0.2361 -1.7990
  183SLPC  C31721072   0.020   1.920   8.758 -0.3672  0.2385 -0.1708
  183SLPC  H17X21073  -0.026   1.994   8.690  2.8834  2.8123  0.1741
  183SLPC  H17Y21074   0.130   1.936   8.744 -0.5697  0.9088 -1.0565
  183SLPC  C31821075  -0.019   1.939   8.896 -0.3807  0.2805 -0.4767
  183SLPC  H18X21076   0.020   1.866   8.970  0.5578  2.9853  1.8472
  183SLPC  H18Y21077  -0.130   1.936   8.905 -0.3297  0.9311  0.5189
  183SLPC  H18Z21078   0.019   2.033   8.941  2.0880 -0.5094 -0.7856
  184SLPC     N21079   0.885   0.240   9.480  0.2718 -0.6134  0.2444
  184SLPC   C1321080   0.921   0.381   9.489  0.1360  0.0041 -0.1323
  184SLPC  H13A21081   0.971   0.419   9.401  0.8958  2.7121  1.3429
  184SLPC  H13B21082   0.837   0.447   9.503  1.0194  0.7978  1.8001
  184SLPC  H13C21083   0.988   0.404   9.571 -0.5041  0.6305  0.2287
  184SLPC   C1421084   0.805   0.203   9.595  1.0401  0.1972 -0.2344
  184SLPC  H14A21085   0.756   0.108   9.592 -1.3532  1.3789 -1.5058
  184SLPC  H14B21086   0.848   0.229   9.691  1.4047 -1.2165 -0.0047
  184SLPC  H14C21087   0.718   0.267   9.590  1.2908  0.6514  0.9365
  184SLPC   C1521088   1.015   0.158   9.482 -0.7044 -1.0176  0.2216
  184SLPC  H15A21089   1.097   0.214   9.440 -2.5184  1.7638  0.1056
  184SLPC  H15B21090   1.049   0.127   9.580 -1.2427 -0.2074  0.6688
  184SLPC  H15C21091   1.007   0.067   9.424 -0.4550 -0.7585 -0.2228
  184SLPC   C1221092   0.818   0.198   9.350 -0.3047 -0.0703 -0.3554
  184SLPC  H12A21093   0.816   0.090   9.344 -0.7898 -0.0338 -1.0022
  184SLPC  H12B21094   0.871   0.225   9.260  1.7615  0.4246  0.9386
  184SLPC   C1121095   0.671   0.252   9.328 -0.0591 -0.2472  0.0054
  184SLPC  H11A21096   0.649   0.238   9.220  1.4672  2.9365 -0.8419
  184SLPC  H11B21097   0.672   0.360   9.356 -1.2505 -0.1851 -0.1371
  184SLPC     P21098   0.540   0.043   9.380  0.4425 -0.0392  0.1338
  184SLPC   O1321099   0.650  -0.041   9.418  0.3932  0.3354 -0.3287
  184SLPC   O1421100   0.410   0.025   9.447  0.2383 -0.2669  0.1700
  184SLPC   O1221101   0.569   0.192   9.406  0.4799  0.0644 -0.1221
  184SLPC   O1121102   0.520   0.024   9.226  0.5662 -0.3279  0.5749
  184SLPC    C121103   0.482  -0.101   9.166  0.2923 -0.6613  0.0546
  184SLPC    HA21104   0.514  -0.104   9.060  2.1984  2.3983  0.4423
  184SLPC    HB21105   0.531  -0.185   9.220 -2.6150 -1.3337  1.8956
  184SLPC    C221106   0.328  -0.114   9.170 -0.5759  0.0932 -0.4839
  184SLPC    HS21107   0.302  -0.133   9.277  0.1824  1.3938 -0.0558
  184SLPC   O2121108   0.281  -0.229   9.092  0.5737  0.0405  0.3108
  184SLPC   C2121109   0.161  -0.265   9.123 -0.9209  0.4071 -0.2039
  184SLPC   O2221110   0.081  -0.232   9.213 -0.5413  0.1184  0.1373
  184SLPC   C2221111   0.126  -0.376   9.027  0.1426  0.6871 -0.1574
  184SLPC   H2R21112   0.172  -0.471   9.062  1.1061  1.4324  0.6743
  184SLPC   H2S21113   0.015  -0.387   9.022 -0.1808  3.0830  0.4105
  184SLPC    C321114   0.256   0.009   9.111  0.4793  0.6980  0.4185
  184SLPC    HX21115   0.282   0.101   9.168  2.2857 -1.0320  2.5952
  184SLPC    HY21116   0.147  -0.011   9.102  0.6771  0.2834 -1.3612
  184SLPC   O3121117   0.291   0.014   8.973 -0.1417 -0.1659  0.0179
  184SLPC   C3121118   0.234   0.117   8.901  0.7033 -0.7084 -0.4463
  184SLPC   O3221119   0.165   0.202   8.957 -0.0263 -0.4741  0.9458
  184SLPC   C3221120   0.248   0.099   8.757  0.1751  0.4539  0.4451
  184SLPC   H2X21121   0.247   0.203   8.718 -5.1340  1.2013  1.8537
  184SLPC   H2Y21122   0.157   0.052   8.715  1.2438 -0.6397 -0.7614
  184SLPC   C2321123   0.148  -0.332   8.874 -0.4269  0.5004 -0.2652
  184SLPC   H3R21124   0.131  -0.420   8.808  1.1501  0.0283 -0.0917
  184SLPC   H3S21125   0.251  -0.295   8.853 -0.4471  2.2236  2.2100
  184SLPC   C2421126   0.042  -0.227   8.844 -0.4826  0.0937  0.2314
  184SLPC   H4R21127   0.075  -0.130   8.886  2.5379  0.5984 -2.8254
  184SLPC   H4S21128  -0.060  -0.252   8.880 -0.2333 -0.5103  0.5396
  184SLPC   C2521129   0.023  -0.212   8.688 -0.1938  0.8740 -0.3743
  184SLPC   H5R21130   0.004  -0.310   8.639 -1.9184  1.5570 -1.1563
  184SLPC   H5S21131   0.122  -0.181   8.648  0.7379 -1.6240 -0.2291
  184SLPC   C2621132  -0.085  -0.116   8.655  0.7295  0.7535 -0.0342
  184SLPC   H6R21133  -0.049  -0.018   8.694  2.2090  0.8379 -1.5082
  184SLPC   H6S21134  -0.174  -0.145   8.715  0.2846 -2.1523 -1.9292
  184SLPC   C2721135  -0.126  -0.120   8.503  0.2961 -1.0992 -0.0236
  184SLPC   H7R21136  -0.120  -0.228   8.476  2.1341 -0.8871 -0.6655
  184SLPC   H7S21137  -0.037  -0.082   8.449 -0.6259  1.6769  0.2471
  184SLPC   C2821138  -0.256  -0.055   8.449 -0.0434  0.4537 -0.4761
  184SLPC   H8R21139  -0.244   0.054   8.469  2.0877 -0.1631  2.1502
  184SLPC   H8S21140  -0.337  -0.089   8.517  0.9574  0.8640  0.9777
  184SLPC   C2921141  -0.279  -0.082   8.303  0.8949 -0.0405 -0.1860
  184SLPC   H9R21142  -0.275  -0.190   8.281 -1.9697 -0.0383 -1.1000
  184SLPC  C21021143  -0.309   0.009   8.209 -0.2844  0.0200 -0.0452
  184SLPC  H10R21144  -0.312  -0.025   8.104  1.3822  2.1295 -0.8494
  184SLPC  C21121145  -0.321   0.152   8.246 -0.2597 -0.4536  0.3795
  184SLPC  H11R21146  -0.236   0.184   8.310  0.4427  0.8800 -1.1434
  184SLPC  H11S21147  -0.418   0.173   8.295 -1.8620 -3.3667 -1.2365
  184SLPC  C21221148  -0.306   0.240   8.122 -0.1116  0.3363  0.1218
  184SLPC  H12R21149  -0.204   0.247   8.083  0.1823 -1.0701  0.5732
  184SLPC  C21321150  -0.405   0.315   8.075  0.3623 -0.4963 -0.0667
  184SLPC  H13R21151  -0.390   0.389   7.996 -0.5385 -2.2736 -1.9944
  184SLPC  C21421152  -0.546   0.311   8.124  0.5519  0.0384  0.0424
  184SLPC  H14R21153  -0.568   0.392   8.196  1.0066 -0.8880  1.2537
  184SLPC  H14S21154  -0.573   0.217   8.176 -1.7362  1.2630  1.2135
  184SLPC  C21521155  -0.648   0.329   8.008  0.1866  0.4607  0.3494
  184SLPC  H15R21156  -0.618   0.417   7.946 -0.1071  1.0626  1.0481
  184SLPC  H15S21157  -0.752   0.348   8.042 -0.7900 -0.7615 -1.7363
  184SLPC  C21621158  -0.654   0.212   7.909 -0.5364  0.1338  0.4088
  184SLPC  H16R21159  -0.695   0.126   7.967  1.1074 -1.1229 -0.2006
  184SLPC  H16S21160  -0.555   0.181   7.870 -1.5304 -0.0561 -2.2353
  184SLPC  C21721161  -0.759   0.238   7.799  0.2850  0.3213  0.3316
  184SLPC  H17R21162  -0.729   0.320   7.731  2.1487 -0.6060 -0.0272
  184SLPC  H17S21163  -0.857   0.258   7.849  0.4607 -0.6717  1.1276
  184SLPC  C21821164  -0.792   0.112   7.714  0.1020 -0.5077  0.2631
  184SLPC  H18R21165  -0.704   0.063   7.667  0.4065  1.4385 -1.3324
  184SLPC  H18S21166  -0.860   0.140   7.630  2.1765 -0.6542 -1.5556
  184SLPC  H18T21167  -0.847   0.037   7.775 -1.8756  1.6613  1.3037
  184SLPC   C3321168   0.371   0.017   8.733 -0.4407  0.1540 -0.1428
  184SLPC   H3X21169   0.358  -0.092   8.748 -0.9587  0.3694  1.1350
  184SLPC   H3Y21170   0.457   0.055   8.792 -0.9883  1.7137 -0.3068
  184SLPC   C3421171   0.419   0.024   8.584  0.5614  0.3704 -0.7220
  184SLPC   H4X21172   0.468   0.121   8.563  0.1431  1.5415  2.9636
  184SLPC   H4Y21173   0.329   0.011   8.520 -0.7629  0.6913  0.9686
  184SLPC   C3521174   0.514  -0.094   8.563 -0.2516  0.6701 -0.3375
  184SLPC   H5X21175   0.461  -0.192   8.564 -0.4619  0.7132 -2.2804
  184SLPC   H5Y21176   0.585  -0.093   8.648 -0.9359  1.2342  0.2425
  184SLPC   C3621177   0.594  -0.094   8.426  0.8060  0.9655  0.6482
  184SLPC   H6X21178   0.671  -0.014   8.427  1.0840  0.7616 -1.1586
  184SLPC   H6Y21179   0.531  -0.060   8.341  2.2033  3.0320  0.3620
  184SLPC   C3721180   0.671  -0.224   8.391 -0.0670 -0.1540  0.1381
  184SLPC   H7X21181   0.734  -0.253   8.478  0.2182 -2.5563 -0.8000
  184SLPC   H7Y21182   0.735  -0.202   8.303  0.3405 -0.0721  0.4516
  184SLPC   C3821183   0.580  -0.343   8.348  0.2231 -0.3490 -0.5229
  184SLPC   H8X21184   0.507  -0.315   8.269 -1.2776  2.3969  1.6306
  184SLPC   H8Y21185   0.518  -0.378   8.434  2.4837  0.5385  1.5854
  184SLPC   C3921186   0.663  -0.461   8.296 -0.1326  0.1591 -0.2652
  184SLPC   H9X21187   0.737  -0.502   8.369  0.5355 -2.8328 -2.4257
  184SLPC   H9Y21188   0.724  -0.424   8.211 -0.6354  0.7534 -0.3712
  184SLPC  C31021189   0.576  -0.579   8.241  0.0117 -0.3512  0.1319
  184SLPC  H10X21190   0.515  -0.550   8.153 -0.4103  0.7517  0.7671
  184SLPC  H10Y21191   0.513  -0.605   8.329 -0.8349  0.8613 -0.0827
  184SLPC  C31121192   0.658  -0.702   8.196 -0.6886  0.1101  0.5234
  184SLPC  H11X21193   0.588  -0.773   8.148 -4.0561  2.4585  1.6175
  184SLPC  H11Y21194   0.696  -0.750   8.289 -0.1092  2.4348  1.5702
  184SLPC  C31221195   0.777  -0.675   8.107  0.4401 -0.7186  0.8778
  184SLPC  H12X21196   0.848  -0.597   8.141  0.7183 -0.1632 -0.8966
  184SLPC  H12Y21197   0.730  -0.640   8.012  0.0225 -1.6777  0.7242
  184SLPC  C31321198   0.850  -0.802   8.067 -0.2436 -0.1935 -0.1499
  184SLPC  H13X21199   0.766  -0.871   8.041 -1.0551  1.0540 -0.9998
  184SLPC  H13Y21200   0.902  -0.842   8.156  0.5972  0.5672 -0.2983
  184SLPC  C31421201   0.947  -0.781   7.953 -0.4508 -0.0854 -0.1872
  184SLPC  H14X21202   0.895  -0.727   7.872  0.9351  0.2264 -0.8908
  184SLPC  H14Y21203   0.977  -0.883   7.920  0.5473  0.7008 -1.8133
  184SLPC  C31521204   1.074  -0.701   7.990  0.1785  1.4065 -0.5381
  184SLPC  H15X21205   1.100  -0.730   8.094 -3.6358  1.9813  0.7402
  184SLPC  H15Y21206   1.045  -0.594   7.986 -1.5775  1.0919  1.7605
  184SLPC  C31621207   1.186  -0.738   7.892  0.4764 -0.4312 -0.1370
  184SLPC  H16X21208   1.155  -0.726   7.786  0.3909  0.6320 -0.0029
  184SLPC  H16Y21209   1.221  -0.841   7.915  1.4474 -0.0212  0.2853
  184SLPC  C31721210   1.305  -0.634   7.917  0.7996  0.6157  0.4007
  184SLPC  H17X21211   1.353  -0.657   8.015 -0.6644 -0.1886  0.9616
  184SLPC  H17Y21212   1.245  -0.544   7.942  0.0070  0.0105  0.7257
  184SLPC  C31821213   1.406  -0.626   7.805 -0.2048 -0.5242 -0.2652
  184SLPC  H18X21214   1.364  -0.582   7.712  1.8209 -1.2567 -1.5900
  184SLPC  H18Y21215   1.442  -0.727   7.778  1.0954  0.2428 -1.5127
  184SLPC  H18Z21216   1.489  -0.557   7.831 -0.2957 -1.3436  2.5543
  185SLPC     N21217   3.456   2.929   5.910  0.1128  0.4890  0.4188
  185SLPC   C1321218   3.593   2.939   5.861 -0.6094  0.1670 -0.1903
  185SLPC  H13A21219   3.658   2.903   5.939  0.4589 -0.6001 -1.3783
  185SLPC  H13B21220   3.600   2.885   5.767 -0.4502  2.6869 -1.7244
  185SLPC  H13C21221   3.622   3.041   5.837 -0.9106  0.6046  1.2437
  185SLPC   C1421222   3.359   2.956   5.795  0.2100 -0.7187  0.1024
  185SLPC  H14A21223   3.353   2.880   5.718  1.3591 -0.6533 -0.0765
  185SLPC  H14B21224   3.265   2.995   5.829 -0.2193 -0.0903 -1.6968
  185SLPC  H14C21225   3.388   3.043   5.737 -1.0795  0.9154  1.8091
  185SLPC   C1521226   3.435   3.028   6.019 -0.0772  0.2750  0.2979
  185SLPC  H15A21227   3.346   2.998   6.073  0.0283 -1.3563 -0.3777
  185SLPC  H15B21228   3.520   3.030   6.085  1.1014  0.0998 -1.1571
  185SLPC  H15C21229   3.414   3.123   5.971  0.2310  0.6536  0.9113
  185SLPC   C1221230   3.422   2.795   5.977  0.5435 -1.0654 -0.1548
  185SLPC  H12A21231   3.419   2.718   5.902 -1.5091 -0.2313 -1.0091
  185SLPC  H12B21232   3.321   2.801   6.015  0.7194 -0.0286  0.1788
  185SLPC   C1121233   3.504   2.741   6.093  0.4121 -0.3808 -0.6206
  185SLPC  H11A21234   3.456   2.657   6.147  1.7289 -1.0612 -0.4838
  185SLPC  H11B21235   3.511   2.828   6.162 -1.6998 -0.9861  0.4525
  185SLPC     P21236   3.641   2.558   5.980 -0.1522 -0.0730  0.1496
  185SLPC   O1321237   3.512   2.529   5.913 -0.0194  0.7278  0.0215
  185SLPC   O1421238   3.768   2.553   5.899  0.4962 -0.1193 -0.1449
  185SLPC   O1221239   3.631   2.696   6.049  0.1327  0.3414 -0.1618
  185SLPC   O1121240   3.660   2.456   6.097 -0.4486  0.8298 -0.2739
  185SLPC    C121241   3.750   2.493   6.207 -0.3579 -0.4339  0.8718
  185SLPC    HA21242   3.833   2.555   6.168 -1.0412 -1.6881 -3.0776
  185SLPC    HB21243   3.692   2.555   6.279 -2.7062  0.0521 -1.2922
  185SLPC    C221244   3.820   2.365   6.273  0.0982 -0.0649  0.0102
  185SLPC    HS21245   3.890   2.319   6.199  0.4507 -1.2932  1.0557
  185SLPC   O2121246   3.715   2.275   6.322 -0.1256  1.0949  0.2752
  185SLPC   C2121247   3.750   2.146   6.337 -0.4514  0.5479  0.2029
  185SLPC   O2221248   3.864   2.104   6.322 -0.0805  0.5097 -0.0886
  185SLPC   C2221249   3.624   2.057   6.361  0.4512 -0.5660  0.1725
  185SLPC   H2R21250   3.539   2.125   6.339  2.9867  2.5007 -0.9258
  185SLPC   H2S21251   3.615   1.979   6.282  0.1264 -0.1200 -0.2417
  185SLPC    C321252   3.914   2.416   6.388  0.0875 -0.1465 -0.1612
  185SLPC    HX21253   3.977   2.494   6.341  1.3218 -2.1228 -1.9622
  185SLPC    HY21254   3.975   2.330   6.422  0.4574 -0.0985 -0.7023
  185SLPC   O3121255   3.849   2.466   6.498 -0.0850  0.0542  0.2232
  185SLPC   C3121256   3.810   2.388   6.599 -0.3254  0.4351 -0.4293
  185SLPC   O3221257   3.844   2.276   6.613 -0.0041  0.0288  0.2692
  185SLPC   C3221258   3.719   2.471   6.689 -0.0293 -0.2804  0.3416
  185SLPC   H2X21259   3.637   2.512   6.626  0.0149  0.0383  0.4905
  185SLPC   H2Y21260   3.779   2.553   6.733  0.2126 -0.0386 -0.4125
  185SLPC   C2321261   3.607   2.014   6.503 -0.3386  0.7657  0.0765
  185SLPC   H3R21262   3.511   1.957   6.506  0.3840 -0.4533  1.7600
  185SLPC   H3S21263   3.602   2.093   6.581  1.0997 -0.4417  1.4571
  185SLPC   C2421264   3.723   1.927   6.548  0.0243 -0.7923  0.8521
  185SLPC   H4R21265   3.811   1.994   6.539  0.5119 -1.5525 -0.2398
  185SLPC   H4S21266   3.729   1.856   6.463  0.5176  0.9868 -0.6721
  185SLPC   C2521267   3.704   1.865   6.683 -0.0673 -0.1297 -0.5135
  185SLPC   H5R21268   3.777   1.782   6.695  2.0145  1.8364  1.3648
  185SLPC   H5S21269   3.599   1.831   6.695  0.8652 -2.7438  1.0276
  185SLPC   C2621270   3.725   1.969   6.790 -0.0989  0.2923 -0.3024
  185SLPC   H6R21271   3.649   2.050   6.776 -1.3890 -1.0378 -1.2239
  185SLPC   H6S21272   3.829   2.006   6.780 -0.3012  1.0053  0.1148
  185SLPC   C2721273   3.707   1.922   6.934 -0.2077 -0.4977 -0.2233
  185SLPC   H7R21274   3.603   1.893   6.960 -1.0183  2.2870 -0.0212
  185SLPC   H7S21275   3.723   2.014   6.994  0.1701  0.7516 -2.1305
  185SLPC   C2821276   3.813   1.815   6.974  0.2931 -0.0774 -0.1077
  185SLPC   H8R21277   3.893   1.819   6.898  1.7892 -3.2425  1.1139
  185SLPC   H8S21278   3.763   1.717   6.965 -0.0747 -0.1324  2.0120
  185SLPC   C2921279   3.881   1.826   7.105 -0.8835  0.5734 -0.3643
  185SLPC   H9R21280   3.986   1.853   7.090 -1.0440  0.8799 -0.9562
  185SLPC  C21021281   3.841   1.795   7.234 -0.7222  0.3380 -0.0247
  185SLPC  H10R21282   3.912   1.808   7.316 -0.8113 -1.5937  0.3994
  185SLPC  C21121283   3.709   1.738   7.273  0.4952  0.0644  0.8898
  185SLPC  H11R21284   3.735   1.634   7.299  2.7379  0.4425  0.3664
  185SLPC  H11S21285   3.639   1.728   7.188 -1.5582 -1.9206  2.6847
  185SLPC  C21221286   3.642   1.797   7.396  0.2956  0.2985 -0.0575
  185SLPC  H12R21287   3.636   1.907   7.402  1.1777  0.3423  0.1195
  185SLPC  C21321288   3.605   1.733   7.504 -0.2369  0.0021  0.0720
  185SLPC  H13R21289   3.547   1.776   7.586  1.8949  0.6957  1.2983
  185SLPC  C21421290   3.614   1.585   7.544  0.7863  0.4643  0.5492
  185SLPC  H14R21291   3.685   1.527   7.482 -2.2620 -2.4594 -0.5024
  185SLPC  H14S21292   3.519   1.528   7.539  1.1078  0.0301 -2.1621
  185SLPC  C21521293   3.664   1.566   7.688  0.0865  1.4177  0.2505
  185SLPC  H15R21294   3.762   1.616   7.702  0.1409  1.1401  0.8821
  185SLPC  H15S21295   3.684   1.459   7.706  0.7562  1.6741  1.1341
  185SLPC  C21621296   3.576   1.616   7.800  0.6849 -0.1651 -0.3125
  185SLPC  H16R21297   3.472   1.594   7.769  0.2071  0.1359  1.0031
  185SLPC  H16S21298   3.591   1.726   7.799  0.1919 -0.0904 -2.0798
  185SLPC  C21721299   3.597   1.552   7.944  0.7206 -1.2787  0.8144
  185SLPC  H17R21300   3.692   1.601   7.974  0.0717  1.5650 -1.3690
  185SLPC  H17S21301   3.613   1.442   7.941  2.5023 -1.0601  0.9807
  185SLPC  C21821302   3.499   1.594   8.057 -1.1013 -0.4074 -0.1575
  185SLPC  H18R21303   3.404   1.538   8.070 -1.0249 -0.6511 -0.6650
  185SLPC  H18S21304   3.476   1.703   8.051  0.0451 -0.0481  1.2390
  185SLPC  H18T21305   3.553   1.580   8.153  0.5362 -1.3149 -1.1661
  185SLPC   C3321306   3.672   2.398   6.813 -0.4911  0.1830  0.3889
  185SLPC   H3X21307   3.627   2.302   6.779 -0.7280  0.5198 -0.2501
  185SLPC   H3Y21308   3.593   2.457   6.864 -0.0733  0.1040  1.1390
  185SLPC   C3421309   3.776   2.347   6.912 -0.5019 -0.1237  0.2284
  185SLPC   H4X21310   3.841   2.431   6.941  0.1536 -0.0142 -1.4679
  185SLPC   H4Y21311   3.832   2.269   6.857 -0.5957  0.1138 -0.2078
  185SLPC   C3521312   3.705   2.298   7.033 -0.4188  0.7271  0.5061
  185SLPC   H5X21313   3.647   2.204   7.022  0.6129  0.1646 -0.1642
  185SLPC   H5Y21314   3.637   2.372   7.082 -3.0751 -2.1187  1.4499
  185SLPC   C3621315   3.803   2.250   7.147  0.2093 -0.5226  0.7184
  185SLPC   H6X21316   3.861   2.340   7.179  0.6378  0.4284 -2.3254
  185SLPC   H6Y21317   3.875   2.186   7.093  1.5918  1.1942  0.4321
  185SLPC   C3721318   3.732   2.178   7.260  0.5761 -0.1788 -0.4772
  185SLPC   H7X21319   3.808   2.141   7.332  2.2023  3.0875 -0.3146
  185SLPC   H7Y21320   3.670   2.099   7.213 -1.2678  1.8108 -1.5770
  185SLPC   C3821321   3.633   2.259   7.337 -0.1007  0.1388 -0.2575
  185SLPC   H8X21322   3.555   2.307   7.275 -0.5432  1.0492  0.9834
  185SLPC   H8Y21323   3.684   2.340   7.393 -0.7551 -0.7522  1.6985
  185SLPC   C3921324   3.558   2.171   7.444 -0.9197  0.5208 -0.6115
  185SLPC   H9X21325   3.639   2.116   7.498 -1.5765  2.1878  2.3302
  185SLPC   H9Y21326   3.499   2.104   7.379 -1.0407  0.7428 -0.7338
  185SLPC  C31021327   3.470   2.244   7.547  0.9469  0.1936 -0.3611
  185SLPC  H10X21328   3.409   2.313   7.485 -0.4581 -2.0893 -1.6137
  185SLPC  H10Y21329   3.533   2.295   7.623 -1.0816  1.2863  0.6591
  185SLPC  C31121330   3.383   2.147   7.624  1.2506 -0.1107  0.2767
  185SLPC  H11X21331   3.330   2.078   7.555  0.4088  0.0332  0.7696
  185SLPC  H11Y21332   3.313   2.209   7.684  0.0800 -0.9524 -0.1770
  185SLPC  C31221333   3.456   2.066   7.732  0.3184 -0.4271 -0.2221
  185SLPC  H12X21334   3.497   2.141   7.803  0.9324  0.7488 -1.7302
  185SLPC  H12Y21335   3.544   2.019   7.681  0.2540 -0.0181 -0.7224
  185SLPC  C31321336   3.369   1.964   7.819  0.3278  0.1941 -0.0035
  185SLPC  H13X21337   3.438   1.912   7.889 -0.5121  0.7224  1.2468
  185SLPC  H13Y21338   3.334   1.890   7.744 -1.4753  1.3791 -0.3965
  185SLPC  C31421339   3.258   2.026   7.909  0.0701  0.3428 -0.6161
  185SLPC  H14X21340   3.179   2.068   7.844  3.2279  4.9274 -1.9883
  185SLPC  H14Y21341   3.308   2.113   7.958 -0.6136 -1.1182  3.0198
  185SLPC  C31521342   3.209   1.929   8.011  0.4802  0.4082  0.0297
  185SLPC  H15X21343   3.158   1.990   8.088  1.7461  2.0495 -0.3938
  185SLPC  H15Y21344   3.301   1.885   8.055 -0.3525  0.1709  1.6163
  185SLPC  C31621345   3.116   1.821   7.954 -0.6990  1.2845  0.0631
  185SLPC  H16X21346   3.156   1.782   7.857 -0.8176  0.6388  0.2674
  185SLPC  H16Y21347   3.019   1.871   7.935 -1.4069  0.7341  1.9693
  185SLPC  C31721348   3.100   1.705   8.053  0.0350 -0.1499 -0.2861
  185SLPC  H17X21349   3.064   1.753   8.146  0.1138  1.7196 -1.1723
  185SLPC  H17Y21350   3.197   1.657   8.079  0.5400  0.0933 -1.6447
  185SLPC  C31821351   2.996   1.607   8.025 -0.3552 -0.0171 -0.4045
  185SLPC  H18X21352   3.009   1.554   7.928 -0.5459 -2.0306  0.6334
  185SLPC  H18Y21353   2.894   1.650   8.032  0.7516  3.0152 -1.1208
  185SLPC  H18Z21354   3.004   1.528   8.103 -0.3830  1.1499  0.8147
  186SLPC     N21355   3.427   5.120   5.583 -0.2175  0.8749  0.3276
  186SLPC   C1321356   3.568   5.069   5.620  0.7235  0.8291 -0.7457
  186SLPC  H13A21357   3.593   5.072   5.725 -0.9362 -0.9925 -0.2453
  186SLPC  H13B21358   3.588   4.974   5.573  0.4625  0.4729 -0.1441
  186SLPC  H13C21359   3.641   5.140   5.583  0.7417  0.5806 -1.2023
  186SLPC   C1421360   3.408   5.090   5.438 -0.4899 -0.3548 -0.0236
  186SLPC  H14A21361   3.423   4.984   5.422 -0.7135  0.0198 -3.5363
  186SLPC  H14B21362   3.314   5.120   5.394 -0.6214 -2.6822 -1.5399
  186SLPC  H14C21363   3.496   5.126   5.387  0.1688  1.1270  2.0709
  186SLPC   C1521364   3.432   5.267   5.593 -0.0146 -0.2416 -0.0108
  186SLPC  H15A21365   3.440   5.287   5.699 -3.5048 -2.8377  0.9317
  186SLPC  H15B21366   3.511   5.314   5.536 -0.6989  0.9231 -0.0216
  186SLPC  H15C21367   3.345   5.318   5.556  0.3428 -0.5320 -1.3189
  186SLPC   C1221368   3.316   5.059   5.664 -0.2940  0.5366 -0.2173
  186SLPC  H12A21369   3.314   4.951   5.657 -1.2883  0.6225 -1.4101
  186SLPC  H12B21370   3.224   5.089   5.617 -1.1361 -1.2326  0.2315
  186SLPC   C1121371   3.312   5.085   5.813 -0.0934 -0.7221 -0.2533
  186SLPC  H11A21372   3.411   5.053   5.852 -0.7780 -2.1549  0.3725
  186SLPC  H11B21373   3.249   5.014   5.869  0.9362 -0.7694  0.8848
  186SLPC     P21374   3.151   5.290   5.840  0.3391 -0.0911  0.0442
  186SLPC   O1321375   3.145   5.330   5.696 -0.6985 -0.4445 -0.1850
  186SLPC   O1421376   3.045   5.197   5.893 -0.5614  0.1262 -0.6571
  186SLPC   O1221377   3.285   5.217   5.861 -0.2985  0.5510 -0.5048
  186SLPC   O1121378   3.168   5.422   5.930 -0.2459  0.0863  0.2949
  186SLPC    C121379   3.161   5.409   6.071 -1.0392  0.0033  0.3761
  186SLPC    HA21380   3.229   5.331   6.111  1.5527  1.9018 -0.0201
  186SLPC    HB21381   3.208   5.503   6.108  0.2839 -0.0199 -1.1526
  186SLPC    C221382   3.013   5.405   6.123 -0.1301  0.1403  0.1829
  186SLPC    HS21383   2.954   5.344   6.052 -0.6624 -1.3591  1.8508
  186SLPC   O2121384   2.961   5.539   6.136  0.3957 -0.7474  0.3101
  186SLPC   C2121385   2.835   5.536   6.178  0.4224  0.0025  1.1488
  186SLPC   O2221386   2.758   5.442   6.162  0.2374  0.2596 -0.2506
  186SLPC   C2221387   2.776   5.669   6.221  0.3201 -0.8001 -0.0423
  186SLPC   H2R21388   2.810   5.750   6.153 -4.0553  0.5357 -0.9419
  186SLPC   H2S21389   2.669   5.661   6.192  0.5252  0.7471 -1.3895
  186SLPC    C321390   3.010   5.336   6.262 -0.9733 -0.1906 -0.8154
  186SLPC    HX21391   3.054   5.235   6.244 -0.3953 -0.2486  0.7862
  186SLPC    HY21392   2.902   5.317   6.284 -1.7147  2.6113 -1.6534
  186SLPC   O3121393   3.066   5.418   6.368  0.0850 -0.1735 -0.1496
  186SLPC   C3121394   3.179   5.371   6.417  0.6212 -0.4057 -0.2292
  186SLPC   O3221395   3.244   5.284   6.364  0.2746  0.4963  0.7507
  186SLPC   C3221396   3.222   5.444   6.547 -0.0197  0.0023  0.2809
  186SLPC   H2X21397   3.281   5.374   6.609 -1.3910 -1.1885  0.2768
  186SLPC   H2Y21398   3.136   5.463   6.614  0.4270 -0.8886  1.1256
  186SLPC   C2321399   2.794   5.704   6.370 -0.1430  0.1296 -0.0983
  186SLPC   H3R21400   2.761   5.806   6.398  0.8189  0.2003  0.8685
  186SLPC   H3S21401   2.901   5.696   6.399 -0.1398  1.7159  0.3865
  186SLPC   C2421402   2.715   5.601   6.462 -1.1006 -0.5846 -0.7817
  186SLPC   H4R21403   2.747   5.495   6.455 -0.0625 -0.4689  1.3401
  186SLPC   H4S21404   2.609   5.625   6.438 -0.2657  1.8748 -2.3632
  186SLPC   C2521405   2.754   5.635   6.611  0.6047 -0.2842 -0.7510
  186SLPC   H5R21406   2.671   5.622   6.683  3.6312 -0.9133  2.9207
  186SLPC   H5S21407   2.784   5.742   6.606  0.3799 -0.1185  0.8940
  186SLPC   C2621408   2.870   5.544   6.655  0.0396  0.5578 -0.4345
  186SLPC   H6R21409   2.946   5.538   6.574  0.3657  0.8867 -0.1578
  186SLPC   H6S21410   2.823   5.444   6.667 -1.8984  1.3000 -1.4222
  186SLPC   C2721411   2.946   5.583   6.784 -0.0450 -0.5936 -0.6600
  186SLPC   H7R21412   3.023   5.659   6.763 -0.2833  0.3430  1.5697
  186SLPC   H7S21413   3.005   5.495   6.819 -1.0931 -2.0669 -2.3850
  186SLPC   C2821414   2.859   5.639   6.896  0.2424  0.1656  0.5250
  186SLPC   H8R21415   2.800   5.731   6.875 -1.0009  0.0001  2.8943
  186SLPC   H8S21416   2.931   5.666   6.977  1.6361  0.5494 -0.7839
  186SLPC   C2921417   2.780   5.528   6.951  0.6364 -0.4607  0.1093
  186SLPC   H9R21418   2.690   5.510   6.890  1.2220 -0.7984 -0.6724
  186SLPC  C21021419   2.822   5.441   7.042 -0.5523 -0.0374 -0.4584
  186SLPC  H10R21420   2.749   5.362   7.066 -1.0997 -0.1770 -2.3568
  186SLPC  C21121421   2.957   5.433   7.106 -0.0894 -0.0937  0.1435
  186SLPC  H11R21422   2.968   5.519   7.176 -0.6245  1.5176 -1.6883
  186SLPC  H11S21423   3.042   5.437   7.034 -0.8040  0.3929 -0.6891
  186SLPC  C21221424   2.989   5.309   7.187  0.3786 -0.4137 -0.0506
  186SLPC  H12R21425   2.961   5.216   7.135  3.3589 -1.4926  0.0819
  186SLPC  C21321426   3.028   5.310   7.318 -0.0390 -0.3148  0.8695
  186SLPC  H13R21427   3.010   5.223   7.382  0.5985 -1.2014 -0.1044
  186SLPC  C21421428   3.062   5.431   7.392  0.1062  0.2960  0.1828
  186SLPC  H14R21429   2.972   5.464   7.447  0.3871 -0.0349  0.8494
  186SLPC  H14S21430   3.090   5.519   7.330  0.1931  0.4720  0.4692
  186SLPC  C21521431   3.168   5.407   7.506 -0.0646 -0.4919  0.1404
  186SLPC  H15R21432   3.184   5.508   7.550 -2.9582  0.7140 -1.2595
  186SLPC  H15S21433   3.257   5.378   7.447 -0.9511  0.1655 -1.6031
  186SLPC  C21621434   3.134   5.295   7.607  0.4430 -0.7497  0.0491
  186SLPC  H16R21435   3.110   5.204   7.548  0.5212 -0.8220  0.1306
  186SLPC  H16S21436   3.056   5.338   7.674 -1.6262  1.6731 -3.5844
  186SLPC  C21721437   3.256   5.263   7.696  0.6082  0.5877 -0.5577
  186SLPC  H17R21438   3.206   5.202   7.774 -0.9951  1.4497 -0.8534
  186SLPC  H17S21439   3.309   5.346   7.747 -0.2151 -0.5628  2.3863
  186SLPC  C21821440   3.365   5.183   7.621  0.5926  0.7700  0.4806
  186SLPC  H18R21441   3.425   5.128   7.697 -1.6091  0.5019  2.1496
  186SLPC  H18S21442   3.432   5.251   7.565 -0.3201  1.1669 -0.1545
  186SLPC  H18T21443   3.309   5.113   7.555 -2.9787  2.2164  1.7050
  186SLPC   C3321444   3.310   5.570   6.523  0.8218  0.0549  0.1321
  186SLPC   H3X21445   3.262   5.632   6.444  1.5997  2.1570  1.2278
  186SLPC   H3Y21446   3.408   5.542   6.480  0.2858 -1.8782  0.0592
  186SLPC   C3421447   3.333   5.665   6.655  0.1125  0.1143  0.3064
  186SLPC   H4X21448   3.240   5.725   6.664 -0.2734 -0.4423  0.0836
  186SLPC   H4Y21449   3.424   5.724   6.630  0.7168 -0.4769  1.0791
  186SLPC   C3521450   3.362   5.584   6.775 -0.0463  0.1227 -0.6908
  186SLPC   H5X21451   3.443   5.511   6.755 -0.1840 -1.6737  4.0051
  186SLPC   H5Y21452   3.284   5.513   6.811  0.3616 -0.0139 -0.0584
  186SLPC   C3621453   3.391   5.674   6.898 -0.3867  0.0546  0.6118
  186SLPC   H6X21454   3.303   5.741   6.901  0.0768  0.7482 -0.6916
  186SLPC   H6Y21455   3.478   5.740   6.883 -1.4650  0.9533 -2.1850
  186SLPC   C3721456   3.417   5.588   7.025 -0.1685  0.1280 -0.6453
  186SLPC   H7X21457   3.516   5.542   7.005 -0.4745 -1.2808  0.9515
  186SLPC   H7Y21458   3.344   5.505   7.021  2.0071 -1.8405 -2.0829
  186SLPC   C3821459   3.414   5.674   7.158  0.3785  0.0783  0.3783
  186SLPC   H8X21460   3.310   5.707   7.183  1.1668  2.9145  0.2853
  186SLPC   H8Y21461   3.470   5.769   7.143  0.1030  0.0343 -1.0601
  186SLPC   C3921462   3.476   5.597   7.281  0.6095 -0.3266  0.2121
  186SLPC   H9X21463   3.587   5.596   7.269  0.5822  1.4135 -0.5944
  186SLPC   H9Y21464   3.439   5.493   7.290  0.1233  0.0459  3.6157
  186SLPC  C31021465   3.450   5.670   7.413 -0.5402 -0.0830  0.6157
  186SLPC  H10X21466   3.343   5.673   7.443 -0.0928 -0.3883  2.3755
  186SLPC  H10Y21467   3.474   5.778   7.401  1.1375 -0.1326  2.8497
  186SLPC  C31121468   3.539   5.629   7.531  0.5965 -0.0734 -0.0859
  186SLPC  H11X21469   3.627   5.696   7.532 -0.3401  1.1988 -0.1864
  186SLPC  H11Y21470   3.569   5.522   7.527  1.0465 -0.0260  1.5746
  186SLPC  C31221471   3.460   5.651   7.658  0.0418 -0.2012  0.1157
  186SLPC  H12X21472   3.376   5.578   7.656 -1.3744  1.3229  0.9715
  186SLPC  H12Y21473   3.417   5.754   7.660 -0.7730 -0.5153  2.3813
  186SLPC  C31321474   3.537   5.626   7.793 -0.0022 -0.1212  0.2829
  186SLPC  H13X21475   3.626   5.689   7.810  1.9309 -2.9782  1.4010
  186SLPC  H13Y21476   3.565   5.520   7.809 -2.3401 -0.6232  1.5631
  186SLPC  C31421477   3.445   5.643   7.919  0.8072 -0.1494 -0.7299
  186SLPC  H14X21478   3.399   5.744   7.915 -3.9496 -2.1100 -2.4602
  186SLPC  H14Y21479   3.508   5.630   8.010  0.6470 -1.8242 -0.8332
  186SLPC  C31521480   3.327   5.547   7.926  0.7250  0.1430  0.3490
  186SLPC  H15X21481   3.368   5.444   7.925 -0.3167 -0.3515 -2.3952
  186SLPC  H15Y21482   3.275   5.561   7.828 -0.5697  2.1306  1.2571
  186SLPC  C31621483   3.235   5.582   8.049  0.6301  0.5561 -0.3030
  186SLPC  H16X21484   3.222   5.692   8.042  0.5396  0.4457 -2.5581
  186SLPC  H16Y21485   3.302   5.568   8.137  0.3624 -0.5295 -0.2614
  186SLPC  C31721486   3.099   5.517   8.072  0.4967 -0.5207 -1.3263
  186SLPC  H17X21487   3.112   5.407   8.072  2.8578 -0.3289 -2.7709
  186SLPC  H17Y21488   3.041   5.536   7.980  0.8271  1.8033 -1.1275
  186SLPC  C31821489   3.027   5.564   8.204  0.2967 -0.4838 -0.1717
  186SLPC  H18X21490   3.017   5.675   8.209  0.1497 -0.5433  1.2315
  186SLPC  H18Y21491   3.084   5.535   8.294  1.2441 -1.0254 -0.9201
  186SLPC  H18Z21492   2.930   5.511   8.206  1.5489 -3.0667 -1.8618
  187SLPC     N21493   3.849   1.217   5.762 -0.6933  0.3301  0.2104
  187SLPC   C1321494   3.793   1.333   5.687 -0.0120 -0.0418 -0.2420
  187SLPC  H13A21495   3.877   1.385   5.643  0.7177 -1.0071 -0.0228
  187SLPC  H13B21496   3.726   1.294   5.611  2.2197  1.3459 -3.0961
  187SLPC  H13C21497   3.743   1.396   5.759  1.2631  0.7096  0.0246
  187SLPC   C1421498   3.976   1.262   5.831 -0.6506  0.4533  0.8988
  187SLPC  H14A21499   3.959   1.351   5.890 -0.3415  1.1281 -0.0115
  187SLPC  H14B21500   4.019   1.185   5.892  0.4094 -1.2629 -1.8245
  187SLPC  H14C21501   4.050   1.299   5.761 -0.8325  0.2449  0.5959
  187SLPC   C1521502   3.889   1.107   5.670  0.3266 -0.9201  0.3033
  187SLPC  H15A21503   3.954   1.150   5.595 -1.9007  3.4347  0.5301
  187SLPC  H15B21504   3.932   1.019   5.714  1.1446 -1.2358 -1.0706
  187SLPC  H15C21505   3.795   1.079   5.624  0.5050  1.5265 -1.7923
  187SLPC   C1221506   3.742   1.169   5.863  0.2945 -0.6996  0.3174
  187SLPC  H12A21507   3.778   1.075   5.901  0.4603 -1.2494 -1.1115
  187SLPC  H12B21508   3.655   1.151   5.801  0.8199 -0.5223 -0.4853
  187SLPC   C1121509   3.699   1.266   5.975  0.5929 -0.2075 -1.1807
  187SLPC  H11A21510   3.795   1.305   6.015 -0.2100 -1.6170  2.4315
  187SLPC  H11B21511   3.653   1.219   6.064  0.4860 -1.8847 -2.0757
  187SLPC     P21512   3.457   1.367   5.925 -0.2426 -0.2617  0.2099
  187SLPC   O1321513   3.404   1.507   5.906 -0.4568  0.5152  0.7120
  187SLPC   O1421514   3.419   1.265   5.826  0.1025 -0.3941 -0.2053
  187SLPC   O1221515   3.616   1.370   5.921  0.1841 -0.2933 -0.8324
  187SLPC   O1121516   3.422   1.315   6.071 -0.1773  0.2169 -0.1623
  187SLPC    C121517   3.390   1.416   6.172 -0.1756 -0.5754  0.8791
  187SLPC    HA21518   3.308   1.487   6.147 -0.4444 -0.0990  2.9842
  187SLPC    HB21519   3.338   1.364   6.255 -2.0893  0.2883  0.2814
  187SLPC    C221520   3.523   1.482   6.231 -0.1117 -0.9274  0.2235
  187SLPC    HS21521   3.586   1.514   6.145 -2.1057  1.2030 -0.5525
  187SLPC   O2121522   3.590   1.392   6.322  0.2098  0.1989  0.1040
  187SLPC   C2121523   3.729   1.383   6.316  0.7528  0.3622 -0.3797
  187SLPC   O2221524   3.792   1.447   6.233  0.4115  0.1874 -0.1808
  187SLPC   C2221525   3.782   1.266   6.388 -0.1858 -0.2846 -0.5530
  187SLPC   H2R21526   3.704   1.237   6.462 -0.6278  0.5880 -0.6630
  187SLPC   H2S21527   3.780   1.182   6.315  0.7102 -1.6182  0.8755
  187SLPC    C321528   3.494   1.619   6.307  0.3026  0.2381 -0.0103
  187SLPC    HX21529   3.437   1.688   6.240  0.8443  1.5078  0.7994
  187SLPC    HY21530   3.597   1.659   6.320  0.3659  0.7443 -1.8214
  187SLPC   O3121531   3.426   1.614   6.434  0.0235  0.0815  0.6311
  187SLPC   C3121532   3.498   1.584   6.542 -0.2168  0.2030 -0.0020
  187SLPC   O3221533   3.618   1.579   6.543  0.0856 -0.2572 -0.0086
  187SLPC   C3221534   3.408   1.562   6.660 -0.5806 -0.3645 -1.1682
  187SLPC   H2X21535   3.319   1.501   6.633 -0.3960 -0.0198 -2.6448
  187SLPC   H2Y21536   3.372   1.663   6.689  0.5005  0.2442 -1.8746
  187SLPC   C2321537   3.926   1.283   6.451  0.5734 -0.0417 -0.6040
  187SLPC   H3R21538   3.985   1.341   6.378 -0.6469  1.3230 -0.5534
  187SLPC   H3S21539   3.989   1.191   6.455 -3.2946 -2.9398  0.9683
  187SLPC   C2421540   3.924   1.338   6.596  0.4675  0.2443 -0.0904
  187SLPC   H4R21541   3.872   1.435   6.606  1.2579  0.6455  0.2489
  187SLPC   H4S21542   4.029   1.359   6.626  0.7208  0.4426 -1.0710
  187SLPC   C2521543   3.880   1.228   6.698  0.5450 -0.6728  0.4143
  187SLPC   H5R21544   3.947   1.139   6.698 -0.1494 -1.2304 -0.8986
  187SLPC   H5S21545   3.775   1.195   6.683  0.6628 -0.7343 -0.3335
  187SLPC   C2621546   3.886   1.287   6.835  0.2101  0.1925  0.5638
  187SLPC   H6R21547   3.810   1.368   6.844 -0.5205 -0.3463 -0.5893
  187SLPC   H6S21548   3.978   1.339   6.868  0.1360 -1.7523  4.3562
  187SLPC   C2721549   3.869   1.178   6.942  0.4573  0.0879 -0.0215
  187SLPC   H7R21550   3.957   1.110   6.937  0.1330 -0.4812  1.5177
  187SLPC   H7S21551   3.785   1.118   6.901  2.6435 -3.1500 -0.1647
  187SLPC   C2821552   3.833   1.228   7.080 -0.4112 -0.0168 -0.7249
  187SLPC   H8R21553   3.804   1.145   7.147 -0.3122  0.7231  0.2624
  187SLPC   H8S21554   3.738   1.285   7.073 -0.6786  0.6473  4.3872
  187SLPC   C2921555   3.942   1.313   7.146 -0.1725 -0.2448 -0.1137
  187SLPC   H9R21556   4.006   1.365   7.074 -1.4202  0.4861 -0.7343
  187SLPC  C21021557   3.968   1.321   7.281  0.4063  0.0972  0.2850
  187SLPC  H10R21558   4.048   1.387   7.317  1.4891 -0.1250 -1.5613
  187SLPC  C21121559   3.893   1.251   7.389  0.2641  0.0796  0.3841
  187SLPC  H11R21560   3.850   1.155   7.353  0.4341  0.3193 -0.4690
  187SLPC  H11S21561   3.807   1.317   7.414 -0.3243 -0.4872 -0.1000
  187SLPC  C21221562   3.971   1.213   7.512 -0.0412 -0.2087 -0.1246
  187SLPC  H12R21563   4.000   1.107   7.519  0.3379 -0.0951  0.1042
  187SLPC  C21321564   4.017   1.299   7.608  0.1377  0.2194 -0.0680
  187SLPC  H13R21565   4.076   1.249   7.687 -1.3275  0.1698  1.0384
  187SLPC  C21421566   4.006   1.445   7.621  0.5870  0.1321  0.0667
  187SLPC  H14R21567   3.955   1.467   7.717  1.1795 -0.7829  0.6055
  187SLPC  H14S21568   3.943   1.483   7.538 -1.5120 -1.0178  1.0467
  187SLPC  C21521569   4.141   1.521   7.631 -0.5357 -1.0306  0.2301
  187SLPC  H15R21570   4.210   1.503   7.546 -0.1204 -0.9886  0.5554
  187SLPC  H15S21571   4.195   1.482   7.720  1.7566 -0.2599 -0.7662
  187SLPC  C21621572   4.122   1.673   7.655 -0.4119  0.1786  0.2204
  187SLPC  H16R21573   4.224   1.715   7.668 -0.3167  0.5585 -1.4819
  187SLPC  H16S21574   4.077   1.681   7.756  1.6290 -0.5442  1.2399
  187SLPC  C21721575   4.040   1.747   7.549  0.0499 -0.5378  0.0739
  187SLPC  H17R21576   3.933   1.725   7.569 -0.0943  1.0967  1.3557
  187SLPC  H17S21577   4.074   1.717   7.448  1.5288  0.5014  0.2178
  187SLPC  C21821578   4.070   1.898   7.550 -0.1802  0.0189 -0.5744
  187SLPC  H18R21579   4.036   1.947   7.644 -0.1357  0.2948 -0.7005
  187SLPC  H18S21580   4.027   1.947   7.460 -3.0075 -0.6270  0.3211
  187SLPC  H18T21581   4.179   1.917   7.537 -0.3385 -0.2003 -2.5069
  187SLPC   C3321582   3.501   1.520   6.782  0.3287  0.5370  0.1269
  187SLPC   H3X21583   3.577   1.598   6.804  1.8389 -1.2180  1.4192
  187SLPC   H3Y21584   3.548   1.427   6.745 -4.7586 -1.8328 -1.2722
  187SLPC   C3421585   3.414   1.492   6.904  0.5595  0.0364  0.8644
  187SLPC   H4X21586   3.329   1.426   6.877 -0.1221  1.0191  0.5467
  187SLPC   H4Y21587   3.356   1.584   6.928  0.7965 -0.0502  1.7946
  187SLPC   C3521588   3.491   1.440   7.036 -0.0374 -0.0555  0.7271
  187SLPC   H5X21589   3.570   1.513   7.064  0.7534 -1.5109  2.4196
  187SLPC   H5Y21590   3.545   1.345   7.019 -0.9076 -0.1782 -1.8709
  187SLPC   C3621591   3.394   1.433   7.155  0.0270  0.2822  0.0574
  187SLPC   H6X21592   3.324   1.353   7.122  0.3379  0.6360 -1.5060
  187SLPC   H6Y21593   3.335   1.525   7.174 -0.8207 -0.2096 -0.1209
  187SLPC   C3721594   3.455   1.393   7.291  0.7272  0.7651  0.5430
  187SLPC   H7X21595   3.542   1.455   7.322  1.1512  1.3586 -1.6740
  187SLPC   H7Y21596   3.369   1.415   7.358  0.9407  1.9462  0.4410
  187SLPC   C3821597   3.488   1.247   7.319  0.1158  0.0849 -0.0497
  187SLPC   H8X21598   3.571   1.209   7.256 -0.9898 -0.2856 -1.3368
  187SLPC   H8Y21599   3.406   1.180   7.284 -1.0645 -0.8004  3.8314
  187SLPC   C3921600   3.510   1.212   7.463  0.3497 -0.1773 -0.0018
  187SLPC   H9X21601   3.421   1.226   7.528  1.4031 -0.8074  1.6034
  187SLPC   H9Y21602   3.579   1.291   7.499  0.6198 -1.0469  1.4641
  187SLPC  C31021603   3.577   1.074   7.472 -0.0591 -1.0969  0.4178
  187SLPC  H10X21604   3.666   1.056   7.409  0.4567  0.6505  0.6027
  187SLPC  H10Y21605   3.503   1.008   7.422  0.8714 -2.5631  0.9277
  187SLPC  C31121606   3.597   1.031   7.621  0.6802  0.1777 -0.0309
  187SLPC  H11X21607   3.502   1.035   7.677 -0.7832  0.1944 -2.3697
  187SLPC  H11Y21608   3.667   1.102   7.669 -0.3533  0.7671  0.6213
  187SLPC  C31221609   3.648   0.888   7.644  0.7755  0.0314  0.1202
  187SLPC  H12X21610   3.587   0.826   7.574 -0.2786  2.6236 -1.4128
  187SLPC  H12Y21611   3.631   0.865   7.751  1.2548  1.9657  0.6370
  187SLPC  C31321612   3.793   0.875   7.614  0.0333 -0.3206  0.0477
  187SLPC  H13X21613   3.845   0.941   7.687  0.4417 -0.2391 -0.3082
  187SLPC  H13Y21614   3.823   0.905   7.511  0.7622  1.2247  0.6766
  187SLPC  C31421615   3.839   0.730   7.644  0.0093  0.6841  0.2341
  187SLPC  H14X21616   3.787   0.656   7.579  2.0660 -1.5995  1.0483
  187SLPC  H14Y21617   3.825   0.694   7.748  1.2299  1.3610  0.6571
  187SLPC  C31521618   3.995   0.714   7.612 -0.2456 -0.2678 -0.0945
  187SLPC  H15X21619   4.043   0.779   7.688 -0.2719 -0.2144 -0.1238
  187SLPC  H15Y21620   4.026   0.743   7.509 -0.8976  1.3769  0.1483
  187SLPC  C31621621   4.039   0.573   7.634  0.4947  1.1062 -0.1623
  187SLPC  H16X21622   3.984   0.524   7.717 -0.3403  1.1865 -0.6587
  187SLPC  H16Y21623   4.146   0.576   7.663  0.2854 -2.1609  1.4539
  187SLPC  C31721624   4.026   0.488   7.511  0.4934  0.3103  0.4870
  187SLPC  H17X21625   4.062   0.549   7.426 -0.1086  1.1496  0.8284
  187SLPC  H17Y21626   3.918   0.468   7.493  0.6549 -0.9549  0.7924
  187SLPC  C31821627   4.096   0.352   7.522 -0.6448  0.0744 -0.6758
  187SLPC  H18X21628   4.070   0.307   7.620  0.4590  0.4039 -0.2168
  187SLPC  H18Y21629   4.207   0.357   7.518 -0.5439 -2.1059 -2.3165
  187SLPC  H18Z21630   4.073   0.293   7.431 -0.5330  0.3367 -0.8770
  188SLPC     N21631   5.982   3.244   5.856  0.2491 -0.4723  0.0168
  188SLPC   C1321632   5.841   3.250   5.895  0.2839 -0.3759 -0.6894
  188SLPC  H13A21633   5.836   3.177   5.974 -0.4862  0.1543 -0.2311
  188SLPC  H13B21634   5.803   3.342   5.937 -0.0787 -1.3775  1.2882
  188SLPC  H13C21635   5.775   3.218   5.816 -0.0136 -2.6584  0.4162
  188SLPC   C1421636   6.064   3.269   5.982 -0.4793 -0.4478 -0.4179
  188SLPC  H14A21637   6.172   3.264   5.977 -0.3071  0.6901  1.1972
  188SLPC  H14B21638   6.038   3.361   6.034 -0.6948 -2.1708  2.8052
  188SLPC  H14C21639   6.047   3.199   6.063  1.6737  0.7277  1.1553
  188SLPC   C1521640   6.006   3.351   5.752 -0.2198 -0.1351  0.0224
  188SLPC  H15A21641   5.948   3.349   5.661 -0.4695  1.0119  0.1405
  188SLPC  H15B21642   5.994   3.448   5.799 -0.6187 -0.5464  0.7980
  188SLPC  H15C21643   6.111   3.352   5.725 -0.6815 -1.4240 -2.0582
  188SLPC   C1221644   6.008   3.104   5.790 -0.3639 -0.5332 -0.0450
  188SLPC  H12A21645   5.967   3.030   5.857 -0.3961  1.1253  1.8610
  188SLPC  H12B21646   6.114   3.088   5.784  0.0919  0.9947  2.3114
  188SLPC   C1121647   5.943   3.071   5.651  0.4120  0.6634  0.5433
  188SLPC  H11A21648   5.975   2.977   5.601 -0.3661  0.9602 -0.5399
  188SLPC  H11B21649   5.983   3.146   5.580  0.0575 -1.4238 -2.0173
  188SLPC     P21650   5.728   2.942   5.705  0.1950 -0.6163 -0.2991
  188SLPC   O1321651   5.606   2.988   5.773  0.6114  0.5664 -0.2411
  188SLPC   O1421652   5.711   2.861   5.586 -0.2737  0.0414  0.3109
  188SLPC   O1221653   5.801   3.077   5.672 -0.2597 -0.8369 -0.3594
  188SLPC   O1121654   5.831   2.880   5.813 -0.1516 -0.0817  0.2941
  188SLPC    C121655   5.803   2.793   5.921  0.2999 -1.1968 -0.3575
  188SLPC    HA21656   5.699   2.755   5.911 -0.0079 -0.7532  0.9658
  188SLPC    HB21657   5.864   2.700   5.921  0.2091 -1.5283  4.4298
  188SLPC    C221658   5.819   2.871   6.059  0.0503  0.2875 -0.0480
  188SLPC    HS21659   5.789   2.793   6.133  0.3127 -1.1278 -1.3754
  188SLPC   O2121660   5.742   2.987   6.078 -0.6396  0.3617  0.6275
  188SLPC   C2121661   5.605   2.966   6.086 -0.5028 -0.8288  0.2190
  188SLPC   O2221662   5.548   2.861   6.079 -0.2371  0.3898  0.9974
  188SLPC   C2221663   5.527   3.098   6.108 -0.7796  0.2135  0.2358
  188SLPC   H2R21664   5.537   3.147   6.009  0.3420  2.1442  1.2370
  188SLPC   H2S21665   5.420   3.075   6.127 -1.4012  1.5544 -1.4662
  188SLPC    C321666   5.972   2.909   6.087 -0.0736 -0.4300  0.2940
  188SLPC    HX21667   6.006   3.004   6.041  1.8526 -0.4107  1.6057
  188SLPC    HY21668   6.023   2.823   6.037  0.0963 -1.8825  2.7847
  188SLPC   O3121669   6.006   2.897   6.223 -0.1749  0.1906  0.2523
  188SLPC   C3121670   6.017   3.014   6.290 -0.2266  0.3750  0.1058
  188SLPC   O3221671   5.996   3.124   6.242  0.3828  0.1313 -0.5296
  188SLPC   C3221672   6.076   2.981   6.421 -0.7612 -0.9326  0.1412
  188SLPC   H2X21673   6.186   2.994   6.413 -0.8800  1.6413  1.5098
  188SLPC   H2Y21674   6.054   2.877   6.454 -1.0409 -0.7602  0.5086
  188SLPC   C2321675   5.597   3.189   6.209 -0.4823  0.0673  0.3366
  188SLPC   H3R21676   5.570   3.293   6.179  2.2228  0.8012  0.1815
  188SLPC   H3S21677   5.707   3.181   6.194 -0.5879  1.2482 -1.3961
  188SLPC   C2421678   5.558   3.151   6.342 -0.6978 -0.3931 -0.9485
  188SLPC   H4R21679   5.582   3.046   6.370  1.4829  0.4189  0.5424
  188SLPC   H4S21680   5.448   3.162   6.345 -0.7218 -0.8472  0.5027
  188SLPC   C2521681   5.606   3.253   6.447  0.0340 -0.1674  0.3357
  188SLPC   H5R21682   5.544   3.345   6.448  0.5179  0.1812 -0.6923
  188SLPC   H5S21683   5.712   3.280   6.426  0.7758 -2.0705  1.4119
  188SLPC   C2621684   5.600   3.207   6.588  0.4796 -0.2028  0.0648
  188SLPC   H6R21685   5.688   3.244   6.645 -0.0752 -0.3085  1.0066
  188SLPC   H6S21686   5.609   3.097   6.599 -0.4586 -0.2177  0.8620
  188SLPC   C2721687   5.476   3.268   6.657  0.9155 -0.3323  0.3905
  188SLPC   H7R21688   5.391   3.228   6.598  0.3270  0.2388  0.8256
  188SLPC   H7S21689   5.468   3.378   6.646 -2.4521 -0.7864 -4.4082
  188SLPC   C2821690   5.463   3.215   6.800  0.1135  0.1720  0.0670
  188SLPC   H8R21691   5.566   3.235   6.838  0.0209 -0.9737  0.9801
  188SLPC   H8S21692   5.452   3.106   6.815  0.4065  0.3657  1.9388
  188SLPC   C2921693   5.364   3.291   6.888 -0.0094  0.6201  0.2079
  188SLPC   H9R21694   5.292   3.362   6.844  0.0387  1.6425  1.6859
  188SLPC  C21021695   5.365   3.292   7.021 -0.1510 -0.2101 -0.0278
  188SLPC  H10R21696   5.300   3.363   7.075 -2.7222 -1.2443 -1.6142
  188SLPC  C21121697   5.468   3.208   7.102 -0.3900  0.6127 -0.2376
  188SLPC  H11R21698   5.516   3.256   7.190  0.3144 -1.9856  0.8919
  188SLPC  H11S21699   5.559   3.196   7.040  0.2456 -1.7047  1.0252
  188SLPC  C21221700   5.418   3.069   7.132 -0.0474 -0.2869 -0.1462
  188SLPC  H12R21701   5.446   3.003   7.049 -1.2844  0.4059 -1.1435
  188SLPC  C21321702   5.381   3.020   7.250 -0.0726  0.0891  0.1115
  188SLPC  H13R21703   5.367   2.911   7.260  1.7016 -0.2352 -0.6644
  188SLPC  C21421704   5.368   3.088   7.378  0.3590 -1.1702 -0.5119
  188SLPC  H14R21705   5.355   3.198   7.378  3.6966 -0.6729 -1.6663
  188SLPC  H14S21706   5.467   3.080   7.428  1.2429  1.0518 -1.7879
  188SLPC  C21521707   5.262   3.047   7.491 -0.1946 -0.1985  0.3596
  188SLPC  H15R21708   5.302   3.100   7.580  0.0804  2.1775 -1.0926
  188SLPC  H15S21709   5.275   2.937   7.504  0.7022 -0.1739 -0.1966
  188SLPC  C21621710   5.113   3.103   7.481 -0.1068 -0.0916  0.5178
  188SLPC  H16R21711   5.063   3.040   7.405 -0.2639  0.0622  0.4945
  188SLPC  H16S21712   5.111   3.206   7.440 -1.1490 -0.5791 -0.6962
  188SLPC  C21721713   5.032   3.097   7.610  0.2239  0.4408 -0.4414
  188SLPC  H17R21714   4.922   3.105   7.594  0.1765  0.8214  0.0293
  188SLPC  H17S21715   5.066   3.179   7.677 -0.9568  2.2027 -1.9008
  188SLPC  C21821716   5.051   2.962   7.685 -0.1261  0.1124 -0.0184
  188SLPC  H18R21717   4.987   2.968   7.776 -0.9365  0.3411 -0.5862
  188SLPC  H18S21718   5.158   2.955   7.715  0.4312 -1.8014 -2.2268
  188SLPC  H18T21719   5.035   2.868   7.628 -0.4121  0.0706  0.1287
  188SLPC   C3321720   6.032   3.090   6.530 -0.4034  1.0525  0.5492
  188SLPC   H3X21721   5.922   3.081   6.544 -0.2197  0.5605  1.8346
  188SLPC   H3Y21722   6.059   3.191   6.493  1.0726  0.5712  0.2591
  188SLPC   C3421723   6.108   3.063   6.664  0.0666 -0.6750  0.3466
  188SLPC   H4X21724   6.216   3.068   6.639  0.0894  0.0843  0.5805
  188SLPC   H4Y21725   6.082   2.961   6.700  0.9407 -0.4531  1.6857
  188SLPC   C3521726   6.069   3.152   6.780  0.0401 -0.6899  0.7657
  188SLPC   H5X21727   6.067   3.256   6.740 -0.6619 -0.3289  1.7039
  188SLPC   H5Y21728   6.141   3.151   6.865 -2.1289 -2.2476  2.7075
  188SLPC   C3621729   5.931   3.128   6.829 -0.1044  0.2355 -0.0559
  188SLPC   H6X21730   5.910   3.019   6.830 -0.8734  0.3780 -0.2446
  188SLPC   H6Y21731   5.859   3.186   6.767 -2.0647 -1.9449  0.0276
  188SLPC   C3721732   5.907   3.172   6.972  0.8504 -0.1064  0.7673
  188SLPC   H7X21733   5.947   3.102   7.049  0.2819 -1.0083  0.2693
  188SLPC   H7Y21734   5.797   3.162   6.987  0.3066  1.1823 -1.7829
  188SLPC   C3821735   5.954   3.316   7.010  0.0638 -0.1731  0.3268
  188SLPC   H8X21736   5.893   3.391   6.957 -0.5954  0.6613  2.1800
  188SLPC   H8Y21737   6.063   3.331   6.996  0.6235 -1.1103  2.9986
  188SLPC   C3921738   5.927   3.350   7.158 -0.4189 -0.7146  0.0032
  188SLPC   H9X21739   5.975   3.446   7.186  0.0442  0.1330 -3.2655
  188SLPC   H9Y21740   5.974   3.268   7.217 -3.0642 -0.3900  2.8366
  188SLPC  C31021741   5.781   3.364   7.211 -0.3623  0.0327  1.1516
  188SLPC  H10X21742   5.733   3.265   7.197 -0.7674  0.4531 -0.6940
  188SLPC  H10Y21743   5.724   3.427   7.140 -2.0706 -2.3401  0.3056
  188SLPC  C31121744   5.765   3.407   7.358 -0.1080 -0.0293 -0.1062
  188SLPC  H11X21745   5.656   3.402   7.379  0.0377 -2.3693  0.4304
  188SLPC  H11Y21746   5.806   3.509   7.371  0.0388 -0.0350 -0.5278
  188SLPC  C31221747   5.837   3.318   7.460 -0.0534 -0.4110 -0.6947
  188SLPC  H12X21748   5.945   3.319   7.436  0.1595  1.4472  0.1443
  188SLPC  H12Y21749   5.805   3.212   7.464  2.5810 -1.2789 -1.1252
  188SLPC  C31321750   5.834   3.375   7.599  0.2311 -0.4619  0.8781
  188SLPC  H13X21751   5.732   3.398   7.634 -0.2070  0.0102 -0.6434
  188SLPC  H13Y21752   5.889   3.472   7.596 -0.5683  0.0082 -2.3476
  188SLPC  C31421753   5.882   3.275   7.709 -0.2473  0.5847  0.1577
  188SLPC  H14X21754   5.990   3.253   7.693  0.0774  0.4431  2.2318
  188SLPC  H14Y21755   5.813   3.188   7.709  0.2758  0.1430 -1.0618
  188SLPC  C31521756   5.872   3.345   7.849 -1.1139 -0.0635 -0.0877
  188SLPC  H15X21757   5.767   3.375   7.871 -1.2574 -1.3708  1.2135
  188SLPC  H15Y21758   5.950   3.424   7.850 -0.3894 -0.6980 -1.9112
  188SLPC  C31621759   5.902   3.251   7.976 -0.4248  1.4981  0.0336
  188SLPC  H16X21760   5.809   3.199   8.009  1.1220 -0.9622  0.8055
  188SLPC  H16Y21761   5.928   3.310   8.066  0.1205  0.2605  0.7078
  188SLPC  C31721762   6.015   3.148   7.942  0.3611  1.0565  0.3597
  188SLPC  H17X21763   6.098   3.197   7.887  3.9628 -4.6637 -0.1500
  188SLPC  H17Y21764   5.977   3.078   7.865 -0.0905  0.4163  1.1501
  188SLPC  C31821765   6.073   3.058   8.055 -0.7313  0.6142 -0.0877
  188SLPC  H18X21766   5.992   2.998   8.102  0.0139  1.5656  2.5419
  188SLPC  H18Y21767   6.119   3.109   8.142  1.1950 -1.2648  0.0855
  188SLPC  H18Z21768   6.154   2.995   8.012 -0.1853  0.6205  0.9076
  189SLPC     N21769   6.525   3.690   6.039 -0.4943 -0.3445  0.1548
  189SLPC   C1321770   6.592   3.627   6.156  0.0459 -0.3414  0.6049
  189SLPC  H13A21771   6.697   3.651   6.169  0.2892 -1.0155  0.0064
  189SLPC  H13B21772   6.553   3.661   6.251  0.3362  0.9986  0.2593
  189SLPC  H13C21773   6.580   3.521   6.139 -2.5078 -0.1940  1.0533
  189SLPC   C1421774   6.586   3.646   5.913 -0.3048  0.0350  0.2974
  189SLPC  H14A21775   6.519   3.678   5.835  0.1107  1.0172  0.3282
  189SLPC  H14B21776   6.685   3.688   5.900 -0.5152  0.9442  1.4275
  189SLPC  H14C21777   6.596   3.539   5.907 -1.1984 -0.1420  1.5052
  189SLPC   C1521778   6.552   3.843   6.056  0.2809 -0.1633  0.1954
  189SLPC  H15A21779   6.654   3.851   6.091  0.2462 -0.7970  0.4491
  189SLPC  H15B21780   6.544   3.903   5.967 -0.1386  1.7470  1.4568
  189SLPC  H15C21781   6.485   3.895   6.124 -0.8541  1.3111 -1.9521
  189SLPC   C1221782   6.374   3.649   6.036  0.2179 -0.2688  0.1022
  189SLPC  H12A21783   6.319   3.712   5.968  0.6732 -1.3767 -1.3692
  189SLPC  H12B21784   6.336   3.663   6.136  1.0607  1.2565  0.2414
  189SLPC   C1121785   6.339   3.501   6.004  0.5336 -0.1385 -0.2581
  189SLPC  H11A21786   6.395   3.449   5.924 -0.6883 -1.4389 -0.3002
  189SLPC  H11B21787   6.232   3.503   5.974  0.4995 -3.6490 -0.7476
  189SLPC     P21788   6.413   3.299   6.162 -0.0641 -0.6101 -0.0065
  189SLPC   O1321789   6.356   3.200   6.064 -0.5344  0.3755 -0.6262
  189SLPC   O1421790   6.562   3.314   6.171 -0.4052  0.1736 -0.1288
  189SLPC   O1221791   6.349   3.440   6.136 -0.1997  0.1793 -0.0360
  189SLPC   O1121792   6.373   3.250   6.303  0.4438 -0.2313 -0.1799
  189SLPC    C121793   6.301   3.314   6.404  0.5668  0.8006 -0.2629
  189SLPC    HA21794   6.207   3.354   6.361 -0.7748 -1.8213  0.0278
  189SLPC    HB21795   6.280   3.246   6.489  0.0927 -0.1196 -1.0883
  189SLPC    C221796   6.371   3.440   6.455 -0.5966  0.1251  0.4115
  189SLPC    HS21797   6.427   3.484   6.369  0.1111  2.0472  1.7708
  189SLPC   O2121798   6.454   3.397   6.557  0.1340  0.1215 -0.3543
  189SLPC   C2121799   6.577   3.434   6.563  0.1901  0.6451  0.6549
  189SLPC   O2221800   6.641   3.492   6.476  0.4165 -0.0813 -0.1080
  189SLPC   C2221801   6.637   3.414   6.706  0.3393 -0.3644  0.5896
  189SLPC   H2R21802   6.707   3.498   6.727  0.7628 -1.1388  2.4193
  189SLPC   H2S21803   6.557   3.401   6.781  0.0111 -2.5182 -0.0584
  189SLPC    C321804   6.279   3.562   6.496  0.1673  0.2810  1.0309
  189SLPC    HX21805   6.210   3.516   6.570 -1.0683 -1.6227 -1.1815
  189SLPC    HY21806   6.213   3.595   6.413  1.3728  1.1971  0.4076
  189SLPC   O3121807   6.369   3.671   6.542  0.4454 -0.0103  0.2530
  189SLPC   C3121808   6.403   3.752   6.435 -0.2780  0.4103 -0.1300
  189SLPC   O3221809   6.372   3.733   6.319  0.2204 -0.1812  0.4447
  189SLPC   C3221810   6.472   3.888   6.476 -0.7064 -0.0841  0.2999
  189SLPC   H2X21811   6.417   3.937   6.559  0.1882  0.3358  0.6581
  189SLPC   H2Y21812   6.451   3.955   6.390 -1.0644 -0.0216  0.4382
  189SLPC   C2321813   6.718   3.280   6.733 -0.0452  0.2170  0.1458
  189SLPC   H3R21814   6.791   3.299   6.815  0.2006  1.3596 -0.3112
  189SLPC   H3S21815   6.771   3.258   6.639 -0.1012 -0.0538  0.1778
  189SLPC   C2421816   6.627   3.159   6.778  0.3900  0.1459 -0.0879
  189SLPC   H4R21817   6.683   3.067   6.749  0.5417  0.7051 -1.6100
  189SLPC   H4S21818   6.535   3.165   6.716  0.3915 -0.5430 -0.1664
  189SLPC   C2521819   6.595   3.148   6.926  0.6486 -0.0349 -0.0460
  189SLPC   H5R21820   6.683   3.169   6.990  0.9878  3.6340 -1.4704
  189SLPC   H5S21821   6.568   3.043   6.953  2.3634 -0.1802  1.3132
  189SLPC   C2621822   6.488   3.250   6.969  0.0452  0.0444 -0.4131
  189SLPC   H6R21823   6.401   3.257   6.900  0.7328  2.4220 -1.1298
  189SLPC   H6S21824   6.531   3.352   6.976 -1.1168  0.4558  1.6844
  189SLPC   C2721825   6.442   3.229   7.119 -0.3845  0.1740  0.1619
  189SLPC   H7R21826   6.403   3.125   7.110  1.4774 -0.4981 -0.6483
  189SLPC   H7S21827   6.364   3.304   7.144  0.5519  0.9143  0.9389
  189SLPC   C2821828   6.561   3.224   7.220 -0.1454 -0.7086  0.6573
  189SLPC   H8R21829   6.639   3.152   7.188  1.8998  1.1246  1.2262
  189SLPC   H8S21830   6.523   3.178   7.313 -0.3838  0.5580  1.2173
  189SLPC   C2921831   6.619   3.355   7.246 -0.0587 -0.6068 -0.4039
  189SLPC   H9R21832   6.552   3.442   7.250  2.8136  1.8830 -2.3713
  189SLPC  C21021833   6.748   3.391   7.268  0.2737  0.0093 -0.5128
  189SLPC  H10R21834   6.778   3.496   7.275  0.4943  0.3945 -4.5298
  189SLPC  C21121835   6.852   3.283   7.264 -0.2382 -0.3170  0.1158
  189SLPC  H11R21836   6.951   3.330   7.246  0.1255 -1.1655 -0.1238
  189SLPC  H11S21837   6.844   3.226   7.169 -0.6129  0.0339 -0.0691
  189SLPC  C21221838   6.855   3.195   7.391  0.2326  0.4616 -0.6170
  189SLPC  H12R21839   6.756   3.150   7.412 -0.2509  0.5285 -2.5135
  189SLPC  C21321840   6.966   3.161   7.459 -1.2491 -0.5149 -0.4466
  189SLPC  H13R21841   6.960   3.065   7.512 -1.8070 -1.6261 -2.4393
  189SLPC  C21421842   7.109   3.211   7.435  0.4740 -0.2609 -0.4686
  189SLPC  H14R21843   7.115   3.260   7.335 -2.3832 -1.7771 -1.5026
  189SLPC  H14S21844   7.180   3.126   7.425 -1.3772 -1.8059 -1.1430
  189SLPC  C21521845   7.163   3.283   7.559 -0.4823  0.2874  0.4519
  189SLPC  H15R21846   7.271   3.298   7.538 -0.1271 -1.1304  1.1120
  189SLPC  H15S21847   7.175   3.212   7.644  0.4794  0.0065  0.1014
  189SLPC  C21621848   7.097   3.421   7.596  0.4677 -0.1527  0.2754
  189SLPC  H16R21849   6.999   3.414   7.648  0.3995 -0.1192  0.1507
  189SLPC  H16S21850   7.065   3.473   7.503  1.3819  2.6719  1.4062
  189SLPC  C21721851   7.195   3.510   7.675  0.0986  0.0391 -0.3149
  189SLPC  H17R21852   7.138   3.605   7.687 -1.9574 -1.2975  1.2775
  189SLPC  H17S21853   7.282   3.530   7.610  0.4619  0.2315  0.2232
  189SLPC  C21821854   7.230   3.455   7.818 -0.2422 -0.0282 -0.0633
  189SLPC  H18R21855   7.283   3.358   7.808  1.2241  0.7581 -0.0801
  189SLPC  H18S21856   7.135   3.454   7.876 -0.9842 -1.5293 -1.2346
  189SLPC  H18T21857   7.298   3.532   7.859 -0.8248  0.6561 -0.3528
  189SLPC   C3321858   6.620   3.883   6.510 -0.0347  0.3404 -0.7142
  189SLPC   H3X21859   6.657   3.987   6.514  0.1216  0.2531  0.4856
  189SLPC   H3Y21860   6.673   3.843   6.420 -0.8165  2.2951 -2.1023
  189SLPC   C3421861   6.655   3.794   6.632  0.3421  0.0096  0.3752
  189SLPC   H4X21862   6.765   3.780   6.633  0.3316 -0.1287  1.8832
  189SLPC   H4Y21863   6.601   3.698   6.621 -0.3326  0.2073  1.7101
  189SLPC   C3521864   6.616   3.852   6.762 -0.2991 -0.3946  0.5804
  189SLPC   H5X21865   6.505   3.860   6.765 -0.6114 -2.4700 -1.6522
  189SLPC   H5Y21866   6.651   3.957   6.753  1.5174 -0.7849  2.5153
  189SLPC   C3621867   6.679   3.782   6.877 -0.2938 -0.1378 -0.1181
  189SLPC   H6X21868   6.784   3.819   6.879 -0.4092  0.2460  2.3124
  189SLPC   H6Y21869   6.677   3.672   6.863 -1.0164 -0.0998 -0.3489
  189SLPC   C3721870   6.622   3.823   7.012  0.7803  0.3162 -0.2679
  189SLPC   H7X21871   6.607   3.933   7.021 -2.3580 -0.1271  1.2785
  189SLPC   H7Y21872   6.692   3.789   7.092  1.5843  2.6272  0.0780
  189SLPC   C3821873   6.492   3.745   7.042 -0.6927  0.3785  0.4562
  189SLPC   H8X21874   6.516   3.641   7.012  1.5186  1.0380 -0.3333
  189SLPC   H8Y21875   6.404   3.788   6.989 -0.1173  1.0932  0.0548
  189SLPC   C3921876   6.462   3.737   7.190  0.4841  0.3450  0.0466
  189SLPC   H9X21877   6.426   3.835   7.228 -0.3527  0.5787 -1.2782
  189SLPC   H9Y21878   6.549   3.700   7.248  1.6038  3.2409  0.3990
  189SLPC  C31021879   6.347   3.632   7.208 -0.2586  0.3964 -0.2274
  189SLPC  H10X21880   6.372   3.535   7.160  0.6365 -0.3450  1.6128
  189SLPC  H10Y21881   6.252   3.672   7.165  0.5424  2.6823 -0.0089
  189SLPC  C31121882   6.327   3.617   7.354  0.3021 -0.4066  0.7644
  189SLPC  H11X21883   6.289   3.711   7.399  2.5731  0.8095  0.2971
  189SLPC  H11Y21884   6.428   3.598   7.396  1.4179 -0.5314 -1.7636
  189SLPC  C31221885   6.237   3.499   7.394  0.3585  0.4599 -0.4222
  189SLPC  H12X21886   6.246   3.417   7.319  0.9856 -0.2920  0.4537
  189SLPC  H12Y21887   6.131   3.531   7.383  0.3720  0.4318 -0.6288
  189SLPC  C31321888   6.270   3.445   7.538 -0.2332  0.0167  0.5507
  189SLPC  H13X21889   6.373   3.403   7.538  0.8815  2.5156 -1.3584
  189SLPC  H13Y21890   6.199   3.363   7.561  0.4597 -1.2629 -1.5662
  189SLPC  C31421891   6.255   3.550   7.648  0.0498 -0.4183 -1.0880
  189SLPC  H14X21892   6.152   3.584   7.626  1.5692  3.8072 -2.9002
  189SLPC  H14Y21893   6.330   3.633   7.644 -0.5152  0.0653 -2.1494
  189SLPC  C31521894   6.270   3.486   7.791 -0.4047  0.0145 -0.2274
  189SLPC  H15X21895   6.374   3.449   7.806 -0.8462 -0.8463  0.9108
  189SLPC  H15Y21896   6.205   3.396   7.786 -0.6004  0.1974 -0.9954
  189SLPC  C31621897   6.227   3.563   7.919  0.6835  0.4421  0.8186
  189SLPC  H16X21898   6.121   3.593   7.904  0.8822  0.4625 -0.6888
  189SLPC  H16Y21899   6.273   3.662   7.938 -1.5399  1.5174  0.9290
  189SLPC  C31721900   6.237   3.472   8.042 -0.0230 -0.0545 -1.1122
  189SLPC  H17X21901   6.346   3.466   8.064  0.0871  2.5110 -0.6898
  189SLPC  H17Y21902   6.198   3.370   8.021  1.0671 -1.1227  1.5529
  189SLPC  C31821903   6.170   3.535   8.164 -0.2809  0.2569  0.1558
  189SLPC  H18X21904   6.185   3.645   8.169 -4.2643  1.0828 -1.8910
  189SLPC  H18Y21905   6.218   3.493   8.255  0.6084 -2.1324 -1.3377
  189SLPC  H18Z21906   6.061   3.514   8.160 -0.1575 -0.3070 -0.5388
  190SLPC     N21907   6.619   2.992   5.885  0.1781 -0.1765  0.0640
  190SLPC   C1321908   6.555   2.865   5.829  0.4120  0.1237 -0.2886
  190SLPC  H13A21909   6.547   2.861   5.721 -1.0504  0.5095 -0.2259
  190SLPC  H13B21910   6.611   2.775   5.846  0.1563  0.0238  0.0298
  190SLPC  H13C21911   6.459   2.845   5.876  0.4624 -1.2907 -0.7612
  190SLPC   C1421912   6.622   2.980   6.038 -0.0899 -0.3557  0.0803
  190SLPC  H14A21913   6.528   2.937   6.068 -0.4425 -0.3228 -0.9440
  190SLPC  H14B21914   6.692   2.902   6.066 -0.4191 -0.3993  0.7856
  190SLPC  H14C21915   6.631   3.075   6.089 -0.2011  1.7790 -3.5482
  190SLPC   C1521916   6.532   3.106   5.852  0.6519 -0.6368 -0.8276
  190SLPC  H15A21917   6.587   3.198   5.860 -2.2391  1.1328  0.4256
  190SLPC  H15B21918   6.485   3.096   5.755  1.1401  1.3092 -1.3070
  190SLPC  H15C21919   6.442   3.114   5.912  1.6758  1.9381  0.5127
  190SLPC   C1221920   6.763   2.999   5.846  0.5636  0.5123 -0.8122
  190SLPC  H12A21921   6.814   2.905   5.864  0.4641  0.3860 -1.1657
  190SLPC  H12B21922   6.811   3.071   5.910  0.0453  1.6542 -1.6664
  190SLPC   C1121923   6.818   3.022   5.705  0.1908  0.0474  0.4133
  190SLPC  H11A21924   6.779   2.944   5.635 -0.2585  1.3844 -0.8877
  190SLPC  H11B21925   6.929   3.014   5.709  0.0995 -0.7425  3.3257
  190SLPC     P21926   6.851   3.279   5.683  0.2311  0.4702  0.1147
  190SLPC   O1321927   6.886   3.347   5.560  0.3580 -0.2713  0.2226
  190SLPC   O1421928   6.757   3.354   5.776 -0.1018 -0.2158  0.1030
  190SLPC   O1221929   6.777   3.144   5.643  0.0010 -0.4915 -0.5741
  190SLPC   O1121930   6.980   3.232   5.759 -0.3510  0.2851 -0.3213
  190SLPC    C121931   7.091   3.329   5.761 -0.6502 -0.0479 -0.7278
  190SLPC    HA21932   7.112   3.370   5.661 -1.5937 -2.2301 -1.8993
  190SLPC    HB21933   7.069   3.409   5.835  0.9646 -0.7542  0.5729
  190SLPC    C221934   7.226   3.260   5.818  0.9476  0.1084 -0.5257
  190SLPC    HS21935   7.281   3.232   5.726 -0.0036 -1.8809 -0.5414
  190SLPC   O2121936   7.192   3.137   5.890 -0.0930 -0.2207  0.9409
  190SLPC   C2121937   7.286   3.055   5.935  0.0970 -0.5283 -0.3305
  190SLPC   O2221938   7.403   3.063   5.902  0.2956 -0.0380  0.1822
  190SLPC   C2221939   7.219   2.954   6.029  0.2118 -0.5072  0.1659
  190SLPC   H2R21940   7.150   3.011   6.094  0.1553  0.5869 -0.8125
  190SLPC   H2S21941   7.155   2.882   5.972  0.3043  0.4350 -1.1666
  190SLPC    C321942   7.308   3.356   5.904  0.5606  0.8221  0.3266
  190SLPC    HX21943   7.324   3.441   5.834  2.0013 -0.2901 -0.7746
  190SLPC    HY21944   7.407   3.307   5.916  0.0631 -0.4821 -0.6797
  190SLPC   O3121945   7.235   3.408   6.018 -0.5548 -0.1033 -0.3585
  190SLPC   C3121946   7.269   3.345   6.124  0.4276 -0.1288 -0.8314
  190SLPC   O3221947   7.344   3.252   6.145 -0.0378  0.4941  0.2800
  190SLPC   C3221948   7.166   3.398   6.231 -0.5284 -1.1559 -0.8627
  190SLPC   H2X21949   7.063   3.371   6.200 -1.7260  0.1305  1.7591
  190SLPC   H2Y21950   7.170   3.509   6.227  3.7911 -1.0326  0.9136
  190SLPC   C2321951   7.320   2.873   6.116  0.4112  0.1993 -0.3417
  190SLPC   H3R21952   7.411   2.851   6.055 -0.6095 -0.6970 -1.5906
  190SLPC   H3S21953   7.269   2.776   6.130  1.7618 -0.5995 -0.7652
  190SLPC   C2421954   7.366   2.933   6.250 -0.1166 -1.0562  0.3042
  190SLPC   H4R21955   7.418   3.031   6.240 -0.4053 -1.0499 -1.2923
  190SLPC   H4S21956   7.449   2.866   6.281  0.8279 -0.2051 -0.3001
  190SLPC   C2521957   7.262   2.915   6.360  0.0864 -0.4814 -0.5362
  190SLPC   H5R21958   7.221   2.812   6.354 -0.2647 -0.4385  0.9652
  190SLPC   H5S21959   7.172   2.976   6.338  0.3448  0.6323  1.3639
  190SLPC   C2621960   7.316   2.956   6.496 -1.0798  0.1243  0.0593
  190SLPC   H6R21961   7.339   3.064   6.499  1.1508 -0.2613 -0.6210
  190SLPC   H6S21962   7.403   2.888   6.511 -0.4865  1.3270  2.6000
  190SLPC   C2721963   7.222   2.930   6.606  0.2397  0.3937 -0.0684
  190SLPC   H7R21964   7.273   2.923   6.705  0.6567 -2.1100 -0.4054
  190SLPC   H7S21965   7.183   2.828   6.587  0.0230  0.3735  0.4512
  190SLPC   C2821966   7.117   3.034   6.631 -1.2040 -0.3723  0.0973
  190SLPC   H8R21967   7.076   3.064   6.532 -1.6151 -0.1314  0.3387
  190SLPC   H8S21968   7.159   3.130   6.667 -2.9903  0.5839 -0.2179
  190SLPC   C2921969   7.001   2.994   6.722  0.0080 -0.3494  0.1037
  190SLPC   H9R21970   6.942   2.913   6.676 -1.5752  0.1911  1.0892
  190SLPC  C21021971   6.975   3.040   6.849  0.0570  0.7085 -0.1284
  190SLPC  H10R21972   6.872   3.024   6.885 -0.1577  4.7364  1.4893
  190SLPC  C21121973   7.053   3.122   6.943  0.2790 -0.5480 -0.1062
  190SLPC  H11R21974   6.985   3.151   7.026 -1.3856 -0.4588 -1.4479
  190SLPC  H11S21975   7.089   3.219   6.902  3.0024 -0.2579  2.6052
  190SLPC  C21221976   7.173   3.050   6.999 -0.2732  0.3250  0.0224
  190SLPC  H12R21977   7.163   2.946   7.032 -1.9016  0.2641 -0.5991
  190SLPC  C21321978   7.288   3.107   7.036 -0.8282  0.2216 -0.3369
  190SLPC  H13R21979   7.371   3.039   7.061 -2.9892 -1.7168  2.2353
  190SLPC  C21421980   7.331   3.253   7.030 -0.1183  0.0493 -0.2302
  190SLPC  H14R21981   7.251   3.321   7.065  1.7440  1.9503  0.4795
  190SLPC  H14S21982   7.349   3.280   6.924 -1.4989 -0.9170 -0.7415
  190SLPC  C21521983   7.457   3.277   7.124 -0.7367 -0.4645  0.7808
  190SLPC  H15R21984   7.492   3.381   7.106 -1.4527 -0.4301 -0.5106
  190SLPC  H15S21985   7.544   3.216   7.092 -0.0879 -0.8490  3.0729
  190SLPC  C21621986   7.435   3.253   7.276  0.2345 -0.2838 -0.0087
  190SLPC  H16R21987   7.407   3.145   7.278 -0.2123 -0.2095 -1.4728
  190SLPC  H16S21988   7.356   3.324   7.309 -0.5029 -1.2577  0.4045
  190SLPC  C21721989   7.556   3.288   7.366 -0.6683 -0.4570 -0.1947
  190SLPC  H17R21990   7.643   3.224   7.339 -0.0271 -0.9531  2.7584
  190SLPC  H17S21991   7.536   3.247   7.467 -1.0412 -3.7491 -1.4688
  190SLPC  C21821992   7.593   3.442   7.374 -0.3556 -0.0818  0.2632
  190SLPC  H18R21993   7.523   3.498   7.439  0.0470  2.3814 -1.2971
  190SLPC  H18S21994   7.577   3.485   7.273 -1.5871  2.8806  1.6078
  190SLPC  H18T21995   7.700   3.458   7.397  0.5960 -0.0243 -3.4824
  190SLPC   C3321996   7.192   3.336   6.372 -0.2011  0.3835  0.0046
  190SLPC   H3X21997   7.298   3.349   6.404  0.0772  0.4159 -0.9009
  190SLPC   H3Y21998   7.167   3.228   6.363 -1.2525  0.4966  1.2814
  190SLPC   C3421999   7.101   3.380   6.479  0.0237  0.5305 -0.2483
  190SLPC   H4X22000   7.130   3.331   6.574 -2.0093  1.5592  0.9820
  190SLPC   H4Y22001   6.994   3.353   6.467 -0.2573  1.3358  0.2916
  190SLPC   C3522002   7.105   3.532   6.503 -0.0779  0.3303 -0.5802
  190SLPC   H5X22003   7.083   3.596   6.416  2.8109 -0.5979 -2.1216
  190SLPC   H5Y22004   7.210   3.557   6.529 -0.1453 -0.3261  0.3952
  190SLPC   C3622005   7.011   3.585   6.614 -0.0753 -0.3712  0.3284
  190SLPC   H6X22006   6.912   3.539   6.593  0.2970 -0.1860 -2.1494
  190SLPC   H6Y22007   7.004   3.695   6.597  0.0370 -0.2926  0.7756
  190SLPC   C3722008   7.055   3.540   6.760 -0.5788 -0.6158 -0.2480
  190SLPC   H7X22009   7.160   3.569   6.781 -0.2606  0.2413 -2.7956
  190SLPC   H7Y22010   7.033   3.431   6.767 -1.3610 -0.4684 -0.3997
  190SLPC   C3822011   6.979   3.618   6.867  0.2516  0.2699  0.2773
  190SLPC   H8X22012   6.872   3.601   6.843  0.7257 -0.3947 -1.6012
  190SLPC   H8Y22013   6.997   3.725   6.844  1.4737 -0.1956 -1.1263
  190SLPC   C3922014   7.014   3.571   7.006 -0.6095 -0.0534  0.1189
  190SLPC   H9X22015   7.004   3.461   7.024 -1.1125 -0.2863 -1.4576
  190SLPC   H9Y22016   6.941   3.617   7.077 -0.4179  1.5790 -0.7172
  190SLPC  C31022017   7.151   3.620   7.066  0.3034  0.5343 -0.2337
  190SLPC  H10X22018   7.164   3.730   7.055 -0.7892  0.7234  0.3131
  190SLPC  H10Y22019   7.241   3.579   7.014 -0.9938 -4.5326  1.0105
  190SLPC  C31122020   7.147   3.583   7.214 -0.0718  0.5087 -0.0498
  190SLPC  H11X22021   7.124   3.475   7.214  1.2940  0.2096 -0.7028
  190SLPC  H11Y22022   7.067   3.628   7.277  0.5583 -3.8185  4.4412
  190SLPC  C31222023   7.277   3.607   7.288  0.3408  0.0982 -0.0084
  190SLPC  H12X22024   7.362   3.581   7.221  0.8791  1.7468 -0.0018
  190SLPC  H12Y22025   7.277   3.534   7.371  0.4234  0.4910  0.3379
  190SLPC  C31322026   7.308   3.750   7.324  0.3071 -0.0641 -0.9290
  190SLPC  H13X22027   7.216   3.793   7.369  0.3732 -0.4979 -0.3757
  190SLPC  H13Y22028   7.337   3.806   7.232  0.6954  1.0933 -0.1269
  190SLPC  C31422029   7.427   3.766   7.415 -0.2287  0.0173 -0.3617
  190SLPC  H14X22030   7.521   3.727   7.370 -0.5743 -1.1121 -0.1343
  190SLPC  H14Y22031   7.408   3.705   7.505  0.2373 -1.1289 -1.0098
  190SLPC  C31522032   7.457   3.914   7.446  0.2285 -0.5631  0.5156
  190SLPC  H15X22033   7.359   3.959   7.472 -0.2476 -1.4694  0.3193
  190SLPC  H15Y22034   7.485   3.966   7.353 -0.8531 -2.7169 -1.1127
  190SLPC  C31622035   7.556   3.925   7.565 -0.7505  0.2146  0.7966
  190SLPC  H16X22036   7.624   3.837   7.563  0.2924  1.0194 -0.5821
  190SLPC  H16Y22037   7.493   3.922   7.657 -1.3552 -0.9301  0.3637
  190SLPC  C31722038   7.640   4.049   7.569  0.7432 -0.0501 -0.2428
  190SLPC  H17X22039   7.707   4.053   7.481  2.1370  0.7975  0.8090
  190SLPC  H17Y22040   7.716   4.028   7.648  0.6987 -0.8410 -0.3969
  190SLPC  C31822041   7.561   4.177   7.595 -0.1299  1.0915 -0.2028
  190SLPC  H18X22042   7.475   4.187   7.525  0.5976  0.0484 -1.2853
  190SLPC  H18Y22043   7.628   4.266   7.587  2.8104 -0.6141  3.0276
  190SLPC  H18Z22044   7.524   4.181   7.699 -0.2659  1.1166 -0.2520
  191SLPC     N22045   0.345   7.074   5.788 -0.0467 -0.2483  0.1282
  191SLPC   C1322046   0.317   6.944   5.731 -0.0523  0.4664 -0.6622
  191SLPC  H13A22047   0.250   6.893   5.799  0.8451  1.5343  1.0925
  191SLPC  H13B22048   0.270   6.949   5.634  1.5305 -0.0334 -1.4829
  191SLPC  H13C22049   0.409   6.888   5.720  2.7405  4.6199 -0.6502
  191SLPC   C1422050   0.215   7.146   5.819  0.1423 -0.7674  0.1718
  191SLPC  H14A22051   0.246   7.224   5.887  0.2541  0.3404 -1.1010
  191SLPC  H14B22052   0.160   7.192   5.739 -0.6174 -2.3041 -0.2235
  191SLPC  H14C22053   0.151   7.074   5.868  0.0426 -0.7345  0.0921
  191SLPC   C1522054   0.420   7.163   5.692 -0.4640  0.6257  0.1657
  191SLPC  H15A22055   0.431   7.261   5.735 -0.1225  0.8255 -0.3714
  191SLPC  H15B22056   0.520   7.125   5.676  0.3844  2.8793 -0.2540
  191SLPC  H15C22057   0.361   7.173   5.602  1.0927 -0.6261 -1.0539
  191SLPC   C1222058   0.430   7.056   5.909 -0.0172  0.0778 -0.3776
  191SLPC  H12A22059   0.381   6.987   5.976  0.4618 -1.5458 -1.6326
  191SLPC  H12B22060   0.441   7.152   5.957  0.5831 -0.3106  0.2957
  191SLPC   C1122061   0.574   6.993   5.895 -0.3686 -0.2729  0.5309
  191SLPC  H11A22062   0.624   6.998   5.994  1.6573  0.4316 -0.4778
  191SLPC  H11B22063   0.646   7.053   5.834  1.0014 -0.8567  1.5408
  191SLPC     P22064   0.515   6.741   5.938  0.2732  0.3389  0.2806
  191SLPC   O1322065   0.402   6.682   5.864 -0.1220 -0.3429  0.8115
  191SLPC   O1422066   0.630   6.664   5.983  0.5577  0.5184 -0.1492
  191SLPC   O1222067   0.573   6.859   5.850 -1.0316  0.4651  0.6429
  191SLPC   O1122068   0.450   6.817   6.069  0.2715  0.2405 -0.2739
  191SLPC    C122069   0.312   6.779   6.102  0.1165 -0.0885 -0.4774
  191SLPC    HA22070   0.245   6.773   6.014 -0.2505 -2.7467 -0.0914
  191SLPC    HB22071   0.315   6.682   6.155  0.8292  0.3619  0.3383
  191SLPC    C222072   0.254   6.871   6.208  0.2300 -0.3675  0.1321
  191SLPC    HS22073   0.236   6.973   6.168 -0.6704 -0.5344  0.0920
  191SLPC   O2122074   0.350   6.885   6.316  0.3643 -0.3132 -0.1148
  191SLPC   C2122075   0.437   6.976   6.310  0.4737 -0.1879 -0.3936
  191SLPC   O2222076   0.441   7.072   6.236 -0.1556  0.0114 -0.1057
  191SLPC   C2222077   0.545   6.944   6.424  0.1527 -0.4674  0.4982
  191SLPC   H2R22078   0.557   6.838   6.453 -0.3183  0.3145  3.9862
  191SLPC   H2S22079   0.634   6.983   6.369 -1.0369  2.2649  0.3575
  191SLPC    C322080   0.117   6.812   6.253 -0.2618  0.1934  0.4556
  191SLPC    HX22081   0.062   6.780   6.162  1.6021 -0.9843 -0.3227
  191SLPC    HY22082   0.063   6.889   6.312  0.1190 -0.0816  1.1819
  191SLPC   O3122083   0.143   6.693   6.324 -0.1824 -0.0408 -0.2060
  191SLPC   C3122084   0.039   6.620   6.360 -0.0597 -0.3860  0.4189
  191SLPC   O3222085  -0.078   6.651   6.336  0.1042  0.7668  0.3070
  191SLPC   C3222086   0.090   6.488   6.422  0.5096 -0.1053  0.5347
  191SLPC   H2X22087   0.199   6.497   6.444  0.7411  0.3057 -0.6739
  191SLPC   H2Y22088   0.076   6.407   6.347 -1.7358 -1.0901  1.9313
  191SLPC   C2322089   0.540   7.024   6.559 -0.4285  0.4631 -0.5546
  191SLPC   H3R22090   0.439   7.007   6.602 -0.8522  1.8996 -0.9456
  191SLPC   H3S22091   0.553   7.132   6.539  0.7135  0.3911 -0.2624
  191SLPC   C2422092   0.649   6.981   6.654 -0.6200  0.3986  0.2203
  191SLPC   H4R22093   0.747   6.977   6.600 -1.0256  3.5210 -0.9708
  191SLPC   H4S22094   0.620   6.877   6.682  0.4118 -0.8206 -2.8015
  191SLPC   C2522095   0.682   7.073   6.771  0.1091 -0.4888 -0.4487
  191SLPC   H5R22096   0.714   7.176   6.742  0.3316 -0.5904 -0.5712
  191SLPC   H5S22097   0.764   7.017   6.822 -0.2372 -0.5143  0.0783
  191SLPC   C2622098   0.566   7.093   6.872  0.0824  0.4901 -0.6747
  191SLPC   H6R22099   0.485   7.157   6.830 -2.6062 -0.4622  2.5432
  191SLPC   H6S22100   0.607   7.144   6.961  0.5818 -0.0590 -0.5876
  191SLPC   C2722101   0.502   6.964   6.934 -0.2427  0.4203 -0.1845
  191SLPC   H7R22102   0.573   6.919   7.007  2.1460  1.8032 -1.5435
  191SLPC   H7S22103   0.485   6.888   6.854 -0.5790  2.6013 -2.2776
  191SLPC   C2822104   0.375   6.988   7.013  0.2621 -0.4510 -0.3624
  191SLPC   H8R22105   0.306   6.901   7.015 -0.0576 -0.2726 -1.9314
  191SLPC   H8S22106   0.320   7.061   6.949  0.6411 -1.0019 -1.3332
  191SLPC   C2922107   0.406   7.041   7.151 -0.5011  0.8156  0.0500
  191SLPC   H9R22108   0.488   7.115   7.157 -0.9497  1.3221 -0.0157
  191SLPC  C21022109   0.331   7.023   7.267  0.1521 -0.2053  0.3124
  191SLPC  H10R22110   0.355   7.082   7.357  0.0778 -0.1326  0.2846
  191SLPC  C21122111   0.211   6.937   7.277  0.7628 -0.0648 -0.5258
  191SLPC  H11R22112   0.177   6.899   7.178  0.6485  0.2260 -0.5985
  191SLPC  H11S22113   0.124   6.996   7.312  0.9443 -1.9002  3.5855
  191SLPC  C21222114   0.225   6.813   7.371 -0.1382  0.1266 -0.2138
  191SLPC  H12R22115   0.227   6.716   7.320 -0.0903  0.7249 -1.3747
  191SLPC  C21322116   0.241   6.813   7.512 -0.4406 -0.3138  0.4758
  191SLPC  H13R22117   0.234   6.713   7.558  0.0705 -1.4485 -1.7465
  191SLPC  C21422118   0.241   6.929   7.603  0.3016 -0.2549  0.0819
  191SLPC  H14R22119   0.294   7.013   7.553  0.5476 -1.9708 -2.7585
  191SLPC  H14S22120   0.299   6.903   7.694 -1.2263 -0.7597  0.9601
  191SLPC  C21522121   0.100   6.974   7.649 -0.0486  0.8106  0.0093
  191SLPC  H15R22122   0.045   6.896   7.704  1.4333  0.4030  0.9446
  191SLPC  H15S22123   0.034   6.981   7.559 -2.4049  2.6921  1.7540
  191SLPC  C21622124   0.111   7.109   7.716 -0.1836  0.0150  0.5573
  191SLPC  H16R22125   0.146   7.165   7.626  0.3563 -1.8518 -0.4506
  191SLPC  H16S22126   0.197   7.107   7.786  1.1240 -0.3077 -0.9971
  191SLPC  C21722127  -0.020   7.155   7.779  0.2432 -0.0437 -0.0105
  191SLPC  H17R22128  -0.083   7.071   7.816  1.5759 -0.3327  1.7739
  191SLPC  H17S22129  -0.089   7.194   7.702  0.1426 -1.5408 -0.6992
  191SLPC  C21822130  -0.012   7.262   7.885 -0.1078 -1.0816 -0.0834
  191SLPC  H18R22131  -0.114   7.282   7.926 -0.7479 -1.6405 -1.3573
  191SLPC  H18S22132   0.024   7.361   7.851 -0.2943 -1.3915 -1.2203
  191SLPC  H18T22133   0.046   7.216   7.968 -0.4848  1.1141  1.4896
  191SLPC   C3322134   0.015   6.453   6.548 -0.5507 -0.0158 -0.1995
  191SLPC   H3X22135   0.027   6.345   6.571 -2.4297 -0.2789 -0.2950
  191SLPC   H3Y22136  -0.094   6.473   6.534 -0.4202  2.9624  1.9257
  191SLPC   C3422137   0.072   6.516   6.670 -0.7611 -0.8380  0.7183
  191SLPC   H4X22138   0.105   6.621   6.650 -1.0571 -1.2064 -2.1970
  191SLPC   H4Y22139   0.166   6.465   6.701  0.9068  1.9085  0.5510
  191SLPC   C3522140  -0.026   6.521   6.779 -0.1383 -0.4694  0.2246
  191SLPC   H5X22141  -0.058   6.416   6.797 -3.0104  0.1780 -0.5094
  191SLPC   H5Y22142  -0.115   6.573   6.737  0.4207 -0.4898 -1.0351
  191SLPC   C3622143   0.021   6.598   6.914  0.1408  0.5071  0.4975
  191SLPC   H6X22144  -0.061   6.596   6.989 -0.9068 -1.8242 -0.6243
  191SLPC   H6Y22145   0.057   6.701   6.894  0.2079  0.1112 -1.6213
  191SLPC   C3722146   0.142   6.521   6.988 -0.8876 -1.1783 -0.0587
  191SLPC   H7X22147   0.194   6.593   7.054  1.0870 -3.3087  0.8588
  191SLPC   H7Y22148   0.212   6.499   6.905 -1.1852 -1.0507 -0.3483
  191SLPC   C3822149   0.121   6.394   7.069  0.0704  0.5886  0.0187
  191SLPC   H8X22150   0.210   6.366   7.129 -1.1976 -1.9159  0.9056
  191SLPC   H8Y22151   0.102   6.313   6.995 -1.9452 -0.1071  1.2171
  191SLPC   C3922152   0.002   6.397   7.163  0.1251 -0.8208  0.5863
  191SLPC   H9X22153  -0.013   6.301   7.218  1.7909 -0.8258  1.0685
  191SLPC   H9Y22154  -0.090   6.407   7.101  1.1744  0.5488 -0.8296
  191SLPC  C31022155   0.010   6.515   7.264  0.1842 -0.0227 -0.4122
  191SLPC  H10X22156   0.023   6.618   7.223 -0.2061 -0.3709 -1.4434
  191SLPC  H10Y22157   0.105   6.511   7.321 -0.6281 -2.8726  0.9161
  191SLPC  C31122158  -0.108   6.524   7.368  0.3075 -0.2318 -0.0862
  191SLPC  H11X22159  -0.126   6.427   7.420 -1.2276  0.7858  1.3872
  191SLPC  H11Y22160  -0.199   6.558   7.314 -2.1801 -1.1529  3.1647
  191SLPC  C31222161  -0.090   6.629   7.475 -0.2186 -0.3731 -0.3986
  191SLPC  H12X22162  -0.038   6.714   7.425  1.0828 -0.1511  1.2267
  191SLPC  H12Y22163  -0.024   6.595   7.558 -0.4987  0.0744  0.0060
  191SLPC  C31322164  -0.224   6.683   7.539  0.3200 -0.2543 -0.0308
  191SLPC  H13X22165  -0.277   6.604   7.595 -1.9035  1.2004  0.0540
  191SLPC  H13Y22166  -0.291   6.716   7.457  3.0472  1.4448 -1.7174
  191SLPC  C31422167  -0.190   6.796   7.648  0.7279 -0.1807  0.5114
  191SLPC  H14X22168  -0.147   6.884   7.596  0.0295 -0.0177  0.1992
  191SLPC  H14Y22169  -0.116   6.744   7.713  1.3634 -3.4719 -2.5217
  191SLPC  C31522170  -0.316   6.848   7.721 -0.9355  0.3406 -0.5647
  191SLPC  H15X22171  -0.294   6.904   7.815 -1.7962  0.2324 -0.2861
  191SLPC  H15Y22172  -0.380   6.769   7.767 -3.4161  2.8414  0.5997
  191SLPC  C31622173  -0.404   6.945   7.639 -0.4016 -0.4991 -0.0873
  191SLPC  H16X22174  -0.438   6.898   7.544 -0.6069 -1.1096  0.2840
  191SLPC  H16Y22175  -0.333   7.029   7.621  0.5020 -1.3885 -0.7961
  191SLPC  C31722176  -0.522   6.999   7.717  0.0984  0.4877 -0.1890
  191SLPC  H17X22177  -0.588   6.914   7.746  0.6892 -0.4219 -1.4425
  191SLPC  H17Y22178  -0.569   7.071   7.646 -1.4638  0.7280  1.0191
  191SLPC  C31822179  -0.488   7.081   7.844 -0.1451 -0.7730 -0.2710
  191SLPC  H18X22180  -0.446   7.026   7.930  0.5310  2.4559  1.6277
  191SLPC  H18Y22181  -0.577   7.142   7.868  1.5794  1.9113 -0.3112
  191SLPC  H18Z22182  -0.408   7.153   7.816  2.5687 -3.5296 -0.2291
  192SLPC     N22183   6.442   6.743   5.807  0.2427 -0.8798  0.0522
  192SLPC   C1322184   6.350   6.835   5.723 -0.0935 -0.3101  0.1760
  192SLPC  H13A22185   6.245   6.813   5.726  0.2460 -2.8747 -2.1916
  192SLPC  H13B22186   6.385   6.937   5.734  2.7506 -1.2740  0.9902
  192SLPC  H13C22187   6.385   6.813   5.623  2.5284 -0.5407  1.0514
  192SLPC   C1422188   6.406   6.774   5.952  0.0834  0.6474  0.3941
  192SLPC  H14A22189   6.299   6.778   5.967  0.0509 -1.5974  1.0757
  192SLPC  H14B22190   6.433   6.692   6.016  1.1280 -0.4505 -1.3689
  192SLPC  H14C22191   6.447   6.868   5.987 -1.0265  1.8331 -1.2968
  192SLPC   C1522192   6.585   6.776   5.777 -0.6245 -0.3823 -0.1329
  192SLPC  H15A22193   6.595   6.882   5.757 -1.9065  0.0012  1.0914
  192SLPC  H15B22194   6.649   6.767   5.864 -0.1582  0.6256 -0.3524
  192SLPC  H15C22195   6.621   6.724   5.690  0.6005 -0.4227  0.3800
  192SLPC   C1222196   6.411   6.601   5.777  1.1957  0.0562 -0.0921
  192SLPC  H12A22197   6.485   6.535   5.818  3.5508  1.4322 -1.9005
  192SLPC  H12B22198   6.409   6.574   5.672  0.5812 -2.0772  0.4154
  192SLPC   C1122199   6.277   6.544   5.830  0.2706  0.3364 -0.2263
  192SLPC  H11A22200   6.285   6.536   5.941 -0.8417  0.5502 -0.1155
  192SLPC  H11B22201   6.268   6.442   5.787  2.6635  0.3164 -0.7996
  192SLPC     P22202   6.020   6.563   5.848 -0.0164 -0.0348  0.1969
  192SLPC   O1322203   5.938   6.672   5.912  0.1239  0.1504  0.4895
  192SLPC   O1422204   5.959   6.486   5.740 -0.2763 -0.3397  0.2816
  192SLPC   O1222205   6.161   6.624   5.813 -0.2399  0.0794  0.1538
  192SLPC   O1122206   6.057   6.452   5.954  0.0599  0.0500  0.0297
  192SLPC    C122207   6.003   6.456   6.091 -0.4375  0.2081  0.3028
  192SLPC    HA22208   5.905   6.507   6.099 -1.0233 -0.7445 -0.5959
  192SLPC    HB22209   5.975   6.349   6.105  0.8696 -0.2791 -0.6007
  192SLPC    C222210   6.110   6.524   6.180 -0.2965 -0.1879 -0.2082
  192SLPC    HS22211   6.165   6.597   6.117  1.3201 -0.4996  0.7900
  192SLPC   O2122212   6.197   6.426   6.231 -0.6405  0.5424 -0.7856
  192SLPC   C2122213   6.324   6.461   6.243 -0.0143  0.1781  0.2104
  192SLPC   O2222214   6.387   6.540   6.169 -0.3729 -0.1042 -0.8051
  192SLPC   C2222215   6.387   6.385   6.366  0.4279  0.1747 -0.5708
  192SLPC   H2R22216   6.317   6.371   6.451  2.4850 -0.9053  1.0463
  192SLPC   H2S22217   6.427   6.289   6.328 -0.5726 -0.0184 -1.1631
  192SLPC    C322218   6.046   6.606   6.296  0.3389 -0.8562  0.4418
  192SLPC    HX22219   5.988   6.534   6.358  0.7483 -3.2058 -1.7005
  192SLPC    HY22220   5.968   6.681   6.272 -1.2418 -2.1411  1.3434
  192SLPC   O3122221   6.150   6.667   6.387  0.2238  1.3201 -0.2513
  192SLPC   C3122222   6.182   6.789   6.355  0.1263  0.1029  0.2123
  192SLPC   O3222223   6.140   6.848   6.259 -0.4585  0.0290  0.9804
  192SLPC   C3222224   6.259   6.855   6.474 -1.2216 -0.8684  0.1873
  192SLPC   H2X22225   6.232   6.961   6.491  3.0853  0.2863  0.9718
  192SLPC   H2Y22226   6.365   6.861   6.443 -1.0222 -0.0854  1.0072
  192SLPC   C2322227   6.524   6.463   6.413 -0.1642  1.3491 -0.4552
  192SLPC   H3R22228   6.479   6.564   6.429  1.4206  1.8464  1.2623
  192SLPC   H3S22229   6.591   6.458   6.325 -0.5403  0.5078 -0.7074
  192SLPC   C2422230   6.606   6.397   6.533 -0.5706 -0.2845  0.0268
  192SLPC   H4R22231   6.705   6.446   6.533 -0.9879  0.5763  0.1665
  192SLPC   H4S22232   6.610   6.286   6.529 -3.2122 -0.5121  1.6810
  192SLPC   C2522233   6.535   6.437   6.658 -0.2630 -0.1525  0.4555
  192SLPC   H5R22234   6.435   6.389   6.661 -0.2612 -0.1713  0.1962
  192SLPC   H5S22235   6.515   6.545   6.640  1.2762 -0.1043 -1.1583
  192SLPC   C2622236   6.616   6.413   6.780 -0.5651  0.4901  0.5887
  192SLPC   H6R22237   6.688   6.497   6.773  1.4601 -1.2349 -0.1871
  192SLPC   H6S22238   6.671   6.317   6.777 -2.6977 -0.8569  1.6680
  192SLPC   C2722239   6.527   6.429   6.901 -0.2499 -0.1151 -0.3846
  192SLPC   H7R22240   6.427   6.383   6.886  0.6335 -1.5946 -2.3436
  192SLPC   H7S22241   6.502   6.537   6.906 -1.0676 -0.3131 -0.0530
  192SLPC   C2822242   6.605   6.382   7.027  0.5148 -0.3196 -0.4106
  192SLPC   H8R22243   6.654   6.284   7.008  0.2628 -0.7416  0.9312
  192SLPC   H8S22244   6.525   6.361   7.101 -1.5900  3.5352 -1.3429
  192SLPC   C2922245   6.696   6.488   7.074 -0.4294  0.3461  0.3940
  192SLPC   H9R22246   6.757   6.530   6.992  0.6159 -0.6497  0.6394
  192SLPC  C21022247   6.714   6.534   7.197 -0.4324 -0.3041 -0.3874
  192SLPC  H10R22248   6.771   6.628   7.201  2.3447 -1.8704 -0.5916
  192SLPC  C21122249   6.654   6.491   7.331 -0.2239 -0.3236  0.1995
  192SLPC  H11R22250   6.740   6.458   7.395  0.2008 -0.7346 -0.5660
  192SLPC  H11S22251   6.592   6.400   7.315  0.5972 -0.7442 -0.7297
  192SLPC  C21222252   6.560   6.592   7.398 -0.0630  0.1743  0.7378
  192SLPC  H12R22253   6.605   6.692   7.408  1.0915 -0.3661  1.0035
  192SLPC  C21322254   6.440   6.579   7.456 -0.4174 -0.3413  0.0118
  192SLPC  H13R22255   6.388   6.664   7.503 -0.4244  0.0738 -0.7385
  192SLPC  C21422256   6.374   6.440   7.465 -0.3222  0.0961 -0.0795
  192SLPC  H14R22257   6.401   6.384   7.373 -1.0641 -1.3325  0.5425
  192SLPC  H14S22258   6.266   6.462   7.451 -0.2046  1.2635  0.6952
  192SLPC  C21522259   6.409   6.354   7.587  0.7651 -0.3313 -0.2756
  192SLPC  H15R22260   6.361   6.400   7.676 -1.7265 -0.0387 -1.6731
  192SLPC  H15S22261   6.519   6.359   7.599  0.6340  0.9007  0.5907
  192SLPC  C21622262   6.368   6.212   7.557  0.1515 -0.1440 -0.1126
  192SLPC  H16R22263   6.392   6.187   7.451 -1.8815 -1.3285 -0.3457
  192SLPC  H16S22264   6.258   6.211   7.571 -0.0324  1.6051 -1.0648
  192SLPC  C21722265   6.443   6.121   7.654  0.4469  0.2327  0.0744
  192SLPC  H17R22266   6.551   6.147   7.641  0.0226  1.2717 -1.6232
  192SLPC  H17S22267   6.403   6.142   7.755  1.1382 -1.0463  0.6288
  192SLPC  C21822268   6.416   5.976   7.613  0.6307  0.5074 -0.0238
  192SLPC  H18R22269   6.511   5.918   7.623  1.9003  2.6640  1.0669
  192SLPC  H18S22270   6.398   5.966   7.503  1.3379 -3.0637  0.0432
  192SLPC  H18T22271   6.336   5.941   7.681  0.3829  2.8484  0.9754
  192SLPC   C3322272   6.261   6.779   6.606 -0.7007  0.1495  0.8114
  192SLPC   H3X22273   6.317   6.683   6.594  0.5710  0.9354  0.2633
  192SLPC   H3Y22274   6.160   6.763   6.648 -0.7751  0.0509  0.5919
  192SLPC   C3422275   6.344   6.849   6.715  0.5758 -0.3846 -0.0247
  192SLPC   H4X22276   6.303   6.953   6.720  0.1409 -0.4718 -1.3624
  192SLPC   H4Y22277   6.453   6.846   6.696  0.4550 -3.6233 -0.8042
  192SLPC   C3522278   6.321   6.786   6.849 -0.1253  0.8179 -1.1966
  192SLPC   H5X22279   6.368   6.687   6.835 -1.1164  0.1932 -0.2485
  192SLPC   H5Y22280   6.217   6.765   6.881  0.6455  0.4592  1.2790
  192SLPC   C3622281   6.387   6.873   6.953 -0.6705 -0.0628 -0.2255
  192SLPC   H6X22282   6.346   6.976   6.957  0.6804  0.5297 -0.9531
  192SLPC   H6Y22283   6.494   6.889   6.926 -0.3244 -0.3364  0.9360
  192SLPC   C3722284   6.385   6.810   7.096  0.2734  0.1344 -0.6037
  192SLPC   H7X22285   6.398   6.700   7.087  0.0735 -0.2023  2.3322
  192SLPC   H7Y22286   6.289   6.835   7.145  1.3293  0.4146  1.4083
  192SLPC   C3822287   6.493   6.868   7.189 -0.2074  0.8446  0.1794
  192SLPC   H8X22288   6.594   6.834   7.158  0.3892  3.1005 -0.5760
  192SLPC   H8Y22289   6.478   6.821   7.288 -0.1279 -0.7792 -0.5529
  192SLPC   C3922290   6.485   7.024   7.196 -0.2433 -0.6437  0.1417
  192SLPC   H9X22291   6.385   7.061   7.225 -0.3547  0.1457 -1.1519
  192SLPC   H9Y22292   6.514   7.060   7.095  0.8427 -0.9569  0.3266
  192SLPC  C31022293   6.581   7.088   7.294 -0.3394  0.5517  0.0151
  192SLPC  H10X22294   6.677   7.089   7.238 -0.9364  1.3542 -1.0241
  192SLPC  H10Y22295   6.593   7.034   7.391 -2.3571 -1.5598 -0.8337
  192SLPC  C31122296   6.562   7.235   7.335  0.2645 -0.2513 -0.5104
  192SLPC  H11X22297   6.465   7.234   7.390  1.0125  1.9231  0.9958
  192SLPC  H11Y22298   6.549   7.285   7.237  0.2006  0.1892 -0.2810
  192SLPC  C31222299   6.691   7.285   7.403  0.6735  0.3754  0.0566
  192SLPC  H12X22300   6.782   7.244   7.353  0.6298  0.6205 -0.2295
  192SLPC  H12Y22301   6.685   7.246   7.506 -0.6251  0.8464  0.1796
  192SLPC  C31322302   6.695   7.431   7.420 -0.1170  0.3927 -0.7450
  192SLPC  H13X22303   6.587   7.460   7.422 -0.9275 -2.4202  0.6010
  192SLPC  H13Y22304   6.751   7.472   7.333  0.3289 -2.7430 -2.0495
  192SLPC  C31422305   6.754   7.470   7.562  0.0796 -0.2896 -0.1202
  192SLPC  H14X22306   6.708   7.404   7.640  0.9392 -1.3459 -0.4715
  192SLPC  H14Y22307   6.722   7.572   7.592  0.7838  0.5131 -1.9960
  192SLPC  C31522308   6.912   7.466   7.578 -0.0402 -0.3332  0.7626
  192SLPC  H15X22309   6.942   7.370   7.531 -1.1809  0.2935 -1.3937
  192SLPC  H15Y22310   6.943   7.474   7.684 -0.8871 -0.8465  1.0650
  192SLPC  C31622311   6.980   7.575   7.499 -0.1239 -0.4346  0.4792
  192SLPC  H16X22312   6.934   7.672   7.527  0.4339 -0.2547  0.7853
  192SLPC  H16Y22313   6.965   7.551   7.392  0.3645  1.4382 -0.0494
  192SLPC  C31722314   7.131   7.584   7.536  0.7213  0.0564  0.0813
  192SLPC  H17X22315   7.142   7.577   7.647 -0.7084  0.0884  0.2501
  192SLPC  H17Y22316   7.163   7.686   7.508  0.8229 -0.2738 -1.0387
  192SLPC  C31822317   7.227   7.495   7.452  0.0985 -0.0916 -0.1105
  192SLPC  H18X22318   7.284   7.559   7.381  1.2466  0.3370  1.1598
  192SLPC  H18Y22319   7.173   7.403   7.419 -1.0777  0.6131 -0.2004
  192SLPC  H18Z22320   7.314   7.471   7.517  0.6973  0.7842 -0.5603
  193SOD    SOD22321   2.719   4.016  14.354 -0.3459 -0.3406  0.5404
  194SOD    SOD22322   6.343   1.766  12.818 -0.1116  0.3611  0.4916
  195SOD    SOD22323   3.306   6.672   9.654  0.1630 -0.4001 -0.1071
  196SOD    SOD22324   6.184   3.186  11.849  0.0359 -0.0434  0.0172
  197SOD    SOD22325   1.097   5.385   3.083  0.0959 -0.1413 -0.0245
  198SOD    SOD22326   1.612   1.943  14.351  0.2907 -0.2405  0.1956
  199SOD    SOD22327   0.415   6.168   4.619  0.3030 -0.3432 -0.2273
  200SOD    SOD22328   0.201   2.892   2.242 -0.1598 -0.0067  0.6070
  201SOD    SOD22329   0.340   2.586  15.207  0.4273 -0.5773 -0.5625
  202SOD    SOD22330   4.489   0.059   4.674 -0.0242 -0.1716  0.7133
  203SOD    SOD22331   1.134   5.236  10.890  0.0124  0.1007 -0.2927
  204SOD    SOD22332   0.029   4.887   4.030 -0.3338 -0.2515 -0.0822
  205SOD    SOD22333   1.283   2.780   3.353 -0.4805  0.2259 -0.4871
  206SOD    SOD22334   4.015   1.902   3.441 -0.0805  0.3906  0.3927
  207SOD    SOD22335   3.485   3.610   0.617 -0.0095  0.4849 -0.0563
  208SOD    SOD22336   7.110   4.950  12.993 -0.4430 -0.1172 -0.0731
  209SOD    SOD22337   1.574   0.751   2.090  0.0732  0.1140  0.3945
  210SOD    SOD22338   3.876   6.972   0.554 -0.0690  0.1003 -0.2511
  211SOD    SOD22339   2.932   6.500  11.504  0.2197  0.2594  0.0477
  212SOD    SOD22340   5.879   0.376   1.184 -0.0520 -0.0352  0.3451
  213SOD    SOD22341   1.189   5.909  13.422  0.0405  0.3413  0.1475
  214SOD    SOD22342   3.451   5.911  11.400  0.2725  0.0833 -0.0862
  215SOD    SOD22343   1.069   0.014  14.390 -0.5471  0.3873  0.5891
  216SOD    SOD22344   6.246   4.534   5.158 -0.0830 -0.2906  0.0579
  217SOD    SOD22345   3.791   3.669   9.985 -0.4651  0.1409 -0.4472
  218SOD    SOD22346   6.603   5.038   0.361 -0.6292 -0.0388 -0.0255
  219SOD    SOD22347   0.134   6.329   2.548  0.4369  0.3058  0.2940
  220SOD    SOD22348   4.145   1.322   1.638  0.3784  0.7124 -0.1533
  221SOD    SOD22349   4.012   5.721   5.046  0.7677 -0.0651  0.0745
  222SOD    SOD22350   3.265   5.154   9.638  0.4968 -0.4726  0.1173
  223SOD    SOD22351   5.486   5.320   5.125  0.2072 -0.2333  0.3794
  224SOD    SOD22352   7.049   0.891  12.160  0.2675 -0.1158 -0.2200
  225SOD    SOD22353   3.193   6.065   2.996  0.4390  0.2705 -0.0016
  226SOD    SOD22354   6.387   5.882   3.583  0.0100  0.1725  0.0273
  227SOD    SOD22355   3.512   3.292   1.385 -0.3809  0.1050 -0.2138
  228SOD    SOD22356   6.978   2.201  11.039 -0.1963 -0.7048  0.6637
  229SOD    SOD22357   4.314   5.835  11.310  0.1096 -0.0169  0.5939
  230SOD    SOD22358   6.251   3.655   4.919  0.3059 -0.0422 -0.4260
  231SOD    SOD22359   5.047   3.213  14.021  0.0092  0.3340  0.6785
  232SOD    SOD22360   5.527   2.503   2.633 -0.2720 -0.6401  0.2381
  233SOD    SOD22361   6.662   0.355   4.863 -0.1312  0.9562  0.1600
  234SOD    SOD22362   0.534   5.875   1.352 -0.2186 -0.3973  0.3040
  235SOD    SOD22363   6.983   5.101   2.266  0.4015 -0.2420 -0.0701
  236SOD    SOD22364   6.633   2.522   1.115 -0.0371 -0.2454 -0.1916
  237SOD    SOD22365   0.456   5.943  10.315 -0.6377  0.3480 -0.0349
  238SOD    SOD22366   2.294   3.189   5.417  0.5050 -0.0843 -0.0810
  239SOD    SOD22367   6.531   1.635  11.483 -0.2234  0.7022 -0.4429
  240SOD    SOD22368   7.019   2.429   9.769 -0.1481  0.2924 -0.1038
  241SOD    SOD22369   0.835   5.427   5.263 -0.0767  0.1160 -0.1432
  242SOD    SOD22370   5.226   0.524   0.178  0.4008  0.0432  0.0436
  243SOD    SOD22371   3.795   0.635   3.681 -0.3113 -0.2897 -0.6229
  244SOD    SOD22372   6.336   2.055  14.306 -0.3160 -0.1819  0.1837
  245SOD    SOD22373   4.579   1.996  13.294 -0.1005 -0.2613  0.2404
  246SOD    SOD22374   4.202   0.299  14.505  0.3083 -0.7008 -0.2532
  247SOD    SOD22375   1.503   3.926   0.634 -0.3963  0.3239 -0.3686
  248SOD    SOD22376   0.419   0.588   5.389  0.2950 -0.0217 -0.2045
  249SOD    SOD22377   1.257   4.860  12.084  0.0040  0.5945  0.2485
  250SOD    SOD22378   3.653   6.889   1.855 -0.0308  0.0633  0.3070
  251SOD    SOD22379   4.477   0.001  12.992 -0.4093 -0.0108  0.4713
  252SOD    SOD22380   2.739   6.980  10.211 -0.1317 -0.2423  0.0201
  253SOD    SOD22381   4.985   3.867   9.598  0.2631 -0.5001 -0.1181
  254SOD    SOD22382   6.048   4.914   9.637 -0.0471 -0.1039  0.0833
  255SOD    SOD22383   6.018   6.000  14.896  0.3281  0.1633  0.2634
  256SOD    SOD22384   6.078   6.337   4.882  0.3429 -0.4325 -0.2159
  257SOD    SOD22385   6.520   3.649  11.739 -0.2887 -0.2006  0.1006
  258SOD    SOD22386   4.395   5.725   5.679  0.0321  0.1487 -0.6282
  259SOD    SOD22387   0.510   3.416  10.824  0.3292 -0.6742 -0.0552
  260SOD    SOD22388   0.333   0.399  13.281 -0.1000  0.4300 -0.1904
  261SOD    SOD22389   5.809   5.806  12.917  0.1522  0.0871 -0.4965
  262SOD    SOD22390   6.385   0.916   0.706 -0.0813 -0.3678  0.4058
  263SOD    SOD22391   3.324   5.150  13.218 -0.4812  1.0188 -0.4338
  264SOD    SOD22392   4.720   6.915   1.637 -0.3187 -0.1321 -0.3546
  265SOD    SOD22393   1.743   6.978  11.793 -0.0543  0.0043  0.5158
  266CLA    CLA22394   0.083   3.014  14.185 -0.0824  0.3748 -0.0015
  267CLA    CLA22395   6.354   6.679   3.487  0.3386 -0.1466  0.2129
  268CLA    CLA22396   1.600   0.764  15.054 -0.1593 -0.1463 -0.1017
  269CLA    CLA22397   0.937   1.193   1.861  0.0771  0.0925 -0.4130
  270CLA    CLA22398   0.903   5.836   1.916 -0.0112 -0.0073 -0.1206
  271CLA    CLA22399   0.096   1.981   2.272 -0.1217 -0.0837  0.1524
  272CLA    CLA22400   5.635   4.028  12.152 -0.3128  0.4214 -0.1294
  273CLA    CLA22401   3.076   4.195   4.019 -0.1247 -0.0547  0.4705
  274CLA    CLA22402   3.080   5.542   2.356 -0.1328 -0.0581  0.1370
  275CLA    CLA22403   1.189   6.405   2.842  0.0206  0.0403  0.5306
  276CLA    CLA22404   6.296   4.783  13.789 -0.2199 -0.3876  0.1436
  277CLA    CLA22405   5.469   1.689   0.217  0.4038 -0.0763  0.3249
  278CLA    CLA22406   1.707   3.742  11.925 -0.0053 -0.1311 -0.1047
  279CLA    CLA22407   3.393   3.879  14.760 -0.3935  0.1749 -0.3826
  280CLA    CLA22408   0.108   1.471  12.628  0.0399  0.1593 -0.1751
  281CLA    CLA22409   3.574   6.613  11.803 -0.3445 -0.2164 -0.0397
  282CLA    CLA22410   2.953   2.213  12.075  0.0718 -0.0784  0.1037
  283CLA    CLA22411   6.361   3.369   3.709 -0.0467 -0.2141 -0.2241
  284CLA    CLA22412   2.547   6.120  10.886  0.0912  0.3377  0.0402
  285CLA    CLA22413   1.114   0.541   2.051  0.1274  0.0505 -0.0802
  286CLA    CLA22414   4.523   7.055  15.118  0.2929  0.0121  0.1606
  287CLA    CLA22415   3.552   5.209  12.269 -0.1645  0.2332  0.2462
  288CLA    CLA22416   6.542   2.341  10.454 -0.3994  0.2421 -0.0745
  289CLA    CLA22417   3.738   6.809   3.036  0.4794  0.0406 -0.4930
  290CLA    CLA22418   5.746   2.930   4.382 -0.1743 -0.0877  0.4491
  291CLA    CLA22419   1.305   6.910  13.351  0.1320  0.3870 -0.2079
  292CLA    CLA22420   4.975   1.024  14.843 -0.0612  0.5199  0.3308
  293CLA    CLA22421   6.415   6.245  14.748  0.0131 -0.3011 -0.0957
  294CLA    CLA22422   1.054   4.567  12.728  0.0305 -0.3170 -0.1396
  295CLA    CLA22423   1.071   7.176   2.869 -0.3109  0.1679 -0.0838
  296CLA    CLA22424   0.010   0.863   1.590  0.0102  0.1535  0.2497
  297CLA    CLA22425   6.879   0.612  15.306  0.3174  0.0741  0.2232
  298CLA    CLA22426   3.173   5.610   4.988 -0.0635 -0.4870 -0.0851
  299CLA    CLA22427   5.330   6.695  15.401  0.0760  0.3197 -0.2549
  300CLA    CLA22428   6.275   2.854  14.799 -0.0278  0.1049  0.2346
  301CLA    CLA22429   6.125   5.841   1.207 -0.1363  0.2350 -0.2766
  302CLA    CLA22430   0.460   5.537   3.925 -0.1872 -0.1226  0.1176
  303CLA    CLA22431   1.039   3.145   1.094 -0.1436  0.1350  0.3406
  304CLA    CLA22432   4.352   2.933   2.100 -0.0945 -0.6035  0.2299
  305CLA    CLA22433   4.991   4.049   0.314 -0.1833 -0.0009 -0.2368
  306CLA    CLA22434   3.692   4.867  11.709 -0.4056  0.2668  0.4408
  307CLA    CLA22435   3.200   7.094   3.607 -0.4465 -0.0181  0.0435
  308CLA    CLA22436   7.057   1.619  13.850 -0.1209 -0.1487  0.1897
  309CLA    CLA22437   6.472   3.196  11.798  0.3922 -0.0781  0.3471
  310CLA    CLA22438   1.211   4.781   3.476 -0.0079 -0.3080 -0.1348
  311CLA    CLA22439   2.271   3.951   1.867  0.1773  0.4686  0.1658
  312CLA    CLA22440   5.884   4.392   3.500 -0.1182  0.3132  0.1844
  313CLA    CLA22441   5.108   5.287  14.201 -0.4439 -0.2437 -0.0107
  314CLA    CLA22442   1.781   4.341  11.176  0.0140  0.0006  0.5766
  315CLA    CLA22443   1.152   6.029  13.652  0.2925 -0.2342 -0.2706
  316CLA    CLA22444   5.514   1.675  13.755 -0.1769  0.1938  0.1948
  317CLA    CLA22445   5.312   3.693  12.034 -0.0322  0.2536  0.4034
  318CLA    CLA22446   6.308   2.831  13.198 -0.4031  0.2385 -0.2246
  319TIP3   OH222447   4.411   6.302   0.009 -0.0140  0.4640 -0.2433
  319TIP3    H122448   4.331   6.276  -0.036 -0.2542  1.6968 -0.5630
  319TIP3    H222449   4.381   6.339   0.092  0.3290 -0.3089  0.2432
  320TIP3   OH222450   2.641   0.758  12.075  0.3353  0.5114 -0.5339
  320TIP3    H122451   2.735   0.746  12.062  0.4565  0.3833  0.4091
  320TIP3    H222452   2.634   0.847  12.110  0.2563 -0.0347  0.8719
  321TIP3   OH222453   2.021   2.333  14.770 -0.1856 -0.2521  0.0495
  321TIP3    H122454   2.111   2.318  14.799  0.4519  0.9661 -1.1886
  321TIP3    H222455   1.974   2.356  14.851  0.9924  0.6926  0.5034
  322TIP3   OH222456   3.685   3.639  13.150 -0.6167  0.0484 -0.2008
  322TIP3    H122457   3.645   3.565  13.105  0.9025 -1.9530  1.5169
  322TIP3    H222458   3.742   3.680  13.084 -1.4969 -0.2813 -1.1783
  323TIP3   OH222459   4.918   6.872  12.459 -0.3897  0.5408  0.9924
  323TIP3    H122460   4.963   6.844  12.539 -2.1243  0.4118  1.9503
  323TIP3    H222461   4.870   6.795  12.431 -0.6083  0.8938  0.3855
  324TIP3   OH222462   6.807   4.924  11.206  0.1106 -0.0367  0.2579
  324TIP3    H122463   6.727   4.920  11.154 -0.0236  1.4275  0.3129
  324TIP3    H222464   6.841   4.834  11.206 -1.3033 -0.5921 -0.1097
  325TIP3   OH222465   6.974   2.191  14.725  0.3472 -0.4079 -0.3978
  325TIP3    H122466   6.984   2.181  14.631 -0.5930  0.4903 -0.6107
  325TIP3    H222467   6.942   2.280  14.737  0.5139 -0.4845  0.7790
  326TIP3   OH222468   0.734   6.963  10.022  0.4998  0.0483  0.0151
  326TIP3    H122469   0.673   6.895   9.993  1.0311  0.4998 -2.3903
  326TIP3    H222470   0.719   7.036   9.962  0.7646  1.6587  1.7908
  327TIP3   OH222471   5.625   6.488  11.321 -0.5008  0.3994 -0.5202
  327TIP3    H122472   5.651   6.399  11.346 -2.4148 -0.1616 -0.3538
  327TIP3    H222473   5.571   6.518  11.393 -3.6285 -0.0941 -2.4676
  328TIP3   OH222474   2.381   1.190  13.033  0.3490  0.1712  0.5796
  328TIP3    H122475   2.429   1.203  12.951  0.8608 -2.8078  0.3056
  328TIP3    H222476   2.447   1.158  13.094 -0.2390  1.3915  1.9152
  329TIP3   OH222477   0.312   6.426  11.116 -0.2553  0.1406 -0.7430
  329TIP3    H122478   0.395   6.444  11.159 -0.5112  3.9078 -1.4761
  329TIP3    H222479   0.246   6.442  11.183 -0.4852 -1.3239 -0.5887
  330TIP3   OH222480   3.541   5.322  11.973 -0.3073 -0.1678  0.0195
  330TIP3    H122481   3.553   5.285  12.060 -0.6903  2.3219  1.2188
  330TIP3    H222482   3.619   5.295  11.924  1.1018  0.3022  1.8914
  331TIP3   OH222483   6.928   3.799  13.659  0.0029  0.0821  0.0383
  331TIP3    H122484   6.949   3.738  13.730 -0.8715 -0.5456 -0.2123
  331TIP3    H222485   6.942   3.748  13.579  3.6407  1.5865 -0.4482
  332TIP3   OH222486   3.670   4.221  11.431 -0.0110 -0.2148 -0.7069
  332TIP3    H122487   3.589   4.272  11.428 -1.1848 -1.9074  0.7330
  332TIP3    H222488   3.663   4.168  11.510  4.1530  2.2079  1.6719
  333TIP3   OH222489   6.665   6.599   2.345 -0.0947 -0.4304 -0.0240
  333TIP3    H122490   6.629   6.678   2.386  1.5779  1.8248 -2.6240
  333TIP3    H222491   6.596   6.569   2.286 -1.8569 -2.7491  2.8958
  334TIP3   OH222492   0.792   6.789   9.732  0.4335  0.3592 -0.1131
  334TIP3    H122493   0.840   6.836   9.664  2.7288 -2.4951 -0.6635
  334TIP3    H222494   0.704   6.776   9.696  0.9258  0.8799 -1.5330
  335TIP3   OH222495   4.883   6.656  10.813 -0.3801  0.1855 -0.3688
  335TIP3    H122496   4.808   6.706  10.780 -2.1000 -2.3098 -0.5533
  335TIP3    H222497   4.855   6.627  10.900 -1.8331 -4.5493 -2.0726
  336TIP3   OH222498   4.039   0.083   9.842 -0.1948  0.3418 -0.4499
  336TIP3    H122499   4.092   0.119   9.771  1.2776  0.2951  0.5821
  336TIP3    H222500   4.101   0.033   9.895 -1.1946  0.6274  1.0499
  337TIP3   OH222501   1.299   2.502  10.092  0.4282  0.4901 -0.8928
  337TIP3    H122502   1.363   2.506  10.163  0.4349  0.7584 -0.9124
  337TIP3    H222503   1.350   2.523  10.014  0.2961  0.8180 -0.8938
  338TIP3   OH222504   6.351   2.408  11.727 -0.4043  0.5580 -0.5101
  338TIP3    H122505   6.344   2.404  11.632 -0.7225  2.3193 -0.5896
  338TIP3    H222506   6.281   2.350  11.759  1.7781 -2.8104 -1.2557
  339TIP3   OH222507   1.047   7.076  13.179 -0.0585 -0.5370 -0.0669
  339TIP3    H122508   0.992   6.998  13.170 -0.6931 -0.1176  0.1185
  339TIP3    H222509   1.116   7.050  13.240 -2.1205 -0.0076  2.6581
  340TIP3   OH222510   1.167   6.649  10.132 -0.5049  0.0089 -0.6098
  340TIP3    H122511   1.241   6.659  10.072 -0.8424 -0.5817 -1.1351
  340TIP3    H222512   1.094   6.690  10.087 -0.0056  2.9679  0.9974
  341TIP3   OH222513   0.706   0.326  14.039  0.1502  0.0435 -0.0545
  341TIP3    H122514   0.752   0.307  13.957 -0.3333  1.2206 -0.6202
  341TIP3    H222515   0.669   0.413  14.027 -0.3424  0.0466  1.2430
  342TIP3   OH222516   5.666   5.568  10.582 -0.4960  0.6692 -0.5884
  342TIP3    H122517   5.746   5.519  10.599  0.2985  2.0955 -0.1138
  342TIP3    H222518   5.695   5.658  10.566 -2.0650  1.4635  0.7186
  343TIP3   OH222519   5.879   6.889   0.760 -0.1634  0.2792  0.1814
  343TIP3    H122520   5.814   6.918   0.824 -0.6424  2.6523 -1.2323
  343TIP3    H222521   5.954   6.947   0.773  0.2116 -0.0186 -0.5657
  344TIP3   OH222522   1.140   2.450   9.359  0.3723 -0.3303  0.5613
  344TIP3    H122523   1.157   2.379   9.298  1.5914  0.0253  0.4660
  344TIP3    H222524   1.199   2.433   9.433  1.4151  1.1127  0.0880
  345TIP3   OH222525   7.196   3.109  11.468 -0.4046  0.4360  0.0770
  345TIP3    H122526   7.111   3.065  11.466  0.5186 -1.5617  0.9561
  345TIP3    H222527   7.190   3.178  11.402 -2.5119  0.0055 -0.2399
  346TIP3   OH222528   3.675   1.344  10.548  0.1197 -0.3254  0.0718
  346TIP3    H122529   3.740   1.384  10.606  1.2853 -4.9230  2.4686
  346TIP3    H222530   3.725   1.312  10.473 -0.4140  0.7129 -0.7564
  347TIP3   OH222531   4.456   4.726   9.653 -0.7847  0.3145  0.3145
  347TIP3    H122532   4.427   4.645   9.612  1.1484 -1.4259  2.1770
  347TIP3    H222533   4.509   4.770   9.587  2.8111 -2.7282  0.8993
  348TIP3   OH222534   3.755   1.935  10.688  0.8807  0.1070  0.3304
  348TIP3    H122535   3.783   2.027  10.685 -0.6273  0.5608 -1.4769
  348TIP3    H222536   3.700   1.930  10.766  1.1514  0.6723  0.5693
  349TIP3   OH222537   4.707   1.186  10.413 -0.0004 -0.1620  0.0681
  349TIP3    H122538   4.740   1.190  10.323  1.4760  1.4852  0.6208
  349TIP3    H222539   4.725   1.273  10.449 -1.4384 -0.4773  1.6732
  350TIP3   OH222540   2.186   0.645  13.214 -0.0544 -0.3535 -0.3493
  350TIP3    H122541   2.274   0.670  13.187  0.0787 -1.1551 -0.7030
  350TIP3    H222542   2.167   0.566  13.162 -0.9931 -0.1634 -0.3071
  351TIP3   OH222543   1.205   1.563  13.721  0.4354  0.0724  0.1022
  351TIP3    H122544   1.296   1.587  13.739  0.8406 -0.4370 -1.1174
  351TIP3    H222545   1.199   1.471  13.748 -0.0462  0.4225  1.2301
  352TIP3   OH222546   3.449   3.677  10.924 -0.0860 -0.3813 -0.4089
  352TIP3    H122547   3.467   3.771  10.934 -1.9901  0.0228 -0.2324
  352TIP3    H222548   3.483   3.637  11.004 -1.6872  0.6138  0.8420
  353TIP3   OH222549   6.395   5.300  11.620 -0.4855  0.3543  0.0514
  353TIP3    H122550   6.392   5.358  11.696  1.1080  0.8434 -0.2275
  353TIP3    H222551   6.451   5.346  11.557 -1.6194 -0.1131 -1.3763
  354TIP3   OH222552   2.035   1.264   9.685 -0.6463 -0.4320  0.0028
  354TIP3    H122553   1.984   1.345   9.692  2.1824  1.7598 -2.0005
  354TIP3    H222554   1.989   1.212   9.620 -0.4767  1.4994 -1.8019
  355TIP3   OH222555   2.588   6.360   9.552 -0.1193  0.1320 -0.0967
  355TIP3    H122556   2.620   6.285   9.603  1.2593  1.4854  1.1343
  355TIP3    H222557   2.659   6.425   9.557 -3.0541  3.6133  3.3716
  356TIP3   OH222558   7.011   5.125  12.888  0.4292 -0.2449 -0.5938
  356TIP3    H122559   6.935   5.117  12.830 -0.3240  0.7103  0.2191
  356TIP3    H222560   7.069   5.186  12.843  0.4439 -0.5139 -0.9416
  357TIP3   OH222561   2.006   7.038  13.337 -0.3378  0.4815 -0.0679
  357TIP3    H122562   2.043   7.027  13.250  0.1345 -0.0084  0.1874
  357TIP3    H222563   2.016   6.953  13.379  0.9179  1.1273  1.0166
  358TIP3   OH222564   4.987   6.099  15.246 -0.3040 -0.4976 -0.5347
  358TIP3    H122565   4.915   6.083  15.307  0.3405  0.6888  0.6016
  358TIP3    H222566   5.009   6.191  15.260 -0.2963 -0.1055 -2.7703
  359TIP3   OH222567   3.355   1.885  10.414  0.4299 -0.0519  0.4209
  359TIP3    H122568   3.400   1.818  10.466 -2.6867 -1.7225  1.1806
  359TIP3    H222569   3.302   1.934  10.477 -1.7452 -0.6781 -0.8067
  360TIP3   OH222570   6.821   6.009   9.800 -0.6769  0.4163 -0.1769
  360TIP3    H122571   6.846   5.955   9.725  1.8207 -1.6752  1.9745
  360TIP3    H222572   6.745   5.965   9.838  1.2947 -1.7162  1.5163
  361TIP3   OH222573   0.040   3.933  11.827 -0.1903  1.0078 -0.5391
  361TIP3    H122574   0.081   4.013  11.861 -0.9694 -0.0121  3.2812
  361TIP3    H222575  -0.042   3.926  11.876  0.1585 -2.4273 -0.2141
  362TIP3   OH222576   5.040   4.523   0.417 -0.5385 -0.5084  0.0897
  362TIP3    H122577   5.066   4.510   0.326  0.8198  0.8654  0.2418
  362TIP3    H222578   5.020   4.435   0.449  1.4527 -1.3507 -0.8287
  363TIP3   OH222579   4.340   2.820  11.999  0.2349  0.2603 -0.0396
  363TIP3    H122580   4.334   2.913  12.022 -1.5635  0.0321  0.5791
  363TIP3    H222581   4.269   2.807  11.935 -0.0006 -0.8351  0.4303
  364TIP3   OH222582   1.747   4.622  11.899  0.0004  0.1988 -0.1262
  364TIP3    H122583   1.820   4.596  11.844  0.1244  1.2070 -0.4614
  364TIP3    H222584   1.674   4.567  11.870  0.4114 -0.2306 -0.3524
  365TIP3   OH222585   6.313   5.052  10.948 -0.3854  0.2474 -0.2307
  365TIP3    H122586   6.353   5.088  11.028 -0.1260 -0.2220 -0.1434
  365TIP3    H222587   6.277   5.128  10.903 -1.8037  0.3576  1.0280
  366TIP3   OH222588   4.204   5.068  11.779  0.0545 -0.2364  0.2113
  366TIP3    H122589   4.200   5.090  11.686  1.9837  0.6499  0.2889
  366TIP3    H222590   4.113   5.071  11.809 -0.5592 -0.2399 -1.5710
  367TIP3   OH222591   1.954   5.496  10.307  0.0623  0.5616 -0.7946
  367TIP3    H122592   1.996   5.466  10.227  0.8479  0.6968 -0.4460
  367TIP3    H222593   1.987   5.585  10.319  0.4256  0.3350 -0.0137
  368TIP3   OH222594   3.467   5.920  10.589 -0.2149  0.2723  0.2494
  368TIP3    H122595   3.482   5.874  10.672  1.7985  1.5443  0.6581
  368TIP3    H222596   3.375   5.943  10.590 -1.3762 -3.7023  0.0016
  369TIP3   OH222597   2.994   4.406  15.172 -0.0543 -0.2946 -0.0775
  369TIP3    H122598   2.991   4.387  15.078 -1.1773 -2.1967  0.2932
  369TIP3    H222599   3.071   4.462  15.182 -1.7068  2.7796 -2.5532
  370TIP3   OH222600   5.755   0.819  11.471  0.1230  0.1912  0.0507
  370TIP3    H122601   5.774   0.855  11.558  1.3379  1.8450 -0.8432
  370TIP3    H222602   5.660   0.823  11.463  0.0621  0.8554  0.9814
  371TIP3   OH222603   2.427   0.793  10.187  0.1356  0.5709  0.2414
  371TIP3    H122604   2.463   0.859  10.247  0.8333 -0.1161  0.6006
  371TIP3    H222605   2.392   0.844  10.114 -2.1675  1.5443  1.9195
  372TIP3   OH222606   2.418   3.462  11.114 -0.0273 -0.4995 -0.5095
  372TIP3    H122607   2.386   3.390  11.168 -1.4393  1.1836  1.0509
  372TIP3    H222608   2.474   3.513  11.173  1.6190 -0.6990 -1.8154
  373TIP3   OH222609   1.357   6.717   9.934  0.0159 -0.4832 -0.2103
  373TIP3    H122610   1.385   6.801   9.897 -0.7560 -0.7195 -1.3716
  373TIP3    H222611   1.401   6.651   9.879  1.7560 -0.8779  1.5626
  374TIP3   OH222612   4.620   3.928   5.743 -0.2283 -0.9411 -0.5430
  374TIP3    H122613   4.539   3.951   5.698  0.2683 -1.7875 -1.9218
  374TIP3    H222614   4.667   4.012   5.751 -2.0002 -0.0536  2.0508
  375TIP3   OH222615   1.155   5.968   1.780 -0.2975 -0.0014  0.0854
  375TIP3    H122616   1.076   5.922   1.809 -0.0635  0.1210  0.9474
  375TIP3    H222617   1.220   5.898   1.768 -0.4965 -0.0900 -0.5081
  376TIP3   OH222618   6.313   1.348   5.237  0.4388  0.6114 -0.1542
  376TIP3    H122619   6.265   1.371   5.317  0.9539  1.1460  0.0059
  376TIP3    H222620   6.332   1.254   5.246  1.5931  0.9378  0.9406
  377TIP3   OH222621   0.538   4.130   3.651 -0.7371 -0.1537 -0.2784
  377TIP3    H122622   0.453   4.089   3.636 -1.1593  1.2999 -2.1622
  377TIP3    H222623   0.560   4.170   3.568  0.6770  1.5589  0.8623
  378TIP3   OH222624   6.724   2.642   4.510  0.5490  0.2605  0.4447
  378TIP3    H122625   6.662   2.705   4.473 -1.5570 -1.6055  0.6043
  378TIP3    H222626   6.675   2.596   4.578  3.0246  0.6250  2.6433
  379TIP3   OH222627   5.788   7.192   2.791  0.3965  0.1121  0.5887
  379TIP3    H122628   5.836   7.251   2.734  1.0374  1.2161  2.2052
  379TIP3    H222629   5.696   7.214   2.776  0.5921  0.9171  0.5503
  380TIP3   OH222630   6.831   3.778   5.791 -0.5848  0.3095  0.2254
  380TIP3    H122631   6.924   3.759   5.780 -0.8063 -0.1840 -0.8801
  380TIP3    H222632   6.826   3.824   5.875  0.5415 -0.4534  0.7320
  381TIP3   OH222633   2.279   1.877   5.092  0.4412  0.4993  0.0830
  381TIP3    H122634   2.191   1.858   5.060  0.3362  0.4166  0.4190
  381TIP3    H222635   2.337   1.841   5.024  0.2171  0.9093 -0.3360
  382TIP3   OH222636   2.434   3.173   4.175  0.7164 -0.0887  0.1151
  382TIP3    H122637   2.502   3.123   4.131  1.0151 -1.0419  1.5899
  382TIP3    H222638   2.478   3.218   4.246  0.3355  1.8562 -0.7978
  383TIP3   OH222639   3.695   2.936   3.311 -0.2939  0.5251  0.2407
  383TIP3    H122640   3.647   2.919   3.392 -1.5844 -0.0651 -0.6138
  383TIP3    H222641   3.663   3.021   3.282 -0.7400  0.1898 -0.2631
  384TIP3   OH222642   5.357   3.490   3.724  0.0265  0.0260 -0.4245
  384TIP3    H122643   5.303   3.412   3.739 -0.4618  0.5202  0.4837
  384TIP3    H222644   5.299   3.563   3.743  1.2805  0.5727  1.6072
  385TIP3   OH222645   2.959   5.520  15.061  0.0208 -0.2007  0.3277
  385TIP3    H122646   3.054   5.525  15.069  0.0691  1.6665 -0.7979
  385TIP3    H222647   2.944   5.447  15.001  0.5629 -1.8849  2.1023
  386TIP3   OH222648   6.104   1.085   2.952  0.7789  0.0908 -0.1007
  386TIP3    H122649   6.148   1.003   2.971  2.6827  0.9180 -0.7521
  386TIP3    H222650   6.053   1.067   2.872 -1.0808 -1.1810  1.2802
  387TIP3   OH222651   3.753   4.096   4.225  0.5453 -0.1064  0.0784
  387TIP3    H122652   3.745   4.125   4.134 -0.0569 -1.4797 -0.3279
  387TIP3    H222653   3.755   4.177   4.276  1.3988  0.7022 -1.1857
  388TIP3   OH222654   3.265   3.488   4.631  0.5160 -0.4766  0.0900
  388TIP3    H122655   3.229   3.483   4.720  0.9773  2.6441  0.5456
  388TIP3    H222656   3.194   3.527   4.579  1.9310  2.6794  0.3155
  389TIP3   OH222657   2.513   4.260   2.506  0.0934  0.1235  0.8619
  389TIP3    H122658   2.584   4.246   2.442  0.5980  1.2546  1.1604
  389TIP3    H222659   2.531   4.197   2.575 -0.0959 -0.6777  0.2003
  390TIP3   OH222660   5.349   2.949   1.971 -0.7054 -0.3006 -0.0568
  390TIP3    H122661   5.388   3.001   1.900 -0.4705 -1.1621 -0.5674
  390TIP3    H222662   5.381   2.990   2.051 -2.0088  1.5105 -0.3916
  391TIP3   OH222663   0.296   6.293   4.440 -0.0574  0.3041  0.4096
  391TIP3    H122664   0.342   6.357   4.386 -0.3543  0.1784  0.0057
  391TIP3    H222665   0.221   6.340   4.476  0.5881  0.6203  1.3847
  392TIP3   OH222666   2.572   5.336   0.799 -0.2231 -0.0813 -0.2196
  392TIP3    H122667   2.582   5.245   0.773  1.2809 -0.1288  0.4473
  392TIP3    H222668   2.489   5.363   0.760 -1.6304 -2.2529  1.0733
  393TIP3   OH222669   4.572   5.210   4.637  0.2692 -0.4252  0.0699
  393TIP3    H122670   4.593   5.158   4.560 -0.1984  1.1553 -1.1894
  393TIP3    H222671   4.651   5.261   4.655 -0.3186  0.8367 -0.7661
  394TIP3   OH222672   0.068   7.159   4.103  0.5911  0.0511 -0.1065
  394TIP3    H122673   0.095   7.216   4.031  0.1548  1.5636  0.8609
  394TIP3    H222674   0.062   7.072   4.065  1.0995  0.6821 -1.7041
  395TIP3   OH222675   1.324   3.187   0.930  0.9763  0.6529 -0.0741
  395TIP3    H122676   1.384   3.239   0.985  1.0384  0.8650 -0.3390
  395TIP3    H222677   1.239   3.196   0.973  1.4852 -1.3794  1.5244
  396TIP3   OH222678   6.413   6.652   4.050  0.1054  1.2832 -0.3507
  396TIP3    H122679   6.468   6.624   4.123  0.8248 -1.9726 -1.9582
  396TIP3    H222680   6.427   6.746   4.044  1.9889  1.2517  2.1000
  397TIP3   OH222681   3.998   0.933   3.324 -0.3155  0.2492 -0.7841
  397TIP3    H122682   4.082   0.901   3.358 -0.6026  0.1096 -0.1803
  397TIP3    H222683   4.018   1.017   3.284  0.4680 -0.6616 -2.4135
  398TIP3   OH222684   5.736   6.197   1.642 -0.2969  0.1440  0.1257
  398TIP3    H122685   5.800   6.130   1.617 -1.6070 -0.2160 -2.6213
  398TIP3    H222686   5.661   6.147   1.673 -0.7673  0.3623 -0.6358
  399TIP3   OH222687   2.393   2.149   5.082  0.0986  0.1846 -0.2195
  399TIP3    H122688   2.413   2.154   5.176  0.3707  0.0037 -0.2701
  399TIP3    H222689   2.359   2.061   5.069  1.8685 -0.4797 -0.6451
  400TIP3   OH222690   5.762   6.591   3.354 -0.1834 -0.3068 -0.8410
  400TIP3    H122691   5.776   6.640   3.274 -0.6870 -0.5605 -1.0880
  400TIP3    H222692   5.753   6.657   3.422  0.1497 -0.0909 -1.0041
  401TIP3   OH222693   0.379   4.232   2.721  0.5557  0.0591  0.2474
  401TIP3    H122694   0.456   4.191   2.681  0.4117 -0.3872  0.4298
  401TIP3    H222695   0.316   4.239   2.649  0.3854 -0.5247  0.3357
  402TIP3   OH222696   1.065   1.125   4.411  0.4619 -0.0536 -0.3612
  402TIP3    H122697   1.145   1.088   4.448  1.3438  1.0110 -1.1410
  402TIP3    H222698   1.078   1.220   4.416 -0.8479  0.1379 -0.3019
  403TIP3   OH222699   5.271   1.114   2.587 -0.0300 -0.0228  0.0542
  403TIP3    H122700   5.211   1.117   2.512 -0.1253  1.5243  0.1619
  403TIP3    H222701   5.319   1.032   2.575 -2.2322 -1.4117  0.0421
  404TIP3   OH222702   4.346   4.606   4.990 -0.1520  0.0111  0.3009
  404TIP3    H122703   4.420   4.663   4.968 -0.4607 -0.5596 -2.7498
  404TIP3    H222704   4.386   4.522   5.011  0.1439  0.1593  0.3357
  405TIP3   OH222705   2.317   0.011   3.980  0.0143  0.2001 -0.4332
  405TIP3    H122706   2.256   0.018   4.053  0.5381  0.7330 -0.0393
  405TIP3    H222707   2.308   0.094   3.932 -0.4685 -0.2225 -1.0938
  406TIP3   OH222708   0.420   1.502   5.864 -0.2086  0.1545 -0.5229
  406TIP3    H122709   0.490   1.477   5.804 -0.8829  0.1490 -1.3260
  406TIP3    H222710   0.340   1.483   5.817 -0.7971  3.2146 -0.9726
  407TIP3   OH222711   4.463   0.190   4.152 -0.5227 -0.2338 -0.0144
  407TIP3    H122712   4.543   0.177   4.101 -1.6728 -1.9574 -1.5064
  407TIP3    H222713   4.424   0.270   4.118 -0.7582 -0.8250 -1.1682
  408TIP3   OH222714   1.209   5.275   3.903  0.0433  0.2390 -0.1944
  408TIP3    H122715   1.219   5.180   3.914  3.8459  0.6010  0.9177
  408TIP3    H222716   1.226   5.290   3.810  0.0625 -0.1250 -0.2541
  409TIP3   OH222717   0.273   5.985   0.506 -0.1243  0.1803  0.1119
  409TIP3    H122718   0.352   5.938   0.532 -0.0858  0.4089  0.4258
  409TIP3    H222719   0.304   6.074   0.487  0.0993 -0.3387 -2.2229
  410TIP3   OH222720   3.134   5.912   4.303 -0.1193  0.4443 -0.2066
  410TIP3    H122721   3.196   5.840   4.294 -2.4161 -1.6005 -0.8464
  410TIP3    H222722   3.120   5.920   4.397  0.8097  0.6787 -0.0809
  411TIP3   OH222723   3.068   0.693   3.774  0.3920  0.3531 -0.1071
  411TIP3    H122724   3.033   0.778   3.801  0.2599  1.0087 -2.1523
  411TIP3    H222725   3.056   0.637   3.851  2.0043  2.5639  1.9067
  412TIP3   OH222726   1.813   5.508   2.213 -0.3303  0.0093 -0.5752
  412TIP3    H122727   1.765   5.464   2.143 -0.1377  0.0293 -0.7222
  412TIP3    H222728   1.905   5.494   2.191 -0.1845 -2.4126  1.1498
  413TIP3   OH222729   4.151   4.522   1.109  0.3119  0.2574 -0.3465
  413TIP3    H122730   4.212   4.596   1.120  1.6680 -0.9820  0.8666
  413TIP3    H222731   4.200   4.446   1.141 -0.9476 -1.2349 -1.7952
  414TIP3   OH222732   0.079   2.458   4.175 -0.0612 -0.1814 -0.5806
  414TIP3    H122733   0.039   2.374   4.152 -0.0454 -0.3611  0.0399
  414TIP3    H222734   0.048   2.519   4.108 -0.4579 -0.5712 -0.7534
  415TIP3   OH222735   7.053   0.256   5.094 -0.0856  0.9164  0.1874
  415TIP3    H122736   7.074   0.238   5.186 -1.0578  2.2189  0.6843
  415TIP3    H222737   7.137   0.278   5.055  0.4978 -0.5846  0.5017
  416TIP3   OH222738   6.091   7.108   2.814 -0.2764  0.0738  0.0199
  416TIP3    H122739   6.092   7.020   2.851  0.0731  0.8831  2.0396
  416TIP3    H222740   6.055   7.164   2.883 -0.4381  1.5415 -1.1892
  417TIP3   OH222741   5.907   1.201   3.853 -0.0643 -0.1824  0.1227
  417TIP3    H122742   5.986   1.197   3.800 -0.7423 -3.1638 -0.8683
  417TIP3    H222743   5.920   1.133   3.920 -0.7930  0.9854  1.5255
  418TIP3   OH222744   1.998   6.543   2.652  0.1747 -0.0030  0.1336
  418TIP3    H122745   2.046   6.518   2.731 -0.7181 -1.4109  0.2505
  418TIP3    H222746   2.042   6.496   2.582  0.1332  0.2012 -0.0292
  419TIP3   OH222747   2.548   2.277   0.493 -0.3214  0.3885  0.2881
  419TIP3    H122748   2.630   2.324   0.479 -0.7457  1.2274  0.5856
  419TIP3    H222749   2.546   2.212   0.422  0.0776  1.0848 -0.3746
  420TIP3   OH222750   3.528   2.324   3.335  0.2890 -0.4683 -0.6006
  420TIP3    H122751   3.493   2.407   3.369 -1.2381 -1.5219  0.5810
  420TIP3    H222752   3.602   2.305   3.392 -0.6958 -0.9433  0.5885
  421TIP3   OH222753   3.734   0.144   1.097  0.1502  0.3121 -0.8172
  421TIP3    H122754   3.731   0.050   1.083 -1.5750 -0.0515  1.4295
  421TIP3    H222755   3.650   0.176   1.062  0.7167  1.0397 -1.5493
  422TIP3   OH222756   6.366   2.320  14.843 -0.6199 -0.1625 -0.0195
  422TIP3    H122757   6.407   2.276  14.768 -0.6744 -0.5881  0.1981
  422TIP3    H222758   6.403   2.409  14.842 -1.7638  0.3466 -1.4669
  423TIP3   OH222759   3.275   6.060  15.226  0.1160  0.3198  0.0568
  423TIP3    H122760   3.305   6.140  15.268 -0.8481 -0.4051  2.2949
  423TIP3    H222761   3.228   6.013  15.295  0.5429 -2.1181 -1.2066
  424TIP3   OH222762   2.184   5.700   2.053 -0.0397  0.3159  0.0166
  424TIP3    H122763   2.094   5.688   2.021  0.0679  3.0449 -1.5646
  424TIP3    H222764   2.176   5.697   2.148 -1.7545  0.2365 -0.0996
  425TIP3   OH222765   3.978   1.130   2.448  0.1245 -0.0292 -0.0762
  425TIP3    H122766   4.000   1.222   2.434 -1.1183  0.1073 -1.3554
  425TIP3    H222767   4.017   1.109   2.533  0.3962  1.6840  0.2677
  426TIP3   OH222768   2.870   2.924   0.087  0.3059 -0.3217  0.4820
  426TIP3    H122769   2.838   2.891   0.003 -1.8977  0.6862  0.8559
  426TIP3    H222770   2.918   2.851   0.124 -0.9551 -1.7157 -0.5009
  427TIP3   OH222771   6.449   6.857   3.237  0.2376 -0.0801 -0.1544
  427TIP3    H122772   6.539   6.861   3.269  1.0783 -2.7882 -1.8261
  427TIP3    H222773   6.400   6.817   3.309  1.3067 -2.5178 -0.6875
  428TIP3   OH222774   0.685   3.974   3.305 -0.1303 -0.2891 -0.3524
  428TIP3    H122775   0.664   4.063   3.332 -0.1509 -0.5515  0.5053
  428TIP3    H222776   0.685   3.978   3.209 -2.7376  0.0300 -0.4034
  429TIP3   OH222777   4.930   6.563  15.132 -0.3750  0.2596 -0.6590
  429TIP3    H122778   4.878   6.643  15.140  0.5650  0.6631  3.8594
  429TIP3    H222779   5.014   6.593  15.095 -0.4884  1.1571 -0.2189
  430TIP3   OH222780   1.436   3.996  12.476 -0.6125 -0.2754  0.0042
  430TIP3    H122781   1.388   4.041  12.407 -0.5222  0.7062  0.5617
  430TIP3    H222782   1.525   4.033  12.471 -0.3753 -0.8254  0.0932
  431TIP3   OH222783   5.198   1.808   3.511 -0.1167 -0.3822  0.0525
  431TIP3    H122784   5.175   1.746   3.442 -0.4802  0.7127 -0.8490
  431TIP3    H222785   5.274   1.855   3.476 -0.5528  0.4590  0.2047
  432TIP3   OH222786   2.029   6.300   9.459 -0.1578  0.2603  0.9143
  432TIP3    H122787   1.969   6.303   9.385 -0.1889  1.8560  0.9879
  432TIP3    H222788   2.037   6.206   9.479  0.7708 -0.3344 -1.8398
  433TIP3   OH222789   7.169   5.720  10.255 -0.4989  0.5471  0.5141
  433TIP3    H122790   7.192   5.722  10.348 -1.3516 -0.4688  0.7679
  433TIP3    H222791   7.239   5.670  10.213 -0.8257 -0.2086  0.8488
  434TIP3   OH222792   4.886   3.015  11.373 -0.0785 -0.0045  0.7403
  434TIP3    H122793   4.950   3.012  11.302 -1.5773 -1.5523 -0.6646
  434TIP3    H222794   4.938   3.023  11.452  1.7552  0.2986 -0.4365
  435TIP3   OH222795   6.309   6.226  10.339  0.4802  0.0498 -0.0386
  435TIP3    H122796   6.246   6.155  10.333  2.4034 -1.7031 -0.5321
  435TIP3    H222797   6.305   6.270  10.254 -1.2819  1.1093  0.5423
  436TIP3   OH222798   1.694   1.279   9.906  0.1164 -0.3522  0.3562
  436TIP3    H122799   1.759   1.304   9.972  0.6033 -0.7007  0.0122
  436TIP3    H222800   1.727   1.315   9.824 -1.2190  1.3422  0.5163
  437TIP3   OH222801   1.804   3.051  12.093 -0.4440  0.7840  0.5313
  437TIP3    H122802   1.829   2.968  12.133  2.8847  0.3334 -2.0692
  437TIP3    H222803   1.762   3.026  12.010  0.4432  1.6369 -0.2011
  438TIP3   OH222804   1.337   2.438   9.557  0.4412  0.0751  0.0575
  438TIP3    H122805   1.427   2.442   9.591  0.4165 -1.6249  0.3747
  438TIP3    H222806   1.290   2.506   9.607  1.6083  1.2720 -0.4015
  439TIP3   OH222807   5.245   0.464  10.903  0.2069 -0.2022 -0.1516
  439TIP3    H122808   5.259   0.418  10.821 -0.7527 -0.6327 -0.0866
  439TIP3    H222809   5.185   0.535  10.880 -0.4821 -0.6375  0.2639
  440TIP3   OH222810   3.249   3.194  11.650 -0.1926  0.0611 -0.3031
  440TIP3    H122811   3.197   3.114  11.659  1.3741 -0.8904  0.8023
  440TIP3    H222812   3.187   3.265  11.667 -1.5989 -0.8894 -1.2153
  441TIP3   OH222813   1.297   6.378  11.837  0.9771 -0.3847 -0.1085
  441TIP3    H122814   1.249   6.461  11.836  3.1993  1.0575  2.3169
  441TIP3    H222815   1.277   6.339  11.922  1.3088 -1.5083 -0.5291
  442TIP3   OH222816   1.078   4.444  10.253 -0.3890 -0.2446  0.7626
  442TIP3    H122817   1.151   4.447  10.192 -1.1466  1.5204 -0.1236
  442TIP3    H222818   1.027   4.367  10.227  0.5507 -0.8523  0.6937
  443TIP3   OH222819   3.656   4.876  11.016  0.2199 -0.4338  0.3694
  443TIP3    H122820   3.656   4.811  11.086  3.2044 -1.0719 -0.0653
  443TIP3    H222821   3.566   4.878  10.984 -0.2810 -3.3318  1.3435
  444TIP3   OH222822   5.056   4.829   9.558  0.2258  0.1517  0.3116
  444TIP3    H122823   4.980   4.882   9.533  0.0876 -0.6267 -1.0417
  444TIP3    H222824   5.049   4.819   9.652 -0.8208  0.8955  0.3325
  445TIP3   OH222825   6.906   5.185  10.055 -0.4046 -0.2385 -0.3513
  445TIP3    H122826   6.983   5.159  10.106  0.3924  2.1550 -0.1994
  445TIP3    H222827   6.893   5.113   9.993  2.2011 -0.5721 -0.6210
  446TIP3   OH222828   0.786   2.340  10.491  0.1096  0.4279  0.0004
  446TIP3    H122829   0.828   2.371  10.410  2.0423  0.5604  0.9980
  446TIP3    H222830   0.822   2.252  10.504  0.8543  0.9052  1.3781
  447TIP3   OH222831   3.395   1.170  13.222  0.2577  0.0337 -0.4027
  447TIP3    H122832   3.473   1.169  13.277 -1.3129 -1.2378  1.9749
  447TIP3    H222833   3.429   1.164  13.132  2.8773  0.1554  0.4931
  448TIP3   OH222834   2.444   3.101  10.271  0.2947 -0.4819  0.4950
  448TIP3    H122835   2.516   3.096  10.334  0.2868  0.7906  0.6252
  448TIP3    H222836   2.486   3.119  10.187  0.0908  1.8629  0.8204
  449TIP3   OH222837   1.275   6.589  13.194 -0.1713 -0.0919  0.0740
  449TIP3    H122838   1.306   6.569  13.282 -1.2890  0.8899  0.7332
  449TIP3    H222839   1.269   6.685  13.191  0.7945 -0.0414 -1.4283
  450TIP3   OH222840   1.893   5.140  12.394  0.0259  0.1205  0.2840
  450TIP3    H122841   1.882   5.045  12.407 -1.4882  0.4925  2.1870
  450TIP3    H222842   1.809   5.169  12.360  1.0793  0.5759 -2.0897
  451TIP3   OH222843   4.678   3.675  11.536 -0.6680  0.1790 -0.1796
  451TIP3    H122844   4.621   3.731  11.589  0.6908  1.9656 -0.5251
  451TIP3    H222845   4.676   3.715  11.449  0.5549 -0.1316 -0.3639
  452TIP3   OH222846   1.275   4.106  10.668  0.0199  0.5230  0.3329
  452TIP3    H122847   1.300   4.189  10.629 -0.0678  0.8239  0.9050
  452TIP3    H222848   1.357   4.057  10.675  0.1876  0.8416  0.6425
  453TIP3   OH222849   0.918   5.679  11.273 -0.0535  0.2221 -0.3073
  453TIP3    H122850   0.892   5.663  11.183 -1.3338 -1.6076  0.3377
  453TIP3    H222851   0.981   5.610  11.293  0.1768  0.5778  0.2139
  454TIP3   OH222852   3.642   2.807  11.788 -0.0922  0.4806 -0.2028
  454TIP3    H122853   3.711   2.784  11.726 -0.4635  1.3624 -0.9572
  454TIP3    H222854   3.655   2.747  11.862  0.2969 -0.6577 -1.1659
  455TIP3   OH222855   1.479   3.947  12.009 -0.1821 -0.2622  0.2546
  455TIP3    H122856   1.447   3.961  12.098 -0.3507  0.6406  0.0583
  455TIP3    H222857   1.543   3.876  12.018 -1.6143 -1.5469  0.7734
  456TIP3   OH222858   4.437   6.602   0.674  0.0957 -0.3361 -0.4705
  456TIP3    H122859   4.476   6.626   0.589 -0.0751 -3.0978 -1.4324
  456TIP3    H222860   4.460   6.510   0.686 -2.2993 -0.8257  1.1236
  457TIP3   OH222861   1.804   3.792  11.266  0.1588  0.5793 -0.1955
  457TIP3    H122862   1.798   3.805  11.361  1.0155  0.8951 -0.1687
  457TIP3    H222863   1.789   3.879  11.229  2.1745  0.9777 -0.2101
  458TIP3   OH222864   5.162   6.030  10.101 -0.0306 -0.7828 -0.3586
  458TIP3    H122865   5.166   5.937  10.120  0.0197 -1.4315 -3.1047
  458TIP3    H222866   5.192   6.037  10.010 -0.1121  1.9098 -0.2573
  459TIP3   OH222867   1.939   1.106  11.030  0.3039 -0.1063 -0.0337
  459TIP3    H122868   2.031   1.081  11.036 -0.2929 -2.8653 -0.7445
  459TIP3    H222869   1.922   1.113  10.936 -0.8107 -2.4862 -0.0706
  460TIP3   OH222870   6.544   5.373  11.400 -0.1542  0.3630 -0.2825
  460TIP3    H122871   6.632   5.355  11.367  0.6461  0.2116  1.7937
  460TIP3    H222872   6.495   5.402  11.323  1.5019 -0.2379 -1.6211
  461TIP3   OH222873   7.122   3.559   0.822  0.2847 -0.3856 -0.4655
  461TIP3    H122874   7.119   3.537   0.915 -2.3541 -1.1909 -0.6737
  461TIP3    H222875   7.159   3.481   0.780  2.5597  0.3947 -0.0675
  462TIP3   OH222876   0.744   4.049  14.157 -0.1204 -0.5389 -0.0750
  462TIP3    H122877   0.681   4.116  14.184  1.0233 -0.5934  3.1112
  462TIP3    H222878   0.802   4.095  14.095  0.2972  1.3236  1.5965
  463TIP3   OH222879   5.754   1.478  11.081 -0.5607 -0.2468  0.1445
  463TIP3    H122880   5.779   1.570  11.083 -1.7180  0.1409 -1.3177
  463TIP3    H222881   5.690   1.472  11.010 -1.1177 -2.0282  0.7421
  464TIP3   OH222882   2.995   0.933  11.280 -0.0243  0.0462 -0.5729
  464TIP3    H122883   2.910   0.958  11.244  0.2044  0.6701 -0.6856
  464TIP3    H222884   2.999   0.838  11.268 -0.7703 -0.0065 -0.4179
  465TIP3   OH222885   4.003   3.465   2.879 -0.1435 -0.3073  0.5935
  465TIP3    H122886   3.945   3.412   2.824 -0.8574  0.6012  0.4418
  465TIP3    H222887   4.039   3.531   2.820  1.6884 -1.3111  0.5101
  466TIP3   OH222888   6.844   4.100  11.155  0.4803 -0.2311  0.0994
  466TIP3    H122889   6.795   4.073  11.233 -0.9541 -1.1262 -1.0494
  466TIP3    H222890   6.793   4.065  11.082  1.6859  0.7346 -1.2585
  467TIP3   OH222891   5.395   5.292  13.296 -0.2761  0.2025 -0.1619
  467TIP3    H122892   5.356   5.204  13.288  0.3797 -0.1937  0.8363
  467TIP3    H222893   5.433   5.293  13.384 -2.1341  2.2441  0.7136
  468TIP3   OH222894   3.282   5.239  10.861 -0.3618  0.0555 -0.1890
  468TIP3    H122895   3.281   5.325  10.902  2.0961  0.5161 -0.9163
  468TIP3    H222896   3.240   5.181  10.925  0.2356  1.3428  1.4392
  469TIP3   OH222897   0.315   3.443  12.302 -0.0088 -0.6551 -0.8164
  469TIP3    H122898   0.342   3.454  12.211 -0.3899 -0.5655 -0.9215
  469TIP3    H222899   0.247   3.509  12.315 -0.7321 -1.3860 -0.7977
  470TIP3   OH222900   5.334   1.134  11.671 -0.0232  0.4073 -0.2532
  470TIP3    H122901   5.328   1.176  11.757  0.4575  0.6295 -0.3296
  470TIP3    H222902   5.308   1.202  11.609  0.7348  0.6016 -0.3743
  471TIP3   OH222903   5.681   2.015   1.561 -0.1312  0.7684 -0.4605
  471TIP3    H122904   5.595   1.997   1.525 -0.5780 -0.8145  1.1985
  471TIP3    H222905   5.668   2.015   1.656  1.5723  1.1506 -0.1822
  472TIP3   OH222906   1.636   5.962  11.404  0.2819 -0.9695 -0.1730
  472TIP3    H122907   1.626   5.959  11.309 -1.2219 -1.3580 -0.0363
  472TIP3    H222908   1.729   5.979  11.418  0.0930  2.1563 -1.7699
  473TIP3   OH222909   6.436   3.906  14.598 -0.4803 -0.2038 -0.1229
  473TIP3    H122910   6.345   3.894  14.624 -0.5092  0.6421  0.1839
  473TIP3    H222911   6.431   3.944  14.510 -0.4334  0.3986  0.1331
  474TIP3   OH222912   4.472   2.677   2.652  0.4337 -0.8044 -0.1037
  474TIP3    H122913   4.546   2.726   2.616 -0.4992  1.5257  0.9641
  474TIP3    H222914   4.441   2.623   2.579  1.6761 -0.0275 -1.2574
  475TIP3   OH222915   6.554   2.031  14.389 -0.0007  0.0643 -0.6663
  475TIP3    H122916   6.627   2.044  14.328  0.5854  0.0719  0.0108
  475TIP3    H222917   6.575   1.950  14.435 -2.1001 -1.7720 -2.7281
  476TIP3   OH222918   6.773   3.362  13.143 -0.7535 -0.3967  0.1813
  476TIP3    H122919   6.721   3.363  13.223 -0.7340  1.0924  0.1933
  476TIP3    H222920   6.715   3.324  13.077 -1.6841  0.7472  0.3137
  477TIP3   OH222921   5.903   6.917  11.621 -0.9895  0.1878  0.2960
  477TIP3    H122922   5.993   6.926  11.588 -1.3362 -0.5082 -0.9027
  477TIP3    H222923   5.855   6.876  11.549 -2.4853  1.3531  0.5867
  478TIP3   OH222924   5.385   5.320  12.376 -0.4606 -0.2385  0.3163
  478TIP3    H122925   5.394   5.231  12.409  1.5362 -0.0795  0.2850
  478TIP3    H222926   5.303   5.319  12.327 -2.0836 -1.2255  2.8672
  479TIP3   OH222927   6.057   0.565  11.790  0.5420  0.1345  0.0758
  479TIP3    H122928   5.975   0.590  11.747  0.4223 -0.6295 -0.1565
  479TIP3    H222929   6.060   0.469  11.782  1.7004  0.1913 -0.3716
  480TIP3   OH222930   2.806   0.937  15.059  0.2210  0.2808  0.0991
  480TIP3    H122931   2.778   0.849  15.034 -0.0951 -0.2630  2.1598
  480TIP3    H222932   2.760   0.954  15.141  0.7756  2.1246  0.0746
  481TIP3   OH222933   2.820   5.158  10.144 -0.7968 -0.5403 -0.7115
  481TIP3    H122934   2.733   5.198  10.147 -0.3833  0.4894 -1.7224
  481TIP3    H222935   2.816   5.087  10.209 -1.1350  1.9843  2.2979
  482TIP3   OH222936   3.903   5.607  10.853 -0.0925 -0.1197 -0.4001
  482TIP3    H122937   3.927   5.573  10.766  0.9576 -2.2801  0.6451
  482TIP3    H222938   3.811   5.583  10.863 -0.2413  0.2063 -0.9247
  483TIP3   OH222939   4.914   0.478  14.247 -0.1757 -0.0911 -0.6961
  483TIP3    H122940   4.968   0.545  14.288  0.1603 -0.0807 -1.1538
  483TIP3    H222941   4.963   0.450  14.170 -0.8164 -0.0763 -1.1230
  484TIP3   OH222942   3.636   0.686  13.023  0.0612 -0.0471  0.2937
  484TIP3    H122943   3.592   0.743  13.086 -1.2163  0.4283 -0.9692
  484TIP3    H222944   3.712   0.736  12.994 -0.8310  0.9165 -0.5048
  485TIP3   OH222945   0.889   5.594   9.606 -0.3802 -0.2227 -0.4018
  485TIP3    H122946   0.875   5.645   9.686 -1.0588  0.7747 -1.1301
  485TIP3    H222947   0.851   5.648   9.536  2.9277  0.4504 -1.8929
  486TIP3   OH222948   6.789   3.986  11.806 -0.5284  0.4468 -0.2352
  486TIP3    H122949   6.710   4.033  11.780 -0.0176  1.8772  0.6647
  486TIP3    H222950   6.850   4.000  11.733 -1.3386 -1.4146 -1.3480
  487TIP3   OH222951   6.160   7.204  14.936  0.4690 -0.0550 -0.2649
  487TIP3    H122952   6.213   7.124  14.933 -0.0325 -0.3996 -0.0593
  487TIP3    H222953   6.133   7.211  15.028  0.6305  0.4347 -0.2522
  488TIP3   OH222954   4.433   1.086  14.285 -0.1713 -0.7192 -0.4968
  488TIP3    H122955   4.397   1.069  14.198 -0.0070 -0.2144 -0.6708
  488TIP3    H222956   4.376   1.038  14.345 -0.0407 -1.4117 -0.9139
  489TIP3   OH222957   2.410   0.580   9.824  0.0326 -0.0876 -0.0048
  489TIP3    H122958   2.437   0.671   9.807 -1.5945  0.7991  1.7013
  489TIP3    H222959   2.439   0.531   9.748 -0.2017  2.1347 -1.6095
  490TIP3   OH222960   3.529   4.328  10.778  0.5582 -0.2320  0.0318
  490TIP3    H122961   3.519   4.287  10.693  0.0689  0.1238 -0.0878
  490TIP3    H222962   3.622   4.350  10.784  0.4527  0.4398 -0.7323
  491TIP3   OH222963   5.964   1.278  13.192 -0.3448 -0.4152  0.4587
  491TIP3    H122964   6.046   1.308  13.231  0.2045 -2.0152  0.5900
  491TIP3    H222965   5.925   1.357  13.156  1.4887  0.3139 -0.0372
  492TIP3   OH222966   2.947   0.509  12.400  0.4365 -0.6600 -0.1095
  492TIP3    H122967   2.901   0.508  12.316  0.7982  1.1892 -0.3693
  492TIP3    H222968   2.946   0.600  12.428 -0.5633 -1.3681  2.4419
  493TIP3   OH222969   1.958   3.974  11.499 -0.5417  0.4341 -0.6771
  493TIP3    H122970   1.886   3.985  11.561 -0.9937  1.6162 -1.3687
  493TIP3    H222971   1.935   4.032  11.426  0.7749  0.3120 -1.2093
  494TIP3   OH222972   7.113   5.617  11.353 -0.1807 -0.3061  0.1755
  494TIP3    H122973   7.118   5.693  11.410 -1.6834 -0.7716  0.9924
  494TIP3    H222974   7.193   5.620  11.301  0.6905  0.7486  1.5271
  495TIP3   OH222975   5.964   6.628  11.376 -0.2907  0.1951 -0.0546
  495TIP3    H122976   5.900   6.564  11.345 -0.6075  0.7375 -0.5370
  495TIP3    H222977   5.916   6.684  11.437 -0.1387  0.2760 -0.0065
  496TIP3   OH222978   2.892   0.723  10.223  0.1155  0.7841  0.1519
  496TIP3    H122979   2.916   0.761  10.307  0.6577  1.3363 -0.2476
  496TIP3    H222980   2.804   0.688  10.237  0.4981  0.2128  1.1504
  497TIP3   OH222981   1.694   0.025   9.229  0.2657  0.4915  0.2643
  497TIP3    H122982   1.695  -0.067   9.258  2.5740  0.1541 -0.6455
  497TIP3    H222983   1.669   0.021   9.137 -0.6331  0.9008  0.4819
  498TIP3   OH222984   6.588   4.471  12.731  0.9320  0.1496  0.0436
  498TIP3    H122985   6.572   4.565  12.741  0.8150  0.2369 -0.8843
  498TIP3    H222986   6.548   4.448  12.647  2.6457 -0.3184 -0.7015
  499TIP3   OH222987   0.641   1.888   9.007 -0.2435  0.0074  0.4755
  499TIP3    H122988   0.682   1.807   8.977  0.9450  0.9705 -0.6521
  499TIP3    H222989   0.677   1.902   9.094  0.5880 -0.0097  0.1457
  500TIP3   OH222990   0.352   1.457  11.520  0.0718  0.2243 -0.6475
  500TIP3    H122991   0.384   1.452  11.430 -1.1397  1.4229 -1.1698
  500TIP3    H222992   0.291   1.531  11.520  0.2608  0.4150  1.2281
  501TIP3   OH222993   3.899   6.210  14.993  0.1584  0.2902 -0.3280
  501TIP3    H122994   3.965   6.175  14.934 -0.6266 -1.6942 -0.1090
  501TIP3    H222995   3.931   6.297  15.017  1.1573  0.6053 -2.5699
  502TIP3   OH222996   2.390   3.399  10.145  0.5965 -0.0308  0.1944
  502TIP3    H122997   2.369   3.391  10.238  0.9177 -0.0394  0.2680
  502TIP3    H222998   2.475   3.445  10.143  0.8491 -0.4993 -0.0712
  503TIP3   OH222999   2.676   0.324   0.937 -0.1734 -0.1047  0.5065
  503TIP3    H123000   2.738   0.346   1.005  0.9831 -2.1707  0.1952
  503TIP3    H223001   2.611   0.269   0.980 -0.4081  0.0004  0.2925
  504TIP3   OH223002   0.892   0.369  10.125  0.7392 -0.0421  0.1604
  504TIP3    H123003   0.945   0.330  10.056  1.9281  0.0876  0.9602
  504TIP3    H223004   0.938   0.451  10.147 -1.4286  1.6114 -1.1516
  505TIP3   OH223005   1.599   0.000  15.105 -0.1464  0.0698 -0.0309
  505TIP3    H123006   1.538  -0.053  15.155  0.7216  0.2051  1.2135
  505TIP3    H223007   1.561   0.088  15.104 -0.7152 -0.1805 -0.5778
  506TIP3   OH223008   0.529   2.099  10.052 -0.3502 -0.3189  0.2423
  506TIP3    H123009   0.512   2.005  10.043  0.5688 -0.4219 -0.5056
  506TIP3    H223010   0.616   2.112  10.017 -1.1512  1.1009 -1.3810
  507TIP3   OH223011   0.967   4.622  13.687  0.5408 -0.3343  0.6143
  507TIP3    H123012   0.993   4.530  13.686 -1.3041 -0.9011 -0.7743
  507TIP3    H223013   0.898   4.626  13.753 -1.0135 -0.5009 -0.9278
  508TIP3   OH223014   7.009   3.423   0.050  0.6724 -0.4182 -0.2764
  508TIP3    H123015   6.951   3.442  -0.024  1.1590  0.6139 -0.4090
  508TIP3    H223016   6.954   3.375   0.112 -0.0752 -0.2391 -0.7873
  509TIP3   OH223017   6.496   0.573  14.204  0.0737  0.2889 -1.3142
  509TIP3    H123018   6.460   0.487  14.183 -2.3788  1.0488 -0.6535
  509TIP3    H223019   6.500   0.575  14.300 -0.3296  1.0509 -1.3061
  510TIP3   OH223020   2.434   6.765  10.440 -0.5921 -0.1505  0.3977
  510TIP3    H123021   2.401   6.680  10.471 -0.7912 -0.2379 -0.0430
  510TIP3    H223022   2.476   6.804  10.516 -0.3951 -0.6980  0.5742
  511TIP3   OH223023   3.072   6.007  11.604 -0.2266 -0.4113  0.3312
  511TIP3    H123024   3.107   6.093  11.581 -0.7012 -0.3138 -0.0491
  511TIP3    H223025   3.143   5.946  11.583  0.7188  0.0236  2.1482
  512TIP3   OH223026   4.145   6.747  10.425  0.1027  0.4768  0.4397
  512TIP3    H123027   4.125   6.661  10.387  0.8396  0.2094  0.6355
  512TIP3    H223028   4.185   6.796  10.353 -3.2239  1.8525 -0.6795
  513TIP3   OH223029   4.230   5.106   9.921  0.1972 -0.5308  0.0256
  513TIP3    H123030   4.288   5.031   9.906  0.1003 -0.4325 -0.8848
  513TIP3    H223031   4.178   5.112   9.840 -1.4575 -0.9521  1.0054
  514TIP3   OH223032   6.613   6.909   0.943 -0.2779  0.0699  0.0751
  514TIP3    H123033   6.607   6.820   0.978 -3.2779 -0.4590 -1.4752
  514TIP3    H223034   6.537   6.954   0.979 -0.9002  0.8530 -2.0928
  515TIP3   OH223035   4.920   2.744   9.990  0.2596 -0.0174 -0.1920
  515TIP3    H123036   4.892   2.713  10.076  0.4620  1.0181  0.2635
  515TIP3    H223037   4.893   2.675   9.929  0.4104 -0.9203  0.7368
  516TIP3   OH223038   5.706   2.070   0.091  0.3138  0.0756  0.3741
  516TIP3    H123039   5.634   2.037   0.145 -0.8069 -0.9631 -1.6424
  516TIP3    H223040   5.670   2.146   0.047 -0.3146 -1.5627 -2.1433
  517TIP3   OH223041   0.418   0.304  10.018  0.1932  0.5727 -0.1944
  517TIP3    H123042   0.489   0.315   9.955  1.9233  2.9949  1.9731
  517TIP3    H223043   0.447   0.233  10.075 -0.1054  0.1939 -0.5095
  518TIP3   OH223044   1.982   0.493   1.001 -0.1781  0.7386 -0.2207
  518TIP3    H123045   1.899   0.541   0.989 -2.0895 -2.2164  0.1825
  518TIP3    H223046   1.977   0.461   1.091  0.4494 -1.1186 -0.8063
  519TIP3   OH223047   6.395   6.663  14.432  0.5348  0.1702  0.2421
  519TIP3    H123048   6.347   6.706  14.362  0.4204 -0.6581 -0.2047
  519TIP3    H223049   6.347   6.581  14.447 -0.1553  0.8526  2.1085
  520TIP3   OH223050   5.997   1.465  12.341  0.3857  0.0656  0.6748
  520TIP3    H123051   5.908   1.432  12.330  0.7087 -0.5076 -0.2554
  520TIP3    H223052   5.986   1.561  12.343 -0.1928  0.0241 -0.0172
  521TIP3   OH223053   6.245   3.789  10.774  0.3687  0.1828  0.7498
  521TIP3    H123054   6.179   3.854  10.748 -0.6626 -0.5054  1.5592
  521TIP3    H223055   6.329   3.835  10.765 -0.3286  1.6346  1.2855
  522TIP3   OH223056   0.134   1.505  11.190  0.0311  0.3709  0.0661
  522TIP3    H123057   0.197   1.573  11.168 -1.0346  0.9570 -1.3939
  522TIP3    H223058   0.126   1.508  11.285  2.0077  0.4265  0.2592
  523TIP3   OH223059   0.732   6.410   9.495 -0.4087  0.1788  0.2512
  523TIP3    H123060   0.645   6.446   9.479  0.1355  0.7112 -1.8644
  523TIP3    H223061   0.725   6.318   9.466 -0.1695  0.3450 -0.3499
  524TIP3   OH223062   1.470   2.017  11.641 -0.4822 -0.4481 -0.4823
  524TIP3    H123063   1.556   2.054  11.661 -0.3650 -1.2350  0.5771
  524TIP3    H223064   1.411   2.092  11.635 -0.4373 -0.0397  2.5196
  525TIP3   OH223065   0.252   0.820  13.136 -0.1373  0.2128 -0.3167
  525TIP3    H123066   0.263   0.873  13.057  0.2950  0.7720  0.1047
  525TIP3    H223067   0.187   0.755  13.112 -1.0154  1.2070 -0.7263
  526TIP3   OH223068   0.602   3.204  10.317 -0.2325  0.5024 -0.2353
  526TIP3    H123069   0.633   3.289  10.286  0.5421 -0.3821 -2.0603
  526TIP3    H223070   0.625   3.143  10.247  0.3377 -1.4438  1.5253
  527TIP3   OH223071   3.902   6.929  12.069  0.7494  0.5185 -0.3522
  527TIP3    H123072   3.990   6.919  12.032  1.0058 -0.0707  0.3912
  527TIP3    H223073   3.843   6.920  11.993  1.3243  1.1053 -0.8818
  528TIP3   OH223074   2.554   1.613  12.763 -0.2847 -0.5134 -0.3272
  528TIP3    H123075   2.573   1.644  12.674 -0.3714  0.5879  0.0233
  528TIP3    H223076   2.515   1.688  12.806  1.8202 -0.2990  1.3389
  529TIP3   OH223077   7.179   1.851  14.613  0.3233 -0.1494 -0.0570
  529TIP3    H123078   7.197   1.796  14.537 -0.8088 -0.7493  0.0744
  529TIP3    H223079   7.083   1.859  14.614  0.3686  0.4051  0.9166
  530TIP3   OH223080   6.734   2.585   0.886  0.2154 -0.2967  0.2931
  530TIP3    H123081   6.741   2.641   0.809  0.6911  1.0116  1.2375
  530TIP3    H223082   6.713   2.498   0.852  0.9275  0.1390 -1.3274
  531TIP3   OH223083   4.156   3.821  13.978  0.3312 -0.0436 -0.0477
  531TIP3    H123084   4.129   3.908  13.948  1.5067  1.0023  1.7365
  531TIP3    H223085   4.153   3.767  13.899 -0.5206  1.5717 -1.1938
  532TIP3   OH223086   2.968   4.027   9.954  0.4339 -0.3525  0.1055
  532TIP3    H123087   2.948   4.087   9.882 -2.5946 -0.1679  0.9947
  532TIP3    H223088   3.064   4.018   9.951  0.6458  1.5917 -2.3391
  533TIP3   OH223089   3.865   3.341  13.221 -0.3598  0.5903 -0.9145
  533TIP3    H123090   3.793   3.384  13.174 -1.0334  0.6506  0.1446
  533TIP3    H223091   3.899   3.277  13.159 -1.9002 -0.0566 -1.1435
  534TIP3   OH223092   0.734   0.883  10.311 -0.4176  0.6606 -0.3536
  534TIP3    H123093   0.695   0.830  10.380 -2.1776  0.9493 -1.0726
  534TIP3    H223094   0.769   0.818  10.249 -0.1626  0.3924  0.0623
  535TIP3   OH223095   1.742   5.555  10.972 -0.6964  0.1135  0.1752
  535TIP3    H123096   1.831   5.583  10.950 -1.5920  2.1086 -1.2663
  535TIP3    H223097   1.743   5.460  10.963  1.2889  0.1046  0.1887
  536TIP3   OH223098   2.501   2.209  13.431 -0.5146 -0.4586  0.6616
  536TIP3    H123099   2.464   2.171  13.351  2.6171 -1.4059 -0.4924
  536TIP3    H223100   2.494   2.304  13.417 -1.1521 -0.6048 -0.1423
  537TIP3   OH223101   1.473   3.948  11.155 -0.9964  0.0220 -0.1676
  537TIP3    H123102   1.447   3.861  11.125 -1.9303  0.1963  0.0771
  537TIP3    H223103   1.568   3.949  11.149 -1.0691 -0.3155 -2.1137
  538TIP3   OH223104   1.260   2.865  12.523 -0.0026  0.2583  0.7845
  538TIP3    H123105   1.352   2.888  12.528  0.0842 -0.1171  0.9727
  538TIP3    H223106   1.236   2.883  12.432  0.0779  0.9928  0.9057
  539TIP3   OH223107   3.078   0.955  10.448 -0.7240  0.8081  0.4698
  539TIP3    H123108   3.132   0.924  10.376 -3.0831 -0.2935 -0.9442
  539TIP3    H223109   3.137   1.008  10.501  1.4736  0.4376 -1.4501
  540TIP3   OH223110   4.475   3.633  14.288 -0.0303  0.1296 -0.6278
  540TIP3    H123111   4.459   3.673  14.202 -0.5824  0.3215 -0.4378
  540TIP3    H223112   4.416   3.558  14.291 -1.6279  1.3523  0.4319
  541TIP3   OH223113   2.227   1.274  15.331 -0.4565  0.0486  0.2109
  541TIP3    H123114   2.255   1.241  15.246  0.5679 -1.4128  1.0718
  541TIP3    H223115   2.144   1.229  15.348  0.1451 -0.9271  0.6720
  542TIP3   OH223116   2.533   3.311  11.884  0.3276  0.1965 -0.1889
  542TIP3    H123117   2.605   3.346  11.936 -0.7859 -0.9335  2.2708
  542TIP3    H223118   2.564   3.227  11.853  0.4661  0.1942 -0.0493
  543TIP3   OH223119   2.617   4.619  12.328 -0.1203  0.2259 -1.1418
  543TIP3    H123120   2.634   4.695  12.273 -0.3170  0.1609 -1.2902
  543TIP3    H223121   2.586   4.551  12.268 -0.9865  0.3659 -0.8679
  544TIP3   OH223122   1.238   3.396   1.418  0.1208  0.0923 -0.4339
  544TIP3    H123123   1.167   3.343   1.383  0.2361 -1.1528  1.1075
  544TIP3    H223124   1.312   3.336   1.427 -0.5189 -0.3799  3.9082
  545TIP3   OH223125   3.168   5.599   9.562  0.1242  0.6982 -0.3411
  545TIP3    H123126   3.202   5.620   9.649  0.6938 -1.6597  0.0842
  545TIP3    H223127   3.246   5.587   9.508 -0.2263  2.3892 -1.2950
  546TIP3   OH223128   1.179   0.474  11.083 -0.0332 -0.4542 -0.3139
  546TIP3    H123129   1.092   0.445  11.056  0.3170 -0.7866 -1.1284
  546TIP3    H223130   1.182   0.460  11.177 -0.8261 -0.5233 -0.2964
  547TIP3   OH223131   5.208   6.943  14.307  0.2773 -0.6237  0.0604
  547TIP3    H123132   5.124   6.930  14.351 -0.1742  1.6025  0.0085
  547TIP3    H223133   5.272   6.945  14.378 -0.4166  2.6932  0.8078
  548TIP3   OH223134   4.240   5.113  11.032  0.1007 -0.0314  0.4471
  548TIP3    H123135   4.195   5.196  11.016  0.7915  0.2209 -0.3078
  548TIP3    H223136   4.175   5.046  11.010 -0.6538  0.2800  1.6159
  549TIP3   OH223137   2.520   1.379  12.498 -0.0949 -0.4478  0.0769
  549TIP3    H123138   2.575   1.340  12.431  1.6923 -0.9863  1.7596
  549TIP3    H223139   2.530   1.473  12.486  0.4541 -0.5420 -0.2325
  550TIP3   OH223140   5.169   6.475  14.055  0.1700 -0.3276  0.0035
  550TIP3    H123141   5.151   6.381  14.053 -2.9413  0.1419  0.6064
  550TIP3    H223142   5.162   6.503  13.964 -1.8910 -0.3025  0.1146
  551TIP3   OH223143   2.958   3.825   3.245 -0.2154  0.2243 -0.1935
  551TIP3    H123144   2.962   3.895   3.181  2.3700  0.5473  0.1931
  551TIP3    H223145   2.956   3.870   3.330  0.6486 -0.1369  0.0324
  552TIP3   OH223146   2.155   1.669  14.946  0.3823 -0.3487 -0.1276
  552TIP3    H123147   2.233   1.616  14.965  0.3680  0.2990  1.9718
  552TIP3    H223148   2.163   1.745  15.004  0.3226  1.9348 -2.9209
  553TIP3   OH223149   6.412   6.619  11.567 -0.2201 -0.3681  0.1751
  553TIP3    H123150   6.450   6.690  11.516 -4.5310  3.3362  1.3912
  553TIP3    H223151   6.448   6.630  11.655 -1.3226  0.9119  0.5105
  554TIP3   OH223152   3.346   6.167  13.193 -0.2632 -0.6358 -0.0317
  554TIP3    H123153   3.289   6.094  13.168  0.2948 -0.7945 -0.8875
  554TIP3    H223154   3.339   6.228  13.120  0.0444 -0.2820  0.2330
  555TIP3   OH223155   0.725   0.001  13.445  0.1892  0.2954  0.4306
  555TIP3    H123156   0.643  -0.040  13.471 -0.2381 -0.3323 -1.7144
  555TIP3    H223157   0.790  -0.068  13.454  0.0943  0.1677  0.1585
  556TIP3   OH223158   1.064   0.565  10.734  0.2614  0.4375 -0.1203
  556TIP3    H123159   0.991   0.600  10.785  1.0705 -0.5667  1.8134
  556TIP3    H223160   1.120   0.641  10.717 -0.9682  1.1343 -1.2602
  557TIP3   OH223161   5.134   4.102  12.706 -0.3942 -0.5392  0.2066
  557TIP3    H123162   5.157   4.169  12.643  0.5203 -1.1876 -0.1577
  557TIP3    H223163   5.066   4.050  12.663  0.2058 -0.9611 -0.2435
  558TIP3   OH223164   4.588   4.225  12.254  0.3888  0.0899  0.0468
  558TIP3    H123165   4.537   4.194  12.178 -0.5301  1.5261  0.0404
  558TIP3    H223166   4.585   4.320  12.247  0.1072  0.2668  2.0034
  559TIP3   OH223167   4.124   6.881  11.846  0.3086 -0.5812 -0.1869
  559TIP3    H123168   4.148   6.796  11.883  1.5682 -0.8419 -1.5151
  559TIP3    H223169   4.048   6.863  11.790 -0.0042 -0.6559  0.2614
  560TIP3   OH223170   0.216   2.858   9.141 -0.6740  0.4401  0.3829
  560TIP3    H123171   0.238   2.915   9.215 -0.7166  0.3994  0.4267
  560TIP3    H223172   0.273   2.889   9.070 -0.0552 -0.0448  0.6583
  561TIP3   OH223173   3.368   3.352  14.251  0.3621  0.0945  0.4003
  561TIP3    H123174   3.387   3.342  14.344  0.8732  0.7352  0.3646
  561TIP3    H223175   3.429   3.419  14.220  0.4705 -0.3964 -0.4853
  562TIP3   OH223176   2.660   4.838  12.719  0.0982 -0.4797 -0.1706
  562TIP3    H123177   2.602   4.786  12.663  0.8698  1.4551 -3.0233
  562TIP3    H223178   2.748   4.824  12.682  0.9680 -0.5607  1.7985
  563TIP3   OH223179   4.340   1.305  13.581  0.4534 -0.9097  0.7184
  563TIP3    H123180   4.421   1.340  13.544  0.0424  0.3433  0.9682
  563TIP3    H223181   4.363   1.216  13.609  1.3398 -1.1155 -0.5615
  564TIP3   OH223182   0.151   1.889   9.226  0.3927  0.2852 -1.1353
  564TIP3    H123183   0.218   1.957   9.221 -1.3785  2.9103  3.8464
  564TIP3    H223184   0.193   1.817   9.274  0.3412  0.9160 -0.1272
  565TIP3   OH223185   5.587   1.213  10.171  1.1204 -0.1814 -0.0993
  565TIP3    H123186   5.645   1.254  10.235  0.8131 -0.1672  0.1723
  565TIP3    H223187   5.579   1.122  10.201  1.9511 -0.5036 -0.8048
  566TIP3   OH223188   0.822   6.255  10.217 -0.2799  0.0573  0.4470
  566TIP3    H123189   0.826   6.251  10.121  0.7275  1.0601  0.4226
  566TIP3    H223190   0.899   6.306  10.242 -0.0512 -0.9126  1.8536
  567TIP3   OH223191   0.381   3.340  14.896 -0.4328 -0.0397  0.1821
  567TIP3    H123192   0.377   3.347  14.991 -0.2125  0.6410  0.1468
  567TIP3    H223193   0.297   3.302  14.871 -1.6622  2.3538  0.4323
  568TIP3   OH223194   0.024   0.919  12.052 -0.6549 -0.8634 -0.4366
  568TIP3    H123195   0.094   0.854  12.058 -0.9101 -1.2361 -1.3151
  568TIP3    H223196   0.034   0.957  11.964 -1.1340 -0.4356 -0.3138
  569TIP3   OH223197   6.597   4.598  11.982 -0.4114  0.4309 -0.0076
  569TIP3    H123198   6.525   4.625  12.039 -0.1819 -0.2308  0.6066
  569TIP3    H223199   6.662   4.668  11.992  0.1479 -0.2573  1.5281
  570TIP3   OH223200   5.678   5.444  12.298  0.1270  0.7386 -0.5861
  570TIP3    H123201   5.596   5.402  12.325 -0.3824  1.6377 -0.7093
  570TIP3    H223202   5.736   5.371  12.277 -0.7486  0.0946 -0.8281
  571TIP3   OH223203   4.565   6.856  13.850 -0.8823 -0.1555  0.0069
  571TIP3    H123204   4.545   6.949  13.845  2.9746  0.9704  1.7274
  571TIP3    H223205   4.650   6.847  13.806 -0.3896 -2.5598  1.2674
  572TIP3   OH223206   2.386   0.896  13.130  0.1128 -0.1593 -0.1554
  572TIP3    H123207   2.364   0.860  13.044  0.2574 -0.0989 -0.2189
  572TIP3    H223208   2.440   0.972  13.111  0.8544 -0.6268  0.0032
  573TIP3   OH223209   2.651   3.440   0.661  0.1773 -0.9547  0.2062
  573TIP3    H123210   2.674   3.394   0.742 -1.0176 -1.2162  0.4063
  573TIP3    H223211   2.632   3.370   0.598  0.1433 -0.7438 -0.0230
  574TIP3   OH223212   3.959   5.997  12.012  0.2396  0.0401  0.3588
  574TIP3    H123213   3.954   6.082  12.057 -0.7989  0.1376  0.0850
  574TIP3    H223214   3.895   5.942  12.057  0.2367 -0.3082 -0.0644
  575TIP3   OH223215   0.632   6.350  10.881 -0.3776  0.1828 -0.3650
  575TIP3    H123216   0.706   6.311  10.834 -0.6742 -0.5224 -0.2672
  575TIP3    H223217   0.612   6.286  10.950  0.0805  1.2202  0.7571
  576TIP3   OH223218   4.437   5.990  13.436  0.0763 -0.0921  0.5361
  576TIP3    H123219   4.405   6.008  13.347 -0.4713  0.9347  0.9289
  576TIP3    H223220   4.524   6.031  13.439 -0.4011  0.9244  0.8404
  577TIP3   OH223221   1.442   3.232  15.010  0.2862 -0.1827 -0.1445
  577TIP3    H123222   1.445   3.317  14.967  0.9058 -0.9207 -1.6224
  577TIP3    H223223   1.533   3.202  15.011  0.0604 -0.8861  0.2677
  578TIP3   OH223224   2.009   6.799  11.268 -0.1943 -0.6071  0.2560
  578TIP3    H123225   2.082   6.752  11.227 -1.1141  0.1688 -2.5410
  578TIP3    H223226   1.934   6.740  11.257 -0.6349 -0.0073  0.0210
  579TIP3   OH223227   4.553   5.768  10.271  0.7427 -0.2565  0.1644
  579TIP3    H123228   4.544   5.699  10.336 -2.5291  0.2653  0.4846
  579TIP3    H223229   4.486   5.748  10.206 -0.1612  2.3875  0.1516
  580TIP3   OH223230   5.804   0.821  13.834  0.1771 -0.7405  0.2589
  580TIP3    H123231   5.774   0.761  13.766 -2.4387 -0.3985  0.9999
  580TIP3    H223232   5.898   0.806  13.840  0.1340 -2.3019 -1.9128
  581TIP3   OH223233   0.809   6.811  14.293  0.1770 -0.3382 -0.4507
  581TIP3    H123234   0.801   6.845  14.204  1.3380 -1.8743 -1.1793
  581TIP3    H223235   0.780   6.720  14.287 -0.6206 -0.2227  0.9653
  582TIP3   OH223236   7.187   5.023  11.664  0.7701 -0.3645 -0.2355
  582TIP3    H123237   7.258   4.960  11.678  0.4733 -0.7752 -0.5447
  582TIP3    H223238   7.151   4.999  11.579 -0.1606 -0.5808  0.2064
  583TIP3   OH223239   7.131   5.065  13.238  0.1693 -0.0558  0.4566
  583TIP3    H123240   7.115   5.157  13.256 -0.8818 -0.4073  1.4904
  583TIP3    H223241   7.057   5.020  13.279 -0.1064 -1.2510 -1.2445
  584TIP3   OH223242   2.343   3.525  13.407 -0.0383 -0.2616  0.2426
  584TIP3    H123243   2.256   3.497  13.377  0.6682 -0.5869 -1.6293
  584TIP3    H223244   2.338   3.621  13.407 -0.3719 -0.2757  0.0048
  585TIP3   OH223245   0.816   1.078  12.733 -0.1660 -0.1311 -0.2342
  585TIP3    H123246   0.826   1.063  12.639 -1.6178  0.5172 -0.5178
  585TIP3    H223247   0.732   1.039  12.756  1.0621 -2.1161  1.2533
  586TIP3   OH223248   1.327   1.475  12.100  0.2134  0.5774  0.1229
  586TIP3    H123249   1.422   1.472  12.091  0.2355 -1.3247  0.4846
  586TIP3    H223250   1.312   1.460  12.193 -0.4652 -1.8572 -0.3216
  587TIP3   OH223251   5.812   4.506   2.845  0.4849 -0.2120  0.4018
  587TIP3    H123252   5.820   4.535   2.936 -0.8612  0.7863  0.2359
  587TIP3    H223253   5.750   4.434   2.847  0.3531 -0.1035  0.2626
  588TIP3   OH223254   0.207   7.124  11.190  1.0066  0.1934  0.3601
  588TIP3    H123255   0.220   7.167  11.106  1.2944 -0.3266  0.1317
  588TIP3    H223256   0.238   7.187  11.255  1.2576  0.3952  0.0430
  589TIP3   OH223257   4.867   4.220   9.997  0.1806 -0.0185  0.3080
  589TIP3    H123258   4.849   4.252   9.909  0.0101  1.3801  0.8192
  589TIP3    H223259   4.961   4.201   9.997  0.1559 -0.1486 -0.2088
  590TIP3   OH223260   2.192   3.677  11.060  0.1236  0.2390 -0.7403
  590TIP3    H123261   2.230   3.754  11.101 -1.0977  0.2389  0.4721
  590TIP3    H223262   2.180   3.702  10.968  0.9317  1.0135 -0.6454
  591TIP3   OH223263   3.993   5.114  12.186 -0.3494 -0.7343 -0.5784
  591TIP3    H123264   3.996   5.208  12.203  1.9974 -0.5118 -1.7459
  591TIP3    H223265   3.916   5.101  12.131 -0.3968  0.5986 -0.8509
  592TIP3   OH223266   7.184   2.002  13.369  0.2920 -0.1089 -0.2881
  592TIP3    H123267   7.250   2.016  13.438  0.4864  1.2041 -0.7102
  592TIP3    H223268   7.190   2.080  13.314 -1.1610 -0.2805 -0.7298
  593TIP3   OH223269   5.262   4.795   9.377  0.2205 -0.5541 -0.0664
  593TIP3    H123270   5.233   4.783   9.286  0.6158 -1.5833 -0.0711
  593TIP3    H223271   5.181   4.802   9.427 -0.0126 -0.8305 -0.3973
  594TIP3   OH223272   5.966   5.696   9.636 -0.1013 -0.0508  0.5289
  594TIP3    H123273   6.039   5.756   9.653  0.3476 -0.5732  0.4957
  594TIP3    H223274   6.005   5.628   9.579 -0.9387  0.3683 -0.5847
  595TIP3   OH223275   3.414   5.740  13.753 -0.5233 -0.0887 -0.1857
  595TIP3    H123276   3.479   5.671  13.771  0.0118  0.7002  1.0374
  595TIP3    H223277   3.387   5.769  13.840 -2.4261 -0.2901 -0.6728
  596TIP3   OH223278   5.871   0.837  15.229 -0.1610 -0.2796 -0.8383
  596TIP3    H123279   5.848   0.920  15.270 -2.4729 -0.9620 -0.6354
  596TIP3    H223280   5.858   0.852  15.135  0.8734 -0.0147 -0.9575
  597TIP3   OH223281   5.619   0.589  14.241 -0.8463 -0.6128  0.7777
  597TIP3    H123282   5.639   0.526  14.311 -0.5886 -1.4633 -0.0404
  597TIP3    H223283   5.663   0.553  14.164 -1.4341  0.1184  0.0917
  598TIP3   OH223284   2.643   6.979  12.025 -0.3388  0.4614  0.4272
  598TIP3    H123285   2.638   6.956  12.118 -1.2885  1.6183  0.6877
  598TIP3    H223286   2.553   6.973  11.994 -0.2245  1.2636 -0.1090
  599TIP3   OH223287   6.170   5.497   9.738 -0.6425  0.2991  0.3891
  599TIP3    H123288   6.221   5.578   9.725  0.5537 -0.3097  1.0718
  599TIP3    H223289   6.145   5.470   9.650 -0.3017  0.9514  0.0846
  600TIP3   OH223290   5.123   1.430  15.154 -0.0028 -0.0983  0.1204
  600TIP3    H123291   5.216   1.445  15.172  0.4398 -2.7528  0.5742
  600TIP3    H223292   5.123   1.359  15.089 -1.7048 -0.2336  0.2280
  601TIP3   OH223293   3.060   4.156   0.538 -0.1119 -0.8602 -0.6327
  601TIP3    H123294   3.040   4.072   0.498  0.1975  0.0119 -2.7583
  601TIP3    H223295   3.086   4.212   0.464 -0.1480  1.0485  0.7321
  602TIP3   OH223296   3.244   0.949  12.867 -0.0231 -0.3766  0.0074
  602TIP3    H123297   3.327   0.980  12.829  0.1328  0.7674  1.2069
  602TIP3    H223298   3.268   0.919  12.955 -0.9222  0.2258  0.4654
  603TIP3   OH223299   0.711   4.328  13.396 -0.1022 -0.9032  0.1243
  603TIP3    H123300   0.799   4.323  13.359 -0.9619 -0.2223 -2.1580
  603TIP3    H223301   0.660   4.266  13.346 -1.4583  0.4977 -0.3087
  604TIP3   OH223302   6.833   2.100  13.991  0.0481  0.1987 -0.2958
  604TIP3    H123303   6.761   2.148  14.032  0.0607  0.6744 -0.8348
  604TIP3    H223304   6.802   2.082  13.902  0.4078 -0.0158 -0.3778
  605TIP3   OH223305   2.558   4.318  12.919 -0.1858  0.4133  0.2008
  605TIP3    H123306   2.517   4.357  12.996 -1.2925 -1.3430  0.5701
  605TIP3    H223307   2.487   4.270  12.876  1.0822 -1.2972 -0.1046
  606TIP3   OH223308   6.328   2.799   0.053 -0.6946 -0.0075 -0.6820
  606TIP3    H123309   6.377   2.872   0.090  0.5896 -0.2417 -1.8424
  606TIP3    H223310   6.236   2.822   0.068 -0.2810  1.0029  0.4999
  607TIP3   OH223311   0.558   6.751   9.922  0.2287 -0.6690  0.4437
  607TIP3    H123312   0.541   6.737   9.829  0.4294  2.3632 -0.1596
  607TIP3    H223313   0.487   6.704   9.966 -1.3343 -0.1476 -1.3798
  608TIP3   OH223314   3.996   1.924   2.231  0.3799  0.1980 -0.2882
  608TIP3    H123315   4.073   1.873   2.256 -0.5562 -2.4580 -2.3168
  608TIP3    H223316   4.015   1.953   2.142  0.0904  1.8858  0.1671
  609TIP3   OH223317   6.375   3.087  13.036  0.1830 -0.3833  0.5076
  609TIP3    H123318   6.345   3.004  13.072 -0.7946  0.3754  1.5071
  609TIP3    H223319   6.316   3.152  13.073  0.2570  0.6541 -1.1031
  610TIP3   OH223320   0.988   1.612  10.144  0.6423 -0.1763  0.4426
  610TIP3    H123321   1.005   1.683  10.205  1.0301 -0.3340  0.5175
  610TIP3    H223322   0.918   1.645  10.088  2.6707  1.3768 -1.3199
  611TIP3   OH223323   5.760   2.812  11.197  0.2354 -0.2225 -0.0231
  611TIP3    H123324   5.740   2.743  11.260  0.4160 -1.3931 -1.1919
  611TIP3    H223325   5.822   2.771  11.136 -2.1374 -0.1493 -2.6580
  612TIP3   OH223326   4.442   4.266  10.788  0.0508 -0.0810 -0.3978
  612TIP3    H123327   4.359   4.313  10.780  0.2962  0.2790 -0.8509
  612TIP3    H223328   4.509   4.333  10.778  0.4102 -0.5539 -1.2411
  613TIP3   OH223329   4.047   5.701  13.132  0.3712  0.0172  0.7769
  613TIP3    H123330   4.070   5.780  13.181  1.6516  1.2120 -1.5490
  613TIP3    H223331   3.953   5.708  13.117  0.5593  1.4492  0.1112
  614TIP3   OH223332   0.114   4.683  10.313 -0.0108  0.4034  0.0652
  614TIP3    H123333   0.119   4.625  10.236  0.8926  0.4237  0.0949
  614TIP3    H223334   0.089   4.625  10.385 -0.4429  0.3051 -0.1600
  615TIP3   OH223335   5.187   3.700   2.608  0.2366  0.1288  0.7269
  615TIP3    H123336   5.193   3.605   2.604 -2.7407 -0.1163 -0.2790
  615TIP3    H223337   5.099   3.717   2.640  1.2399  2.5973  2.4706
  616TIP3   OH223338   0.471   3.945  11.125  0.1069 -0.3625  0.4827
  616TIP3    H123339   0.548   4.001  11.140  0.0899 -0.7782  2.4300
  616TIP3    H223340   0.474   3.925  11.031  0.7222  1.9798 -0.0647
  617TIP3   OH223341   5.341   5.021  10.509  0.2022 -0.0205  0.5867
  617TIP3    H123342   5.273   4.955  10.526 -0.5414 -0.0017 -1.8351
  617TIP3    H223343   5.390   5.027  10.590 -0.5724 -2.5651  1.3408
  618TIP3   OH223344   5.708   5.512  15.306 -0.2708 -0.5765 -0.0094
  618TIP3    H123345   5.773   5.519  15.237 -0.7350 -0.2625 -0.4152
  618TIP3    H223346   5.643   5.580  15.287  0.4266  0.6240  1.6311
  619TIP3   OH223347   4.982   4.544   9.524 -0.1660 -0.0095  0.0160
  619TIP3    H123348   4.912   4.589   9.477  0.1866  0.0269 -0.4921
  619TIP3    H223349   5.049   4.611   9.539 -0.1769 -0.0754  0.3678
  620TIP3   OH223350   0.527   4.664  12.696 -0.4649 -0.2540  0.3891
  620TIP3    H123351   0.490   4.669  12.784 -1.4128  1.6998 -0.0707
  620TIP3    H223352   0.451   4.656  12.639 -0.2804  2.9736 -0.5222
  621TIP3   OH223353   3.925   6.714  11.753 -0.1669  0.3897  0.6391
  621TIP3    H123354   3.905   6.633  11.705 -0.9716  0.4558  0.8496
  621TIP3    H223355   3.844   6.735  11.799  0.1349  1.1485  0.8358
  622TIP3   OH223356   2.502   1.046   9.404  0.4378 -0.0124 -0.1314
  622TIP3    H123357   2.517   1.132   9.364 -0.5141  1.7435  2.9742
  622TIP3    H223358   2.590   1.011   9.419  0.8283  0.3030 -1.5201
  623TIP3   OH223359   2.485   2.424   9.271 -0.8370 -0.2389 -0.2578
  623TIP3    H123360   2.506   2.478   9.348 -0.8584 -2.4540  1.3997
  623TIP3    H223361   2.389   2.424   9.268 -0.8296  0.7260 -0.9853
  624TIP3   OH223362   0.342   3.474  10.681 -0.1168  0.5507  0.8686
  624TIP3    H123363   0.327   3.436  10.594 -2.8813 -1.3304  2.0052
  624TIP3    H223364   0.315   3.565  10.672 -0.6224  0.3220 -0.2262
  625TIP3   OH223365   2.801   5.097  10.419 -0.0708  0.3490 -0.2238
  625TIP3    H123366   2.731   5.032  10.411 -0.1344  0.3870  0.0334
  625TIP3    H223367   2.757   5.178  10.442 -0.0931  0.7175 -1.4996
  626TIP3   OH223368   1.415   0.669  12.968  0.8409  0.0320 -0.5182
  626TIP3    H123369   1.391   0.623  13.048 -0.2605  0.1216 -0.7902
  626TIP3    H223370   1.332   0.692  12.927  1.3854  0.7731 -1.2411
  627TIP3   OH223371   0.001   1.572  10.027  0.0448 -0.2352  0.9613
  627TIP3    H123372  -0.016   1.520   9.949  0.9304  1.3749 -0.3583
  627TIP3    H223373   0.074   1.527  10.071  0.1631 -0.6370  0.3556
  628TIP3   OH223374   2.498   4.070  11.596  0.2873  0.3638  0.1789
  628TIP3    H123375   2.459   4.086  11.682  0.9207 -0.7160  0.6895
  628TIP3    H223376   2.563   4.139  11.586 -1.7658  2.3118 -0.7609
  629TIP3   OH223377   0.009   2.624  11.266 -0.4081 -0.3353  0.2867
  629TIP3    H123378  -0.036   2.677  11.332  1.5075  2.1746 -0.2704
  629TIP3    H223379   0.094   2.605  11.305 -0.2805 -1.2281 -0.3962
  630TIP3   OH223380   4.805   6.311  12.756  0.7081  0.0906  0.0253
  630TIP3    H123381   4.762   6.229  12.733  2.0386 -1.0541  1.4389
  630TIP3    H223382   4.773   6.374  12.691 -1.3012 -1.2234 -0.3469
  631TIP3   OH223383   1.489   5.476  10.638  0.1358  0.2208  0.0882
  631TIP3    H123384   1.536   5.428  10.706  1.7629  0.0529 -1.0787
  631TIP3    H223385   1.527   5.564  10.641 -0.0197  0.3045 -0.3607
  632TIP3   OH223386   4.304   3.095  11.945 -0.2939 -0.3388  0.6959
  632TIP3    H123387   4.216   3.131  11.935 -0.5224 -0.3431  2.2896
  632TIP3    H223388   4.342   3.147  12.016  1.0435 -0.2591 -0.0547
  633TIP3   OH223389   0.464   2.216  15.408 -0.3837  0.0947 -0.3329
  633TIP3    H123390   0.437   2.305  15.429  1.6806  0.3741  1.4519
  633TIP3    H223391   0.527   2.226  15.336 -1.6881 -0.1566 -1.5458
  634TIP3   OH223392   0.486   3.246   9.483 -0.6807  0.0559 -0.0638
  634TIP3    H123393   0.513   3.202   9.564 -0.6036 -0.7885 -0.5357
  634TIP3    H223394   0.567   3.253   9.432 -0.8205  0.1575 -0.2708
  635TIP3   OH223395   5.883   3.608  10.170  0.7132  0.2803  0.1222
  635TIP3    H123396   5.811   3.671  10.163  0.4936  0.0669  0.4535
  635TIP3    H223397   5.860   3.553  10.245  1.5658  0.6598  0.6857
  636TIP3   OH223398   0.877   3.784  10.156  0.0447  0.0715  0.3307
  636TIP3    H123399   0.953   3.726  10.143 -0.6242 -0.9968  0.9837
  636TIP3    H223400   0.887   3.817  10.246 -0.2532 -0.0657  0.4149
  637TIP3   OH223401   1.366   4.130   9.681  0.2306  0.5178 -0.8155
  637TIP3    H123402   1.461   4.144   9.684  0.4909 -0.9793 -1.1163
  637TIP3    H223403   1.350   4.065   9.750 -0.6019  0.8141 -0.7163
  638TIP3   OH223404   7.040   6.412  10.429  0.3065 -0.1993 -0.4283
  638TIP3    H123405   7.024   6.363  10.509 -0.7326 -0.2490 -0.6582
  638TIP3    H223406   7.112   6.471  10.451  0.2267 -0.4195  0.4461
  639TIP3   OH223407   0.431   0.945  10.412  0.2964  0.3569  0.2172
  639TIP3    H123408   0.458   0.950  10.320  0.6841 -2.4803  0.0677
  639TIP3    H223409   0.501   0.896  10.454 -0.6391  0.2266  1.6881
  640TIP3   OH223410   0.705   4.971  11.636 -0.1935 -0.2036 -0.3081
  640TIP3    H123411   0.774   4.906  11.652 -0.2259  0.3807  2.8043
  640TIP3    H223412   0.718   5.036  11.704 -1.0264  2.4133 -2.4599
  641TIP3   OH223413   5.712   5.935  12.123 -0.0185 -0.2513 -0.8296
  641TIP3    H123414   5.732   5.853  12.167  0.5819  1.7776  3.1698
  641TIP3    H223415   5.617   5.935  12.113 -0.1482 -0.9810  0.2398
  642TIP3   OH223416   7.148   3.578  12.184  0.0426 -0.4126  0.3641
  642TIP3    H123417   7.116   3.610  12.100  2.0591  1.1437  0.0969
  642TIP3    H223418   7.080   3.601  12.247 -1.1097 -0.8244 -0.6904
  643TIP3   OH223419   1.122   5.217  10.647 -0.0298 -0.2771  0.3728
  643TIP3    H123420   1.046   5.173  10.609 -0.1415  0.6011 -0.4688
  643TIP3    H223421   1.147   5.282  10.582  0.6791  0.2885  1.1850
  644TIP3   OH223422   4.393   3.203  14.680  0.7154 -0.0046  0.3556
  644TIP3    H123423   4.393   3.154  14.762 -0.5472 -0.0607  0.3521
  644TIP3    H223424   4.300   3.219  14.662  0.3481 -4.2148 -3.5081
  645TIP3   OH223425   2.025   4.043   1.236  0.2671 -0.3309  0.4175
  645TIP3    H123426   2.097   4.099   1.262  0.6903 -1.5667  2.1100
  645TIP3    H223427   1.968   4.040   1.313  0.0132 -1.7901  0.2005
  646TIP3   OH223428   2.978   2.733  10.663 -0.2022 -0.7581  0.4869
  646TIP3    H123429   2.963   2.762  10.573  1.0920 -0.1427  0.4428
  646TIP3    H223430   2.913   2.779  10.715  1.1992  1.6315  0.2984
  647TIP3   OH223431   2.976   0.920  12.806  0.1821 -0.0453 -0.3577
  647TIP3    H123432   2.988   0.868  12.726  0.9964 -0.8444  0.2661
  647TIP3    H223433   3.064   0.952  12.828 -0.4488  2.7643 -1.4453
  648TIP3   OH223434   0.015   3.982  10.974 -0.5606 -0.4674  0.2106
  648TIP3    H123435   0.110   3.985  10.982 -0.6032 -0.5386  0.7237
  648TIP3    H223436  -0.007   4.061  10.925 -0.2333 -0.4891  0.0254
  649TIP3   OH223437   4.168   0.992   2.249  0.0110 -0.1202  0.4967
  649TIP3    H123438   4.083   0.957   2.278  0.5979 -0.8506  1.3876
  649TIP3    H223439   4.215   1.012   2.330 -0.1039  2.3653  0.0275
  650TIP3   OH223440   0.965   5.076  10.903 -0.5341 -0.0961  0.1813
  650TIP3    H123441   0.873   5.103  10.900 -0.8206 -1.1204 -1.3318
  650TIP3    H223442   0.961   4.986  10.934  0.1087  0.3355  1.5824
  651TIP3   OH223443   4.522   2.418  13.348  0.3595  0.0983 -0.1279
  651TIP3    H123444   4.616   2.414  13.331  0.4085 -1.8367  0.4391
  651TIP3    H223445   4.484   2.442  13.263  1.1256 -2.8230 -1.4375
  652TIP3   OH223446   2.160   6.763  12.629  0.1618  0.1886 -0.3129
  652TIP3    H123447   2.230   6.820  12.596 -0.7938  1.1702 -0.7321
  652TIP3    H223448   2.204   6.683  12.656  1.5513  1.1161  0.2549
  653TIP3   OH223449   3.302   3.469  12.887  0.1839  0.2828 -0.2226
  653TIP3    H123450   3.238   3.434  12.949 -1.0949  3.6539  0.5566
  653TIP3    H223451   3.252   3.531  12.833  2.4247  1.7434 -0.7565
  654TIP3   OH223452   2.257   1.287  10.533  0.3027  0.0290  0.1522
  654TIP3    H123453   2.170   1.256  10.558 -1.1429  2.0977 -1.9078
  654TIP3    H223454   2.315   1.254  10.602 -2.4923  0.8024  3.1293
  655TIP3   OH223455   3.858   4.051   9.448  0.4793 -0.1629  0.2404
  655TIP3    H123456   3.914   4.127   9.436 -0.8231  0.9646  0.9419
  655TIP3    H223457   3.860   4.035   9.542  0.0334 -0.4246  0.2065
  656TIP3   OH223458   3.527   3.353  13.873  0.0615 -0.6463 -0.2106
  656TIP3    H123459   3.460   3.332  13.937  0.3417  0.3471  0.4372
  656TIP3    H223460   3.478   3.364  13.791 -0.5896  0.1231  0.2637
  657TIP3   OH223461   0.729   5.542  11.031 -0.3686  0.7902 -0.0733
  657TIP3    H123462   0.660   5.576  11.089  0.7656  0.3685  1.5984
  657TIP3    H223463   0.683   5.521  10.950 -2.2226  0.5160  0.9770
  658TIP3   OH223464   3.576   1.745  14.952 -0.5494 -0.1199  0.4750
  658TIP3    H123465   3.615   1.716  14.870 -2.3721  0.1532 -0.5289
  658TIP3    H223466   3.577   1.841  14.946  0.0325 -0.0768  1.1369
  659TIP3   OH223467   0.718   0.604   9.498 -0.1910  0.1576 -0.0129
  659TIP3    H123468   0.768   0.623   9.419  0.0514 -0.7240 -0.0763
  659TIP3    H223469   0.692   0.691   9.531 -1.1987  0.5136 -1.6305
  660TIP3   OH223470   5.390   3.145  10.353 -0.1933  0.2808  0.4856
  660TIP3    H123471   5.467   3.203  10.346 -0.5139  0.5473 -1.3120
  660TIP3    H223472   5.420   3.073  10.408  1.7271 -0.1511 -1.0088
  661TIP3   OH223473   1.960   0.449   9.478  0.1345 -0.4110  0.2484
  661TIP3    H123474   1.987   0.540   9.463  0.9086 -0.5923  0.5195
  661TIP3    H223475   1.865   0.454   9.488 -0.2331 -0.0102 -2.6765
  662TIP3   OH223476   1.759   5.642  12.130  0.0674  0.1110  0.6581
  662TIP3    H123477   1.812   5.573  12.090 -1.0519  1.3414 -3.5574
  662TIP3    H223478   1.820   5.714  12.145  0.2025  0.5124 -1.4780
  663TIP3   OH223479   0.949   4.830  12.842  0.5230 -0.3469 -0.4521
  663TIP3    H123480   1.010   4.760  12.821 -0.2094 -0.6887 -1.5151
  663TIP3    H223481   0.884   4.828  12.772 -1.1142 -0.4466  0.9964
  664TIP3   OH223482   6.560   3.041   9.995  0.2615 -0.5694 -0.3253
  664TIP3    H123483   6.599   3.127  10.008 -0.8128 -0.1903  0.4527
  664TIP3    H223484   6.609   2.983  10.054  0.9328 -0.4873 -0.7928
  665TIP3   OH223485   4.434   2.556  12.028 -0.7306 -0.8074 -0.3744
  665TIP3    H123486   4.513   2.531  12.077 -1.2564 -0.9851  0.4055
  665TIP3    H223487   4.462   2.630  11.974  0.1438 -1.3185 -0.6366
  666TIP3   OH223488   1.943   1.076   0.818  0.4947  0.2769 -0.1975
  666TIP3    H123489   1.905   1.076   0.906  2.0381 -1.1364  0.5330
  666TIP3    H223490   1.874   1.041   0.762  0.4851 -1.8118  1.0120
  667TIP3   OH223491   6.244   3.879  14.814  0.5293 -0.7494 -0.1599
  667TIP3    H123492   6.224   3.933  14.890  0.7403  1.8548 -1.8475
  667TIP3    H223493   6.290   3.803  14.851 -2.8418 -1.6953  2.6829
  668TIP3   OH223494   6.845   0.803  10.735 -0.1479  0.5867 -0.0276
  668TIP3    H123495   6.776   0.844  10.787 -1.3039  0.8305 -1.6741
  668TIP3    H223496   6.800   0.733  10.688  0.6264  1.0189 -1.4523
  669TIP3   OH223497   4.814   7.169  11.484  0.0474  0.3343 -0.0979
  669TIP3    H123498   4.796   7.082  11.520  0.2057  0.3406 -0.0070
  669TIP3    H223499   4.848   7.151  11.396  0.4167  0.2921  0.0528
  670TIP3   OH223500   1.733   1.991  12.120 -0.0302  0.1175 -0.2760
  670TIP3    H123501   1.683   1.964  12.044 -0.1502 -1.0567  0.2026
  670TIP3    H223502   1.703   1.934  12.191  0.0541  1.1946  0.6708
  671TIP3   OH223503   3.579   7.046  10.832  0.1458  0.0952  0.5950
  671TIP3    H123504   3.544   7.044  10.743  2.3540 -0.4197 -0.3464
  671TIP3    H223505   3.557   7.133  10.865 -0.5895  0.3488 -0.5165
  672TIP3   OH223506   4.449   4.100  13.862  0.0302 -0.3488  0.1764
  672TIP3    H123507   4.418   4.179  13.907 -1.0798 -1.5678  1.6528
  672TIP3    H223508   4.448   4.032  13.929  2.2110 -1.3722 -0.7247
  673TIP3   OH223509   5.284   1.522  11.085  0.0029  0.3487  0.3171
  673TIP3    H123510   5.335   1.448  11.119  0.5396  0.6858  0.2517
  673TIP3    H223511   5.302   1.523  10.991  0.8333  1.1973  0.4730
  674TIP3   OH223512   3.017   4.178  10.624  0.4146  0.3738 -0.2061
  674TIP3    H123513   3.023   4.087  10.652 -0.9118  0.7790  1.5774
  674TIP3    H223514   2.933   4.183  10.579  0.1018  0.8543  0.4098
  675TIP3   OH223515   0.340   5.975   1.259  0.0059 -0.6665  0.5104
  675TIP3    H123516   0.358   6.066   1.239  0.7179 -0.9338 -0.1071
  675TIP3    H223517   0.322   5.935   1.174 -1.1951 -0.9197  0.8642
  676TIP3   OH223518   0.497   4.871  14.042  0.3553 -0.3221 -0.2532
  676TIP3    H123519   0.447   4.952  14.032  0.7436 -0.0111  0.2548
  676TIP3    H223520   0.441   4.803  14.004 -2.8559 -0.9544  4.7014
  677TIP3   OH223521   2.957   4.495  10.714 -0.1791 -0.5377  0.4197
  677TIP3    H123522   2.957   4.552  10.637 -0.4610  1.9311  2.1554
  677TIP3    H223523   3.012   4.421  10.688  1.7109  1.3591 -1.3608
  678TIP3   OH223524   6.784   6.971  11.091  0.7076 -0.0694  0.3311
  678TIP3    H123525   6.823   6.984  11.178 -0.5540 -0.4113  0.9727
  678TIP3    H223526   6.816   6.885  11.064 -1.1368 -1.2803  1.7511
  679TIP3   OH223527   1.537   6.211  14.507  0.6873 -0.5880 -0.2744
  679TIP3    H123528   1.616   6.253  14.541  0.3491 -0.8341  0.8883
  679TIP3    H223529   1.467   6.275  14.523  0.5332 -0.6684 -0.6165
  680TIP3   OH223530   1.185   6.087  14.705  0.4855  0.3058  0.4319
  680TIP3    H123531   1.143   6.039  14.776 -1.0264 -1.0990 -1.3167
  680TIP3    H223532   1.122   6.155  14.680  1.1779  1.0532  0.6758
  681TIP3   OH223533   2.097   2.177  10.191 -0.4980 -0.0995  0.1357
  681TIP3    H123534   2.023   2.181  10.251 -0.6305  0.6855 -0.0701
  681TIP3    H223535   2.071   2.113  10.124 -0.6786 -0.3781  0.4706
  682TIP3   OH223536   1.331   4.297  11.641  0.4328  0.0446  0.3982
  682TIP3    H123537   1.346   4.202  11.646  0.6881  0.1067  0.8993
  682TIP3    H223538   1.274   4.316  11.715 -2.9383 -0.2968 -1.8646
  683TIP3   OH223539   2.983   1.977  10.852 -0.2091 -0.0294 -0.3065
  683TIP3    H123540   2.896   1.995  10.816 -1.5483 -2.4568  1.3680
  683TIP3    H223541   2.970   1.898  10.906  2.6726  0.5437  1.4198
  684TIP3   OH223542   1.778   5.226  12.114 -0.1177 -0.2098 -0.5132
  684TIP3    H123543   1.714   5.175  12.165  0.9637 -1.0742  0.0260
  684TIP3    H223544   1.730   5.252  12.035 -1.1219 -0.8726 -0.1471
  685TIP3   OH223545   6.377   1.087   1.129  0.1540  0.6557  0.2809
  685TIP3    H123546   6.423   1.108   1.210 -0.4624 -0.0038  0.8165
  685TIP3    H223547   6.372   1.170   1.082  0.2235  1.1181  1.0715
  686TIP3   OH223548   0.306   6.170  11.724  0.0893  0.2254 -0.4345
  686TIP3    H123549   0.261   6.207  11.648  1.1047 -0.0316 -1.1852
  686TIP3    H223550   0.372   6.111  11.687  1.2347  0.8035  0.6050
  687TIP3   OH223551   6.034   5.095   9.783  0.1229  0.3179 -0.1662
  687TIP3    H123552   6.059   5.116   9.873 -0.7866  1.4780 -0.1524
  687TIP3    H223553   5.940   5.080   9.787  0.1267  0.0631 -0.8730
  688TIP3   OH223554   3.711   3.941   9.229 -0.4193 -0.3816  0.2667
  688TIP3    H123555   3.762   3.985   9.296 -0.2730 -2.1462  1.3849
  688TIP3    H223556   3.679   4.011   9.172  1.3252  0.9579  0.8626
  689TIP3   OH223557   6.981   3.347  14.257  0.7108 -0.3958 -0.4363
  689TIP3    H123558   7.075   3.328  14.263  0.8806  0.4629 -0.2586
  689TIP3    H223559   6.977   3.438  14.226 -0.0725 -0.7208 -1.3443
  690TIP3   OH223560   3.072   4.103  14.117 -0.2941 -0.2912 -0.0899
  690TIP3    H123561   3.050   4.160  14.044 -0.2313 -0.5087 -0.2782
  690TIP3    H223562   3.080   4.163  14.192  1.8747  0.2533 -0.6800
  691TIP3   OH223563   6.283   5.717  12.575 -0.1228  0.4262  0.4369
  691TIP3    H123564   6.194   5.683  12.581  0.0176  0.0590  0.4478
  691TIP3    H223565   6.339   5.642  12.595  0.2268  0.3144 -0.8683
  692TIP3   OH223566   6.686   1.272   9.944  0.4050 -0.1590  0.5594
  692TIP3    H123567   6.726   1.286  10.030  0.7232  1.0918  0.2195
  692TIP3    H223568   6.759   1.246   9.888  0.4451  0.3838  0.3539
  693TIP3   OH223569   6.305   4.377  14.777 -0.6108 -0.8309 -0.3582
  693TIP3    H123570   6.390   4.419  14.785 -0.2146 -1.3119 -1.7072
  693TIP3    H223571   6.322   4.284  14.795 -1.1046 -0.7412  0.6379
  694TIP3   OH223572   6.860   1.537   9.887 -0.2325  0.7360 -0.6960
  694TIP3    H123573   6.903   1.451   9.888  0.6761  1.1239 -2.6019
  694TIP3    H223574   6.926   1.596   9.851 -0.5979  2.4157  1.2045
  695TIP3   OH223575   5.036   2.226  11.477 -0.1301 -0.2766  0.1730
  695TIP3    H123576   5.127   2.245  11.500 -0.2066 -1.1582  1.2912
  695TIP3    H223577   5.030   2.249  11.384  0.3324  3.0038  0.8426
  696TIP3   OH223578   6.216   2.493  10.303 -0.6296 -0.2304  0.3555
  696TIP3    H123579   6.242   2.422  10.244  0.6920 -1.4421  2.2752
  696TIP3    H223580   6.134   2.463  10.341 -0.8893  0.0248  0.0063
  697TIP3   OH223581   5.600   3.610   0.052 -0.0007  0.6371 -0.5005
  697TIP3    H123582   5.666   3.661   0.098 -1.3280  1.2969  0.7761
  697TIP3    H223583   5.631   3.605  -0.038  3.1559 -1.4179  0.5373
  698TIP3   OH223584   2.433   0.880  12.357 -0.3283  0.0641 -0.5255
  698TIP3    H123585   2.350   0.913  12.323 -0.8907  0.6611  1.3109
  698TIP3    H223586   2.500   0.923  12.303 -1.1515  1.5728 -0.3873
  699TIP3   OH223587   5.162   3.258  12.386  0.1421  0.3609  0.7304
  699TIP3    H123588   5.096   3.274  12.318 -0.5729 -1.0651  1.0462
  699TIP3    H223589   5.241   3.238  12.337 -0.3929 -0.7640  0.2957
  700TIP3   OH223590   2.310   3.531   1.305  0.3181  0.3100  0.1125
  700TIP3    H123591   2.248   3.483   1.251  1.2053 -1.0004  0.2004
  700TIP3    H223592   2.327   3.612   1.257  0.9687 -0.7512 -1.5117
  701TIP3   OH223593   0.493   0.074  15.114 -0.4175  0.1560  0.3163
  701TIP3    H123594   0.530   0.004  15.167  0.0448 -0.4359 -0.7566
  701TIP3    H223595   0.467   0.141  15.177 -0.1011 -0.6232  1.2958
  702TIP3   OH223596   3.064   5.026  11.290  0.2194  0.0528 -0.4389
  702TIP3    H123597   3.106   4.960  11.345  1.4565  2.1422  1.2673
  702TIP3    H223598   2.970   5.007  11.297  0.4217 -0.3843  1.5955
  703TIP3   OH223599   0.347   3.908  13.453  0.0243  0.0609 -0.1979
  703TIP3    H123600   0.345   3.948  13.366 -1.5542  0.4532 -0.0133
  703TIP3    H223601   0.290   3.831  13.444 -0.7678  0.5356  0.6746
  704TIP3   OH223602   4.915   2.510  14.346  0.7105  0.2268  0.2763
  704TIP3    H123603   4.955   2.556  14.420 -1.1401 -0.8370  2.0262
  704TIP3    H223604   4.892   2.424  14.381 -0.6993 -0.1240 -1.3896
  705TIP3   OH223605   4.541   6.424  10.178  0.6396 -0.1854  0.0784
  705TIP3    H123606   4.460   6.398  10.134  0.9909  0.3802 -0.9163
  705TIP3    H223607   4.568   6.505  10.134  3.1049 -1.6788 -1.4003
  706TIP3   OH223608   0.234   4.530  14.553 -0.2566 -0.6677 -0.0715
  706TIP3    H123609   0.276   4.532  14.639 -2.0271 -0.6750  0.8455
  706TIP3    H223610   0.298   4.570  14.494  0.1416  1.4884  1.6722
  707TIP3   OH223611   5.126   0.065  11.002 -0.3517 -0.0785  0.2459
  707TIP3    H123612   5.184  -0.010  11.014 -0.3105  0.2743  2.6605
  707TIP3    H223613   5.132   0.114  11.084 -0.1724  2.7451 -1.3045
  708TIP3   OH223614   1.442   1.616  11.826  0.0869  0.0371 -0.0164
  708TIP3    H123615   1.403   1.544  11.778 -0.2861  0.9276 -1.0873
  708TIP3    H223616   1.534   1.594  11.833 -0.2104 -1.0746  0.6812
  709TIP3   OH223617   4.371   2.084   2.800 -0.4673 -0.0526  0.6020
  709TIP3    H123618   4.278   2.084   2.822 -0.8674 -1.5355 -0.9269
  709TIP3    H223619   4.386   2.169   2.758 -0.7679  0.7917  2.1264
  710TIP3   OH223620   3.483   1.939   9.520 -0.5641  0.7134 -0.2619
  710TIP3    H123621   3.514   1.850   9.537 -0.0499  0.9797  0.2246
  710TIP3    H223622   3.401   1.927   9.471 -1.7133 -0.0826  1.7555
  711TIP3   OH223623   1.006   1.481   9.675 -0.1810 -0.1376  0.0172
  711TIP3    H123624   1.047   1.400   9.646 -1.4962  0.0602 -2.7570
  711TIP3    H223625   0.934   1.454   9.732 -0.4572 -0.9287 -0.6967
  712TIP3   OH223626   4.861   5.182  14.408  0.1651 -0.1810 -0.2511
  712TIP3    H123627   4.906   5.099  14.425 -0.8313 -0.6317  0.2946
  712TIP3    H223628   4.913   5.225  14.340  1.5323 -0.5694  0.5136
  713TIP3   OH223629   2.427   1.118  13.572  0.0340 -0.1384 -0.4895
  713TIP3    H123630   2.361   1.151  13.511  1.0642  1.4011 -0.8449
  713TIP3    H223631   2.400   1.152  13.657 -0.5225 -0.9218 -0.3446
  714TIP3   OH223632   0.829   3.698  13.410  0.1650  0.5305  0.4402
  714TIP3    H123633   0.849   3.786  13.378  1.2649 -0.1633 -0.8582
  714TIP3    H223634   0.822   3.708  13.505 -1.1693  2.2716  0.1974
  715TIP3   OH223635   6.541   2.486  13.635  0.0935 -0.0987 -0.2308
  715TIP3    H123636   6.536   2.573  13.596  0.0354 -0.2389 -0.5389
  715TIP3    H223637   6.458   2.445  13.612 -0.4646  0.2438  1.0825
  716TIP3   OH223638   2.755   0.901  11.140  0.6533 -0.5973 -0.1043
  716TIP3    H123639   2.782   0.826  11.086 -1.3569 -2.1092  0.8853
  716TIP3    H223640   2.665   0.881  11.166  0.6927  1.3087  1.7153
  717TIP3   OH223641   3.611   4.886   1.628  0.5133 -0.7238 -0.2359
  717TIP3    H123642   3.593   4.956   1.692  1.0232 -0.3386 -0.5087
  717TIP3    H223643   3.680   4.922   1.572 -0.4815 -0.7356 -1.5227
  718TIP3   OH223644   4.174   2.091   4.254  0.1564 -0.4101 -0.0250
  718TIP3    H123645   4.107   2.159   4.265  1.3553  0.7916  0.0885
  718TIP3    H223646   4.171   2.042   4.335  0.6127  0.7664  0.7331
  719TIP3   OH223647   6.105   3.244  12.551 -0.5610  0.6645  0.2504
  719TIP3    H123648   6.085   3.214  12.639  2.9150  1.0613  1.3316
  719TIP3    H223649   6.046   3.318  12.537 -2.0607 -0.1906  1.6721
  720TIP3   OH223650   5.600   6.930  10.157 -0.7268  0.0063 -0.0969
  720TIP3    H123651   5.573   6.905  10.069  0.2626 -0.8352 -0.1853
  720TIP3    H223652   5.558   6.865  10.214 -0.4477 -0.1521 -0.0665
  721TIP3   OH223653   4.901   4.864  14.908  0.9127 -0.1258  0.2071
  721TIP3    H123654   4.918   4.958  14.897 -0.8767 -0.0699 -3.3102
  721TIP3    H223655   4.983   4.822  14.882  0.7484  0.4377 -1.3120
  722TIP3   OH223656   1.880   0.988  10.324  0.3262 -0.3405 -0.0312
  722TIP3    H123657   1.880   0.940  10.241 -0.7116 -0.8672  0.2606
  722TIP3    H223658   1.972   1.011  10.338  0.5787 -0.6491 -1.0925
  723TIP3   OH223659   4.279   4.920  11.329  0.2156 -0.6357  0.4682
  723TIP3    H123660   4.186   4.942  11.323 -0.0625 -1.5150  1.2280
  723TIP3    H223661   4.291   4.897  11.421  1.1662 -0.6544  0.3431
  724TIP3   OH223662   3.502   4.983  11.485  0.1178 -0.0558  0.4340
  724TIP3    H123663   3.557   4.951  11.556  1.0987  1.9524  0.6489
  724TIP3    H223664   3.564   5.017  11.419 -0.7372 -2.2143 -1.6297
  725TIP3   OH223665   3.622   5.268  12.869  0.5854  0.2897 -0.3649
  725TIP3    H123666   3.609   5.299  12.779 -1.3899 -1.0966 -0.6249
  725TIP3    H223667   3.686   5.197  12.861  0.3509  0.1124 -0.6966
  726TIP3   OH223668   6.333   1.828  14.297 -0.1563  0.1842  0.3733
  726TIP3    H123669   6.259   1.783  14.256  0.3518  0.1773 -0.5539
  726TIP3    H223670   6.409   1.774  14.275  0.4283  1.3350 -0.5340
  727TIP3   OH223671   1.803   1.167   0.126 -0.6706 -0.1421  0.2237
  727TIP3    H123672   1.898   1.159   0.116 -0.5872  0.1827  0.7351
  727TIP3    H223673   1.791   1.208   0.211 -1.3059 -0.9364  0.5257
  728TIP3   OH223674   5.161   4.758  14.945  0.3835 -0.0037  0.1336
  728TIP3    H123675   5.245   4.784  14.907  1.1559 -3.4034 -0.8423
  728TIP3    H223676   5.175   4.764  15.039  0.7882  1.9205 -0.0037
  729TIP3   OH223677   3.445   1.042  11.508  0.2429 -0.1950 -0.0862
  729TIP3    H123678   3.535   1.070  11.489  0.7182 -0.3593  1.7203
  729TIP3    H223679   3.434   0.962  11.456  0.6488  0.5569 -1.3721
  730TIP3   OH223680   6.205   5.979  12.717  0.0957 -0.7277  0.3374
  730TIP3    H123681   6.251   6.046  12.666  0.6019 -1.0041  0.4214
  730TIP3    H223682   6.219   6.005  12.808 -0.0061 -0.7545  0.3606
  731TIP3   OH223683   6.956   6.927  12.179 -0.4428 -0.2922 -0.1951
  731TIP3    H123684   6.987   7.007  12.220  0.3008 -0.4347 -0.4567
  731TIP3    H223685   6.881   6.955  12.126 -2.3909 -0.3390  2.3350
  732TIP3   OH223686   2.922   6.472  10.628  0.3073 -0.5959 -0.3706
  732TIP3    H123687   2.891   6.556  10.594  0.9897  0.0166  0.4677
  732TIP3    H223688   3.011   6.490  10.657  0.6547 -1.7632 -0.6837
  733TIP3   OH223689   0.276   1.481  12.365 -0.1438  0.4025  0.2607
  733TIP3    H123690   0.258   1.478  12.459  0.2351 -1.5521  0.3141
  733TIP3    H223691   0.191   1.462  12.325 -0.4715  1.9768  0.1551
  734TIP3   OH223692   5.454   3.735  13.464 -0.3532 -0.2803  0.2273
  734TIP3    H123693   5.484   3.669  13.401  1.3291  0.5855  0.0870
  734TIP3    H223694   5.506   3.812  13.445 -1.6120  0.8078  1.0389
  735TIP3   OH223695   1.761   2.496   0.069  0.0660 -0.1775  0.1784
  735TIP3    H123696   1.739   2.404   0.051  0.2047 -0.5150  1.6061
  735TIP3    H223697   1.720   2.514   0.154  0.0666  1.0810 -0.0729
  736TIP3   OH223698   4.630   1.593  14.606  0.2392  0.4267 -0.2011
  736TIP3    H123699   4.603   1.630  14.522 -2.4986 -0.0605  0.3762
  736TIP3    H223700   4.584   1.509  14.610  0.4511  0.3742  1.7301
  737TIP3   OH223701   3.242   1.045  10.957  0.0456 -0.0129  0.6041
  737TIP3    H123702   3.156   1.030  10.917 -0.3100  1.5656  0.6853
  737TIP3    H223703   3.226   1.039  11.051  0.0328  0.1946  0.6160
  738TIP3   OH223704   3.507   6.315  11.885  0.4087  0.0982 -0.2455
  738TIP3    H123705   3.412   6.314  11.893  0.2288  1.2372 -1.6946
  738TIP3    H223706   3.527   6.403  11.853  1.7358 -0.7565 -1.9456
  739TIP3   OH223707   1.109   3.065  13.882  0.2524 -0.7953  0.0198
  739TIP3    H123708   1.116   3.160  13.888 -2.3845 -0.6135  1.4961
  739TIP3    H223709   1.020   3.045  13.910  0.7238 -3.7233 -0.2244
  740TIP3   OH223710   2.801   7.045   1.691 -0.7500 -0.2396  0.1610
  740TIP3    H123711   2.784   7.043   1.597 -1.1242 -0.9364  0.2399
  740TIP3    H223712   2.849   7.127   1.705 -0.4534 -0.2642 -0.6721
  741TIP3   OH223713   6.425   0.149   1.400  0.3843  0.5647  0.4216
  741TIP3    H123714   6.356   0.124   1.462  0.3158 -0.8801 -0.2009
  741TIP3    H223715   6.500   0.171   1.455  0.0534  0.1434  1.0558
  742TIP3   OH223716   5.934   1.897  11.996 -0.3970 -0.2547 -0.2950
  742TIP3    H123717   5.963   1.816  12.038  1.0887  0.3633 -0.0949
  742TIP3    H223718   5.845   1.877  11.966 -0.0924 -1.9290 -0.1856
  743TIP3   OH223719   5.328   0.355  10.660 -0.6523  0.4116 -0.2165
  743TIP3    H123720   5.405   0.404  10.688 -0.1206 -1.0681  1.0636
  743TIP3    H223721   5.346   0.330  10.569  1.0554 -1.0747  0.4708
  744TIP3   OH223722   3.011   2.296   1.448 -0.6533 -0.5206  0.5703
  744TIP3    H123723   2.927   2.332   1.421  1.2258  3.0050 -1.3329
  744TIP3    H223724   3.030   2.229   1.383 -0.5445  1.1116 -1.1810
  745TIP3   OH223725   6.152   1.301  15.082 -0.0602  0.0015 -0.4194
  745TIP3    H123726   6.110   1.361  15.021 -0.7493  0.0792  0.1257
  745TIP3    H223727   6.097   1.302  15.160 -0.7590 -2.2379 -0.8008
  746TIP3   OH223728   5.705   2.893  11.749 -0.0672 -0.1398 -0.5365
  746TIP3    H123729   5.676   2.802  11.749 -2.3785  0.5269 -1.4160
  746TIP3    H223730   5.669   2.929  11.830  1.3510 -0.0945  0.1150
  747TIP3   OH223731   2.463   2.776   0.721 -0.0069  0.3861 -0.2967
  747TIP3    H123732   2.533   2.714   0.740  0.3550  0.7500 -0.4182
  747TIP3    H223733   2.411   2.779   0.801 -0.4462 -0.6066 -0.5377
  748TIP3   OH223734   4.804   4.765  11.303 -0.2895  0.6783 -0.2921
  748TIP3    H123735   4.715   4.797  11.317 -0.5013  0.0720 -0.2389
  748TIP3    H223736   4.846   4.774  11.389 -0.8996 -0.8811  0.2032
  749TIP3   OH223737   3.110   5.327   9.583  0.0352 -0.1697  0.1793
  749TIP3    H123738   3.134   5.419   9.584  0.7979 -0.3698  0.6700
  749TIP3    H223739   3.017   5.326   9.608  0.1777  0.4242  0.7530
  750TIP3   OH223740   0.949   1.285  11.429  0.4331  0.1576 -0.1382
  750TIP3    H123741   0.969   1.347  11.359 -0.7820  1.1504  0.3574
  750TIP3    H223742   1.011   1.213  11.416  1.2255  1.0199 -1.3143
  751TIP3   OH223743   6.259   0.523  15.380 -0.2694 -0.3688 -0.0788
  751TIP3    H123744   6.223   0.547  15.294  0.6197 -0.5316 -0.5019
  751TIP3    H223745   6.267   0.607  15.426 -0.9861 -0.3066 -0.0497
  752TIP3   OH223746   3.402   1.881   1.665  0.1212  0.4576  0.7063
  752TIP3    H123747   3.398   1.974   1.688  0.9786  0.5854  0.3933
  752TIP3    H223748   3.448   1.879   1.581  2.2649 -0.3711  1.8027
  753TIP3   OH223749   3.879   1.974   1.350  0.2711 -0.3427  0.4600
  753TIP3    H123750   3.826   1.956   1.427  0.1874 -0.7545  0.3089
  753TIP3    H223751   3.826   2.035   1.299  0.6904  0.5990  1.1213
  754TIP3   OH223752   4.338   3.523  11.718  0.1361 -0.0243 -0.0646
  754TIP3    H123753   4.254   3.477  11.725  0.0843  0.1467  0.5322
  754TIP3    H223754   4.376   3.492  11.636  0.6031 -1.9900  0.8321
  755TIP3   OH223755   5.850   6.031  10.665 -0.2009  0.0386 -0.1115
  755TIP3    H123756   5.841   6.092  10.591  0.8942  0.7141  0.2908
  755TIP3    H223757   5.787   6.064  10.730  0.6031  0.9541  0.2268
  756TIP3   OH223758   3.798   2.872  12.200  0.3002 -0.0701  0.2500
  756TIP3    H123759   3.860   2.863  12.272 -0.1432  0.0998  0.6560
  756TIP3    H223760   3.744   2.947  12.224 -0.9682 -1.0613  0.5938
  757TIP3   OH223761   2.556   0.903  12.593  0.4994  1.1723  0.2750
  757TIP3    H123762   2.630   0.947  12.550  0.2535  0.3084 -1.1109
  757TIP3    H223763   2.493   0.888  12.523 -1.0282  1.9080  1.4377
  758TIP3   OH223764   4.440   6.943  11.507  0.4272  0.4077 -0.9876
  758TIP3    H123765   4.505   6.889  11.461  0.9789 -1.0355  1.3489
  758TIP3    H223766   4.490   7.017  11.542  0.6177 -0.1251 -0.1185
  759TIP3   OH223767   5.438   4.397   1.738  0.1045  0.1033  0.0642
  759TIP3    H123768   5.390   4.453   1.676 -1.3618 -1.0339  0.1087
  759TIP3    H223769   5.507   4.454   1.772  0.4074  1.0378 -1.9206
  760TIP3   OH223770   2.325   0.591  15.112  0.1106 -0.5487 -0.4627
  760TIP3    H123771   2.381   0.569  15.037 -0.4036 -1.4822 -0.5863
  760TIP3    H223772   2.282   0.672  15.087  0.0091 -0.8075 -1.1590
  761TIP3   OH223773   5.641   0.309  13.161 -0.3042  0.7170  0.3620
  761TIP3    H123774   5.690   0.388  13.136  2.4991 -0.3447  2.0334
  761TIP3    H223775   5.612   0.272  13.077  1.5657  1.5896 -0.7385
  762TIP3   OH223776   0.252   4.336  15.001 -0.7102  0.5526  0.3996
  762TIP3    H123777   0.259   4.287  14.919 -0.2872  3.0299 -1.1420
  762TIP3    H223778   0.176   4.297  15.046 -1.8302  0.0301 -1.8082
  763TIP3   OH223779   5.761   5.983  11.174 -0.6909 -0.4993 -0.6156
  763TIP3    H123780   5.753   5.978  11.269 -1.4408 -2.2816 -0.7328
  763TIP3    H223781   5.778   6.075  11.156  1.6123 -0.4652  1.3712
  764TIP3   OH223782   0.938   2.818  11.956 -0.0195  0.2205 -0.1990
  764TIP3    H123783   0.906   2.897  11.997  1.9909 -0.1535  2.2963
  764TIP3    H223784   1.014   2.846  11.904 -0.0283  0.0978 -0.2800
  765TIP3   OH223785   6.251   3.511  15.310  1.0903 -0.1771  0.2898
  765TIP3    H123786   6.162   3.548  15.308  1.2712  0.2535  0.0049
  765TIP3    H223787   6.240   3.425  15.351  0.4978 -0.2459  0.0077
  766TIP3   OH223788   6.056   2.263  15.126  0.0254  0.5283 -0.0005
  766TIP3    H123789   5.999   2.224  15.192  1.0761  2.6059  2.2892
  766TIP3    H223790   6.003   2.333  15.087 -0.8048 -1.0886 -1.8843
  767TIP3   OH223791   1.405   6.284   0.681 -0.5725  0.0849  0.3597
  767TIP3    H123792   1.432   6.300   0.591  0.7957 -0.2813  0.6771
  767TIP3    H223793   1.335   6.348   0.697  0.1825  1.1704 -0.4903
  768TIP3   OH223794   0.036   5.970  12.679  0.1865 -0.7034  0.2861
  768TIP3    H123795   0.110   6.029  12.691  0.2632 -0.9430  0.9920
  768TIP3    H223796   0.033   5.955  12.584 -1.3439  2.3986 -0.2918
  769TIP3   OH223797   5.135   5.668   0.511 -0.3498  0.6080  0.4008
  769TIP3    H123798   5.165   5.650   0.422 -1.3788 -0.1388  0.1959
  769TIP3    H223799   5.155   5.588   0.560 -0.5135  0.7235  0.6553
  770TIP3   OH223800   0.781   3.755  13.670  0.1603 -0.2339 -0.1263
  770TIP3    H123801   0.741   3.802  13.744 -0.2142 -1.5909  0.5762
  770TIP3    H223802   0.843   3.695  13.712 -0.4048 -1.3596 -0.8731
  771TIP3   OH223803   3.690   4.147  14.514 -0.0004 -0.1611 -0.2727
  771TIP3    H123804   3.681   4.187  14.427 -1.5376 -0.6517 -0.3712
  771TIP3    H223805   3.749   4.073  14.499 -0.2211 -0.2209 -0.9087
  772TIP3   OH223806   5.433   2.302  13.646  0.3286 -0.1693  0.1343
  772TIP3    H123807   5.386   2.230  13.604 -0.4343  0.9658 -1.0530
  772TIP3    H223808   5.456   2.361  13.574 -0.1906  1.3979  1.1898
  773TIP3   OH223809   4.779   1.826  13.582 -0.7231 -0.7705 -0.0835
  773TIP3    H123810   4.829   1.781  13.651 -0.9494 -1.5406 -0.4117
  773TIP3    H223811   4.845   1.876  13.534 -0.1277 -2.2315 -0.8712
  774TIP3   OH223812   0.633   0.346  11.097 -0.0641  0.2354  0.0994
  774TIP3    H123813   0.566   0.396  11.143 -0.3500 -0.1611  0.1186
  774TIP3    H223814   0.612   0.358  11.004 -1.2387 -1.3180  0.1269
  775TIP3   OH223815   0.154   1.146  13.222  0.5264 -0.5853 -0.0667
  775TIP3    H123816   0.245   1.116  13.228  1.4796  2.0147 -0.1353
  775TIP3    H223817   0.124   1.149  13.313 -0.3389 -3.6084 -0.1722
  776TIP3   OH223818   0.906   2.792  11.028 -0.3813  0.4940 -0.2733
  776TIP3    H123819   0.987   2.817  10.984 -0.1957 -1.4771 -1.1850
  776TIP3    H223820   0.844   2.774  10.957 -0.8571 -0.2966  0.3168
  777TIP3   OH223821   4.842   6.286  11.949 -0.0168 -0.3760 -0.1123
  777TIP3    H123822   4.758   6.331  11.957  0.6730  1.4876 -2.2453
  777TIP3    H223823   4.828   6.221  11.880  0.3907  0.3422 -0.8982
  778TIP3   OH223824   6.813   2.104  10.599  0.1894 -0.0077  0.1770
  778TIP3    H123825   6.831   2.171  10.533 -0.2831  0.5637  0.6245
  778TIP3    H223826   6.718   2.094  10.597  0.1476  0.2219  0.9743
  779TIP3   OH223827   2.904   6.865   1.175  0.6241  0.0609 -0.5379
  779TIP3    H123828   2.838   6.872   1.245 -0.0165  0.2767 -1.1534
  779TIP3    H223829   2.857   6.888   1.095  1.4912  0.3783 -0.9710
  780TIP3   OH223830   0.794   4.965  12.088  0.0008  0.0290 -0.2567
  780TIP3    H123831   0.726   5.006  12.142 -1.3671  0.9709 -2.5680
  780TIP3    H223832   0.793   4.873  12.116 -1.2626  0.3027  0.7310
  781TIP3   OH223833   1.051   1.886   0.689 -0.2870 -0.9820  0.1477
  781TIP3    H123834   1.135   1.932   0.679 -0.1568 -0.6420  2.3872
  781TIP3    H223835   1.076   1.793   0.695  0.0518 -0.8169  1.6754
  782TIP3   OH223836   4.970   4.109  10.749  0.0115  0.2398 -0.6370
  782TIP3    H123837   4.890   4.057  10.741  0.5742 -1.3171  2.2890
  782TIP3    H223838   5.040   4.044  10.743  0.8061  0.8247  1.3670
  783TIP3   OH223839   5.407   1.170   0.309  0.4275  0.2253  0.2592
  783TIP3    H123840   5.429   1.220   0.230  1.6075 -0.8799 -0.1376
  783TIP3    H223841   5.365   1.234   0.366  0.1608  1.2126 -0.9922
  784TIP3   OH223842   6.041   3.879  15.109 -0.4649 -0.5400 -0.2251
  784TIP3    H123843   6.126   3.871  15.154 -1.4795  0.9039  2.1848
  784TIP3    H223844   6.016   3.789  15.089  0.5830 -1.1919  1.1787
  785TIP3   OH223845   3.590   2.439  13.454  0.2718  0.0515  1.0589
  785TIP3    H123846   3.506   2.474  13.482 -0.3737  0.9268 -1.6775
  785TIP3    H223847   3.654   2.477  13.514 -0.9986  1.7333  1.3919
  786TIP3   OH223848   1.207   1.281  10.734 -0.5480 -0.2624 -0.1681
  786TIP3    H123849   1.239   1.266  10.645  0.7732  0.4231  0.1744
  786TIP3    H223850   1.204   1.194  10.774 -0.4528 -0.4900 -0.6551
  787TIP3   OH223851   4.058   2.222  11.500  0.1454 -0.1566  0.2786
  787TIP3    H123852   4.127   2.281  11.529  0.4128 -0.1748 -0.3056
  787TIP3    H223853   4.069   2.144  11.555 -1.1428  0.8691  2.0913
  788TIP3   OH223854   6.179   5.155  11.976  0.1737  0.3375 -0.5416
  788TIP3    H123855   6.248   5.157  12.043  0.9452  1.0970 -1.3249
  788TIP3    H223856   6.225   5.135  11.894 -0.5988  0.4513 -1.0183
  789TIP3   OH223857   2.945   0.797  13.858 -0.9313 -0.2918  0.1063
  789TIP3    H123858   2.853   0.777  13.842 -0.3096 -2.4624 -1.0954
  789TIP3    H223859   2.964   0.757  13.943 -1.0166 -0.0980  0.2178
  790TIP3   OH223860   6.693   2.965  11.736  0.5704  0.1667  0.3439
  790TIP3    H123861   6.667   2.919  11.656 -0.1448  0.0369  0.6414
  790TIP3    H223862   6.622   3.027  11.752  1.3305  1.0922  0.1729
  791TIP3   OH223863   1.455   1.853  14.191  0.1075 -0.2942  0.1553
  791TIP3    H123864   1.410   1.770  14.175  2.8044 -1.6395 -1.0690
  791TIP3    H223865   1.461   1.894  14.105  0.8847  0.0391  0.3655
  792TIP3   OH223866   2.055   1.328  11.414  0.0662  0.2312 -0.4688
  792TIP3    H123867   1.979   1.355  11.363 -1.0539 -1.4827  0.1973
  792TIP3    H223868   2.126   1.320  11.350 -0.4648  1.2192 -1.2036
  793TIP3   OH223869   2.659   6.637  10.968  0.0525  0.5091 -0.6846
  793TIP3    H123870   2.608   6.717  10.981  1.6162  1.3738  0.5802
  793TIP3    H223871   2.733   6.646  11.028 -0.2161 -2.3599  0.2222
  794TIP3   OH223872   3.248   3.483  10.281 -0.5111  0.1013 -0.2757
  794TIP3    H123873   3.174   3.435  10.243 -0.3306  0.2498 -0.8291
  794TIP3    H223874   3.209   3.535  10.352 -0.7629 -0.5897  0.0992
  795TIP3   OH223875   6.813   6.613  13.000  0.1439 -0.3722  0.5097
  795TIP3    H123876   6.729   6.567  12.993  0.2180 -0.8307  2.2413
  795TIP3    H223877   6.789   6.700  13.032  0.2481 -0.1068 -0.1154
  796TIP3   OH223878   3.808   3.234  12.254 -0.0847  0.8044  1.0654
  796TIP3    H123879   3.901   3.212  12.248 -0.4615 -0.4449 -3.4107
  796TIP3    H223880   3.802   3.323  12.221 -0.3515  1.9879  3.9668
  797TIP3   OH223881   0.741   4.621  13.874  0.6472 -0.3685  0.4162
  797TIP3    H123882   0.754   4.547  13.934 -1.3706  0.5038  2.0509
  797TIP3    H223883   0.651   4.611  13.842  0.1618  1.5725  1.0366
  798TIP3   OH223884   1.287   3.991   1.033 -0.2948  0.9528 -0.2926
  798TIP3    H123885   1.340   3.961   1.107  0.7612  0.6679 -1.1269
  798TIP3    H223886   1.196   3.978   1.061 -0.0401 -3.7250 -0.7640
  799TIP3   OH223887   6.962   0.501  11.929 -0.4770 -0.4879  0.5680
  799TIP3    H123888   7.021   0.445  11.979 -0.7680  0.5814  2.1718
  799TIP3    H223889   6.874   0.473  11.954 -0.7163 -1.6668 -1.3545
  800TIP3   OH223890   1.275   0.840  11.296  0.0140 -0.2341 -0.1597
  800TIP3    H123891   1.227   0.922  11.310 -1.9296 -0.7564 -2.9775
  800TIP3    H223892   1.227   0.775  11.348  0.1268 -0.0261  0.2086
  801TIP3   OH223893   1.809   5.658  10.024  0.2439 -0.0651  0.7217
  801TIP3    H123894   1.875   5.590  10.041 -0.1230 -0.8506 -0.7606
  801TIP3    H223895   1.849   5.714   9.958  0.3650  0.9179  1.6162
  802TIP3   OH223896   4.748   0.717   2.244  0.2976 -0.0819  0.0729
  802TIP3    H123897   4.686   0.685   2.178  0.6463  0.4345 -0.5280
  802TIP3    H223898   4.728   0.811   2.251  0.2230 -0.1447  0.7613
  803TIP3   OH223899   0.726   4.753  11.077  0.0884 -0.0921  0.5841
  803TIP3    H123900   0.783   4.728  11.149  2.7585  1.4311 -0.8528
  803TIP3    H223901   0.675   4.827  11.110 -0.1479 -0.6388  1.4788
  804TIP3   OH223902   1.788   4.120  13.320 -0.2146 -0.0358  0.4176
  804TIP3    H123903   1.822   4.120  13.409  0.1942 -1.7190  0.3079
  804TIP3    H223904   1.693   4.124  13.330 -0.1271  2.1602  0.8119
  805TIP3   OH223905   3.867   2.192  13.848  0.1415  0.0218  0.2334
  805TIP3    H123906   3.934   2.173  13.782  1.6170  0.9720  1.3766
  805TIP3    H223907   3.796   2.233  13.798  0.1346 -1.4900 -1.0889
  806TIP3   OH223908   2.741   2.672   9.635  0.3281 -0.1714  1.0514
  806TIP3    H123909   2.826   2.637   9.607 -0.2839  0.5797 -2.2118
  806TIP3    H223910   2.750   2.767   9.624 -0.6310  0.0069  1.6535
  807TIP3   OH223911   0.095   4.480   9.727 -0.0458 -0.7929 -0.0835
  807TIP3    H123912   0.013   4.440   9.701 -0.9977  0.4280  0.9190
  807TIP3    H223913   0.087   4.572   9.700  0.8121 -0.5580  0.4074
  808TIP3   OH223914   5.808   4.349  10.743  0.2460  0.5342  0.4289
  808TIP3    H123915   5.738   4.328  10.681 -0.2939  0.5668  1.0227
  808TIP3    H223916   5.795   4.442  10.763  0.9249  0.7395 -0.0332
  809TIP3   OH223917   5.161   5.980  13.910  0.1300 -0.1056 -0.4408
  809TIP3    H123918   5.253   5.959  13.925 -0.0338 -0.5880 -0.0891
  809TIP3    H223919   5.127   5.904  13.863 -0.1049  0.0563 -0.5338
  810TIP3   OH223920   6.416   5.480  11.177 -0.1971 -0.0521 -0.4592
  810TIP3    H123921   6.423   5.517  11.089 -1.1050  0.7035 -0.2233
  810TIP3    H223922   6.449   5.549  11.235  1.1377 -0.8331 -0.2407
  811TIP3   OH223923   2.827   3.204  12.613  0.3543  0.1838 -0.4511
  811TIP3    H123924   2.920   3.225  12.613  0.9791 -2.1877 -2.4057
  811TIP3    H223925   2.790   3.259  12.545  0.7875 -0.4945 -1.2494
  812TIP3   OH223926   3.976   1.066  12.989 -0.0912 -0.8714 -0.4986
  812TIP3    H123927   4.058   1.065  13.039  0.1795 -0.9230 -0.9344
  812TIP3    H223928   4.003   1.085  12.900 -0.7093  0.6203 -0.3913
  813TIP3   OH223929   2.179   2.719  12.636  0.6545 -0.5279 -0.4858
  813TIP3    H123930   2.120   2.681  12.701  0.1061 -2.0126 -1.7926
  813TIP3    H223931   2.241   2.648  12.616  1.1693  0.1008 -1.1757
  814TIP3   OH223932   3.953   0.903   9.380 -0.0312 -0.1057 -0.1048
  814TIP3    H123933   4.024   0.957   9.416 -1.0899  1.3152 -0.0944
  814TIP3    H223934   3.986   0.874   9.295  0.7978  0.0464  0.1558
  815TIP3   OH223935   1.965   1.694  10.795 -0.0164  0.0257 -0.2155
  815TIP3    H123936   1.941   1.691  10.703 -0.2215  2.3855 -0.3006
  815TIP3    H223937   1.900   1.751  10.835  1.5767  1.2023  0.8483
  816TIP3   OH223938   3.187   5.027   9.462 -0.2720 -0.2437  0.3511
  816TIP3    H123939   3.234   4.954   9.421 -0.0352 -0.2463  0.6227
  816TIP3    H223940   3.145   5.073   9.389 -0.6881 -0.8353  0.2021
  817TIP3   OH223941   5.771   0.527  11.637  0.0883  0.3022  0.1637
  817TIP3    H123942   5.746   0.535  11.545  1.8941 -0.3075 -0.4247
  817TIP3    H223943   5.728   0.447  11.667 -0.7187  0.6427 -0.0578
  818TIP3   OH223944   3.389   2.225  11.287  0.5410  0.1905 -0.2088
  818TIP3    H123945   3.379   2.319  11.275  1.3823  0.2054 -0.8158
  818TIP3    H223946   3.302   2.189  11.269 -0.4333  1.0380  2.3178
  819TIP3   OH223947   2.078   6.830  14.327 -0.0900  0.3900  0.8300
  819TIP3    H123948   2.042   6.834  14.239  0.6417 -1.8833  0.3552
  819TIP3    H223949   2.034   6.900  14.375 -1.7635  0.5761 -0.8839
  820TIP3   OH223950   3.156   1.284  14.178  0.1347 -0.5505 -0.5752
  820TIP3    H123951   3.159   1.338  14.099  1.4004  0.9952  0.4486
  820TIP3    H223952   3.206   1.334  14.243  1.1663 -2.8438  0.5461
  821TIP3   OH223953   4.668   3.209  14.860  0.2288  0.1782  0.2972
  821TIP3    H123954   4.681   3.117  14.837 -0.3838  0.5436 -1.7942
  821TIP3    H223955   4.579   3.228  14.830 -0.0354  1.1997  1.6608
  822TIP3   OH223956   1.237   1.952  11.916 -0.2542 -0.0342  0.2746
  822TIP3    H123957   1.231   1.922  12.007 -0.7482  0.4907  0.4190
  822TIP3    H223958   1.154   1.997  11.900  0.3187  0.9366 -0.0534
  823TIP3   OH223959   1.985   0.633  10.120  0.7086 -0.7895  0.2860
  823TIP3    H123960   2.035   0.605  10.043  1.2800  3.1250 -0.9989
  823TIP3    H223961   2.051   0.660  10.184  0.2557 -0.6412  0.6997
  824TIP3   OH223962   1.395   6.726  12.687 -0.1613 -0.0341  0.2351
  824TIP3    H123963   1.421   6.686  12.770 -0.0889  0.0462  0.2524
  824TIP3    H223964   1.374   6.817  12.711 -0.2234 -0.0344  0.1804
  825TIP3   OH223965   4.479   5.078  10.631 -0.3220  0.2132 -0.0789
  825TIP3    H123966   4.507   5.080  10.722  1.7422 -0.9678 -0.6044
  825TIP3    H223967   4.433   4.995  10.622  1.0161 -0.5263 -0.4518
  826TIP3   OH223968   7.024   4.526  14.148 -0.2372  0.1991  0.3907
  826TIP3    H123969   7.060   4.451  14.195 -0.2788 -1.2236 -1.6984
  826TIP3    H223970   7.092   4.593  14.152  0.1937 -0.2929  1.4821
  827TIP3   OH223971   3.334   1.233  14.495  0.0920 -0.2902 -0.5441
  827TIP3    H123972   3.329   1.174  14.571 -0.4260 -1.8640 -1.7368
  827TIP3    H223973   3.328   1.321  14.532  1.5373 -0.9180  1.3892
  828TIP3   OH223974   0.878   2.491  15.129  0.0849  0.1229  0.1282
  828TIP3    H123975   0.967   2.497  15.094  0.2617 -3.9772 -0.7283
  828TIP3    H223976   0.880   2.413  15.185 -3.0150 -0.3082 -0.2021
  829TIP3   OH223977   5.560   1.546  10.009  0.0522  0.1103 -0.1796
  829TIP3    H123978   5.470   1.547  10.039  0.2527  1.0563  0.4402
  829TIP3    H223979   5.555   1.538   9.914 -0.6413 -1.0158 -0.0655
  830TIP3   OH223980   3.229   0.067  11.576 -0.1390  0.2780  0.2927
  830TIP3    H123981   3.230  -0.016  11.624 -1.8292  1.5584  2.8078
  830TIP3    H223982   3.138   0.077  11.548  0.1843  0.9943 -0.5407
  831TIP3   OH223983   6.738   6.127  14.454 -0.1942 -0.5279  0.0819
  831TIP3    H123984   6.694   6.191  14.510 -0.7723 -0.9532  0.1108
  831TIP3    H223985   6.770   6.060  14.514  1.5139  0.3415  0.2046
  832TIP3   OH223986   2.070   4.614  10.375  0.0630 -0.6060  0.5172
  832TIP3    H123987   1.990   4.572  10.407  0.3644 -1.7418 -0.1749
  832TIP3    H223988   2.040   4.698  10.339 -1.0640 -1.6601 -1.1371
  833TIP3   OH223989   0.584   0.115  11.524 -0.0416 -0.1248  0.0505
  833TIP3    H123990   0.560   0.119  11.431  2.8138 -0.6913 -0.8148
  833TIP3    H223991   0.560   0.026  11.551  2.5288 -1.3430 -1.3151
  834TIP3   OH223992   0.843   1.911   9.198  0.0132 -0.3937 -0.1739
  834TIP3    H123993   0.821   1.910   9.291 -0.0650  0.5337 -0.1660
  834TIP3    H223994   0.874   2.000   9.182  1.2250 -0.9052 -0.7685
  835TIP3   OH223995   4.412   3.053  12.611  0.0836  0.3686  0.2636
  835TIP3    H123996   4.388   3.145  12.617 -2.4914 -0.1671 -0.5367
  835TIP3    H223997   4.420   3.024  12.702  0.6896  1.3112  0.5182
  836TIP3   OH223998   6.039   4.180  11.233 -0.0091  0.6919  0.2792
  836TIP3    H123999   6.068   4.204  11.321  0.7832  0.3232  0.1240
  836TIP3    H224000   6.079   4.246  11.176  2.1437 -0.8624 -0.1472
  837TIP3   OH224001   0.754   3.328  13.685 -0.1691 -0.0236 -0.1461
  837TIP3    H124002   0.842   3.362  13.672 -0.0540 -1.2084 -3.1513
  837TIP3    H224003   0.703   3.365  13.613 -1.5160 -1.3302  0.0761
  838TIP3   OH224004   1.832   4.900   2.025 -0.3754  0.0365  0.7023
  838TIP3    H124005   1.784   4.841   2.083 -1.3042  1.0481  0.9758
  838TIP3    H224006   1.918   4.857   2.015 -1.0239 -1.3661  0.8648
  839TIP3   OH224007   4.604   5.100  13.946 -0.5363 -0.3180  0.1413
  839TIP3    H124008   4.598   5.090  14.041 -2.0689  0.8529  0.1980
  839TIP3    H224009   4.646   5.186  13.934  0.4012 -0.8161 -0.2655
  840TIP3   OH224010   1.921   5.996  11.434  0.3489 -0.2794  0.4172
  840TIP3    H124011   1.950   5.929  11.496 -0.6367 -1.5234 -0.4103
  840TIP3    H224012   2.002   6.029  11.396  0.8448 -1.5894  0.2606
  841TIP3   OH224013   5.748   4.573  10.866 -0.3771  0.1455  0.0076
  841TIP3    H124014   5.839   4.601  10.856 -0.5420  0.2867 -1.2563
  841TIP3    H224015   5.698   4.654  10.867 -0.4363  0.1253  1.6993
  842TIP3   OH224016   6.709   0.318   9.513  0.0595 -0.3733 -0.5230
  842TIP3    H124017   6.726   0.398   9.463 -0.4324  0.4259  0.5542
  842TIP3    H224018   6.783   0.261   9.492  0.0859  0.0949 -1.8113
  843TIP3   OH224019   6.400   3.830  10.230  0.0218 -0.0438  0.6766
  843TIP3    H124020   6.317   3.840  10.276  0.0183  0.1344  0.6312
  843TIP3    H224021   6.445   3.914  10.242 -1.0602  1.0028 -1.8251
  844TIP3   OH224022   1.345   4.598  10.666  0.3319  0.6004 -0.4172
  844TIP3    H124023   1.294   4.655  10.608  1.0754  0.6718 -1.0130
  844TIP3    H224024   1.387   4.659  10.727 -0.3516  0.5345  0.1365
  845TIP3   OH224025   3.539   4.653  13.565  0.1249 -0.3090 -0.1527
  845TIP3    H124026   3.455   4.698  13.574 -1.3938 -2.2638 -3.1316
  845TIP3    H224027   3.529   4.572  13.616 -0.4246 -1.2583 -1.7242
  846TIP3   OH224028   3.712   1.183   0.204 -0.6292 -0.1854  0.1112
  846TIP3    H124029   3.694   1.214   0.115  2.0826  0.8109 -0.1745
  846TIP3    H224030   3.719   1.088   0.196 -0.4134 -0.1022 -0.7439
  847TIP3   OH224031   2.472   0.424  10.644 -0.6971  0.1849  0.1276
  847TIP3    H124032   2.400   0.365  10.622 -0.7867  0.3852 -0.1171
  847TIP3    H224033   2.435   0.511  10.635 -0.9574  0.2712  1.7948
  848TIP3   OH224034   4.665   0.078  10.755  0.1757  0.2723 -0.7371
  848TIP3    H124035   4.734   0.018  10.783 -0.8052 -1.1778 -1.2869
  848TIP3    H224036   4.696   0.165  10.782  1.4260 -0.5141  0.5131
  849TIP3   OH224037   5.027   5.730  10.060 -0.2128  0.5452 -0.2106
  849TIP3    H124038   4.982   5.656  10.018 -0.3039  0.0541  0.7241
  849TIP3    H224039   4.970   5.754  10.133 -0.2642  1.6569 -0.5977
  850TIP3   OH224040   4.621   0.460  12.162  0.3092 -0.3136 -0.3095
  850TIP3    H124041   4.644   0.543  12.120 -0.5249 -0.1382 -0.4224
  850TIP3    H224042   4.569   0.413  12.096 -0.8459 -0.1148  0.4334
  851TIP3   OH224043   5.870   5.426  15.114  0.1644  0.3566 -0.0604
  851TIP3    H124044   5.807   5.363  15.079 -0.4779 -0.2378  2.0346
  851TIP3    H224045   5.948   5.373  15.134  0.7584  0.8029 -1.0694
  852TIP3   OH224046   7.194   6.939  10.865 -0.6847  0.2197  0.0083
  852TIP3    H124047   7.110   6.961  10.825 -1.3663 -3.4862 -1.0759
  852TIP3    H224048   7.253   6.927  10.791  0.3947  1.2523  0.6736
  853TIP3   OH224049   0.743   2.530  11.448  0.0689 -0.5985 -0.0924
  853TIP3    H124050   0.706   2.616  11.471 -1.9421 -1.7969  1.5066
  853TIP3    H224051   0.792   2.503  11.526  1.9119 -0.3369 -1.1132
  854TIP3   OH224052   2.765   4.221  10.514  0.0700  0.3370 -0.3414
  854TIP3    H124053   2.710   4.158  10.467 -0.3063  0.3667  0.0529
  854TIP3    H224054   2.749   4.305  10.471 -1.0337  0.5510  0.4569
  855TIP3   OH224055   2.954   5.148  12.985 -0.0793  0.4249  0.3252
  855TIP3    H124056   2.891   5.078  13.002 -0.3833  0.5576 -0.2168
  855TIP3    H224057   2.910   5.204  12.920 -0.1006  1.4585  1.1933
  856TIP3   OH224058   3.601   1.867   0.007  0.7667 -0.0562  0.5352
  856TIP3    H124059   3.618   1.911   0.090 -0.7275 -2.5582  2.3071
  856TIP3    H224060   3.513   1.830   0.017  0.6722 -0.7266 -2.0530
  857TIP3   OH224061   2.445   3.212  13.612  0.2247 -0.3810  0.0409
  857TIP3    H124062   2.389   3.263  13.554  0.7316 -1.8388 -1.8641
  857TIP3    H224063   2.400   3.128  13.620  0.3118 -0.3033  1.5824
  858TIP3   OH224064   0.088   0.022  13.526 -0.0610  0.3553 -0.6209
  858TIP3    H124065   0.154   0.020  13.595 -0.2828  1.3795 -0.3573
  858TIP3    H224066   0.122  -0.036  13.458  1.0428  0.7577 -0.4318
  859TIP3   OH224067   4.919   0.882  13.079 -0.1940  0.0590 -0.2884
  859TIP3    H124068   4.938   0.896  12.986  0.8903 -1.6732 -0.3691
  859TIP3    H224069   4.978   0.942  13.125  0.9082 -0.6798 -0.6944
  860TIP3   OH224070   3.288   5.043  11.099  0.5508 -0.2500 -0.0674
  860TIP3    H124071   3.196   5.053  11.123  0.1768  0.1732 -1.5652
  860TIP3    H224072   3.310   4.954  11.125  0.2340  0.1904  1.8672
  861TIP3   OH224073   1.702   2.853  10.130 -0.8133  0.0951  0.0298
  861TIP3    H124074   1.753   2.781  10.094 -1.8981  1.2761 -4.5682
  861TIP3    H224075   1.619   2.814  10.156 -1.3082 -0.4848 -2.1961
  862TIP3   OH224076   3.998   4.404  10.316 -0.1654 -0.2240  0.5138
  862TIP3    H124077   3.932   4.399  10.247 -0.4797 -0.2465  0.8083
  862TIP3    H224078   3.946   4.408  10.397  0.1975 -1.5829  0.8372
  863TIP3   OH224079   4.794   2.409  13.377 -0.9276  0.0558 -0.4573
  863TIP3    H124080   4.883   2.411  13.341 -0.6250  1.7118  0.3127
  863TIP3    H224081   4.777   2.499  13.404 -2.1174 -0.6006  1.1474
  864TIP3   OH224082   1.751   1.841  10.156 -0.0150  0.0613  0.9401
  864TIP3    H124083   1.782   1.893  10.081 -2.5406 -1.5455 -1.4052
  864TIP3    H224084   1.829   1.799  10.190  0.9835 -2.1049 -3.2720
  865TIP3   OH224085   7.122   3.924  14.107 -0.0860 -0.2954 -0.4433
  865TIP3    H124086   7.146   3.976  14.031  1.3599  0.5265  0.5240
  865TIP3    H224087   7.120   3.833  14.075  0.1358  0.0672 -1.5165
  866TIP3   OH224088   6.171   1.870   9.447  0.0823  0.0791  0.5997
  866TIP3    H124089   6.110   1.796   9.442  1.3212 -0.8531 -1.7843
  866TIP3    H224090   6.241   1.839   9.504 -0.2603  0.0869  1.0307
  867TIP3   OH224091   1.378   0.925  12.831  0.4248 -0.8788 -0.3105
  867TIP3    H124092   1.460   0.923  12.881  1.0489  1.4299 -1.0713
  867TIP3    H224093   1.406   0.948  12.742 -0.8078 -3.2298 -1.3783
  868TIP3   OH224094   5.913   5.149  11.994  0.1695 -0.0028  0.1092
  868TIP3    H124095   5.898   5.191  11.909  1.3746 -0.1565 -0.2030
  868TIP3    H224096   6.008   5.147  12.003  0.1722 -2.3664  0.2304
  869TIP3   OH224097   1.505   5.161  14.521 -0.3417  0.4214 -0.1086
  869TIP3    H124098   1.558   5.171  14.600  1.8219 -0.4163 -1.3461
  869TIP3    H224099   1.563   5.116  14.460 -2.3622 -0.0656 -1.7697
  870TIP3   OH224100   2.688   3.875  10.728  0.3845  0.4359 -0.0400
  870TIP3    H124101   2.657   3.965  10.732  2.3043  1.1341 -0.0296
  870TIP3    H224102   2.659   3.836  10.810 -0.6141  0.9526 -0.1214
  871TIP3   OH224103   5.711   0.750  10.105  0.1396 -0.1122  0.3687
  871TIP3    H124104   5.732   0.659  10.127 -1.7214 -0.6066  0.2280
  871TIP3    H224105   5.656   0.744  10.027  0.0500  1.1459  0.3197
  872TIP3   OH224106   6.107   1.211  10.963 -0.3536  0.0293  0.5036
  872TIP3    H124107   6.052   1.184  10.889  0.6611  0.4703 -0.4372
  872TIP3    H224108   6.049   1.204  11.039 -1.3435 -0.7092 -0.2817
  873TIP3   OH224109   5.346   4.080  11.087 -0.2171 -0.8079  0.0788
  873TIP3    H124110   5.417   4.142  11.068 -0.3207 -0.1647  1.6027
  873TIP3    H224111   5.320   4.046  11.002 -0.3120  1.4407 -0.8599
  874TIP3   OH224112   2.185   3.898  11.250 -0.2199  0.1971  0.0820
  874TIP3    H124113   2.202   3.955  11.324  0.5543  0.7113 -0.4681
  874TIP3    H224114   2.164   3.813  11.289 -0.0892  0.5262  0.8874
  875TIP3   OH224115   3.954   1.322   9.845  0.0299  0.1975 -0.4545
  875TIP3    H124116   3.918   1.255   9.903 -0.3337  0.6804 -0.1172
  875TIP3    H224117   3.893   1.327   9.772  0.8674 -0.9386 -1.2920
  876TIP3   OH224118   4.156   5.591   3.854 -0.0134  0.1259 -0.3780
  876TIP3    H124119   4.186   5.658   3.915  0.0986 -0.8727  0.6973
  876TIP3    H224120   4.061   5.589   3.864  0.0863 -0.8004  0.6303
  877TIP3   OH224121   4.117   6.680   9.659 -0.0251 -0.3115  0.3108
  877TIP3    H124122   4.204   6.660   9.626  0.6502  0.6941  1.4151
  877TIP3    H224123   4.066   6.600   9.644  1.2229 -1.0963  0.1632
  878TIP3   OH224124   3.572   5.580  10.685  0.1041  0.4517 -0.1456
  878TIP3    H124125   3.608   5.497  10.653 -1.7986 -0.8464  0.9006
  878TIP3    H224126   3.493   5.594  10.633  1.1033  2.4114 -1.2819
  879TIP3   OH224127   5.719   2.480  10.554  0.2632  0.6995  0.0642
  879TIP3    H124128   5.662   2.460  10.480 -0.7630  1.4429  0.6341
  879TIP3    H224129   5.693   2.417  10.622  2.3313 -1.0923 -0.7193
  880TIP3   OH224130   5.260   6.000  11.664  0.5273 -0.1943 -0.0294
  880TIP3    H124131   5.258   5.998  11.760  0.1508 -1.8854 -0.0510
  880TIP3    H224132   5.333   6.059  11.643  0.7149  0.0724  1.2862
  881TIP3   OH224133   0.700   5.459  11.771  0.2868  0.0224 -0.2610
  881TIP3    H124134   0.717   5.374  11.812 -1.8474 -1.9319 -3.0599
  881TIP3    H224135   0.658   5.510  11.841  0.8742 -1.4758  1.2713
  882TIP3   OH224136   2.748   5.898  13.753 -0.1860 -0.6856  0.1727
  882TIP3    H124137   2.803   5.827  13.719  0.5220 -0.7936  1.5037
  882TIP3    H224138   2.689   5.856  13.814  0.3711 -0.1162  1.1258
  883TIP3   OH224139   0.211   0.161  12.626 -0.1518 -0.1981 -0.6488
  883TIP3    H124140   0.252   0.187  12.708 -1.4644  0.0465 -0.0316
  883TIP3    H224141   0.217   0.066  12.625 -0.4921 -0.2320 -0.0440
  884TIP3   OH224142   0.055   1.167  11.886 -0.2153  0.1173 -0.8809
  884TIP3    H124143  -0.038   1.148  11.894 -0.4466  0.7211 -1.8964
  884TIP3    H224144   0.058   1.262  11.870  0.7558  0.6983  2.0671
  885TIP3   OH224145   2.831   3.396   1.985  0.4637 -0.1272 -0.1007
  885TIP3    H124146   2.918   3.360   1.996  0.1108 -0.9109  0.2150
  885TIP3    H224147   2.787   3.334   1.926  0.1883  0.3685 -0.4231
  886TIP3   OH224148   6.483   0.311  11.128 -0.4095  0.1102 -0.6176
  886TIP3    H124149   6.549   0.284  11.192  0.1889  0.6574 -0.9845
  886TIP3    H224150   6.503   0.403  11.110 -3.1167  1.2592  1.5036
  887TIP3   OH224151   3.881   2.353  10.355  0.3475  0.5655 -0.1692
  887TIP3    H124152   3.837   2.321  10.277  2.0502 -2.9225  0.1376
  887TIP3    H224153   3.856   2.292  10.424  2.8363  0.5007  0.7798
  888TIP3   OH224154   1.089   4.327   9.876  0.2332  0.1726  0.5582
  888TIP3    H124155   1.091   4.369   9.790  0.1367  0.3730  0.6519
  888TIP3    H224156   1.163   4.365   9.923  1.4345 -1.3087 -0.0605
  889TIP3   OH224157   0.203   1.858   0.390 -0.9493 -0.4120 -0.1986
  889TIP3    H124158   0.146   1.932   0.413 -1.6554 -1.6371  2.3305
  889TIP3    H224159   0.146   1.798   0.343 -0.8974 -0.2443 -0.4791
  890TIP3   OH224160   6.880   0.541  12.356  0.4258 -0.0538 -0.3049
  890TIP3    H124161   6.809   0.560  12.417  1.5974  3.0773  0.2839
  890TIP3    H224162   6.960   0.558  12.406  1.5071 -0.3566 -1.8514
  891TIP3   OH224163   5.920   6.625  12.519 -0.0139  0.0361  0.5311
  891TIP3    H124164   5.978   6.549  12.524 -1.5427 -1.1450  1.1418
  891TIP3    H224165   5.857   6.603  12.450 -0.2381  0.9416  0.4298
  892TIP3   OH224166   3.413   1.752  15.163 -0.1768 -0.0518  0.2472
  892TIP3    H124167   3.369   1.836  15.146 -0.6648 -0.3959 -0.2021
  892TIP3    H224168   3.479   1.746  15.094 -2.2985 -1.5493 -1.8028
  893TIP3   OH224169   4.945   5.256   1.348 -0.2101  0.4185  0.0048
  893TIP3    H124170   4.887   5.200   1.399 -1.3373  1.0878 -0.5022
  893TIP3    H224171   4.982   5.317   1.411 -0.3607  0.2351  0.2687
  894TIP3   OH224172   6.633   2.340  11.973 -0.0422 -0.0884 -0.3151
  894TIP3    H124173   6.692   2.378  12.038 -0.4850  0.3306 -0.1538
  894TIP3    H224174   6.570   2.409  11.955 -0.2931 -0.4207 -0.7306
  895TIP3   OH224175   4.072   2.022  10.890 -0.2623 -0.5444 -0.0459
  895TIP3    H124176   4.005   2.084  10.862  1.4269  0.7038 -1.5148
  895TIP3    H224177   4.113   1.992  10.808  0.2275 -2.1557  0.7416
  896TIP3   OH224178   1.333   1.621   0.567 -0.0279 -0.0394 -0.4078
  896TIP3    H124179   1.428   1.624   0.579 -0.0714  0.5751 -0.2033
  896TIP3    H224180   1.304   1.552   0.627  0.1290  0.7910  0.6692
  897TIP3   OH224181   1.971   1.731   9.333 -0.2027  0.2755 -0.8623
  897TIP3    H124182   2.053   1.757   9.290 -0.7499  0.1024 -2.0506
  897TIP3    H224183   1.995   1.657   9.389  0.3278 -0.2066 -1.7137
  898TIP3   OH224184   3.805   3.766  10.705  0.2859 -0.1953  0.0690
  898TIP3    H124185   3.746   3.698  10.737  1.1501 -1.1925 -0.4027
  898TIP3    H224186   3.753   3.846  10.709 -1.4392 -1.1787 -1.2614
  899TIP3   OH224187   5.770   3.977  10.339  0.3522 -0.5369  0.0314
  899TIP3    H124188   5.781   4.020  10.254  0.7953 -1.6222 -0.4895
  899TIP3    H224189   5.686   3.931  10.331 -0.7464  1.1932  1.0405
  900TIP3   OH224190   6.519   7.100  12.702 -0.0134 -0.0089  0.1956
  900TIP3    H124191   6.549   7.164  12.766  0.3516  1.4038 -1.3112
  900TIP3    H224192   6.450   7.052  12.746 -0.0679  1.1939  1.4935
  901TIP3   OH224193   6.369   2.137  10.282  0.2198 -0.0612  0.6768
  901TIP3    H124194   6.293   2.177  10.240 -0.3310 -0.9199  0.8086
  901TIP3    H224195   6.389   2.195  10.356  1.0324  1.3098 -0.5861
  902TIP3   OH224196   1.649   2.218   0.034  0.0335 -0.0797 -0.1393
  902TIP3    H124197   1.564   2.238   0.074  0.2627  2.5645 -0.7522
  902TIP3    H224198   1.633   2.221  -0.060  0.4999 -1.2908 -0.2769
  903TIP3   OH224199   1.453   0.968  10.525  0.2761 -0.0138 -0.5024
  903TIP3    H124200   1.533   1.017  10.544  0.1993 -0.0891  0.0517
  903TIP3    H224201   1.391   1.033  10.492  0.1552  0.2824  0.2863
  904TIP3   OH224202   6.111   4.612  11.250  0.2200  0.2102  0.5877
  904TIP3    H124203   6.126   4.555  11.174  2.1997  1.1210  0.2268
  904TIP3    H224204   6.161   4.570  11.320 -1.7304 -0.7146  1.4909
  905TIP3   OH224205   0.239   1.059  10.072 -0.2396 -0.3697  0.1290
  905TIP3    H124206   0.330   1.028  10.070 -0.5418 -1.3952  1.2114
  905TIP3    H224207   0.209   1.052   9.981  0.5459 -0.6636 -0.1159
  906TIP3   OH224208   0.207   2.001  13.514 -0.0983 -0.4895  0.5700
  906TIP3    H124209   0.260   1.926  13.487 -1.9053 -1.7038  0.2969
  906TIP3    H224210   0.243   2.074  13.463  0.6754 -1.4636 -0.3431
  907TIP3   OH224211   3.031   1.415  12.672 -0.2593  0.0929 -0.0250
  907TIP3    H124212   3.016   1.419  12.767  0.9921 -0.9055  0.2536
  907TIP3    H224213   2.944   1.409  12.634 -0.7566 -0.7275  1.1579
  908TIP3   OH224214   7.024   4.548  10.027 -0.6877  0.2354 -0.2104
  908TIP3    H124215   6.966   4.508  10.091  0.5682 -0.4192  0.5714
  908TIP3    H224216   6.966   4.581   9.959 -1.9282 -0.8680  0.2641
  909TIP3   OH224217   4.009   3.007   1.753  0.3234  0.1699  0.1717
  909TIP3    H124218   4.011   3.050   1.668 -0.4100 -0.0565  0.0303
  909TIP3    H224219   3.970   3.071   1.812  0.5578  0.2192  0.2735
  910TIP3   OH224220   5.209   3.791   9.701  0.3669  0.4577 -0.5658
  910TIP3    H124221   5.296   3.753   9.690 -0.3024 -1.2960 -0.1143
  910TIP3    H224222   5.209   3.825   9.790  0.2857 -0.4579 -0.2024
  911TIP3   OH224223   5.625   3.755  11.982 -0.2917 -0.3610 -0.4793
  911TIP3    H124224   5.632   3.831  12.039  2.5626 -0.9343  0.0881
  911TIP3    H224225   5.545   3.711  12.010 -0.9743  1.3865  0.4626
  912TIP3   OH224226   0.733   1.392  10.197  0.4212 -0.0495 -0.6431
  912TIP3    H124227   0.728   1.306  10.239  2.7290 -1.9905 -3.8851
  912TIP3    H224228   0.767   1.450  10.265  0.4780 -2.1048  1.1865
  913TIP3   OH224229   4.669   4.104  13.211 -0.1246 -0.3597  0.3787
  913TIP3    H124230   4.721   4.092  13.131 -0.6831  1.0267 -0.2212
  913TIP3    H224231   4.675   4.020  13.256  0.4803 -1.0650 -0.9585
  914TIP3   OH224232   6.670   2.498  12.652 -0.6009  0.0251  0.2517
  914TIP3    H124233   6.680   2.472  12.744  1.0339 -0.0099  0.0872
  914TIP3    H224234   6.577   2.485  12.634 -1.1353  0.8000  2.1305
  915TIP3   OH224235   6.849   6.333  15.216 -0.6250  0.3395  0.3720
  915TIP3    H124236   6.774   6.286  15.253 -1.1033 -0.2286 -1.2275
  915TIP3    H224237   6.824   6.350  15.125  0.3287  2.0372  0.3780
  916TIP3   OH224238   2.521   2.522  14.486 -0.2621  0.4541  0.2916
  916TIP3    H124239   2.493   2.564  14.405  0.2270  1.5640  0.6632
  916TIP3    H224240   2.512   2.591  14.552  1.4849  0.2961  0.7570
  917TIP3   OH224241   0.701   2.416  14.939  0.4300  0.2976 -0.4932
  917TIP3    H124242   0.672   2.332  14.974 -1.7013  1.2437  0.1664
  917TIP3    H224243   0.780   2.436  14.988 -0.4924 -0.1206  1.2597
  918TIP3   OH224244   3.436   1.777  10.764 -0.0039  0.4009  0.1600
  918TIP3    H124245   3.353   1.822  10.749  0.8287  2.1674  0.4950
  918TIP3    H224246   3.462   1.745  10.678 -1.9077 -1.9295  0.3492
  919TIP3   OH224247   1.456   1.053   9.472 -1.1423  0.2204  0.3050
  919TIP3    H124248   1.513   0.985   9.437 -0.6043 -0.7156  2.7714
  919TIP3    H224249   1.455   1.121   9.405 -1.3662 -1.9903 -2.1058
  920TIP3   OH224250   2.872   1.757  11.890  0.1273 -0.0904 -0.4916
  920TIP3    H124251   2.889   1.671  11.926 -3.1924 -1.3306 -1.5109
  920TIP3    H224252   2.914   1.757  11.804 -3.6731 -2.7664 -2.6562
  921TIP3   OH224253   1.057   6.924  10.296 -0.1939 -0.0869  0.0945
  921TIP3    H124254   1.050   6.837  10.337  0.5025 -0.2228 -0.0545
  921TIP3    H224255   1.116   6.972  10.354  0.4743 -0.1481 -0.5248
  922TIP3   OH224256   5.911   2.863  14.745  0.4977  0.0569  0.3902
  922TIP3    H124257   5.972   2.795  14.773  1.7102 -0.3797 -2.8401
  922TIP3    H224258   5.953   2.945  14.772  0.6983 -0.3539  1.3601
  923TIP3   OH224259   4.824   4.502  10.151  0.0616  0.4231 -0.1335
  923TIP3    H124260   4.897   4.499  10.213 -0.6163  0.5845  0.6991
  923TIP3    H224261   4.811   4.411  10.125 -0.5655  0.1343  1.0963
  924TIP3   OH224262   6.698   4.215   9.902 -0.1632  0.4426 -0.2479
  924TIP3    H124263   6.648   4.135   9.918  2.1325 -0.7839  1.4558
  924TIP3    H224264   6.789   4.191   9.921  0.7547  3.2210 -0.5803
  925TIP3   OH224265   1.706   7.001  14.776  0.2480  0.1916 -0.4735
  925TIP3    H124266   1.743   7.024  14.861 -1.8658  2.4790 -0.0244
  925TIP3    H224267   1.714   7.081  14.725  0.0065 -0.6502 -1.8714
  926TIP3   OH224268   5.863   2.981   9.361 -0.1576  0.1000 -0.4587
  926TIP3    H124269   5.913   2.993   9.441 -2.1486  0.9246  0.7310
  926TIP3    H224270   5.906   3.038   9.297  1.7279 -0.9111 -0.1723
  927TIP3   OH224271   3.049   6.066  11.279  0.3705  0.3293  0.4542
  927TIP3    H124272   3.112   5.996  11.269  0.9949  1.0898 -1.3899
  927TIP3    H224273   2.969   6.023  11.308  0.4546 -1.3228 -1.5617
  928TIP3   OH224274   0.182   4.089   0.576 -0.0471 -0.5419  0.0762
  928TIP3    H124275   0.265   4.124   0.543 -0.8461  0.7364 -0.6391
  928TIP3    H224276   0.124   4.088   0.500 -1.0214 -0.3748  0.7931
  929TIP3   OH224277   6.850   7.018  13.718 -0.1326  0.6275 -1.0353
  929TIP3    H124278   6.774   7.055  13.762  1.0020 -1.2091  2.9281
  929TIP3    H224279   6.910   7.092  13.705  0.2584  1.1352  2.5635
  930TIP3   OH224280   6.395   5.814  12.991  0.3952 -0.4940 -0.0596
  930TIP3    H124281   6.433   5.726  12.982  0.6711 -0.2175 -2.5152
  930TIP3    H224282   6.303   5.803  12.966  0.1580 -0.2480  0.6805
  931TIP3   OH224283   6.936   6.194  14.262 -0.1675 -0.6492  0.3999
  931TIP3    H124284   6.920   6.282  14.295 -0.6785 -0.9009  0.8463
  931TIP3    H224285   6.874   6.139  14.311  1.2378 -1.4891  1.2909
  932TIP3   OH224286   1.207   4.289  11.893  0.5287 -0.2733  0.1705
  932TIP3    H124287   1.294   4.309  11.930  1.0710 -2.3916  0.1490
  932TIP3    H224288   1.147   4.345  11.943  1.8507  1.1059  0.3164
  933TIP3   OH224289   6.972   3.656  11.662 -0.2389 -0.3670  0.8394
  933TIP3    H124290   6.967   3.752  11.669 -0.8946 -0.3237 -0.0892
  933TIP3    H224291   6.893   3.625  11.705 -0.2413 -0.4730  0.7575
  934TIP3   OH224292   6.610   6.598  10.775  0.4283  0.2892 -0.2514
  934TIP3    H124293   6.548   6.601  10.702 -0.7425 -0.0042  0.6858
  934TIP3    H224294   6.634   6.506  10.782  0.2557  0.2560 -0.0584
  935TIP3   OH224295   0.078   2.383  14.115 -0.2997 -0.0694 -0.4098
  935TIP3    H124296   0.060   2.326  14.039 -0.6943  0.9719 -1.1199
  935TIP3    H224297   0.083   2.471  14.078  1.0458  0.2839  0.5670
  936TIP3   OH224298   1.874   6.283  10.459  0.5026 -0.0102  0.3915
  936TIP3    H124299   1.821   6.235  10.522 -2.7425  0.5624 -1.6585
  936TIP3    H224300   1.864   6.234  10.377  2.0185  0.9390 -0.4063
  937TIP3   OH224301   4.901   3.616   9.932 -0.2748 -0.2809 -0.6378
  937TIP3    H124302   4.908   3.526   9.963 -2.4053 -0.3795 -0.3265
  937TIP3    H224303   4.949   3.616   9.849  0.6050 -1.4321 -0.1631
  938TIP3   OH224304   4.666   0.329  13.268 -0.4801  0.1573 -0.1330
  938TIP3    H124305   4.701   0.267  13.204  1.6027 -1.0310  1.9806
  938TIP3    H224306   4.572   0.315  13.267 -0.2273 -1.8101 -0.9522
  939TIP3   OH224307   0.025   6.057   1.749  0.2538  0.0281  0.1018
  939TIP3    H124308  -0.050   6.003   1.773 -0.3263  1.1738  0.9359
  939TIP3    H224309   0.038   6.041   1.656  0.0299 -1.4609  0.3043
  940TIP3   OH224310   2.983   0.447  12.119 -0.6002 -0.0862  0.1399
  940TIP3    H124311   3.040   0.454  12.043 -0.4889  0.2512  0.2529
  940TIP3    H224312   3.018   0.373  12.169 -0.0886  0.2981  0.3534
  941TIP3   OH224313   3.698   4.077   0.156 -0.3363 -0.1980 -0.2714
  941TIP3    H124314   3.671   4.151   0.210  0.6476 -1.2695  1.8688
  941TIP3    H224315   3.623   4.018   0.156 -1.1908  0.8146 -2.1411
  942TIP3   OH224316   1.450   0.976  12.566 -0.1525 -0.5748  0.1480
  942TIP3    H124317   1.446   1.070  12.584  2.4298 -0.7203  2.2112
  942TIP3    H224318   1.360   0.945  12.575 -0.5544  1.1420  3.5615
  943TIP3   OH224319   3.954   4.534  13.458 -0.3410 -0.0255  0.6440
  943TIP3    H124320   3.893   4.607  13.448 -0.7622 -0.3370  0.9123
  943TIP3    H224321   4.026   4.555  13.397 -1.1987 -0.1571 -0.4479
  944TIP3   OH224322   1.150   3.626  11.317  0.3419 -0.5814 -0.4159
  944TIP3    H124323   1.056   3.615  11.324  0.3219 -2.1056 -2.2204
  944TIP3    H224324   1.187   3.558  11.373  0.3926 -0.1658  0.0681
  945TIP3   OH224325   6.132   3.286  11.015 -0.3402  0.1902 -0.1318
  945TIP3    H124326   6.131   3.379  10.992 -0.7833 -0.4060 -2.8510
  945TIP3    H224327   6.224   3.268  11.034 -0.3500  1.2897  1.1749
  946TIP3   OH224328   5.942   0.652   0.672 -0.3431  0.0337 -0.0403
  946TIP3    H124329   5.894   0.581   0.627 -1.5822  0.4124  0.6410
  946TIP3    H224330   5.991   0.695   0.602  0.7528 -1.7116 -0.4246
  947TIP3   OH224331   6.666   4.679  10.903 -0.1344 -0.6320 -0.4765
  947TIP3    H124332   6.629   4.720  10.825  0.0588  3.7377  1.3901
  947TIP3    H224333   6.595   4.683  10.968  0.2942 -2.3358  0.1445
  948TIP3   OH224334   5.785   3.423   9.274  0.2109 -0.0694 -0.1143
  948TIP3    H124335   5.803   3.516   9.263  0.4588 -0.1824 -0.7164
  948TIP3    H224336   5.712   3.405   9.216  1.1942 -0.5698 -1.2292
  949TIP3   OH224337   5.827   3.264  13.131  0.2386 -0.4861  0.1883
  949TIP3    H124338   5.885   3.188  13.134  2.0617  0.8504  0.6858
  949TIP3    H224339   5.841   3.302  13.044 -1.3734 -1.2063 -0.4165
  950TIP3   OH224340   6.630   2.065  12.792  0.6447 -0.2481 -0.1094
  950TIP3    H124341   6.665   2.075  12.703  0.3871 -1.1936 -0.3299
  950TIP3    H224342   6.576   1.986  12.787 -1.7457  1.2669  0.1338
  951TIP3   OH224343   2.767   0.334  14.732  0.6012  0.1823 -0.2612
  951TIP3    H124344   2.748   0.372  14.647 -0.4329  0.2354 -0.0179
  951TIP3    H224345   2.774   0.240  14.715 -0.9936  0.0259 -0.2037
  952TIP3   OH224346   3.901   5.014  13.469 -0.0569 -0.0715 -0.6834
  952TIP3    H124347   3.837   4.953  13.433  0.5805 -0.3574 -1.3354
  952TIP3    H224348   3.900   4.996  13.563 -0.6868 -0.3022 -0.7290
  953TIP3   OH224349   0.215   2.272  13.407 -0.3100 -0.2235  0.0946
  953TIP3    H124350   0.300   2.306  13.380  0.9615 -2.1289  1.4042
  953TIP3    H224351   0.168   2.255  13.326  0.6938  0.5402 -0.6650
  954TIP3   OH224352   3.438   1.428  10.455 -0.9071  0.1841 -0.4378
  954TIP3    H124353   3.521   1.412  10.500 -0.5511  1.3753 -0.6355
  954TIP3    H224354   3.372   1.421  10.525 -0.5808 -0.1354 -0.1566
  955TIP3   OH224355   4.573   0.562  11.614 -0.0686  0.2749  0.7905
  955TIP3    H124356   4.530   0.583  11.696 -0.2985  3.2225  0.0406
  955TIP3    H224357   4.503   0.526  11.558 -0.0868 -0.9412  1.5586
  956TIP3   OH224358   2.985   0.258   9.719 -0.0356 -0.4168 -0.1971
  956TIP3    H124359   3.068   0.295   9.687  0.2141  0.8466  1.7308
  956TIP3    H224360   3.012   0.186   9.777 -0.0609  1.3495  2.1759
  957TIP3   OH224361   1.877   1.581  11.587 -1.0075 -0.6779 -0.2126
  957TIP3    H124362   1.810   1.571  11.519  0.4262  2.3020 -2.2652
  957TIP3    H224363   1.948   1.523  11.559 -1.2694 -1.1080 -0.0054
  958TIP3   OH224364   6.443   5.523  12.660 -0.6450 -0.2269  0.1442
  958TIP3    H124365   6.530   5.560  12.665 -0.3222 -1.0930  1.4483
  958TIP3    H224366   6.432   5.475  12.742 -1.3970 -2.1761 -1.0006
  959TIP3   OH224367   0.495   3.848  10.856 -0.1783  0.3281 -0.1279
  959TIP3    H124368   0.429   3.812  10.798  0.0451 -0.2485 -0.0254
  959TIP3    H224369   0.559   3.888  10.797 -0.5072  0.7069 -0.2337
  960TIP3   OH224370   0.684   3.263  11.744 -0.3492  0.7764  0.3036
  960TIP3    H124371   0.613   3.298  11.797  0.2924  1.4706  0.7167
  960TIP3    H224372   0.713   3.185  11.791 -1.6534 -0.2487 -0.5196
  961TIP3   OH224373   5.157   5.710  10.942 -0.4228 -0.1028  0.7315
  961TIP3    H124374   5.134   5.618  10.931 -2.9398  0.4906  0.3054
  961TIP3    H224375   5.094   5.742  11.007 -0.2995  1.5395  0.0774
  962TIP3   OH224376   6.983   3.396   9.653 -0.5246 -0.0794  0.0808
  962TIP3    H124377   6.920   3.342   9.700  1.1185 -0.3283  2.1940
  962TIP3    H224378   6.956   3.392   9.562 -2.3712 -1.7611  0.6383
  963TIP3   OH224379   2.418   3.518   2.493  0.1656  0.4072  0.4577
  963TIP3    H124380   2.510   3.493   2.486 -0.2846 -1.2125 -0.1072
  963TIP3    H224381   2.409   3.593   2.434  0.4147 -1.6305 -2.3997
  964TIP3   OH224382   5.135   1.039  10.812 -0.6051  0.2439 -0.1115
  964TIP3    H124383   5.169   1.098  10.880  0.2346  0.2387 -0.5087
  964TIP3    H224384   5.108   0.960  10.860  1.2287 -0.2985  0.1062
  965TIP3   OH224385   4.752   4.260  12.709 -0.0296  0.4247 -0.0596
  965TIP3    H124386   4.785   4.254  12.620 -1.6118  0.0230 -0.6469
  965TIP3    H224387   4.823   4.223  12.763  0.2176 -1.0562 -1.3165
  966TIP3   OH224388   4.231   1.880  10.697 -0.0606 -0.0355 -0.4895
  966TIP3    H124389   4.315   1.834  10.704  0.5524  1.1081 -0.0975
  966TIP3    H224390   4.249   1.955  10.642 -0.2141  1.5022  1.4436
  967TIP3   OH224391   4.229   5.574  10.600 -0.2618 -0.0324 -0.3062
  967TIP3    H124392   4.266   5.497  10.643 -1.9551 -0.3347  0.7052
  967TIP3    H224393   4.141   5.547  10.573 -0.1778  0.9550 -1.6967
  968TIP3   OH224394   4.992   6.877   0.838  0.0567  0.3816  0.3508
  968TIP3    H124395   4.987   6.797   0.890 -0.0747  0.7364  0.8880
  968TIP3    H224396   4.964   6.850   0.750  0.1051 -0.1784  0.4996
  969TIP3   OH224397   2.658   4.669  15.343  0.1060 -0.7451  0.1140
  969TIP3    H124398   2.747   4.690  15.372 -0.4762  1.1766  0.6980
  969TIP3    H224399   2.669   4.632  15.256  1.4276  0.7255 -0.3906
  970TIP3   OH224400   4.125   0.523  13.511  0.1924  0.1608  0.1859
  970TIP3    H124401   4.221   0.529  13.508  0.2444 -0.4187  0.5169
  970TIP3    H224402   4.105   0.511  13.604 -0.2810  1.3924  0.2562
  971TIP3   OH224403   6.567   5.092  10.553 -0.0582 -1.0154 -0.2689
  971TIP3    H124404   6.615   5.099  10.470 -0.1960  1.0237 -0.2126
  971TIP3    H224405   6.540   5.182  10.573 -0.4806 -1.5503  1.7321
  972TIP3   OH224406   4.514   3.072  13.133  0.3538  0.2683  0.0243
  972TIP3    H124407   4.575   3.113  13.194 -0.8524  1.4706  0.4872
  972TIP3    H224408   4.428   3.086  13.173 -0.4576  0.9249 -1.8612
  973TIP3   OH224409   1.538   6.194  13.620 -0.5485 -0.0034  0.1582
  973TIP3    H124410   1.592   6.116  13.609 -2.1773 -1.1837  0.1922
  973TIP3    H224411   1.485   6.176  13.698 -0.0393  1.7096  0.9446
  974TIP3   OH224412   4.412   3.232  11.039  0.5340 -0.7581  0.1681
  974TIP3    H124413   4.437   3.304  10.980 -0.0013 -1.0456 -0.4077
  974TIP3    H224414   4.393   3.276  11.122 -0.6761 -0.1206 -0.4240
  975TIP3   OH224415   0.859   2.323  12.782 -0.5975 -0.1567 -0.2606
  975TIP3    H124416   0.814   2.255  12.831 -0.1283 -1.1943 -1.2242
  975TIP3    H224417   0.788   2.371  12.737 -0.8886 -0.3936 -0.0577
  976TIP3   OH224418   2.812   6.675   9.700 -0.9115 -0.3215  0.5550
  976TIP3    H124419   2.864   6.670   9.620 -0.4364  0.9840  0.7438
  976TIP3    H224420   2.721   6.674   9.670 -0.7382  0.2323 -0.0248
  977TIP3   OH224421   4.502   1.470  11.404 -0.1930 -0.2099  0.5829
  977TIP3    H124422   4.556   1.548  11.413  0.6315 -0.6860 -0.0768
  977TIP3    H224423   4.457   1.481  11.320  0.5011 -0.7720  0.1232
  978TIP3   OH224424   0.498   7.058  12.314  0.3897 -0.1694  0.5702
  978TIP3    H124425   0.581   7.060  12.362  0.1368 -2.2968  1.1950
  978TIP3    H224426   0.454   6.979  12.345 -2.3175  1.3591  0.9669
  979TIP3   OH224427   1.007   3.342  10.968  0.5669 -0.4820 -0.0868
  979TIP3    H124428   1.031   3.435  10.968  1.8805 -0.7994  0.0878
  979TIP3    H224429   0.970   3.327  11.055 -2.1078  0.4289 -0.9630
  980TIP3   OH224430   1.759   2.252  13.570 -0.0632  0.8335  0.1818
  980TIP3    H124431   1.723   2.298  13.494 -2.4700  0.2394  0.8845
  980TIP3    H224432   1.701   2.275  13.642  1.7194  0.7616  1.7143
  981TIP3   OH224433   3.559   1.316  11.179 -0.0959  0.2804 -0.8347
  981TIP3    H124434   3.480   1.335  11.129  0.2688  1.2227 -1.0701
  981TIP3    H224435   3.630   1.358  11.130  0.1586  2.1209  0.9667
  982TIP3   OH224436   2.275   0.096  13.242 -0.1301  0.2401  0.8385
  982TIP3    H124437   2.312   0.049  13.316  2.4395 -1.6688 -1.4400
  982TIP3    H224438   2.209   0.036  13.206 -1.9957  1.5223  1.9862
  983TIP3   OH224439   5.052   3.566  11.165  0.4805  0.0289 -0.2247
  983TIP3    H124440   5.069   3.612  11.246 -1.2494 -0.1064  0.2523
  983TIP3    H224441   4.962   3.589  11.142 -0.4853 -3.0098  0.0216
  984TIP3   OH224442   7.095   4.069  10.480  0.2066 -0.2927  0.6890
  984TIP3    H124443   7.121   3.996  10.423  0.4461  1.0914 -1.0369
  984TIP3    H224444   7.176   4.093  10.525  0.4015 -0.3222  0.3611
  985TIP3   OH224445   1.043   4.282  11.628 -0.2643 -0.3711 -0.2802
  985TIP3    H124446   1.070   4.271  11.719 -0.4779 -0.5652 -0.2393
  985TIP3    H224447   1.112   4.240  11.577  0.1625  0.2649 -0.2397
  986TIP3   OH224448   1.208   0.523  10.053  0.1102 -0.1575 -0.2853
  986TIP3    H124449   1.275   0.562   9.996 -0.7436  1.4196 -0.2519
  986TIP3    H224450   1.214   0.573  10.134 -0.6328 -0.4810 -0.0242
  987TIP3   OH224451   2.338   6.367  11.591  0.1931  0.0617 -0.5104
  987TIP3    H124452   2.315   6.281  11.626  0.0293  0.4621  0.4070
  987TIP3    H224453   2.382   6.348  11.508 -0.1403 -0.8841 -0.4877
  988TIP3   OH224454   0.859   2.090  10.468  0.0311  0.2648 -0.0026
  988TIP3    H124455   0.870   2.064  10.377  0.2981  0.1083  0.0729
  988TIP3    H224456   0.803   2.022  10.506  2.2233 -1.2566  0.6614
  989TIP3   OH224457   6.926   6.457   9.669  0.1686  0.6703 -0.3130
  989TIP3    H124458   6.904   6.550   9.673 -0.6238  0.4464  1.5218
  989TIP3    H224459   6.869   6.423   9.600  0.5976  1.5599 -1.1310
  990TIP3   OH224460   1.923   5.981  14.368 -1.0376  0.3181 -0.1524
  990TIP3    H124461   1.915   5.955  14.277 -2.1558  1.2818 -0.3587
  990TIP3    H224462   1.835   6.012  14.392 -1.2593 -1.5752  1.7935
  991TIP3   OH224463   1.684   1.616  13.934 -0.6500 -0.0002 -0.1505
  991TIP3    H124464   1.699   1.549  13.867  2.5499  0.4456 -0.0038
  991TIP3    H224465   1.767   1.662  13.941 -1.4280  1.1480  2.8868
  992TIP3   OH224466   6.881   1.360   9.246  0.1024 -0.1611  0.1522
  992TIP3    H124467   6.879   1.353   9.342 -1.5239 -0.1279  0.1487
  992TIP3    H224468   6.890   1.454   9.229  0.7934 -0.2046  0.2671
  993TIP3   OH224469   6.006   4.255  13.060  0.3689 -0.6521  0.0806
  993TIP3    H124470   5.980   4.259  12.967  0.1024  0.9016  0.1913
  993TIP3    H224471   5.924   4.238  13.106 -0.1123  1.6296  0.2215
  994TIP3   OH224472   2.530   6.875  11.015  0.0535  0.0764 -0.0877
  994TIP3    H124473   2.435   6.871  11.028  0.0064  1.2666  0.0627
  994TIP3    H224474   2.548   6.968  11.004  1.5896  0.2122  2.7710
  995TIP3   OH224475   2.991   1.423  13.971  0.3284  0.2993  0.1857
  995TIP3    H124476   3.000   1.330  13.953 -0.2602  0.2597  0.0860
  995TIP3    H224477   2.920   1.453  13.913  0.6297  0.8422  0.0876
  996TIP3   OH224478   2.577   4.518  14.910 -0.3102 -0.0423  0.3431
  996TIP3    H124479   2.622   4.574  14.847 -0.5538 -0.0427  0.1644
  996TIP3    H224480   2.619   4.536  14.994  2.7057 -2.8737 -0.3595
  997TIP3   OH224481   4.270   5.671  11.123 -0.6040 -0.3124  0.1727
  997TIP3    H124482   4.219   5.715  11.055 -0.2652  1.0999  0.8088
  997TIP3    H224483   4.317   5.602  11.076 -1.6731 -0.4524 -0.7275
  998TIP3   OH224484   3.543   6.649   9.599 -0.0670  0.7653 -0.2767
  998TIP3    H124485   3.618   6.637   9.657 -0.5369  1.8809  0.5890
  998TIP3    H224486   3.583   6.662   9.512  0.6043 -2.0603 -0.4909
  999TIP3   OH224487   7.112   0.287  10.421 -0.1002  0.3390  0.1566
  999TIP3    H124488   7.105   0.223  10.350 -1.0754  0.5583  0.0476
  999TIP3    H224489   7.068   0.245  10.496  1.7059 -0.2780  0.9362
 1000TIP3   OH224490   2.403   3.225   1.472  0.0638  0.3602 -0.5435
 1000TIP3    H124491   2.390   3.201   1.381  1.0261 -0.6908 -0.4262
 1000TIP3    H224492   2.377   3.148   1.522 -1.3262  1.2319  0.1552
 1001TIP3   OH224493   0.621   4.225  10.074 -0.3324 -0.1976 -0.5810
 1001TIP3    H124494   0.548   4.285  10.087 -1.3665 -1.4251 -0.5313
 1001TIP3    H224495   0.651   4.244   9.985 -1.4703 -0.4543 -1.0418
 1002TIP3   OH224496   1.110   1.026  13.848 -0.6794  0.0329 -0.8189
 1002TIP3    H124497   1.115   0.931  13.859 -0.2495  0.1767  0.3112
 1002TIP3    H224498   1.044   1.054  13.912  2.4663  0.9907  2.3207
 1003TIP3   OH224499   3.952   0.417  10.262  0.3368 -0.3820  0.2935
 1003TIP3    H124500   3.893   0.342  10.268 -1.6677  0.9877 -0.8620
 1003TIP3    H224501   3.984   0.414  10.171 -0.1986  0.4356  0.0686
 1004TIP3   OH224502   5.616   3.436   1.868 -0.2820 -0.9554 -0.1604
 1004TIP3    H124503   5.574   3.466   1.949 -0.8613 -1.8695 -0.1070
 1004TIP3    H224504   5.574   3.353   1.849  0.8349 -1.4292 -0.6456
 1005TIP3   OH224505   6.420   0.703   2.882  0.3730  0.2387  0.1713
 1005TIP3    H124506   6.406   0.641   2.811 -2.1913  0.2951  0.5532
 1005TIP3    H224507   6.491   0.665   2.933  1.1773 -0.5985 -1.4908
 1006TIP3   OH224508   4.921   3.255  12.191  0.5215  0.1023 -0.2646
 1006TIP3    H124509   4.854   3.323  12.187 -0.4044 -0.8314 -1.2574
 1006TIP3    H224510   4.933   3.228  12.100  0.5567 -1.3502  0.1463
 1007TIP3   OH224511   6.572   2.601  11.062  0.1503 -0.3124  0.0106
 1007TIP3    H124512   6.499   2.543  11.039  1.1082 -0.7673 -2.1314
 1007TIP3    H224513   6.591   2.649  10.981 -1.4713  4.1382  1.9240
 1008TIP3   OH224514   1.391   3.736  10.458  0.1019 -0.5222 -0.7673
 1008TIP3    H124515   1.435   3.811  10.499 -1.6500  0.2544 -0.2087
 1008TIP3    H224516   1.302   3.738  10.493 -0.3977 -2.0496 -1.8253
 1009TIP3   OH224517   2.181   6.663  10.667 -0.2540 -0.0395 -0.6072
 1009TIP3    H124518   2.210   6.683  10.578  0.5840 -1.6345 -0.7270
 1009TIP3    H224519   2.262   6.645  10.716 -0.8007 -0.9601  0.0001
 1010TIP3   OH224520   1.240   7.215  12.603 -0.4077  0.4263  0.3175
 1010TIP3    H124521   1.218   7.307  12.588  0.6097  0.6437  0.0453
 1010TIP3    H224522   1.306   7.196  12.536  0.4144 -0.0938  1.2601
 1011TIP3   OH224523   5.970   4.361  13.700  0.4395 -0.1694 -0.1862
 1011TIP3    H124524   5.909   4.295  13.668  0.9541 -0.6738 -0.1421
 1011TIP3    H224525   5.932   4.392  13.782  0.9677 -1.5153  0.5825
 1012TIP3   OH224526   1.440   0.203  15.070 -0.1843 -0.5108  0.1381
 1012TIP3    H124527   1.427   0.288  15.028  1.8770 -0.1074  0.2292
 1012TIP3    H224528   1.399   0.213  15.156  1.7960  1.1710  0.9810
 1013TIP3   OH224529   4.601   4.271  11.906 -0.1179 -0.2921  0.0937
 1013TIP3    H124530   4.531   4.238  11.964  1.2014  0.0031  1.9314
 1013TIP3    H224531   4.640   4.192  11.869 -1.3003 -0.4673 -0.8653
 1014TIP3   OH224532   2.017   0.998  14.921  0.1846  0.0575  0.0394
 1014TIP3    H124533   2.052   1.020  14.834  1.1794  0.6643  0.5805
 1014TIP3    H224534   1.970   1.076  14.949 -1.5813 -0.7061 -0.6248
 1015TIP3   OH224535   3.190   3.189   9.566  0.3746  0.3497  0.3926
 1015TIP3    H124536   3.221   3.274   9.533  0.5012  0.9589  1.9834
 1015TIP3    H224537   3.270   3.139   9.583  0.2907 -0.7223 -1.9529
 1016TIP3   OH224538   6.913   2.494  11.401  0.6984 -0.0353  0.3894
 1016TIP3    H124539   7.001   2.458  11.393  1.3871  1.8514 -1.3094
 1016TIP3    H224540   6.870   2.437  11.465  3.5048 -0.2690  2.2465
 1017TIP3   OH224541   6.677   2.058  10.304  0.2326 -0.0879 -0.3893
 1017TIP3    H124542   6.591   2.098  10.316  0.2213 -0.1865 -0.1480
 1017TIP3    H224543   6.733   2.129  10.273  0.1254  0.0317 -0.3063
 1018TIP3   OH224544   1.128   2.277  10.115  0.2953 -0.2327  0.4587
 1018TIP3    H124545   1.178   2.358  10.111 -0.0742 -0.0300 -0.1481
 1018TIP3    H224546   1.112   2.254  10.024 -0.0860 -0.6849  0.6362
 1019TIP3   OH224547   0.480   0.565   9.896 -0.0332  0.1264  0.1929
 1019TIP3    H124548   0.537   0.536   9.967  0.1374  0.8333  0.3441
 1019TIP3    H224549   0.489   0.660   9.894 -1.3848  0.2739  0.3691
 1020TIP3   OH224550   2.870   3.506  10.915  0.6193 -0.6387 -0.0021
 1020TIP3    H124551   2.839   3.430  10.964 -2.6147 -0.2266 -1.1367
 1020TIP3    H224552   2.891   3.471  10.828  0.0018 -0.4253 -0.2470
 1021TIP3   OH224553   2.546   0.040  11.583  0.8258 -0.1535  0.0364
 1021TIP3    H124554   2.599  -0.023  11.632 -1.4872 -1.1195  1.4551
 1021TIP3    H224555   2.492   0.083  11.650 -0.4591  0.4873 -1.3526
 1022TIP3   OH224556   5.309   0.802  10.960  0.0555 -0.2932  0.2119
 1022TIP3    H124557   5.321   0.807  11.055  0.7289 -2.0018  0.2705
 1022TIP3    H224558   5.215   0.810  10.947 -0.0151  0.2778  0.9900
 1023TIP3   OH224559   2.513   0.644  13.468 -0.0742 -0.5694  0.3683
 1023TIP3    H124560   2.506   0.577  13.536 -1.2589 -0.5572  0.2951
 1023TIP3    H224561   2.598   0.630  13.428  0.7463 -0.4406  1.9847
 1024TIP3   OH224562   5.978   5.209   1.828 -0.0809  0.0537 -0.8456
 1024TIP3    H124563   6.071   5.225   1.844 -0.2725  1.0671 -0.6721
 1024TIP3    H224564   5.960   5.126   1.873  0.5954  0.1636 -0.3507
 1025TIP3   OH224565   6.441   0.599  11.073  0.0507 -0.6077 -0.2695
 1025TIP3    H124566   6.348   0.588  11.053 -0.0934 -0.3147  0.2096
 1025TIP3    H224567   6.443   0.672  11.135  0.6575 -0.2180 -0.7373
 1026TIP3   OH224568   0.768   3.848  11.874 -0.3153 -0.1998 -0.1015
 1026TIP3    H124569   0.731   3.762  11.858  0.9361 -0.5893 -1.0558
 1026TIP3    H224570   0.707   3.890  11.935 -1.2675 -1.5109 -0.1237
 1027TIP3   OH224571   4.406   1.506  10.553  0.3276 -0.4209 -0.3474
 1027TIP3    H124572   4.480   1.567  10.560 -0.5664  0.8828 -1.6386
 1027TIP3    H224573   4.360   1.513  10.637  1.3591 -0.8919  0.2859
 1028TIP3   OH224574   4.741   1.188   9.730  0.0108 -0.0279 -0.2216
 1028TIP3    H124575   4.751   1.140   9.813  1.3438  1.1335  0.3319
 1028TIP3    H224576   4.820   1.166   9.681  0.5505  1.4257 -0.0357
 1029TIP3   OH224577   3.821   0.858  14.346  0.1067 -0.0351 -0.0623
 1029TIP3    H124578   3.900   0.909  14.328 -0.5600  0.6635 -1.0677
 1029TIP3    H224579   3.764   0.918  14.394  0.0840 -0.4793  0.4905
 1030TIP3   OH224580   0.383   1.524  12.813 -0.8358  0.2960  0.4396
 1030TIP3    H124581   0.450   1.473  12.767 -0.1584  1.3423  0.2453
 1030TIP3    H224582   0.303   1.511  12.762 -0.5493 -0.1368  0.0928
 1031TIP3   OH224583   3.562   2.888  14.574  0.2710  0.0065 -0.3540
 1031TIP3    H124584   3.625   2.915  14.506 -1.0004  0.2300 -1.4872
 1031TIP3    H224585   3.536   2.970  14.616  0.8025 -0.0968  0.1844
 1032TIP3   OH224586   1.340   5.785  12.744  0.2192  0.4865  0.1224
 1032TIP3    H124587   1.344   5.817  12.654  2.6083  0.9708  0.3392
 1032TIP3    H224588   1.427   5.750  12.762 -0.5828 -0.8529  1.8415
 1033TIP3   OH224589   3.686   6.540  13.954  0.9785  0.5163 -0.3083
 1033TIP3    H124590   3.773   6.501  13.955  0.6763 -0.3765 -2.5368
 1033TIP3    H224591   3.645   6.511  14.036  1.7385 -1.5999 -0.6159
 1034TIP3   OH224592   1.746   4.027  11.148  0.3333  0.2880 -0.7154
 1034TIP3    H124593   1.762   4.111  11.192  2.5285 -0.3171 -0.2584
 1034TIP3    H224594   1.779   4.040  11.059 -0.7095  0.3393 -1.1171
 1035TIP3   OH224595   5.823   3.029  13.554 -0.1202  0.1323  0.2845
 1035TIP3    H124596   5.775   3.112  13.544  1.9213  1.3001 -0.5481
 1035TIP3    H224597   5.854   3.030  13.645  2.3250  1.7954 -0.4600
 1036TIP3   OH224598   2.438   1.793   9.769  0.1168 -0.3652 -0.2622
 1036TIP3    H124599   2.402   1.755   9.689 -0.3908  0.9111 -0.6736
 1036TIP3    H224600   2.365   1.791   9.831  0.4570 -1.1860  0.1282
 1037TIP3   OH224601   3.688   3.905  14.185  0.9059 -0.8422 -0.0178
 1037TIP3    H124602   3.702   3.873  14.096  0.7361 -1.6801  0.2517
 1037TIP3    H224603   3.634   3.839  14.227  0.4270 -0.1324  0.5167
 1038TIP3   OH224604   0.465   2.866  10.629 -0.0550  0.0242  0.2222
 1038TIP3    H124605   0.458   2.784  10.582 -1.0099  0.6312 -0.7489
 1038TIP3    H224606   0.550   2.903  10.602  0.1833 -0.4368  0.3368
 1039TIP3   OH224607   4.240   5.335   0.739 -0.3447 -0.4435 -0.0982
 1039TIP3    H124608   4.207   5.258   0.786 -1.4591 -0.1466 -0.3519
 1039TIP3    H224609   4.161   5.378   0.707  0.2643  0.8545  0.1050
 1040TIP3   OH224610   1.039   1.370  11.722  0.0470  0.1005 -0.5407
 1040TIP3    H124611   1.015   1.370  11.629 -0.1611  0.7161 -0.4966
 1040TIP3    H224612   1.020   1.460  11.751  0.0125 -0.1160  0.1195
 1041TIP3   OH224613   2.368   3.888  14.157  0.0558 -0.2320  0.0647
 1041TIP3    H124614   2.452   3.878  14.114 -0.0225  0.4665 -0.2574
 1041TIP3    H224615   2.304   3.893  14.086 -0.3710 -1.6193  0.3144
 1042TIP3   OH224616   4.872   0.794  10.236  0.0187  0.1220 -0.1114
 1042TIP3    H124617   4.795   0.831  10.279 -0.0679  1.2549 -1.2002
 1042TIP3    H224618   4.847   0.703  10.217 -0.0717 -0.3160  1.8294
 1043TIP3   OH224619   7.106   2.966  14.987  0.0876 -0.0809  0.0917
 1043TIP3    H124620   7.012   2.951  14.998  0.0659 -0.1978 -0.2318
 1043TIP3    H224621   7.139   2.885  14.948  0.4633 -0.3351  0.9308
 1044TIP3   OH224622   6.383   2.487  11.478 -0.1270 -0.6003 -0.7512
 1044TIP3    H124623   6.414   2.576  11.494 -0.2100 -0.7010  0.0000
 1044TIP3    H224624   6.379   2.480  11.382 -1.5994  0.7018 -0.8243
 1045TIP3   OH224625   7.002   5.660  10.777 -0.0791  0.1177 -0.2441
 1045TIP3    H124626   7.001   5.703  10.862 -2.2717 -1.2529  0.5137
 1045TIP3    H224627   7.014   5.567  10.796 -1.0593 -0.2688 -1.3587
 1046TIP3   OH224628   6.367   2.256  12.770  0.5002  0.2887  0.0815
 1046TIP3    H124629   6.445   2.267  12.824 -0.7037  0.9198  1.7752
 1046TIP3    H224630   6.374   2.324  12.703  1.2535  0.5040  0.3667
 1047TIP3   OH224631   2.425   1.430  13.772 -0.7995  0.1626  0.2469
 1047TIP3    H124632   2.432   1.461  13.863 -0.2037  0.4665  0.1031
 1047TIP3    H224633   2.365   1.492  13.731  2.0781  2.6508 -0.6345
 1048TIP3   OH224634   1.220   3.829  13.774  0.5081  0.1882  0.1850
 1048TIP3    H124635   1.292   3.891  13.775  0.0741  0.8340 -2.3781
 1048TIP3    H224636   1.152   3.871  13.827  0.8863  1.0258  0.0231
 1049TIP3   OH224637   0.323   2.256  13.834  0.0628 -0.3336  0.4268
 1049TIP3    H124638   0.264   2.220  13.900 -0.6683  0.1461  0.0479
 1049TIP3    H224639   0.314   2.351  13.843 -0.4266 -0.2603 -0.6842
 1050TIP3   OH224640   5.229   5.423  12.618  0.9318 -0.0512 -0.1622
 1050TIP3    H124641   5.250   5.344  12.668 -0.5619 -0.1693  0.3521
 1050TIP3    H224642   5.240   5.397  12.526 -0.2495 -1.1154 -0.0345
 1051TIP3   OH224643   3.718   4.730   0.777 -0.5900 -0.0800 -0.5056
 1051TIP3    H124644   3.658   4.791   0.821 -0.0287 -0.5959  1.0234
 1051TIP3    H224645   3.676   4.645   0.786  0.6019 -0.5358  1.0763
 1052TIP3   OH224646   1.593   6.491   0.167  0.4487  0.4836 -0.0050
 1052TIP3    H124647   1.503   6.464   0.151  0.4835 -0.6225  1.3598
 1052TIP3    H224648   1.623   6.526   0.084 -0.6639 -0.8472 -1.0322
 1053TIP3   OH224649   1.868   3.236  12.518  0.0959  0.2009  0.2582
 1053TIP3    H124650   1.796   3.250  12.456  0.3523 -0.3315 -0.1703
 1053TIP3    H224651   1.906   3.322  12.530  1.2723  0.0425 -1.8569
 1054TIP3   OH224652   4.921   0.451   9.473 -0.0951  0.1693  0.0706
 1054TIP3    H124653   4.983   0.446   9.401  0.1367 -0.7203  0.3159
 1054TIP3    H224654   4.835   0.450   9.431  0.0137 -1.2983 -0.1848
 1055TIP3   OH224655   1.887   2.444  13.164  0.2310  0.2638 -0.3088
 1055TIP3    H124656   1.961   2.467  13.107 -0.4533 -0.9019 -1.7434
 1055TIP3    H224657   1.817   2.503  13.135  0.2902  0.6737  0.3595
 1056TIP3   OH224658   6.740   4.626  11.323 -0.2053 -0.0272  0.4992
 1056TIP3    H124659   6.678   4.682  11.369 -0.0328  0.4307  0.1953
 1056TIP3    H224660   6.820   4.632  11.374  0.8001  2.5467 -1.1390
 1057TIP3   OH224661   3.659   2.465  12.966 -0.6080 -0.2863 -0.1109
 1057TIP3    H124662   3.659   2.488  12.873  0.3945  1.2325  0.2346
 1057TIP3    H224663   3.608   2.534  13.007  1.7217  0.9541  0.8508
 1058TIP3   OH224664   1.969   6.530   9.585  0.0322 -0.0830  0.1401
 1058TIP3    H124665   1.883   6.510   9.621  0.6630 -0.4570  1.5250
 1058TIP3    H224666   1.997   6.449   9.543  0.3366 -0.4645  1.0491
 1059TIP3   OH224667   5.214   5.754  13.445  0.2378 -0.2791 -0.2771
 1059TIP3    H124668   5.205   5.678  13.388 -1.0492 -1.6203  1.5827
 1059TIP3    H224669   5.280   5.728  13.510 -0.3300  0.1210  0.4769
 1060TIP3   OH224670   2.684   4.478  10.430 -0.4810 -0.2500 -0.3112
 1060TIP3    H124671   2.592   4.485  10.404 -0.9845 -0.5930  1.2970
 1060TIP3    H224672   2.692   4.535  10.506  0.5142 -0.6166 -0.1309
 1061TIP3   OH224673   4.367   5.142  13.126  0.6099 -0.3022  0.0088
 1061TIP3    H124674   4.369   5.187  13.211 -1.6479  0.8845 -0.4731
 1061TIP3    H224675   4.370   5.213  13.061  0.0496 -1.0266 -0.8352
 1062TIP3   OH224676   0.106   0.880   0.828 -0.5346 -0.5134  0.0276
 1062TIP3    H124677   0.146   0.911   0.909 -1.4504  1.0919 -0.0876
 1062TIP3    H224678   0.161   0.916   0.759 -0.1751 -1.2753 -0.0991
 1063TIP3   OH224679   6.915   4.064  12.190  0.6732 -0.1954  0.4804
 1063TIP3    H124680   6.965   4.137  12.226  1.1581 -1.3789  2.3631
 1063TIP3    H224681   6.883   4.017  12.267 -1.2229 -0.9145 -0.6723
 1064TIP3   OH224682   1.721   5.420  10.173  0.2344 -0.0966 -0.4950
 1064TIP3    H124683   1.790   5.467  10.221 -1.0675  2.5186 -1.0358
 1064TIP3    H224684   1.643   5.429  10.229 -0.1953 -1.1411 -0.9062
 1065TIP3   OH224685   2.529   0.734  11.169 -0.0459  0.1446  0.0927
 1065TIP3    H124686   2.522   0.676  11.245 -1.8374 -0.4983 -0.5193
 1065TIP3    H224687   2.573   0.681  11.103 -2.0518 -0.7215 -0.6037
 1066TIP3   OH224688   6.522   1.083  10.554 -0.0432  0.2478 -0.0600
 1066TIP3    H124689   6.461   1.126  10.613  1.1486  0.2120  1.2506
 1066TIP3    H224690   6.475   1.076  10.471 -1.2434  1.5824  0.4750
 1067TIP3   OH224691   1.328   6.513  11.296 -0.5227  0.1352  0.8012
 1067TIP3    H124692   1.273   6.589  11.279 -0.6133 -0.1996 -0.5309
 1067TIP3    H224693   1.270   6.438  11.285  0.7139 -0.4982 -4.3682
 1068TIP3   OH224694   5.977   0.066   0.521  0.2037 -0.6992  0.1474
 1068TIP3    H124695   6.012   0.043   0.435  0.3377 -1.8798  0.4955
 1068TIP3    H224696   5.886   0.091   0.504 -0.0447 -1.8200 -0.2292
 1069TIP3   OH224697   3.142   3.667  10.431  0.4975 -0.3172  0.0691
 1069TIP3    H124698   3.124   3.747  10.381 -0.8245 -1.3854 -1.2674
 1069TIP3    H224699   3.067   3.658  10.489  0.0485 -1.1793 -0.6214
 1070TIP3   OH224700   7.055   3.277  12.365  0.3734  0.0000  0.3511
 1070TIP3    H124701   7.027   3.229  12.286 -1.1578  0.1277  0.7805
 1070TIP3    H224702   7.097   3.210  12.419  1.4124 -0.1006 -0.5259
 1071TIP3   OH224703   3.661   6.443  10.927  0.1446  0.0151  0.0045
 1071TIP3    H124704   3.713   6.385  10.983  1.3915  0.2306 -0.8980
 1071TIP3    H224705   3.583   6.463  10.979  1.0383 -0.1827  1.4729
 1072TIP3   OH224706   7.047   4.575   0.751 -0.2938  0.1461 -0.3847
 1072TIP3    H124707   7.124   4.633   0.749  0.1653 -0.4539 -0.5635
 1072TIP3    H224708   6.997   4.604   0.827  1.1339 -0.7286  0.9419
 1073TIP3   OH224709   2.568   6.600   9.936 -0.0991 -0.0551 -0.6392
 1073TIP3    H124710   2.659   6.590   9.965  0.5410  2.3525 -1.5673
 1073TIP3    H224711   2.523   6.638  10.012  0.0790  0.3581 -0.7399
 1074TIP3   OH224712   5.689   2.209  14.438  0.5067 -0.0583  0.0557
 1074TIP3    H124713   5.729   2.122  14.431  0.9257  0.1324  0.0867
 1074TIP3    H224714   5.752   2.260  14.489  0.1433  0.1941  0.2564
 1075TIP3   OH224715   6.123   6.881  12.640 -0.1686 -0.5558 -0.1445
 1075TIP3    H124716   6.079   6.809  12.685  0.6832 -0.1979  1.3450
 1075TIP3    H224717   6.093   6.875  12.550  0.0759 -2.9506 -0.1429
 1076TIP3   OH224718   0.968   2.981  10.697 -0.4959  0.0809 -0.4629
 1076TIP3    H124719   0.974   2.893  10.660 -0.0221  0.2228 -0.7269
 1076TIP3    H224720   1.049   2.993  10.745 -1.2457 -0.2270  0.9197
 1077TIP3   OH224721   0.151   7.070   2.071 -0.4309 -0.5213  0.5393
 1077TIP3    H124722   0.099   7.014   2.128 -1.1810  0.8684  1.2846
 1077TIP3    H224723   0.085   7.120   2.021  0.2057 -0.2627 -0.0598
 1078TIP3   OH224724   6.522   6.671   9.380  0.2169  0.0211 -0.0520
 1078TIP3    H124725   6.569   6.687   9.461 -0.1976  0.5348  0.0970
 1078TIP3    H224726   6.477   6.754   9.362 -0.1003 -0.2484 -0.5295
 1079TIP3   OH224727   1.283   2.364  11.882 -0.1476  0.1687 -0.2678
 1079TIP3    H124728   1.307   2.387  11.973  0.6388 -0.4915 -0.2949
 1079TIP3    H224729   1.283   2.268  11.881 -2.3067  0.1382 -0.4353
 1080TIP3   OH224730   6.492   5.704  13.216  0.1439  0.4415  0.0916
 1080TIP3    H124731   6.400   5.700  13.242  0.2246 -0.1336  0.3099
 1080TIP3    H224732   6.495   5.774  13.151 -0.7455 -0.5832 -1.1066
 1081TIP3   OH224733   4.109   3.654  14.867 -0.0613 -0.4713  0.4428
 1081TIP3    H124734   4.120   3.569  14.910 -2.4859  0.3196  2.9880
 1081TIP3    H224735   4.165   3.714  14.917 -2.9646  0.4726  2.9310
 1082TIP3   OH224736   4.417   4.024  13.446  0.2942 -0.1706  0.3788
 1082TIP3    H124737   4.370   4.019  13.363 -0.7094  0.9935  0.8260
 1082TIP3    H224738   4.459   4.110  13.445 -0.8291  0.4397  1.5784
 1083TIP3   OH224739   5.265   4.034   0.556 -0.3480 -0.1159  0.3277
 1083TIP3    H124740   5.185   4.055   0.509 -0.5505 -0.0833  0.6793
 1083TIP3    H224741   5.321   4.110   0.543 -0.0327 -0.5000 -0.6361
 1084TIP3   OH224742   5.967   6.774   9.385  0.1283  0.0180 -0.0761
 1084TIP3    H124743   5.881   6.739   9.406 -0.8659  1.6332 -1.2714
 1084TIP3    H224744   6.028   6.708   9.419 -1.5468 -1.1794  0.7633
 1085TIP3   OH224745   3.441   2.605  11.300 -0.2793  0.4715  0.3240
 1085TIP3    H124746   3.464   2.697  11.288 -0.2378  0.4548  0.2750
 1085TIP3    H224747   3.347   2.606  11.316 -0.2603  0.5321  0.4313
 1086TIP3   OH224748   5.823   4.125  13.653  0.6296  0.0141  0.6763
 1086TIP3    H124749   5.856   4.047  13.699 -0.9350 -1.3245 -0.3510
 1086TIP3    H224750   5.738   4.142  13.693  0.4713  0.5307  0.1416
 1087TIP3   OH224751   0.624   1.411  12.703  0.8283  0.1318 -0.1562
 1087TIP3    H124752   0.709   1.453  12.708  2.2543 -2.3229 -1.4865
 1087TIP3    H224753   0.611   1.393  12.609 -1.5949  1.1946 -0.1110
 1088TIP3   OH224754   3.311   1.500   9.945 -0.3009  0.1975  0.1255
 1088TIP3    H124755   3.359   1.466  10.020  0.3603 -0.1290 -0.4320
 1088TIP3    H224756   3.255   1.427   9.918 -1.4730  0.7176  1.0402
 1089TIP3   OH224757   0.474   7.142  13.486  0.1368 -0.1950  0.0897
 1089TIP3    H124758   0.445   7.206  13.551 -0.8088 -2.8693  2.4955
 1089TIP3    H224759   0.400   7.135  13.425  0.4063  1.2292 -0.4316
 1090TIP3   OH224760   4.995   2.490  13.632 -0.0091  0.6887  0.0742
 1090TIP3    H124761   4.974   2.567  13.686 -0.9822  0.4916 -0.0002
 1090TIP3    H224762   5.080   2.510  13.593  0.1884  1.3130  0.8112
 1091TIP3   OH224763   6.222   6.361  10.113  0.1920  0.0408  0.0937
 1091TIP3    H124764   6.154   6.424  10.137  1.4313  1.8240 -0.8650
 1091TIP3    H224765   6.196   6.329  10.026  0.5529  0.7040 -0.2621
 1092TIP3   OH224766   3.569   7.062  11.189 -0.5325  0.0456 -0.3446
 1092TIP3    H124767   3.553   7.129  11.255  1.2817  0.1640  0.0049
 1092TIP3    H224768   3.512   7.087  11.116 -1.5951  0.6395  0.6569
 1093TIP3   OH224769   2.781   2.281   9.801 -0.3244 -0.1904  0.1271
 1093TIP3    H124770   2.762   2.189   9.783 -3.6398  0.3755 -0.0809
 1093TIP3    H224771   2.827   2.312   9.723  1.4800 -1.7735  0.5082
 1094TIP3   OH224772   6.749   5.174  13.463  0.0597 -0.2980 -0.0859
 1094TIP3    H124773   6.825   5.226  13.439  1.6261 -1.9306  1.1172
 1094TIP3    H224774   6.727   5.204  13.552  0.2124 -0.8357  0.1358
 1095TIP3   OH224775   6.025   5.571  14.897  0.0849 -0.7503  0.3089
 1095TIP3    H124776   6.039   5.476  14.898 -0.7017 -0.9094 -1.0576
 1095TIP3    H224777   5.948   5.584  14.953 -0.3661 -1.0424 -0.2278
 1096TIP3   OH224778   5.485   1.330  12.154 -0.0734 -0.6940 -0.2525
 1096TIP3    H124779   5.422   1.288  12.095 -1.6105 -1.2082  1.6503
 1096TIP3    H224780   5.445   1.414  12.176  1.7286  0.6969 -1.9075
 1097TIP3   OH224781   3.975   1.494  14.134  0.0870  0.3801 -0.1637
 1097TIP3    H124782   4.041   1.562  14.127 -2.0663  2.4746 -1.5224
 1097TIP3    H224783   3.923   1.519  14.211  0.5937 -1.0202  0.6656
 1098TIP3   OH224784   0.237   5.060  12.531 -0.2716 -0.2035  0.4181
 1098TIP3    H124785   0.268   5.040  12.442  0.2985 -0.5839  0.6937
 1098TIP3    H224786   0.142   5.067  12.523 -0.2867 -0.9570 -0.0825
 1099TIP3   OH224787   2.771   4.825  10.160  0.1038  0.5407 -0.1649
 1099TIP3    H124788   2.855   4.830  10.205  0.1045 -1.0782  0.0670
 1099TIP3    H224789   2.794   4.812  10.068  0.1017  0.9640 -0.2268
 1100TIP3   OH224790   7.205   6.992   0.756 -0.3000 -0.1804 -0.5483
 1100TIP3    H124791   7.180   7.085   0.747  0.2845 -0.0225 -0.5730
 1100TIP3    H224792   7.240   6.969   0.670  3.6174  0.8196  0.5664
 1101TIP3   OH224793   6.455   1.294  11.816  0.1464  0.3578 -0.2569
 1101TIP3    H124794   6.456   1.199  11.803  0.8400  0.1433  1.2245
 1101TIP3    H224795   6.547   1.319  11.813 -0.0446  1.0307 -0.8096
 1102TIP3   OH224796   0.882   6.928  14.546 -0.1026 -0.4005 -0.2292
 1102TIP3    H124797   0.858   6.886  14.463  0.4268 -0.2963 -0.4339
 1102TIP3    H224798   0.805   6.914  14.602 -1.0698  0.7850 -1.1934
 1103TIP3   OH224799   5.424   5.187  13.583  0.3036  0.1041  0.1888
 1103TIP3    H124800   5.335   5.198  13.548 -0.5166 -1.0219  1.7863
 1103TIP3    H224801   5.430   5.251  13.654  0.5548 -0.2044  0.4461
 1104TIP3   OH224802   1.951   0.211   9.613 -0.2821 -0.1870  0.2749
 1104TIP3    H124803   2.016   0.206   9.682  1.7107  0.1735 -1.4793
 1104TIP3    H224804   1.968   0.294   9.569 -1.5281 -0.3638 -0.6130
 1105TIP3   OH224805   6.903   2.907  10.416 -0.8037 -0.0743 -0.5636
 1105TIP3    H124806   6.959   2.975  10.454  0.4766 -0.1317 -2.2636
 1105TIP3    H224807   6.963   2.847  10.374 -2.1369  0.1146 -2.8725
 1106TIP3   OH224808   2.536   5.323  12.873  0.3794 -0.1004  0.0178
 1106TIP3    H124809   2.592   5.356  12.943 -0.5548  0.4181  0.5337
 1106TIP3    H224810   2.491   5.249  12.913 -0.3810  0.3849  0.0715
 1107TIP3   OH224811   0.456   5.228  15.389  0.4844  0.0528  0.3832
 1107TIP3    H124812   0.415   5.310  15.417 -0.3731 -0.3509  0.3605
 1107TIP3    H224813   0.415   5.161  15.444  1.9927 -0.2446  1.1744
 1108TIP3   OH224814   3.462   0.427   0.965 -0.5889 -0.7576  0.1015
 1108TIP3    H124815   3.485   0.337   0.940  0.2541 -0.6686  0.5007
 1108TIP3    H224816   3.495   0.435   1.055 -0.7843 -0.0972  0.1154
 1109TIP3   OH224817   5.798   6.467  10.401 -0.0769 -0.2135  0.4598
 1109TIP3    H124818   5.742   6.504  10.333 -1.1902 -1.0691  0.8698
 1109TIP3    H224819   5.887   6.487  10.373 -0.4535 -1.1740 -1.6499
 1110TIP3   OH224820   1.718   4.676  13.619 -0.1070  0.0551  0.1732
 1110TIP3    H124821   1.640   4.643  13.575 -1.1053 -0.8352  2.4850
 1110TIP3    H224822   1.785   4.610  13.601 -0.5793 -0.4485  0.2382
 1111TIP3   OH224823   5.714   0.656   0.373  0.2617  0.3609 -0.3326
 1111TIP3    H124824   5.711   0.624   0.283 -1.0314  0.7986 -0.4771
 1111TIP3    H224825   5.734   0.749   0.365  0.2992  0.3683 -0.1592
 1112TIP3   OH224826   2.977   3.346  12.205 -0.2666 -0.1104 -0.6188
 1112TIP3    H124827   3.047   3.397  12.165 -1.1710  1.9589  0.3358
 1112TIP3    H224828   3.023   3.274  12.250  1.5338  2.2449  1.6048
 1113TIP3   OH224829   1.589   0.020  10.279  0.2984 -0.9145 -0.4710
 1113TIP3    H124830   1.538   0.068  10.345 -0.3674 -1.0372 -0.8869
 1113TIP3    H224831   1.670   0.070  10.271 -0.6656  0.5967 -1.4144
 1114TIP3   OH224832   6.814   0.748  14.683 -0.1413  0.2190  0.6721
 1114TIP3    H124833   6.723   0.725  14.700  0.2341 -1.1189  0.9973
 1114TIP3    H224834   6.810   0.832  14.638 -1.5720 -0.2038 -0.0413
 1115TIP3   OH224835   2.627   1.415  11.084  0.7705  0.3812  0.1331
 1115TIP3    H124836   2.684   1.344  11.115  0.6298  0.3729  0.3751
 1115TIP3    H224837   2.572   1.374  11.017 -0.3525 -0.1277  1.3308
 1116TIP3   OH224838   6.496   3.789  12.363  0.2006  0.4028  0.1509
 1116TIP3    H124839   6.440   3.827  12.295 -1.5761  1.9127  2.3241
 1116TIP3    H224840   6.568   3.852  12.372  1.0160 -0.3166 -0.9474
 1117TIP3   OH224841   5.736   6.253   9.595 -0.1160  0.4657  0.7442
 1117TIP3    H124842   5.695   6.168   9.609 -0.4377 -0.0745 -2.6961
 1117TIP3    H224843   5.671   6.317   9.627 -1.7174 -0.4955 -0.4609
 1118TIP3   OH224844   5.208   7.158  12.472  0.7959 -0.1022 -0.2167
 1118TIP3    H124845   5.255   7.182  12.552  0.0234  1.0398 -0.0827
 1118TIP3    H224846   5.117   7.180  12.490  0.5019 -0.4794 -1.1715
 1119TIP3   OH224847   1.536   5.691  11.475 -0.0493  0.7356  0.3365
 1119TIP3    H124848   1.571   5.776  11.448 -0.7220  0.5392 -1.2852
 1119TIP3    H224849   1.482   5.663  11.401 -1.3631 -0.2516  1.6148
 1120TIP3   OH224850   5.196   1.592  14.950 -0.5060 -0.1429 -0.1902
 1120TIP3    H124851   5.223   1.510  14.910 -1.9339 -1.4429  1.3594
 1120TIP3    H224852   5.197   1.574  15.044 -1.6827  1.3395  0.1364
 1121TIP3   OH224853   2.669   5.020   4.947 -0.3445  0.4348  0.4343
 1121TIP3    H124854   2.608   5.044   4.877 -0.8314  0.2643  0.7882
 1121TIP3    H224855   2.716   4.944   4.914 -0.4534  0.4566  0.2289
 1122TIP3   OH224856   1.116   3.136  15.264  0.3693  0.2950  0.0272
 1122TIP3    H124857   1.104   3.043  15.280 -0.1100  0.3673  0.0989
 1122TIP3    H224858   1.028   3.174  15.273  0.8755  1.1138  2.4300
 1123TIP3   OH224859   1.618   5.886  15.089  0.7439 -0.2862 -0.0342
 1123TIP3    H124860   1.534   5.926  15.111  1.1254  0.7330 -0.4054
 1123TIP3    H224861   1.598   5.792  15.082 -0.4219 -0.0261 -0.4089
 1124TIP3   OH224862   6.723   0.412  11.639  0.1883  0.2613  0.4136
 1124TIP3    H124863   6.777   0.488  11.662  0.1741  0.4038 -0.0149
 1124TIP3    H224864   6.786   0.343  11.620  0.3086  0.9620 -1.9829
 1125TIP3   OH224865   0.614   5.799  12.954 -0.0710 -0.2752  0.1534
 1125TIP3    H124866   0.663   5.881  12.963 -0.0352 -0.3694  0.9022
 1125TIP3    H224867   0.679   5.733  12.936 -0.2583  0.1082 -2.1668
 1126TIP3   OH224868   0.574   1.872  10.843  0.2747 -0.1537 -1.1421
 1126TIP3    H124869   0.484   1.841  10.854  0.7344 -0.8295  1.3299
 1126TIP3    H224870   0.584   1.882  10.748 -2.2342 -0.5097 -1.5228
 1127TIP3   OH224871   1.235   4.969  12.292  0.7991 -0.0003  0.5068
 1127TIP3    H124872   1.213   4.947  12.383 -1.3844  1.7512  0.5112
 1127TIP3    H224873   1.265   5.060  12.296  1.3677 -0.1318 -0.4562
 1128TIP3   OH224874   4.284   1.550  11.954 -0.1848  0.1074 -0.2909
 1128TIP3    H124875   4.231   1.531  12.031  0.1716 -0.2513 -0.1278
 1128TIP3    H224876   4.221   1.555  11.882 -0.4496 -0.2529 -0.0889
 1129TIP3   OH224877   4.015   6.801  11.195  0.7763 -0.2809  0.8636
 1129TIP3    H124878   3.925   6.825  11.171  1.4385  1.5605  0.0936
 1129TIP3    H224879   4.030   6.718  11.150 -0.3682 -0.3731  0.6123
 1130TIP3   OH224880   0.889   6.841  11.627  0.9887 -0.4719  0.1508
 1130TIP3    H124881   0.867   6.917  11.574  3.1506 -0.4342 -0.8175
 1130TIP3    H224882   0.845   6.855  11.711  0.5486  1.3474 -0.3582
 1131TIP3   OH224883   3.290   4.831   0.246 -0.0783  0.6340 -0.5907
 1131TIP3    H124884   3.289   4.827   0.150  0.9127  0.2283 -0.5908
 1131TIP3    H224885   3.302   4.740   0.274 -0.8915  0.6770 -0.0630
 1132TIP3   OH224886   2.435   0.969  11.100 -0.0890 -0.6019  0.3109
 1132TIP3    H124887   2.456   0.896  11.157  1.8578 -0.7503 -0.5234
 1132TIP3    H224888   2.482   1.044  11.137 -0.1843 -0.3142 -0.1331
 1133TIP3   OH224889   3.018   2.202  10.471  0.4524 -0.1601 -0.0695
 1133TIP3    H124890   3.079   2.223  10.543 -0.6820 -0.9972  1.1944
 1133TIP3    H224891   3.046   2.259  10.399  1.3311  1.0913  1.1858
 1134TIP3   OH224892   7.016   2.389   9.530  0.0942  0.6639 -0.3725
 1134TIP3    H124893   7.008   2.298   9.501  0.7051 -0.6470  3.0149
 1134TIP3    H224894   7.103   2.416   9.502  1.1620 -0.9652  1.1692
 1135TIP3   OH224895   5.318   1.317  10.596  0.0267 -0.3243 -0.4302
 1135TIP3    H124896   5.310   1.228  10.562 -0.2953  0.0781 -1.4333
 1135TIP3    H224897   5.409   1.324  10.625  0.0141 -1.0202 -0.2135
 1136TIP3   OH224898   2.493   3.991   3.412  0.1926  0.2797  0.2510
 1136TIP3    H124899   2.562   3.942   3.456  0.0375  0.7389  1.0317
 1136TIP3    H224900   2.413   3.943   3.432  0.1241  0.4814  0.4715
 1137TIP3   OH224901   5.192   2.840   9.284 -0.3555 -0.4188  0.0713
 1137TIP3    H124902   5.163   2.914   9.337 -0.2492  0.7054 -1.3717
 1137TIP3    H224903   5.122   2.776   9.292  0.6596 -1.3179  3.3988
 1138TIP3   OH224904   2.499   0.198  14.124 -0.3324 -0.7700  0.0221
 1138TIP3    H124905   2.476   0.287  14.097 -1.7972 -0.4280  2.1628
 1138TIP3    H224906   2.465   0.142  14.054  1.2344  0.3136 -1.7115
 1139TIP3   OH224907   2.731   4.859   2.029  0.0397 -0.5083 -0.1696
 1139TIP3    H124908   2.710   4.951   2.012 -0.4044 -0.5441  0.1460
 1139TIP3    H224909   2.819   4.847   1.994 -0.0007 -0.0290 -0.4425
 1140TIP3   OH224910   7.008   2.697  10.612 -0.1450  0.0812 -0.6796
 1140TIP3    H124911   7.036   2.632  10.677  0.5509  0.9548 -0.0848
 1140TIP3    H224912   7.090   2.727  10.572 -0.2104  2.2151  0.6247
 1141TIP3   OH224913   5.409   6.637  12.992 -0.2070 -0.3731 -0.5337
 1141TIP3    H124914   5.503   6.644  13.009 -0.3708  0.8489 -0.0185
 1141TIP3    H224915   5.368   6.692  13.059 -1.3751 -1.7453 -0.0648
 1142TIP3   OH224916   1.581   0.472  14.237 -0.4755  0.4565  0.1258
 1142TIP3    H124917   1.555   0.400  14.295 -0.7370  1.2322  1.0126
 1142TIP3    H224918   1.557   0.443  14.149 -1.1067 -0.3032  0.5398
 1143TIP3   OH224919   3.071   0.074  11.323 -0.0671  0.1046 -0.2505
 1143TIP3    H124920   3.149   0.059  11.270  0.2844  1.2702 -0.0790
 1143TIP3    H224921   3.001   0.029  11.275  0.6205 -0.6081 -0.6137
 1144TIP3   OH224922   0.169   0.114   9.507 -0.3394 -0.0863  0.0973
 1144TIP3    H124923   0.260   0.095   9.487 -1.0479 -2.1113 -1.6360
 1144TIP3    H224924   0.136   0.160   9.430 -0.8069  0.5401  0.6630
 1145TIP3   OH224925   1.068   5.196   9.563 -0.3307  0.1555  0.2609
 1145TIP3    H124926   1.113   5.280   9.568 -0.2335  0.0322  2.3177
 1145TIP3    H224927   0.981   5.213   9.599 -0.7726 -0.3442 -0.5488
 1146TIP3   OH224928   1.840   0.539  10.597  0.7618 -0.1739 -0.0663
 1146TIP3    H124929   1.768   0.591  10.561  0.1880 -1.9741 -1.7090
 1146TIP3    H224930   1.812   0.516  10.685 -1.5233 -2.1801 -1.2065
 1147TIP3   OH224931   6.973   2.483  10.257 -0.2185  0.4056 -0.6364
 1147TIP3    H124932   7.050   2.457  10.309 -2.5416 -0.2431  2.8795
 1147TIP3    H224933   6.962   2.576  10.276 -1.1968  0.1209  0.2902
 1148TIP3   OH224934   2.643   0.141  11.334  0.1619  0.1205 -0.1361
 1148TIP3    H124935   2.699   0.206  11.376  3.2355 -1.1957 -1.8069
 1148TIP3    H224936   2.605   0.091  11.406  1.2464  1.0228  1.1039
 1149TIP3   OH224937   4.877   5.426  11.099  0.0005  0.0349  0.5813
 1149TIP3    H124938   4.968   5.447  11.118 -0.7438  2.9335  1.4544
 1149TIP3    H224939   4.872   5.426  11.003  1.0521 -0.9816  0.5110
 1150TIP3   OH224940   4.797   6.896  11.497 -0.2396  0.3599 -0.1479
 1150TIP3    H124941   4.728   6.830  11.491 -0.5164  0.7112 -1.1467
 1150TIP3    H224942   4.862   6.868  11.432 -0.5109  1.2182 -0.8106
 1151TIP3   OH224943   4.176   6.650   1.099  0.1447 -0.1623  0.3814
 1151TIP3    H124944   4.118   6.590   1.053  0.9683 -1.5140  1.0367
 1151TIP3    H224945   4.259   6.603   1.104  1.1601  1.4887 -0.0439
 1152TIP3   OH224946   2.833   3.443  13.798 -0.2621 -0.4937  0.4270
 1152TIP3    H124947   2.913   3.493  13.780 -0.6454  0.2625  0.7921
 1152TIP3    H224948   2.838   3.369  13.737  0.6110 -0.3466  0.2973
 1153TIP3   OH224949   4.775   4.959   1.284  0.0630 -0.8660  0.1727
 1153TIP3    H124950   4.699   5.013   1.305  1.3317  0.6853  1.0563
 1153TIP3    H224951   4.813   5.000   1.206 -0.8725 -2.6117 -1.2690
 1154TIP3   OH224952   1.636   0.218   2.320 -0.2764  0.2971 -0.4071
 1154TIP3    H124953   1.544   0.224   2.295 -0.5376 -1.0261  0.1548
 1154TIP3    H224954   1.668   0.140   2.274  0.6288  0.8878 -0.7915
 1155TIP3   OH224955   1.626   2.409  12.456  0.1423  1.0044  0.0738
 1155TIP3    H124956   1.682   2.354  12.511 -0.2960 -0.1022 -0.5560
 1155TIP3    H224957   1.667   2.495  12.458  0.7600  0.7026  1.2125
 1156TIP3   OH224958   5.461   3.136  11.148 -0.1567  0.1588  0.6877
 1156TIP3    H124959   5.437   3.063  11.205  1.1436  1.1411  2.5770
 1156TIP3    H224960   5.556   3.140  11.152 -0.1554  1.4559 -0.0528
 1157TIP3   OH224961   4.989   7.020   3.041 -0.5339 -0.0018  0.1712
 1157TIP3    H124962   5.028   6.935   3.062 -0.0095  0.1726 -0.0580
 1157TIP3    H224963   5.000   7.071   3.121  1.8603  0.8048 -0.5864
 1158TIP3   OH224964   0.419   1.149  12.491  0.0703  0.4587 -0.1272
 1158TIP3    H124965   0.473   1.226  12.473  0.4660 -0.1246 -1.5538
 1158TIP3    H224966   0.373   1.132  12.409 -3.4950  1.7877  1.3901
 1159TIP3   OH224967   2.142   2.514  11.715 -0.1544  0.1304 -0.0183
 1159TIP3    H124968   2.216   2.516  11.655 -0.0925 -1.0857 -0.0186
 1159TIP3    H224969   2.164   2.577  11.783  1.5266 -1.1533  0.6947
 1160TIP3   OH224970   1.359   5.799  10.240 -0.4162  0.0618  0.0933
 1160TIP3    H124971   1.311   5.757  10.169 -1.8517  0.7324  0.6295
 1160TIP3    H224972   1.356   5.892  10.219  0.3409  0.1487  0.3371
 1161TIP3   OH224973   6.739   2.636  13.158  0.4658 -0.3215 -0.6047
 1161TIP3    H124974   6.695   2.721  13.167 -0.2256 -0.6636 -0.7650
 1161TIP3    H224975   6.826   2.651  13.196 -0.5798 -0.3203  2.0045
 1162TIP3   OH224976   5.227   1.229  12.921 -0.1879 -0.0504 -0.5207
 1162TIP3    H124977   5.287   1.252  12.992 -0.0555  0.7386 -0.8803
 1162TIP3    H224978   5.213   1.134  12.931  1.0721 -0.2400 -0.4013
 1163TIP3   OH224979   6.872   4.522  10.848 -0.0841  0.0942 -0.0609
 1163TIP3    H124980   6.802   4.575  10.885 -0.1027 -1.6491  2.6819
 1163TIP3    H224981   6.937   4.585  10.819 -0.6321  1.6637  1.8972
 1164TIP3   OH224982   1.273   7.150  12.900  0.0352  0.2943 -0.3455
 1164TIP3    H124983   1.200   7.119  12.953  0.2921  0.3946  0.0719
 1164TIP3    H224984   1.235   7.167  12.813 -0.7338  1.6009  0.2103
 1165TIP3   OH224985   1.158   2.701  12.821 -0.3986 -0.0003 -0.3590
 1165TIP3    H124986   1.130   2.621  12.864 -2.8362 -0.0228 -1.8054
 1165TIP3    H224987   1.196   2.672  12.738  0.6060  0.2673 -0.0127
 1166TIP3   OH224988   3.003   4.360  13.991 -0.3333 -0.1777  0.0423
 1166TIP3    H124989   3.063   4.410  13.935  0.0336 -0.9566 -0.2752
 1166TIP3    H224990   2.926   4.345  13.937  0.1712 -1.2570 -0.4235
 1167TIP3   OH224991   4.952   3.563  13.476  0.1219  0.2285 -0.0839
 1167TIP3    H124992   4.954   3.620  13.399  1.4202  0.6140  0.2113
 1167TIP3    H224993   4.887   3.603  13.533 -1.0234 -0.1841 -1.0470
 1168TIP3   OH224994   6.722   2.967  12.256 -0.1168 -0.2392  0.4824
 1168TIP3    H124995   6.713   3.006  12.170  0.5201 -0.8060  0.1507
 1168TIP3    H224996   6.636   2.978  12.297 -0.0732  1.0961  0.2430
 1169TIP3   OH224997   1.718   2.923  15.316 -0.6862  0.1760 -0.7184
 1169TIP3    H124998   1.694   2.864  15.388 -0.5321  1.1163  0.1349
 1169TIP3    H224999   1.689   2.878  15.237  4.3542 -3.7546 -0.7992
 1170TIP3   OH225000   2.415   2.532  12.069  0.1269 -0.0754 -0.8058
 1170TIP3    H125001   2.427   2.557  12.161 -0.2600 -0.7131 -0.5766
 1170TIP3    H225002   2.501   2.545  12.029  0.7199 -1.2812  0.0129
 1171TIP3   OH225003   2.547   3.599  14.235 -0.3850  0.5380 -0.2450
 1171TIP3    H125004   2.606   3.525  14.247  0.5135  1.2235 -0.3056
 1171TIP3    H225005   2.523   3.626  14.324 -0.3118  0.4896 -0.2109
 1172TIP3   OH225006   2.220   2.703  11.957 -0.4090 -0.4389 -0.2506
 1172TIP3    H125007   2.200   2.765  12.026 -0.3353  0.0151 -0.6357
 1172TIP3    H225008   2.286   2.645  11.995  1.1250  1.0185 -0.5726
 1173TIP3   OH225009   1.516   2.646  13.911 -0.0819  0.2625  0.7354
 1173TIP3    H125010   1.548   2.644  13.821  2.6150 -1.1399  1.6233
 1173TIP3    H225011   1.421   2.647  13.902  0.0459 -1.6052 -2.1361
 1174TIP3   OH225012   2.460   2.472  13.442 -0.2167  0.3843  0.1071
 1174TIP3    H125013   2.367   2.484  13.464  0.0355 -0.3928  1.7831
 1174TIP3    H225014   2.506   2.534  13.499  0.2748  1.5075 -1.4482
 1175TIP3   OH225015   1.541   5.832  11.755 -0.0229  0.4763 -0.2615
 1175TIP3    H125016   1.592   5.772  11.702 -0.6198 -0.2378 -0.0360
 1175TIP3    H225017   1.588   5.838  11.838 -0.8066 -0.9540  0.3112
 1176TIP3   OH225018   0.749   2.565  11.177  0.2170 -0.3889  0.2274
 1176TIP3    H125019   0.727   2.576  11.270  0.0875  3.2337 -0.1043
 1176TIP3    H225020   0.799   2.643  11.155  1.0674 -1.6198 -2.5762
 1177TIP3   OH225021   6.651   2.415  10.745  0.4621  0.2084  0.0049
 1177TIP3    H125022   6.641   2.373  10.659 -1.3372 -0.6182  0.5578
 1177TIP3    H225023   6.580   2.480  10.747  1.6413  1.5219  0.1693
 1178TIP3   OH225024   4.158   6.408  10.818 -0.0421  0.2743 -0.2196
 1178TIP3    H125025   4.165   6.316  10.841 -1.0198  0.5273  1.2855
 1178TIP3    H225026   4.095   6.410  10.746 -1.6581 -0.1107  1.1115
 1179TIP3   OH225027   4.836   4.295  13.256 -0.6569  0.4600 -0.5354
 1179TIP3    H125028   4.797   4.382  13.255 -1.0323  0.2921 -0.6555
 1179TIP3    H225029   4.762   4.235  13.261 -0.4273  0.1265 -1.0378
 1180TIP3   OH225030   0.225   3.927  10.102 -0.0085 -0.2172  0.1767
 1180TIP3    H125031   0.215   3.856  10.038  0.1558 -0.2364  0.1711
 1180TIP3    H225032   0.308   3.909  10.145  0.6076  0.6172 -0.6316
 1181TIP3   OH225033   3.382   2.473  11.915 -0.1903  0.6384  0.1113
 1181TIP3    H125034   3.305   2.430  11.878 -0.1492  2.0192 -1.7626
 1181TIP3    H225035   3.347   2.539  11.975 -0.3940  0.2497  0.4193
 1182TIP3   OH225036   2.468   4.908  10.049 -0.0023 -0.3966  0.1899
 1182TIP3    H125037   2.535   4.973  10.025  1.2268 -0.6715  2.6054
 1182TIP3    H225038   2.497   4.827  10.008 -0.5949  0.1312 -1.3632
 1183TIP3   OH225039   5.428   7.081  11.606  0.2510 -0.2825  0.6808
 1183TIP3    H125040   5.386   7.016  11.662 -0.2208  0.0560  0.7277
 1183TIP3    H225041   5.521   7.074  11.627  0.8490 -3.8898 -2.3684
 1184TIP3   OH225042   2.886   2.798  11.434  0.4641 -0.3911  0.1143
 1184TIP3    H125043   2.856   2.731  11.373  0.0936 -2.1561  2.1395
 1184TIP3    H225044   2.971   2.767  11.464 -0.4505 -0.9223  2.3631
 1185TIP3   OH225045   4.723   1.513  14.130  0.3301  0.7311  0.3593
 1185TIP3    H125046   4.776   1.563  14.068  0.7446 -0.7850 -0.5801
 1185TIP3    H225047   4.722   1.424  14.094  0.6796 -0.2396  2.5968
 1186TIP3   OH225048   1.054   2.463  14.109  0.3745  0.4678 -0.4720
 1186TIP3    H125049   1.042   2.380  14.153 -3.4936  0.4948 -1.1300
 1186TIP3    H225050   1.112   2.513  14.167  0.9437 -1.8265  1.0655
 1187TIP3   OH225051   2.871   2.965   9.362 -0.4091 -0.1452  0.1355
 1187TIP3    H125052   2.848   3.036   9.302 -2.4424 -0.1265  0.8532
 1187TIP3    H225053   2.879   2.887   9.306 -0.6132  0.1799 -0.3505
 1188TIP3   OH225054   0.897   2.484  11.714  0.2257  0.3167 -0.5001
 1188TIP3    H125055   0.823   2.434  11.748  2.4988 -2.2629  1.0429
 1188TIP3    H225056   0.878   2.574  11.740 -3.8728  0.4885 -3.0954
 1189TIP3   OH225057   4.949   4.199  11.159 -0.5827 -0.7754 -0.2998
 1189TIP3    H125058   4.868   4.214  11.208  0.7319 -0.3719  1.8527
 1189TIP3    H225059   5.006   4.152  11.220  2.0751  1.9854 -0.4210
 1190TIP3   OH225060   2.871   5.296  14.927  0.1435 -0.1786 -0.1144
 1190TIP3    H125061   2.894   5.205  14.945 -0.6664 -0.5837 -1.0128
 1190TIP3    H225062   2.777   5.294  14.909 -0.0210  0.9465  0.4858
 1191TIP3   OH225063   5.265   3.442   9.928  0.2120 -0.2681 -0.3066
 1191TIP3    H125064   5.207   3.465   9.855 -0.0273  2.3899  0.6198
 1191TIP3    H225065   5.291   3.526   9.965  2.1406 -1.4925  1.2962
 1192TIP3   OH225066   2.405   4.360  10.687  0.1752 -0.2658 -0.1268
 1192TIP3    H125067   2.401   4.271  10.721 -0.7717 -0.5221 -0.8742
 1192TIP3    H225068   2.393   4.351  10.592 -3.1753  0.8345  0.0480
 1193TIP3   OH225069   0.547   5.779  10.168  0.3702  0.3047  0.1643
 1193TIP3    H125070   0.555   5.822  10.084 -1.4524 -0.9783 -0.7469
 1193TIP3    H225071   0.594   5.696  10.158  1.7751  0.9569  1.0825
 1194TIP3   OH225072   4.176   2.443  15.114  0.1487 -0.2069  0.0109
 1194TIP3    H125073   4.139   2.370  15.163  1.7860 -0.5251  0.8454
 1194TIP3    H225074   4.174   2.516  15.176  2.2461 -0.6138  0.6258
 1195TIP3   OH225075   4.575   1.078  10.169 -0.3837 -0.1129 -0.0621
 1195TIP3    H125076   4.564   0.991  10.208  1.9822 -0.9596 -1.1258
 1195TIP3    H225077   4.620   1.062  10.086  0.0012  2.1239 -0.3486
 1196TIP3   OH225078   5.725   2.227  11.296 -0.4034 -0.5448  0.3255
 1196TIP3    H125079   5.639   2.257  11.267 -0.8361 -1.4518  0.6024
 1196TIP3    H225080   5.719   2.228  11.392  0.4755  0.9603  0.3865
 1197TIP3   OH225081   0.013   5.581  15.054 -0.5461  0.5067  0.7860
 1197TIP3    H125082  -0.048   5.513  15.083 -1.0040  0.8675  0.6710
 1197TIP3    H225083  -0.020   5.608  14.969  1.1735 -1.0221 -0.4513
 1198TIP3   OH225084   1.089   4.700  11.653  0.6133 -0.8678  0.0336
 1198TIP3    H125085   1.079   4.759  11.578 -0.0237 -0.5863  0.3324
 1198TIP3    H225086   1.165   4.646  11.631  2.3800  1.2511  0.5610
 1199TIP3   OH225087   2.108   1.991  13.643 -0.3901 -0.2190 -0.7750
 1199TIP3    H125088   2.188   2.036  13.617 -0.8749 -0.1412 -2.2079
 1199TIP3    H225089   2.124   1.964  13.733  2.1123 -2.0968 -1.6863
 1200TIP3   OH225090   3.249   1.644  13.309  0.5568  0.6479  0.1656
 1200TIP3    H125091   3.203   1.561  13.321 -1.2266  1.4823 -0.4511
 1200TIP3    H225092   3.225   1.697  13.385 -0.7325  1.5817 -0.8258
 1201TIP3   OH225093   0.454   4.822  10.275  0.2345  0.3975  0.4130
 1201TIP3    H125094   0.441   4.760  10.203  1.3348 -2.3056  2.3887
 1201TIP3    H225095   0.365   4.845  10.302 -0.1875  0.2910 -0.7995
 1202TIP3   OH225096   5.557   0.640  12.644 -0.1778  0.5409  0.1444
 1202TIP3    H125097   5.649   0.616  12.647 -0.2621  0.1666 -0.0798
 1202TIP3    H225098   5.537   0.673  12.732 -0.2631 -1.0460  0.7546
 1203TIP3   OH225099   3.783   6.084  10.814  0.0300 -0.2047  0.2879
 1203TIP3    H125100   3.748   6.003  10.776 -0.2392 -0.7209  1.5685
 1203TIP3    H225101   3.861   6.056  10.861  0.9330  0.5854 -0.6832
 1204TIP3   OH225102   5.213   2.614   9.877 -0.1293  0.6869  0.2412
 1204TIP3    H125103   5.225   2.708   9.862  0.3393  0.9511  2.1388
 1204TIP3    H225104   5.188   2.607   9.969 -1.8791 -0.9338 -0.2944
 1205TIP3   OH225105   2.899   1.399  13.295 -0.7219  0.2396  0.3972
 1205TIP3    H125106   2.946   1.466  13.246 -0.2994 -0.2140  0.1704
 1205TIP3    H225107   2.807   1.410  13.269 -0.3520 -0.8861 -1.6045
 1206TIP3   OH225108   6.298   3.791  11.052  0.0443 -0.0267  0.2660
 1206TIP3    H125109   6.227   3.838  11.095 -0.0915 -0.5673  0.6435
 1206TIP3    H225110   6.293   3.819  10.960  0.7678  1.6637  0.6949
 1207TIP3   OH225111   4.715   2.737   9.542  0.0333  0.0431 -0.0829
 1207TIP3    H125112   4.651   2.767   9.606 -0.9241 -0.5383 -0.7412
 1207TIP3    H225113   4.685   2.775   9.459  1.3632  0.9527 -0.1726
 1208TIP3   OH225114   5.933   1.280  11.164 -0.2975  0.3469 -0.2513
 1208TIP3    H125115   5.859   1.337  11.142  0.6335  2.7969  2.2956
 1208TIP3    H225116   5.914   1.250  11.253  1.3251  0.3092  0.1060
 1209TIP3   OH225117   5.876   0.998  11.669  0.3911 -0.0830  0.5398
 1209TIP3    H125118   5.866   0.930  11.737  0.0870  0.5153  1.1027
 1209TIP3    H225119   5.804   1.058  11.684 -0.5373 -0.6814 -1.2257
 1210TIP3   OH225120   5.494   6.801  10.722 -0.1416  0.8864  0.1518
 1210TIP3    H125121   5.588   6.819  10.727  0.4093 -1.8482  0.7982
 1210TIP3    H225122   5.459   6.834  10.805  0.5738  0.1946  0.7294
 1211TIP3   OH225123   5.435   3.941  11.309 -0.5389 -0.0920  0.1173
 1211TIP3    H125124   5.415   3.983  11.225  0.9765  0.2481 -0.1122
 1211TIP3    H225125   5.482   4.008  11.358 -0.3413 -0.6924  0.7615
 1212TIP3   OH225126   3.075   6.538  13.954  0.2457  0.2390  0.4628
 1212TIP3    H125127   3.142   6.549  14.021  0.1552  1.1928  0.4162
 1212TIP3    H225128   3.110   6.469  13.897  0.7398  0.0571  0.9721
 1213TIP3   OH225129   6.706   2.762  10.859 -0.2360  0.0724 -0.1270
 1213TIP3    H125130   6.711   2.847  10.902 -0.3948 -0.5953  1.2620
 1213TIP3    H225131   6.778   2.763  10.795  2.0908 -0.0305  2.2853
 1214TIP3   OH225132   5.330   0.165   0.122  0.5173 -0.1005 -0.0378
 1214TIP3    H125133   5.336   0.200   0.211  1.2274  2.1163 -0.9054
 1214TIP3    H225134   5.413   0.187   0.081 -0.6562  1.0652 -1.9657
 1215TIP3   OH225135   1.509   7.127   9.939 -0.2141  0.1813  0.0558
 1215TIP3    H125136   1.494   7.055   9.878  1.5914 -0.7499  0.6335
 1215TIP3    H225137   1.476   7.204   9.893 -1.2699 -0.8546 -0.9992
 1216TIP3   OH225138   5.956   3.201  11.816 -0.4785  0.3722 -0.4085
 1216TIP3    H125139   5.990   3.224  11.730  0.6070 -1.6868 -0.6037
 1216TIP3    H225140   5.865   3.231  11.815 -0.0586  1.7243 -1.6817
 1217TIP3   OH225141   2.036   2.336  15.264  0.0306  0.0922  0.4516
 1217TIP3    H125142   2.087   2.267  15.221  2.0523  1.1902  0.9291
 1217TIP3    H225143   1.994   2.292  15.338  1.1653 -0.6896  0.6626
 1218TIP3   OH225144   1.419   3.141  11.310  0.2893  0.6121 -0.0913
 1218TIP3    H125145   1.443   3.231  11.289  1.1578  0.2812 -0.5679
 1218TIP3    H225146   1.502   3.096  11.324 -0.0364 -0.5134 -1.5470
 1219TIP3   OH225147   7.173   0.011  12.875 -0.2654 -0.4792 -0.1670
 1219TIP3    H125148   7.112   0.079  12.846 -1.1245 -1.9851 -2.1655
 1219TIP3    H225149   7.125  -0.071  12.864  0.4397 -1.4365  2.9462
 1220TIP3   OH225150   5.535   1.431  11.644 -0.2129  0.0802 -0.3911
 1220TIP3    H125151   5.461   1.476  11.603  0.5097  0.2504 -1.5207
 1220TIP3    H225152   5.535   1.344  11.604  0.8627  0.4476 -1.2270
 1221TIP3   OH225153   2.000   5.950  13.107 -0.1551 -0.3495 -0.2082
 1221TIP3    H125154   1.997   5.966  13.012  0.3514  0.7459 -0.0616
 1221TIP3    H225155   2.062   6.015  13.140  0.5633 -1.4619  0.7384
 1222TIP3   OH225156   6.567   3.486  13.327  0.1443 -0.0243  0.6654
 1222TIP3    H125157   6.582   3.578  13.305 -0.2023 -0.0359  0.3818
 1222TIP3    H225158   6.520   3.488  13.411 -1.5635  0.1184 -0.2594
 1223TIP3   OH225159   1.108   4.052   9.897  0.4264 -0.7514 -0.1901
 1223TIP3    H125160   1.134   4.138   9.864  0.8766  0.2933  2.6798
 1223TIP3    H225161   1.165   4.036   9.971  0.8475 -3.9289 -1.0554
 1224TIP3   OH225162   4.546   2.264  10.897  0.1452  0.4174 -0.0071
 1224TIP3    H125163   4.465   2.314  10.889 -0.3609 -0.0650  1.7212
 1224TIP3    H225164   4.517   2.176  10.922  1.2259  0.3791  1.1598
 1225TIP3   OH225165   2.737   6.942  10.450  0.2801 -0.4067 -0.3240
 1225TIP3    H125166   2.810   6.962  10.507  0.3040  0.1832 -0.5515
 1225TIP3    H225167   2.663   6.926  10.509  0.2028  0.6098 -0.1236
 1226TIP3   OH225168   0.904   5.348  12.856  0.2113  0.7369 -0.0842
 1226TIP3    H125169   0.985   5.322  12.900 -0.8637 -1.1688  0.9091
 1226TIP3    H225170   0.850   5.386  12.926 -0.5883 -0.0956 -0.2222
 1227TIP3   OH225171   3.387   5.574   0.827 -0.3536  1.0757  0.2757
 1227TIP3    H125172   3.394   5.509   0.758 -2.9450  0.0785  0.8495
 1227TIP3    H225173   3.419   5.655   0.788 -1.8607  0.5837 -2.1493
 1228TIP3   OH225174   4.533   6.866   9.563  0.4241 -0.2866 -0.4456
 1228TIP3    H125175   4.594   6.863   9.489 -0.2174 -1.0864 -0.9521
 1228TIP3    H225176   4.496   6.955   9.560 -0.2585 -0.5906 -1.6373
 1229TIP3   OH225177   1.742   1.421  10.562  1.1538  0.5614 -0.4911
 1229TIP3    H125178   1.684   1.490  10.593 -0.0335 -1.3358  1.7869
 1229TIP3    H225179   1.728   1.418  10.467 -2.4762  0.2256 -0.0549
 1230TIP3   OH225180   4.006   3.219  10.213  0.2092 -0.5021 -0.3694
 1230TIP3    H125181   4.016   3.296  10.268  1.3702  0.2415 -1.5632
 1230TIP3    H225182   3.959   3.156  10.268  0.3247  0.6041  1.0510
 1231TIP3   OH225183   3.267   1.480  11.203 -0.3844 -0.5005  0.0212
 1231TIP3    H125184   3.277   1.499  11.110  1.0830 -1.5398 -0.0555
 1231TIP3    H225185   3.318   1.548  11.247  2.1785 -2.1995 -0.1322
 1232TIP3   OH225186   3.773   2.575  13.615 -0.4655 -0.1852  0.3801
 1232TIP3    H125187   3.719   2.652  13.627 -1.5925 -0.5258 -2.0416
 1232TIP3    H225188   3.859   2.600  13.650 -0.8422  2.1144 -0.2046
 1233TIP3   OH225189   6.432   5.916  14.106  0.0809  1.0024 -0.4681
 1233TIP3    H125190   6.409   5.880  14.192  1.4089 -0.5011 -0.6815
 1233TIP3    H225191   6.514   5.962  14.122  0.4958  0.4505 -0.9608
 1234TIP3   OH225192   3.178   5.586  14.760 -0.7999 -0.2985 -0.0845
 1234TIP3    H125193   3.225   5.542  14.690 -0.7218 -1.4602  0.6780
 1234TIP3    H225194   3.099   5.620  14.719 -0.0748  0.2996 -1.0344
 1235TIP3   OH225195   1.486   0.001  13.929 -0.0895  0.0768  0.2826
 1235TIP3    H125196   1.483   0.075  13.869 -2.1660  1.2271  1.6762
 1235TIP3    H225197   1.510  -0.073  13.874  2.7325  1.8168 -1.0524
 1236TIP3   OH225198   2.824   0.967  14.571  0.1907  0.5014  0.0347
 1236TIP3    H125199   2.755   1.005  14.516  0.4864  3.0694  1.2855
 1236TIP3    H225200   2.777   0.933  14.647 -0.0355 -1.3607 -0.9032
 1237TIP3   OH225201   5.372   2.432  14.681 -0.5248  0.4975  0.2612
 1237TIP3    H125202   5.467   2.445  14.685 -0.3080 -0.4225 -1.1621
 1237TIP3    H225203   5.361   2.338  14.668 -1.5341  0.8000 -1.3483
 1238TIP3   OH225204   1.170   2.235   9.200 -0.4247 -0.1297  1.0311
 1238TIP3    H125205   1.212   2.150   9.213  0.5083  0.2773  0.7654
 1238TIP3    H225206   1.083   2.214   9.167 -2.3673 -1.1994  5.9115
 1239TIP3   OH225207   3.728   6.207  14.011  0.0069 -0.2708 -0.1513
 1239TIP3    H125208   3.750   6.149  13.938 -0.9642  1.0960 -1.5812
 1239TIP3    H225209   3.633   6.215  14.007  0.2017  2.8199 -1.1812
 1240TIP3   OH225210   0.276   5.098  13.748 -0.7261 -0.0027  0.0574
 1240TIP3    H125211   0.184   5.120  13.767 -1.0055 -1.3143  0.3059
 1240TIP3    H225212   0.273   5.056  13.662 -0.6162 -1.5544  0.7795
 1241TIP3   OH225213   5.905   6.352  10.667  0.3747 -0.2642  0.1976
 1241TIP3    H125214   5.979   6.411  10.681  0.7469 -0.4914 -0.7477
 1241TIP3    H225215   5.856   6.392  10.595  0.0086 -0.5302  0.2966
 1242TIP3   OH225216   1.469   6.102  11.648 -0.0141  0.1018 -0.0229
 1242TIP3    H125217   1.420   6.075  11.570  0.6022 -0.1413 -0.3393
 1242TIP3    H225218   1.507   6.020  11.681  0.1824  0.2836  0.2068
 1243TIP3   OH225219   1.291   2.332  10.753 -0.0663 -0.3628 -0.2413
 1243TIP3    H125220   1.246   2.411  10.782 -1.3250 -1.0006 -0.3797
 1243TIP3    H225221   1.331   2.356  10.669  0.0010  0.2689 -0.0338
 1244TIP3   OH225222   0.236   0.251  10.261  0.3561  0.5753  0.4858
 1244TIP3    H125223   0.285   0.171  10.243  1.3161  0.7816  2.0822
 1244TIP3    H225224   0.279   0.318  10.207  0.0632  0.2125 -0.2207
 1245TIP3   OH225225   1.933   5.338  11.344  0.5904  0.3332 -0.3033
 1245TIP3    H125226   1.985   5.410  11.309  2.4053 -0.5672  0.4186
 1245TIP3    H225227   1.996   5.280  11.385 -0.9399 -1.1269  0.1253
 1246TIP3   OH225228   2.439   6.286  11.362 -0.8129 -0.0088 -0.3693
 1246TIP3    H125229   2.391   6.257  11.284 -0.5286 -0.0766 -0.5209
 1246TIP3    H225230   2.509   6.221  11.372 -0.5378  0.2874 -0.3587
 1247TIP3   OH225231   4.373   3.890  10.017  0.0500 -0.2109 -0.5338
 1247TIP3    H125232   4.444   3.826  10.026  0.2882 -0.0026 -0.8671
 1247TIP3    H225233   4.406   3.969  10.061 -0.0302 -0.1576 -0.5690
 1248TIP3   OH225234   2.364   1.058  14.360 -0.3152 -0.7160 -0.2741
 1248TIP3    H125235   2.344   0.964  14.363  1.0013 -0.9865  1.0960
 1248TIP3    H225236   2.356   1.080  14.267 -0.5906 -2.1964 -0.6407
 1249TIP3   OH225237   2.642   1.990  10.016  0.5972  0.0303  0.4991
 1249TIP3    H125238   2.685   2.005   9.932  0.2023 -0.6828  0.1529
 1249TIP3    H225239   2.557   2.033  10.008  1.0615  1.0810  1.0277
 1250TIP3   OH225240   5.797   6.161  10.342 -0.5938 -0.5432  0.3777
 1250TIP3    H125241   5.748   6.145  10.262  0.4726  0.0327 -0.4326
 1250TIP3    H225242   5.789   6.255  10.356 -1.7854 -0.8218  1.6517
 1251TIP3   OH225243   1.902   7.195  13.807 -0.1718 -0.4467 -0.0170
 1251TIP3    H125244   1.898   7.118  13.863  1.6860 -2.2421 -2.1549
 1251TIP3    H225245   1.835   7.181  13.741  0.2748 -0.3302 -0.5031
 1252TIP3   OH225246   6.593   3.927  13.938  0.4730  0.2982  0.3332
 1252TIP3    H125247   6.619   3.848  13.889  0.2854  1.7502 -2.3180
 1252TIP3    H225248   6.498   3.931  13.927  0.4499  0.7335  0.6867
 1253TIP3   OH225249   6.728   4.666  11.681 -0.3644  0.5984 -0.2118
 1253TIP3    H125250   6.789   4.716  11.627 -0.7881  2.5584  0.9974
 1253TIP3    H225251   6.779   4.640  11.758 -0.3326 -0.2467 -0.5103
 1254TIP3   OH225252   5.984   5.001   9.441  0.8803 -0.2178  0.1362
 1254TIP3    H125253   6.006   5.092   9.418 -0.3180  0.5730  1.8681
 1254TIP3    H225254   5.918   4.976   9.376 -0.0486  0.7972  0.6485
 1255TIP3   OH225255   6.449   4.370   0.839 -0.2193  0.1401  0.1267
 1255TIP3    H125256   6.527   4.348   0.891 -0.4737  1.5568  1.1579
 1255TIP3    H225257   6.376   4.340   0.893 -0.4725  1.3173  0.4658
 1256TIP3   OH225258   6.432   2.620  14.375  0.2451  0.0935 -1.1330
 1256TIP3    H125259   6.343   2.585  14.371  0.4071 -0.3739 -0.7281
 1256TIP3    H225260   6.423   2.706  14.415  0.1515 -0.6259  0.4698
 1257TIP3   OH225261   3.998   3.729  11.058 -0.1552 -0.5295  0.0884
 1257TIP3    H125262   3.913   3.684  11.051  0.1949 -1.2022  0.0701
 1257TIP3    H225263   4.013   3.736  11.153  0.7592 -2.3654  0.1267
 1258TIP3   OH225264   4.287   5.565  13.159  0.0178 -0.5481  0.4769
 1258TIP3    H125265   4.203   5.612  13.160  0.4467  0.2421  0.9087
 1258TIP3    H225266   4.341   5.612  13.223  1.4530  0.1791 -1.2018
 1259TIP3   OH225267   0.126   0.019  10.644 -0.2046 -0.0295 -0.1878
 1259TIP3    H125268   0.130   0.105  10.603 -0.1622 -0.3571 -0.8923
 1259TIP3    H225269   0.210   0.009  10.688  0.3687 -0.2891 -1.3140
 1260TIP3   OH225270   2.274   0.237  10.600  0.1027 -0.3669 -0.4842
 1260TIP3    H125271   2.202   0.260  10.541 -0.9128 -3.1590 -0.4941
 1260TIP3    H225272   2.233   0.187  10.670  1.8775 -0.9672  0.1981
 1261TIP3   OH225273   3.960   5.493  10.602  0.1852 -0.1214 -0.2811
 1261TIP3    H125274   3.920   5.406  10.600 -0.6970  0.2033  1.4565
 1261TIP3    H225275   3.902   5.548  10.549 -0.8360  0.0044  0.9404
 1262TIP3   OH225276   4.277   1.807  11.205 -0.0698  0.1858 -0.5084
 1262TIP3    H125277   4.211   1.777  11.143  0.0522  0.6766 -0.8860
 1262TIP3    H225278   4.232   1.876  11.255  0.3646  1.0395 -1.2630
 1263TIP3   OH225279   6.991   1.388  10.082  0.2515  0.5601 -0.2891
 1263TIP3    H125280   6.961   1.313  10.134 -0.0244 -0.0680 -1.3169
 1263TIP3    H225281   7.086   1.377  10.078  0.4430  1.4259  1.2766
 1264TIP3   OH225282   2.476   5.885  10.250 -0.2848 -0.1497 -0.0666
 1264TIP3    H125283   2.459   5.842  10.166  0.7450  0.8545 -0.8216
 1264TIP3    H225284   2.457   5.818  10.315 -0.3433 -1.2065 -1.1291
 1265TIP3   OH225285   0.197   2.150  11.017 -0.4686  0.5274  0.0410
 1265TIP3    H125286   0.130   2.122  10.955  0.2388  1.8281 -1.3850
 1265TIP3    H225287   0.279   2.147  10.967  0.0525  2.0457  0.7233
 1266TIP3   OH225288   5.874   1.034  14.759 -0.1427  0.0315 -0.4565
 1266TIP3    H125289   5.813   1.064  14.692 -1.2890  1.1882  1.0227
 1266TIP3    H225290   5.928   1.111  14.779  0.2460 -0.3234 -0.1173
 1267TIP3   OH225291   6.351   4.089  15.338 -0.1580  0.2528  0.0639
 1267TIP3    H125292   6.374   4.178  15.312  0.1242 -0.2729 -1.6140
 1267TIP3    H225293   6.368   4.036  15.261  0.6734 -1.4493  1.3514
 1268TIP3   OH225294   5.070   6.244  12.800 -0.7627  0.1579  0.0377
 1268TIP3    H125295   4.986   6.288  12.786 -1.9452 -1.2920  2.0596
 1268TIP3    H225296   5.064   6.164  12.748 -0.4128  0.2807 -0.1960
 1269TIP3   OH225297   3.149   4.453  10.450  0.5130 -0.0409 -0.0482
 1269TIP3    H125298   3.222   4.479  10.394 -0.8123 -0.0259 -1.8511
 1269TIP3    H225299   3.159   4.358  10.460  0.6113 -0.0866 -0.5515
 1270TIP3   OH225300   4.230   3.162  13.781 -0.6720 -0.4030  0.7303
 1270TIP3    H125301   4.307   3.105  13.780 -0.7372 -0.5202 -1.2728
 1270TIP3    H225302   4.260   3.242  13.824  0.5376 -0.4832  0.0796
 1271TIP3   OH225303   4.710   5.551  14.288  0.0229  0.5036 -0.3880
 1271TIP3    H125304   4.804   5.564  14.273 -0.1066  1.0133 -0.8219
 1271TIP3    H225305   4.677   5.519  14.204  0.2415 -2.3186  0.5117
 1272TIP3   OH225306   2.396   5.524  12.163  0.6019 -0.1004 -0.1866
 1272TIP3    H125307   2.379   5.432  12.179 -0.6520  0.3285  1.1737
 1272TIP3    H225308   2.481   5.526  12.118  0.6026 -1.8967 -0.3026
 1273TIP3   OH225309   0.063   4.273  12.500  0.3044 -0.1357 -0.5473
 1273TIP3    H125310   0.015   4.197  12.531 -0.0392  0.2666 -0.0928
 1273TIP3    H225311   0.143   4.237  12.461  0.4280 -0.6810  0.2081
 1274TIP3   OH225312   4.426   3.520  13.247  0.2351 -0.1260 -0.3998
 1274TIP3    H125313   4.433   3.614  13.261 -0.2513  0.1348 -1.8147
 1274TIP3    H225314   4.384   3.487  13.327  1.5914  0.6438  0.6889
 1275TIP3   OH225315   4.812   3.944  13.618  0.5548  0.1963 -1.0376
 1275TIP3    H125316   4.777   4.028  13.647 -0.4339 -0.8909  1.1761
 1275TIP3    H225317   4.740   3.882  13.631  1.8507 -1.3140 -0.7049
 1276TIP3   OH225318   5.390   2.146  10.231  0.6435 -0.3890  0.2251
 1276TIP3    H125319   5.309   2.193  10.252  1.1289  0.7499 -0.3665
 1276TIP3    H225320   5.411   2.173  10.141  1.0539 -1.5928 -0.0656
 1277TIP3   OH225321   1.951   1.100   9.930  0.4796  0.0394  0.5910
 1277TIP3    H125322   1.970   1.012   9.897  0.0888 -0.2538  1.1282
 1277TIP3    H225323   2.015   1.157   9.887  0.5664 -0.4696  0.0419
 1278TIP3   OH225324   0.952   1.755  11.338 -0.0401 -0.0649 -0.1450
 1278TIP3    H125325   1.031   1.800  11.370  1.3059 -2.1961 -0.2259
 1278TIP3    H225326   0.895   1.825  11.307  0.7458  1.7600  2.2079
 1279TIP3   OH225327   3.502   6.994  13.007 -0.4370  0.3780 -0.0747
 1279TIP3    H125328   3.421   6.988  13.058  1.7510  3.0557  4.3592
 1279TIP3    H225329   3.498   7.080  12.965 -0.1825  0.2506 -0.3615
 1280TIP3   OH225330   2.310   5.842  10.813 -0.3228  0.0788  0.1445
 1280TIP3    H125331   2.353   5.917  10.773  1.3626 -0.6597  0.4692
 1280TIP3    H225332   2.217   5.865  10.814  0.2402  2.6653  1.3211
 1281TIP3   OH225333   7.066   4.780  13.483 -0.5006 -0.1593  0.2289
 1281TIP3    H125334   6.984   4.830  13.487 -0.4103 -0.0665  1.1452
 1281TIP3    H225335   7.041   4.696  13.444 -0.9866 -0.0461  0.2854
 1282TIP3   OH225336   2.405   0.933   9.954 -0.0291 -0.2968 -0.0769
 1282TIP3    H125337   2.433   0.883   9.876 -1.1995  0.3400 -0.9366
 1282TIP3    H225338   2.352   1.004   9.918 -0.6916 -0.0638  1.3348
 1283TIP3   OH225339   6.214   4.839   0.318 -0.2395 -0.3112 -0.8685
 1283TIP3    H125340   6.170   4.796   0.392 -0.2969 -0.9987 -1.2942
 1283TIP3    H225341   6.174   4.799   0.241 -0.2734  0.5009 -1.2712
 1284TIP3   OH225342   5.285   6.062   9.857 -0.2190 -0.0361 -0.0986
 1284TIP3    H125343   5.318   5.990   9.804  1.5411  0.3656  0.4064
 1284TIP3    H225344   5.311   6.141   9.809 -0.2621  0.2955  0.4151
 1285TIP3   OH225345   0.163   6.773  10.688  0.3945 -0.1874 -0.5207
 1285TIP3    H125346   0.109   6.695  10.678  0.9142 -0.5213 -0.7950
 1285TIP3    H225347   0.221   6.753  10.762  0.8545 -0.2619 -0.8940
 1286TIP3   OH225348   4.908   2.517  11.350 -0.1271 -0.2178 -0.3582
 1286TIP3    H125349   4.872   2.604  11.336 -0.0927  0.1653  1.6640
 1286TIP3    H225350   4.926   2.513  11.443 -1.0899 -2.7740 -0.1986
 1287TIP3   OH225351   1.252   1.958   9.190 -0.2115 -0.5476  0.3007
 1287TIP3    H125352   1.204   1.886   9.230 -0.7419 -0.2948  0.1301
 1287TIP3    H225353   1.344   1.931   9.194 -0.5274 -2.1149 -1.5118
 1288TIP3   OH225354   2.203   4.353  11.608  0.2020  0.8068  0.7618
 1288TIP3    H125355   2.125   4.304  11.585 -0.7075  0.8080  3.4575
 1288TIP3    H225356   2.201   4.430  11.552 -1.9915  1.0217  1.0638
 1289TIP3   OH225357   2.351   1.875  13.090 -0.6811 -0.1919  0.5711
 1289TIP3    H125358   2.354   1.838  13.002 -1.2785 -0.3538  0.6136
 1289TIP3    H225359   2.259   1.897  13.103 -0.8636 -1.5891  1.7405
 1290TIP3   OH225360   4.364   4.601  13.818  0.2411  0.3366 -0.1634
 1290TIP3    H125361   4.321   4.664  13.760  2.4695  0.7169 -1.5613
 1290TIP3    H225362   4.449   4.585  13.775  0.5529 -2.0755  1.2133
 1291TIP3   OH225363   5.855   2.369  12.829  0.4131  0.0732  0.5369
 1291TIP3    H125364   5.907   2.409  12.759 -0.8071 -0.9355 -1.0050
 1291TIP3    H225365   5.887   2.411  12.909  2.1359  0.9715 -0.5633
 1292TIP3   OH225366   0.912   2.036  10.200 -0.5682  0.3569  0.1724
 1292TIP3    H125367   0.836   2.044  10.142 -0.7015  1.7433  0.5221
 1292TIP3    H225368   0.980   2.089  10.159  0.0124 -0.3383  0.2121
 1293TIP3   OH225369   5.242   6.452   0.157 -0.3592  0.4681  0.4321
 1293TIP3    H125370   5.276   6.521   0.099  1.6111 -1.9680 -1.5530
 1293TIP3    H225371   5.150   6.444   0.132 -0.1095  1.0311 -0.7878
 1294TIP3   OH225372   5.412   5.687  10.461 -0.6765  0.1698 -0.4398
 1294TIP3    H125373   5.393   5.682  10.554  1.0494  1.3841  0.0312
 1294TIP3    H225374   5.463   5.608  10.443 -0.5251  0.2164 -0.2204
 1295TIP3   OH225375   0.811   1.371   0.439  0.3311  0.9717  0.6476
 1295TIP3    H125376   0.850   1.435   0.379  4.0431 -1.4429  0.1471
 1295TIP3    H225377   0.764   1.310   0.382 -0.1561  1.2532  0.7420
 1296TIP3   OH225378   0.616   2.626  14.769  0.6717  0.6242  0.5145
 1296TIP3    H125379   0.595   2.586  14.684 -0.0094 -0.4128  1.1423
 1296TIP3    H225380   0.634   2.552  14.827  2.7467  1.3641  0.9052
 1297TIP3   OH225381   1.235   6.829  11.340 -0.0195 -0.3450  0.2469
 1297TIP3    H125382   1.225   6.901  11.277 -1.0922 -0.4619  0.2641
 1297TIP3    H225383   1.179   6.853  11.413  0.6657 -0.5620  0.8575
 1298TIP3   OH225384   5.156   0.209  15.241  0.1043  0.1009 -0.2952
 1298TIP3    H125385   5.225   0.143  15.234 -0.4065 -0.6493  1.2830
 1298TIP3    H225386   5.087   0.177  15.183  0.5756  0.2244 -0.9446
 1299TIP3   OH225387   6.011   3.890   3.012  0.2646 -0.1000  0.7987
 1299TIP3    H125388   5.973   3.928   2.933  0.8115  1.1723  1.1207
 1299TIP3    H225389   5.949   3.912   3.082  0.4840  0.0368  0.9536
 1300TIP3   OH225390   1.033   2.787  13.716 -0.2227  0.3093 -0.0006
 1300TIP3    H125391   0.987   2.869  13.734 -0.8475  0.3721 -1.7140
 1300TIP3    H225392   1.003   2.727  13.783  1.4625  1.8686  2.3255
 1301TIP3   OH225393   0.214   0.697  11.618 -0.3213 -0.1556  0.6660
 1301TIP3    H125394   0.190   0.789  11.611 -0.3605 -0.2695 -1.0446
 1301TIP3    H225395   0.270   0.680  11.542 -0.2664 -1.5314  0.9714
 1302TIP3   OH225396   0.211   6.100  14.198  0.1099 -0.1347 -0.1548
 1302TIP3    H125397   0.186   6.080  14.289  1.0775 -1.7915 -0.2030
 1302TIP3    H225398   0.235   6.015  14.161  0.3121  0.5982 -1.7984
 1303TIP3   OH225399   2.719   2.004  11.704  0.6570 -0.0548 -0.8425
 1303TIP3    H125400   2.648   2.068  11.697 -0.3467 -0.9514  0.5554
 1303TIP3    H225401   2.687   1.939  11.767  2.2271 -1.1596 -1.1131
 1304TIP3   OH225402   5.994   4.708  11.757 -0.0417  0.5667  0.0906
 1304TIP3    H125403   6.074   4.659  11.734  0.6476  1.0060  1.4567
 1304TIP3    H225404   5.924   4.663  11.709  1.0012  0.1513 -1.1172
 1305TIP3   OH225405   1.423   7.069   2.218 -0.3547  0.3202 -0.4782
 1305TIP3    H125406   1.469   7.051   2.136 -0.3670  0.4746 -0.5192
 1305TIP3    H225407   1.350   7.007   2.219 -1.2731  1.3528 -1.3309
 1306TIP3   OH225408   4.894   5.404   2.353 -0.2365 -0.2923  0.1260
 1306TIP3    H125409   4.827   5.356   2.304 -0.1087 -0.0116 -0.3252
 1306TIP3    H225410   4.878   5.380   2.445 -1.3786  0.2812  0.0985
 1307TIP3   OH225411   6.403   6.805  14.656 -0.2805  0.1267  0.1168
 1307TIP3    H125412   6.410   6.743  14.584 -3.4231  0.1300 -0.3340
 1307TIP3    H225413   6.415   6.751  14.735 -0.1300 -0.5150 -0.3363
 1308TIP3   OH225414   6.742   6.737   1.780 -0.2589 -0.0864  0.2870
 1308TIP3    H125415   6.718   6.714   1.870  0.7218 -0.5382  0.4405
 1308TIP3    H225416   6.762   6.653   1.739 -0.1141  0.1785 -0.1813
 1309TIP3   OH225417   5.171   1.897  11.296 -0.5590  0.3058  0.4553
 1309TIP3    H125418   5.109   1.835  11.259  1.0302 -0.7468 -0.5379
 1309TIP3    H225419   5.192   1.957  11.223 -1.6509  1.7165  1.2452
 1310TIP3   OH225420   3.242   5.736  12.190 -0.1177  0.1160 -0.5396
 1310TIP3    H125421   3.232   5.691  12.106 -1.4665 -1.9714  0.6757
 1310TIP3    H225422   3.296   5.677  12.243  0.7441  1.4178  0.1017
 1311TIP3   OH225423   5.477   4.213   3.127 -0.0810  0.6416  0.0338
 1311TIP3    H125424   5.450   4.122   3.140 -2.2079  1.4220  1.4794
 1311TIP3    H225425   5.518   4.237   3.210  1.0689  0.8410 -0.5758
 1312TIP3   OH225426   0.971   2.749  11.426 -0.1422 -0.3823  0.0920
 1312TIP3    H125427   0.994   2.830  11.381  0.2893 -0.1450  0.7274
 1312TIP3    H225428   0.915   2.777  11.499  1.5093 -0.4121  1.4506
 1313TIP3   OH225429   3.365   4.708   9.668  0.0595  0.0819  0.1238
 1313TIP3    H125430   3.437   4.646   9.663 -1.4767 -1.7748  0.0548
 1313TIP3    H225431   3.291   4.657   9.700 -1.5760  1.6128 -1.0316
 1314TIP3   OH225432   5.086   4.872   9.845  0.1215  0.1872  0.0642
 1314TIP3    H125433   5.074   4.837   9.933 -0.1252  0.3792  0.1077
 1314TIP3    H225434   5.157   4.935   9.853  0.0458  0.2633  0.1450
 1315TIP3   OH225435   6.103   2.045  10.746 -0.2024  0.0257  0.7472
 1315TIP3    H125436   6.015   2.083  10.746  0.2489  1.3149  3.4246
 1315TIP3    H225437   6.132   2.051  10.656 -2.4431  0.5507  0.0027
 1316TIP3   OH225438   0.435   2.286  11.546  0.2319 -0.2624  0.5014
 1316TIP3    H125439   0.467   2.267  11.458 -1.3237 -2.2327  0.2847
 1316TIP3    H225440   0.374   2.359  11.534  0.1249 -0.4373 -0.0343
 1317TIP3   OH225441   6.241   4.246   9.974  0.3848 -0.1222  0.5648
 1317TIP3    H125442   6.279   4.165   9.939 -1.0653 -1.8676  2.8049
 1317TIP3    H225443   6.178   4.217  10.039 -2.0638  2.7537 -0.2964
 1318TIP3   OH225444   4.813   0.594  11.045  0.5145 -0.6912  0.4563
 1318TIP3    H125445   4.898   0.561  11.072  0.3282 -1.0529  0.6107
 1318TIP3    H225446   4.764   0.516  11.020  0.0088 -0.5561  0.9878
 1319TIP3   OH225447   0.262   2.468  14.546 -0.8624  0.0371  0.1411
 1319TIP3    H125448   0.256   2.399  14.479 -0.1887 -0.5472  0.6673
 1319TIP3    H225449   0.202   2.439  14.615 -1.6856  0.7237 -0.2555
 1320TIP3   OH225450   2.417   2.515  12.610 -0.0964 -0.0411 -0.3436
 1320TIP3    H125451   2.422   2.420  12.613 -0.8755 -0.0862 -0.3663
 1320TIP3    H225452   2.471   2.544  12.684  1.6748 -0.4320 -1.4345
 1321TIP3   OH225453   3.118   6.172  10.049  0.4829 -0.2128 -0.0646
 1321TIP3    H125454   3.114   6.255  10.097  0.1298 -0.0792 -0.3154
 1321TIP3    H225455   3.198   6.130  10.079  1.3785  0.8290 -0.9486
 1322TIP3   OH225456   2.232   1.811  10.763 -0.1225  0.1548  0.0176
 1322TIP3    H125457   2.307   1.754  10.781  0.1703 -0.2405 -2.1980
 1322TIP3    H225458   2.156   1.753  10.770 -0.0546  0.0999  0.3209
 1323TIP3   OH225459   0.904   1.358  12.302 -0.1243  0.4040  0.2296
 1323TIP3    H125460   0.857   1.313  12.232  0.5957 -1.2855  0.7634
 1323TIP3    H225461   0.867   1.321  12.383 -1.3396  2.7227  0.8163
 1324TIP3   OH225462   1.754   2.278  12.653  0.1805 -0.4126 -0.7296
 1324TIP3    H125463   1.711   2.231  12.724 -0.4059  0.1931 -0.6835
 1324TIP3    H225464   1.823   2.218  12.624 -0.3393 -1.1693 -0.4471
 1325TIP3   OH225465   1.843   3.318  14.544  0.1502 -0.0937 -0.4029
 1325TIP3    H125466   1.801   3.307  14.630 -0.4432  0.0973 -0.6575
 1325TIP3    H225467   1.771   3.346  14.487  0.2538 -1.5482 -1.2809
 1326TIP3   OH225468   4.757   5.864   0.219 -0.1893 -0.1793  0.3664
 1326TIP3    H125469   4.846   5.887   0.243  0.4984 -0.4692 -1.7499
 1326TIP3    H225470   4.731   5.796   0.282  1.1219 -0.1652  0.9329
 1327TIP3   OH225471   2.777   4.266  14.285  0.0739  0.0804 -0.1403
 1327TIP3    H125472   2.873   4.276  14.289  0.2501 -1.1175 -0.8660
 1327TIP3    H225473   2.758   4.262  14.192 -0.5065 -1.1982  0.0203
 1328TIP3   OH225474   3.860   5.097   9.678  0.1639  0.3950 -0.2766
 1328TIP3    H125475   3.943   5.050   9.687  0.6153  1.3213  0.5478
 1328TIP3    H225476   3.871   5.175   9.731 -2.1194 -0.6317  1.8940
 1329TIP3   OH225477   0.579   5.318  11.504 -0.0818  0.4814  0.5047
 1329TIP3    H125478   0.578   5.345  11.596 -1.3650  3.0484 -0.1915
 1329TIP3    H225479   0.553   5.396  11.455  1.4308 -0.5496 -2.1496
 1330TIP3   OH225480   2.229   0.447   9.647 -0.0233 -0.1055  0.1981
 1330TIP3    H125481   2.306   0.492   9.611  0.3423 -0.1016  0.9597
 1330TIP3    H225482   2.265   0.378   9.702 -0.5842 -1.0620 -0.6040
 1331TIP3   OH225483   1.654   5.300  13.262 -0.3250 -0.5453  0.1876
 1331TIP3    H125484   1.625   5.348  13.340  0.1859  0.2195 -0.0904
 1331TIP3    H225485   1.683   5.215  13.296  0.7914  0.1285  0.9605
 1332TIP3   OH225486   4.227   7.128  11.793 -0.0210 -0.0619  0.1565
 1332TIP3    H125487   4.192   7.050  11.835  1.6708 -0.7178  0.4388
 1332TIP3    H225488   4.261   7.181  11.866  3.3695 -1.4213 -0.2628
 1333TIP3   OH225489   1.024   5.223  10.165 -0.0357  0.0662 -0.5160
 1333TIP3    H125490   0.990   5.172  10.092  1.2965  0.2954 -1.3378
 1333TIP3    H225491   1.096   5.170  10.200  0.2575  0.6036 -0.2873
 1334TIP3   OH225492   1.546   6.520  10.386  0.1957  0.4839 -0.4328
 1334TIP3    H125493   1.603   6.492  10.458 -1.3395  0.2145  0.7371
 1334TIP3    H225494   1.603   6.520  10.309  0.8982 -3.7105 -0.1294
 1335TIP3   OH225495   6.105   4.872  10.156 -0.4349  0.3242 -0.3419
 1335TIP3    H125496   6.141   4.786  10.137  2.1545  1.2102  0.2034
 1335TIP3    H225497   6.040   4.856  10.225 -1.6237 -1.4059 -1.7637
 1336TIP3   OH225498   1.637   6.283  11.728 -0.0212 -0.1888 -0.2075
 1336TIP3    H125499   1.717   6.231  11.715 -0.6147 -0.5984 -2.8263
 1336TIP3    H225500   1.566   6.222  11.707 -0.8123  1.1621 -1.6511
 1337TIP3   OH225501   2.661   6.298   0.150 -0.2448 -0.0692 -0.0882
 1337TIP3    H125502   2.659   6.353   0.072 -0.7667  3.0775  1.9406
 1337TIP3    H225503   2.607   6.223   0.128 -1.5091  1.3635 -2.3033
 1338TIP3   OH225504   1.367   3.018  11.015 -0.8933  0.0464 -0.2366
 1338TIP3    H125505   1.416   3.094  11.043  1.4130 -1.1200 -0.8414
 1338TIP3    H225506   1.325   2.984  11.094 -0.6318  1.0034  0.3172
 1339TIP3   OH225507   4.284   5.420  12.398  0.1009 -0.1056 -0.1269
 1339TIP3    H125508   4.249   5.411  12.310  1.0751 -0.5867 -0.4803
 1339TIP3    H225509   4.377   5.400  12.389 -0.0781 -1.8345  1.2693
 1340TIP3   OH225510   0.270   3.205  12.413 -0.1224  0.0706  0.1347
 1340TIP3    H125511   0.206   3.239  12.476 -1.9420 -1.2390 -0.9227
 1340TIP3    H225512   0.307   3.283  12.371 -1.1509  0.8479  0.6482
 1341TIP3   OH225513   3.770   3.408  14.025  0.0316  0.0458  0.3186
 1341TIP3    H125514   3.691   3.434  13.977 -0.5202  0.4604  1.4112
 1341TIP3    H225515   3.774   3.313  14.015 -1.8610 -0.2913  2.0400
 1342TIP3   OH225516   4.994   1.449  13.063  0.2810  0.3707 -0.4954
 1342TIP3    H125517   5.039   1.471  12.981 -0.9279 -1.2253 -1.6558
 1342TIP3    H225518   4.901   1.442  13.038  0.1724 -2.9256  0.3209
 1343TIP3   OH225519   4.397   0.396  11.493  0.4962 -0.3652  0.1870
 1343TIP3    H125520   4.328   0.342  11.532  0.9134 -0.7651  0.3719
 1343TIP3    H225521   4.450   0.334  11.442 -1.2258  0.3893 -2.7940
 1344TIP3   OH225522   2.224   4.073  13.093 -0.0077 -0.1212 -0.3969
 1344TIP3    H125523   2.251   3.991  13.050  1.6020  0.5320 -0.7249
 1344TIP3    H225524   2.151   4.048  13.149  0.6537 -1.8613 -0.2400
 1345TIP3   OH225525   6.013   1.780  10.536  0.3962  0.0722 -0.2068
 1345TIP3    H125526   6.101   1.741  10.535  0.7445  0.8462 -0.6557
 1345TIP3    H225527   6.003   1.813  10.626 -0.2738 -1.8221  0.4633
 1346TIP3   OH225528   2.694   2.636  11.276 -0.4235 -0.0953 -0.3248
 1346TIP3    H125529   2.719   2.572  11.343 -1.5324 -1.2118 -0.9408
 1346TIP3    H225530   2.615   2.599  11.236 -1.7682  2.1734  0.0207
 1347TIP3   OH225531   2.123   5.808   0.356  0.1898 -0.6152  0.4918
 1347TIP3    H125532   2.152   5.721   0.327 -0.7447 -0.4209 -1.1465
 1347TIP3    H225533   2.067   5.840   0.285 -0.3199  0.9109  1.5197
 1348TIP3   OH225534   4.586   0.694  11.195 -0.2648  0.4301  0.2530
 1348TIP3    H125535   4.672   0.689  11.151  1.0870  1.8738  2.5478
 1348TIP3    H225536   4.555   0.603  11.196  2.2055 -0.4957  1.1018
 1349TIP3   OH225537   3.399   2.466  11.076 -0.1657 -0.2635  0.2906
 1349TIP3    H125538   3.476   2.415  11.052  0.1946  0.8047 -0.9905
 1349TIP3    H225539   3.430   2.528  11.142  0.4204  0.9894 -1.1097
 1350TIP3   OH225540   5.389   5.423  14.556 -0.0437 -0.1555  0.1552
 1350TIP3    H125541   5.434   5.508  14.559  1.7198 -1.0592  0.7522
 1350TIP3    H225542   5.400   5.387  14.643 -0.6867 -1.0553 -0.1225
 1351TIP3   OH225543   1.273   1.145  10.381  0.5726 -0.0518  0.5356
 1351TIP3    H125544   1.272   1.223  10.325  2.2697 -0.0702  0.4135
 1351TIP3    H225545   1.183   1.113  10.379  0.1712  1.0327 -0.6445
 1352TIP3   OH225546   3.562   0.737  10.546 -0.5775  0.7522 -0.4866
 1352TIP3    H125547   3.581   0.812  10.490  0.6437  0.6214 -0.2752
 1352TIP3    H225548   3.647   0.696  10.561 -0.6171  1.5554  2.5649
 1353TIP3   OH225549   4.231   3.078   1.404  0.3750  0.4206 -0.4159
 1353TIP3    H125550   4.270   3.018   1.468 -0.0122 -0.7552 -1.2500
 1353TIP3    H225551   4.149   3.106   1.444  0.4935  0.2966 -0.0795
 1354TIP3   OH225552   2.116   0.234  12.283  0.5667 -0.2882  0.1055
 1354TIP3    H125553   2.034   0.207  12.324 -0.0545  2.0198  0.5324
 1354TIP3    H225554   2.090   0.296  12.215  1.8782 -0.8057 -0.9201
 1355TIP3   OH225555   3.387   6.619  10.359 -0.5404 -0.2641  0.0617
 1355TIP3    H125556   3.410   6.577  10.277 -3.0568 -1.6882  0.0215
 1355TIP3    H225557   3.428   6.564  10.426  2.0545  1.2439 -0.1104
 1356TIP3   OH225558   5.571   6.246   0.504 -0.1460  0.2475 -0.3493
 1356TIP3    H125559   5.592   6.160   0.541 -0.2314 -0.1160 -1.1210
 1356TIP3    H225560   5.584   6.307   0.577  2.3189 -0.1021 -0.3992
 1357TIP3   OH225561   4.690   4.690  13.135 -0.2907 -0.0936 -0.0931
 1357TIP3    H125562   4.639   4.769  13.116 -1.4835 -0.4329  1.4833
 1357TIP3    H225563   4.642   4.620  13.092 -0.8813 -0.3439  0.9546
 1358TIP3   OH225564   4.045   2.854   2.080  0.4457  0.0220  0.1625
 1358TIP3    H125565   4.002   2.863   2.165  1.4494 -0.5580  0.7576
 1358TIP3    H225566   4.132   2.893   2.093  0.1568  1.1121 -0.9890
 1359TIP3   OH225567   1.194   3.793  11.942 -0.3918  0.4607  0.0345
 1359TIP3    H125568   1.152   3.768  11.859 -0.2040  2.5442 -0.7641
 1359TIP3    H225569   1.121   3.811  12.001 -0.5441 -2.5421  0.9182
 1360TIP3   OH225570   5.867   4.710  13.311  0.7797  0.2834 -0.1027
 1360TIP3    H125571   5.930   4.781  13.302  0.3475  1.1061  2.6299
 1360TIP3    H225572   5.920   4.633  13.332  0.9962  0.6449  0.7030
 1361TIP3   OH225573   6.575   7.093   9.950  0.1614  0.0153 -0.1419
 1361TIP3    H125574   6.544   7.040   9.876  1.6602  0.3289 -1.0299
 1361TIP3    H225575   6.558   7.039  10.027  0.2015 -1.0782 -0.8835
 1362TIP3   OH225576   1.147   1.742   1.028  0.5093  0.5844  0.3558
 1362TIP3    H125577   1.204   1.666   1.017  1.7376  1.6943 -1.3639
 1362TIP3    H225578   1.102   1.751   0.944 -1.5151  0.3400  1.3412
 1363TIP3   OH225579   3.073   6.522  11.303 -0.2331 -0.6566  0.2192
 1363TIP3    H125580   3.124   6.603  11.310 -2.0491  0.7160 -1.3237
 1363TIP3    H225581   3.081   6.497  11.211 -0.5191 -1.7001  0.4620
 1364TIP3   OH225582   6.048   4.154  14.270 -0.6142 -0.6453 -0.0284
 1364TIP3    H125583   6.069   4.108  14.189 -1.7414 -1.8613  0.3429
 1364TIP3    H225584   5.953   4.151  14.276 -0.5815 -0.0622  1.0585
 1365TIP3   OH225585   6.000   0.016  11.321 -0.1276 -0.0066 -0.1140
 1365TIP3    H125586   6.072   0.011  11.258 -0.1118  2.0291 -0.3286
 1365TIP3    H225587   6.040  -0.008  11.405  0.4906 -0.1373 -0.4362
 1366TIP3   OH225588   0.167   3.072  11.031  0.7263 -0.3738 -0.1639
 1366TIP3    H125589   0.092   3.111  10.985  0.7354  0.0316  0.1583
 1366TIP3    H225590   0.147   2.979  11.035 -0.2858 -0.1422  0.8693
 1367TIP3   OH225591   6.449   4.147  14.428 -0.2075  0.0688  0.2320
 1367TIP3    H125592   6.504   4.219  14.460 -2.6888  2.6131 -0.7543
 1367TIP3    H225593   6.449   4.158  14.333 -2.0187 -0.0732  0.1800
 1368TIP3   OH225594   0.953   6.180   2.359 -0.6630  0.0375  0.0372
 1368TIP3    H125595   0.947   6.245   2.289 -1.2393  0.7304  0.7111
 1368TIP3    H225596   1.038   6.138   2.346 -0.4920  0.5988 -0.6913
 1369TIP3   OH225597   3.881   0.918  11.483 -0.3479  0.7116  0.1147
 1369TIP3    H125598   3.821   0.991  11.468 -2.3874 -0.7097  0.9080
 1369TIP3    H225599   3.827   0.852  11.527  1.3414 -1.4087 -0.8641
 1370TIP3   OH225600   2.932   0.419  13.239  0.0910  0.3493 -0.8689
 1370TIP3    H125601   2.904   0.349  13.298 -0.6850  2.4224  1.3941
 1370TIP3    H225602   3.022   0.437  13.264 -0.2243  1.2035 -0.2977
 1371TIP3   OH225603   2.131   1.919  13.906 -1.0220 -0.8875  0.1787
 1371TIP3    H125604   2.146   1.971  13.985  0.4617  0.1023 -0.7154
 1371TIP3    H225605   2.197   1.850  13.909 -1.1637 -1.0364 -0.0540
 1372TIP3   OH225606   3.780   2.214  11.490 -0.8528 -0.1757 -0.4752
 1372TIP3    H125607   3.874   2.219  11.474 -0.8134  2.3342  0.2195
 1372TIP3    H225608   3.750   2.140  11.436  1.4060 -0.7197 -1.0666
 1373TIP3   OH225609   3.709   3.180  10.969 -0.8732  0.0402  0.3684
 1373TIP3    H125610   3.772   3.242  10.934 -1.0432  1.2926  2.1183
 1373TIP3    H225611   3.628   3.195  10.920 -1.2846  2.1710  1.5720
 1374TIP3   OH225612   1.693   6.102  12.384 -0.1841  0.2708  0.4824
 1374TIP3    H125613   1.674   6.030  12.443  0.3395  0.4379  0.8625
 1374TIP3    H225614   1.666   6.181  12.431  0.4572  0.4245  0.6076
 1375TIP3   OH225615   6.083   3.430  10.573  0.6623  0.2161 -0.6509
 1375TIP3    H125616   6.107   3.463  10.660 -0.8131 -0.1746 -0.0687
 1375TIP3    H225617   6.101   3.336  10.577 -0.1052  0.0697 -0.5028
 1376TIP3   OH225618   2.164   0.593  14.030 -0.2033  0.4895  0.5350
 1376TIP3    H125619   2.243   0.551  14.065 -1.4104 -1.0141  1.6221
 1376TIP3    H225620   2.185   0.610  13.938  1.3600  0.0870  0.7791
 1377TIP3   OH225621   5.823   4.305  11.013 -0.3371  0.0476 -0.3560
 1377TIP3    H125622   5.746   4.249  11.022 -0.7757  0.5300 -1.0688
 1377TIP3    H225623   5.810   4.351  10.930  0.9213 -0.1822 -0.6959
 1378TIP3   OH225624   6.741   2.862  11.412 -0.1074  0.7045  0.2975
 1378TIP3    H125625   6.836   2.851  11.417 -0.2399 -0.4390  0.4645
 1378TIP3    H225626   6.708   2.777  11.384 -1.2371  0.4841  2.1311
 1379TIP3   OH225627   3.716   1.186  13.206  0.3937  0.3719  0.1573
 1379TIP3    H125628   3.714   1.264  13.263 -2.4830 -0.2808  1.1194
 1379TIP3    H225629   3.783   1.130  13.245  0.5215  1.1885  1.1532
 1380TIP3   OH225630   3.390   2.877   9.504 -0.1083  0.1679  0.1404
 1380TIP3    H125631   3.404   2.960   9.459 -0.5665  0.1645 -0.0115
 1380TIP3    H225632   3.445   2.882   9.582  0.0114  0.5347  0.0326
 1381TIP3   OH225633   3.838   3.460  10.107 -0.2559 -0.4596 -0.0213
 1381TIP3    H125634   3.907   3.451  10.041  0.1192  0.9218  0.1579
 1381TIP3    H225635   3.885   3.467  10.190 -0.6787 -0.8966  0.2599
 1382TIP3   OH225636   5.390   4.194   9.792 -0.2769 -0.3129  0.5234
 1382TIP3    H125637   5.410   4.162   9.880  2.1915  0.0765  0.1713
 1382TIP3    H225638   5.446   4.270   9.780 -0.9036 -0.0743 -1.2298
 1383TIP3   OH225639   1.496   0.845  11.601  0.0772  0.3216  0.4193
 1383TIP3    H125640   1.543   0.908  11.545  0.4876  0.5622  1.0251
 1383TIP3    H225641   1.408   0.842  11.564  1.0552 -1.6968 -2.0611
 1384TIP3   OH225642   0.518   6.422  13.144 -0.5681  0.1519 -0.2405
 1384TIP3    H125643   0.514   6.517  13.155 -1.4313  0.0142  0.6578
 1384TIP3    H225644   0.427   6.394  13.142 -0.3332 -0.9146  1.8352
 1385TIP3   OH225645   5.589   0.689  12.357  1.2514  0.1766 -0.3305
 1385TIP3    H125646   5.503   0.721  12.331  1.0386 -1.9277 -2.5460
 1385TIP3    H225647   5.587   0.689  12.453 -1.7282 -0.9588 -0.2880
 1386TIP3   OH225648   2.411   1.573  13.224 -0.3054  0.5715  0.2502
 1386TIP3    H125649   2.331   1.625  13.218 -0.2281  0.6324 -0.3175
 1386TIP3    H225650   2.480   1.633  13.195 -0.0091  0.6126  1.0155
 1387TIP3   OH225651   0.225   1.548  14.790  0.1179  0.2381 -0.1443
 1387TIP3    H125652   0.316   1.548  14.760  0.4065 -1.2694  0.6159
 1387TIP3    H225653   0.230   1.578  14.881 -0.0360 -0.4978  0.1153
 1388TIP3   OH225654   1.843   4.904  13.523  0.2854 -0.3273 -0.4451
 1388TIP3    H125655   1.793   4.984  13.536  0.6463 -0.4239  2.2605
 1388TIP3    H225656   1.787   4.835  13.558  0.4977 -1.0910 -1.5677
 1389TIP3   OH225657   6.388   6.803  13.067 -0.4604  0.2057  0.9822
 1389TIP3    H125658   6.356   6.714  13.054  0.9125 -0.0756 -0.9010
 1389TIP3    H225659   6.377   6.845  12.982  0.0551  1.4593  1.5101
 1390TIP3   OH225660   0.841   0.608  10.438  0.1464 -0.2982 -0.5426
 1390TIP3    H125661   0.898   0.673  10.478  2.5266 -1.3878 -1.9738
 1390TIP3    H225662   0.813   0.553  10.511  0.9666  0.2271  0.1884
 1391TIP3   OH225663   6.836   5.305  14.421 -0.2010 -0.1065  0.3261
 1391TIP3    H125664   6.911   5.363  14.412  0.7213 -1.3876 -0.6190
 1391TIP3    H225665   6.851   5.259  14.503 -0.0289 -0.2270  0.2297
 1392TIP3   OH225666   4.627   2.478   1.809 -0.3076 -0.2402  0.0453
 1392TIP3    H125667   4.667   2.550   1.857 -2.1754  0.4981  0.5758
 1392TIP3    H225668   4.679   2.470   1.730  0.1019  1.5421  0.0881
 1393TIP3   OH225669   4.130   6.960  10.768 -0.0994 -0.7717  0.8411
 1393TIP3    H125670   4.035   6.964  10.772 -0.0879 -0.6931  1.0571
 1393TIP3    H225671   4.156   7.034  10.713 -0.0493  0.4273  2.4097
 1394TIP3   OH225672   1.634   1.075  10.107 -0.4511 -0.0192  0.1639
 1394TIP3    H125673   1.714   1.023  10.101 -0.0173  0.2117  2.8115
 1394TIP3    H225674   1.628   1.119  10.022  1.8171 -0.6148 -0.3753
 1395TIP3   OH225675   7.060   1.473  12.459  0.1359  0.1450  0.5289
 1395TIP3    H125676   7.101   1.475  12.546 -0.0304 -2.7706  0.8025
 1395TIP3    H225677   7.129   1.501  12.400  0.9951 -0.0114  1.4203
 1396TIP3   OH225678   5.883   2.023  11.199  0.2024 -0.6777 -0.1549
 1396TIP3    H125679   5.821   2.095  11.213  0.7695 -0.2167  0.0365
 1396TIP3    H225680   5.968   2.061  11.220  0.2652 -2.1245  2.5507
 1397TIP3   OH225681   5.122   6.928  11.180 -0.1326  0.3214 -0.2931
 1397TIP3    H125682   5.095   6.901  11.268  0.3800 -2.0635 -0.7987
 1397TIP3    H225683   5.058   6.888  11.121  2.3358 -2.5781 -1.2691
 1398TIP3   OH225684   6.381   2.482  12.591 -0.0558 -0.2217  0.2901
 1398TIP3    H125685   6.291   2.493  12.622 -0.2464 -0.3874 -0.1838
 1398TIP3    H225686   6.390   2.549  12.522  0.6054  0.6539  1.2020
 1399TIP3   OH225687   6.914   2.182  13.336  0.4025 -0.3027  0.2451
 1399TIP3    H125688   6.854   2.254  13.356 -0.1834 -0.7274  0.0380
 1399TIP3    H225689   6.999   2.213  13.365 -0.1038 -0.1543  1.6318
 1400TIP3   OH225690   7.158   4.353  14.327  0.0850 -0.1695 -0.1204
 1400TIP3    H125691   7.249   4.329  14.313  0.3044 -0.3917  1.4610
 1400TIP3    H225692   7.108   4.273  14.309  0.3354 -0.4211  0.2923
 1401TIP3   OH225693   3.161   5.937  10.249 -0.6945 -0.0213 -0.0591
 1401TIP3    H125694   3.105   6.014  10.241  2.3522  2.4835  0.6246
 1401TIP3    H225695   3.138   5.899  10.334 -0.4198  1.8573  0.9167
 1402TIP3   OH225696   6.311   2.749  12.188 -0.0461  0.1175 -0.4572
 1402TIP3    H125697   6.347   2.835  12.165 -0.8438  0.8025  0.7500
 1402TIP3    H225698   6.225   2.747  12.148  0.6344 -0.8459 -1.9385
 1403TIP3   OH225699   1.156   6.301  11.305 -0.2536 -0.0402 -0.7424
 1403TIP3    H125700   1.068   6.323  11.336  0.8521  3.0545  0.5441
 1403TIP3    H225701   1.192   6.243  11.372 -0.2409  1.2629  0.4199
 1404TIP3   OH225702   1.785   6.336  10.928 -0.2312 -0.0497  0.8640
 1404TIP3    H125703   1.805   6.424  10.898  1.3711 -0.7963 -0.4092
 1404TIP3    H225704   1.707   6.346  10.982 -1.2856  1.8574 -0.8791
 1405TIP3   OH225705   1.288   4.343  10.519 -0.1828  0.1377 -0.2992
 1405TIP3    H125706   1.329   4.411  10.571  0.5281 -0.6918  0.2618
 1405TIP3    H225707   1.327   4.352  10.432  1.5141 -0.8446  0.3086
 1406TIP3   OH225708   4.303   5.745  12.371 -0.5195  0.0434  0.6152
 1406TIP3    H125709   4.360   5.672  12.395 -1.8108 -0.7013  1.5773
 1406TIP3    H225710   4.359   5.822  12.379  0.4037 -0.6700  1.3887
 1407TIP3   OH225711   4.474   1.100  11.834  0.2676 -0.2764 -0.1474
 1407TIP3    H125712   4.426   1.079  11.914  0.1602  0.8087  0.0952
 1407TIP3    H225713   4.435   1.046  11.767  1.8010 -2.8845  0.9243
 1408TIP3   OH225714   4.594   3.309  10.102  0.0036 -0.5592 -0.1908
 1408TIP3    H125715   4.629   3.398  10.090  0.0191 -0.5135  0.1763
 1408TIP3    H225716   4.597   3.295  10.197  0.5403 -1.1698 -0.2917
 1409TIP3   OH225717   4.812   4.029  14.439  0.5770  0.0952 -1.1449
 1409TIP3    H125718   4.759   3.986  14.372  0.3348 -1.7554  0.1497
 1409TIP3    H225719   4.883   3.966  14.457 -0.0079 -0.0204  1.1017
 1410TIP3   OH225720   4.498   6.955   1.556  0.5324 -0.0691 -0.3370
 1410TIP3    H125721   4.447   6.876   1.539 -0.1567  0.3408 -0.2198
 1410TIP3    H225722   4.442   7.027   1.526  1.5527  0.3274 -1.3805
 1411TIP3   OH225723   4.674   0.985  13.209  0.0329 -0.2231  0.7376
 1411TIP3    H125724   4.624   0.981  13.128  1.1632  2.5410 -0.2103
 1411TIP3    H225725   4.763   0.960  13.184  0.6268  1.6393  0.8056
 1412TIP3   OH225726   4.980   2.982  12.946  0.2463  0.0728 -0.0659
 1412TIP3    H125727   5.065   3.026  12.940 -0.0093  0.5240 -0.4247
 1412TIP3    H225728   5.002   2.890  12.961  0.9599 -0.5505 -3.8171
 1413TIP3   OH225729   6.793   2.598  10.525  0.5702  0.3255  0.3890
 1413TIP3    H125730   6.877   2.643  10.533  0.3491  0.7572  0.3098
 1413TIP3    H225731   6.760   2.590  10.615 -0.2825  2.0483  0.2655
 1414TIP3   OH225732   2.460   6.254  15.251 -0.8143 -0.2610  0.1426
 1414TIP3    H125733   2.397   6.324  15.268 -0.2490  0.0840  0.8629
 1414TIP3    H225734   2.437   6.222  15.164 -3.4463 -1.6687  1.2176
 1415TIP3   OH225735   0.181   5.592  10.143 -0.0265  0.6042  0.2348
 1415TIP3    H125736   0.222   5.607  10.058 -0.1881  0.9650  0.2147
 1415TIP3    H225737   0.227   5.517  10.180  0.6809  1.0302  0.2361
 1416TIP3   OH225738   0.092   5.853  15.367 -0.0919  0.1796  0.1771
 1416TIP3    H125739   0.136   5.836  15.283  0.1176  0.3830  0.2449
 1416TIP3    H225740   0.117   5.943  15.389  1.2183 -0.4165  1.2836
 1417TIP3   OH225741   6.571   1.720  14.780 -0.3538  0.2753 -0.4248
 1417TIP3    H125742   6.554   1.689  14.691 -1.8708  0.1047 -0.1031
 1417TIP3    H225743   6.608   1.808  14.767 -1.1699  0.5208 -1.2230
 1418TIP3   OH225744   2.780   5.552  10.623 -0.6280 -0.2288 -0.2710
 1418TIP3    H125745   2.734   5.627  10.584 -1.7667 -0.6720  0.1563
 1418TIP3    H225746   2.765   5.562  10.717 -3.8877 -2.7905 -0.3198
 1419TIP3   OH225747   3.994   0.636   4.230  0.1530  0.8700 -0.2739
 1419TIP3    H125748   4.008   0.566   4.167  1.4998  0.9922 -0.1375
 1419TIP3    H225749   3.909   0.617   4.269 -1.1154  1.2450 -2.6767
 1420TIP3   OH225750   4.488   3.154  10.641 -0.0555  0.1292 -0.4902
 1420TIP3    H125751   4.528   3.192  10.563  1.9216 -2.3548 -0.8356
 1420TIP3    H225752   4.423   3.093  10.607 -0.2420  0.1302 -0.1396
 1421TIP3   OH225753   6.872   6.243  10.559 -0.0285  0.2975 -0.7372
 1421TIP3    H125754   6.924   6.200  10.491  0.2349 -0.5414 -0.0206
 1421TIP3    H225755   6.783   6.209  10.545  0.4674 -1.8839  0.8659
 1422TIP3   OH225756   4.530   0.280  12.574  0.0891 -0.2629 -0.4960
 1422TIP3    H125757   4.622   0.304  12.587  0.3296 -1.4298  0.0471
 1422TIP3    H225758   4.531   0.185  12.562 -0.9487 -0.1735 -1.5241
 1423TIP3   OH225759   3.080   7.145  12.559 -0.0412  0.5119 -0.0373
 1423TIP3    H125760   3.135   7.070  12.580 -1.7901 -0.5354  1.1202
 1423TIP3    H225761   3.014   7.111  12.498 -0.5131  1.2405  0.0444
 1424TIP3   OH225762   3.680   0.984  15.404 -0.4727 -0.4392  0.3870
 1424TIP3    H125763   3.618   1.054  15.425 -1.3965 -1.4049  0.9618
 1424TIP3    H225764   3.677   0.978  15.308 -0.7578 -0.0208  0.3681
 1425TIP3   OH225765   6.569   4.504  13.405 -0.0780 -0.3996 -0.5672
 1425TIP3    H125766   6.590   4.422  13.448  2.7482  0.6483  0.2528
 1425TIP3    H225767   6.607   4.497  13.317 -0.4762 -0.2280 -0.7582
 1426TIP3   OH225768   5.511   2.107  11.157 -0.1914 -0.2268 -0.2598
 1426TIP3    H125769   5.545   2.035  11.210  0.1183  0.6337  0.7382
 1426TIP3    H225770   5.416   2.101  11.165 -0.1527 -0.2315  0.2310
 1427TIP3   OH225771   1.968   5.777  10.330  0.0243 -0.7424 -0.3137
 1427TIP3    H125772   2.019   5.766  10.250  0.6808  1.5964 -0.2966
 1427TIP3    H225773   1.889   5.824  10.302  1.6700  2.9949  0.6901
 1428TIP3   OH225774   0.696   3.355  10.038  0.8569  0.6764  0.6208
 1428TIP3    H125775   0.780   3.337   9.997 -0.2735 -2.2458 -0.6996
 1428TIP3    H225776   0.631   3.315   9.979 -1.6305  3.6889  1.0130
 1429TIP3   OH225777   1.551   4.993  10.860  0.2517  0.0251  0.3848
 1429TIP3    H125778   1.550   4.955  10.772 -0.6529 -0.9006  0.7723
 1429TIP3    H225779   1.602   4.932  10.912 -1.0310 -0.6017  0.9661
 1430TIP3   OH225780   6.229   2.355  13.658  0.2085  0.0043 -0.3308
 1430TIP3    H125781   6.181   2.393  13.732 -0.2459  1.5028 -1.3608
 1430TIP3    H225782   6.211   2.261  13.664 -3.6724  0.5418 -1.1943
 1431TIP3   OH225783   3.597   6.281  10.290  0.3325  0.6709  0.4895
 1431TIP3    H125784   3.620   6.303  10.200  0.6941  0.4929  0.5370
 1431TIP3    H225785   3.615   6.187  10.297 -1.0538  0.3671  0.3281
 1432TIP3   OH225786   0.576   2.992  12.829  0.7060  0.3624  0.7058
 1432TIP3    H125787   0.617   2.906  12.832  0.9432  0.4567  0.3583
 1432TIP3    H225788   0.545   3.000  12.739 -3.0618 -1.0514  1.7251
 1433TIP3   OH225789   4.694   7.020  10.645  0.4926 -0.8707 -0.4532
 1433TIP3    H125790   4.724   7.110  10.630  0.9423 -0.8495  0.4563
 1433TIP3    H225791   4.652   6.994  10.563  1.8192 -0.4068 -1.3175
 1434TIP3   OH225792   7.156   1.064  11.460 -0.4009  0.8930 -0.0332
 1434TIP3    H125793   7.075   1.115  11.464 -1.0137 -0.0260 -0.3314
 1434TIP3    H225794   7.198   1.091  11.379 -1.4718 -0.1435 -0.9645
 1435TIP3   OH225795   3.340   4.338  12.927  0.7784 -0.5403 -0.5965
 1435TIP3    H125796   3.328   4.336  13.022 -1.7676 -1.4104 -0.8581
 1435TIP3    H225797   3.297   4.418  12.899 -0.5495 -1.4271 -1.1927
 1436TIP3   OH225798   1.556   7.006  13.071  0.4183  0.3538 -0.8747
 1436TIP3    H125799   1.610   7.082  13.050  0.2946  0.4956 -0.6878
 1436TIP3    H225800   1.498   6.995  12.996 -0.4427  1.2284 -0.3668
 1437TIP3   OH225801   6.542   3.775   0.846  0.5295 -0.1290 -0.4029
 1437TIP3    H125802   6.630   3.739   0.856  0.4116 -1.6148 -3.5295
 1437TIP3    H225803   6.556   3.865   0.817  0.8765  0.8615  2.5200
 1438TIP3   OH225804   5.328   0.974   0.917  0.0360 -0.4514 -0.1276
 1438TIP3    H125805   5.397   0.961   0.852  0.7385 -2.1386  0.8717
 1438TIP3    H225806   5.252   0.929   0.881 -0.3380  0.7394 -0.8740
 1439TIP3   OH225807   3.807   5.292  12.100 -0.4850 -0.5305 -0.3437
 1439TIP3    H125808   3.813   5.382  12.133 -0.6233 -0.8531  0.6146
 1439TIP3    H225809   3.724   5.259  12.134  1.1353 -2.1771  2.4929
 1440TIP3   OH225810   6.581   6.479  12.842 -0.2560  0.0030  0.3204
 1440TIP3    H125811   6.582   6.412  12.774  1.5487 -1.3010  1.5227
 1440TIP3    H225812   6.524   6.443  12.910  1.3719 -0.7981  1.3355
 1441TIP3   OH225813   6.931   7.042   0.214  0.4261 -0.3523 -0.1946
 1441TIP3    H125814   6.852   7.000   0.180  0.4145 -1.2156  0.8406
 1441TIP3    H225815   7.003   6.993   0.174  0.5568  1.8043 -2.8835
 1442TIP3   OH225816   3.100   5.732  15.231 -0.0949 -0.5013  0.6378
 1442TIP3    H125817   3.046   5.787  15.174 -1.0982 -0.4821  1.5669
 1442TIP3    H225818   3.143   5.670  15.172 -0.6040 -0.0739 -0.1946
 1443TIP3   OH225819   0.633   6.680  13.121 -0.0579  0.0234  0.2270
 1443TIP3    H125820   0.699   6.610  13.121  0.5426  0.5820 -0.3498
 1443TIP3    H225821   0.643   6.722  13.036 -1.2408  0.0518  0.0803
 1444TIP3   OH225822   3.600   2.695   1.126  0.1992  0.2299  0.5565
 1444TIP3    H125823   3.670   2.674   1.065 -0.5001  0.0397 -0.2087
 1444TIP3    H225824   3.580   2.613   1.171 -0.2454  0.0229 -0.0006
 1445TIP3   OH225825   4.184   4.722  10.291  0.1951  0.8177 -0.6905
 1445TIP3    H125826   4.241   4.795  10.316  1.0093  0.2435 -0.8041
 1445TIP3    H225827   4.160   4.682  10.375 -0.2191  1.1874 -0.6305
 1446TIP3   OH225828   4.310   0.173  13.046  0.4450 -0.1709  0.1616
 1446TIP3    H125829   4.225   0.161  13.088  0.2079 -0.5361 -0.4195
 1446TIP3    H225830   4.295   0.237  12.977  0.4805 -0.7690 -0.4068
 1447TIP3   OH225831   0.512   6.009   0.325 -0.9365  0.0009  0.5301
 1447TIP3    H125832   0.560   6.081   0.367 -0.2584  0.1317 -0.4299
 1447TIP3    H225833   0.579   5.960   0.278 -1.6330 -0.2700 -0.2029
 1448TIP3   OH225834   6.177   6.381  11.516  0.3769  0.0271 -0.5397
 1448TIP3    H125835   6.203   6.328  11.591  0.6362 -0.4685 -0.9698
 1448TIP3    H225836   6.258   6.425  11.488 -0.1328  1.9695  0.8030
 1449TIP3   OH225837   2.419   4.859  12.027  0.0353 -0.0970  0.0201
 1449TIP3    H125838   2.365   4.921  12.076  1.2140  0.7602  0.2757
 1449TIP3    H225839   2.482   4.914  11.980  1.0925 -1.0913  0.2274
 1450TIP3   OH225840   3.246   0.480  10.189  0.1543 -0.2124 -0.5413
 1450TIP3    H125841   3.333   0.514  10.213  0.9430 -2.9032  0.8553
 1450TIP3    H225842   3.216   0.539  10.120  1.7263  2.6425  1.0168
 1451TIP3   OH225843   2.787   7.042   9.976 -0.0213  0.2351 -0.7138
 1451TIP3    H125844   2.877   7.054   9.945  0.7590 -0.6904  1.0236
 1451TIP3    H225845   2.732   7.059   9.899  1.7167 -0.6527 -2.2246
 1452TIP3   OH225846   4.566   5.214  12.229 -0.0934  0.5171 -0.7079
 1452TIP3    H125847   4.555   5.174  12.316 -0.1375  1.1405 -0.4208
 1452TIP3    H225848   4.649   5.261  12.235 -0.2446  0.8095 -0.9090
 1453TIP3   OH225849   6.096   6.761  12.037  0.5552 -0.2382 -0.3728
 1453TIP3    H125850   6.041   6.697  11.991  1.3981  0.7244 -2.9204
 1453TIP3    H225851   6.084   6.842  11.987  0.1616  1.4416  2.2663
 1454TIP3   OH225852   1.027   4.995  10.423 -0.3023  0.0324 -0.3860
 1454TIP3    H125853   0.944   5.014  10.379 -0.0425  0.2803 -0.7815
 1454TIP3    H225854   1.044   4.903  10.403 -0.2180  0.1268 -0.7539
 1455TIP3   OH225855   3.128   1.886  13.093  0.1579  0.3710 -0.0204
 1455TIP3    H125856   3.127   1.830  13.015 -1.1483  1.1563 -0.5989
 1455TIP3    H225857   3.113   1.826  13.166 -1.5355 -0.0351 -0.6549
 1456TIP3   OH225858   2.673   4.403  12.056  0.1471  0.5802  0.4446
 1456TIP3    H125859   2.713   4.476  12.009 -0.2400 -0.1967 -1.1609
 1456TIP3    H225860   2.591   4.439  12.090  0.4705  1.1738  0.6122
 1457TIP3   OH225861   4.112   2.758  11.848  0.4652  0.5917 -0.3263
 1457TIP3    H125862   4.020   2.746  11.824  0.3125 -0.8794  0.8320
 1457TIP3    H225863   4.161   2.712  11.780  0.2308 -0.2860  0.0861
 1458TIP3   OH225864   1.477   6.721  13.534  0.4893  0.0727 -0.0711
 1458TIP3    H125865   1.418   6.766  13.474  0.3484 -0.0012  0.0108
 1458TIP3    H225866   1.555   6.777  13.539  1.2012 -0.7367 -1.6141
 1459TIP3   OH225867   3.101   5.349  10.648  0.2519 -0.4621 -0.2952
 1459TIP3    H125868   3.146   5.268  10.625  4.4538  1.0382  1.6626
 1459TIP3    H225869   3.069   5.335  10.737 -0.6189 -0.5071 -0.6021
 1460TIP3   OH225870   1.316   6.827  14.569  0.1272 -0.5022 -0.9514
 1460TIP3    H125871   1.408   6.827  14.595  0.4842 -1.6025 -2.0956
 1460TIP3    H225872   1.287   6.737  14.584 -1.2622  0.1687  0.9121
 1461TIP3   OH225873   6.919   2.920  10.727  0.2102 -0.5580  0.7093
 1461TIP3    H125874   6.950   2.976  10.655 -1.8560 -0.7581 -0.4082
 1461TIP3    H225875   6.941   2.831  10.699  1.4571 -0.4982  1.4306
 1462TIP3   OH225876   3.750   3.929  12.963 -0.1911  0.1878  0.2210
 1462TIP3    H125877   3.697   3.994  13.009  0.3615  0.0282  1.1080
 1462TIP3    H225878   3.801   3.887  13.032  0.6324 -0.0877 -0.5384
 1463TIP3   OH225879   1.455   3.362   1.109 -0.0997  0.0553  0.2162
 1463TIP3    H125880   1.493   3.426   1.048  1.3774 -0.5805  0.4076
 1463TIP3    H225881   1.410   3.414   1.175 -4.5404  0.7561 -2.9770
 1464TIP3   OH225882   3.824   4.957  13.045 -0.0892 -0.4444  0.6142
 1464TIP3    H125883   3.880   5.022  13.087  2.2312 -1.4499 -0.7670
 1464TIP3    H225884   3.795   4.999  12.963  1.1427 -0.9806 -0.1197
 1465TIP3   OH225885   5.406   6.412   9.837 -0.1456  0.4377  0.2916
 1465TIP3    H125886   5.311   6.415   9.833 -0.1770  0.8570  1.1617
 1465TIP3    H225887   5.428   6.322   9.814 -0.8224  0.0248  1.2143
 1466TIP3   OH225888   4.535   6.214  12.244  0.1352  0.2368 -0.1691
 1466TIP3    H125889   4.469   6.238  12.308 -1.7257 -0.3582 -1.7605
 1466TIP3    H225890   4.508   6.128  12.212  2.2924 -0.5216 -0.1452
 1467TIP3   OH225891   2.072   1.200  10.183  0.1936  0.1986  0.4118
 1467TIP3    H125892   2.041   1.166  10.099 -1.4883 -0.4543  1.2437
 1467TIP3    H225893   2.126   1.129  10.219  1.0151  0.5268 -0.1465
 1468TIP3   OH225894   7.049   4.266  12.330  0.1232 -0.1739 -0.0412
 1468TIP3    H125895   7.025   4.359  12.331  2.0595  0.4321 -1.8995
 1468TIP3    H225896   7.116   4.258  12.397 -0.8953 -0.5412  0.9649
 1469TIP3   OH225897   0.001   1.703  10.928  0.1838 -0.0919 -0.1113
 1469TIP3    H125898   0.078   1.678  10.876  0.1128 -1.5697  0.4582
 1469TIP3    H225899  -0.071   1.656  10.887 -0.3257  0.7900 -0.2458
 1470TIP3   OH225900   6.213   0.659  14.842  0.0182 -0.3644  0.1718
 1470TIP3    H125901   6.162   0.641  14.763 -3.1304  1.2973  1.6162
 1470TIP3    H225902   6.238   0.751  14.834  0.8504 -0.5485  0.5379
 1471TIP3   OH225903   0.173   6.329  10.746  0.7600  0.0426  0.0303
 1471TIP3    H125904   0.261   6.361  10.764  0.6913 -0.5976  1.7008
 1471TIP3    H225905   0.167   6.246  10.793 -0.3023 -0.5929 -1.1511
 1472TIP3   OH225906   4.261   0.483  12.501 -0.1520 -0.0204 -0.0410
 1472TIP3    H125907   4.333   0.538  12.470  2.3779 -3.6162 -1.1716
 1472TIP3    H225908   4.283   0.465  12.592 -0.3207 -0.1436 -0.0250
 1473TIP3   OH225909   0.336   0.831  14.033 -0.0152 -0.1405 -0.4169
 1473TIP3    H125910   0.257   0.875  14.064 -0.4468  0.2222 -1.9398
 1473TIP3    H225911   0.400   0.844  14.103 -0.7852  1.0863  0.0908
 1474TIP3   OH225912   3.781   4.548  15.088  0.4445  0.1971 -0.2103
 1474TIP3    H125913   3.791   4.512  15.176  0.7239  1.0394  0.1103
 1474TIP3    H225914   3.866   4.588  15.069  0.4420 -0.1312 -0.9369
 1475TIP3   OH225915   5.571   4.387  11.886 -0.1992  0.0109 -0.6122
 1475TIP3    H125916   5.505   4.337  11.934 -0.0476 -0.8823 -1.3172
 1475TIP3    H225917   5.526   4.469  11.864 -0.2829  0.4354  0.9889
 1476TIP3   OH225918   0.529   0.093  12.498 -0.0680  0.0341 -0.0031
 1476TIP3    H125919   0.483   0.044  12.566 -0.3502 -0.3389 -0.4588
 1476TIP3    H225920   0.484   0.178  12.495  0.7028  0.4987  1.0911
 1477TIP3   OH225921   2.016   6.421  11.182 -0.2657  0.6013  0.6630
 1477TIP3    H125922   2.035   6.332  11.155 -0.9684  0.9464 -1.0574
 1477TIP3    H225923   1.949   6.412  11.250 -1.3624 -0.1376 -0.4793
 1478TIP3   OH225924   4.211   0.911  10.756 -0.0401  0.2721  0.5389
 1478TIP3    H125925   4.170   0.860  10.826  0.9952 -3.0564 -1.0678
 1478TIP3    H225926   4.153   0.900  10.680  1.6563 -1.0968 -0.6401
 1479TIP3   OH225927   6.694   4.972  11.678  0.2169  0.3517 -0.1327
 1479TIP3    H125928   6.784   4.964  11.709 -0.2610 -0.5679  1.0997
 1479TIP3    H225929   6.700   4.954  11.584  1.4085  1.0483 -0.2128
 1480TIP3   OH225930   0.257   3.660  10.255  0.2587  0.7852  0.2933
 1480TIP3    H125931   0.338   3.622  10.221 -0.3824 -0.6686  0.3079
 1480TIP3    H225932   0.192   3.591  10.244 -0.7233  1.5035  1.3592
 1481TIP3   OH225933   4.001   6.890  12.363  0.0199 -0.2311 -0.0900
 1481TIP3    H125934   3.936   6.908  12.431 -1.0126  0.5057 -1.2495
 1481TIP3    H225935   4.076   6.945  12.388  0.1774 -0.9679  1.1631
 1482TIP3   OH225936   2.941   5.046  11.768 -0.7090 -0.1794 -0.2261
 1482TIP3    H125937   2.947   5.012  11.858  1.8606  0.1235 -0.2050
 1482TIP3    H225938   2.857   5.016  11.737 -2.1474  0.5202  2.6163
 1483TIP3   OH225939   5.443   4.255  12.340 -0.0543 -0.6029 -0.1628
 1483TIP3    H125940   5.487   4.186  12.290  1.7286 -1.0156  1.8015
 1483TIP3    H225941   5.477   4.336  12.301 -0.6594 -0.8357 -1.2261
 1484TIP3   OH225942   5.102   1.343  10.270 -0.2451 -0.0781  0.0731
 1484TIP3    H125943   5.144   1.421  10.308 -0.3687  0.0305 -0.0099
 1484TIP3    H225944   5.062   1.299  10.345  0.9536 -0.7803  0.3219
 1485TIP3   OH225945   3.542   3.934  10.009 -0.0164 -0.5523  0.3017
 1485TIP3    H125946   3.507   3.858  10.054 -1.9991 -0.2576 -0.6358
 1485TIP3    H225947   3.608   3.899   9.949 -0.8596 -1.5396 -0.0746
 1486TIP3   OH225948   4.813   0.697  14.468 -0.5958  0.5294 -0.1776
 1486TIP3    H125949   4.783   0.737  14.386  1.7510  1.9560 -0.4178
 1486TIP3    H225950   4.908   0.695  14.461 -0.3071  0.7744  2.5291
 1487TIP3   OH225951   7.182   6.769  14.243 -0.3777  0.3886  1.0618
 1487TIP3    H125952   7.095   6.766  14.204  0.4501  1.0079 -0.9492
 1487TIP3    H225953   7.172   6.824  14.321 -1.8554  0.0872  1.1030
 1488TIP3   OH225954   5.256   3.351  13.718  0.0288 -0.4785  0.0867
 1488TIP3    H125955   5.271   3.445  13.725 -0.5647 -0.5078  2.1423
 1488TIP3    H225956   5.240   3.321  13.807 -0.2022 -2.4773 -0.5589
 1489TIP3   OH225957   2.610   2.904   5.735  0.2238  0.1017  0.4866
 1489TIP3    H125958   2.689   2.884   5.786  0.3775 -0.1325  0.1589
 1489TIP3    H225959   2.543   2.849   5.774  0.3063  0.0350  0.5362
 1490TIP3   OH225960   3.385   0.337  11.810  0.1863 -0.0844  0.1345
 1490TIP3    H125961   3.418   0.346  11.899  0.7576 -0.8781  0.0113
 1490TIP3    H225962   3.292   0.318  11.821  0.1521  0.2920  0.5382
 1491TIP3   OH225963   0.561   2.190  10.633  0.4525  0.2125 -0.3948
 1491TIP3    H125964   0.652   2.212  10.615  0.7649  0.2436  1.1339
 1491TIP3    H225965   0.513   2.229  10.560  1.4561  2.0018 -0.1567
 1492TIP3   OH225966   1.723   6.585  13.312  0.0075 -0.3358 -0.0700
 1492TIP3    H125967   1.667   6.650  13.269 -0.2922 -0.6651 -0.1910
 1492TIP3    H225968   1.665   6.509  13.324  0.0701 -0.2209  0.9838
 1493TIP3   OH225969   0.885   3.819  12.957  0.4585 -0.0822  0.5438
 1493TIP3    H125970   0.920   3.746  12.905  1.3428 -0.7480  2.0159
 1493TIP3    H225971   0.941   3.822  13.035 -0.2876  1.4504  1.0570
 1494TIP3   OH225972   5.055   0.925  11.311 -0.1710  0.1612  0.3430
 1494TIP3    H125973   5.054   0.926  11.407  0.1150  0.1108  0.3466
 1494TIP3    H225974   5.147   0.938  11.288 -0.5066  2.7218  0.0514
 1495TIP3   OH225975   3.644   2.889  10.011  0.6858  0.3213 -0.8719
 1495TIP3    H125976   3.614   2.814  10.062 -1.4973  1.3313 -0.5498
 1495TIP3    H225977   3.683   2.948  10.075 -0.7866  0.9620 -0.5054
 1496TIP3   OH225978   3.492   3.062  10.475  0.4504  0.1954  0.0870
 1496TIP3    H125979   3.477   3.153  10.448  1.5936  0.0640 -1.1026
 1496TIP3    H225980   3.407   3.032  10.507 -0.8380  0.7157 -2.5063
 1497TIP3   OH225981   1.813   1.129  12.390 -0.0045  0.1871  0.4416
 1497TIP3    H125982   1.815   1.059  12.456 -2.4060 -0.1201  0.2733
 1497TIP3    H225983   1.723   1.160  12.391  0.4710  1.7568 -1.1085
 1498TIP3   OH225984   1.125   5.294   1.004  0.4078 -0.9076 -0.1823
 1498TIP3    H125985   1.137   5.293   1.099 -0.4118 -0.9669 -0.0683
 1498TIP3    H225986   1.212   5.280   0.968  1.2554  1.8966  0.5322
 1499TIP3   OH225987   6.119   4.625  13.983 -0.2337 -0.0739  0.1254
 1499TIP3    H125988   6.170   4.671  13.917  0.1137  1.8510  1.6700
 1499TIP3    H225989   6.181   4.566  14.025  0.3529  1.1126  0.9409
 1500TIP3   OH225990   1.132   3.517   9.469  0.4398 -0.5210 -0.3691
 1500TIP3    H125991   1.147   3.611   9.460  1.0686 -0.3877  1.5371
 1500TIP3    H225992   1.199   3.488   9.531 -0.4721 -2.0006 -0.0255
 1501TIP3   OH225993   2.754   7.036  12.598 -0.3354  0.0506  0.3839
 1501TIP3    H125994   2.699   7.114  12.601 -0.6065  0.0693 -2.6510
 1501TIP3    H225995   2.804   7.044  12.518  1.1076 -1.9701  0.9947
 1502TIP3   OH225996   4.825   0.956  13.786  0.4383 -0.1580 -0.5068
 1502TIP3    H125997   4.821   0.988  13.696 -0.7461  1.2213 -0.0015
 1502TIP3    H225998   4.915   0.927  13.797  1.3939  2.3285 -1.2740
 1503TIP3   OH225999   1.758   1.911  10.819 -0.2879 -0.4903 -0.7690
 1503TIP3    H126000   1.802   1.911  10.734  0.7677 -1.2479 -0.2523
 1503TIP3    H226001   1.749   2.003  10.842 -0.6382 -0.2763 -1.7179
 1504TIP3   OH226002   1.943   3.840  12.643  0.1094 -0.3323 -0.6394
 1504TIP3    H126003   1.974   3.772  12.703  1.3875  1.5033  0.9038
 1504TIP3    H226004   1.848   3.841  12.656  0.1857 -1.1003  0.0955
 1505TIP3   OH226005   7.151   1.216  15.177  0.6278  0.3168 -0.3974
 1505TIP3    H126006   7.195   1.177  15.101  0.3468  0.2813 -0.5438
 1505TIP3    H226007   7.153   1.146  15.243  3.0872  1.1408  0.5325
 1506TIP3   OH226008   4.026   1.505  11.863 -0.8249  0.6878  0.2062
 1506TIP3    H126009   4.046   1.446  11.791  1.1100  0.7822  0.6093
 1506TIP3    H226010   3.935   1.533  11.847 -1.8662 -2.3984  0.0376
 1507TIP3   OH226011   6.205   3.104  13.921  0.1562 -0.2556  0.3993
 1507TIP3    H126012   6.272   3.152  13.970  1.5736 -1.4343 -0.3303
 1507TIP3    H226013   6.183   3.162  13.849  2.2740 -0.8522 -0.8031
 1508TIP3   OH226014   0.849   3.958  13.323 -0.2393 -0.3205 -0.0613
 1508TIP3    H126015   0.913   4.015  13.366 -0.0983 -0.0885 -0.5669
 1508TIP3    H226016   0.767   3.974  13.370  0.4125 -1.9149  1.7427
 1509TIP3   OH226017   6.351   4.105  13.341 -0.0552 -0.4303  0.4366
 1509TIP3    H126018   6.274   4.059  13.375  0.2160 -1.3729 -0.1896
 1509TIP3    H226019   6.403   4.036  13.299 -0.4520  0.6969 -2.0423
 1510TIP3   OH226020   4.285   2.166  10.528 -0.2036 -0.4420 -0.7917
 1510TIP3    H126021   4.299   2.242  10.585  0.2051 -1.2860  0.2586
 1510TIP3    H226022   4.291   2.202  10.440  0.2247  0.7068 -0.3221
 1511TIP3   OH226023   6.338   0.323   9.875 -0.0209  0.0595  0.9142
 1511TIP3    H126024   6.271   0.296   9.937 -2.3217  0.3431 -1.3050
 1511TIP3    H226025   6.390   0.244   9.860 -1.2088 -0.7863  1.0850
 1512TIP3   OH226026   4.479   4.483  13.078  0.0138  0.1104  0.1838
 1512TIP3    H126027   4.451   4.412  13.020  1.4252 -1.4585  1.2996
 1512TIP3    H226028   4.406   4.544  13.080 -0.1943  0.1264 -3.0233
 1513TIP3   OH226029   4.862   3.320   9.508  0.2928  0.3840  0.3252
 1513TIP3    H126030   4.826   3.234   9.484 -1.3842  0.4920  2.1899
 1513TIP3    H226031   4.954   3.302   9.531  0.0139 -0.8898  0.5253
 1514TIP3   OH226032   4.063   3.898  12.016 -0.2302  0.1521 -0.0114
 1514TIP3    H126033   4.051   3.840  12.091 -1.4259  0.8331  0.3590
 1514TIP3    H226034   4.092   3.841  11.945  2.4692 -0.3111  1.2996
 1515TIP3   OH226035   3.462   5.903  11.978 -0.0449 -0.3608  0.4204
 1515TIP3    H126036   3.539   5.955  11.954 -0.7309  1.7177  2.3795
 1515TIP3    H226037   3.404   5.911  11.902  0.8444 -0.2971 -0.2756
 1516TIP3   OH226038   1.589   3.534  13.814  0.1254 -0.0414  0.2030
 1516TIP3    H126039   1.537   3.557  13.891  0.4143 -0.2559  0.4660
 1516TIP3    H226040   1.541   3.571  13.741 -1.2690 -1.6339  0.2651
 1517TIP3   OH226041   1.578   2.762  12.291 -0.3485 -0.7499  0.1620
 1517TIP3    H126042   1.501   2.712  12.264 -0.0073 -1.3921  0.3783
 1517TIP3    H226043   1.549   2.853  12.287 -1.7025 -1.0472  1.9833
 1518TIP3   OH226044   5.193   2.540  10.135 -0.1938  1.1480  0.0295
 1518TIP3    H126045   5.189   2.533  10.230 -2.8635  0.5520 -0.0451
 1518TIP3    H226046   5.111   2.500  10.105  1.0424  0.3693 -2.5883
 1519TIP3   OH226047   1.432   1.614  15.317  0.4247 -0.0567  0.1963
 1519TIP3    H126048   1.527   1.622  15.314  0.5772 -0.5060  2.2619
 1519TIP3    H226049   1.400   1.702  15.337  0.5764 -0.2716  1.4731
 1520TIP3   OH226050   0.484   2.563  12.230 -0.0761 -0.3227 -0.0300
 1520TIP3    H126051   0.444   2.495  12.176 -0.9857  1.1862 -1.3542
 1520TIP3    H226052   0.417   2.586  12.294  0.0060 -0.2775  0.0395
 1521TIP3   OH226053   6.504   5.622  11.556  0.4231 -0.3740 -0.2588
 1521TIP3    H126054   6.430   5.683  11.550 -1.9938 -2.9345  1.1119
 1521TIP3    H226055   6.543   5.622  11.469 -2.2222 -0.0933 -1.5286
 1522TIP3   OH226056   6.640   5.763  10.774  0.1990 -0.2401 -0.0405
 1522TIP3    H126057   6.654   5.683  10.724  0.5647 -0.2161  0.0225
 1522TIP3    H226058   6.713   5.820  10.749  0.2686 -0.1493  0.3567
 1523TIP3   OH226059   4.312   2.346  11.316 -0.0921 -0.0976  0.0715
 1523TIP3    H126060   4.315   2.270  11.374  1.0924  0.5221  0.8644
 1523TIP3    H226061   4.226   2.340  11.274 -1.2454 -0.2927  2.2845
 1524TIP3   OH226062   4.630   5.624   1.204  0.2443  0.1013 -0.0082
 1524TIP3    H126063   4.600   5.535   1.187  0.6913  0.1545 -1.1417
 1524TIP3    H226064   4.653   5.659   1.118  0.4445  1.1803  0.4642
 1525TIP3   OH226065   6.123   0.304  10.077  0.2445  0.0809  0.1696
 1525TIP3    H126066   6.076   0.288  10.159  0.0273  0.0076  0.0305
 1525TIP3    H226067   6.063   0.275  10.009  0.0327  1.0560 -0.0625
 1526TIP3   OH226068   4.684   5.292  13.249  0.2192  0.1600 -0.1106
 1526TIP3    H126069   4.651   5.292  13.338 -0.5574  2.6708 -0.3217
 1526TIP3    H226070   4.772   5.256  13.255  0.1138  0.1481  1.6489
 1527TIP3   OH226071   3.582   4.154   9.486 -0.4247 -0.1826 -0.0460
 1527TIP3    H126072   3.546   4.106   9.411 -0.6777  2.6001 -1.8544
 1527TIP3    H226073   3.664   4.109   9.506 -1.8233 -2.8800  0.1128
 1528TIP3   OH226074   5.338   2.490  10.979  0.1655 -0.2774  0.2701
 1528TIP3    H126075   5.313   2.425  10.914  0.7976  1.4681 -1.8412
 1528TIP3    H226076   5.255   2.532  11.004  0.1462  0.8399 -1.4974
 1529TIP3   OH226077   0.002   4.449   3.376 -0.1335  0.4931  0.0061
 1529TIP3    H126078  -0.063   4.446   3.446 -2.1075  1.2349 -1.6970
 1529TIP3    H226079   0.000   4.540   3.345 -1.3844 -0.3882 -2.7800
 1530TIP3   OH226080   5.406   5.392  11.564  0.0502  0.2290  0.0751
 1530TIP3    H126081   5.417   5.362  11.473 -1.3691  2.3741 -0.8826
 1530TIP3    H226082   5.320   5.433  11.565 -0.1581 -0.1614  2.5567
 1531TIP3   OH226083   0.025   6.053   0.321  0.4679  0.4294 -0.2461
 1531TIP3    H126084   0.034   6.020   0.410 -0.9377  2.7587  0.8573
 1531TIP3    H226085  -0.031   5.989   0.277  2.2163 -1.4233  0.0808
 1532TIP3   OH226086   3.238   0.949  13.134 -0.0912 -0.0154 -0.0144
 1532TIP3    H126087   3.303   1.007  13.174 -0.6783  0.1781  0.6812
 1532TIP3    H226088   3.155   0.997  13.141 -0.2561 -0.0580 -1.3088
 1533TIP3   OH226089   4.391   6.019  11.492 -0.1158 -0.1519 -0.0896
 1533TIP3    H126090   4.302   6.050  11.512  0.4709  1.0518  0.7780
 1533TIP3    H226091   4.446   6.097  11.501  1.1493 -1.0396  0.1178
 1534TIP3   OH226092   4.177   0.793  11.756 -0.2222 -0.4270 -0.0435
 1534TIP3    H126093   4.223   0.859  11.704 -0.6837  0.0308  0.1234
 1534TIP3    H226094   4.099   0.771  11.704 -0.9107  0.3443  0.6281
 1535TIP3   OH226095   6.523   6.957  11.524 -0.7241  0.8129  0.6598
 1535TIP3    H126096   6.617   6.968  11.513 -0.8980  2.1986  0.3274
 1535TIP3    H226097   6.512   6.914  11.609  0.1787  1.2473  1.0013
 1536TIP3   OH226098   5.837   3.400   0.402 -0.6770  0.0430  0.4481
 1536TIP3    H126099   5.879   3.385   0.487 -2.1832 -1.2229  1.0111
 1536TIP3    H226100   5.900   3.453   0.353  1.4264 -1.5040  1.3532
 1537TIP3   OH226101   6.699   0.482  11.998  0.2987 -0.4622 -0.1950
 1537TIP3    H126102   6.713   0.388  11.984  1.6991 -0.1088 -1.5188
 1537TIP3    H226103   6.608   0.489  12.025  0.4613 -2.2981  1.0152
 1538TIP3   OH226104   1.430   5.022  13.018 -0.3133  0.0214 -0.1007
 1538TIP3    H126105   1.439   5.117  13.009  0.1651 -0.0296 -0.1861
 1538TIP3    H226106   1.348   5.010  13.067  0.5023  0.5403  1.4369
 1539TIP3   OH226107   3.594   0.532  12.501 -0.3755 -0.0115 -0.3198
 1539TIP3    H126108   3.680   0.508  12.535  0.6517  1.5097 -1.6617
 1539TIP3    H226109   3.575   0.466  12.435 -0.4987 -0.6607  0.3558
 1540TIP3   OH226110   2.304   3.327  10.374 -0.4792  0.2011 -0.2393
 1540TIP3    H126111   2.347   3.350  10.457 -2.1153  0.1792  0.6690
 1540TIP3    H226112   2.345   3.245  10.348 -0.5180 -0.2466  1.0154
 1541TIP3   OH226113   4.226   5.433   1.042 -0.4571  0.1354  0.4547
 1541TIP3    H126114   4.196   5.346   1.067 -0.0098 -0.1478  0.0234
 1541TIP3    H226115   4.148   5.476   1.006 -0.3295 -0.6518 -0.8045
 1542TIP3   OH226116   6.544   3.241   0.637 -0.4619 -0.7407  0.0832
 1542TIP3    H126117   6.468   3.274   0.686  1.0900 -0.6523  2.6109
 1542TIP3    H226118   6.608   3.312   0.642  0.3230 -1.3690 -0.7456
 1543TIP3   OH226119   1.792   0.866  10.838  0.3828 -0.0557  0.1426
 1543TIP3    H126120   1.755   0.781  10.861  0.4716 -0.2936 -0.5791
 1543TIP3    H226121   1.873   0.845  10.791  0.3110  0.4216 -0.2027
 1544TIP3   OH226122   0.614   0.001  13.195  0.1857 -0.1783 -0.3029
 1544TIP3    H126123   0.639  -0.010  13.287 -2.0271 -0.4842  0.3053
 1544TIP3    H226124   0.630  -0.084  13.155 -0.8784 -0.6896  0.3334
 1545TIP3   OH226125   5.504   7.038  10.555  0.2937 -0.1000  0.3872
 1545TIP3    H126126   5.411   7.014  10.552 -0.2040  1.7114  0.2465
 1545TIP3    H226127   5.517   7.068  10.645  1.2096 -1.9063  0.9146
 1546TIP3   OH226128   7.218   7.087  15.339 -0.5621 -0.2206 -0.6715
 1546TIP3    H126129   7.275   7.151  15.297 -0.8859  1.6439  1.5220
 1546TIP3    H226130   7.129   7.120  15.324 -0.7545 -0.3186  0.1809
 1547TIP3   OH226131   2.771   3.657  10.125  0.5182  0.0689  0.2908
 1547TIP3    H126132   2.687   3.660  10.170 -0.1003  0.2464 -0.8581
 1547TIP3    H226133   2.796   3.565  10.126  0.9707  0.1681  1.7771
 1548TIP3   OH226134   1.124   4.695  10.034 -0.5354 -0.0522 -0.0190
 1548TIP3    H126135   1.177   4.768  10.002 -0.1812 -0.6430 -0.8234
 1548TIP3    H226136   1.181   4.619  10.028 -0.5858 -0.2697  1.6964
 1549TIP3   OH226137   1.665   5.036   9.801  0.2703 -0.0875 -0.0927
 1549TIP3    H126138   1.744   5.046   9.749  0.0732  1.0215 -0.2004
 1549TIP3    H226139   1.672   5.104   9.868 -0.4733 -0.1387  0.0419
 1550TIP3   OH226140   0.171   2.937  11.367  0.3688  0.4153 -0.3236
 1550TIP3    H126141   0.170   2.961  11.274 -0.4715 -0.2334 -0.4996
 1550TIP3    H226142   0.095   2.983  11.403 -0.1728 -0.5015 -0.2780
 1551TIP3   OH226143   5.765   6.245  11.072  0.4337 -0.3381  0.0559
 1551TIP3    H126144   5.757   6.306  10.999 -0.6108 -0.4027  0.1000
 1551TIP3    H226145   5.761   6.300  11.150  0.2599 -0.3897  0.0841
 1552TIP3   OH226146   6.851   5.325  10.619 -0.1556  0.5776  0.0119
 1552TIP3    H126147   6.828   5.315  10.711 -2.9195  3.1718 -0.2637
 1552TIP3    H226148   6.936   5.368  10.620 -0.2195  0.7133  1.3367
 1553TIP3   OH226149   6.900   1.193  10.909  0.3824 -0.6403  0.2941
 1553TIP3    H126150   6.887   1.283  10.878  1.5732  0.3530  2.4839
 1553TIP3    H226151   6.874   1.139  10.834 -2.6232  1.4003 -0.3697
 1554TIP3   OH226152   2.596   1.813  11.882  0.5517  0.1305  0.4828
 1554TIP3    H126153   2.565   1.873  11.950  2.4965  0.5535  1.0649
 1554TIP3    H226154   2.678   1.777  11.917  0.8250 -0.7942 -1.0087
 1555TIP3   OH226155   6.130   1.796   9.782 -0.0700  0.1670 -0.1842
 1555TIP3    H126156   6.176   1.812   9.864  0.6020 -0.5974 -0.3941
 1555TIP3    H226157   6.198   1.766   9.722 -0.9663 -2.2268 -0.1521
 1556TIP3   OH226158   4.258   3.851  13.653 -0.4059 -0.1270  0.4452
 1556TIP3    H126159   4.343   3.822  13.685  0.7662 -1.1068 -3.1111
 1556TIP3    H226160   4.262   3.947  13.659  2.0718  0.0560 -1.7980
 1557TIP3   OH226161   5.741   1.209  14.584 -0.2107 -0.1412 -0.4902
 1557TIP3    H126162   5.652   1.194  14.554 -0.6037  1.5308 -0.2762
 1557TIP3    H226163   5.796   1.194  14.507 -0.8284  0.2575 -1.0148
 1558TIP3   OH226164   5.638   5.354  10.118 -0.1436 -0.5101 -0.2575
 1558TIP3    H126165   5.725   5.322  10.095  0.2982 -0.1400  0.8335
 1558TIP3    H226166   5.614   5.412  10.046 -0.0110 -1.5313 -1.1516
 1559TIP3   OH226167   6.128   6.121  14.744  0.2681 -0.2174 -0.2818
 1559TIP3    H126168   6.083   6.167  14.673 -0.9873  2.1584  1.8914
 1559TIP3    H226169   6.216   6.160  14.746  0.8167 -1.3080 -1.3407
 1560TIP3   OH226170   5.648   5.912   9.768 -0.3401 -0.1211 -0.1341
 1560TIP3    H126171   5.669   5.875   9.682 -1.8002  0.2278 -0.6548
 1560TIP3    H226172   5.708   5.866   9.828 -0.9488 -2.1510 -0.9821
 1561TIP3   OH226173   2.693   4.684  10.610  0.2591  0.0002 -0.4039
 1561TIP3    H126174   2.785   4.679  10.585 -0.0986 -0.9544 -1.6082
 1561TIP3    H226175   2.691   4.749  10.681  2.0474 -0.9137  0.5676
 1562TIP3   OH226176   2.858   1.845  14.070  0.5424  0.1605  0.1043
 1562TIP3    H126177   2.783   1.886  14.029  0.3255  0.8837  1.1768
 1562TIP3    H226178   2.821   1.786  14.136  0.8760 -1.0219 -0.7456
 1563TIP3   OH226179   0.852   1.786   9.982  0.0652  0.3326  0.4693
 1563TIP3    H126180   0.895   1.871   9.983 -1.2368  1.0101  0.6202
 1563TIP3    H226181   0.786   1.792   9.913  1.0683 -1.1495 -0.6966
 1564TIP3   OH226182   5.339   4.426  10.400  0.1849 -0.3066  0.6839
 1564TIP3    H126183   5.429   4.455  10.391  0.1175  0.1571  1.4139
 1564TIP3    H226184   5.286   4.499  10.369  0.0491 -0.2376  1.0634
 1565TIP3   OH226185   3.800   6.505   2.927  0.0256  0.4952 -0.5848
 1565TIP3    H126186   3.788   6.591   2.967 -0.5158  1.0207 -1.8005
 1565TIP3    H226187   3.895   6.493   2.925  0.1079 -0.9087  3.4755
 1566TIP3   OH226188   5.263   5.126  11.371  0.1140  0.0419  0.0435
 1566TIP3    H126189   5.248   5.061  11.440 -1.1066  1.2297  0.9433
 1566TIP3    H226190   5.184   5.120  11.316  0.3212  0.2660 -0.2792
 1567TIP3   OH226191   1.663   0.180   1.466  0.1950  0.3381 -0.2797
 1567TIP3    H126192   1.650   0.166   1.372 -0.5194 -0.1623 -0.1173
 1567TIP3    H226193   1.753   0.152   1.482  0.5303  1.0002 -0.9175
 1568TIP3   OH226194   3.962   4.052  11.128 -0.0485 -0.4255  0.3961
 1568TIP3    H126195   3.977   3.989  11.057 -0.6156 -0.8377  0.6279
 1568TIP3    H226196   3.945   3.997  11.204 -0.8421  0.0059  0.5405
 1569TIP3   OH226197   4.123   2.494   9.459  0.3927  0.1853  0.4638
 1569TIP3    H126198   4.213   2.488   9.493  0.1056  0.0594  1.2295
 1569TIP3    H226199   4.108   2.410   9.415  0.7501  0.3227  0.0787
 1570TIP3   OH226200   6.067   4.427  11.053 -0.2393  0.1966 -0.0390
 1570TIP3    H126201   6.080   4.481  10.975 -1.0805 -0.6954 -0.8286
 1570TIP3    H226202   5.981   4.388  11.040 -0.4429  0.1363  1.4170
 1571TIP3   OH226203   2.806   2.142  12.728  0.1219  0.1253  0.3952
 1571TIP3    H126204   2.864   2.117  12.656 -1.5722 -1.7898 -0.4113
 1571TIP3    H226205   2.831   2.085  12.800 -0.9032 -0.9636 -0.0673
 1572TIP3   OH226206   0.264   4.520  13.470 -0.3170 -0.2817  0.0611
 1572TIP3    H126207   0.180   4.511  13.426 -0.9459 -2.5783  1.5367
 1572TIP3    H226208   0.317   4.448  13.437  0.4112  0.0302  0.5123
 1573TIP3   OH226209   1.744   7.082  12.771 -0.2295 -0.0962  0.4328
 1573TIP3    H126210   1.815   7.024  12.744 -0.7646 -0.2420 -0.7424
 1573TIP3    H226211   1.665   7.042  12.735 -0.8741  0.2326  1.4497
 1574TIP3   OH226212   5.744   6.800  11.438 -1.0968  0.0666  0.1476
 1574TIP3    H126213   5.651   6.779  11.450 -1.1921  1.4179  2.4264
 1574TIP3    H226214   5.747   6.853  11.359 -2.2099 -0.2797 -0.1439
 1575TIP3   OH226215   2.723   3.764   2.601 -0.0543  0.1139 -0.5738
 1575TIP3    H126216   2.742   3.697   2.535 -1.3884 -1.9657  1.0195
 1575TIP3    H226217   2.758   3.727   2.683 -2.7002  0.3053  0.7503
 1576TIP3   OH226218   2.573   0.941  10.859 -0.3414 -0.0823 -0.3816
 1576TIP3    H126219   2.543   0.946  10.950 -0.6876 -1.7050 -0.3748
 1576TIP3    H226220   2.570   0.848  10.838  1.3976  0.0679 -1.5199
 1577TIP3   OH226221   2.476   2.105  10.439 -0.5871  0.7566  0.0364
 1577TIP3    H126222   2.524   2.180  10.476 -0.3139  0.2367  0.7527
 1577TIP3    H226223   2.460   2.048  10.514 -0.3880 -0.1282 -0.5795
 1578TIP3   OH226224   1.791   4.901  10.341  0.4449 -0.0975 -0.2220
 1578TIP3    H126225   1.743   4.964  10.394  0.4453 -1.0876  1.0171
 1578TIP3    H226226   1.882   4.909  10.371  0.4633 -0.5910 -0.1373
 1579TIP3   OH226227   0.737   3.897  10.706 -0.1076  0.5825 -0.0717
 1579TIP3    H126228   0.802   3.866  10.644  0.0011  2.5469 -1.0300
 1579TIP3    H226229   0.776   3.976  10.744 -0.8011  0.2540  1.4182
 1580TIP3   OH226230   3.057   4.938  10.895 -0.4769 -0.6052  0.3364
 1580TIP3    H126231   3.036   4.861  10.841  1.7441 -2.6563  2.1197
 1580TIP3    H226232   3.108   4.902  10.968  0.8660  2.6289  1.1787
 1581TIP3   OH226233   1.710   0.854  14.333 -0.5223  0.2750  0.3199
 1581TIP3    H126234   1.652   0.871  14.407  0.0519  2.0539  0.4250
 1581TIP3    H226235   1.683   0.918  14.267  0.7417  0.5788  0.0642
 1582TIP3   OH226236   7.140   1.240  12.916  0.0942  0.3938  0.2861
 1582TIP3    H126237   7.143   1.208  13.006  1.9365  1.4045  0.6211
 1582TIP3    H226238   7.189   1.322  12.918  0.3422  0.3287 -1.6784
 1583TIP3   OH226239   0.621   4.681  11.916 -0.0087 -0.7521  0.1936
 1583TIP3    H126240   0.666   4.673  12.000  0.8977 -1.7665 -0.3560
 1583TIP3    H226241   0.689   4.708  11.854 -0.8013  0.6426 -0.1217
 1584TIP3   OH226242   4.973   5.468  11.836  0.1206  0.0322  0.0504
 1584TIP3    H126243   5.018   5.551  11.851  0.2847  0.0201 -0.3658
 1584TIP3    H226244   4.919   5.484  11.759 -0.6800  0.0813  0.6105
 1585TIP3   OH226245   6.628   0.600  10.422 -0.3519  0.7280  1.0510
 1585TIP3    H126246   6.618   0.643  10.508  1.3318  2.8263  0.2905
 1585TIP3    H226247   6.722   0.594  10.409 -0.5749 -0.4934 -0.2463
 1586TIP3   OH226248   0.619   5.965   9.323 -0.0054 -0.6628  0.0934
 1586TIP3    H126249   0.632   6.050   9.281  1.7676  0.7501  3.1521
 1586TIP3    H226250   0.545   5.978   9.382  0.1022 -1.3191  0.3857
 1587TIP3   OH226251   1.228   2.644   9.705  0.5132 -0.4633 -0.1030
 1587TIP3    H126252   1.210   2.737   9.719 -0.5621 -0.7186  0.2579
 1587TIP3    H226253   1.301   2.625   9.765  0.9679  0.2142 -0.4292
 1588TIP3   OH226254   6.975   7.140  10.780  0.2125 -0.7770  0.1582
 1588TIP3    H126255   6.970   7.186  10.865 -1.4751  1.1397 -0.8672
 1588TIP3    H226256   6.885   7.112  10.764  0.5145 -1.1137 -1.0009
 1589TIP3   OH226257   1.435   2.443  10.346 -0.1911 -0.0273 -0.3004
 1589TIP3    H126258   1.455   2.447  10.440 -1.4603  0.4531 -0.0216
 1589TIP3    H226259   1.520   2.431  10.304  0.1900 -2.7562  1.0286
 1590TIP3   OH226260   0.130   5.355  12.274  0.5786 -0.0091  0.0430
 1590TIP3    H126261   0.195   5.312  12.218 -0.1453 -1.2413  0.1096
 1590TIP3    H226262   0.088   5.419  12.216  1.0111 -0.0579 -0.3339
 1591TIP3   OH226263   5.398   2.413   0.670  0.5935 -0.1172 -0.1425
 1591TIP3    H126264   5.390   2.376   0.583 -0.6187 -0.6865  0.1930
 1591TIP3    H226265   5.320   2.468   0.680 -0.6026 -1.9534  1.4468
 1592TIP3   OH226266   4.264   2.693  12.661 -0.2590 -0.3828 -0.7556
 1592TIP3    H126267   4.243   2.687  12.754  0.1615 -1.0482 -0.6995
 1592TIP3    H226268   4.232   2.779  12.635 -1.5817 -0.7286 -0.3086
 1593TIP3   OH226269   4.139   0.255   9.619  0.5510 -0.6734  0.2496
 1593TIP3    H126270   4.135   0.323   9.552 -2.7379 -0.8926  0.0966
 1593TIP3    H226271   4.201   0.289   9.684  1.5910  0.8495 -1.4475
 1594TIP3   OH226272   2.592   0.163  13.549  0.3309  0.0220  0.0083
 1594TIP3    H126273   2.654   0.101  13.587  2.4808  2.2510  0.3551
 1594TIP3    H226274   2.613   0.165  13.456  0.6547  0.6133  0.0880
 1595TIP3   OH226275   4.574   6.740  11.359  0.8770  0.2849  0.1259
 1595TIP3    H126276   4.481   6.718  11.352  1.1330 -0.8023 -0.1193
 1595TIP3    H226277   4.595   6.780  11.274  0.7484  0.0529 -0.0178
 1596TIP3   OH226278   6.148   4.822  14.999 -0.0049 -0.0701 -0.2177
 1596TIP3    H126279   6.205   4.886  15.041  1.6754 -0.3341 -1.9696
 1596TIP3    H226280   6.143   4.850  14.908  0.6494 -2.3245 -1.0107
 1597TIP3   OH226281   4.898   1.272  14.997  0.1228 -0.5205 -0.1832
 1597TIP3    H126282   4.885   1.193  14.945  1.0389 -0.3279 -0.7302
 1597TIP3    H226283   4.811   1.310  15.006 -0.4650 -1.9900  0.7605
 1598TIP3   OH226284   5.437   2.681  12.049  0.6068  0.0646  0.0245
 1598TIP3    H126285   5.350   2.719  12.050  0.7629  0.4317 -0.4667
 1598TIP3    H226286   5.471   2.698  11.962  1.2097  0.0064  0.2403
 1599TIP3   OH226287   1.352   2.134  11.351 -0.3315  0.1522 -0.0955
 1599TIP3    H126288   1.294   2.170  11.283  2.0197  1.1474 -1.7417
 1599TIP3    H226289   1.378   2.049  11.318  1.4818  0.9839 -0.9736
 1600TIP3   OH226290   3.070   3.987  12.740  0.4537  1.0415  0.1536
 1600TIP3    H126291   3.112   4.070  12.717 -1.7088  2.6247  1.5757
 1600TIP3    H226292   3.044   3.950  12.656  0.5317  2.3365 -0.4754
 1601TIP3   OH226293   5.922   0.141  10.241  0.1294 -0.2498  0.5399
 1601TIP3    H126294   5.855   0.168  10.178 -0.1591 -0.1402  0.8892
 1601TIP3    H226295   5.877   0.078  10.297  0.6569 -1.0804  0.0404
 1602TIP3   OH226296   5.599   2.445  12.929 -0.2141 -0.3421 -0.6597
 1602TIP3    H126297   5.609   2.534  12.963 -1.0016 -0.7021  0.5870
 1602TIP3    H226298   5.675   2.432  12.872  0.8537  0.5132  0.5271
 1603TIP3   OH226299   5.643   6.034  13.200 -0.1021 -0.0543  0.3821
 1603TIP3    H126300   5.729   6.017  13.237 -0.0539  0.2455  0.4117
 1603TIP3    H226301   5.598   6.084  13.268 -0.1306  0.2096  0.1709
 1604TIP3   OH226302   5.288   2.281  11.579  0.1073  0.2615  0.0176
 1604TIP3    H126303   5.272   2.371  11.608 -2.5961  0.3034 -1.2712
 1604TIP3    H226304   5.299   2.231  11.660  2.0360  1.7457  0.7438
 1605TIP3   OH226305   2.714   2.805  10.267 -0.0570  0.0982  1.0142
 1605TIP3    H126306   2.641   2.833  10.322  0.1812  0.7171  1.0186
 1605TIP3    H226307   2.793   2.832  10.314  0.1633  0.0044  0.7097
 1606TIP3   OH226308   2.048   5.016  10.535 -0.0999 -0.3846 -0.5787
 1606TIP3    H126309   2.112   4.966  10.485  1.7842  0.5144  0.7953
 1606TIP3    H226310   2.058   5.106  10.504 -0.4494 -0.1811 -0.1184
 1607TIP3   OH226311   4.507   0.657  10.390 -0.0185 -0.1894 -0.1096
 1607TIP3    H126312   4.515   0.608  10.472 -0.9211  0.2550  0.2589
 1607TIP3    H226313   4.551   0.740  10.407 -0.8054  0.1816  0.1734
 1608TIP3   OH226314   7.095   4.181  11.348  0.7561  0.2423 -0.0908
 1608TIP3    H126315   7.036   4.129  11.294  3.5317 -1.0853 -2.0818
 1608TIP3    H226316   7.088   4.270  11.311 -0.1983  0.1869 -0.0736
 1609TIP3   OH226317   2.988   6.813  12.222  0.5511 -0.2128 -0.0861
 1609TIP3    H126318   2.984   6.801  12.127  0.6684  0.4975 -0.1929
 1609TIP3    H226319   2.927   6.748  12.258 -0.2726  0.1887 -0.7145
 1610TIP3   OH226320   3.471   0.978  12.478 -0.1784  0.2443 -0.2471
 1610TIP3    H126321   3.417   0.900  12.486  0.7663 -0.4619 -0.4944
 1610TIP3    H226322   3.554   0.946  12.443  0.2531  1.3548 -0.2951
 1611TIP3   OH226323   0.471   0.163  14.317 -0.4430 -0.0446  0.0638
 1611TIP3    H126324   0.552   0.113  14.310  0.8346  1.6425  1.7014
 1611TIP3    H226325   0.433   0.160  14.229  2.3401  0.5776 -1.2788
 1612TIP3   OH226326   1.481   3.549   0.922 -0.4107  0.0663  0.2827
 1612TIP3    H126327   1.554   3.524   0.866 -0.4491  1.2372 -0.3308
 1612TIP3    H226328   1.411   3.574   0.862 -0.5771  1.0064  0.8390
 1613TIP3   OH226329   2.881   1.112  13.002  0.3760  1.0251 -0.4497
 1613TIP3    H126330   2.957   1.127  13.058 -1.8201  1.0447  2.7738
 1613TIP3    H226331   2.911   1.048  12.937  2.7680 -0.0102  1.5312
 1614TIP3   OH226332   2.035   6.237  10.993  0.5641  0.3313 -0.0383
 1614TIP3    H126333   1.946   6.265  10.971  0.7184  0.2871 -0.7751
 1614TIP3    H226334   2.091   6.295  10.942  0.9450  0.1011  0.1166
 1615TIP3   OH226335   5.355   1.673  11.576  0.3462  0.0175 -0.1318
 1615TIP3    H126336   5.371   1.674  11.482  3.2016 -1.5873  0.2071
 1615TIP3    H226337   5.426   1.726  11.613 -0.7551  0.6660  1.1533
 1616TIP3   OH226338   3.863   3.715  14.743  0.2973  0.2042 -0.4105
 1616TIP3    H126339   3.935   3.720  14.806 -0.7046  0.4940  0.7307
 1616TIP3    H226340   3.823   3.802  14.745  1.5408  0.9684 -3.0787
 1617TIP3   OH226341   5.833   5.448   0.351  0.0505 -0.3729  0.2298
 1617TIP3    H126342   5.833   5.407   0.437  1.3483 -2.4344 -0.6693
 1617TIP3    H226343   5.868   5.536   0.366  0.3947 -0.7433  1.7649
 1618TIP3   OH226344   5.979   4.066   4.170 -0.2891  0.5497 -0.9404
 1618TIP3    H126345   5.937   4.150   4.188  0.3845  1.0544 -1.6408
 1618TIP3    H226346   6.066   4.074   4.207  0.2933  0.7310 -2.2752
 1619TIP3   OH226347   4.664   4.715  10.094  0.0241  0.5123 -0.1366
 1619TIP3    H126348   4.582   4.685  10.053 -1.5351  2.6168  1.1932
 1619TIP3    H226349   4.714   4.635  10.110 -1.7952 -0.8642 -0.9649
 1620TIP3   OH226350   4.924   6.535  10.276  0.0585  0.2892 -0.6165
 1620TIP3    H126351   4.934   6.510  10.367 -0.9972  1.2311 -0.2181
 1620TIP3    H226352   4.994   6.488  10.230  1.6458  1.0660  0.8957
 1621TIP3   OH226353   3.639   5.272   9.946  0.4151  0.8721  0.1397
 1621TIP3    H126354   3.652   5.357   9.987  1.1579  0.7231  0.2328
 1621TIP3    H226355   3.636   5.210  10.019  2.0801  0.5657 -0.0143
 1622TIP3   OH226356   0.059   0.188  14.346 -0.5649 -0.3400 -0.4649
 1622TIP3    H126357   0.031   0.099  14.327 -1.3184 -0.5662  1.4533
 1622TIP3    H226358   0.129   0.178  14.411  0.2111  0.4448 -1.1416
 1623TIP3   OH226359   2.831   2.159  14.049  0.2454  0.3870  0.0102
 1623TIP3    H126360   2.839   2.101  13.973  0.7344 -0.9486  1.0486
 1623TIP3    H226361   2.747   2.135  14.089 -0.0193  1.0995 -0.0965
 1624TIP3   OH226362   0.124   4.898  14.195  0.8522 -0.3257  0.0500
 1624TIP3    H126363   0.200   4.941  14.156  1.2928 -0.4668  0.7372
 1624TIP3    H226364   0.050   4.923  14.138  1.8528 -2.8312 -2.5806
 1625TIP3   OH226365   6.976   6.546  10.152 -0.4239  0.0075  0.2148
 1625TIP3    H126366   6.970   6.553  10.247 -2.4427  0.8979  0.0698
 1625TIP3    H226367   6.967   6.636  10.121 -0.5814 -0.3588 -0.8394
 1626TIP3   OH226368   4.304   6.285   2.042 -0.0361  0.5451 -0.1353
 1626TIP3    H126369   4.373   6.309   2.104  0.6795  1.3830 -1.2070
 1626TIP3    H226370   4.348   6.286   1.957 -0.9594 -0.7190 -0.6425
 1627TIP3   OH226371   6.082   3.357   0.205  0.8508  0.1114 -0.4646
 1627TIP3    H126372   6.029   3.344   0.127  0.5093  0.9467 -0.3896
 1627TIP3    H226373   6.082   3.452   0.218  1.3497  0.0241  0.2380
 1628TIP3   OH226374   3.580   1.693  10.151  0.0358  0.0489  0.1579
 1628TIP3    H126375   3.512   1.713  10.086 -1.2119 -0.0175  1.4131
 1628TIP3    H226376   3.626   1.776  10.164 -2.2035  1.0951  2.0057
 1629TIP3   OH226377   2.865   1.237   9.696  0.7520  0.4851 -0.2384
 1629TIP3    H126378   2.808   1.166   9.667  0.7094  0.1447  0.6429
 1629TIP3    H226379   2.813   1.317   9.686  0.3780  0.2543 -0.1176
 1630TIP3   OH226380   5.016   4.229  12.231  0.0696  0.7446 -0.4808
 1630TIP3    H126381   5.046   4.150  12.186 -0.8115 -0.8601  1.5315
 1630TIP3    H226382   4.958   4.272  12.168  0.8243 -0.0211 -1.7435
 1631TIP3   OH226383   5.723   4.881   0.598  0.4434  0.5123 -0.2530
 1631TIP3    H126384   5.753   4.835   0.520  0.2737  0.6162 -0.3779
 1631TIP3    H226385   5.717   4.973   0.572  1.8757  0.7897  0.3082
 1632TIP3   OH226386   1.345   3.364  11.998 -0.3826  0.2654 -0.0899
 1632TIP3    H126387   1.431   3.338  11.966 -0.2015  0.3146  0.3478
 1632TIP3    H226388   1.327   3.447  11.953  1.1690  1.8802  2.0610
 1633TIP3   OH226389   6.015   6.161  11.372 -0.4397 -0.1154 -0.6385
 1633TIP3    H126390   6.066   6.223  11.423 -1.0396  1.2846 -1.6716
 1633TIP3    H226391   6.030   6.187  11.281 -2.0137 -0.4185 -1.0134
 1634TIP3   OH226392   7.181   0.122  13.267 -0.1271 -0.0873 -0.2598
 1634TIP3    H126393   7.154   0.036  13.300  0.7364 -1.2179 -2.3389
 1634TIP3    H226394   7.100   0.173  13.266 -0.7103 -0.9398  0.7382
 1635TIP3   OH226395   6.927   5.281  11.497 -0.2733 -0.6837  0.7393
 1635TIP3    H126396   6.895   5.340  11.565  1.9216  0.5818  0.7754
 1635TIP3    H226397   6.874   5.301  11.420 -0.2691  0.6009  1.0452
 1636TIP3   OH226398   0.928   6.210  12.151  0.1605 -0.1650 -0.1092
 1636TIP3    H126399   0.960   6.141  12.093 -0.1122 -0.7898  0.4796
 1636TIP3    H226400   0.886   6.164  12.224  1.6533  0.5793  1.2737
 1637TIP3   OH226401   0.427   1.257  10.021 -0.2623  0.4759 -0.6264
 1637TIP3    H126402   0.341   1.214  10.018  0.6751 -1.4887 -2.0286
 1637TIP3    H226403   0.465   1.229  10.104 -0.2755 -0.1756 -0.8343
 1638TIP3   OH226404   2.299   4.756  11.707  0.3534 -0.0076 -0.7981
 1638TIP3    H126405   2.223   4.753  11.767  0.3515  1.4213 -0.6940
 1638TIP3    H226406   2.373   4.775  11.764  0.5420  0.1627 -1.1000
 1639TIP3   OH226407   3.207   7.105  12.284  0.6937  0.5684 -0.0081
 1639TIP3    H126408   3.199   7.017  12.322  0.6386  0.1991 -0.8462
 1639TIP3    H226409   3.268   7.150  12.342  0.1608  0.2163  0.8476
 1640TIP3   OH226410   3.993   0.348  13.927 -0.3489 -0.1400 -0.3695
 1640TIP3    H126411   3.958   0.313  13.845 -0.6446 -0.5750 -0.0624
 1640TIP3    H226412   3.925   0.331  13.992 -0.3612  0.7283 -0.1458
 1641TIP3   OH226413   1.239   5.032   2.355  0.4156  0.1502 -0.2007
 1641TIP3    H126414   1.274   4.993   2.274  0.1216  2.3182 -1.4534
 1641TIP3    H226415   1.203   5.116   2.327 -2.1783 -0.1948  1.7432
 1642TIP3   OH226416   6.484   6.863  10.112 -0.5974 -0.0575 -0.7362
 1642TIP3    H126417   6.552   6.859  10.179 -0.3879  0.4601 -0.9154
 1642TIP3    H226418   6.431   6.785  10.127  0.1810 -0.5919 -0.7558
 1643TIP3   OH226419   5.745   0.811   0.882  0.1530 -0.5648 -0.1575
 1643TIP3    H126420   5.724   0.760   0.803  0.4870  1.2548 -1.4720
 1643TIP3    H226421   5.661   0.822   0.926 -0.2804 -0.3560 -1.0284
 1644TIP3   OH226422   6.286   0.004   9.713 -0.3340 -0.3840 -0.4877
 1644TIP3    H126423   6.361   0.061   9.701 -0.0332 -0.2841  1.4884
 1644TIP3    H226424   6.250  -0.008   9.625  1.7973 -0.1990 -1.4435
 1645TIP3   OH226425   2.514   6.666  13.653 -0.0307  0.0965  0.2685
 1645TIP3    H126426   2.517   6.752  13.695  1.3272 -0.3168  1.0655
 1645TIP3    H226427   2.550   6.606  13.717 -1.3549 -1.1691 -0.1192
 1646TIP3   OH226428   3.261   3.955   9.900 -0.0341  0.1662  0.1030
 1646TIP3    H126429   3.342   3.952   9.951 -0.4365  0.9020  0.8052
 1646TIP3    H226430   3.265   4.038   9.852 -1.5596  1.5604  2.2159
 1647TIP3   OH226431   2.919   2.518  11.768  0.1822 -0.3734 -0.1845
 1647TIP3    H126432   2.848   2.455  11.777 -0.6951  0.4209 -1.4224
 1647TIP3    H226433   2.998   2.464  11.761 -0.3307 -1.2677  0.6218
 1648TIP3   OH226434   3.776   4.867  13.974 -0.3488  0.1312  0.0627
 1648TIP3    H126435   3.809   4.882  14.062  1.2624  0.8491 -0.6142
 1648TIP3    H226436   3.852   4.834  13.925 -1.4161 -1.0804 -0.8572
 1649TIP3   OH226437   6.849   1.480  10.819  0.1437 -0.3176  0.3834
 1649TIP3    H126438   6.940   1.492  10.795  0.3350  0.9049  1.5991
 1649TIP3    H226439   6.817   1.567  10.841 -1.3676 -0.7007 -0.1504
 1650TIP3   OH226440   5.327   1.619  12.297  0.1144 -0.1901 -0.0161
 1650TIP3    H126441   5.267   1.680  12.339 -0.0216  0.9615 -1.7749
 1650TIP3    H226442   5.357   1.665  12.219  0.9909 -1.9060 -0.7451
 1651TIP3   OH226443   1.731   5.194   0.496  0.2130  0.5181 -0.2264
 1651TIP3    H126444   1.810   5.155   0.534 -1.3971 -2.3183  0.4985
 1651TIP3    H226445   1.763   5.243   0.420  2.6790 -0.1992  0.2515
 1652TIP3   OH226446   4.332   2.050  12.463  0.2841 -0.2206  0.5207
 1652TIP3    H126447   4.383   2.064  12.543  1.9879 -2.6310 -0.0249
 1652TIP3    H226448   4.357   2.123  12.406  0.8769  0.2377  1.3365
 1653TIP3   OH226449   1.835   3.714  10.661 -0.4405  0.6271 -0.5982
 1653TIP3    H126450   1.906   3.711  10.597 -0.1377  1.5587 -0.3231
 1653TIP3    H226451   1.798   3.626  10.659  1.8613 -0.4768  0.5389
 1654TIP3   OH226452   2.504   0.420  12.654  0.3969  0.7342 -0.5927
 1654TIP3    H126453   2.573   0.446  12.715 -0.0315 -0.9557  0.6612
 1654TIP3    H226454   2.546   0.358  12.595 -0.1181 -0.6878  0.4840
 1655TIP3   OH226455   0.440   3.439  11.818  0.0028  0.6490  0.2088
 1655TIP3    H126456   0.453   3.528  11.851 -1.4195  0.3281  1.8613
 1655TIP3    H226457   0.377   3.449  11.747  1.0189  1.0962 -0.6465
 1656TIP3   OH226458   5.380   0.494  10.092 -0.3205 -0.5541 -0.3587
 1656TIP3    H126459   5.445   0.429  10.064 -0.9076 -1.1918 -0.2594
 1656TIP3    H226460   5.359   0.543  10.012 -1.1508 -1.6283 -0.8131
 1657TIP3   OH226461   5.221   1.566  10.374  1.0332 -0.2806 -0.1396
 1657TIP3    H126462   5.306   1.524  10.365  0.0820 -2.1331 -0.9577
 1657TIP3    H226463   5.228   1.616  10.456  2.9779 -0.1197 -0.3542
 1658TIP3   OH226464   6.075   3.535  11.283  0.3727  0.0192  0.1864
 1658TIP3    H126465   6.100   3.501  11.368  1.8348 -0.3254 -0.3520
 1658TIP3    H226466   5.982   3.513  11.274  0.3100 -0.3171  1.4895
 1659TIP3   OH226467   3.735   2.716  11.287  0.3487  0.1833 -0.5247
 1659TIP3    H126468   3.656   2.668  11.260 -0.2366  0.1536  1.1184
 1659TIP3    H226469   3.740   2.789  11.226 -0.5163 -0.2576 -1.1499
 1660TIP3   OH226470   1.362   3.501   9.649  0.5408 -0.1864 -0.2974
 1660TIP3    H126471   1.437   3.545   9.610 -0.1362  1.0191 -0.2823
 1660TIP3    H226472   1.389   3.410   9.656  1.1867 -0.2018 -2.3265
 1661TIP3   OH226473   3.100   1.507  12.416  0.4952 -0.1481 -0.4695
 1661TIP3    H126474   3.080   1.439  12.480  0.5257 -0.0112 -0.3150
 1661TIP3    H226475   3.154   1.570  12.463  0.9446 -0.3021 -0.7713
 1662TIP3   OH226476   1.352   3.330   4.483 -0.0511  0.3361 -0.0770
 1662TIP3    H126477   1.277   3.289   4.440 -1.3768 -0.3123  2.6143
 1662TIP3    H226478   1.413   3.351   4.412 -2.2917 -0.1083 -2.2501
 1663TIP3   OH226479   1.584   1.652  10.042 -0.0756  0.4068  0.3088
 1663TIP3    H126480   1.582   1.693   9.956  0.2791 -1.3638 -0.5908
 1663TIP3    H226481   1.643   1.708  10.094 -1.5533  2.4048 -0.0526
 1664TIP3   OH226482   1.725   5.590  10.610 -0.7503 -0.5944  0.1010
 1664TIP3    H126483   1.777   5.510  10.618 -0.5384 -0.8544 -2.6304
 1664TIP3    H226484   1.752   5.627  10.526 -2.2573  1.3214  0.3895
 1665TIP3   OH226485   5.481   4.651  14.395  0.3861  0.1676  0.0467
 1665TIP3    H126486   5.426   4.696  14.331 -2.1633 -1.2749  1.0444
 1665TIP3    H226487   5.501   4.718  14.460  0.4201  0.9068 -0.7052
 1666TIP3   OH226488   7.113   3.094  10.195 -0.1679  0.2414 -0.7012
 1666TIP3    H126489   7.151   3.039  10.263 -0.6878 -2.7800 -2.6339
 1666TIP3    H226490   7.189   3.133  10.150  0.2022  1.3841  0.8404
 1667TIP3   OH226491   6.042   4.750  14.223 -0.1845  0.6857 -0.3762
 1667TIP3    H126492   5.948   4.732  14.230 -0.8475  3.3297 -1.1117
 1667TIP3    H226493   6.064   4.727  14.133  0.1941 -1.0175  0.1196
 1668TIP3   OH226494   2.032   5.723  10.912 -0.1154 -0.3469  0.4794
 1668TIP3    H126495   2.007   5.795  10.853 -0.0046 -1.5434 -1.0761
 1668TIP3    H226496   1.988   5.744  10.995  2.5663  3.2891  1.2483
 1669TIP3   OH226497   1.067   3.583  10.157 -0.1558  0.7904  0.5501
 1669TIP3    H126498   1.157   3.602  10.183 -0.4427 -1.4142  3.7246
 1669TIP3    H226499   1.076   3.512  10.093  0.4114  0.0343  1.4298
 1670TIP3   OH226500   6.714   3.529   9.929  0.6897 -0.3587  0.0321
 1670TIP3    H126501   6.653   3.595   9.962  0.0427 -1.1239  0.3923
 1670TIP3    H226502   6.794   3.543   9.979  0.2087 -0.5192  0.8604
 1671TIP3   OH226503   4.974   4.399  10.353 -0.4057 -0.1509  0.3080
 1671TIP3    H126504   5.015   4.464  10.409 -0.3064 -1.3748  1.7263
 1671TIP3    H226505   4.976   4.318  10.405 -2.7490 -0.7196 -0.3689
 1672TIP3   OH226506   1.859   0.406  12.372 -0.2261  0.6565 -0.4397
 1672TIP3    H126507   1.856   0.311  12.373 -1.1830  0.6628 -1.3500
 1672TIP3    H226508   1.862   0.429  12.279  0.4135  1.5047 -0.2190
 1673TIP3   OH226509   5.463   2.850  11.249 -0.5377  0.0219  0.9050
 1673TIP3    H126510   5.527   2.806  11.192  0.2136  0.8313  1.0982
 1673TIP3    H226511   5.413   2.779  11.288  0.3617 -0.6458  0.8762
 1674TIP3   OH226512   5.335   0.607  11.391  0.8854 -0.4131  0.2607
 1674TIP3    H126513   5.307   0.642  11.475 -1.5682 -0.9388 -0.2624
 1674TIP3    H226514   5.274   0.535  11.374  0.4009  0.5472 -2.5667
 1675TIP3   OH226515   1.668   4.667   9.212  0.0438 -0.0033  0.1245
 1675TIP3    H126516   1.678   4.631   9.300  0.2288 -1.2231 -0.3774
 1675TIP3    H226517   1.736   4.734   9.205  0.1119  0.0085  0.8493
 1676TIP3   OH226518   4.637   3.615  10.608 -0.0704 -0.6445  0.1169
 1676TIP3    H126519   4.668   3.625  10.698  0.9757 -0.1321 -0.2941
 1676TIP3    H226520   4.620   3.521  10.599  0.7700 -0.8407  0.5411
 1677TIP3   OH226521   4.777   0.358  10.483  0.5304  0.8092 -0.1890
 1677TIP3    H126522   4.765   0.406  10.565 -3.2333 -1.1775  0.6728
 1677TIP3    H226523   4.747   0.418  10.415 -0.2162  1.1124  0.3966
 1678TIP3   OH226524   5.356   6.105  10.318  0.3504  0.1052 -0.5936
 1678TIP3    H126525   5.307   6.148  10.248  0.9384  1.8770  0.0489
 1678TIP3    H226526   5.319   6.016  10.321 -0.1980  0.2093 -2.6237
 1679TIP3   OH226527   3.133   5.055   9.786 -0.0275 -0.0306  0.2840
 1679TIP3    H126528   3.092   4.969   9.781  0.6023 -0.4735  2.0397
 1679TIP3    H226529   3.061   5.116   9.801 -0.3154 -0.4682  0.7027
 1680TIP3   OH226530   5.544   3.802  10.846 -0.3485  0.2653  0.5319
 1680TIP3    H126531   5.517   3.719  10.884 -1.0198  0.8287  1.3551
 1680TIP3    H226532   5.461   3.847  10.826 -0.0057  0.1692 -1.2164
 1681TIP3   OH226533   4.709   4.852  10.608  0.2592 -0.1301  0.3340
 1681TIP3    H126534   4.776   4.788  10.582  0.4258  0.2991 -0.3003
 1681TIP3    H226535   4.757   4.934  10.619  0.0119 -0.0582  0.9601
 1682TIP3   OH226536   1.270   1.206  14.913 -0.3130 -0.0572 -0.0422
 1682TIP3    H126537   1.265   1.229  15.006 -0.0043  1.2964 -0.3388
 1682TIP3    H226538   1.192   1.154  14.897 -0.1435 -0.6875  1.0734
 1683TIP3   OH226539   1.372   1.887  15.412  0.0923 -0.1726  0.1859
 1683TIP3    H126540   1.433   1.900  15.484 -0.4402 -0.1675  0.6428
 1683TIP3    H226541   1.286   1.901  15.451 -0.1708  0.3628 -0.5751
 1684TIP3   OH226542   5.201   5.620  13.108  0.7236  0.4992 -0.1817
 1684TIP3    H126543   5.160   5.548  13.156 -0.4319  0.9484 -0.4605
 1684TIP3    H226544   5.129   5.681  13.090  1.7070  1.8466  0.2519
 1685TIP3   OH226545   1.257   1.277  13.194  0.6194 -0.2776 -0.5064
 1685TIP3    H126546   1.322   1.259  13.262  1.0396 -0.0689 -0.8453
 1685TIP3    H226547   1.172   1.268  13.239  0.8971  0.7862  0.2885
 1686TIP3   OH226548   3.782   2.972   9.051  0.4836 -0.0855 -0.2632
 1686TIP3    H126549   3.862   2.930   9.020  0.8869  0.4110  0.0705
 1686TIP3    H226550   3.738   2.905   9.104  0.7558 -0.3090 -0.3179
 1687TIP3   OH226551   1.484   4.035  10.221  0.0206  0.0663 -1.1654
 1687TIP3    H126552   1.490   3.949  10.181 -0.5156 -0.3729 -0.3388
 1687TIP3    H226553   1.559   4.040  10.280 -0.8829 -0.5557  0.0881
 1688TIP3   OH226554   6.815   3.787   9.807  0.3014 -0.3109  0.6059
 1688TIP3    H126555   6.784   3.697   9.808 -0.5989 -0.0316  2.6130
 1688TIP3    H226556   6.910   3.780   9.795  0.0221 -1.3778 -1.3771
 1689TIP3   OH226557   3.894   1.269  14.390 -0.2669 -0.7278 -0.2508
 1689TIP3    H126558   3.799   1.259  14.375 -0.3761 -3.9180  1.6242
 1689TIP3    H226559   3.934   1.203  14.333  0.9551  0.8813 -1.3478
 1690TIP3   OH226560   0.693   6.534  14.747 -0.2310 -0.3824  0.0143
 1690TIP3    H126561   0.723   6.623  14.763  0.0302 -0.7093  1.4912
 1690TIP3    H226562   0.699   6.491  14.832 -0.6345 -1.7306 -0.6092
 1691TIP3   OH226563   3.555   3.483  12.118 -0.7752 -0.4971  0.3846
 1691TIP3    H126564   3.564   3.477  12.213 -2.9502 -1.4039  0.6060
 1691TIP3    H226565   3.464   3.508  12.104 -0.1742  0.8683 -1.4697
 1692TIP3   OH226566   5.535   1.007  10.673  0.2490 -0.2864  0.4921
 1692TIP3    H126567   5.581   1.070  10.728  1.1786 -0.1531 -0.3955
 1692TIP3    H226568   5.586   0.926  10.683 -0.8705 -0.8962  1.5399
 1693TIP3   OH226569   7.066   4.971   9.588 -0.0855 -0.0475  0.4570
 1693TIP3    H126570   6.972   4.969   9.571  0.0991 -1.5247 -0.5783
 1693TIP3    H226571   7.100   5.037   9.528 -0.4873  0.7341  1.0733
 1694TIP3   OH226572   3.812   6.880  10.292  1.0420  0.4695 -0.2889
 1694TIP3    H126573   3.867   6.882  10.371 -1.5083 -0.7376  1.6740
 1694TIP3    H226574   3.782   6.790  10.286 -0.5071  1.0147 -1.4011
 1695TIP3   OH226575   1.527   0.548  12.383 -0.3555  0.4400  0.2555
 1695TIP3    H126576   1.582   0.523  12.457  0.3356  0.3103 -0.2911
 1695TIP3    H226577   1.579   0.612  12.334 -1.1619  1.1880  0.3548
 1696TIP3   OH226578   0.706   6.940  13.216  0.8400  0.5931 -0.2934
 1696TIP3    H126579   0.793   6.905  13.196  1.1544  1.1159  0.1262
 1696TIP3    H226580   0.650   6.863  13.221  1.0312  0.3196 -1.6981
 1697TIP3   OH226581   3.761   0.189  11.213  0.3087 -0.1154 -0.5352
 1697TIP3    H126582   3.733   0.142  11.292  0.8326 -0.0657 -0.3193
 1697TIP3    H226583   3.792   0.273  11.245  1.3789 -0.4321 -0.6853
 1698TIP3   OH226584   4.131   1.299  10.572  0.2087 -0.0882  0.5261
 1698TIP3    H126585   4.173   1.237  10.512 -0.7024  2.0220 -2.5602
 1698TIP3    H226586   4.181   1.380  10.563 -1.2142  0.8876  0.9573
 1699TIP3   OH226587   5.385   0.126  14.116 -0.1333 -0.2329 -0.0208
 1699TIP3    H126588   5.428   0.169  14.190  0.3198 -1.3182  0.3795
 1699TIP3    H226589   5.297   0.105  14.148  0.2467 -1.1984  0.4233
 1700TIP3   OH226590   0.605   3.858  11.422  0.1060 -0.2120  0.0620
 1700TIP3    H126591   0.595   3.848  11.327  0.2240  4.3051 -0.6528
 1700TIP3    H226592   0.547   3.792  11.459 -1.8642 -0.5621 -3.2106
 1701TIP3   OH226593   6.418   3.325   0.194  0.0583 -0.0463 -0.3721
 1701TIP3    H126594   6.398   3.363   0.109  2.5531  1.0048 -0.5722
 1701TIP3    H226595   6.381   3.387   0.257 -0.0997  0.1950 -0.6969
 1702TIP3   OH226596   4.058   1.096   9.543  0.0451 -0.6444  0.7146
 1702TIP3    H126597   3.996   1.169   9.537  2.0063  1.0588 -0.6254
 1702TIP3    H226598   4.112   1.118   9.619 -0.0212 -1.2783  0.9436
 1703TIP3   OH226599   1.708   3.469  10.634  0.2058 -0.0816  0.0293
 1703TIP3    H126600   1.664   3.459  10.550  0.2394 -1.0554  0.1154
 1703TIP3    H226601   1.646   3.520  10.687 -1.1634 -1.9725  0.3649
 1704TIP3   OH226602   1.721   1.468  11.798 -0.0501  0.3762 -0.4626
 1704TIP3    H126603   1.814   1.448  11.796  0.1831  1.4181 -0.5494
 1704TIP3    H226604   1.686   1.429  11.718  0.1590 -0.6429 -0.0818
 1705TIP3   OH226605   3.109   5.623  11.939  0.1455  0.3739  0.4787
 1705TIP3    H126606   3.121   5.709  11.900  0.0398  0.0974 -0.1713
 1705TIP3    H226607   3.197   5.584  11.940  0.0363  0.0872 -0.1958
 1706TIP3   OH226608   1.425   5.451  11.354  0.0151  0.4646  0.1531
 1706TIP3    H126609   1.485   5.377  11.369 -0.2080  0.2052 -0.2172
 1706TIP3    H226610   1.404   5.483  11.442  0.3886  0.3081  0.3028
 1707TIP3   OH226611   6.308   5.800  11.491 -0.2914  0.4766  0.1457
 1707TIP3    H126612   6.243   5.744  11.448  0.0684  0.1323  0.0385
 1707TIP3    H226613   6.324   5.871  11.429  0.1348  0.0484 -0.2451
 1708TIP3   OH226614   4.166   5.994  12.719 -0.3804 -0.1413 -0.1761
 1708TIP3    H126615   4.237   5.985  12.655 -1.0667 -0.3755 -0.9113
 1708TIP3    H226616   4.194   5.939  12.792  0.8281  0.8144  0.1211
 1709TIP3   OH226617   1.713   0.383  13.645 -0.7217  0.0675  0.2070
 1709TIP3    H126618   1.765   0.446  13.595 -2.3350 -0.0771 -1.8118
 1709TIP3    H226619   1.775   0.317  13.673  0.7479  1.6963  1.0259
 1710TIP3   OH226620   2.122   3.204  11.111 -0.4280 -0.5718 -0.1733
 1710TIP3    H126621   2.205   3.160  11.130 -0.1345  0.3003  0.6458
 1710TIP3    H226622   2.138   3.296  11.130 -0.8751  0.0212 -2.3624
 1711TIP3   OH226623   2.271   5.100  10.155 -0.0781 -0.0316  0.4482
 1711TIP3    H126624   2.196   5.144  10.117  0.8485  0.7543 -0.5343
 1711TIP3    H226625   2.311   5.052  10.083  0.9880  0.4556  0.6890
 1712TIP3   OH226626   2.118   4.752  11.924 -0.1608 -0.0347 -0.2130
 1712TIP3    H126627   2.155   4.789  12.004  0.4965 -1.9335  0.4161
 1712TIP3    H226628   2.078   4.670  11.951 -0.2944 -0.5236 -1.7592
 1713TIP3   OH226629   1.695   2.028   9.922  0.3523  0.1993  0.3085
 1713TIP3    H126630   1.752   2.090   9.968  0.4097 -1.2502  2.3473
 1713TIP3    H226631   1.607   2.066   9.929  0.3975  0.1158  1.4630
 1714TIP3   OH226632   2.979   6.970  11.467  0.0227 -0.6415  0.0041
 1714TIP3    H126633   3.015   6.927  11.390  1.8501  0.8202 -0.0301
 1714TIP3    H226634   3.044   6.955  11.536  0.3669  1.3598  0.1730
 1715TIP3   OH226635   0.325   4.521   9.524 -0.7394  0.5071 -0.0683
 1715TIP3    H126636   0.342   4.609   9.558 -1.7822  0.2779  1.1394
 1715TIP3    H226637   0.268   4.481   9.590 -1.5332 -0.5398 -1.3491
 1716TIP3   OH226638   0.992   2.479  11.030  0.8090 -0.3051  0.3101
 1716TIP3    H126639   1.050   2.545  10.991 -1.1961  1.0659 -0.5320
 1716TIP3    H226640   0.982   2.506  11.121 -0.3570  0.8873 -0.1394
 1717TIP3   OH226641   3.242   4.002  12.250 -0.1165 -0.0331  0.3700
 1717TIP3    H126642   3.156   3.962  12.234 -0.7099  0.3802  2.2163
 1717TIP3    H226643   3.222   4.078  12.305  1.5632 -1.1186  2.6678
 1718TIP3   OH226644   3.372   5.913  10.894 -0.2252 -0.1241  0.2720
 1718TIP3    H126645   3.409   5.999  10.873  1.2737 -0.2330  2.1819
 1718TIP3    H226646   3.280   5.930  10.911 -0.4575  0.6977 -1.5661
 1719TIP3   OH226647   7.074   2.362  11.181  0.7549  0.6051 -0.4510
 1719TIP3    H126648   7.062   2.441  11.127 -0.0627  1.2430  0.6219
 1719TIP3    H226649   7.149   2.382  11.236  1.1515  0.2320 -0.8445
 1720TIP3   OH226650   3.672   2.450  11.589  0.3306 -0.4903 -0.3546
 1720TIP3    H126651   3.695   2.370  11.542  0.1826 -0.1667 -0.9869
 1720TIP3    H226652   3.592   2.428  11.636  0.2941 -0.7207 -0.5182
 1721TIP3   OH226653   1.082   5.019  13.829  0.1947  0.2508  0.2402
 1721TIP3    H126654   1.042   4.952  13.883 -0.9413  0.4800 -0.2755
 1721TIP3    H226655   1.152   5.057  13.883 -0.2058 -0.2527  1.1182
 1722TIP3   OH226656   6.482   3.850  13.307 -0.6249  0.3658  0.0724
 1722TIP3    H126657   6.442   3.847  13.394  0.3548  0.5799  0.5453
 1722TIP3    H226658   6.564   3.802  13.317  0.1011  1.4699 -0.4083
 1723TIP3   OH226659   7.083   1.764  12.752  0.3964 -0.4897 -0.1951
 1723TIP3    H126660   7.093   1.808  12.668  1.1710 -0.1385  0.0760
 1723TIP3    H226661   7.106   1.830  12.817  0.8515 -1.0711  0.2423
 1724TIP3   OH226662   0.979   7.179  10.193  0.3222  0.0565  0.0444
 1724TIP3    H126663   1.036   7.105  10.213 -0.3853  0.0337  2.3560
 1724TIP3    H226664   0.896   7.140  10.166  0.3647  0.0122 -0.0205
 1725TIP3   OH226665   6.425   5.949  11.272 -0.5707  0.3062  0.5261
 1725TIP3    H126666   6.479   6.022  11.302 -0.5040  0.5226 -0.1081
 1725TIP3    H226667   6.368   5.988  11.206 -1.0099 -0.0752  0.6764
 1726TIP3   OH226668   2.526   1.256  10.156 -0.3129  0.1836  0.0453
 1726TIP3    H126669   2.439   1.233  10.186 -0.4977 -0.1788 -0.7314
 1726TIP3    H226670   2.524   1.241  10.061  0.8178 -0.5593  0.1126
 1727TIP3   OH226671   3.380   4.318   9.622  0.0788 -0.4479  0.3526
 1727TIP3    H126672   3.428   4.395   9.651  0.4833  0.0546 -1.5415
 1727TIP3    H226673   3.441   4.272   9.564 -0.9619 -0.9394 -0.3828
 1728TIP3   OH226674   0.768   5.847  12.692  0.2095 -0.0256 -0.5982
 1728TIP3    H126675   0.796   5.770  12.741 -1.5884  0.8258  1.9381
 1728TIP3    H226676   0.849   5.893  12.672  1.0422 -0.5906  1.3134
 1729TIP3   OH226677   2.932   4.609  12.845  0.2771 -0.2930 -0.4315
 1729TIP3    H126678   2.862   4.554  12.810  0.4557 -0.2278 -0.9031
 1729TIP3    H226679   2.974   4.646  12.767 -0.3629  1.1740 -0.1235
 1730TIP3   OH226680   4.569   1.979  11.226  0.1686 -0.3560  0.2659
 1730TIP3    H126681   4.499   2.013  11.280 -1.2378  0.8146 -2.1263
 1730TIP3    H226682   4.604   2.056  11.180  1.1264 -1.3024 -0.6633
 1731TIP3   OH226683   3.063   1.491  15.333  0.1702 -0.3919 -0.7704
 1731TIP3    H126684   3.137   1.526  15.284  0.1509  1.5041  0.4392
 1731TIP3    H226685   3.096   1.483  15.423 -1.3015  1.4115  0.0028
 1732TIP3   OH226686   1.256   3.468  13.113  0.4776 -0.6638  0.2636
 1732TIP3    H126687   1.332   3.472  13.054 -1.0519 -0.2863 -1.8109
 1732TIP3    H226688   1.190   3.420  13.064 -1.2578  0.6404  1.2003
 1733TIP3   OH226689   1.885   3.598  13.607  0.5949  0.0724 -0.2726
 1733TIP3    H126690   1.953   3.531  13.615 -2.1942 -3.3240 -2.3345
 1733TIP3    H226691   1.813   3.566  13.661 -0.1731  2.5997  0.3566
 1734TIP3   OH226692   6.168   2.946  11.038  0.5493  0.0551 -0.2559
 1734TIP3    H126693   6.207   2.976  10.956  0.7367 -1.9932 -0.9765
 1734TIP3    H226694   6.075   2.938  11.019  0.6492 -0.8050 -0.4042
 1735TIP3   OH226695   1.432   3.352   9.957  0.1756 -0.3451  0.0613
 1735TIP3    H126696   1.432   3.293  10.032 -0.9888  1.8866  1.9594
 1735TIP3    H226697   1.491   3.423   9.981 -0.7821  0.7936 -0.7788
 1736TIP3   OH226698   1.900   1.616  11.221 -0.2821 -0.3955 -0.0472
 1736TIP3    H126699   1.935   1.535  11.186 -0.0826 -0.0264 -0.7249
 1736TIP3    H226700   1.813   1.593  11.253 -0.7735 -0.6138 -1.4532
 1737TIP3   OH226701   0.468   0.873  10.002  0.1148  0.5775 -0.4845
 1737TIP3    H126702   0.404   0.824   9.950 -0.3877  0.1368  0.5292
 1737TIP3    H226703   0.443   0.857  10.093  1.6245  0.4409 -0.0597
 1738TIP3   OH226704   6.656   1.987  11.273  0.1803  0.4671  0.4269
 1738TIP3    H126705   6.670   2.065  11.219 -1.2633  0.7369  0.4095
 1738TIP3    H226706   6.711   1.920  11.232  1.1298  1.3544  0.1980
 1739TIP3   OH226707   3.142   0.760   0.843  0.6118  0.1218  0.8647
 1739TIP3    H126708   3.161   0.666   0.836 -0.3029 -0.0589  0.6624
 1739TIP3    H226709   3.214   0.803   0.797 -0.5027 -0.6173 -1.7355
 1740TIP3   OH226710   4.173   5.910  14.980 -0.5401 -0.2962  0.6464
 1740TIP3    H126711   4.188   5.890  14.887  1.0097 -0.3608  0.8803
 1740TIP3    H226712   4.106   5.848  15.008 -2.3953  0.8932 -0.8521
 1741TIP3   OH226713   6.631   3.565  11.202  0.2343  0.4626  0.2033
 1741TIP3    H126714   6.682   3.598  11.276  0.2670  1.3627 -0.2031
 1741TIP3    H226715   6.580   3.493  11.238 -3.1191  3.5384  2.3006
 1742TIP3   OH226716   6.108   6.154  10.812 -0.2836  0.3770  0.4339
 1742TIP3    H126717   6.173   6.157  10.742 -0.8087  2.0403 -0.0359
 1742TIP3    H226718   6.026   6.178  10.769 -1.0516 -0.7921  1.1931
 1743TIP3   OH226719   2.253   1.007  13.354 -0.3153 -0.0467  0.3795
 1743TIP3    H126720   2.212   0.921  13.359 -0.0475 -0.1821  0.2637
 1743TIP3    H226721   2.304   1.004  13.273  1.5994 -0.6316  1.5473
 1744TIP3   OH226722   6.267   1.195  14.109  0.2638  0.0444 -0.3627
 1744TIP3    H126723   6.196   1.257  14.091 -0.0439 -0.3371 -0.4871
 1744TIP3    H226724   6.222   1.116  14.138  0.7278  0.5258  1.8442
 1745TIP3   OH226725   6.090   3.250  10.261 -0.1462  0.2190  0.4719
 1745TIP3    H126726   6.175   3.241  10.217 -0.2503  0.6912  0.1729
 1745TIP3    H226727   6.104   3.210  10.347  0.2615 -0.0735  0.2777
 1746TIP3   OH226728   4.346   2.470  10.881 -0.7800  0.3473 -0.7646
 1746TIP3    H126729   4.357   2.489  10.974 -0.8070  1.1795 -0.9237
 1746TIP3    H226730   4.397   2.537  10.836  0.4252 -0.9068 -1.3404
 1747TIP3   OH226731   0.365   2.319  12.198 -0.1467 -0.4546  0.2821
 1747TIP3    H126732   0.330   2.323  12.286  0.7810 -1.4282  0.7180
 1747TIP3    H226733   0.396   2.229  12.188  0.2678 -0.2122 -0.8361
 1748TIP3   OH226734   4.826   5.433   0.586  0.3570 -0.4395 -0.3363
 1748TIP3    H126735   4.767   5.361   0.563  2.0919 -1.4911 -1.8674
 1748TIP3    H226736   4.878   5.447   0.506  0.4102  2.2304  0.0784
 1749TIP3   OH226737   5.164   2.700  10.604  0.0441  0.1975 -0.0077
 1749TIP3    H126738   5.113   2.735  10.677 -0.6424 -1.8201  0.5565
 1749TIP3    H226739   5.251   2.686  10.640  0.1700  0.7920 -0.0763
 1750TIP3   OH226740   6.741   0.243  10.835  0.1528 -0.1297  0.7394
 1750TIP3    H126741   6.695   0.197  10.906 -3.6056 -0.9320 -1.8767
 1750TIP3    H226742   6.753   0.176  10.767  0.6656  1.2828 -0.6203
 1751TIP3   OH226743   6.504   2.315   9.645 -0.4503  0.7472 -0.9932
 1751TIP3    H126744   6.425   2.368   9.637 -0.6718  0.8700  1.2653
 1751TIP3    H226745   6.473   2.225   9.647 -0.6081  0.8109  0.2443
 1752TIP3   OH226746   1.405   0.145   9.843 -0.0159 -0.3275  0.1757
 1752TIP3    H126747   1.408   0.230   9.798 -1.4749 -0.9636 -1.1918
 1752TIP3    H226748   1.343   0.158   9.915 -1.0369 -0.4867 -0.6518
 1753TIP3   OH226749   1.460   1.556  12.567  0.4207 -0.3715  0.3295
 1753TIP3    H126750   1.542   1.515  12.541  0.3765 -0.3918  0.2211
 1753TIP3    H226751   1.447   1.530  12.658  1.6353  1.3647  1.0639
 1754TIP3   OH226752   6.669   6.173   9.597  0.1406  0.1680  0.2518
 1754TIP3    H126753   6.732   6.123   9.647 -2.0652 -1.3739  1.6772
 1754TIP3    H226754   6.656   6.123   9.516 -0.5922 -0.5265  0.7881
 1755TIP3   OH226755   0.376   1.286  15.120  0.5756  1.1084 -0.0093
 1755TIP3    H126756   0.330   1.352  15.172  0.3161  1.7641 -1.0355
 1755TIP3    H226757   0.310   1.221  15.099  0.4685  1.2861 -0.2308
 1756TIP3   OH226758   7.023   2.612  12.515 -0.3357 -0.1682  0.4822
 1756TIP3    H126759   7.101   2.569  12.548 -0.2190  0.6715  1.3488
 1756TIP3    H226760   7.006   2.683  12.578 -2.1619 -0.7302  0.6920
 1757TIP3   OH226761   3.093   0.595  13.739  0.3705 -0.4663  0.1306
 1757TIP3    H126762   3.034   0.666  13.765 -3.4330 -2.9690 -0.8858
 1757TIP3    H226763   3.151   0.635  13.674  0.2423  2.2979  1.5670
 1758TIP3   OH226764   2.876   2.478  14.150 -0.2023  0.2217  0.4652
 1758TIP3    H126765   2.835   2.402  14.109 -0.4391  0.8937 -0.5898
 1758TIP3    H226766   2.928   2.442  14.222  1.3601 -1.1954 -1.2819
 1759TIP3   OH226767   5.684   6.088  13.613 -0.0920 -0.1978  0.2980
 1759TIP3    H126768   5.697   6.115  13.704  0.1598 -1.1428  0.5564
 1759TIP3    H226769   5.698   6.168  13.562  0.7151  0.1399  1.0169
 1760TIP3   OH226770   2.754   4.871  11.562 -0.4716 -0.1125  0.0770
 1760TIP3    H126771   2.778   4.903  11.475  1.5060  0.1555  0.6667
 1760TIP3    H226772   2.661   4.892  11.571 -0.8401 -0.5542 -2.1211
 1761TIP3   OH226773   6.855   2.584   9.661 -0.0876 -0.0636 -0.3749
 1761TIP3    H126774   6.850   2.533   9.580 -3.0493  1.4947 -1.2934
 1761TIP3    H226775   6.868   2.674   9.632 -0.5387  0.4370  0.9088
 1762TIP3   OH226776   6.967   1.407  11.385 -0.3937  0.0446  0.0137
 1762TIP3    H126777   6.971   1.377  11.294  0.9756 -1.0574  0.3986
 1762TIP3    H226778   6.975   1.328  11.437 -1.4744  0.6267  1.1295
 1763TIP3   OH226779   4.153   3.620  12.615 -0.2798  0.2046  0.5180
 1763TIP3    H126780   4.058   3.632  12.613 -0.4840 -1.3506 -0.2211
 1763TIP3    H226781   4.183   3.655  12.532 -0.3133 -0.1221  0.3687
 1764TIP3   OH226782   6.208   3.825   9.928 -0.3100  0.7104 -0.0683
 1764TIP3    H126783   6.125   3.811   9.883 -1.0818  0.8562  1.2621
 1764TIP3    H226784   6.206   3.765  10.003 -1.1311  3.5729  2.4179
 1765TIP3   OH226785   0.872   5.135  12.418 -0.1804  0.5863 -0.7320
 1765TIP3    H126786   0.905   5.127  12.508  0.9954 -1.5871 -1.2738
 1765TIP3    H226787   0.783   5.102  12.422 -0.4988  1.4819 -0.1967
 1766TIP3   OH226788   2.250   3.363  12.528 -0.0325  0.2785  0.9351
 1766TIP3    H126789   2.315   3.426  12.496  1.0719 -0.7443  1.1015
 1766TIP3    H226790   2.302   3.290  12.562 -1.2636 -0.2196  1.7978
 1767TIP3   OH226791   3.815   0.810   9.609 -0.1891  0.0841  0.4747
 1767TIP3    H126792   3.878   0.839   9.544 -0.0068  0.8055  0.9669
 1767TIP3    H226793   3.853   0.728   9.643  0.0098  0.0217  0.1113
 1768TIP3   OH226794   0.984   4.376  11.210  0.0982 -0.3395 -0.0717
 1768TIP3    H126795   1.071   4.358  11.244  1.2062 -0.0286 -2.4865
 1768TIP3    H226796   0.956   4.293  11.170  0.2861  0.1435 -1.2476
 1769TIP3   OH226797   6.674   5.313   9.946 -0.4074  0.3838 -0.0041
 1769TIP3    H126798   6.721   5.273   9.873 -1.6646  0.3547 -0.8290
 1769TIP3    H226799   6.737   5.314  10.018  1.8567  3.0155 -1.8448
 1770TIP3   OH226800   1.073   0.315  13.312  0.4994  0.0445  0.1646
 1770TIP3    H126801   0.980   0.290  13.312 -0.1322  2.1879  1.4093
 1770TIP3    H226802   1.099   0.307  13.220 -0.7974 -0.9654 -0.1500
 1771TIP3   OH226803   0.436   6.027  10.071  0.0495 -0.8041  0.4515
 1771TIP3    H126804   0.427   5.984   9.986  1.3733 -0.7668  0.2730
 1771TIP3    H226805   0.444   6.120  10.051 -1.5862 -0.5505  0.7678
 1772TIP3   OH226806   4.671   2.035  12.335 -0.2595 -0.2562  0.0117
 1772TIP3    H126807   4.604   2.085  12.288 -0.1571 -0.6939 -0.6140
 1772TIP3    H226808   4.707   1.975  12.269  0.7209 -0.0526  0.3460
 1773TIP3   OH226809   0.061   0.476  11.006  0.0070 -0.6802  0.4439
 1773TIP3    H126810   0.008   0.509  11.079  0.0531 -1.7455  0.9882
 1773TIP3    H226811   0.119   0.548  10.984 -0.8502  0.0867  0.6442
 1774TIP3   OH226812   5.223   3.458  12.569  0.2611  0.0277  0.0994
 1774TIP3    H126813   5.210   3.550  12.545 -3.0218  0.1828  1.7725
 1774TIP3    H226814   5.203   3.409  12.489  3.3471  0.6791 -1.1942
 1775TIP3   OH226815   0.792   0.159  10.289 -0.0365  0.0314 -0.4402
 1775TIP3    H126816   0.815   0.204  10.208  1.1962  0.6228  0.1979
 1775TIP3    H226817   0.877   0.134  10.327 -0.5935 -0.3472  0.5942
 1776TIP3   OH226818   4.970   0.542  13.440 -0.3467  0.2953 -0.3436
 1776TIP3    H126819   4.977   0.635  13.465 -1.8883  0.5912 -0.8877
 1776TIP3    H226820   5.034   0.531  13.371 -0.7283  1.1919 -0.8602
 1777TIP3   OH226821   3.754   6.086  13.251  0.1201 -0.3153 -0.4722
 1777TIP3    H126822   3.753   6.021  13.181  1.1650 -1.4082  0.4775
 1777TIP3    H226823   3.834   6.137  13.235 -0.1380  0.0488 -0.6105
 1778TIP3   OH226824   6.733   0.893  12.402  0.0911 -0.4600  0.5589
 1778TIP3    H126825   6.639   0.877  12.414  0.5204 -0.8627  4.5207
 1778TIP3    H226826   6.763   0.820  12.347 -1.6589 -1.0810  0.3573
 1779TIP3   OH226827   5.442   5.120  10.275  0.1260  0.4084 -0.2680
 1779TIP3    H126828   5.435   5.215  10.276  2.4484  0.6318 -0.3198
 1779TIP3    H226829   5.411   5.092  10.362  2.6022  1.5449  1.0635
 1780TIP3   OH226830   4.678   4.557  14.552 -0.2685 -0.7692  0.3125
 1780TIP3    H126831   4.660   4.463  14.549  1.4081 -1.1388  0.8759
 1780TIP3    H226832   4.687   4.583  14.460  1.7969 -1.7272  0.1890
 1781TIP3   OH226833   1.283   4.866  10.500  0.2521  0.0635 -0.9720
 1781TIP3    H126834   1.224   4.824  10.436 -0.8136 -1.1598  0.7161
 1781TIP3    H226835   1.225   4.895  10.570  1.6141 -1.4420  0.8944
 1782TIP3   OH226836   6.318   1.663  11.058 -0.4003 -0.1844  0.3046
 1782TIP3    H126837   6.344   1.731  10.996  2.1937 -1.3175  0.0012
 1782TIP3    H226838   6.269   1.600  11.005 -1.0440  0.4352  0.1499
 1783TIP3   OH226839   4.106   2.183   9.445 -0.0137  0.0058 -0.0791
 1783TIP3    H126840   4.198   2.164   9.460 -0.3807 -0.1743  2.2498
 1783TIP3    H226841   4.062   2.099   9.454 -0.4942  0.2240 -0.3307
 1784TIP3   OH226842   4.813   2.169   0.615 -0.1877  0.1694 -0.7665
 1784TIP3    H126843   4.801   2.261   0.638  0.3705 -0.1266  0.8426
 1784TIP3    H226844   4.733   2.126   0.645 -0.2442  0.0479 -1.0857
 1785TIP3   OH226845   6.259   3.490  12.509 -0.3157 -0.3597  0.0219
 1785TIP3    H126846   6.341   3.453  12.539  0.7789  2.4339  0.7523
 1785TIP3    H226847   6.205   3.498  12.588  0.2840  1.4703  0.2870
 1786TIP3   OH226848   5.348   1.990  11.719 -0.0620 -0.1402 -0.4479
 1786TIP3    H126849   5.283   1.988  11.648 -0.6132  1.9106 -0.0732
 1786TIP3    H226850   5.433   1.987  11.674 -0.4026  1.0439 -1.2409
 1787TIP3   OH226851   2.987   0.520   9.868 -0.2594  0.2317  0.2001
 1787TIP3    H126852   2.928   0.509   9.942  0.7283 -2.6991  0.7027
 1787TIP3    H226853   2.959   0.453   9.805  0.3061  1.1942 -1.1226
 1788TIP3   OH226854   1.893   5.012  12.984  0.3355 -0.0998  0.0307
 1788TIP3    H126855   1.928   4.934  13.026 -1.6027 -1.0237 -0.0115
 1788TIP3    H226856   1.877   4.985  12.893 -0.3868  0.3350  0.0285
 1789TIP3   OH226857   6.096   4.441   9.845  0.6658 -0.1409  0.1130
 1789TIP3    H126858   6.011   4.397   9.848  0.4134  0.2805 -0.5444
 1789TIP3    H226859   6.156   4.379   9.885 -0.3710  0.6391  3.1578
 1790TIP3   OH226860   2.909   4.802  12.590  0.0330  0.8802  0.3246
 1790TIP3    H126861   2.877   4.802  12.500  0.5013  0.1088  0.1493
 1790TIP3    H226862   2.994   4.848  12.586 -0.5406  2.0137  0.6138
 1791TIP3   OH226863   6.951   6.183  13.136 -0.7032 -0.0312 -0.3427
 1791TIP3    H126864   6.856   6.192  13.143 -0.4977  2.0595  0.7305
 1791TIP3    H226865   6.981   6.271  13.112  1.0733 -0.1246  1.2809
 1792TIP3   OH226866   1.700   5.918   9.590 -0.1820 -0.5609  0.7153
 1792TIP3    H126867   1.638   5.845   9.594  0.1909 -1.1007 -1.5523
 1792TIP3    H226868   1.652   5.992   9.626 -0.7192 -1.7998  2.6962
 1793TIP3   OH226869   4.566   0.536  15.245  0.0870 -0.4208  0.5411
 1793TIP3    H126870   4.600   0.453  15.212 -0.5677 -1.4748  2.3551
 1793TIP3    H226871   4.564   0.594  15.169  0.4085 -2.1235 -0.8105
 1794TIP3   OH226872   6.419   0.073   0.122  0.0655  0.0988  0.0051
 1794TIP3    H126873   6.420  -0.021   0.101  0.9355  0.5293 -2.1238
 1794TIP3    H226874   6.445   0.077   0.214 -1.4904 -1.8143  0.6127
 1795TIP3   OH226875   0.508   4.809   0.303  0.1212 -0.3994  0.7173
 1795TIP3    H126876   0.434   4.818   0.243  1.0160 -2.0252 -0.7217
 1795TIP3    H226877   0.566   4.881   0.281  1.0295 -1.6716 -1.3404
 1796TIP3   OH226878   3.027   3.409  11.214 -0.2509  0.0747 -0.0812
 1796TIP3    H126879   2.984   3.332  11.178  0.3954  0.5839 -2.0732
 1796TIP3    H226880   2.971   3.436  11.286 -0.7035 -1.9931  0.4153
 1797TIP3   OH226881   0.651   6.075  10.326  0.2928  0.0965  0.1435
 1797TIP3    H126882   0.709   6.129  10.273  1.4354 -2.0971 -0.9603
 1797TIP3    H226883   0.668   6.104  10.416  0.8114  1.5890 -0.4024
 1798TIP3   OH226884   5.910   6.127  15.298  0.3723 -0.2581 -0.0991
 1798TIP3    H126885   5.850   6.201  15.288  0.3327  0.0734  2.0529
 1798TIP3    H226886   5.975   6.139  15.229 -1.3450  0.0309 -1.7414
 1799TIP3   OH226887   7.059   2.740   9.484 -0.3151 -0.3040  0.6645
 1799TIP3    H126888   7.086   2.798   9.412  0.1823 -0.1256  0.9886
 1799TIP3    H226889   7.001   2.677   9.443 -0.1485 -0.1173  0.1291
 1800TIP3   OH226890   5.976   5.345  10.920 -0.3595  0.0646 -0.2848
 1800TIP3    H126891   6.067   5.319  10.906 -0.9741 -0.8207 -3.8313
 1800TIP3    H226892   5.965   5.346  11.015  2.9943 -0.9497  0.2482
 1801TIP3   OH226893   3.444   5.210  13.434  0.5100  0.0462  0.6314
 1801TIP3    H126894   3.369   5.241  13.484 -0.6543 -1.8368  0.1392
 1801TIP3    H226895   3.496   5.161  13.498 -0.1982 -1.0862  0.3590
 1802TIP3   OH226896   0.982   6.333   1.195 -0.2039  0.6133  0.4845
 1802TIP3    H126897   1.048   6.323   1.127 -0.9297  1.6048 -0.4044
 1802TIP3    H226898   0.959   6.243   1.219 -1.0673  0.1377 -1.7610
 1803TIP3   OH226899   2.142   4.825  10.005 -0.6394 -0.2427 -0.5616
 1803TIP3    H126900   2.178   4.737  10.004 -0.6101 -0.2651  0.6293
 1803TIP3    H226901   2.153   4.857   9.915  0.4902 -0.9812 -0.7076
 1804TIP3   OH226902   1.165   6.706  14.333 -0.0331 -0.3206 -0.0651
 1804TIP3    H126903   1.105   6.739  14.266 -0.9258 -0.9064  0.4236
 1804TIP3    H226904   1.221   6.781  14.354  0.1448 -0.0821 -1.3329
 1805TIP3   OH226905   5.939   4.200  10.073  0.1093  0.0702 -0.1894
 1805TIP3    H126906   5.870   4.135  10.082  0.6659 -0.5799 -0.4647
 1805TIP3    H226907   6.017   4.157  10.108  0.8163  0.0189 -1.7098
 1806TIP3   OH226908   6.179   0.796  10.519  0.1511  0.0480  0.2130
 1806TIP3    H126909   6.239   0.801  10.593 -0.7818 -1.5642  1.1138
 1806TIP3    H226910   6.095   0.774  10.557 -0.5135 -0.0929 -1.2699
 1807TIP3   OH226911   0.128   0.167   0.414 -0.0847  0.1189 -0.3742
 1807TIP3    H126912   0.123   0.214   0.331 -0.2539  0.0576 -0.3986
 1807TIP3    H226913   0.054   0.106   0.412 -0.7617  0.9016  0.3144
 1808TIP3   OH226914   6.426   1.516  10.492  0.1025 -0.4041 -0.0483
 1808TIP3    H126915   6.454   1.507  10.583 -1.8235 -0.2939  0.6054
 1808TIP3    H226916   6.438   1.428  10.455 -1.8234 -1.2611  1.1906
 1809TIP3   OH226917   1.911   1.451   0.971 -0.1368  0.0157  0.1518
 1809TIP3    H126918   1.896   1.517   1.039 -0.4785 -1.4324  1.5274
 1809TIP3    H226919   1.926   1.370   1.018 -0.5532 -1.0900 -1.5174
 1810TIP3   OH226920   2.694   4.402  13.430  0.1027  0.5900 -0.6681
 1810TIP3    H126921   2.708   4.389  13.336  0.6766 -1.4522 -0.3474
 1810TIP3    H226922   2.705   4.315  13.468  2.1534  1.7237  1.5968
 1811TIP3   OH226923   7.191   2.971  11.830 -0.3537 -0.1869 -0.3750
 1811TIP3    H126924   7.202   2.884  11.793  0.0793 -0.3271  0.0631
 1811TIP3    H226925   7.186   2.956  11.925  0.6520  0.3345 -0.2213
 1812TIP3   OH226926   1.580   6.900  10.536 -0.1293 -0.4165  0.4933
 1812TIP3    H126927   1.654   6.917  10.477 -0.4244 -0.5146  0.0888
 1812TIP3    H226928   1.527   6.979  10.531 -0.8957 -0.9617 -0.4892
 1813TIP3   OH226929   5.656   0.263  12.605 -0.2566 -0.2364  0.5001
 1813TIP3    H126930   5.714   0.206  12.556 -0.5491  1.0505 -1.4541
 1813TIP3    H226931   5.714   0.320  12.655  0.0486 -1.2971  1.4034
 1814TIP3   OH226932   3.688   3.706  10.443  0.4009  0.2722  0.0151
 1814TIP3    H126933   3.714   3.693  10.535  0.1770  2.0075  0.3655
 1814TIP3    H226934   3.593   3.695  10.444  0.4671 -0.3695 -0.1567
 1815TIP3   OH226935   0.084   6.563   9.691  0.4249 -0.3742 -0.4562
 1815TIP3    H126936   0.023   6.557   9.765 -0.0507 -0.6977 -0.8662
 1815TIP3    H226937   0.162   6.516   9.720  0.8176  0.7504  0.3894
 1816TIP3   OH226938   3.905   1.369  15.331 -0.4053  0.5217 -0.2588
 1816TIP3    H126939   3.920   1.365  15.237 -1.9679 -0.3213 -0.5190
 1816TIP3    H226940   3.827   1.425  15.341 -1.0183 -0.4040  0.3964
 1817TIP3   OH226941   1.039   4.471  11.996  0.4789 -0.2286 -0.0766
 1817TIP3    H126942   0.993   4.466  12.080 -0.3247 -1.4200 -0.5702
 1817TIP3    H226943   0.982   4.426  11.934  1.6556 -0.5139 -0.9969
 1818TIP3   OH226944   6.620   2.976  10.435 -0.4291  0.6548 -0.0014
 1818TIP3    H126945   6.715   2.976  10.424 -0.4189  0.2055  0.0421
 1818TIP3    H226946   6.601   2.891  10.475 -0.8668  0.6583 -0.1902
 1819TIP3   OH226947   2.665   6.940   0.512  0.6630  0.0134 -0.0720
 1819TIP3    H126948   2.625   6.853   0.512  0.6602 -0.0104  1.7729
 1819TIP3    H226949   2.674   6.962   0.419 -1.7167 -0.8344 -0.5672
 1820TIP3   OH226950   3.391   5.726  12.910 -0.0010  0.6775  0.2716
 1820TIP3    H126951   3.373   5.819  12.897 -0.1671  0.6655  0.4105
 1820TIP3    H226952   3.305   5.684  12.901  0.2847  0.3701 -1.2466
 1821TIP3   OH226953   2.217   3.820  12.971  0.0132 -0.2623  0.6367
 1821TIP3    H126954   2.200   3.751  13.035 -0.2314  2.0757  3.3117
 1821TIP3    H226955   2.305   3.801  12.938  0.5374 -1.0850  2.3772
 1822TIP3   OH226956   7.008   1.445  12.110 -0.1235  0.0212 -0.5413
 1822TIP3    H126957   7.030   1.509  12.042  0.0466 -0.6977 -1.1936
 1822TIP3    H226958   6.999   1.362  12.062  1.6030 -0.8305  0.5174
 1823TIP3   OH226959   6.715   3.318   9.765 -0.1079 -0.0960  0.2175
 1823TIP3    H126960   6.621   3.304   9.770 -0.1939  0.8304  2.3851
 1823TIP3    H226961   6.726   3.411   9.782  1.1056  0.3156 -2.3643
 1824TIP3   OH226962   5.112   0.223  10.769 -0.5602 -0.2508  0.0834
 1824TIP3    H126963   5.202   0.239  10.740 -0.8355  1.2155  0.0095
 1824TIP3    H226964   5.122   0.187  10.857  0.1566 -1.8715 -0.6112
 1825TIP3   OH226965   4.480   5.040  10.911  0.5947  0.0962 -0.0149
 1825TIP3    H126966   4.517   4.952  10.918 -0.9478 -0.7685 -1.7711
 1825TIP3    H226967   4.395   5.033  10.956  0.3899  0.6461 -0.3164
 1826TIP3   OH226968   1.988   6.665  12.176  0.2046  0.2438  0.3054
 1826TIP3    H126969   1.922   6.597  12.161 -2.0206  2.5638 -1.4015
 1826TIP3    H226970   1.966   6.701  12.262  0.8460 -0.5927  0.8316
 1827TIP3   OH226971   0.180   0.529  14.548 -0.0301 -0.2740 -0.1020
 1827TIP3    H126972   0.251   0.482  14.504 -0.0135  0.6748 -1.1391
 1827TIP3    H226973   0.106   0.469  14.547  0.3596 -0.7584 -0.2419
 1828TIP3   OH226974   1.358   2.219  12.886 -0.2328  0.7540  0.4656
 1828TIP3    H126975   1.343   2.139  12.937  1.9698  1.1677  1.9527
 1828TIP3    H226976   1.314   2.203  12.803  1.2206 -2.6122  0.1540
 1829TIP3   OH226977   1.782   5.650   0.317  0.4728 -0.2747 -0.4687
 1829TIP3    H126978   1.761   5.649   0.224 -0.9366 -0.0407 -0.1707
 1829TIP3    H226979   1.713   5.598   0.358 -0.9653  2.4236  0.8037
 1830TIP3   OH226980   4.043   1.391  11.030 -0.0496  0.2642  0.5578
 1830TIP3    H126981   4.063   1.301  11.003 -1.4666  0.6323 -2.0896
 1830TIP3    H226982   4.107   1.445  10.983 -0.9941  0.7917 -0.1529
 1831TIP3   OH226983   4.734   3.011  12.794  0.4500 -0.4738 -0.0525
 1831TIP3    H126984   4.806   3.011  12.856  0.9634 -2.6661 -0.5851
 1831TIP3    H226985   4.668   3.067  12.835  2.2618  1.3016  0.6009
 1832TIP3   OH226986   4.553   6.792  11.075 -0.0160 -0.2059 -0.0285
 1832TIP3    H126987   4.532   6.698  11.074  1.0149 -0.4447 -0.4810
 1832TIP3    H226988   4.580   6.812  10.986 -3.0722  1.2288 -0.7385
 1833TIP3   OH226989   4.294   3.534  10.076  0.2869  0.1251 -0.4364
 1833TIP3    H126990   4.297   3.580   9.992  1.5849  0.8917  0.0060
 1833TIP3    H226991   4.262   3.446  10.053  0.5252  0.3433 -1.7201
 1834TIP3   OH226992   7.211   0.396   3.625 -0.3913 -0.0061 -0.1780
 1834TIP3    H126993   7.139   0.446   3.587 -0.2968  0.1456 -0.1545
 1834TIP3    H226994   7.198   0.402   3.719  1.4453  2.7299  0.0269
 1835TIP3   OH226995   5.527   3.575   2.226  0.2057  0.4224 -0.4515
 1835TIP3    H126996   5.524   3.653   2.282 -1.1744  1.1617 -1.4695
 1835TIP3    H226997   5.550   3.609   2.139  0.5112 -0.4340 -0.7144
 1836TIP3   OH226998   4.773   1.918  10.731 -0.0681 -0.0217 -0.1563
 1836TIP3    H126999   4.852   1.865  10.734  1.2095  1.8028  0.8079
 1836TIP3    H227000   4.716   1.881  10.799  0.7739 -0.2027  0.4663
 1837TIP3   OH227001   2.864   5.145   0.484  0.5880  0.6700 -0.2795
 1837TIP3    H127002   2.946   5.121   0.441  0.2489  1.0445 -1.1645
 1837TIP3    H227003   2.823   5.208   0.424 -0.3184  0.5277  0.1739
 1838TIP3   OH227004   5.453   2.600  10.075 -0.8106  0.1238 -0.1861
 1838TIP3    H127005   5.480   2.645   9.995 -0.0290  1.9007  1.0127
 1838TIP3    H227006   5.359   2.587  10.064 -0.4419 -1.3674 -2.1610
 1839TIP3   OH227007   1.149   2.262   9.634 -0.4102  0.2753  0.4883
 1839TIP3    H127008   1.224   2.312   9.605 -2.0640  2.1086 -0.8859
 1839TIP3    H227009   1.113   2.223   9.554 -0.7013 -0.9429  1.1749
 1840TIP3   OH227010   1.314   2.648  13.183 -0.4008  0.5021 -0.3142
 1840TIP3    H127011   1.232   2.652  13.232 -0.7214  0.2092 -0.8268
 1840TIP3    H227012   1.319   2.732  13.138  0.3296  1.1399  0.8953
 1841TIP3   OH227013   6.733   3.717  13.293 -0.6542  0.2129  0.2122
 1841TIP3    H127014   6.758   3.678  13.209 -0.7953 -0.9474  0.6981
 1841TIP3    H227015   6.801   3.782  13.311  0.1128 -0.4885 -0.1359
 1842TIP3   OH227016   2.592   1.265   9.880  0.2129  0.1584 -0.1126
 1842TIP3    H127017   2.595   1.186   9.826 -1.4602 -0.4007  0.5519
 1842TIP3    H227018   2.580   1.336   9.816 -1.1700 -0.4347 -0.5492
 1843TIP3   OH227019   6.337   2.099  12.113  0.5802 -0.0154  0.1388
 1843TIP3    H127020   6.309   2.137  12.196 -0.6828  0.5700 -0.5309
 1843TIP3    H227021   6.298   2.012  12.112  0.8260 -0.1286  0.2735
 1844TIP3   OH227022   6.676   4.059   0.960  0.1240  0.1460  0.0923
 1844TIP3    H127023   6.737   4.102   0.900 -0.2272  0.3570 -0.1166
 1844TIP3    H227024   6.703   3.967   0.959 -0.8753 -0.1648 -1.6486
 1845TIP3   OH227025   1.710   7.211  10.824 -0.2887  0.0830 -0.3635
 1845TIP3    H127026   1.759   7.152  10.768 -1.2890  0.2436 -1.4324
 1845TIP3    H227027   1.621   7.212  10.788 -0.1491  2.7918 -0.8796
 1846TIP3   OH227028   4.590   4.411  14.060  0.6863  0.3432 -0.5566
 1846TIP3    H127029   4.610   4.337  14.117  1.1109 -0.1665 -1.3562
 1846TIP3    H227030   4.504   4.390  14.023  0.7956  0.2643 -0.7649
 1847TIP3   OH227031   6.106   1.610  11.900  0.1565  0.4577 -0.0960
 1847TIP3    H127032   6.163   1.537  11.923 -0.3521 -0.2746 -1.0680
 1847TIP3    H227033   6.077   1.590  11.811 -2.0128  0.5250  0.5300
 1848TIP3   OH227034   2.507   3.124   9.816  0.4737  0.8926 -0.0204
 1848TIP3    H127035   2.537   3.149   9.729  0.9290 -0.1883 -0.1881
 1848TIP3    H227036   2.415   3.151   9.818  0.8275  2.2307 -0.2946
 1849TIP3   OH227037   0.139   2.287  12.414  0.3298  0.2593 -0.1048
 1849TIP3    H127038   0.109   2.349  12.481  4.2205  2.1687  0.1471
 1849TIP3    H227039   0.201   2.230  12.460  1.4393  0.2087 -1.5979
 1850TIP3   OH227040   2.915   6.359  14.137  0.0806  0.3486 -0.4349
 1850TIP3    H127041   2.823   6.387  14.138 -0.2714 -0.6520 -2.1310
 1850TIP3    H227042   2.959   6.425  14.083 -0.0821 -0.3373 -1.4422
 1851TIP3   OH227043   7.068   3.322  10.828 -0.4658  0.2144 -0.9334
 1851TIP3    H127044   6.995   3.336  10.769  0.5854 -1.2012 -2.6803
 1851TIP3    H227045   7.041   3.363  10.910 -3.6455 -1.1376 -1.1553
 1852TIP3   OH227046   5.737   3.576  13.050  1.0652 -0.1540  0.0861
 1852TIP3    H127047   5.784   3.599  13.130 -2.4171  0.4885  2.1640
 1852TIP3    H227048   5.753   3.650  12.991  2.0189  0.3735  0.9618
 1853TIP3   OH227049   5.901   4.662  10.026  0.5020 -0.3481  0.4820
 1853TIP3    H127050   5.863   4.630   9.944 -1.1445  3.5906 -0.5103
 1853TIP3    H227051   5.996   4.660  10.011  0.3480 -1.8458 -0.5309
 1854TIP3   OH227052   0.218   5.226  12.028 -0.3601  0.4977  0.1620
 1854TIP3    H127053   0.272   5.163  11.979  0.1645  0.1602  1.1537
 1854TIP3    H227054   0.130   5.215  11.991 -0.1537 -0.3824 -0.1077
 1855TIP3   OH227055   6.968   0.204   0.479 -0.1734  0.5847  0.0616
 1855TIP3    H127056   6.899   0.163   0.531 -0.7370  1.9601  0.4330
 1855TIP3    H227057   6.989   0.285   0.526  1.2148  0.5266 -0.4207
 1856TIP3   OH227058   2.129   6.178  10.241  0.2208  0.5248 -0.3545
 1856TIP3    H127059   2.101   6.219  10.323 -0.3318  0.6754 -0.6067
 1856TIP3    H227060   2.188   6.242  10.201  0.1161  0.6612 -0.2947
 1857TIP3   OH227061   1.820   4.253  14.932 -0.2284 -0.4683  0.0243
 1857TIP3    H127062   1.880   4.278  15.003 -0.0112 -0.8119 -0.0385
 1857TIP3    H227063   1.776   4.174  14.965 -1.0329  0.0788  0.2907
 1858TIP3   OH227064   7.035   2.520  13.548 -0.2565  0.1556  0.3459
 1858TIP3    H127065   7.096   2.592  13.561  0.2390 -0.4522  1.6068
 1858TIP3    H227066   6.981   2.519  13.628 -0.7872 -0.3648 -0.0066
 1859TIP3   OH227067   5.553   3.005  10.004  0.1411  0.1646  0.7266
 1859TIP3    H127068   5.639   3.042   9.986  0.5006 -1.5580 -1.5650
 1859TIP3    H227069   5.491   3.067   9.964  0.3533  0.8152  1.3767
 1860TIP3   OH227070   1.661   0.855   9.454  0.5624  0.4979 -0.3710
 1860TIP3    H127071   1.636   0.822   9.540  0.1059  1.4013 -0.1531
 1860TIP3    H227072   1.663   0.777   9.398  2.6603 -0.4099  0.8388
 1861TIP3   OH227073   1.127   7.074  14.191 -0.1113  0.5167  0.5543
 1861TIP3    H127074   1.116   7.090  14.097  1.2529  0.2309  0.3271
 1861TIP3    H227075   1.099   6.983  14.203  0.7466  0.1937  0.2097
 1862TIP3   OH227076   0.473   3.250   9.902 -0.1901  0.5745 -0.6267
 1862TIP3    H127077   0.382   3.225   9.919 -0.4184  1.3022 -0.7404
 1862TIP3    H227078   0.503   3.187   9.836 -0.7266  0.5460 -0.8522
 1863TIP3   OH227079   3.560   1.261  15.406 -0.5160  0.5153 -0.0733
 1863TIP3    H127080   3.466   1.255  15.420 -0.4773 -0.0936 -0.0395
 1863TIP3    H227081   3.569   1.308  15.323 -0.8548  0.3818 -0.1884
 1864TIP3   OH227082   4.455   3.168  13.462  0.3580  0.0518  0.0747
 1864TIP3    H127083   4.529   3.216  13.425  0.7543 -0.9531 -0.4737
 1864TIP3    H227084   4.491   3.117  13.534  0.2798 -0.6580 -0.3691
 1865TIP3   OH227085   0.273   4.850  12.852 -0.1851  0.7371 -0.1876
 1865TIP3    H127086   0.346   4.909  12.831 -0.1065  0.8698  0.4472
 1865TIP3    H227087   0.315   4.770  12.882 -0.2895  0.2661 -1.2444
 1866TIP3   OH227088   6.030   3.262   9.842  0.0646 -0.1968 -0.3458
 1866TIP3    H127089   6.085   3.327   9.885  1.0703 -0.5337 -1.0794
 1866TIP3    H227090   6.085   3.225   9.773 -0.9545 -0.8291 -0.8587
 1867TIP3   OH227091   3.895   6.540  13.510  0.5383 -0.7542  0.4416
 1867TIP3    H127092   3.838   6.466  13.529  0.3625 -0.4325  1.1904
 1867TIP3    H227093   3.976   6.521  13.557  0.6998 -0.7430  0.1709
 1868TIP3   OH227094   2.227   4.135  14.358  0.3579 -0.4678 -0.3357
 1868TIP3    H127095   2.178   4.164  14.435 -0.5286 -0.2043 -0.9769
 1868TIP3    H227096   2.306   4.189  14.357 -0.4364  0.7349 -0.5395
 1869TIP3   OH227097   2.889   6.674  13.069 -0.5360  0.4720 -0.5953
 1869TIP3    H127098   2.811   6.721  13.041  0.1356  0.9939 -1.6689
 1869TIP3    H227099   2.882   6.669  13.164 -1.3089  1.5358 -0.5813
 1870TIP3   OH227100   2.584   0.364   1.804 -0.0631 -1.0323 -0.2155
 1870TIP3    H127101   2.509   0.423   1.795  0.1000 -0.5204  1.4750
 1870TIP3    H227102   2.563   0.311   1.881  1.0382 -1.3003 -0.0938
 1871TIP3   OH227103   4.721   6.728  12.014 -0.1411 -0.1988  0.0398
 1871TIP3    H127104   4.774   6.779  12.076 -0.4797  0.2865 -0.0761
 1871TIP3    H227105   4.786   6.686  11.957  0.2236 -1.2130  1.1350
 1872TIP3   OH227106   4.524   2.498  10.186  0.3387 -0.8999  0.0067
 1872TIP3    H127107   4.442   2.543  10.207  0.4597 -0.9313  0.5533
 1872TIP3    H227108   4.510   2.408  10.217  1.5796 -0.2600  2.6994
 1873TIP3   OH227109   6.964   3.854  10.821  0.1143 -0.2904  0.3245
 1873TIP3    H127110   6.936   3.936  10.780  2.3566 -0.4047 -1.6395
 1873TIP3    H227111   7.059   3.859  10.825  0.3411 -2.7899  0.1303
 1874TIP3   OH227112   1.585   5.475   0.443 -0.0801  0.2647 -0.3518
 1874TIP3    H127113   1.498   5.440   0.463  0.4604 -0.4804  0.7602
 1874TIP3    H227114   1.608   5.528   0.519 -0.3147  2.0227 -1.4332
 1875TIP3   OH227115   5.961   6.703   0.453 -0.1922  0.0358 -0.0168
 1875TIP3    H127116   5.900   6.635   0.424  0.4727 -1.4141  1.7562
 1875TIP3    H227117   5.943   6.713   0.547  1.6710  0.1839  0.3734
 1876TIP3   OH227118   0.445   0.516  11.216  0.0206 -0.7620 -0.0053
 1876TIP3    H127119   0.486   0.553  11.294  2.7740 -0.4397 -1.4448
 1876TIP3    H227120   0.397   0.588  11.176  2.9356  0.6551 -1.2467
 1877TIP3   OH227121   3.141   1.691  11.080 -0.4754 -0.3662 -0.1412
 1877TIP3    H127122   3.154   1.634  11.157  4.0198  0.3702 -0.0663
 1877TIP3    H227123   3.111   1.774  11.117 -3.2956 -1.4093  0.1483
 1878TIP3   OH227124   5.874   7.174  13.796 -0.5662  0.5761 -0.1061
 1878TIP3    H127125   5.786   7.157  13.828 -0.0802 -1.1684  0.4271
 1878TIP3    H227126   5.885   7.114  13.722  0.7335 -0.5049  0.9067
 1879TIP3   OH227127   6.016   2.145   9.422  0.2526 -0.4617  0.2783
 1879TIP3    H127128   6.067   2.069   9.449 -0.1831 -0.1740  2.0791
 1879TIP3    H227129   5.926   2.112   9.416  0.2573 -0.3801 -0.2369
 1880TIP3   OH227130   4.562   1.393   1.792  0.1497  0.1294 -0.0462
 1880TIP3    H127131   4.645   1.357   1.762 -0.3774 -0.6866 -0.5643
 1880TIP3    H227132   4.499   1.322   1.778 -0.7673  0.9908 -0.3464
 1881TIP3   OH227133   7.182   1.882  10.222 -0.2160  0.2856  0.4972
 1881TIP3    H127134   7.108   1.933  10.188  0.4012  0.3434 -0.8263
 1881TIP3    H227135   7.223   1.844  10.144  0.8846 -0.1184  1.2461
 1882TIP3   OH227136   4.145   5.840  13.392  0.1355  0.8094  0.0187
 1882TIP3    H127137   4.074   5.855  13.454 -1.4956 -2.7645 -0.6703
 1882TIP3    H227138   4.191   5.763  13.426  0.9519  0.4590 -1.7364
 1883TIP3   OH227139   0.835   4.864  10.621  0.0345  0.0954  0.6441
 1883TIP3    H127140   0.800   4.808  10.552 -1.3019  0.4862  0.9701
 1883TIP3    H227141   0.926   4.881  10.595 -0.0162 -0.9304 -0.2562
 1884TIP3   OH227142   0.827   5.223  11.229 -0.3992  0.4222 -0.3341
 1884TIP3    H127143   0.770   5.289  11.190 -1.0620 -0.5356 -1.0116
 1884TIP3    H227144   0.860   5.265  11.309  0.3923  2.1385 -1.4984
 1885TIP3   OH227145   5.107   4.002  10.141  0.0064 -0.2746  0.3527
 1885TIP3    H127146   5.089   4.083  10.093 -0.0051  0.0688  0.9247
 1885TIP3    H227147   5.157   4.030  10.218 -1.4654 -0.5823  1.4736
 1886TIP3   OH227148   6.083   1.655  13.732 -0.7097 -0.9193  0.1195
 1886TIP3    H127149   6.113   1.600  13.804 -1.0297 -0.7344  0.3959
 1886TIP3    H227150   6.080   1.743  13.768 -0.2631 -0.7287 -0.3064
 1887TIP3   OH227151   3.165   3.425  13.611 -0.1622 -0.4276 -0.2258
 1887TIP3    H127152   3.151   3.510  13.652  0.5334 -0.3411 -0.1448
 1887TIP3    H227153   3.147   3.362  13.680  0.0933 -0.3126 -0.0497
 1888TIP3   OH227154   4.476   4.019  13.004 -0.2846  0.1105 -0.1558
 1888TIP3    H127155   4.419   4.081  12.958  0.3695  0.3604 -0.6421
 1888TIP3    H227156   4.510   4.070  13.078  0.0487  0.2603 -0.4079
 1889TIP3   OH227157   5.493   4.865  12.822 -0.0451 -0.3022  0.0753
 1889TIP3    H127158   5.467   4.843  12.732  0.1309 -1.0389  0.1993
 1889TIP3    H227159   5.431   4.817  12.877  1.1830 -1.6019  0.3682
 1890TIP3   OH227160   6.487   5.251  15.010 -0.0863 -0.4617  0.3468
 1890TIP3    H127161   6.400   5.266  14.973  0.4521 -0.6342 -1.0653
 1890TIP3    H227162   6.541   5.226  14.935  1.4774  0.8316  0.9790
 1891TIP3   OH227163   2.138   2.857  10.463  0.1507  0.3596  0.3157
 1891TIP3    H127164   2.063   2.843  10.519  1.5195 -0.2914  2.0885
 1891TIP3    H227165   2.149   2.952  10.459 -1.2976  0.5171 -0.7910
 1892TIP3   OH227166   6.036   2.479  11.857  0.2391 -0.1965 -0.0858
 1892TIP3    H127167   6.103   2.456  11.922  1.6586  0.3425 -1.3089
 1892TIP3    H227168   6.022   2.399  11.807  0.6990 -0.0688 -0.4340
 1893TIP3   OH227169   4.069   5.182  12.460  0.3948 -0.1029 -0.0209
 1893TIP3    H127170   4.084   5.158  12.368  0.6730 -1.0126  0.2440
 1893TIP3    H227171   4.013   5.259  12.456  0.1383 -0.3200 -0.9569
 1894TIP3   OH227172   0.622   0.593  12.214  0.0121 -0.1299  0.5229
 1894TIP3    H127173   0.646   0.589  12.122 -0.9958  1.3347  0.1617
 1894TIP3    H227174   0.618   0.501  12.242  1.2578 -0.5548 -0.6110
 1895TIP3   OH227175   6.625   2.257  11.395 -0.5616  0.1078 -0.1037
 1895TIP3    H127176   6.573   2.221  11.468  2.8455 -3.5917  0.8653
 1895TIP3    H227177   6.694   2.308  11.438 -1.9714  3.2543 -1.2655
 1896TIP3   OH227178   4.221   3.742  10.222  0.3455  0.0584  0.0670
 1896TIP3    H127179   4.239   3.660  10.177  0.3829  0.0549  0.0887
 1896TIP3    H227180   4.267   3.808  10.171  1.0464 -0.0481  0.5551
 1897TIP3   OH227181   6.656   6.874  14.504  0.2495  0.1225  0.3751
 1897TIP3    H127182   6.572   6.833  14.521  0.7969 -1.2913 -0.1954
 1897TIP3    H227183   6.700   6.877  14.589 -0.3554  0.8396  0.6679
 1898TIP3   OH227184   0.027   0.873  14.717  0.2161  0.4588 -0.0252
 1898TIP3    H127185  -0.003   0.801  14.773  1.6421  0.1845  0.4156
 1898TIP3    H227186  -0.054   0.908  14.678 -0.5872 -0.7685  0.4756
 1899TIP3   OH227187   5.174   7.102  13.175  0.5488  0.1067  0.3189
 1899TIP3    H127188   5.092   7.113  13.223 -0.2710 -0.3667 -0.9477
 1899TIP3    H227189   5.206   7.015  13.201 -0.1364 -0.3495 -0.3189
 1900TIP3   OH227190   2.067   6.867  10.258  0.5739  0.1564 -0.2690
 1900TIP3    H127191   2.103   6.797  10.313  0.4958 -0.1773 -0.6370
 1900TIP3    H227192   2.143   6.922  10.236  1.0044 -0.9250 -1.6057
 1901TIP3   OH227193   1.338   1.728  10.709  0.2811 -0.7283  0.1840
 1901TIP3    H127194   1.251   1.719  10.671  0.8586 -0.7033 -1.2170
 1901TIP3    H227195   1.338   1.814  10.750 -0.5362 -0.9658  0.6866
 1902TIP3   OH227196   2.813   1.412  11.528  0.7587 -0.2597 -0.0124
 1902TIP3    H127197   2.790   1.458  11.609 -2.7667 -0.6829 -0.6243
 1902TIP3    H227198   2.819   1.320  11.555  3.4686 -0.0589  0.3786
 1903TIP3   OH227199   5.000   3.018  14.517  0.7072  0.2341  0.2874
 1903TIP3    H127200   4.907   3.032  14.501  0.9200  0.4715 -0.9204
 1903TIP3    H227201   5.007   3.002  14.611 -0.6141 -0.3935  0.3011
 1904TIP3   OH227202   4.061   3.472  14.658  0.4938  0.8745  0.4339
 1904TIP3    H127203   4.026   3.561  14.657  2.2395  1.6472  2.0843
 1904TIP3    H227204   4.144   3.479  14.706  1.0741 -1.5062 -0.0772
 1905TIP3   OH227205   1.624   4.096  13.730  0.0382  0.9421  0.3529
 1905TIP3    H127206   1.684   4.082  13.656 -0.4174 -0.1042  0.1736
 1905TIP3    H227207   1.679   4.139  13.796  0.9616  0.1265  0.1455
 1906TIP3   OH227208   1.005   0.809  13.378 -0.0806  0.3234  0.1463
 1906TIP3    H127209   1.048   0.868  13.316 -1.2948  0.2255 -0.8386
 1906TIP3    H227210   0.984   0.731  13.327 -0.6607  0.0339  0.8063
 1907TIP3   OH227211   1.076   6.497  11.601 -0.2899 -0.6346  0.0223
 1907TIP3    H127212   1.057   6.527  11.512  1.6471 -2.3274 -1.0327
 1907TIP3    H227213   1.150   6.551  11.629 -0.8968 -0.1041  0.6426
 1908TIP3   OH227214   2.237   4.084  11.454  0.9653 -0.8520  0.2913
 1908TIP3    H127215   2.291   4.117  11.526  2.6249 -1.2531 -0.7152
 1908TIP3    H227216   2.150   4.072  11.493  1.2889  0.8672  1.6982
 1909TIP3   OH227217   4.510   4.620  13.570  0.2512 -0.4834  0.1914
 1909TIP3    H127218   4.596   4.627  13.612 -0.1044 -0.1293  0.8798
 1909TIP3    H227219   4.522   4.552  13.504  1.0213 -0.5488  0.3805
 1910TIP3   OH227220   6.416   2.060  14.064 -0.1120  0.2197 -0.1627
 1910TIP3    H127221   6.498   2.108  14.063 -0.9700  1.7371 -1.0389
 1910TIP3    H227222   6.354   2.116  14.018 -1.3729 -1.3824 -0.5323
 1911TIP3   OH227223   0.073   4.798  12.344  0.3676  0.0558 -0.2483
 1911TIP3    H127224   0.047   4.836  12.428  0.0620 -1.0211  0.1582
 1911TIP3    H227225   0.142   4.856  12.312  0.9808  0.0897  1.0808
 1912TIP3   OH227226   2.908   0.914   0.929  0.0677 -0.7524  0.1417
 1912TIP3    H127227   2.952   0.829   0.922 -2.0774 -2.1437  1.9348
 1912TIP3    H227228   2.843   0.913   0.858  0.9385  0.0347 -0.6933
 1913TIP3   OH227229   5.220   2.387  13.381  0.1930  0.5250 -0.3711
 1913TIP3    H127230   5.171   2.469  13.382 -0.0972  0.3524  0.5965
 1913TIP3    H227231   5.297   2.404  13.437  0.3049  0.2429 -0.4387
 1914TIP3   OH227232   2.020   3.802  12.381  0.5921  0.5580  0.8208
 1914TIP3    H127233   1.933   3.792  12.341  0.4462  0.2661  1.2069
 1914TIP3    H227234   2.002   3.826  12.472  0.9184  0.5421  0.8903
 1915TIP3   OH227235   1.635   2.803  15.096 -0.0782  0.3642 -0.1539
 1915TIP3    H127236   1.540   2.806  15.094 -0.0787  0.3421 -0.1674
 1915TIP3    H227237   1.661   2.802  15.004 -0.0650  0.3761 -0.1505
 1916TIP3   OH227238   0.053   3.312  14.268  0.6086  0.1594 -0.0463
 1916TIP3    H127239   0.044   3.220  14.242 -1.3351 -1.0837  4.1744
 1916TIP3    H227240   0.148   3.327  14.268  0.9255 -1.2800 -2.1762
 1917TIP3   OH227241   0.442   0.412  13.487  0.6207  0.2169 -0.2713
 1917TIP3    H127242   0.538   0.411  13.487  0.6316 -0.1952 -1.3932
 1917TIP3    H227243   0.419   0.488  13.541  1.5599  0.0333  0.4122
 1918TIP3   OH227244   6.957   4.931  11.789 -0.7622  0.4143  0.5990
 1918TIP3    H127245   7.016   5.001  11.763  1.3967 -0.4464  2.8272
 1918TIP3    H227246   6.997   4.892  11.867 -2.8732 -2.0327  0.6257
 1919TIP3   OH227247   0.745   0.600  11.262  0.3714  0.0246 -0.0984
 1919TIP3    H127248   0.778   0.686  11.236 -0.8242  0.3360 -0.6385
 1919TIP3    H227249   0.665   0.588  11.211 -0.5419 -0.5695  1.4118
 1920TIP3   OH227250   6.396   2.967  11.514  0.2211  0.3278  0.6390
 1920TIP3    H127251   6.430   2.887  11.556  1.3076  0.2745 -0.3137
 1920TIP3    H227252   6.475   3.016  11.489 -0.4256  0.7913 -0.5137
 1921TIP3   OH227253   3.214   2.620  10.942 -0.3367  0.1922  0.7140
 1921TIP3    H127254   3.263   2.556  10.993 -2.0812 -1.5794  0.2630
 1921TIP3    H227255   3.234   2.704  10.984  1.1536 -0.7435  1.9898
 1922TIP3   OH227256   1.184   5.368  11.944 -0.2752  0.0874 -0.0062
 1922TIP3    H127257   1.120   5.336  12.008  0.2679  0.8116  0.9186
 1922TIP3    H227258   1.180   5.463  11.953  0.7406  0.1438 -0.1305
 1923TIP3   OH227259   5.538   3.266  12.357 -0.5114 -0.0795 -0.1324
 1923TIP3    H127260   5.475   3.337  12.344 -0.5036 -0.0098  0.2038
 1923TIP3    H227261   5.606   3.282  12.290 -0.5590  0.1741 -0.1220
 1924TIP3   OH227262   0.112   0.762  10.940  0.5025  0.5300 -0.0094
 1924TIP3    H127263   0.021   0.739  10.919  0.5246  0.0318  0.4368
 1924TIP3    H227264   0.122   0.851  10.906 -0.0426  0.4551 -0.3891
 1925TIP3   OH227265   6.776   4.371   9.538  0.2848  0.5251 -0.4496
 1925TIP3    H127266   6.862   4.399   9.510 -0.0996 -0.3372 -2.6884
 1925TIP3    H227267   6.758   4.291   9.488 -1.4609  0.1784  0.6018
 1926TIP3   OH227268   2.084   1.791  11.718 -0.1943  0.3572  0.4792
 1926TIP3    H127269   1.997   1.752  11.721  0.8984 -2.7927 -2.3490
 1926TIP3    H227270   2.137   1.737  11.776  0.4922  0.2955 -0.1929
 1927TIP3   OH227271   0.276   4.945  12.292  0.0121  0.0349 -0.2360
 1927TIP3    H127272   0.315   4.997  12.221  2.5807 -0.2720  0.8401
 1927TIP3    H227273   0.330   4.866  12.296 -0.0033  0.0679  2.0534
 1928TIP3   OH227274   4.072   5.766   0.740  0.0909  0.5544  0.2005
 1928TIP3    H127275   4.074   5.672   0.719  1.3840  0.8173 -0.9451
 1928TIP3    H227276   4.163   5.789   0.756 -0.2851  1.5150  1.0470
 1929TIP3   OH227277   1.016   1.315  12.012 -0.0699  0.2383 -0.4028
 1929TIP3    H127278   1.085   1.320  11.946 -0.1195 -1.8368 -0.6855
 1929TIP3    H227279   0.941   1.359  11.971  0.2703  0.0597 -1.2455
 1930TIP3   OH227280   6.270   0.303  10.751  0.1830 -0.7235  0.2162
 1930TIP3    H127281   6.242   0.216  10.724  0.6933 -0.7713 -0.1882
 1930TIP3    H227282   6.199   0.335  10.806 -0.2796 -1.1598 -0.1103
 1931TIP3   OH227283   3.928   6.512  13.228 -0.2622 -0.3973 -0.4365
 1931TIP3    H127284   3.835   6.493  13.220 -0.5472  0.1441  1.2068
 1931TIP3    H227285   3.941   6.527  13.321  1.9850 -3.0882 -0.1683
 1932TIP3   OH227286   2.456   5.283  11.504  0.3040  0.0215 -0.2706
 1932TIP3    H127287   2.546   5.306  11.482  0.8839 -3.2609 -2.1681
 1932TIP3    H227288   2.463   5.235  11.586  0.4032 -0.6328 -0.6510
 1933TIP3   OH227289   0.924   5.699  11.748  0.4231 -0.6327 -0.7718
 1933TIP3    H127290   0.914   5.792  11.765  1.2937 -0.6646  0.0420
 1933TIP3    H227291   0.851   5.658  11.794  1.8568 -0.5784  1.7274
 1934TIP3   OH227292   1.287   4.468  10.021  0.3701 -0.6381 -0.4717
 1934TIP3    H127293   1.342   4.415  10.078  0.1191 -0.2742  0.1206
 1934TIP3    H227294   1.343   4.490   9.947  1.3848  0.5766  0.5950
 1935TIP3   OH227295   1.147   0.726  12.375 -0.4194  0.3391  0.1284
 1935TIP3    H127296   1.213   0.682  12.322 -0.5130  0.8871 -0.4638
 1935TIP3    H227297   1.097   0.655  12.416  0.0360 -0.0840 -0.0407
 1936TIP3   OH227298   1.643   1.815  10.497  0.1847 -0.7574 -0.1815
 1936TIP3    H127299   1.614   1.776  10.415 -0.8452 -0.6621  0.1271
 1936TIP3    H227300   1.643   1.743  10.560 -1.8644 -0.2784  0.4243
 1937TIP3   OH227301   0.868   2.002  12.197  0.2611  0.4169  0.1857
 1937TIP3    H127302   0.845   2.056  12.122 -1.2623  0.2239  0.4824
 1937TIP3    H227303   0.785   1.964  12.226  1.0842 -1.0110  0.8112
 1938TIP3   OH227304   1.021   4.347  10.569  0.6909  0.4394  0.1320
 1938TIP3    H127305   1.116   4.339  10.559  1.6395  3.5880  4.0651
 1938TIP3    H227306   1.002   4.436  10.540 -0.4873  0.8346  1.9639
 1939TIP3   OH227307   7.211   1.981  10.871  0.4440 -0.1965  0.6066
 1939TIP3    H127308   7.176   1.960  10.784  1.3661  2.6693 -0.5906
 1939TIP3    H227309   7.228   1.896  10.912  0.2340 -1.6546 -2.1101
 1940TIP3   OH227310   6.184   5.334  11.401  0.4829  0.1664  0.5373
 1940TIP3    H127311   6.270   5.306  11.433 -0.2450 -1.0203  1.5402
 1940TIP3    H227312   6.123   5.305  11.469 -0.8998 -0.6077 -0.9921
 1941TIP3   OH227313   2.151   3.450  11.217  0.1425  0.6017  0.4054
 1941TIP3    H127314   2.164   3.528  11.163  0.3419 -0.5323 -1.2634
 1941TIP3    H227315   2.084   3.475  11.280  2.1132  2.9816  1.7499
 1942TIP3   OH227316   6.470   0.003  13.475  0.1141  0.6885  0.5635
 1942TIP3    H127317   6.505  -0.069  13.528 -0.4518  0.0769  0.1212
 1942TIP3    H227318   6.498   0.083  13.520  1.1974  0.2004  0.7754
 1943TIP3   OH227319   3.006   4.440  11.566 -0.2473 -0.6250  0.4682
 1943TIP3    H127320   3.080   4.447  11.505  0.0828 -2.0018  0.6805
 1943TIP3    H227321   2.956   4.520  11.551 -0.8117 -1.4130 -2.4651
 1944TIP3   OH227322   5.018   5.735  10.356  0.2053 -0.5768  0.0505
 1944TIP3    H127323   5.109   5.763  10.348  0.7680 -1.6323  2.0680
 1944TIP3    H227324   5.017   5.648  10.315 -0.1272 -0.2232 -0.7225
 1945TIP3   OH227325   1.852   0.219  11.172 -0.4192  0.0596 -0.5380
 1945TIP3    H127326   1.830   0.220  11.266  0.1373  0.7416 -0.4047
 1945TIP3    H227327   1.885   0.131  11.156 -0.1282  0.0650  0.0062
 1946TIP3   OH227328   5.191   5.146  13.035  0.0227 -0.3765  0.1996
 1946TIP3    H127329   5.224   5.107  13.116 -3.6798 -3.7664  0.3791
 1946TIP3    H227330   5.202   5.078  12.969 -0.9123  0.6921 -1.1229
 1947TIP3   OH227331   2.733   4.242  11.615  0.7088 -0.4948 -0.1454
 1947TIP3    H127332   2.724   4.337  11.607  1.3076 -0.3937  0.2465
 1947TIP3    H227333   2.736   4.227  11.710  0.9985 -0.8625 -0.2120
 1948TIP3   OH227334   1.587   5.991  10.440 -0.1563  0.0740  0.0411
 1948TIP3    H127335   1.676   6.012  10.411  0.3829 -1.3237  0.6068
 1948TIP3    H227336   1.589   5.897  10.459 -1.6642  0.0858  0.4101
 1949TIP3   OH227337   3.788   3.289  11.222 -0.1712  0.0400 -0.0441
 1949TIP3    H127338   3.706   3.262  11.263  0.9859 -0.3195  2.2272
 1949TIP3    H227339   3.806   3.220  11.158 -1.9613  0.5112 -1.1165
 1950TIP3   OH227340   5.348   5.677  10.738  0.3233  0.4745  0.2309
 1950TIP3    H127341   5.389   5.763  10.727  0.0611  0.5719  0.0087
 1950TIP3    H227342   5.278   5.691  10.801  0.8013  0.2483  0.8262
 1951TIP3   OH227343   5.470   4.357  10.136 -0.0702 -0.7734 -0.3543
 1951TIP3    H127344   5.393   4.410  10.113  0.1477 -0.3703 -0.1678
 1951TIP3    H227345   5.540   4.421  10.149  0.4257 -1.1691 -1.0107
 1952TIP3   OH227346   3.865   4.103  14.042 -0.1081  0.4864 -0.2208
 1952TIP3    H127347   3.810   4.027  14.021 -0.0978  0.1254  0.9835
 1952TIP3    H227348   3.812   4.179  14.016 -0.4066  0.0924 -0.7852
 1953TIP3   OH227349   0.803   2.822  12.967 -0.1601 -0.0753 -0.1938
 1953TIP3    H127350   0.894   2.793  12.975 -1.1349 -4.5890 -2.4797
 1953TIP3    H227351   0.766   2.813  13.054  0.8065 -1.4591  0.0904
 1954TIP3   OH227352   5.119   0.668  11.205 -0.5254  0.3815  0.2723
 1954TIP3    H127353   5.136   0.761  11.224 -0.9540 -0.1664  4.3127
 1954TIP3    H227354   5.063   0.639  11.277 -1.2135 -2.8466 -1.3685
 1955TIP3   OH227355   7.206   6.204  10.337  0.5751  1.0622  0.6658
 1955TIP3    H127356   7.131   6.260  10.357 -0.1640  0.7090 -0.9029
 1955TIP3    H227357   7.227   6.160  10.419 -1.7069  0.2783  0.8931
 1956TIP3   OH227358   3.040   4.869   3.116  0.5621  0.5830  0.7789
 1956TIP3    H127359   3.022   4.852   3.023 -1.1860  0.4306  1.1064
 1956TIP3    H227360   2.992   4.801   3.163  0.6428  1.2288  1.8275
 1957TIP3   OH227361   1.873   1.838  13.916 -0.4546  0.0935  0.2940
 1957TIP3    H127362   1.967   1.838  13.936 -0.4623  1.6724  0.4254
 1957TIP3    H227363   1.860   1.916  13.863 -1.5152 -0.7394 -0.7141
 1958TIP3   OH227364   5.869   2.348   9.805  0.4056 -0.1647 -0.4776
 1958TIP3    H127365   5.871   2.432   9.759  2.2477 -0.5824 -1.2626
 1958TIP3    H227366   5.905   2.367   9.891  0.6574 -0.1096 -0.5940
 1959TIP3   OH227367   1.367   0.565  12.613 -0.8933 -0.2487 -0.5838
 1959TIP3    H127368   1.378   0.579  12.519 -0.9812 -3.2092 -1.1330
 1959TIP3    H227369   1.448   0.599  12.652  0.0740 -0.8562 -1.9802
 1960TIP3   OH227370   3.424   3.688  10.487  0.0131 -0.0595  0.0114
 1960TIP3    H127371   3.398   3.644  10.569  0.5246 -0.2818  0.0588
 1960TIP3    H227372   3.364   3.653  10.422 -1.1403  0.9559  0.4868
 1961TIP3   OH227373   4.965   0.810  13.504  0.2175  0.3045  0.0360
 1961TIP3    H127374   5.020   0.841  13.577  2.6510 -0.6169 -1.3056
 1961TIP3    H227375   4.958   0.886  13.446  0.5167  0.2586 -0.0571
 1962TIP3   OH227376   5.924   6.457  11.167 -0.5994  0.5164 -0.2389
 1962TIP3    H127377   6.014   6.431  11.148 -0.0983  1.3572  0.8939
 1962TIP3    H227378   5.907   6.530  11.108 -0.5423  0.3872 -0.4200
 1963TIP3   OH227379   1.223   5.206  11.397  0.4359  0.1424 -0.2115
 1963TIP3    H127380   1.163   5.228  11.468  0.1163 -2.0640  0.2513
 1963TIP3    H227381   1.310   5.217  11.436  0.3694  2.1266 -0.5133
 1964TIP3   OH227382   3.120   2.321  12.305  0.0930  0.1501 -0.6215
 1964TIP3    H127383   3.110   2.400  12.251  1.2453  0.4247 -0.4491
 1964TIP3    H227384   3.046   2.266  12.280  0.4161  0.4042 -2.2617
 1965TIP3   OH227385   2.785   5.600  12.957  0.5660 -0.1232  0.0552
 1965TIP3    H127386   2.785   5.566  12.867 -1.3449 -2.3510  0.7944
 1965TIP3    H227387   2.694   5.590  12.986  0.6227  2.6765  1.5252
 1966TIP3   OH227388   1.901   3.727   0.627  0.3404  0.4919 -0.6868
 1966TIP3    H127389   1.939   3.718   0.714 -0.0236  1.7045 -0.3753
 1966TIP3    H227390   1.974   3.713   0.567  0.4043 -1.3138 -0.2393
 1967TIP3   OH227391   6.906   4.884  13.063 -0.7404 -0.3937  0.8993
 1967TIP3    H127392   6.884   4.904  13.154 -0.9140 -0.4996  0.8803
 1967TIP3    H227393   6.830   4.837  13.029 -0.2877 -1.1969  0.9781
 1968TIP3   OH227394   0.906   2.328   4.989 -0.4969 -0.7121  0.2048
 1968TIP3    H127395   0.992   2.311   5.027 -0.7026 -1.5226  0.3340
 1968TIP3    H227396   0.844   2.314   5.061 -0.6987  0.5840  0.3054
 1969TIP3   OH227397   5.114   0.864   9.691 -0.3365 -0.1143  0.5148
 1969TIP3    H127398   5.089   0.772   9.687  0.2490 -0.2749  0.3143
 1969TIP3    H227399   5.204   0.863   9.726 -0.8399  0.4771  1.9111
 1970TIP3   OH227400   3.972   4.835  11.849  0.1189  0.1775  0.2740
 1970TIP3    H127401   3.977   4.913  11.905 -0.7700  0.4311  0.0137
 1970TIP3    H227402   3.888   4.843  11.804  1.2131  0.4709 -1.8353
 1971TIP3   OH227403   2.571   1.331   9.312 -0.1403  0.1511  0.4560
 1971TIP3    H127404   2.590   1.348   9.220  1.3121 -1.9964  0.2839
 1971TIP3    H227405   2.598   1.411   9.357 -1.0096  1.2898 -0.9644
 1972TIP3   OH227406   1.736   5.853  10.205 -0.3746 -0.1134  0.2493
 1972TIP3    H127407   1.762   5.784  10.144 -1.8548 -1.3275  0.8986
 1972TIP3    H227408   1.649   5.826  10.236 -0.6809  1.6758  1.1055
 1973TIP3   OH227409   5.476   5.709  14.716  0.0763  0.0603 -0.5325
 1973TIP3    H127410   5.517   5.776  14.771  0.3992 -0.6652  0.1349
 1973TIP3    H227411   5.397   5.684  14.763 -1.7184  2.0855 -2.2365
 1974TIP3   OH227412   0.539   4.847  11.396 -0.2795  0.2536  0.0686
 1974TIP3    H127413   0.541   4.942  11.392 -1.1264  0.2505 -0.6251
 1974TIP3    H227414   0.612   4.824  11.454  0.5580  1.2665 -0.5537
 1975TIP3   OH227415   2.188   0.989  10.964  0.8515  0.1094 -0.1819
 1975TIP3    H127416   2.145   0.905  10.947  0.0874  0.2111  1.1665
 1975TIP3    H227417   2.269   0.966  11.009  0.9445  0.0758 -0.3621
 1976TIP3   OH227418   2.079   7.065   9.709 -0.1651 -0.4781  0.1766
 1976TIP3    H127419   1.991   7.075   9.674  0.5888 -2.6816 -2.7410
 1976TIP3    H227420   2.134   7.121   9.654  0.7240 -2.0343 -0.5839
 1977TIP3   OH227421   3.950   5.609  11.185 -0.0943  0.2887  0.3764
 1977TIP3    H127422   3.962   5.528  11.137 -1.8933  0.4888 -0.4811
 1977TIP3    H227423   4.033   5.622  11.232  0.5971 -1.4664 -0.2969
 1978TIP3   OH227424   2.307   0.075  12.130 -0.6052  0.5194  0.2988
 1978TIP3    H127425   2.352   0.138  12.073  0.1180  0.3099  0.6297
 1978TIP3    H227426   2.230   0.122  12.161 -0.7043  0.8345 -0.3945
 1979TIP3   OH227427   5.897   0.126  13.168 -0.0848  0.4729 -0.2503
 1979TIP3    H127428   5.878   0.133  13.075 -0.5114  0.9076 -0.1332
 1979TIP3    H227429   5.829   0.068  13.203  0.4730 -0.2400 -0.3229
 1980TIP3   OH227430   1.608   4.656  11.461 -0.4782 -0.0507  0.1243
 1980TIP3    H127431   1.635   4.728  11.404 -0.9237  0.9904  1.1670
 1980TIP3    H227432   1.573   4.700  11.539  1.2838 -1.3922  1.7608
 1981TIP3   OH227433   3.726   4.084  15.207  0.1269 -0.2450  0.3474
 1981TIP3    H127434   3.645   4.066  15.254 -0.1043 -0.3883 -0.0956
 1981TIP3    H227435   3.700   4.139  15.134  0.4244 -0.3117  0.1856
 1982TIP3   OH227436   2.826   5.237  12.780 -0.2482 -0.2191 -0.0796
 1982TIP3    H127437   2.764   5.310  12.790  0.0865  0.6031 -2.8762
 1982TIP3    H227438   2.782   5.177  12.720  1.0847 -0.2711 -1.0449
 1983TIP3   OH227439   4.853   5.019  10.129 -0.0558 -0.1189 -0.1267
 1983TIP3    H127440   4.774   5.023  10.183  0.1288 -0.8471  0.1988
 1983TIP3    H227441   4.891   4.933  10.147  0.4518 -0.0432 -0.7931
 1984TIP3   OH227442   6.426   6.110  11.934  0.3672  0.4947 -0.3747
 1984TIP3    H127443   6.392   6.199  11.927 -0.1956  0.2298 -1.1003
 1984TIP3    H227444   6.377   6.071  12.007 -0.9701  0.0902 -1.4600
 1985TIP3   OH227445   6.030   5.223  14.871 -0.4149  0.2954  0.1556
 1985TIP3    H127446   5.995   5.273  14.798  2.0434  2.4056  0.2799
 1985TIP3    H227447   6.120   5.254  14.880 -0.5503  0.0581  3.9648
 1986TIP3   OH227448   4.862   4.741  14.638  0.4510 -0.2492  0.2894
 1986TIP3    H127449   4.798   4.671  14.629  0.0176  0.1817 -0.0894
 1986TIP3    H227450   4.811   4.821  14.625  1.3352  0.0459 -1.8554
 1987TIP3   OH227451   7.218   3.820  13.310 -0.1618  0.0923 -0.1711
 1987TIP3    H127452   7.220   3.823  13.406 -0.6893 -0.8772 -0.1208
 1987TIP3    H227453   7.257   3.736  13.287 -0.2711  0.2088 -0.8074
 1988TIP3   OH227454   2.345   3.017  11.863  0.5449 -0.0746  0.1167
 1988TIP3    H127455   2.314   2.959  11.793 -0.0891  1.1043 -0.6096
 1988TIP3    H227456   2.269   3.069  11.887  1.7976  2.8050 -1.5991
 1989TIP3   OH227457   6.042   4.481   1.881 -0.9235 -0.3961 -0.3318
 1989TIP3    H127458   6.097   4.440   1.814  1.0585  1.4716  0.0514
 1989TIP3    H227459   6.034   4.572   1.852 -1.0585  0.1531  1.3565
 1990TIP3   OH227460   4.090   3.583  15.204 -0.2610 -0.3719 -0.0013
 1990TIP3    H127461   4.137   3.632  15.136 -0.2011 -0.2871  0.1016
 1990TIP3    H227462   4.058   3.505  15.158 -0.6203 -0.0856 -0.2356
 1991TIP3   OH227463   3.672   0.555  15.312 -0.2979  0.1038  0.3405
 1991TIP3    H127464   3.650   0.480  15.367 -1.0789 -0.3085 -0.5167
 1991TIP3    H227465   3.588   0.585  15.278  0.2857 -0.9435 -2.2925
 1992TIP3   OH227466   1.619   6.697  12.096  0.2805  0.3773 -0.1723
 1992TIP3    H127467   1.626   6.619  12.041 -1.6423  1.2450 -1.7601
 1992TIP3    H227468   1.637   6.666  12.185  3.0605 -1.1506 -1.1465
 1993TIP3   OH227469   6.861   3.643  13.057 -0.6874  0.2404  0.1892
 1993TIP3    H127470   6.820   3.569  13.013 -0.7002 -0.3600  1.1764
 1993TIP3    H227471   6.954   3.620  13.062 -0.6688  0.3517  0.3649
 1994TIP3   OH227472   3.344   1.170   2.262  0.5471  0.0547  0.0055
 1994TIP3    H127473   3.347   1.108   2.334 -2.6289  0.3615  0.5655
 1994TIP3    H227474   3.258   1.156   2.222  1.0935  1.8122 -1.9719
 1995TIP3   OH227475   2.939   1.572   2.998  0.2185  0.0090  0.0541
 1995TIP3    H127476   2.944   1.668   2.993 -0.6866  0.0768  0.2336
 1995TIP3    H227477   2.982   1.542   2.918 -2.5978  0.7068 -1.8775
 1996TIP3   OH227478   6.907   3.090   9.536  0.0486  0.6269  0.7713
 1996TIP3    H127479   6.865   3.015   9.493 -0.5408  1.2435  0.2448
 1996TIP3    H227480   6.847   3.163   9.520 -0.3600  0.8158  2.9427
 1997TIP3   OH227481   3.755   2.995  13.373 -0.4691 -0.5185  0.3065
 1997TIP3    H127482   3.834   2.965  13.328 -0.4904  0.9331 -0.7632
 1997TIP3    H227483   3.684   2.981  13.311 -0.6819  0.3886  0.3246
 1998TIP3   OH227484   6.134   1.613  12.676 -0.1450 -0.8318  0.4152
 1998TIP3    H127485   6.125   1.520  12.658  1.0679 -0.8295 -0.2839
 1998TIP3    H227486   6.101   1.624  12.766 -0.1944 -1.9423  0.5408
 1999TIP3   OH227487   1.904   2.429  11.615 -0.6552 -0.5262 -0.5917
 1999TIP3    H127488   1.996   2.448  11.634 -1.5990  0.9921  3.5073
 1999TIP3    H227489   1.906   2.344  11.572  2.6830  0.0328 -1.8497
 2000TIP3   OH227490   1.289   5.119  10.324 -0.1394  0.3878 -0.6435
 2000TIP3    H127491   1.238   5.146  10.400  0.8651  0.2036  0.1144
 2000TIP3    H227492   1.317   5.030  10.345  0.7580  0.6027 -0.8890
 2001TIP3   OH227493   0.358   0.241   2.013 -0.0553 -0.1325 -0.4307
 2001TIP3    H127494   0.277   0.281   1.979  1.2928  2.0599 -1.3263
 2001TIP3    H227495   0.395   0.308   2.071  1.2044 -1.0321 -0.1516
 2002TIP3   OH227496   6.900   3.129   9.815 -0.4436 -0.0954 -0.0716
 2002TIP3    H127497   6.938   3.099   9.732 -1.5655 -2.2666  0.1309
 2002TIP3    H227498   6.849   3.207   9.791  0.4616  0.1995 -1.1253
 2003TIP3   OH227499   4.918   0.377  11.258  0.5361 -1.0076  0.2061
 2003TIP3    H127500   4.900   0.286  11.232 -2.0382 -0.2840 -0.9329
 2003TIP3    H227501   4.833   0.409  11.291  0.9880  1.3977 -0.7776
 2004TIP3   OH227502   6.942   1.935   2.853 -0.0720  0.2810  0.4073
 2004TIP3    H127503   6.906   2.021   2.878  2.3035  2.6515 -3.2749
 2004TIP3    H227504   7.036   1.951   2.845  0.3634 -2.5099 -1.0554
 2005TIP3   OH227505   4.569   6.414   9.803 -0.1045 -0.0254  0.3409
 2005TIP3    H127506   4.607   6.486   9.754 -0.8831  0.6033  0.6358
 2005TIP3    H227507   4.573   6.339   9.744  0.5840  0.2883 -0.0159
 2006TIP3   OH227508   6.839   2.414  12.455  0.1433 -0.6686 -0.0544
 2006TIP3    H127509   6.920   2.465  12.457 -1.2251  1.7829 -1.9056
 2006TIP3    H227510   6.780   2.461  12.514 -0.9041 -0.5199 -1.1808
 2007TIP3   OH227511   6.930   3.326   0.283 -0.0316  0.3675 -0.0616
 2007TIP3    H127512   6.843   3.288   0.297  0.6157 -0.9102  0.6677
 2007TIP3    H227513   6.940   3.389   0.355 -1.7122  3.2342 -2.1073
 2008TIP3   OH227514   4.347   4.314  13.530 -0.2617 -0.3919 -0.5123
 2008TIP3    H127515   4.252   4.328  13.532 -0.0543  1.0636  0.9135
 2008TIP3    H227516   4.364   4.258  13.606 -0.1017 -1.6823 -1.4756
 2009TIP3   OH227517   4.896   1.782  14.618  0.5527 -0.0648 -0.3232
 2009TIP3    H127518   4.825   1.766  14.680  0.5582  1.4167  0.1134
 2009TIP3    H227519   4.894   1.707  14.558 -0.8115 -0.4742  0.2053
 2010TIP3   OH227520   3.221   1.153  10.564  0.2346 -0.0147  0.0864
 2010TIP3    H127521   3.159   1.206  10.613  0.3825 -0.8221  1.1985
 2010TIP3    H227522   3.306   1.173  10.604  0.5337  0.2032 -0.6398
 2011TIP3   OH227523   0.112   4.176  10.590 -0.5082  0.3064 -0.3636
 2011TIP3    H127524   0.106   4.171  10.686 -1.4330 -0.1917 -0.4428
 2011TIP3    H227525   0.191   4.125  10.569  0.1336  1.0460  0.1769
 2012TIP3   OH227526   2.385   4.091  10.726 -0.6068 -0.2492 -0.1687
 2012TIP3    H127527   2.378   4.048  10.641  0.7208  0.0754 -0.4735
 2012TIP3    H227528   2.412   4.021  10.786 -0.6418 -0.2986 -0.2109
 2013TIP3   OH227529   3.237   5.179  12.984 -0.1662  0.1376  0.5355
 2013TIP3    H127530   3.145   5.206  12.987 -0.3565 -0.1410 -1.3874
 2013TIP3    H227531   3.246   5.135  12.899  0.7633 -3.4781  2.3058
 2014TIP3   OH227532   4.560   5.925   0.867  0.7268  0.4702  0.7077
 2014TIP3    H127533   4.624   5.856   0.882 -0.3432 -0.5736  0.6828
 2014TIP3    H227534   4.591   5.970   0.788 -0.3933 -2.3462 -1.5313
 2015TIP3   OH227535   5.136   1.919   0.629 -0.4247 -0.2712 -0.1337
 2015TIP3    H127536   5.220   1.923   0.674 -1.2892 -0.1835  1.5536
 2015TIP3    H227537   5.147   1.976   0.553  0.7877  0.4133  0.5230
 2016TIP3   OH227538   1.918   4.481  12.779  0.2628  0.1381  0.5035
 2016TIP3    H127539   1.854   4.487  12.708  1.1443  3.2240 -0.1882
 2016TIP3    H227540   2.000   4.458  12.735  0.5224  0.6328  0.7219
 2017TIP3   OH227541   4.210   1.057  14.946  0.3315 -0.5296  0.2730
 2017TIP3    H127542   4.282   1.118  14.962 -0.6391  0.8618 -0.3909
 2017TIP3    H227543   4.190   1.068  14.853 -3.5489  2.4973  1.1990
 2018TIP3   OH227544   2.152   0.915  12.225  0.3642  0.0998  0.7837
 2018TIP3    H127545   2.064   0.918  12.188  0.8576 -0.0319 -0.4728
 2018TIP3    H227546   2.188   0.831  12.196  0.6026 -0.2374  2.0199
 2019TIP3   OH227547   7.103   0.222  14.571 -0.1506  0.1494  0.6865
 2019TIP3    H127548   7.011   0.240  14.552 -0.1142 -0.4646 -0.1355
 2019TIP3    H227549   7.145   0.220  14.485  1.0222  2.3289  1.1375
 2020TIP3   OH227550   2.277   2.129  11.407 -0.4831  0.1059  0.2313
 2020TIP3    H127551   2.226   2.089  11.477 -1.9749 -0.7941 -1.3099
 2020TIP3    H227552   2.347   2.066  11.390 -0.7008 -0.1403  0.2440
 2021TIP3   OH227553   6.806   2.313   1.467 -0.0663  0.0638 -0.3851
 2021TIP3    H127554   6.885   2.346   1.424 -0.0599 -0.6232 -0.9010
 2021TIP3    H227555   6.735   2.336   1.407 -0.2775  0.7365  0.1073
 2022TIP3   OH227556   4.434   2.000  10.945  0.2970 -0.1655  0.1708
 2022TIP3    H127557   4.452   1.950  10.866 -1.3999 -1.6678  0.6848
 2022TIP3    H227558   4.441   1.937  11.016  0.3704  0.8385  1.0783
 2023TIP3   OH227559   1.993   6.628  13.183 -0.5795 -0.5375 -0.2612
 2023TIP3    H127560   2.017   6.675  13.263  0.2938  0.2212 -0.9493
 2023TIP3    H227561   1.902   6.601  13.197 -0.2166 -1.0756  1.2874
 2024TIP3   OH227562   6.700   0.093  11.631  0.8721 -0.0742 -0.0283
 2024TIP3    H127563   6.793   0.082  11.651  0.4884 -0.7833  1.5280
 2024TIP3    H227564   6.660   0.118  11.715 -0.0239  2.5760 -1.1285
 2025TIP3   OH227565   5.303   1.733   1.272 -0.5136  0.2663  0.1889
 2025TIP3    H127566   5.322   1.772   1.187  0.6956 -0.1534  0.2376
 2025TIP3    H227567   5.267   1.646   1.251 -2.6492  1.1252  0.0918
 2026TIP3   OH227568   2.200   5.898  10.400  0.3349  0.3740 -0.4336
 2026TIP3    H127569   2.106   5.890  10.419  0.7346 -1.0553  1.2443
 2026TIP3    H227570   2.206   5.893  10.305 -1.2223 -0.7278 -0.5108
 2027TIP3   OH227571   2.164   1.554   0.510  0.2714 -0.2263  0.1036
 2027TIP3    H127572   2.074   1.547   0.477  0.2644 -0.3793  0.1590
 2027TIP3    H227573   2.204   1.470   0.490  0.9588  0.4523 -1.6015
 2028TIP3   OH227574   6.538   5.569   0.132 -0.3618  0.2103 -0.3460
 2028TIP3    H127575   6.469   5.555   0.067 -0.5615  0.5771 -0.2207
 2028TIP3    H227576   6.507   5.522   0.210  0.7745 -1.8502 -1.0697
 2029TIP3   OH227577   3.303   4.789  11.442 -0.3074 -0.5127 -0.0622
 2029TIP3    H127578   3.242   4.818  11.510  0.8616  1.6276  0.1721
 2029TIP3    H227579   3.382   4.840  11.458 -0.2302  0.6981 -3.4732
 2030TIP3   OH227580   4.377   0.614   9.923 -0.3831 -0.0325 -0.8453
 2030TIP3    H127581   4.443   0.560   9.881 -1.8058 -1.2880 -1.5878
 2030TIP3    H227582   4.294   0.587   9.882 -1.4915  0.7222  0.7724
 2031TIP3   OH227583   2.186   3.194  13.783  0.1552  0.2796 -0.4343
 2031TIP3    H127584   2.167   3.110  13.741 -0.8293 -0.0524  0.6436
 2031TIP3    H227585   2.153   3.185  13.872 -1.3632  2.3349 -0.7174
 2032TIP3   OH227586   6.532   1.668  12.752 -0.2036 -0.6360 -0.4359
 2032TIP3    H127587   6.577   1.608  12.812 -0.1176  1.4779  1.7804
 2032TIP3    H227588   6.594   1.681  12.680  3.2404  2.4705  2.6594
 2033TIP3   OH227589   3.609   4.212  12.980  0.0798  0.3882  0.1601
 2033TIP3    H127590   3.668   4.252  12.916  0.5524  0.4719  0.6513
 2033TIP3    H227591   3.535   4.273  12.985  0.4559  0.8313  0.3581
 2034TIP3   OH227592   0.637   2.401  10.985  0.3605  0.5287  0.9044
 2034TIP3    H127593   0.665   2.479  11.032 -0.8924  1.0706  0.7809
 2034TIP3    H227594   0.716   2.373  10.937  1.3639  0.5470  2.4844
 2035TIP3   OH227595   2.395   2.674   3.535 -0.1106 -0.0494 -0.0987
 2035TIP3    H127596   2.389   2.750   3.477  0.5309  0.1309  0.0629
 2035TIP3    H227597   2.360   2.602   3.484 -2.3003  0.6539  0.3315
 2036TIP3   OH227598   5.273   6.220  12.443 -0.0872 -0.5812 -0.0027
 2036TIP3    H127599   5.223   6.176  12.512  2.4079 -1.2784  1.5097
 2036TIP3    H227600   5.287   6.309  12.476  0.2681 -0.6094 -0.0719
 2037TIP3   OH227601   4.593   6.992  11.953 -0.0249  0.7566  0.2711
 2037TIP3    H127602   4.526   7.008  12.019 -1.2071 -1.4479 -0.2804
 2037TIP3    H227603   4.651   6.926  11.993 -0.0550  0.2956 -0.4222
 2038TIP3   OH227604   5.463   4.392  10.775 -0.5176  0.5694  0.2502
 2038TIP3    H127605   5.511   4.311  10.756 -0.5098  0.6641 -0.1318
 2038TIP3    H227606   5.440   4.385  10.868 -0.4860  0.1426  0.2269
 2039TIP3   OH227607   6.691   4.502  13.846 -0.6911  0.9166  0.6787
 2039TIP3    H127608   6.607   4.532  13.813 -2.1535 -1.2820  2.0987
 2039TIP3    H227609   6.697   4.411  13.816  1.3736  1.1159  0.3294
 2040TIP3   OH227610   2.943   1.397  12.924  0.1932  0.1368 -0.2697
 2040TIP3    H127611   2.878   1.465  12.944  1.9635  1.3021  2.1933
 2040TIP3    H227612   2.903   1.316  12.954 -1.0599  0.4149 -1.1119
 2041TIP3   OH227613   1.081   3.372  10.360  0.3234 -0.4670  0.4445
 2041TIP3    H127614   1.034   3.293  10.332  0.4502 -0.1165 -0.8282
 2041TIP3    H227615   1.060   3.437  10.293 -0.6813  0.9467  2.0445
 2042TIP3   OH227616   4.354   6.138  14.656 -0.2752  0.2571  0.2348
 2042TIP3    H127617   4.444   6.121  14.625 -0.5081 -1.2478  0.2990
 2042TIP3    H227618   4.313   6.185  14.584  0.4225  0.5486  0.0119
 2043TIP3   OH227619   5.593   7.201  11.251 -0.3059  0.0692  0.2194
 2043TIP3    H127620   5.645   7.281  11.239 -0.1329 -0.2645 -1.5252
 2043TIP3    H227621   5.656   7.130  11.239 -0.9545 -0.3318 -0.9169
 2044TIP3   OH227622   6.619   7.172  10.394  0.5173  0.1507  0.0247
 2044TIP3    H127623   6.585   7.179  10.483  0.5637 -0.0751  0.0594
 2044TIP3    H227624   6.605   7.259  10.357  2.1030  0.7729  0.8181
 2045TIP3   OH227625   4.398   7.157  13.206  0.4284  0.0435 -0.2897
 2045TIP3    H127626   4.390   7.155  13.301 -0.3294  2.1106 -0.2667
 2045TIP3    H227627   4.310   7.179  13.175  1.0390  1.0856 -1.3681
 2046TIP3   OH227628   6.750   1.052  11.209  0.1127 -0.8458 -0.5859
 2046TIP3    H127629   6.837   1.092  11.203 -1.2087  2.4509 -0.1651
 2046TIP3    H227630   6.701   1.091  11.137 -1.2216 -2.0848 -0.3903
 2047TIP3   OH227631   7.004   5.702  14.881  0.0179 -0.2994  0.2466
 2047TIP3    H127632   6.929   5.739  14.928 -0.5693 -2.0633  0.7750
 2047TIP3    H227633   7.059   5.778  14.860 -1.7261  0.9936  0.1525
 2048TIP3   OH227634   1.627   3.433   2.834 -0.2456  0.2051 -0.2912
 2048TIP3    H127635   1.689   3.383   2.888 -1.5774 -0.6493  0.4959
 2048TIP3    H227636   1.672   3.516   2.818  0.9601 -0.2476  0.5515
 2049TIP3   OH227637   4.305   4.102  11.801 -0.5756 -0.2528  0.1121
 2049TIP3    H127638   4.228   4.067  11.757  0.9088  0.4230 -3.4304
 2049TIP3    H227639   4.300   4.196  11.786  0.7168 -0.1644  0.0906
 2050TIP3   OH227640   1.123   5.186  11.125 -0.2902  0.4545  0.3800
 2050TIP3    H127641   1.181   5.195  11.201 -0.4271 -0.6800  0.6375
 2050TIP3    H227642   1.043   5.147  11.160 -0.0470 -0.8703 -0.4494
 2051TIP3   OH227643   1.321   6.974  10.394 -0.4485  0.7462 -0.3112
 2051TIP3    H127644   1.338   6.884  10.369 -0.8909  1.0642 -1.8589
 2051TIP3    H227645   1.314   7.022  10.311 -0.6704  2.1194  0.4577
 2052TIP3   OH227646   5.907   4.990  15.016 -0.6752  0.2034  0.1570
 2052TIP3    H127647   5.950   5.063  14.973 -0.7344  0.5064  0.6055
 2052TIP3    H227648   5.959   4.913  14.992 -0.2939  0.4706  0.1329
 2053TIP3   OH227649   6.126   5.480  13.079 -0.0355  1.0108  0.2114
 2053TIP3    H127650   6.146   5.518  13.165  0.5431 -1.1825  1.1146
 2053TIP3    H227651   6.033   5.458  13.083  0.1796  0.1135  0.6504
 2054TIP3   OH227652   6.517   6.729  12.817 -0.1093 -0.0146  0.0604
 2054TIP3    H127653   6.530   6.723  12.722  0.7719 -2.4888  0.2578
 2054TIP3    H227654   6.542   6.643  12.850  0.3272  1.0101  2.6444
 2055TIP3   OH227655   0.668   3.061  10.557  0.0216 -0.5013 -0.4422
 2055TIP3    H127656   0.635   3.082  10.470 -0.3077 -0.9649 -0.4311
 2055TIP3    H227657   0.739   3.124  10.572  1.5365 -1.7562 -1.9249
 2056TIP3   OH227658   2.574   3.960   9.442  0.2616 -0.3160 -0.4787
 2056TIP3    H127659   2.521   3.892   9.482  2.0379 -0.6246  1.5059
 2056TIP3    H227660   2.514   4.034   9.430 -0.8376 -0.9773  0.7479
 2057TIP3   OH227661   6.487   3.487  10.359 -0.0699 -0.5735 -0.2137
 2057TIP3    H127662   6.464   3.463  10.449  0.2271  1.1075  0.3343
 2057TIP3    H227663   6.559   3.549  10.368 -0.9617  0.7068 -1.5417
 2058TIP3   OH227664   0.106   7.202   4.774 -0.2331  0.3781  0.1409
 2058TIP3    H127665   0.021   7.184   4.814 -0.8209  1.6781 -0.4662
 2058TIP3    H227666   0.086   7.217   4.681  0.6905  0.4616 -0.0497
 2059TIP3   OH227667   5.632   5.233  12.737  0.1967 -0.5963 -0.0932
 2059TIP3    H127668   5.586   5.175  12.675  0.1826 -1.2466  0.5108
 2059TIP3    H227669   5.581   5.226  12.818  1.8658 -2.1207  0.9021
 2060TIP3   OH227670   4.243   3.939   2.151 -0.0739  0.0777  0.5628
 2060TIP3    H127671   4.218   4.026   2.181 -2.4227 -0.1258 -0.5237
 2060TIP3    H227672   4.335   3.931   2.173 -0.3916  1.8752  2.8969
 2061TIP3   OH227673   3.686   5.664  11.186 -0.0443 -0.6332  0.3912
 2061TIP3    H127674   3.778   5.650  11.164 -0.1853 -0.7594 -0.1355
 2061TIP3    H227675   3.644   5.682  11.101 -0.7050 -1.6562  0.4923
 2062TIP3   OH227676   4.326   2.173   3.502 -0.7417 -0.0161 -0.1701
 2062TIP3    H127677   4.348   2.260   3.471  1.7452 -1.2760 -2.3028
 2062TIP3    H227678   4.372   2.165   3.586 -0.2871  0.4421 -0.3721
 2063TIP3   OH227679   3.057   2.644   1.433 -0.5464 -0.5266  0.1772
 2063TIP3    H127680   3.011   2.603   1.360  1.1926  0.5176 -1.6046
 2063TIP3    H227681   2.997   2.637   1.507 -1.9651 -2.5550 -1.0638
 2064TIP3   OH227682   6.858   5.248   9.519 -0.0975  0.6470 -0.0056
 2064TIP3    H127683   6.936   5.231   9.466  0.9221  0.6603  1.4271
 2064TIP3    H227684   6.862   5.341   9.540  1.0169  0.1590  2.2790
 2065TIP3   OH227685   3.908   3.973  14.432  0.1446  0.1035  0.0684
 2065TIP3    H127686   3.891   3.946  14.342  1.9169  0.9482 -0.5725
 2065TIP3    H227687   3.946   3.895  14.474 -0.3019 -0.1688 -0.0320
 2066TIP3   OH227688   0.653   2.203  13.384  0.1583 -0.3736  0.1085
 2066TIP3    H127689   0.725   2.153  13.424  1.3291  0.1610 -1.2321
 2066TIP3    H227690   0.584   2.203  13.450 -0.0710 -4.0289  0.0611
 2067TIP3   OH227691   5.872   0.043   9.415 -0.4514 -0.2244 -0.3561
 2067TIP3    H127692   5.788  -0.001   9.409 -0.0551 -1.2009  0.8405
 2067TIP3    H227693   5.861   0.105   9.487 -0.6195  0.7865 -1.2275
 2068TIP3   OH227694   3.776   7.004  12.945  0.1668 -0.4478  0.2449
 2068TIP3    H127695   3.783   6.914  12.913  1.2692 -0.9242  1.7130
 2068TIP3    H227696   3.686   7.011  12.977 -0.3855 -0.5308 -1.2368
 2069TIP3   OH227697   6.641   5.266  14.106 -0.4385 -0.4704 -0.2061
 2069TIP3    H127698   6.625   5.195  14.168  2.0371 -0.3543  0.6539
 2069TIP3    H227699   6.696   5.226  14.038  2.0211  0.8392  0.9167
 2070TIP3   OH227700   2.507   6.774  12.792  0.3861  0.1943  0.4156
 2070TIP3    H127701   2.497   6.833  12.717 -0.3853  1.0084  1.1520
 2070TIP3    H227702   2.422   6.774  12.836  0.6650 -0.7016  0.9986
 2071TIP3   OH227703   5.612   2.397  15.107 -0.5566 -0.3012 -0.1602
 2071TIP3    H127704   5.519   2.419  15.113 -0.9480 -2.0230  0.7766
 2071TIP3    H227705   5.652   2.473  15.065 -2.3432  0.5706 -0.3794
 2072TIP3   OH227706   5.062   3.210   9.812 -0.1848  0.2997 -0.1433
 2072TIP3    H127707   5.010   3.129   9.815  2.9644 -1.9012  0.2201
 2072TIP3    H227708   5.075   3.226   9.718  0.1996 -0.3800 -0.2165
 2073TIP3   OH227709   0.770   5.952  14.148 -0.0124  0.4363  0.2227
 2073TIP3    H127710   0.693   6.002  14.176 -0.6683 -0.5238  0.1535
 2073TIP3    H227711   0.778   5.883  14.214 -0.0343 -0.3000 -0.5434
 2074TIP3   OH227712   3.011   3.744  14.273  0.3917 -0.3490 -0.3596
 2074TIP3    H127713   3.067   3.708  14.342 -1.0825  0.3798  1.3131
 2074TIP3    H227714   2.973   3.667  14.231  2.5110 -0.8576 -1.4927
 2075TIP3   OH227715   4.851   6.675  12.830  0.5724  0.2769 -0.3780
 2075TIP3    H127716   4.840   6.612  12.758 -0.1638  0.0424 -0.0645
 2075TIP3    H227717   4.785   6.650  12.895  0.6316  1.0424 -0.0082
 2076TIP3   OH227718   2.178   2.392  11.063 -0.0847  0.0598 -0.9088
 2076TIP3    H127719   2.136   2.446  10.997  0.7066 -0.9816 -2.3146
 2076TIP3    H227720   2.142   2.423  11.146 -0.3499  2.0647 -1.7309
 2077TIP3   OH227721   6.489   3.504  11.936 -0.1982  0.0119 -0.4669
 2077TIP3    H127722   6.475   3.514  12.030  0.4407 -0.5091 -0.3117
 2077TIP3    H227723   6.509   3.411  11.924  2.6054  0.5440 -0.6990
 2078TIP3   OH227724   0.046   5.839   9.814 -0.0596 -0.4720 -0.2576
 2078TIP3    H127725   0.105   5.765   9.800 -0.4541 -0.7054 -0.7203
 2078TIP3    H227726   0.092   5.914   9.777  0.2268 -0.5287 -0.0248
 2079TIP3   OH227727   0.785   6.990  10.324 -0.1754  0.0727 -0.0760
 2079TIP3    H127728   0.872   6.949  10.327 -1.3186 -2.6576  3.8055
 2079TIP3    H227729   0.731   6.928  10.276 -0.3488  1.0951 -1.2510
 2080TIP3   OH227730   4.217   4.375  10.701 -0.5626 -0.0367  0.1334
 2080TIP3    H127731   4.205   4.431  10.624  0.3566  2.3337  1.6057
 2080TIP3    H227732   4.180   4.425  10.774  2.1221 -0.3460  1.8689
 2081TIP3   OH227733   6.075   2.522  11.191 -0.0860 -0.0459  0.1081
 2081TIP3    H127734   6.136   2.595  11.189 -0.3217  0.1389 -0.6477
 2081TIP3    H227735   6.004   2.551  11.249  1.0008 -0.6545  1.8291
 2082TIP3   OH227736   4.619   3.359  12.422 -0.9596 -0.0868 -0.3157
 2082TIP3    H127737   4.668   3.277  12.417 -1.4969 -0.9110  4.0002
 2082TIP3    H227738   4.527   3.333  12.425 -1.1788  0.6906  0.3441
 2083TIP3   OH227739   4.300   3.037  10.193 -0.3746  0.3665  0.4737
 2083TIP3    H127740   4.220   2.994  10.222  0.6208 -1.2466  0.9230
 2083TIP3    H227741   4.328   2.987  10.117  0.8353  0.1842  1.0276
 2084TIP3   OH227742   0.062   4.120  13.313  0.1152  0.7577  0.0141
 2084TIP3    H127743   0.047   4.122  13.218 -0.8004  0.7252  0.1533
 2084TIP3    H227744   0.014   4.043  13.343 -0.4727  1.3606  0.6486
 2085TIP3   OH227745   6.382   3.277  10.207  0.3522 -0.4154 -0.0313
 2085TIP3    H127746   6.407   3.335  10.279  1.7883  0.4905 -1.1989
 2085TIP3    H227747   6.464   3.236  10.179 -0.5861 -3.0568  0.7044
 2086TIP3   OH227748   1.274   4.022   0.081  0.9089  0.5282 -0.1703
 2086TIP3    H127749   1.314   4.108   0.065  1.1071  1.1536  3.0980
 2086TIP3    H227750   1.344   3.969   0.119  0.0461 -0.1329  0.5320
 2087TIP3   OH227751   5.571   2.070  12.699  0.2315 -0.5151 -0.0545
 2087TIP3    H127752   5.535   2.018  12.771 -1.6570  1.5604  0.6197
 2087TIP3    H227753   5.503   2.135  12.680  1.8352  0.7452 -1.8409
 2088TIP3   OH227754   2.597   0.632  12.419  0.0211  0.1380 -0.3150
 2088TIP3    H127755   2.592   0.547  12.374  0.3359 -0.3459  0.5587
 2088TIP3    H227756   2.509   0.669  12.408  0.3794  0.5221 -2.2560
 2089TIP3   OH227757   3.494   0.986  12.741 -0.2962 -0.1183 -0.1410
 2089TIP3    H127758   3.590   0.976  12.737 -0.3419 -0.4316 -0.4765
 2089TIP3    H227759   3.467   0.991  12.650 -0.8516 -2.4209 -0.1613
 2090TIP3   OH227760   4.274   3.529   9.311  0.2047  1.0447 -0.3201
 2090TIP3    H127761   4.298   3.468   9.380 -0.4937 -0.2712 -1.2098
 2090TIP3    H227762   4.309   3.491   9.231 -1.6283  0.9321 -1.1303
 2091TIP3   OH227763   2.401   2.077   9.991 -0.2257 -0.3290 -0.0023
 2091TIP3    H127764   2.342   2.087  10.066 -1.2497 -2.1778 -0.5046
 2091TIP3    H227765   2.345   2.043   9.921  1.4915 -2.6213 -0.3634
 2092TIP3   OH227766   1.850   2.024  13.687 -0.3979  0.0655  0.1627
 2092TIP3    H127767   1.844   2.109  13.644  0.6479 -0.2037 -0.5623
 2092TIP3    H227768   1.936   1.991  13.663  0.3888  0.0310  2.7490
 2093TIP3   OH227769   4.432   3.474  12.980 -0.0672  0.0313  0.0802
 2093TIP3    H127770   4.425   3.498  13.072  0.5545  1.7434 -0.2785
 2093TIP3    H227771   4.525   3.483  12.959 -0.1986 -0.3231 -0.7237
 2094TIP3   OH227772   6.451   1.276  13.238  0.5217 -0.2363  0.5375
 2094TIP3    H127773   6.453   1.372  13.245 -0.2612 -0.2997  1.6993
 2094TIP3    H227774   6.520   1.247  13.298  1.4001 -0.3980 -0.5029
 2095TIP3   OH227775   6.119   3.216  14.269  0.5753 -0.1570  0.5192
 2095TIP3    H127776   6.155   3.165  14.196 -0.7139  1.6059 -1.4915
 2095TIP3    H227777   6.194   3.263  14.305  1.0702 -0.1878 -0.4386
 2096TIP3   OH227778   2.829   5.657  12.315 -0.5458 -0.8484 -0.3765
 2096TIP3    H127779   2.774   5.669  12.393  0.6105 -0.4696  0.4092
 2096TIP3    H227780   2.771   5.677  12.242 -0.9555  1.5202  0.5059
 2097TIP3   OH227781   1.212   6.701  11.891  0.3178 -0.0923 -0.5278
 2097TIP3    H127782   1.180   6.789  11.872  0.7102 -0.3027 -2.3171
 2097TIP3    H227783   1.294   6.694  11.841 -0.6965 -2.1223 -2.0149
 2098TIP3   OH227784   4.056   6.766  15.127  0.3098  0.2037 -0.6755
 2098TIP3    H127785   3.991   6.697  15.142  1.4901 -0.6942  0.6279
 2098TIP3    H227786   4.011   6.830  15.073 -1.1430 -1.1390 -1.1429
 2099TIP3   OH227787   0.104   0.996  10.768  0.5510  0.5965 -0.0584
 2099TIP3    H127788   0.146   1.058  10.708  3.5475 -1.1265  0.0747
 2099TIP3    H227789   0.096   0.915  10.717  0.3211 -0.0145  0.9202
 2100TIP3   OH227790   5.094   3.890  10.603 -0.1034 -0.0564  0.1251
 2100TIP3    H127791   5.013   3.840  10.609 -0.9932  1.2898 -0.1454
 2100TIP3    H227792   5.120   3.883  10.512  0.1666 -0.5977  0.2401
 2101TIP3   OH227793   6.808   4.294  10.510  0.5524  0.2793 -0.2086
 2101TIP3    H127794   6.749   4.359  10.546 -0.3532  0.1469 -1.3617
 2101TIP3    H227795   6.879   4.344  10.470 -0.6047  0.6602 -1.8965
 2102TIP3   OH227796   5.206   0.616  11.658 -0.1290  0.4455 -0.3398
 2102TIP3    H127797   5.169   0.608  11.746  1.4078  1.6947  0.4665
 2102TIP3    H227798   5.266   0.690  11.663 -1.2285  1.6523 -2.9084
 2103TIP3   OH227799   4.348   0.773  10.163 -0.3689  0.5260  0.0153
 2103TIP3    H127800   4.408   0.734  10.227 -0.0309  1.5016  0.3008
 2103TIP3    H227801   4.362   0.722  10.083  0.2434  0.2181  0.3102
 2104TIP3   OH227802   3.487   7.103  11.928 -0.3295 -0.3698 -0.0523
 2104TIP3    H127803   3.442   7.174  11.974  0.3801 -1.0414  1.7524
 2104TIP3    H227804   3.417   7.044  11.900 -0.7984  0.2430 -0.1987
 2105TIP3   OH227805   2.434   6.703  11.374 -0.3690 -0.3931 -0.0129
 2105TIP3    H127806   2.446   6.631  11.312 -0.2287 -0.9839  0.6874
 2105TIP3    H227807   2.343   6.730  11.364 -0.2825 -0.3287 -0.6391
 2106TIP3   OH227808   5.219   3.456  13.416 -0.3653 -0.3518 -1.1146
 2106TIP3    H127809   5.261   3.476  13.499  0.3370  1.1916 -1.7940
 2106TIP3    H227810   5.126   3.476  13.430 -0.1011  0.8464 -0.9569
 2107TIP3   OH227811   4.788   5.101  11.036 -0.0352 -0.5244 -0.3531
 2107TIP3    H127812   4.732   5.178  11.033 -0.2743 -0.7111 -1.1397
 2107TIP3    H227813   4.870   5.131  11.075 -0.2668  0.0306 -0.2985
 2108TIP3   OH227814   3.828   6.482  11.670 -0.1797  0.1720 -0.7572
 2108TIP3    H127815   3.746   6.505  11.715  0.3023 -0.8861  0.7758
 2108TIP3    H227816   3.808   6.399  11.626  0.4503 -0.9510  0.9571
 2109TIP3   OH227817   1.256   5.732  10.007  0.4312 -0.1312 -0.5088
 2109TIP3    H127818   1.169   5.695  10.017  1.3039 -2.2735 -0.3767
 2109TIP3    H227819   1.298   5.678   9.941  2.0453  0.1006  0.2834
 2110TIP3   OH227820   2.629   2.581  10.130 -0.1938 -0.0179 -0.4543
 2110TIP3    H127821   2.669   2.658  10.171 -1.0999  0.6969 -0.8713
 2110TIP3    H227822   2.660   2.583  10.040 -0.5903  0.1451 -0.5922
 2111TIP3   OH227823   0.834   3.374  14.686 -0.4274  0.1298 -0.1847
 2111TIP3    H127824   0.765   3.395  14.748  0.1657  1.7162 -0.0099
 2111TIP3    H227825   0.906   3.341  14.740 -0.3664  0.2868 -0.1709
 2112TIP3   OH227826   5.647   0.678   0.652 -0.9846  0.3624  0.1251
 2112TIP3    H127827   5.553   0.660   0.649 -1.2672  1.8265 -1.1977
 2112TIP3    H227828   5.672   0.691   0.561  0.6814 -0.7089  0.3867
 2113TIP3   OH227829   0.142   3.964  13.782  0.9205  0.0727  1.0232
 2113TIP3    H127830   0.101   4.010  13.855 -1.3337 -0.1267 -0.0389
 2113TIP3    H227831   0.194   4.031  13.737 -1.7768  1.5401 -0.1235
 2114TIP3   OH227832   2.056   4.767   9.506  0.3866  0.2615  0.1351
 2114TIP3    H127833   1.987   4.760   9.440  0.0391  0.5345  0.4654
 2114TIP3    H227834   2.080   4.860   9.507 -1.4544  0.8122  2.2207
 2115TIP3   OH227835   2.268   3.846  12.257  0.5419 -0.0514  0.1653
 2115TIP3    H127836   2.181   3.841  12.296  1.4662 -1.0603  2.2386
 2115TIP3    H227837   2.270   3.932  12.214 -0.4153  1.3860  2.7744
 2116TIP3   OH227838   0.786   4.202  11.487  0.3301  0.4540  0.4543
 2116TIP3    H127839   0.737   4.132  11.531 -0.4636 -0.9676 -2.4329
 2116TIP3    H227840   0.868   4.209  11.536 -1.0920  0.1099  3.0286
 2117TIP3   OH227841   7.078   0.738  10.076  0.5974 -0.3976 -0.0687
 2117TIP3    H127842   7.073   0.643  10.064  0.0614 -0.1478 -2.0432
 2117TIP3    H227843   7.075   0.774   9.988  0.4845  1.4861  0.6596
 2118TIP3   OH227844   3.428   5.081  10.091 -0.1993 -0.2635  0.2244
 2118TIP3    H127845   3.421   5.046  10.003 -0.7622  1.7682 -0.6058
 2118TIP3    H227846   3.379   5.021  10.146  0.4885 -1.7736 -0.7542
 2119TIP3   OH227847   1.251   7.191  10.573  0.6589 -0.2088  0.5279
 2119TIP3    H127848   1.207   7.251  10.514  0.4817 -0.0098  0.8586
 2119TIP3    H227849   1.293   7.126  10.516 -0.3468 -0.6041  0.2236
 2120TIP3   OH227850   1.987   3.076  10.894 -0.3194  0.3931 -0.2254
 2120TIP3    H127851   2.038   3.121  10.961 -0.5494  2.2457 -1.2331
 2120TIP3    H227852   1.912   3.134  10.878 -0.7465 -0.4593 -1.4370
 2121TIP3   OH227853   3.726   1.773  12.599 -0.2930 -0.4113  0.5725
 2121TIP3    H127854   3.648   1.742  12.552 -0.5430  0.6734  0.2389
 2121TIP3    H227855   3.743   1.860  12.562  1.2727 -0.7568  0.4128
 2122TIP3   OH227856   3.882   1.710  11.073 -0.0159  0.6543 -0.3406
 2122TIP3    H127857   3.849   1.800  11.072  0.3298  0.7826 -0.8889
 2122TIP3    H227858   3.868   1.679  10.983  0.1399  0.2638 -0.2316
 2123TIP3   OH227859   4.000   0.986  11.241 -0.4346  0.2628  0.0123
 2123TIP3    H127860   4.055   1.053  11.281  0.4561 -0.6290  0.3089
 2123TIP3    H227861   3.929   0.971  11.303 -1.4112  1.8691 -0.6509
 2124TIP3   OH227862   7.160   6.770  14.898  0.5028  0.3993  0.0748
 2124TIP3    H127863   7.250   6.742  14.917  0.6635  0.5485 -0.4278
 2124TIP3    H227864   7.169   6.863  14.873  0.5650 -0.1738 -2.3356
 2125TIP3   OH227865   1.588   5.140   1.099  0.3428  0.1336 -0.5192
 2125TIP3    H127866   1.597   5.125   1.192 -1.1933  0.0883 -0.3401
 2125TIP3    H227867   1.614   5.231   1.086 -2.6317  1.2879  0.5875
 2126TIP3   OH227868   2.768   4.097   9.636 -0.0686  0.4187  0.1527
 2126TIP3    H127869   2.858   4.081   9.608 -0.5224 -0.4147 -0.9216
 2126TIP3    H227870   2.714   4.057   9.567 -1.2621 -0.4430  1.5258
 2127TIP3   OH227871   2.543   6.027  11.791  0.1435  0.3110  0.0652
 2127TIP3    H127872   2.570   6.023  11.882  1.0573 -2.4010 -0.2431
 2127TIP3    H227873   2.624   6.019  11.741 -0.5874 -1.6650 -0.9259
 2128TIP3   OH227874   0.616   3.474  11.262  0.0134  0.1200  0.1347
 2128TIP3    H127875   0.703   3.493  11.228  0.2478 -0.5527  0.3431
 2128TIP3    H227876   0.599   3.384  11.235 -0.6896  0.2951 -0.0442
 2129TIP3   OH227877   5.642   3.701  10.069  0.1309  0.1522 -0.1595
 2129TIP3    H127878   5.656   3.739   9.983  0.1382  2.2705  0.7305
 2129TIP3    H227879   5.562   3.742  10.101 -0.6259 -1.6037  0.3565
 2130TIP3   OH227880   1.174   1.081  11.322  0.3762  0.0454  0.6470
 2130TIP3    H127881   1.215   1.152  11.372  1.6685  0.3902 -0.8038
 2130TIP3    H227882   1.159   1.118  11.235 -1.5666 -0.6174  0.6508
 2131TIP3   OH227883   4.532   4.968  12.462 -0.3743  0.4969 -0.1413
 2131TIP3    H127884   4.589   4.894  12.483 -0.3877  0.4081 -0.4229
 2131TIP3    H227885   4.446   4.942  12.496 -0.2199  0.6952  0.4218
 2132TIP3   OH227886   3.372   0.810   0.730  0.7125  0.9659  0.3274
 2132TIP3    H127887   3.422   0.890   0.716 -2.0311  2.9761  1.0864
 2132TIP3    H227888   3.413   0.768   0.805  1.1328  2.6412  1.0761
 2133TIP3   OH227889   5.167   6.635  12.171  0.2665 -0.2825 -0.0673
 2133TIP3    H127890   5.130   6.550  12.149 -0.1730  0.1116 -0.8905
 2133TIP3    H227891   5.093   6.686  12.205  0.7872 -0.6450  1.7104
 2134TIP3   OH227892   6.138   6.913   0.911 -0.2731  0.2204  0.0675
 2134TIP3    H127893   6.114   6.956   0.993  1.9754 -0.3410  1.1041
 2134TIP3    H227894   6.146   6.984   0.848  1.5570  1.1798  1.2845
 2135TIP3   OH227895   2.359   2.891  11.615 -0.1518 -0.4666 -0.6389
 2135TIP3    H127896   2.366   2.798  11.592 -0.2651 -0.5037 -0.5240
 2135TIP3    H227897   2.273   2.917  11.584 -0.9312 -0.8913  1.0370
 2136TIP3   OH227898   1.699   0.144  12.083  0.0077 -0.1054  0.6857
 2136TIP3    H127899   1.669   0.158  11.993 -0.6332 -0.5968  0.8144
 2136TIP3    H227900   1.645   0.203  12.136  1.2911  1.1705  0.6286
 2137TIP3   OH227901   5.726   0.295  10.577 -0.2675 -0.1141 -0.1556
 2137TIP3    H127902   5.763   0.383  10.583 -0.4732 -0.0946  1.1839
 2137TIP3    H227903   5.679   0.283  10.660  0.4176 -1.7609  0.0399
 2138TIP3   OH227904   2.098   5.320  10.731 -0.2786 -0.3191  0.0410
 2138TIP3    H127905   2.132   5.375  10.659 -1.0999 -0.2376 -0.2995
 2138TIP3    H227906   2.022   5.275  10.692 -0.6170 -0.4158  0.8054
 2139TIP3   OH227907   1.815   3.032  13.652  0.4818  0.0688  0.4835
 2139TIP3    H127908   1.723   3.042  13.630  0.9853  0.3350 -1.8473
 2139TIP3    H227909   1.861   3.072  13.578  2.4790 -1.9278  0.5412
 2140TIP3   OH227910   5.216   2.945  10.200  0.2147 -0.4355  0.2308
 2140TIP3    H127911   5.293   2.978  10.248  0.5232 -1.4099  0.4390
 2140TIP3    H227912   5.147   3.009  10.218  0.9694  0.4475  0.0566
 2141TIP3   OH227913   4.550   4.594   3.266  0.3823 -0.1991  0.2160
 2141TIP3    H127914   4.562   4.536   3.191 -0.5643 -0.2092  0.0617
 2141TIP3    H227915   4.578   4.680   3.235  1.5221 -0.4929  0.3596
 2142TIP3   OH227916   2.137   3.216  15.387 -0.1103 -0.3364 -0.0193
 2142TIP3    H127917   2.174   3.130  15.367  0.4007 -0.7169  2.2863
 2142TIP3    H227918   2.194   3.252  15.455 -2.1154  0.4322  1.3494
 2143TIP3   OH227919   7.130   1.833  12.114  0.6329 -0.3831 -0.3882
 2143TIP3    H127920   7.204   1.789  12.155  0.2974  0.3175  1.0752
 2143TIP3    H227921   7.053   1.786  12.147  0.3949 -1.8239 -2.7702
 2144TIP3   OH227922   5.612   4.993  13.029  0.0527  0.1966 -0.1860
 2144TIP3    H127923   5.580   4.933  12.962 -0.2934  0.2604 -0.0814
 2144TIP3    H227924   5.549   5.065  13.029  0.0192  0.1707  0.2424
 2145TIP3   OH227925   2.618   4.401  11.387 -0.4262  0.3498  0.0378
 2145TIP3    H127926   2.608   4.481  11.439  0.0392  0.1767  0.3902
 2145TIP3    H227927   2.710   4.402  11.359 -0.3513 -0.2022  0.2653
 2146TIP3   OH227928   3.048   5.760  13.268 -0.3031 -0.0096 -0.1615
 2146TIP3    H127929   3.071   5.714  13.187 -0.1820  0.9006 -0.6667
 2146TIP3    H227930   2.957   5.737  13.284  0.1679 -1.5571  0.3989
 2147TIP3   OH227931   5.577   0.048   9.896  0.1380  0.1032  0.6736
 2147TIP3    H127932   5.627  -0.014   9.843  1.7970  0.1171  2.1478
 2147TIP3    H227933   5.486   0.033   9.869  0.6231 -1.9511 -0.0577
 2148TIP3   OH227934   2.600   4.965  10.305 -0.7278 -0.1658  0.0961
 2148TIP3    H127935   2.529   4.991  10.247 -0.2121  1.6493  0.2187
 2148TIP3    H227936   2.649   4.899  10.256 -0.3235  1.2825 -1.5377
 2149TIP3   OH227937   0.492   3.566  10.128 -0.1666 -0.6831  0.2667
 2149TIP3    H127938   0.450   3.607  10.052 -1.9007 -0.7837  1.1189
 2149TIP3    H227939   0.557   3.506  10.090 -2.2816 -2.1443 -1.2590
 2150TIP3   OH227940   5.627   3.809  15.150  0.4580  0.3113  0.7075
 2150TIP3    H127941   5.682   3.882  15.179 -0.1793  1.2054 -0.2279
 2150TIP3    H227942   5.560   3.851  15.096 -0.6329 -0.8439  1.1211
 2151TIP3   OH227943   6.590   2.593   9.739  1.1041  0.0494  0.5501
 2151TIP3    H127944   6.683   2.604   9.758  1.0956  2.4272 -0.3728
 2151TIP3    H227945   6.579   2.500   9.723  3.4425 -0.2252  0.1827
 2152TIP3   OH227946   6.961   1.983  10.107 -0.1162  0.1908 -0.5968
 2152TIP3    H127947   6.938   2.076  10.115 -1.4752 -0.2271  0.8252
 2152TIP3    H227948   6.971   1.969  10.013  0.3023  1.8093 -0.8250
 2153TIP3   OH227949   0.095   2.160  13.186  0.0398  0.3948 -0.0004
 2153TIP3    H127950   0.082   2.197  13.098 -0.7845  0.4283  0.1217
 2153TIP3    H227951   0.154   2.085  13.172 -0.4569  0.1108 -0.6620
 2154TIP3   OH227952   3.450   5.095   9.512  0.0749 -0.0858  0.1804
 2154TIP3    H127953   3.545   5.089   9.500  0.0380  0.4300 -0.4481
 2154TIP3    H227954   3.413   5.058   9.432 -0.2280  1.1233 -0.2590
 2155TIP3   OH227955   2.264   5.051  14.751 -0.0159  0.0172  0.2100
 2155TIP3    H127956   2.262   5.009  14.665 -2.7224 -1.1654  0.7718
 2155TIP3    H227957   2.296   4.983  14.810 -0.9843 -0.1296  0.5745
 2156TIP3   OH227958   5.100   3.688  12.263 -0.4243 -0.3762  0.0865
 2156TIP3    H127959   5.047   3.767  12.254  0.2176  0.1209  0.6015
 2156TIP3    H227960   5.165   3.694  12.193 -0.8309 -0.8203 -0.3351
 2157TIP3   OH227961   2.805   1.725   4.168 -0.8929  0.3721  0.6375
 2157TIP3    H127962   2.761   1.674   4.235  1.7288 -4.4066 -0.8253
 2157TIP3    H227963   2.888   1.751   4.208 -0.5971  0.1352  0.1842
 2158TIP3   OH227964   4.167   2.724  11.244  0.4227 -0.0208  0.1493
 2158TIP3    H127965   4.194   2.643  11.200  1.1979  0.6937 -0.6938
 2158TIP3    H227966   4.107   2.693  11.313 -0.3241 -1.2139 -0.9705
 2159TIP3   OH227967   1.902   6.277   9.760 -0.8299 -0.1191 -0.2216
 2159TIP3    H127968   1.808   6.293   9.764 -0.4727  2.2706 -0.3548
 2159TIP3    H227969   1.910   6.194   9.712 -2.7819  0.4863 -1.6993
 2160TIP3   OH227970   1.603   2.783  12.934  0.4862 -0.0437  0.2551
 2160TIP3    H127971   1.564   2.726  12.868  1.0006  0.3105 -0.3651
 2160TIP3    H227972   1.529   2.835  12.967  0.3669  0.3679 -0.6485
 2161TIP3   OH227973   2.733   4.671  15.073 -0.6381  0.4270  0.4843
 2161TIP3    H127974   2.702   4.762  15.069 -1.1732  0.2057 -1.9006
 2161TIP3    H227975   2.828   4.679  15.069 -0.6358  0.8942  1.1883
 2162TIP3   OH227976   5.439   6.378  10.231 -0.3282 -0.4516  0.0696
 2162TIP3    H127977   5.346   6.401  10.234 -0.3422 -0.2239 -1.2991
 2162TIP3    H227978   5.449   6.309  10.296 -0.8439  1.4906  2.3594
 2163TIP3   OH227979   3.836   0.958  13.340  0.5790 -0.6944 -0.7421
 2163TIP3    H127980   3.909   0.903  13.312 -0.3843 -1.8280 -1.1045
 2163TIP3    H227981   3.765   0.897  13.356 -0.6011  0.4695 -1.3716
 2164TIP3   OH227982   0.220   1.845  14.077  0.0027  0.5175 -0.5454
 2164TIP3    H127983   0.246   1.765  14.033  0.2051 -0.2207  0.8569
 2164TIP3    H227984   0.179   1.815  14.158 -1.2616  1.7888 -0.6728
 2165TIP3   OH227985   0.615   4.137  11.253  0.0699  0.1742 -0.0750
 2165TIP3    H127986   0.697   4.118  11.298 -0.7054 -0.2145  1.2465
 2165TIP3    H227987   0.590   4.225  11.282 -0.6545 -0.2491  0.6205
 2166TIP3   OH227988   0.657   6.178  11.114 -0.1663 -0.3031  0.0129
 2166TIP3    H127989   0.727   6.120  11.085  0.3558 -0.2802  1.1766
 2166TIP3    H227990   0.684   6.208  11.201 -0.1910  2.0548 -0.7121
 2167TIP3   OH227991   5.829   4.360  13.348  0.6241 -0.3315  0.0630
 2167TIP3    H127992   5.901   4.385  13.289 -0.1152  0.4645 -0.5342
 2167TIP3    H227993   5.771   4.307  13.293 -0.7494  1.5082 -0.3566
 2168TIP3   OH227994   5.328   0.857  11.252 -0.0403  0.0217  0.3030
 2168TIP3    H127995   5.333   0.768  11.287  0.4516 -0.8596 -1.8620
 2168TIP3    H227996   5.401   0.903  11.294  0.6410 -1.0357  0.3176
 2169TIP3   OH227997   6.431   6.001  11.652 -0.1935 -0.1207  0.1893
 2169TIP3    H127998   6.380   5.928  11.618  1.9661 -1.3226 -0.7130
 2169TIP3    H227999   6.417   5.999  11.747  0.0848 -1.9651  0.2223
 2170TIP3   OH228000   2.858   6.256   1.869  0.1443 -0.1494 -0.2632
 2170TIP3    H128001   2.821   6.271   1.956  0.7381  2.4876 -0.3924
 2170TIP3    H228002   2.933   6.199   1.885 -0.1023 -0.1910  0.8707
 2171TIP3   OH228003   3.686   1.225  14.108  0.5783  0.0398 -0.4552
 2171TIP3    H128004   3.671   1.131  14.099 -2.0162  0.5026 -1.6968
 2171TIP3    H228005   3.761   1.242  14.051 -0.3472 -0.9762 -2.0705
 2172TIP3   OH228006   6.444   0.383  11.725 -0.6382  0.6283  0.1699
 2172TIP3    H128007   6.409   0.348  11.643 -0.4603  1.0286 -0.0797
 2172TIP3    H228008   6.535   0.406  11.704 -0.9732  1.9780  0.1008
 2173TIP3   OH228009   0.080   7.215  11.958  0.3239  0.0488 -0.2518
 2173TIP3    H128010   0.082   7.251  12.047 -2.7998 -0.7093  0.2473
 2173TIP3    H228011   0.156   7.157  11.954 -0.5705 -1.5395  2.7202
 2174TIP3   OH228012   7.111   3.936   1.947 -1.0994 -0.0592  0.1025
 2174TIP3    H128013   7.114   3.873   2.019 -0.5501 -0.3094 -0.1337
 2174TIP3    H228014   7.036   3.908   1.894  0.4426 -1.9172 -1.2364
 2175TIP3   OH228015   3.551   4.950  10.633  0.0417 -0.1602  0.6785
 2175TIP3    H128016   3.480   4.929  10.571 -0.6201  1.0177  0.9900
 2175TIP3    H228017   3.517   4.921  10.718  0.4650 -0.7213  0.6591
 2176TIP3   OH228018   7.033   3.171  12.094  0.9910  0.0155  0.5622
 2176TIP3    H128019   7.009   3.134  12.009 -0.9639  2.9271 -0.2729
 2176TIP3    H228020   7.116   3.215  12.078  1.1008 -0.2286  0.4398
 2177TIP3   OH228021   4.585   5.355  12.707 -0.2337 -0.5260  0.2285
 2177TIP3    H128022   4.492   5.381  12.709  0.2424  1.3597  0.0625
 2177TIP3    H228023   4.608   5.343  12.799 -0.4914 -0.3441  0.3193
 2178TIP3   OH228024   4.284   4.037  12.273  0.3367 -0.3444  0.1243
 2178TIP3    H128025   4.357   3.979  12.295 -0.0267 -0.7116  0.3758
 2178TIP3    H228026   4.207   3.991  12.304  0.1121  0.7029  1.1858
 2179TIP3   OH228027   6.365   7.078  13.860  0.1729  0.5677 -0.4767
 2179TIP3    H128028   6.377   7.013  13.929  2.0022  0.0162 -1.2694
 2179TIP3    H228029   6.450   7.121  13.852 -0.9617  3.0845 -0.0039
 2180TIP3   OH228030   1.375   2.682  12.075 -0.2646 -0.0688 -0.3615
 2180TIP3    H128031   1.468   2.670  12.056 -0.1144  0.9530 -0.3056
 2180TIP3    H228032   1.360   2.776  12.066 -0.9245  0.0155  1.2973
 2181TIP3   OH228033   4.452   2.982  10.910  0.1684 -0.3416  0.0507
 2181TIP3    H128034   4.421   3.060  10.957 -0.3894 -0.9614  0.7187
 2181TIP3    H228035   4.496   2.930  10.977  0.0087 -0.8945 -0.2715
 2182TIP3   OH228036   2.199   0.600  12.209 -0.1098 -0.3376 -0.7150
 2182TIP3    H128037   2.288   0.605  12.243 -0.6356 -0.3356  0.6896
 2182TIP3    H228038   2.146   0.571  12.283 -1.3459  0.0267 -1.4288
 2183TIP3   OH228039   3.904   0.039   9.475  0.5309 -0.2615 -0.2741
 2183TIP3    H128040   3.996   0.015   9.463  0.2233 -1.0262 -1.3234
 2183TIP3    H228041   3.893   0.120   9.424  0.9718  0.7536  1.1734
 2184TIP3   OH228042   3.926   1.661   0.887  0.3255 -0.1845 -0.3352
 2184TIP3    H128043   3.943   1.597   0.817  0.2431  0.0885 -0.6068
 2184TIP3    H228044   4.000   1.722   0.882 -0.2657  0.5029 -0.9479
 2185TIP3   OH228045   0.348   1.770  13.456  0.3631 -0.1462 -0.4189
 2185TIP3    H128046   0.403   1.827  13.401 -1.4695  1.4804 -0.6810
 2185TIP3    H228047   0.337   1.691  13.404  0.0996  0.6664 -1.6511
 2186TIP3   OH228048   3.779   6.896  11.102  0.4515  0.1543 -0.3725
 2186TIP3    H128049   3.775   6.922  11.010 -0.0398 -1.0102 -0.6962
 2186TIP3    H228050   3.723   6.958  11.148  1.4875  1.3690 -0.6898
 2187TIP3   OH228051   6.505   5.663  13.980 -0.0494 -0.4771  0.0071
 2187TIP3    H128052   6.478   5.754  13.993 -0.5303 -0.5862 -0.1937
 2187TIP3    H228053   6.489   5.646  13.887 -0.4999 -0.9333  0.1605
 2188TIP3   OH228054   1.852   4.512  11.646 -0.2816  0.3363 -0.1099
 2188TIP3    H128055   1.785   4.461  11.601 -0.2846  0.0605  0.1986
 2188TIP3    H228056   1.932   4.496  11.595 -0.1462 -0.4904  0.3387
 2189TIP3   OH228057   4.896   1.671   1.282  1.0195 -0.3914  0.4222
 2189TIP3    H128058   4.808   1.636   1.293  2.0275 -3.1453  0.7796
 2189TIP3    H228059   4.896   1.712   1.195 -1.3144  2.3686  1.5803
 2190TIP3   OH228060   0.537   6.644  11.478  0.6016 -0.4484 -0.3106
 2190TIP3    H128061   0.490   6.720  11.444 -2.0224 -2.2126 -0.9437
 2190TIP3    H228062   0.555   6.591  11.400 -0.9118 -2.1326  0.4130
 2191TIP3   OH228063   1.281   0.258  12.699 -0.5733  0.5514 -1.0937
 2191TIP3    H128064   1.283   0.292  12.609  0.8714 -0.9748 -1.6928
 2191TIP3    H228065   1.318   0.329  12.752  1.9014  0.2347 -2.2323
 2192TIP3   OH228066   7.136   2.888   1.198  0.6641 -0.2386  0.2388
 2192TIP3    H128067   7.082   2.812   1.180  0.1662 -0.0786  0.9942
 2192TIP3    H228068   7.136   2.896   1.294  1.4586  0.1725  0.2191
 2193TIP3   OH228069   2.591   1.675  12.475  0.1669 -0.1410  0.6756
 2193TIP3    H128070   2.651   1.703  12.405 -1.4635 -0.3521 -0.8684
 2193TIP3    H228071   2.506   1.711  12.450 -0.6224 -0.8407  2.1991
 2194TIP3   OH228072   3.611   6.660  11.321 -0.0086  0.0877  0.7707
 2194TIP3    H128073   3.601   6.690  11.231  1.5296 -1.4445  0.0419
 2194TIP3    H228074   3.689   6.706  11.353 -1.1495  1.4691  1.7600
 2195TIP3   OH228075   2.471   0.714  10.566 -0.0751  0.8704 -0.2500
 2195TIP3    H128076   2.489   0.797  10.522 -0.0300  0.2458 -1.4421
 2195TIP3    H228077   2.391   0.731  10.617  0.5218  1.9336  0.3723
 2196TIP3   OH228078   6.924   3.862  14.602 -0.0206 -0.5651  0.4257
 2196TIP3    H128079   6.839   3.820  14.614 -0.7265  0.8078  0.4327
 2196TIP3    H228080   6.972   3.803  14.542 -1.5476 -0.5958 -0.8280
 2197TIP3   OH228081   1.780   4.905  12.487 -0.3765  0.3505  0.0433
 2197TIP3    H128082   1.743   4.818  12.503  0.8268  0.0550  1.4203
 2197TIP3    H228083   1.705   4.964  12.492 -1.2605 -0.6215 -1.2195
 2198TIP3   OH228084   5.401   2.956   2.485  0.1720 -0.0124  0.3896
 2198TIP3    H128085   5.316   2.934   2.447  0.5292 -0.3275 -0.2358
 2198TIP3    H228086   5.403   3.052   2.489 -0.9922 -0.0116  2.2061
 2199TIP3   OH228087   6.123   0.675  10.270 -0.3235  0.5634 -0.2115
 2199TIP3    H128088   6.193   0.715  10.322 -0.1696  0.0316 -0.0042
 2199TIP3    H228089   6.167   0.646  10.190 -0.4274  0.7762 -0.3454
 2200TIP3   OH228090   3.461   3.191  13.154  0.1937 -0.1707 -0.5686
 2200TIP3    H128091   3.419   3.106  13.137 -0.5777 -0.7695  3.4320
 2200TIP3    H228092   3.389   3.254  13.154 -0.1228 -0.4615  1.7555
 2201TIP3   OH228093   4.454   0.866  10.613 -0.1270 -0.1463 -0.6812
 2201TIP3    H128094   4.506   0.821  10.680 -0.8957 -0.1009 -0.0379
 2201TIP3    H228095   4.375   0.894  10.659  0.2744  1.8061 -1.0823
 2202TIP3   OH228096   3.262   5.801  11.552 -0.3275  0.5898  0.7289
 2202TIP3    H128097   3.245   5.718  11.596  0.1020 -1.0626 -2.0188
 2202TIP3    H228098   3.212   5.797  11.471  0.8758  2.3544 -0.1852
 2203TIP3   OH228099   1.260   2.572   0.251 -0.5382  0.1684  0.3757
 2203TIP3    H128100   1.226   2.594   0.164 -1.6938  1.5448  1.1351
 2203TIP3    H228101   1.183   2.573   0.308  0.2876 -0.1195  1.5333
 2204TIP3   OH228102   4.495   3.743  11.726 -0.4349 -0.5988 -0.1980
 2204TIP3    H128103   4.438   3.667  11.725 -1.0826 -0.1132 -0.7153
 2204TIP3    H228104   4.454   3.803  11.789  0.8371 -1.2262  1.3136
 2205TIP3   OH228105   6.245   4.242  10.405 -0.4236  0.0356 -0.3647
 2205TIP3    H128106   6.296   4.170  10.442 -0.5347  0.3039  0.3170
 2205TIP3    H228107   6.165   4.245  10.457  0.0161  1.2975  0.2849
 2206TIP3   OH228108   4.923   5.308  10.482  0.1072 -0.3534  0.0143
 2206TIP3    H128109   4.994   5.370  10.503  0.7988 -1.2161  0.2721
 2206TIP3    H228110   4.869   5.355  10.418  0.2161  0.7894  0.7216
 2207TIP3   OH228111   0.966   5.590   0.018 -0.3576  0.0109  0.2819
 2207TIP3    H128112   0.975   5.684   0.003  0.0729 -0.0237  0.3267
 2207TIP3    H228113   0.885   5.567  -0.027 -0.2395  0.3218 -0.0988
 2208TIP3   OH228114   4.834   5.871   9.847 -0.1520  0.0904  0.1502
 2208TIP3    H128115   4.893   5.873   9.772 -0.2397  2.6403  0.0741
 2208TIP3    H228116   4.891   5.853   9.922  0.5354  1.1829 -0.0921
 2209TIP3   OH228117   6.441   4.376  13.062 -0.2239  0.5236  0.5043
 2209TIP3    H128118   6.513   4.330  13.105 -0.5335  1.5300  2.1639
 2209TIP3    H228119   6.439   4.462  13.103 -1.8361  0.8211 -0.1253
 2210TIP3   OH228120   0.944   0.915  11.559 -0.0692 -0.1320 -0.4243
 2210TIP3    H128121   1.032   0.909  11.596 -0.1070  1.8380  0.0990
 2210TIP3    H228122   0.906   0.993  11.599 -1.4770 -0.0101 -1.8746
 2211TIP3   OH228123   5.501   4.657  10.192  0.1283 -0.2965  0.7883
 2211TIP3    H128124   5.518   4.751  10.185  0.2328 -0.3810 -0.2005
 2211TIP3    H228125   5.550   4.630  10.270  1.4340  0.1838  0.1653
 2212TIP3   OH228126   2.595   4.060  11.131  0.4792  0.1750  0.3533
 2212TIP3    H128127   2.527   4.108  11.177  0.8687  0.5116  0.5801
 2212TIP3    H228128   2.549   4.015  11.059  0.0915  0.7407  0.2469
 2213TIP3   OH228129   6.346   6.538  14.768  0.1906  0.3272 -0.0385
 2213TIP3    H128130   6.281   6.551  14.700 -1.2086  0.6886  1.3147
 2213TIP3    H228131   6.366   6.444  14.765 -1.0843  0.0310  0.1046
 2214TIP3   OH228132   4.068   4.693  11.074 -0.2418  0.3854  0.4000
 2214TIP3    H128133   4.022   4.741  11.143 -1.3025 -0.7031  0.4900
 2214TIP3    H228134   4.135   4.754  11.042  0.6399  0.7344  2.7360
 2215TIP3   OH228135   0.828   4.177  10.752 -0.6039  0.2531  0.1781
 2215TIP3    H128136   0.895   4.228  10.707 -1.1707 -0.5285 -1.6372
 2215TIP3    H228137   0.782   4.241  10.808 -0.3687  1.4297 -0.9452
 2216TIP3   OH228138   4.944   2.308   9.815 -0.1915 -0.3294  0.2006
 2216TIP3    H128139   4.956   2.358   9.734  1.1054  0.8255  1.0687
 2216TIP3    H228140   4.987   2.224   9.797  0.6874  0.1642 -0.1025
 2217TIP3   OH228141   0.248   1.144  13.807  0.2961  0.2023  0.0226
 2217TIP3    H128142   0.177   1.182  13.860  0.6695  0.4747  0.3407
 2217TIP3    H228143   0.324   1.144  13.866  0.9550  1.3304 -0.7685
 2218TIP3   OH228144   0.852   0.145  11.718 -0.2320  0.4553 -0.2944
 2218TIP3    H128145   0.933   0.193  11.697 -0.2740  0.8901  0.5046
 2218TIP3    H228146   0.793   0.165  11.645 -0.0011  1.0485 -0.3223
 2219TIP3   OH228147   2.966   0.218  11.051 -0.3505 -0.4142  0.3306
 2219TIP3    H128148   2.896   0.236  10.988 -0.5862 -1.0162  0.4148
 2219TIP3    H228149   2.931   0.148  11.107 -0.6340  0.9227  1.9180
 2220TIP3   OH228150   1.303   0.299  10.218 -0.1788 -0.3661  0.3844
 2220TIP3    H128151   1.254   0.372  10.182  1.0778  0.1424 -0.3605
 2220TIP3    H228152   1.278   0.224  10.164  0.0446 -0.0666 -0.1306
 2221TIP3   OH228153   1.761   1.752  14.430  0.0008  0.7777 -0.2384
 2221TIP3    H128154   1.809   1.722  14.507 -0.6830  1.8309  0.6289
 2221TIP3    H228155   1.773   1.682  14.366 -2.8494 -2.2289  2.1545
 2222TIP3   OH228156   2.903   5.204   9.824  0.1558  0.3996 -0.2478
 2222TIP3    H128157   2.855   5.204   9.741  0.3710  0.7734 -0.3733
 2222TIP3    H228158   2.857   5.269   9.879 -1.4787 -1.5348  0.8046
 2223TIP3   OH228159   4.455   1.688   9.312  0.4944 -0.1263 -0.4523
 2223TIP3    H128160   4.543   1.670   9.345  0.5628 -0.1314 -0.6388
 2223TIP3    H228161   4.397   1.637   9.369  0.6634 -0.7116 -0.8014
 2224TIP3   OH228162   4.955   3.623   9.612 -0.0898  0.1829  0.3218
 2224TIP3    H128163   4.901   3.558   9.568 -0.1919  0.4150  0.0978
 2224TIP3    H228164   5.033   3.575   9.641  0.3533  0.1881 -0.8195
 2225TIP3   OH228165   4.628   5.095  10.392 -0.4419  0.9562  0.2800
 2225TIP3    H128166   4.699   5.159  10.382  0.2236  0.1983  0.0183
 2225TIP3    H228167   4.600   5.104  10.483  0.3016  0.9557  0.5127
 2226TIP3   OH228168   2.945   2.035  12.506 -0.4284 -0.6403 -0.4106
 2226TIP3    H128169   2.916   2.108  12.453 -0.1614 -0.3294 -0.1371
 2226TIP3    H228170   2.939   1.959  12.448 -1.8672 -0.6105 -0.3279
 2227TIP3   OH228171   6.710   0.163  12.317 -0.0946 -0.0202  0.1934
 2227TIP3    H128172   6.675   0.076  12.337  0.9161 -0.2789  0.9410
 2227TIP3    H228173   6.681   0.218  12.391  0.6583 -0.1251  0.5736
 2228TIP3   OH228174   4.335   1.825  10.377  0.1296  0.1551  0.9861
 2228TIP3    H128175   4.418   1.787  10.403  0.2832 -0.1032  0.1523
 2228TIP3    H228176   4.356   1.915  10.351  0.2917 -0.1385  0.0553
 2229TIP3   OH228177   4.822   4.298   2.527  0.4221  0.5091 -0.0521
 2229TIP3    H128178   4.918   4.299   2.531  0.4083  0.2399  0.4332
 2229TIP3    H228179   4.799   4.205   2.530  0.0146  0.5521  4.1600
 2230TIP3   OH228180   2.620   1.464  10.355 -0.6056 -0.4436  0.6065
 2230TIP3    H128181   2.593   1.377  10.325 -1.5577 -0.6234  1.9155
 2230TIP3    H228182   2.715   1.464  10.345 -0.4178 -2.2074  1.9932
 2231TIP3   OH228183   3.882   6.285  10.647  0.0352  0.4248  0.3842
 2231TIP3    H128184   3.861   6.379  10.649 -1.3098  0.1409  1.2578
 2231TIP3    H228185   3.824   6.247  10.713  1.1061 -0.9244  0.5847
 2232TIP3   OH228186   7.030   5.005  10.378  0.0721  0.2987 -0.2612
 2232TIP3    H128187   7.111   5.041  10.342 -0.4811  2.1133  0.2253
 2232TIP3    H228188   7.013   4.927  10.325  1.2118  0.8458 -1.4890
 2233TIP3   OH228189   1.808   2.292   9.985 -0.0837  0.5407 -0.7033
 2233TIP3    H128190   1.897   2.326   9.980  0.8670 -1.8908 -2.0590
 2233TIP3    H228191   1.753   2.364   9.954  1.5774  1.5821 -1.3768
 2234TIP3   OH228192   5.354   0.485  11.140 -0.4580  0.3254 -0.2797
 2234TIP3    H128193   5.313   0.557  11.187 -2.0042 -0.6682 -0.0454
 2234TIP3    H228194   5.321   0.493  11.050  0.5131  0.7428 -0.6128
 2235TIP3   OH228195   6.535   0.735  10.673  0.2649 -0.0778  0.0100
 2235TIP3    H128196   6.499   0.651  10.701  0.8632 -0.0518  0.9194
 2235TIP3    H228197   6.560   0.778  10.755 -0.2119  1.0707 -0.4254
 2236TIP3   OH228198   6.918   3.345  13.701  0.4576  0.0309 -0.1151
 2236TIP3    H128199   6.853   3.281  13.672  0.3803 -0.0422  0.2132
 2236TIP3    H228200   6.921   3.335  13.797  1.1338 -0.1426 -0.1467
 2237TIP3   OH228201   3.199   4.340  14.957 -0.5505 -0.3928 -0.0078
 2237TIP3    H128202   3.191   4.319  14.864 -0.2428  1.5678 -0.5189
 2237TIP3    H228203   3.209   4.255  15.000 -0.5499 -1.3268 -1.7691
 2238TIP3   OH228204   3.620   5.432  13.406 -0.4953 -0.6566  0.4072
 2238TIP3    H128205   3.564   5.356  13.398 -0.6489 -0.5398  0.3630
 2238TIP3    H228206   3.592   5.491  13.336  0.3873 -1.0352 -0.2909
 2239TIP3   OH228207   4.266   3.442  14.271 -0.7954 -1.0053  0.2833
 2239TIP3    H128208   4.261   3.352  14.238  1.0571 -1.0214 -0.0651
 2239TIP3    H228209   4.212   3.492  14.210  1.1137 -1.3322 -1.8381
 2240TIP3   OH228210   4.578   1.511  11.996  0.8942  0.3788 -0.2949
 2240TIP3    H128211   4.562   1.505  12.090  0.1922  1.3481 -0.3338
 2240TIP3    H228212   4.491   1.505  11.957  0.8900  2.3939 -0.7259
 2241TIP3   OH228213   5.065   3.709  14.459  1.0273  0.1052 -0.0892
 2241TIP3    H128214   5.007   3.717  14.384  0.9060  2.3237  0.1573
 2241TIP3    H228215   5.150   3.684  14.422  0.5988 -0.3079 -0.7896
 2242TIP3   OH228216   6.392   4.024   9.885 -0.5624 -0.1558  0.4736
 2242TIP3    H128217   6.482   4.018   9.915  0.4912 -1.2758 -2.5161
 2242TIP3    H228218   6.351   3.942   9.912  0.8384 -1.9043 -2.1988
 2243TIP3   OH228219   4.899   1.100  10.695 -0.1127 -0.0899 -0.3077
 2243TIP3    H128220   4.863   1.012  10.694 -0.4643  0.0485 -1.4212
 2243TIP3    H228221   4.988   1.089  10.728  0.2264 -1.0284 -1.4815
 2244TIP3   OH228222   3.750   3.869  11.893  0.0658  0.4159 -0.1980
 2244TIP3    H128223   3.803   3.791  11.909 -1.1227 -0.3965 -0.1458
 2244TIP3    H228224   3.739   3.909  11.979 -1.2561 -0.6402  0.1432
 2245TIP3   OH228225   3.776   1.713  10.392  0.4078  0.7826  0.2135
 2245TIP3    H128226   3.793   1.779  10.325 -0.1635  0.0395 -0.6985
 2245TIP3    H228227   3.840   1.730  10.460  2.9271 -0.1687 -1.7721
 2246TIP3   OH228228   2.796   5.783  11.040  0.5603  0.1120  0.2086
 2246TIP3    H128229   2.810   5.822  11.126  3.0334  1.4830 -0.7231
 2246TIP3    H228230   2.732   5.840  10.998  0.6596  0.4461  0.5058
 2247TIP3   OH228231   5.739   1.089   9.622  0.1381 -0.1297  0.1263
 2247TIP3    H128232   5.706   1.178   9.639  1.4679  0.0187  2.3442
 2247TIP3    H228233   5.772   1.092   9.532  0.6837  1.8290  0.3415
 2248TIP3   OH228234   4.651   1.285  12.692 -0.2419  0.0522  0.0789
 2248TIP3    H128235   4.564   1.255  12.718 -0.8510  2.1538  0.6469
 2248TIP3    H228236   4.651   1.281  12.597 -0.4952 -1.0961  0.1125
 2249TIP3   OH228237   1.677   1.904  11.115 -0.7299  0.3594  0.3076
 2249TIP3    H128238   1.706   1.955  11.040  1.2146  0.0444  0.7630
 2249TIP3    H228239   1.678   1.813  11.085 -0.1851  0.2543  0.6134
 2250TIP3   OH228240   2.555   3.079  11.633  0.0194  0.0371 -0.1617
 2250TIP3    H128241   2.497   3.023  11.684  1.2539  0.0351  1.3222
 2250TIP3    H228242   2.502   3.156  11.612 -0.6605 -0.1733  0.7292
 2251TIP3   OH228243   5.730   0.806  10.785  0.2238 -0.1732  0.3977
 2251TIP3    H128244   5.695   0.751  10.855 -1.4153 -0.1881 -0.3614
 2251TIP3    H228245   5.760   0.744  10.718 -1.5654 -0.2196 -0.4307
 2252TIP3   OH228246   2.712   2.815  11.845  0.1923  0.6626 -0.4745
 2252TIP3    H128247   2.651   2.789  11.776 -2.3011  0.3356  1.6888
 2252TIP3    H228248   2.679   2.899  11.876  1.3394  0.8717  0.2516
 2253TIP3   OH228249   0.051   0.135  12.217 -0.1318 -0.2705 -0.7184
 2253TIP3    H128250   0.131   0.183  12.238 -0.6021 -0.1686  1.0031
 2253TIP3    H228251  -0.019   0.197  12.236 -0.6472 -0.4533 -1.9446
 2254TIP3   OH228252   5.130   6.555  10.874  0.1860 -0.3368  0.0567
 2254TIP3    H128253   5.172   6.628  10.920  0.5568 -0.1984 -0.4880
 2254TIP3    H228254   5.050   6.593  10.838  0.4803 -0.1399 -0.3997
 2255TIP3   OH228255   6.292   6.158  10.610 -0.3603  0.0524 -0.2570
 2255TIP3    H128256   6.300   6.175  10.516  2.0907  0.3986 -0.0629
 2255TIP3    H228257   6.302   6.064  10.618  1.4594  0.1907 -0.2746
 2256TIP3   OH228258   1.016   0.406   9.882  0.6850 -0.3315  0.4003
 2256TIP3    H128259   1.062   0.454   9.950  0.7687 -1.3250  1.0681
 2256TIP3    H228260   1.079   0.398   9.810  0.4717  1.0398  0.0274
 2257TIP3   OH228261   4.937   4.779   1.766 -0.6728 -0.6289 -0.1373
 2257TIP3    H128262   4.877   4.715   1.807 -0.0833  0.2472  2.2768
 2257TIP3    H228263   4.888   4.860   1.764 -0.1815 -0.3153  0.2350
 2258TIP3   OH228264   1.394   0.966  13.322  0.5972 -0.2710 -0.7401
 2258TIP3    H128265   1.448   0.923  13.388 -0.6666 -0.2561  0.3354
 2258TIP3    H228266   1.398   1.059  13.346 -0.6840 -0.3795 -0.0454
 2259TIP3   OH228267   6.486   1.844  11.904 -0.1642 -0.0123  0.2827
 2259TIP3    H128268   6.400   1.836  11.944 -0.0795  2.3850  1.0839
 2259TIP3    H228269   6.488   1.933  11.869  1.4606 -0.5218 -1.0618
 2260TIP3   OH228270   4.997   5.225  12.558 -0.6588 -0.6276  0.3763
 2260TIP3    H128271   4.914   5.181  12.543 -0.6744 -1.1326  1.7339
 2260TIP3    H228272   5.049   5.161  12.608  0.8241 -0.6101 -1.0439
 2261TIP3   OH228273   6.691   2.047  13.378 -0.1405 -0.0031  0.7341
 2261TIP3    H128274   6.630   2.121  13.376 -0.8606 -0.5955  0.0001
 2261TIP3    H228275   6.778   2.087  13.375 -0.3695  0.9617  3.6319
 2262TIP3   OH228276   5.935   2.468  10.971  0.7149 -0.0843 -0.1853
 2262TIP3    H128277   5.970   2.416  10.899 -1.3374 -2.4747  0.3753
 2262TIP3    H228278   6.002   2.464  11.039  2.1559  1.1955 -1.4626
 2263TIP3   OH228279   3.998   6.531  14.052 -0.8109  0.2481 -0.5638
 2263TIP3    H128280   4.002   6.545  13.958 -1.2818  1.4333 -0.4312
 2263TIP3    H228281   4.027   6.441  14.065  1.1936  0.6598 -1.6715
 2264TIP3   OH228282   3.369   2.631  11.683 -0.1267  0.3401  0.0681
 2264TIP3    H128283   3.346   2.551  11.635  3.3420 -0.2487 -0.8898
 2264TIP3    H228284   3.416   2.601  11.760 -0.0266  1.4431  0.4594
 2265TIP3   OH228285   1.937   1.145  11.822  0.1828 -0.0222  0.3255
 2265TIP3    H128286   1.937   1.241  11.825 -2.0860  0.0802 -0.9905
 2265TIP3    H228287   1.986   1.124  11.742 -1.1402  0.1530 -0.5517
 2266TIP3   OH228288   2.580   1.163  11.213  0.1286 -0.6414 -0.2614
 2266TIP3    H128289   2.668   1.144  11.181  0.9119  0.6837  0.9706
 2266TIP3    H228290   2.593   1.195  11.302 -1.2452  2.4188 -1.0061
 2267TIP3   OH228291   4.250   4.324  12.376 -0.0468  0.2778  1.0075
 2267TIP3    H128292   4.282   4.366  12.296 -0.5838 -0.0361  0.6230
 2267TIP3    H228293   4.261   4.230  12.360  0.8955  0.2424  1.7560
 2268TIP3   OH228294   6.657   4.028  12.417  0.5134 -0.1807 -0.4561
 2268TIP3    H128295   6.601   4.074  12.354 -0.3833  1.4281  1.4354
 2268TIP3    H228296   6.692   4.097  12.473  0.5752 -1.6321  1.3712
 2269TIP3   OH228297   3.468   4.516  10.514 -0.4096 -0.6582 -0.2537
 2269TIP3    H128298   3.540   4.524  10.451  1.6505 -2.8680  1.5999
 2269TIP3    H228299   3.446   4.423  10.514 -0.5299 -0.6881  2.0220
 2270TIP3   OH228300   2.465   6.501  11.198 -0.0920  0.1534  0.3087
 2270TIP3    H128301   2.443   6.426  11.253  0.4131  0.1411  0.4961
 2270TIP3    H228302   2.400   6.498  11.127  0.6708 -1.1837 -0.3754
 2271TIP3   OH228303   0.572   0.977  12.848 -0.0339 -0.2886  0.0762
 2271TIP3    H128304   0.586   0.923  12.926  1.5856 -1.1043 -0.7228
 2271TIP3    H228305   0.559   1.066  12.881  0.8934 -0.5808  1.2606
 2272TIP3   OH228306   6.832   2.345  10.949  0.2329 -0.8286  0.1185
 2272TIP3    H128307   6.768   2.357  10.879 -2.0965 -2.8584  1.7123
 2272TIP3    H228308   6.843   2.433  10.986  0.9485  0.1277 -2.2372
 2273TIP3   OH228309   3.060   1.056   9.675 -0.2772 -0.6175 -0.2636
 2273TIP3    H128310   3.024   1.144   9.663 -0.6908 -0.4819  1.6374
 2273TIP3    H228311   3.034   1.008   9.596 -1.4062  0.5169 -0.6178
 2274TIP3   OH228312   0.165   3.678  12.293  0.0516 -0.2156  0.2707
 2274TIP3    H128313   0.086   3.623  12.288  1.1440 -1.8049 -0.2054
 2274TIP3    H228314   0.132   3.768  12.284 -1.8581 -0.7024  1.7724
 2275TIP3   OH228315   4.893   1.433  14.650  0.2227  0.1593 -0.1068
 2275TIP3    H128316   4.835   1.359  14.631 -0.2485  0.2691  0.8561
 2275TIP3    H228317   4.842   1.511  14.624  0.3136  0.2060 -0.1460
 2276TIP3   OH228318   4.151   0.979   0.104 -0.5313  0.1015  0.0333
 2276TIP3    H128319   4.242   1.005   0.118 -0.4213 -0.7969  1.1224
 2276TIP3    H228320   4.099   1.044   0.152 -0.4592  0.4260 -0.3216
 2277TIP3   OH228321   1.522   3.060  13.768 -0.2723  0.4378  0.2066
 2277TIP3    H128322   1.480   3.145  13.772 -0.2847  0.5684 -1.6016
 2277TIP3    H228323   1.576   3.055  13.847 -0.7334  1.8519  0.6288
 2278TIP3   OH228324   2.193   3.480   9.889  0.1294 -0.2440 -0.1016
 2278TIP3    H128325   2.098   3.482   9.877  0.1020 -1.9984 -0.4197
 2278TIP3    H228326   2.205   3.479   9.984 -0.0541  1.9531  0.0080
 2279TIP3   OH228327   0.434   4.579  11.395  0.5224  0.0506 -0.1906
 2279TIP3    H128328   0.472   4.506  11.346  3.1445  0.9203  0.3758
 2279TIP3    H228329   0.417   4.646  11.328  1.1457  0.0823 -0.3245
 2280TIP3   OH228330   3.862   6.473  12.002 -0.2256  0.3243  0.3232
 2280TIP3    H128331   3.783   6.506  12.046  0.6168  1.9925  0.6836
 2280TIP3    H228332   3.873   6.530  11.926  1.0715  0.6557  0.7328
 2281TIP3   OH228333   3.337   5.513  11.985  0.0493 -0.1281  0.0187
 2281TIP3    H128334   3.393   5.461  11.927 -0.9770 -0.8113 -0.3840
 2281TIP3    H228335   3.339   5.467  12.068  0.6532  0.2542  0.2252
 2282TIP3   OH228336   3.629   6.464  13.236  0.3055  0.6719  0.3034
 2282TIP3    H128337   3.616   6.457  13.142  0.7441  3.0102  0.0234
 2282TIP3    H228338   3.581   6.389  13.272 -0.1925 -0.0452 -1.7273
 2283TIP3   OH228339   1.882   2.220  10.349 -0.4998  0.1136  0.5357
 2283TIP3    H128340   1.884   2.145  10.409 -0.4147 -1.1730 -1.0112
 2283TIP3    H228341   1.926   2.290  10.397  2.0568 -1.6499  0.9925
 2284TIP3   OH228342   3.436   3.119   9.626  0.0275 -0.2355 -0.1149
 2284TIP3    H128343   3.469   3.044   9.674 -0.5882 -0.0369  0.6258
 2284TIP3    H228344   3.514   3.171   9.606  0.1867  0.3843  1.8818
 2285TIP3   OH228345   0.351   4.001  13.204  0.0427  0.0436  0.1370
 2285TIP3    H128346   0.390   3.941  13.141 -0.0643  0.3022 -0.1804
 2285TIP3    H228347   0.259   4.008  13.177 -0.0053  0.1484  0.3249
 2286TIP3   OH228348   5.740   1.542  12.928  0.5339  0.0878 -0.4326
 2286TIP3    H128349   5.711   1.631  12.948  1.1023 -0.0041  0.8882
 2286TIP3    H228350   5.666   1.487  12.955  0.8172  0.0593  0.3327
 2287TIP3   OH228351   5.126   2.294  10.912 -0.3474  0.2257 -0.2096
 2287TIP3    H128352   5.058   2.354  10.941 -0.8916 -0.4525 -0.0579
 2287TIP3    H228353   5.086   2.244  10.841  0.2369  0.3156 -0.6183
 2288TIP3   OH228354   0.846   4.703  12.133 -0.0354 -0.4896 -0.0799
 2288TIP3    H128355   0.934   4.691  12.098 -0.5543 -1.2187 -1.2107
 2288TIP3    H228356   0.809   4.615  12.135 -0.6501 -0.2287  0.6566
 2289TIP3   OH228357   3.369   0.643   0.087  0.1394  0.1314  0.0779
 2289TIP3    H128358   3.421   0.694   0.148 -1.6375  1.3635  0.6166
 2289TIP3    H228359   3.402   0.668   0.001  0.0177  1.3890  0.3823
 2290TIP3   OH228360   6.215   4.579  10.061  0.1143 -1.1807 -0.1052
 2290TIP3    H128361   6.166   4.522  10.001  0.8103 -1.6972 -0.2028
 2290TIP3    H228362   6.275   4.628  10.004  0.4254 -1.3045  0.1115
 2291TIP3   OH228363   2.541   1.754  14.455 -0.5641  0.0825 -0.6384
 2291TIP3    H128364   2.451   1.777  14.477 -0.0280  0.9624  0.8025
 2291TIP3    H228365   2.585   1.838  14.444  0.2708 -0.3183 -0.4725
 2292TIP3   OH228366   2.866   5.789  12.023 -0.3945 -0.4394 -0.1121
 2292TIP3    H128367   2.924   5.731  12.073 -0.5341 -0.1664  0.3771
 2292TIP3    H228368   2.924   5.836  11.963 -0.2801 -1.0819 -0.5138
 2293TIP3   OH228369   3.396   6.147  10.116 -0.1061 -0.4122 -0.0746
 2293TIP3    H128370   3.444   6.074  10.079 -0.8582 -1.4995  1.0130
 2293TIP3    H228371   3.463   6.208  10.147  0.5205 -0.5541 -1.1307
 2294TIP3   OH228372   5.806   4.752  10.613  0.4483 -0.3302 -0.3813
 2294TIP3    H128373   5.747   4.823  10.586  1.3315  1.0347  1.1234
 2294TIP3    H228374   5.846   4.722  10.531  0.7583  1.5559 -0.9706
 2295TIP3   OH228375   3.861   0.212  12.193  0.1191 -0.3801 -0.6174
 2295TIP3    H128376   3.942   0.161  12.200  0.8542  0.6528 -1.2251
 2295TIP3    H228377   3.833   0.200  12.102  0.8136  0.9945 -1.0454
 2296TIP3   OH228378   4.006   3.693  12.875 -0.1330  0.0094 -0.2655
 2296TIP3    H128379   4.038   3.663  12.790  2.2834 -1.7391  1.1061
 2296TIP3    H228380   4.085   3.722  12.921 -1.0543 -0.8486  2.0114
 2297TIP3   OH228381   1.911   5.879   9.885  0.1044 -0.1096  0.0431
 2297TIP3    H128382   1.969   5.858   9.811  1.6542 -1.9478  1.6476
 2297TIP3    H228383   1.945   5.961   9.919  1.5386 -0.9227  0.6627
 2298TIP3   OH228384   6.141   5.441  10.028  0.4215  0.5277 -0.2531
 2298TIP3    H128385   6.096   5.359  10.050 -1.5196  1.8703  1.0942
 2298TIP3    H228386   6.150   5.438   9.933  0.7771 -1.4021 -0.2090
 2299TIP3   OH228387   7.161   3.579   1.722 -0.0993  0.4287  0.1804
 2299TIP3    H128388   7.125   3.510   1.666 -0.8568  1.5961 -0.8372
 2299TIP3    H228389   7.154   3.545   1.811  1.1619 -1.4950 -0.3939
 2300TIP3   OH228390   0.272   7.173  13.856  0.1590  0.6727 -0.4214
 2300TIP3    H128391   0.319   7.094  13.884 -2.2297 -0.9047 -0.5499
 2300TIP3    H228392   0.275   7.170  13.761  0.5954  1.0976 -0.4244
 2301TIP3   OH228393   3.644   1.967  11.632  0.4590  0.3703 -0.1861
 2301TIP3    H128394   3.618   1.940  11.544  0.6228 -2.4128  0.5334
 2301TIP3    H228395   3.589   2.043  11.650  1.0978  1.6443 -2.9932
 2302TIP3   OH228396   2.412   1.876  14.186  0.2721  0.0362 -0.6328
 2302TIP3    H128397   2.395   1.792  14.229 -0.9146  1.1260  1.1465
 2302TIP3    H228398   2.329   1.924  14.193  1.6100  2.3491  0.7943
 2303TIP3   OH228399   0.628   0.111  11.227 -0.4544 -0.0571  0.8624
 2303TIP3    H128400   0.661   0.196  11.200  0.2372 -0.0185  1.7820
 2303TIP3    H228401   0.553   0.095  11.170 -0.5527  1.1310  0.6425
 2304TIP3   OH228402   3.537   4.941  12.606 -0.0697 -0.3048  0.4171
 2304TIP3    H128403   3.485   4.989  12.541  1.1249  1.2901  0.5755
 2304TIP3    H228404   3.627   4.950  12.576  0.3622 -0.8001  1.5112
 2305TIP3   OH228405   0.291   5.367  10.273 -0.7868  0.2107  0.2272
 2305TIP3    H128406   0.355   5.414  10.327 -1.2549  0.6554  0.4044
 2305TIP3    H228407   0.337   5.288  10.245  0.2064  1.0347 -0.5214
 2306TIP3   OH228408   3.069   3.094  11.425  1.0327  0.0680 -0.3405
 2306TIP3    H128409   3.051   3.181  11.463 -0.8901 -0.2620 -0.3943
 2306TIP3    H228410   3.028   3.033  11.486  0.5433 -0.6737 -1.3989
 2307TIP3   OH228411   1.952   6.024   9.621  0.4827  0.2514  0.6609
 2307TIP3    H128412   2.025   6.026   9.559 -1.2146  3.3928 -1.5397
 2307TIP3    H228413   1.895   5.955   9.589  0.5584  0.5536 -0.1555
 2308TIP3   OH228414   5.324   5.568   0.293 -0.0263 -0.3237 -0.1302
 2308TIP3    H128415   5.361   5.628   0.228 -1.9511  0.2803 -0.7134
 2308TIP3    H228416   5.394   5.557   0.358  1.2106  0.6525 -1.2563
 2309TIP3   OH228417   7.195   4.396  13.928 -0.6954  0.3425  0.2062
 2309TIP3    H128418   7.156   4.470  13.975 -0.4830 -0.4261  1.6461
 2309TIP3    H228419   7.256   4.436  13.867 -3.7516  1.6161 -2.2856
 2310TIP3   OH228420   6.002   0.274  14.828 -0.3955  0.4280 -0.2016
 2310TIP3    H128421   5.963   0.216  14.894 -0.1136  0.2193 -0.2137
 2310TIP3    H228422   6.096   0.269  14.846 -0.2459 -0.2541 -1.1129
 2311TIP3   OH228423   0.012   3.458  14.499 -0.3516 -0.4469 -0.2522
 2311TIP3    H128424   0.097   3.464  14.541 -0.4565 -1.1902  0.0865
 2311TIP3    H228425   0.024   3.394  14.429 -0.2474  0.5820 -1.1833
 2312TIP3   OH228426   3.999   2.845  14.103  0.2485 -0.0805 -0.0043
 2312TIP3    H128427   4.004   2.755  14.135 -1.6953 -0.9336 -1.8142
 2312TIP3    H228428   3.996   2.835  14.007 -0.3002  1.8759 -0.2240
 2313TIP3   OH228429   3.561   2.036  11.345 -0.2016  0.1473 -0.0225
 2313TIP3    H128430   3.505   2.113  11.338 -0.8318 -0.4478 -2.0396
 2313TIP3    H228431   3.510   1.965  11.306  1.1476 -0.8676 -0.0051
 2314TIP3   OH228432   2.415   7.089  12.290  0.2978  0.5973 -0.0002
 2314TIP3    H128433   2.361   7.139  12.229 -0.1065  0.5391  0.3026
 2314TIP3    H228434   2.484   7.150  12.316  0.8982  0.3873 -1.0648
 2315TIP3   OH228435   1.630   3.817  11.545 -0.2453  0.1484  0.2695
 2315TIP3    H128436   1.570   3.778  11.482  0.4544 -1.6800  0.6632
 2315TIP3    H228437   1.630   3.756  11.619  2.1027  0.0208  0.2588
 2316TIP3   OH228438   3.947   1.220  14.819 -0.1260 -0.2918  0.0563
 2316TIP3    H128439   3.937   1.125  14.822  1.0384 -0.6131 -2.6053
 2316TIP3    H228440   3.863   1.252  14.784 -0.3656 -0.3883  0.5429
 2317TIP3   OH228441   0.937   6.746   9.978 -0.2525 -1.1039  0.6693
 2317TIP3    H128442   0.882   6.797  10.038  0.0875 -0.9941  0.8859
 2317TIP3    H228443   0.884   6.740   9.898 -0.4034 -0.6340  0.7302
 2318TIP3   OH228444   0.509   1.128   1.101 -0.0107  0.3950  0.1088
 2318TIP3    H128445   0.456   1.102   1.025 -0.8964  1.2632  0.4079
 2318TIP3    H228446   0.486   1.220   1.115  1.2553  0.6652  0.5307
 2319TIP3   OH228447   0.976   7.145  12.610  0.3363 -0.7334  0.0101
 2319TIP3    H128448   1.070   7.155  12.595  0.0729  0.5723 -0.9794
 2319TIP3    H228449   0.941   7.234  12.602 -1.1797 -1.3940 -1.1871
 2320TIP3   OH228450   4.810   2.069  11.701 -0.0352 -0.0464 -0.4594
 2320TIP3    H128451   4.736   2.091  11.646 -0.4312  1.6561  0.6566
 2320TIP3    H228452   4.862   2.149  11.705 -0.6660  0.3400  2.5354
 2321TIP3   OH228453   1.348   3.626  10.193 -0.4141 -0.5496  0.1725
 2321TIP3    H128454   1.418   3.570  10.160 -0.8196 -2.1650  1.9051
 2321TIP3    H228455   1.392   3.689  10.250 -0.2847 -1.1585  0.7547
 2322TIP3   OH228456   3.689   6.617   9.367 -0.3417  0.2572 -0.0365
 2322TIP3    H128457   3.778   6.647   9.348  0.1886 -0.7899  0.6475
 2322TIP3    H228458   3.701   6.531   9.407 -1.7792 -0.8581 -1.8267
 2323TIP3   OH228459   3.581   1.215  11.693 -0.3298  0.1213 -0.2918
 2323TIP3    H128460   3.550   1.195  11.781  0.8334  0.0838  0.1324
 2323TIP3    H228461   3.520   1.170  11.635 -1.3930  0.5296  0.4727
 2324TIP3   OH228462   1.626   4.618   9.510 -0.1878  0.4847  0.0173
 2324TIP3    H128463   1.590   4.686   9.567  2.2526  2.3850 -0.5498
 2324TIP3    H228464   1.621   4.538   9.562 -3.1187  1.0003  0.7229
 2325TIP3   OH228465   4.883   1.249  12.244  0.2361 -0.3140 -0.6355
 2325TIP3    H128466   4.825   1.318  12.279 -0.2620 -1.1390  0.2146
 2325TIP3    H228467   4.825   1.194  12.191 -0.0394 -1.7176  1.0181
 2326TIP3   OH228468   6.088   1.844  12.855  0.0815  0.2769 -0.7004
 2326TIP3    H128469   6.086   1.900  12.778  0.3436 -0.2046 -1.0635
 2326TIP3    H228470   6.000   1.851  12.893 -0.4835 -0.5385 -1.8152
 2327TIP3   OH228471   1.256   1.779  11.716 -0.4803 -0.3587 -0.2956
 2327TIP3    H128472   1.321   1.715  11.745  0.0323 -0.0317 -0.7097
 2327TIP3    H228473   1.261   1.849  11.781 -0.9042 -0.6438  0.0496
 2328TIP3   OH228474   4.759   3.224  13.709  0.1431  0.2339 -0.0304
 2328TIP3    H128475   4.834   3.273  13.743  1.8008 -0.2237 -2.7112
 2328TIP3    H228476   4.790   3.187  13.626 -3.0278 -0.1300 -1.2044
 2329TIP3   OH228477   5.789   6.351   0.873 -0.0565  0.1880  0.2815
 2329TIP3    H128478   5.841   6.393   0.805 -0.7769  2.7947  1.2206
 2329TIP3    H228479   5.753   6.272   0.831  0.7043  0.9269 -1.8569
 2330TIP3   OH228480   0.304   1.647  12.100  0.0221  0.8068 -0.5399
 2330TIP3    H128481   0.277   1.640  12.009  0.3320  1.2375 -0.6643
 2330TIP3    H228482   0.362   1.723  12.103 -0.4660  1.1570  0.1329
 2331TIP3   OH228483   5.056   6.264  10.797 -0.3863 -0.2709  0.8827
 2331TIP3    H128484   4.973   6.272  10.749  0.9253  0.9281 -1.3494
 2331TIP3    H228485   5.082   6.354  10.814  0.3371 -0.6465  1.7907
 2332TIP3   OH228486   2.993   7.164  13.338  0.1778 -0.0713 -0.1389
 2332TIP3    H128487   3.073   7.147  13.387  0.9819  0.0585 -1.3668
 2332TIP3    H228488   3.018   7.231  13.273 -1.1753  0.7166  0.1061
 2333TIP3   OH228489   7.070   7.184  13.652 -0.1278  0.0494 -0.0365
 2333TIP3    H128490   7.101   7.095  13.636  0.9742  0.4260 -0.0687
 2333TIP3    H228491   7.140   7.241  13.619 -1.2048  0.9535 -0.8601
 2334TIP3   OH228492   6.327   7.006  11.319 -0.1584 -0.3715  0.6979
 2334TIP3    H128493   6.373   6.952  11.384 -0.1566 -0.0928  0.9357
 2334TIP3    H228494   6.284   6.944  11.261  0.2988 -0.6330  0.6365
 2335TIP3   OH228495   2.003   0.348  12.053 -0.2516  0.0418  0.0568
 2335TIP3    H128496   2.021   0.266  12.006 -1.4586 -0.8695  1.1004
 2335TIP3    H228497   2.026   0.417  11.991  1.4299 -1.0603 -0.6157
 2336TIP3   OH228498   6.182   5.891  13.412  0.6242 -0.2459  0.3375
 2336TIP3    H128499   6.234   5.969  13.394  1.6002 -0.5118  1.8317
 2336TIP3    H228500   6.190   5.878  13.506 -0.7321 -1.3196  0.3298
 2337TIP3   OH228501   5.005   6.408  11.179  0.2349 -0.4598  0.0051
 2337TIP3    H128502   5.081   6.443  11.132  0.3261 -0.6187  0.0318
 2337TIP3    H228503   5.016   6.313  11.174  0.7946 -0.4758  1.2450
 2338TIP3   OH228504   3.387   0.328  12.702 -0.1768 -0.3425  0.0980
 2338TIP3    H128505   3.454   0.331  12.634 -0.3885  0.3978 -0.0916
 2338TIP3    H228506   3.423   0.378  12.775 -0.1044 -0.8171  0.3898
 2339TIP3   OH228507   4.706   5.804  13.137 -0.6693 -0.3361 -0.0743
 2339TIP3    H128508   4.689   5.861  13.211 -1.4259 -0.0267 -0.4737
 2339TIP3    H228509   4.677   5.717  13.166 -1.2482 -0.1574 -0.1101
 2340TIP3   OH228510   7.218   5.154  11.359 -0.1513  0.0759  0.0886
 2340TIP3    H128511   7.207   5.141  11.265 -0.2878 -0.6261  0.1987
 2340TIP3    H228512   7.145   5.106  11.399  0.4830 -0.4861  0.5959
 2341TIP3   OH228513   4.163   1.365  13.080 -0.6122  0.1008 -0.2753
 2341TIP3    H128514   4.070   1.355  13.057 -1.0057  0.7067  0.9059
 2341TIP3    H228515   4.161   1.396  13.171  0.7936 -1.4334  0.3154
 2342TIP3   OH228516   6.588   1.656  11.708  0.1180 -0.0343 -0.1377
 2342TIP3    H128517   6.654   1.724  11.694  0.5363 -0.5052 -0.4453
 2342TIP3    H228518   6.546   1.681  11.791 -0.6229  1.3207 -0.8786
 2343TIP3   OH228519   7.172   6.636  11.297  0.1567 -0.0752  0.0523
 2343TIP3    H128520   7.247   6.681  11.337 -1.1096  1.3964  0.9082
 2343TIP3    H228521   7.114   6.707  11.271 -0.1586 -1.1179 -2.2808
 2344TIP3   OH228522   5.150   3.812  10.332 -0.2851 -0.1471  0.0049
 2344TIP3    H128523   5.103   3.730  10.347 -0.3115  0.2298  2.4562
 2344TIP3    H228524   5.117   3.844  10.249 -1.8690 -1.5580  0.0427
 2345TIP3   OH228525   6.013   0.347  12.035  0.6882 -0.2485 -0.0937
 2345TIP3    H128526   5.994   0.253  12.030 -1.1693  0.0038  1.2799
 2345TIP3    H228527   6.105   0.354  12.008  1.1919 -2.5849  0.7552
 2346TIP3   OH228528   0.286   5.694  14.996 -0.4971 -0.2786  0.1549
 2346TIP3    H128529   0.209   5.645  15.025 -0.2390  0.7257  2.8181
 2346TIP3    H228530   0.254   5.784  14.984  0.1061  0.0164  0.6751
 2347TIP3   OH228531   4.506   6.617  11.910 -0.4309 -0.4206 -0.3690
 2347TIP3    H128532   4.568   6.647  11.977 -0.4210 -1.2849  0.0223
 2347TIP3    H228533   4.481   6.696  11.863 -0.7756  0.2792  0.9394
 2348TIP3   OH228534   4.418   4.593  10.520 -0.2270 -0.3251 -0.0092
 2348TIP3    H128535   4.508   4.580  10.491  0.3164 -0.0330  1.4501
 2348TIP3    H228536   4.367   4.528  10.472  0.5920  0.1703 -1.5960
 2349TIP3   OH228537   5.384   0.615  12.085  0.4258  0.2592  0.1131
 2349TIP3    H128538   5.372   0.671  12.008  1.5418 -0.1926 -0.4156
 2349TIP3    H228539   5.344   0.664  12.157 -0.3728  0.8271 -0.6966
 2350TIP3   OH228540   0.150   0.876  13.691  0.3263 -0.5509 -0.0905
 2350TIP3    H128541   0.238   0.915  13.695 -0.0624  0.5813 -1.6638
 2350TIP3    H228542   0.152   0.806  13.756  3.1705 -2.1182 -1.6425
 2351TIP3   OH228543   4.497   4.090  12.663 -0.0838  0.0937 -0.4065
 2351TIP3    H128544   4.521   3.998  12.647 -1.6722 -0.3517 -0.4088
 2351TIP3    H228545   4.579   4.138  12.653  0.8563 -1.3697 -0.0182
 2352TIP3   OH228546   3.903   6.842   9.634 -0.0992  0.4158 -0.2898
 2352TIP3    H128547   3.993   6.811   9.642 -0.6792 -0.9663  1.6440
 2352TIP3    H228548   3.849   6.764   9.650 -1.6595  1.2070 -1.3979
 2353TIP3   OH228549   4.160   0.042  12.270  0.1214 -0.0977 -0.1105
 2353TIP3    H128550   4.081  -0.002  12.239  0.7443 -0.4441 -1.3042
 2353TIP3    H228551   4.210  -0.026  12.315  0.3562 -0.2257 -0.5579
 2354TIP3   OH228552   3.259   4.992  10.322  0.0999  0.2972  0.2153
 2354TIP3    H128553   3.254   4.949  10.408  1.8088  0.2957  0.3367
 2354TIP3    H228554   3.227   5.081  10.339  0.0573  0.1836  0.7575
 2355TIP3   OH228555   0.429   6.923  11.428 -0.0933  0.5899 -0.0935
 2355TIP3    H128556   0.365   6.988  11.399  1.1892  1.6040 -0.7169
 2355TIP3    H228557   0.506   6.939  11.375  0.3933 -1.2143  0.0021
 2356TIP3   OH228558   6.936   6.448   0.749  0.3928 -0.1441 -0.0903
 2356TIP3    H128559   6.950   6.542   0.758 -1.9451  0.2488 -0.0207
 2356TIP3    H228560   7.015   6.416   0.706  0.0179  2.3476 -2.9839
 2357TIP3   OH228561   0.885   0.275  13.806 -0.0935 -0.4059 -0.5016
 2357TIP3    H128562   0.883   0.282  13.711  1.5631  0.8228 -0.4964
 2357TIP3    H228563   0.978   0.266  13.827 -0.5582 -2.6739  0.9188
 2358TIP3   OH228564   1.643   6.899  14.346  0.0760 -0.3023  0.0371
 2358TIP3    H128565   1.580   6.964  14.314  1.2572  0.8385 -0.0705
 2358TIP3    H228566   1.606   6.869  14.429 -0.1480  1.0822  0.4763
 2359TIP3   OH228567   6.495   6.855  10.739 -0.1721  0.0674  0.3983
 2359TIP3    H128568   6.417   6.810  10.707  1.1108 -0.3043 -2.5795
 2359TIP3    H228569   6.560   6.785  10.748  0.8390  0.8159 -0.8230
 2360TIP3   OH228570   5.152   6.382  10.205  0.6997 -0.3757  0.3581
 2360TIP3    H128571   5.152   6.362  10.111 -0.8266 -0.3104  0.3084
 2360TIP3    H228572   5.110   6.306  10.245  1.2405 -0.3501  0.9766
 2361TIP3   OH228573   0.847   2.981  11.659  0.0808 -0.1546 -0.3534
 2361TIP3    H128574   0.932   2.942  11.677 -0.4760 -0.7644  1.0678
 2361TIP3    H228575   0.825   3.030  11.738  0.0483  1.7911 -1.4965
 2362TIP3   OH228576   0.253   3.626   0.795  0.1007  0.0147  0.4245
 2362TIP3    H128577   0.245   3.575   0.876 -0.1195  0.2313  0.5413
 2362TIP3    H228578   0.213   3.710   0.816  2.7843  1.2251  1.0494
 2363TIP3   OH228579   5.830   0.133  13.540  0.1399 -0.0698 -0.3443
 2363TIP3    H128580   5.828   0.229  13.537 -1.9527 -0.0686 -0.5403
 2363TIP3    H228581   5.876   0.113  13.622  0.8011  1.0899 -0.4033
 2364TIP3   OH228582   6.661   6.235  13.003  0.3747 -0.5037  0.4570
 2364TIP3    H128583   6.585   6.178  13.016 -0.5222  0.7606  0.8828
 2364TIP3    H228584   6.644   6.311  13.058  1.1756  0.5328 -0.6790
 2365TIP3   OH228585   1.665   3.765  10.895  0.2000 -0.1080 -0.6378
 2365TIP3    H128586   1.747   3.766  10.845  0.1617 -1.1005 -0.7413
 2365TIP3    H228587   1.636   3.856  10.896 -0.2641 -0.1493 -3.2129
 2366TIP3   OH228588   2.594   2.216  11.280 -0.2020  0.1579  0.2427
 2366TIP3    H128589   2.619   2.220  11.188 -3.3334 -0.5102 -0.7288
 2366TIP3    H228590   2.634   2.135  11.312  0.1780 -0.0642 -0.7549
 2367TIP3   OH228591   6.804   1.847  14.936 -0.2247  0.4645  0.2428
 2367TIP3    H128592   6.864   1.773  14.948  0.5091  0.7255 -1.5645
 2367TIP3    H228593   6.861   1.920  14.912 -0.9217  1.7126  2.1507
 2368TIP3   OH228594   2.524   4.019  13.054  0.8135  0.2635  0.2012
 2368TIP3    H128595   2.506   3.927  13.035  0.1645  0.0095  1.8421
 2368TIP3    H228596   2.451   4.047  13.108  0.7669  1.9016 -0.6381
 2369TIP3   OH228597   4.885   1.871  14.002  0.1585 -0.2663 -0.3796
 2369TIP3    H128598   4.888   1.784  13.963  4.0514 -0.5820  0.1427
 2369TIP3    H228599   4.945   1.923  13.948  0.2358  1.2122  1.0473
 2370TIP3   OH228600   0.265   3.102  11.859  0.2639  0.2696 -0.0631
 2370TIP3    H128601   0.292   3.117  11.768  0.4070  0.5634  0.0290
 2370TIP3    H228602   0.188   3.046  11.852  0.1743  0.4308 -0.3744
 2371TIP3   OH228603   4.357   3.515  12.010  0.4026 -0.2660  0.2422
 2371TIP3    H128604   4.351   3.539  11.918  0.7133  0.7757  0.4882
 2371TIP3    H228605   4.409   3.435  12.011  1.3693  0.3493 -0.3907
 2372TIP3   OH228606   2.262   0.728  12.934  0.9147 -0.0034 -0.1060
 2372TIP3    H128607   2.169   0.735  12.955  0.4509  1.3965 -2.3406
 2372TIP3    H228608   2.270   0.644  12.888  1.0392 -0.7530  1.2420
 2373TIP3   OH228609   6.652   6.470  12.023 -0.1934 -0.1288  0.3462
 2373TIP3    H128610   6.712   6.521  12.077 -0.6559 -0.0576  0.8047
 2373TIP3    H228611   6.617   6.532  11.959  0.5733 -0.2773 -0.2309
 2374TIP3   OH228612   0.802   5.002  14.480  0.0155  0.2118  0.3384
 2374TIP3    H128613   0.776   4.951  14.403 -0.4212 -0.7190  1.0865
 2374TIP3    H228614   0.853   5.074  14.444  0.7938 -0.8339 -0.7504
 2375TIP3   OH228615   5.745   5.804   1.468 -0.1911  0.6698  0.4695
 2375TIP3    H128616   5.685   5.730   1.483  0.1864  0.4235  0.8074
 2375TIP3    H228617   5.710   5.848   1.391  0.0372 -0.3425 -0.2393
 2376TIP3   OH228618   0.790   0.307  11.397  0.1777  0.2996 -0.0759
 2376TIP3    H128619   0.746   0.357  11.329 -1.7047 -0.5344  0.4699
 2376TIP3    H228620   0.721   0.255  11.437  2.0087 -3.0457 -0.8377
 2377TIP3   OH228621   3.160   2.054  11.246 -0.1949 -0.6018  0.1326
 2377TIP3    H128622   3.115   2.060  11.330  0.7043 -0.7171  0.6359
 2377TIP3    H228623   3.090   2.041  11.182 -0.7880 -2.0915  1.0367
 2378TIP3   OH228624   3.056   3.280  10.176 -0.4796 -0.2390 -0.2270
 2378TIP3    H128625   3.145   3.244  10.174  0.4439  0.8752  5.2131
 2378TIP3    H228626   2.999   3.203  10.184  0.7988 -0.9984  3.4407
 2379TIP3   OH228627   6.419   4.401  11.000  0.0636  0.0956 -0.1332
 2379TIP3    H128628   6.444   4.486  11.036  2.9138 -0.0722 -1.4390
 2379TIP3    H228629   6.392   4.350  11.077  0.4479  1.4831  0.9646
 2380TIP3   OH228630   2.714   3.906  10.036  0.3244  0.0744 -0.3795
 2380TIP3    H128631   2.766   3.929   9.959  1.9602  0.6415  0.8287
 2380TIP3    H228632   2.733   3.813  10.050  0.5579  0.1303 -0.3036
 2381TIP3   OH228633   6.135   5.848  10.794 -0.0211  0.3634  0.1114
 2381TIP3    H128634   6.196   5.913  10.829  1.1067 -1.5998  2.0500
 2381TIP3    H228635   6.053   5.864  10.840  0.1104  0.7189  0.2230
 2382TIP3   OH228636   1.364   5.461  15.035 -0.4531  0.1930  0.0214
 2382TIP3    H128637   1.421   5.493  15.105 -0.2792  2.2644 -1.0138
 2382TIP3    H228638   1.289   5.423  15.081  0.3211  0.2076  1.3424
 2383TIP3   OH228639   6.921   2.500   3.152  0.2812 -0.2913 -0.3559
 2383TIP3    H128640   6.942   2.406   3.150  0.1070 -0.3219 -1.1313
 2383TIP3    H228641   6.961   2.532   3.232 -0.4974 -1.2293  0.4330
 2384TIP3   OH228642   5.029   6.692  13.382  0.3744  0.1933 -0.4949
 2384TIP3    H128643   5.057   6.642  13.458 -0.9994  0.1295 -0.0126
 2384TIP3    H228644   4.983   6.628  13.327 -0.2160  0.6263 -0.5110
 2385TIP3   OH228645   6.157   5.881  11.728  0.2600 -0.1365 -0.1780
 2385TIP3    H128646   6.187   5.836  11.649  0.8253 -0.5343  0.2548
 2385TIP3    H228647   6.215   5.850  11.797  0.9113  1.5514  0.0767
 2386TIP3   OH228648   2.277   5.815  14.395  0.2943  0.1188  0.3051
 2386TIP3    H128649   2.200   5.783  14.442  0.0719  0.3566  0.1043
 2386TIP3    H228650   2.337   5.846  14.463  0.7273 -1.1830  0.5441
 2387TIP3   OH228651   3.110   6.698   9.774 -0.7406 -0.1614 -0.4697
 2387TIP3    H128652   3.017   6.713   9.754 -0.7600  0.3961  0.0133
 2387TIP3    H228653   3.114   6.702   9.870 -0.2500 -0.4010 -0.4795
 2388TIP3   OH228654   4.282   4.394  10.400 -0.2617  0.2444  0.1880
 2388TIP3    H128655   4.336   4.333  10.349 -0.4569  0.9990 -0.9726
 2388TIP3    H228656   4.192   4.368  10.380 -0.4701 -2.0680  3.3938
 2389TIP3   OH228657   0.627   4.354  12.346  0.3260  0.4704 -0.0038
 2389TIP3    H128658   0.642   4.428  12.405 -1.2254  0.5923  0.2853
 2389TIP3    H228659   0.557   4.385  12.287  0.9757 -0.0995 -1.0985
 2390TIP3   OH228660   4.706   6.111  10.946 -0.1022  0.3631  0.0000
 2390TIP3    H128661   4.621   6.141  10.916  0.2863  3.2785  1.4366
 2390TIP3    H228662   4.767   6.138  10.877 -0.2255 -1.3384 -0.8264
 2391TIP3   OH228663   6.162   0.665  12.822 -0.2967  0.0335  0.1122
 2391TIP3    H128664   6.076   0.695  12.851 -0.3547  0.2155 -0.2513
 2391TIP3    H228665   6.199   0.739  12.774  1.0145  0.8152  2.1712
 2392TIP3   OH228666   3.472   1.833  13.559 -0.2437  0.0522  0.0552
 2392TIP3    H128667   3.542   1.782  13.519  0.6314  1.2130  0.0837
 2392TIP3    H228668   3.506   1.922  13.566 -2.5906  1.2620 -2.2181
 2393TIP3   OH228669   5.424   7.111  13.002  0.3990 -0.4367  0.1126
 2393TIP3    H128670   5.343   7.119  13.053  0.8617 -1.3466  1.0217
 2393TIP3    H228671   5.470   7.193  13.019 -0.1976 -0.0253 -0.1943
 2394TIP3   OH228672   1.728   5.351  11.877  0.0377  0.5672 -0.0437
 2394TIP3    H128673   1.722   5.302  11.796 -0.7504 -0.3622  0.5479
 2394TIP3    H228674   1.664   5.421  11.868 -2.6630 -1.5732  1.0691
 2395TIP3   OH228675   2.464   1.957  10.702 -0.4595 -0.5214  0.1300
 2395TIP3    H128676   2.439   2.045  10.732 -0.6395 -0.4662 -0.1728
 2395TIP3    H228677   2.384   1.905  10.711  0.0652 -1.0758  1.8306
 2396TIP3   OH228678   1.050   2.159  12.370 -0.2223  0.0503  0.0292
 2396TIP3    H128679   1.032   2.238  12.419 -0.1866 -0.5576  1.0400
 2396TIP3    H228680   0.973   2.104  12.383  0.2687 -0.5736  0.3436
 2397TIP3   OH228681   5.437   3.530  11.553 -0.0699  0.1887 -0.1554
 2397TIP3    H128682   5.417   3.614  11.513 -1.5721 -1.4411 -3.2014
 2397TIP3    H228683   5.524   3.541  11.592 -0.3685  3.1706 -0.1514
 2398TIP3   OH228684   5.893   2.704  10.505 -0.1693 -0.3827  0.4535
 2398TIP3    H128685   5.816   2.648  10.509 -0.7314  0.1504 -1.8982
 2398TIP3    H228686   5.859   2.791  10.485  1.0489 -0.2852 -1.3891
 2399TIP3   OH228687   0.838   3.123  12.249  0.5324 -0.0347  0.2502
 2399TIP3    H128688   0.844   3.208  12.205  0.9993 -0.0536  0.2656
 2399TIP3    H228689   0.764   3.079  12.207 -0.4769  0.8506  1.0850
 2400TIP3   OH228690   6.733   6.398  10.003  0.3944 -0.3688 -0.4843
 2400TIP3    H128691   6.710   6.488   9.981  1.2029 -0.1506 -0.4785
 2400TIP3    H228692   6.649   6.351  10.005 -0.1355  0.5758  0.4184
 2401TIP3   OH228693   0.307   2.262   2.069 -0.1142 -0.4919  0.6771
 2401TIP3    H128694   0.318   2.173   2.102 -0.9816 -1.1813 -0.8205
 2401TIP3    H228695   0.371   2.269   1.998 -2.4526 -1.2427 -1.6607
 2402TIP3   OH228696   7.054   0.945  10.419 -0.3930 -0.4879 -0.2413
 2402TIP3    H128697   6.990   0.890  10.374 -0.3774 -0.3746 -0.3990
 2402TIP3    H228698   7.135   0.934  10.369 -0.9998  1.6530 -1.8051
 2403TIP3   OH228699   2.016   6.839  13.709  0.6333  0.4644  0.4113
 2403TIP3    H128700   2.031   6.824  13.802 -0.2657  0.4994  0.5769
 2403TIP3    H228701   1.935   6.790  13.690  0.8169  0.4429 -0.3545
 2404TIP3   OH228702   5.485   6.157   9.703 -0.0660  0.0103  0.2583
 2404TIP3    H128703   5.544   6.097   9.750  1.5789  1.0153 -0.4635
 2404TIP3    H228704   5.479   6.120   9.615 -0.2749  0.0966  0.2347
 2405TIP3   OH228705   1.443   2.206   4.799  0.0256 -0.7466 -0.0547
 2405TIP3    H128706   1.521   2.177   4.752  0.6850  1.3648 -0.3753
 2405TIP3    H228707   1.451   2.167   4.886  3.4389  2.2284  1.2098
 2406TIP3   OH228708   0.349   5.747   9.262  0.2539  0.2197 -0.3366
 2406TIP3    H128709   0.400   5.819   9.300  1.0142 -0.7001  0.4483
 2406TIP3    H228710   0.279   5.731   9.326 -1.4679  1.8524 -1.6700
 2407TIP3   OH228711   2.583   5.566  10.325 -0.0250 -0.0283 -0.5181
 2407TIP3    H128712   2.615   5.565  10.235  0.0844  0.5458 -0.4918
 2407TIP3    H228713   2.497   5.608  10.320  0.5069  1.1642 -0.2094
 2408TIP3   OH228714   3.563   2.853   0.167  0.4575 -0.1290 -0.4218
 2408TIP3    H128715   3.477   2.862   0.126  0.2830  1.5328  0.2306
 2408TIP3    H228716   3.559   2.768   0.211 -0.4605 -0.5549 -1.2841
 2409TIP3   OH228717   3.499   5.673  11.405  0.4054  0.4306 -0.5196
 2409TIP3    H128718   3.423   5.614  11.405  2.2601 -2.1699  1.1987
 2409TIP3    H228719   3.567   5.624  11.359  1.8996  1.4038  0.5619
 2410TIP3   OH228720   4.141   4.583  13.267  0.0694  0.8588  0.9374
 2410TIP3    H128721   4.118   4.643  13.196 -0.4267 -0.3874 -0.0043
 2410TIP3    H228722   4.174   4.505  13.221  1.4665  0.7081  2.1362
 2411TIP3   OH228723   6.372   4.400  14.077  0.7043 -0.4420 -0.1320
 2411TIP3    H128724   6.420   4.319  14.092  1.1587  0.0171  1.0072
 2411TIP3    H228725   6.310   4.405  14.150  0.3817  0.0148 -0.4327
 2412TIP3   OH228726   3.175   6.391  10.200 -0.6088 -0.1740  0.1895
 2412TIP3    H128727   3.267   6.396  10.172 -0.2947 -0.2947  1.1558
 2412TIP3    H228728   3.180   6.359  10.291 -1.4755  1.9459  1.0302
 2413TIP3   OH228729   5.074   2.076   1.366  0.8510 -0.2066 -0.5133
 2413TIP3    H128730   4.983   2.049   1.378  0.8713 -0.2534 -0.4620
 2413TIP3    H228731   5.101   2.035   1.284  1.1881 -1.1687  0.0612
 2414TIP3   OH228732   2.063   2.834  11.735  0.3521 -0.0252 -0.2623
 2414TIP3    H128733   2.134   2.810  11.794  0.3489 -2.4287 -1.1368
 2414TIP3    H228734   1.991   2.776  11.758 -0.4530  0.6032 -1.0933
 2415TIP3   OH228735   4.635   6.822  10.803 -0.4728  0.4403 -0.0232
 2415TIP3    H128736   4.604   6.762  10.736 -0.4732 -0.3753  0.6871
 2415TIP3    H228737   4.641   6.907  10.759 -0.3758 -0.0935 -1.0689
 2416TIP3   OH228738   5.675   5.649  10.260 -0.4855 -0.2271 -0.5241
 2416TIP3    H128739   5.615   5.717  10.290  1.3755  1.6755 -0.8643
 2416TIP3    H228740   5.655   5.638  10.167  0.1099  0.9144 -0.8046
 2417TIP3   OH228741   5.586   5.598   9.984 -0.2460 -0.4501 -0.0034
 2417TIP3    H128742   5.499   5.637   9.998 -0.3163 -0.7182  0.3009
 2417TIP3    H228743   5.591   5.587   9.889 -0.3757 -0.0441 -0.0617
 2418TIP3   OH228744   4.255   5.842  11.817 -0.4044  0.1024 -0.5354
 2418TIP3    H128745   4.318   5.775  11.791 -1.0577 -0.5651 -0.4498
 2418TIP3    H228746   4.258   5.842  11.913 -0.3234  0.2796 -0.5370
 2419TIP3   OH228747   0.342   3.325  10.953 -0.5768 -0.5417 -0.3201
 2419TIP3    H128748   0.269   3.278  10.913 -0.6175 -0.6941 -0.0738
 2419TIP3    H228749   0.330   3.311  11.047 -0.2671 -0.5129 -0.2757
 2420TIP3   OH228750   4.051   2.755  15.018  0.0294 -0.4808 -0.4525
 2420TIP3    H128751   3.997   2.819  15.064  0.9825  0.4034 -0.5327
 2420TIP3    H228752   4.012   2.749  14.930  1.1965  1.6896 -1.2021
 2421TIP3   OH228753   0.708   0.855  10.693  0.4103  0.3189  0.4045
 2421TIP3    H128754   0.778   0.921  10.696  0.5849  0.1098  1.3524
 2421TIP3    H228755   0.634   0.896  10.738  0.3712  0.0443  0.5927
 2422TIP3   OH228756   3.043   5.455  13.539  0.3700 -0.0034 -0.1822
 2422TIP3    H128757   3.050   5.388  13.606  0.4451 -0.6205 -0.7963
 2422TIP3    H228758   3.121   5.509  13.549  1.0486 -0.8894 -0.6233
 2423TIP3   OH228759   6.401   1.336  14.734 -0.2466  0.0478 -0.1801
 2423TIP3    H128760   6.420   1.348  14.827 -0.2816 -3.1968  0.3384
 2423TIP3    H228761   6.487   1.330  14.693 -0.2288  0.2383 -0.1720
 2424TIP3   OH228762   7.110   5.361  14.307  0.3945 -0.3398 -0.0332
 2424TIP3    H128763   7.054   5.363  14.229  0.1432 -1.6544  0.0910
 2424TIP3    H228764   7.136   5.270  14.316 -2.0481 -0.9290  3.1134
 2425TIP3   OH228765   0.685   6.334   9.758  0.2631 -0.7364 -0.3319
 2425TIP3    H128766   0.717   6.390   9.687 -0.5479 -0.7314 -0.6956
 2425TIP3    H228767   0.600   6.302   9.728  0.2123 -1.2734  0.3513
 2426TIP3   OH228768   2.949   1.006  10.952  0.0812 -0.3201  0.7185
 2426TIP3    H128769   2.896   1.024  10.875 -0.6632 -1.3572  0.9652
 2426TIP3    H228770   2.892   1.025  11.026  0.4207 -0.3969  1.0037
 2427TIP3   OH228771   6.673   3.249  12.700  0.3564  0.3661 -0.1191
 2427TIP3    H128772   6.726   3.231  12.623  0.4784  1.5974 -0.3462
 2427TIP3    H228773   6.603   3.185  12.697  2.1537 -1.7834  0.5618
 2428TIP3   OH228774   3.511   5.527  11.684  0.0798 -0.2410  0.0043
 2428TIP3    H128775   3.459   5.549  11.607 -1.1015 -0.8809  0.5872
 2428TIP3    H228776   3.522   5.610  11.730 -0.6808 -0.1301  0.0083
 2429TIP3   OH228777   1.951   4.207  11.820 -0.2967  0.4000 -0.0800
 2429TIP3    H128778   1.918   4.250  11.742  0.8081 -0.2488 -0.9524
 2429TIP3    H228779   1.925   4.115  11.810  0.9442  0.0522 -0.3646
 2430TIP3   OH228780   1.945   6.516   9.909  0.6861 -0.1337 -0.9544
 2430TIP3    H128781   1.880   6.481   9.970  1.7463 -0.0820  0.2378
 2430TIP3    H228782   1.954   6.448   9.842  0.2708 -0.6647 -0.4853
 2431TIP3   OH228783   2.152   0.780  11.506 -0.0426 -0.9131  0.1112
 2431TIP3    H128784   2.120   0.761  11.417  1.5974  1.2154 -1.0331
 2431TIP3    H228785   2.192   0.697  11.534 -0.0548 -1.4771 -1.4003
 2432TIP3   OH228786   6.711   0.085   9.862  0.9422  0.2325  0.4183
 2432TIP3    H128787   6.671   0.016   9.915  0.7746 -1.0570 -1.3280
 2432TIP3    H228788   6.801   0.055   9.846  1.1316  0.8264  0.3181
 2433TIP3   OH228789   2.640   2.620   9.862  0.5553 -0.3384  0.0047
 2433TIP3    H128790   2.550   2.601   9.836  1.1863 -3.3717 -0.2931
 2433TIP3    H228791   2.687   2.632   9.780  0.2404  2.8880  0.1634
 2434TIP3   OH228792   2.918   6.488  10.246 -0.0895 -0.2044  0.4516
 2434TIP3    H128793   3.013   6.472  10.240 -0.1462 -0.3220 -0.2530
 2434TIP3    H228794   2.887   6.476  10.156 -0.8165 -0.4269  0.7320
 2435TIP3   OH228795   1.137   4.115   9.542 -0.1260  0.3147  0.4562
 2435TIP3    H128796   1.118   4.203   9.511 -1.1159 -0.7923 -2.3629
 2435TIP3    H228797   1.223   4.123   9.585  0.3792  2.4300 -0.8044
 2436TIP3   OH228798   4.612   3.582   3.167  0.3540  0.1844 -0.4914
 2436TIP3    H128799   4.555   3.517   3.207  1.7453 -0.9434 -0.2649
 2436TIP3    H228800   4.699   3.540   3.165  1.1675  1.8041 -0.8760
 2437TIP3   OH228801   6.867   1.593  12.836 -0.0615  0.0790  0.3794
 2437TIP3    H128802   6.952   1.624  12.804 -0.8588  0.9882 -0.9466
 2437TIP3    H228803   6.853   1.640  12.918  0.8243 -0.2933  0.7581
 2438TIP3   OH228804   0.401   6.801  13.886 -0.3816  0.2864  0.6173
 2438TIP3    H128805   0.319   6.753  13.896  0.9396 -2.3513 -0.2125
 2438TIP3    H228806   0.438   6.768  13.804  2.5327 -0.3819  2.0684
 2439TIP3   OH228807   6.617   6.555   0.674  0.5049 -0.4337 -0.1461
 2439TIP3    H128808   6.544   6.516   0.625  0.1885  0.2372 -0.2164
 2439TIP3    H228809   6.691   6.496   0.657  0.1157 -0.8321 -0.5026
 2440TIP3   OH228810   4.982   6.412   0.102 -0.2785 -0.4362  0.5106
 2440TIP3    H128811   4.999   6.352   0.174 -0.5207 -0.0373  0.9013
 2440TIP3    H228812   4.897   6.451   0.122 -0.3841 -0.3728 -0.0241
 2441TIP3   OH228813   6.260   5.462  13.541 -0.1896 -0.4572 -0.5009
 2441TIP3    H128814   6.291   5.376  13.569 -0.7611 -0.1420  1.2886
 2441TIP3    H228815   6.318   5.524  13.585  0.4893  0.0968 -2.1184
 2442TIP3   OH228816   6.678   4.016  10.950 -0.5356 -0.2168  0.5397
 2442TIP3    H128817   6.700   4.098  10.905  0.4916 -1.5763 -1.6261
 2442TIP3    H228818   6.598   3.986  10.907  0.2262 -1.3355 -0.1513
 2443TIP3   OH228819   0.285   0.243  11.813 -0.2261 -0.0328  0.3453
 2443TIP3    H128820   0.238   0.326  11.807  0.4113  0.3853  1.0285
 2443TIP3    H228821   0.238   0.194  11.882  0.4957  0.5071  1.2458
 2444TIP3   OH228822   2.641   3.921  12.610 -0.6743 -0.9349  0.0859
 2444TIP3    H128823   2.694   3.974  12.550 -0.0147 -1.5801  0.0838
 2444TIP3    H228824   2.665   3.953  12.697 -1.4713 -0.1455  0.0225
 2445TIP3   OH228825   6.470   0.859  12.631  0.1677  0.1679 -0.1988
 2445TIP3    H128826   6.559   0.883  12.656  0.5580  0.5143 -1.8071
 2445TIP3    H228827   6.415   0.893  12.701  1.2717  0.1249  0.7149
 2446TIP3   OH228828   4.687   1.535  11.146  0.3787  0.4527 -0.1524
 2446TIP3    H128829   4.632   1.571  11.216 -0.4130 -0.9209 -0.0392
 2446TIP3    H228830   4.637   1.549  11.066  2.2852  4.1964 -0.9197
 2447TIP3   OH228831   3.329   4.808   9.399 -0.1089 -0.1305 -0.4780
 2447TIP3    H128832   3.340   4.782   9.491  0.8384  0.6620 -0.3579
 2447TIP3    H228833   3.387   4.749   9.351  1.2591  1.0098 -0.3047
 2448TIP3   OH228834   1.367   2.941  10.234  0.8304 -0.5180 -0.2166
 2448TIP3    H128835   1.318   2.987  10.303 -1.3653 -0.8929 -1.4502
 2448TIP3    H228836   1.411   2.870  10.280 -1.3739 -1.3649  0.7387
 2449TIP3   OH228837   6.646   5.605   9.342 -0.2261  0.3066 -0.4724
 2449TIP3    H128838   6.618   5.651   9.263  0.3196  0.5905 -0.5109
 2449TIP3    H228839   6.628   5.667   9.413 -1.6101 -0.3191 -0.2469
 2450TIP3   OH228840   7.159   2.712  11.745  0.1822 -0.1814  0.3831
 2450TIP3    H128841   7.248   2.684  11.768 -0.6454 -1.5372  2.1364
 2450TIP3    H228842   7.108   2.631  11.746 -0.7721  0.3059 -2.3720
 2451TIP3   OH228843   4.780   2.665   2.241  0.2073  0.2119 -0.0695
 2451TIP3    H128844   4.847   2.596   2.233 -0.3462 -0.3496  0.0362
 2451TIP3    H228845   4.697   2.617   2.243 -0.2795  0.9459 -1.3093
 2452TIP3   OH228846   1.240   5.506  11.606 -0.2900 -0.7470  0.3141
 2452TIP3    H128847   1.305   5.440  11.631  0.8882  0.3966  0.3729
 2452TIP3    H228848   1.275   5.588  11.641 -0.1607  0.4317 -2.3356
 2453TIP3   OH228849   0.743   1.471   0.046 -0.5067  0.5033  0.3181
 2453TIP3    H128850   0.758   1.394  -0.010 -1.0912  0.4452  0.2335
 2453TIP3    H228851   0.656   1.502   0.021  0.3247  2.1214 -0.7342
 2454TIP3   OH228852   6.368   1.700  13.243  0.2880  0.1248 -0.2462
 2454TIP3    H128853   6.331   1.711  13.331  3.1704  2.6107  0.8028
 2454TIP3    H228854   6.456   1.665  13.258  1.1246  1.3057 -2.0519
 2455TIP3   OH228855   6.116   3.895  13.236  0.5429  0.8241 -0.1582
 2455TIP3    H128856   6.029   3.910  13.272  0.2759  0.6134 -0.7027
 2455TIP3    H228857   6.122   3.800  13.227  0.8174  0.8398 -0.1445
 2456TIP3   OH228858   3.880   2.451  12.573  0.4572  0.2807 -0.4645
 2456TIP3    H128859   3.879   2.356  12.576  0.5201  0.2749 -0.6388
 2456TIP3    H228860   3.960   2.473  12.525  1.7934  0.4681  1.7028
 2457TIP3   OH228861   5.507   6.665  10.282 -0.4006  0.0961 -0.2691
 2457TIP3    H128862   5.498   6.637  10.191  0.3642  1.6502 -0.8617
 2457TIP3    H228863   5.434   6.623  10.328 -2.2937  1.2682 -2.0736
 2458TIP3   OH228864   4.745   2.146  13.294 -0.2566 -0.0491 -0.0114
 2458TIP3    H128865   4.768   2.231  13.329  1.4641 -0.3665 -0.2784
 2458TIP3    H228866   4.799   2.136  13.216 -0.7332 -1.2076 -0.2262
 2459TIP3   OH228867   5.503   1.715   1.473 -0.3717  0.4429  0.1288
 2459TIP3    H128868   5.423   1.683   1.430 -0.0235 -0.2577 -0.0093
 2459TIP3    H228869   5.471   1.768   1.546 -0.9720 -0.6229  0.6604
 2460TIP3   OH228870   3.524   1.492  12.356 -0.0138 -0.1850 -0.2065
 2460TIP3    H128871   3.544   1.585  12.366 -1.7583  0.4070 -1.8255
 2460TIP3    H228872   3.528   1.458  12.446  0.3026  1.5034  0.4669
 2461TIP3   OH228873   0.700   5.229  10.923  0.0851 -0.4228 -0.5702
 2461TIP3    H128874   0.671   5.243  10.832  0.1537 -0.9631 -0.6811
 2461TIP3    H228875   0.630   5.267  10.976 -0.3921 -0.8909 -0.8454
 2462TIP3   OH228876   2.423   0.420  11.540 -0.1219  0.6177  0.0120
 2462TIP3    H128877   2.355   0.358  11.516  0.7297 -0.9610  1.4818
 2462TIP3    H228878   2.378   0.485  11.594 -0.7954  0.6463 -0.5693
 2463TIP3   OH228879   3.127   3.203   9.847 -0.0310 -0.7025  0.1922
 2463TIP3    H128880   3.140   3.208   9.752 -2.6272  3.7029 -0.2099
 2463TIP3    H228881   3.035   3.179   9.858  0.3858 -1.7944  1.6955
 2464TIP3   OH228882   0.438   0.456  10.373 -0.0304  0.0435  0.0227
 2464TIP3    H128883   0.468   0.366  10.389  0.0057  0.1623  0.6579
 2464TIP3    H228884   0.496   0.488  10.303  0.2044 -0.2996  0.0545
 2465TIP3   OH228885   0.134   6.686   9.461 -0.1480  0.6853 -0.0422
 2465TIP3    H128886   0.209   6.739   9.488  1.3836 -1.6057  0.4265
 2465TIP3    H228887   0.112   6.635   9.538 -2.6505  1.7124  0.0159
 2466TIP3   OH228888   6.752   6.247  12.173  0.1279  0.3743  0.1521
 2466TIP3    H128889   6.812   6.301  12.224 -0.0477  0.9174 -0.2166
 2466TIP3    H228890   6.696   6.309  12.126  0.4547 -0.1036 -0.9099
 2467TIP3   OH228891   4.257   1.559   9.454  0.7102  0.0452 -0.3900
 2467TIP3    H128892   4.178   1.564   9.508  1.3049  0.0447  0.5049
 2467TIP3    H228893   4.274   1.465   9.444  0.9178  0.0506 -0.0963
 2468TIP3   OH228894   0.972   5.395  14.779 -0.6894 -0.4763  0.5588
 2468TIP3    H128895   0.989   5.366  14.869 -0.3794 -0.6571  0.4410
 2468TIP3    H228896   0.877   5.392  14.771 -0.7442 -0.0723  1.0128
 2469TIP3   OH228897   4.279   3.432   9.602 -0.0024  0.5906 -0.0545
 2469TIP3    H128898   4.227   3.460   9.677 -0.2578  1.0728 -0.4080
 2469TIP3    H228899   4.249   3.342   9.585 -1.6308  1.2761 -1.0203
 2470TIP3   OH228900   6.431   0.324  15.128 -0.4886 -0.7379  0.2798
 2470TIP3    H128901   6.498   0.366  15.182  0.6820  0.2663 -1.8574
 2470TIP3    H228902   6.358   0.386  15.128  0.0064 -0.1343 -0.2800
 2471TIP3   OH228903   5.550   4.795  10.460  0.3405 -0.3889  0.5803
 2471TIP3    H128904   5.489   4.863  10.431  0.4795 -0.9385 -1.0996
 2471TIP3    H228905   5.497   4.736  10.513 -0.4633 -0.5184 -0.3426
 2472TIP3   OH228906   6.778   6.034   5.114 -0.0372 -0.2741  0.0798
 2472TIP3    H128907   6.738   5.949   5.129 -1.1854  0.1364 -0.5412
 2472TIP3    H228908   6.758   6.084   5.193  0.2421 -0.4384  0.2529
 2473TIP3   OH228909   6.528   3.653  10.083  0.2777  0.5622 -0.0587
 2473TIP3    H128910   6.492   3.735  10.117  0.6030  0.6157  0.1628
 2473TIP3    H228911   6.489   3.585  10.139  2.1123  0.7631  1.5815
 2474TIP3   OH228912   5.373   2.140  14.879  0.2193  0.2131  0.2553
 2474TIP3    H128913   5.380   2.060  14.931  1.1573  0.9104  1.2488
 2474TIP3    H228914   5.351   2.110  14.791  0.8451 -1.1530  0.5448
 2475TIP3   OH228915   7.198   0.332  12.011  0.3691 -0.1831 -0.4333
 2475TIP3    H128916   7.247   0.373  11.940  1.2690  1.0894  0.8623
 2475TIP3    H228917   7.251   0.348  12.090  0.8333 -3.9519  0.2083
 2476TIP3   OH228918   4.135   3.324  10.000  0.2269  0.2532 -0.6049
 2476TIP3    H128919   4.090   3.270  10.065 -0.8009  0.4715 -1.1180
 2476TIP3    H228920   4.098   3.296   9.916  1.0162  0.4773 -1.0329
 2477TIP3   OH228921   0.235   0.707  12.489 -0.1011  0.3408 -0.0425
 2477TIP3    H128922   0.298   0.736  12.423  0.5373  0.7924  0.7472
 2477TIP3    H228923   0.229   0.781  12.551  1.0732 -0.9179  1.6628
 2478TIP3   OH228924   6.828   6.744   0.134 -0.1552 -0.3634  0.2665
 2478TIP3    H128925   6.787   6.660   0.113 -1.4276 -0.3863  2.5756
 2478TIP3    H228926   6.908   6.720   0.181  0.1684 -0.2682 -0.2251
 2479TIP3   OH228927   5.370   3.432  10.278 -0.0355 -0.5975 -0.0983
 2479TIP3    H128928   5.329   3.348  10.260  1.9182 -1.4390 -0.9339
 2479TIP3    H228929   5.464   3.416  10.267  0.6350  1.0639  2.2486
 2480TIP3   OH228930   2.798   4.958  11.282 -0.5610  0.2775  0.1685
 2480TIP3    H128931   2.753   5.031  11.238 -2.7056 -1.2659 -0.3857
 2480TIP3    H228932   2.769   4.880  11.235  1.4599 -0.9950  0.9035
 2481TIP3   OH228933   7.035   5.453  15.186 -0.3289  0.0996 -0.1451
 2481TIP3    H128934   6.973   5.407  15.243 -1.4091  0.1558 -1.2371
 2481TIP3    H228935   7.052   5.536  15.231 -0.0068 -0.4641  0.8082
 2482TIP3   OH228936   1.037   0.822  10.480  0.0525  0.1915 -0.0736
 2482TIP3    H128937   1.128   0.798  10.496  0.3116  1.2664  0.1054
 2482TIP3    H228938   1.006   0.857  10.564 -0.3489  0.4005 -0.3068
 2483TIP3   OH228939   2.571   0.019  12.486  0.6096  0.6427 -0.0088
 2483TIP3    H128940   2.625   0.095  12.509  0.0924  0.4590  2.0456
 2483TIP3    H228941   2.485   0.040  12.523 -0.5645  0.5718 -2.4936
 2484TIP3   OH228942   2.037   4.417   9.759 -0.2722 -0.3613  0.3972
 2484TIP3    H128943   2.105   4.366   9.804  0.4194 -1.0080 -1.2963
 2484TIP3    H228944   1.964   4.356   9.751 -0.1793 -0.4417  0.1447
 2485TIP3   OH228945   0.788   6.125  13.680 -0.5767 -0.6824 -0.3357
 2485TIP3    H128946   0.816   6.034  13.672  2.0170  0.0450 -0.3237
 2485TIP3    H228947   0.837   6.159  13.755 -1.8911  0.6103 -0.0132
 2486TIP3   OH228948   0.769   5.626   9.983 -0.0076  0.1772  0.1419
 2486TIP3    H128949   0.830   5.698  10.001  0.3114  0.7826 -2.8310
 2486TIP3    H228950   0.825   5.548   9.980 -0.2346 -0.1464  2.5580
 2487TIP3   OH228951   1.491   2.939  10.514 -0.4190  0.1005  0.1626
 2487TIP3    H128952   1.445   3.022  10.501 -1.2043 -0.0445  1.7607
 2487TIP3    H228953   1.469   2.913  10.604  3.1066  0.1928  1.1884
 2488TIP3   OH228954   2.969   5.316   0.671 -0.4136  0.0794 -0.4486
 2488TIP3    H128955   2.933   5.238   0.629  1.8009 -1.1760 -0.1391
 2488TIP3    H228956   2.954   5.386   0.607 -0.1566 -1.1120 -1.8808
 2489TIP3   OH228957   2.712   5.856  15.191  0.1698 -0.5955  0.2575
 2489TIP3    H128958   2.670   5.936  15.223 -0.0530 -0.3104 -0.7187
 2489TIP3    H228959   2.778   5.886  15.129 -0.6186 -1.1892 -0.9170
 2490TIP3   OH228960   6.154   5.611  11.366  0.0070 -0.1409 -0.1298
 2490TIP3    H128961   6.185   5.520  11.363 -0.9592 -0.4731 -0.8002
 2490TIP3    H228962   6.100   5.619  11.287  0.5032  1.1835 -0.3572
 2491TIP3   OH228963   2.682   3.656  13.908 -0.2422  0.0310  0.0578
 2491TIP3    H128964   2.750   3.647  13.974  1.1167  0.0955 -1.3015
 2491TIP3    H228965   2.702   3.589  13.843 -1.6672 -0.1521 -0.2239
 2492TIP3   OH228966   2.316   5.656  10.403 -0.0102 -0.0977 -0.0117
 2492TIP3    H128967   2.287   5.595  10.470  0.3445 -0.2270  0.0268
 2492TIP3    H228968   2.274   5.739  10.427  0.4350 -0.0443  0.6041
 2493TIP3   OH228969   6.069   4.956   9.065 -0.0185 -0.7321  0.4901
 2493TIP3    H128970   6.056   4.881   9.123  0.1095 -0.4485  0.8940
 2493TIP3    H228971   6.151   4.996   9.096  0.5467 -1.1049 -0.4731
 2494TIP3   OH228972   3.969   1.774  10.585 -0.5572  0.0370  0.2203
 2494TIP3    H128973   3.908   1.834  10.628  1.1239  1.6779  0.4256
 2494TIP3    H228974   4.050   1.824  10.578  1.3420 -2.6394  1.5539
 2495TIP3   OH228975   1.041   6.000  10.675  0.2885 -0.0581  0.6337
 2495TIP3    H128976   0.950   6.025  10.689  0.0020 -0.0267 -1.0744
 2495TIP3    H228977   1.042   5.905  10.689 -1.0267 -0.8925 -3.3892
 2496TIP3   OH228978   7.061   3.108   0.190 -0.3608  0.2639 -0.6695
 2496TIP3    H128979   7.048   3.194   0.230 -1.7297 -0.2368  0.0316
 2496TIP3    H228980   7.138   3.073   0.234 -0.7472  0.4871  0.2168
 2497TIP3   OH228981   6.025   1.029  12.720  0.2932  0.1688 -0.4175
 2497TIP3    H128982   6.007   0.939  12.746  1.7140  0.4116  1.6001
 2497TIP3    H228983   5.941   1.061  12.686 -0.5012 -1.5798 -0.2277
 2498TIP3   OH228984   6.006   6.173  12.732 -0.2476  0.8415  0.8124
 2498TIP3    H128985   5.965   6.187  12.647 -0.6799  0.0330  0.8677
 2498TIP3    H228986   6.048   6.087  12.724  1.1726  1.5053  0.8716
 2499TIP3   OH228987   5.929   1.569  13.184  0.2048  0.0070 -0.2470
 2499TIP3    H128988   5.892   1.573  13.096  1.6876 -1.1428 -0.9700
 2499TIP3    H228989   5.983   1.648  13.191  0.1220  0.0771 -0.3883
 2500TIP3   OH228990   4.947   4.845  10.394 -0.1483 -0.0901  0.6193
 2500TIP3    H128991   5.012   4.823  10.460  0.4033 -1.2437 -0.2818
 2500TIP3    H228992   4.950   4.941  10.389  0.1947 -0.0173  1.8479
 2501TIP3   OH228993   4.428   4.987  11.904  0.3153 -0.4201 -0.4440
 2501TIP3    H128994   4.429   4.896  11.875 -1.8075 -0.4666 -0.4949
 2501TIP3    H228995   4.349   5.024  11.864  0.1289  0.9411  1.0995
 2502TIP3   OH228996   5.718   1.843  10.194  0.6827  0.4372  0.2644
 2502TIP3    H128997   5.720   1.753  10.162  0.4205  0.5774 -0.1598
 2502TIP3    H228998   5.702   1.835  10.288 -2.1869  0.1135 -0.1719
 2503TIP3   OH228999   2.278   2.337   9.966  0.0218  0.0056 -0.2717
 2503TIP3    H129000   2.311   2.342  10.055  0.5930 -1.3957 -0.3736
 2503TIP3    H229001   2.255   2.245   9.954 -1.5105  0.4418 -1.0769
 2504TIP3   OH229002   4.453   0.843   1.664 -0.3413  0.9589  0.2746
 2504TIP3    H129003   4.405   0.760   1.661 -0.7353  1.2071 -0.4871
 2504TIP3    H229004   4.488   0.847   1.753 -0.5677  0.1156  0.4107
 2505TIP3   OH229005   1.924   5.548   9.631  0.1293 -0.0673  0.1939
 2505TIP3    H129006   1.905   5.598   9.552 -1.6779 -1.7864 -0.5439
 2505TIP3    H229007   1.846   5.495   9.645  2.3673 -3.7524  0.0613
 2506TIP3   OH229008   6.791   3.161  12.463 -0.0546 -0.0580  0.2502
 2506TIP3    H129009   6.766   3.091  12.403 -1.2904  0.3020  0.3083
 2506TIP3    H229010   6.881   3.183  12.439  0.5439 -1.9947  0.5829
 2507TIP3   OH229011   4.063   3.697   9.420  0.4559  0.4509 -0.1193
 2507TIP3    H129012   4.018   3.695   9.335  0.4442  0.7794 -0.1205
 2507TIP3    H229013   4.124   3.623   9.415 -0.5789 -0.4581  0.1647
 2508TIP3   OH229014   5.065   6.780  12.703  0.2456  0.0543  0.0863
 2508TIP3    H129015   4.986   6.757  12.752 -0.6202 -1.7379 -1.9977
 2508TIP3    H229016   5.122   6.703  12.712  0.7045  0.3218 -0.4525
 2509TIP3   OH229017   5.589   0.270   0.060  0.0763  0.6232  0.5566
 2509TIP3    H129018   5.637   0.343   0.098  2.7769 -0.6109 -0.1596
 2509TIP3    H229019   5.560   0.301  -0.025  1.6304  0.7916  0.0490
 2510TIP3   OH229020   5.545   4.309  14.349  0.0543  0.1440 -0.2697
 2510TIP3    H129021   5.634   4.290  14.379 -0.2598 -2.2143 -0.6013
 2510TIP3    H229022   5.497   4.330  14.429  0.8506  1.2693 -0.0705
 2511TIP3   OH229023   2.609   6.380  13.512  0.1023 -0.1921 -0.3849
 2511TIP3    H129024   2.610   6.428  13.594 -2.4167  0.2073 -0.5348
 2511TIP3    H229025   2.588   6.290  13.537 -0.0617 -0.1985 -0.5448
 2512TIP3   OH229026   4.183   4.122  10.227  0.5647 -0.6823 -0.9026
 2512TIP3    H129027   4.104   4.110  10.174  0.6605 -1.0376 -0.9640
 2512TIP3    H229028   4.158   4.094  10.315  1.1452 -2.5530 -1.3059
 2513TIP3   OH229029   2.253   3.399  12.894 -0.0157  0.7295  0.1633
 2513TIP3    H129030   2.168   3.355  12.897 -0.1274  0.9207 -0.0862
 2513TIP3    H229031   2.285   3.397  12.984  0.0596 -0.0025  0.1240
 2514TIP3   OH229032   6.827   4.528  13.087  0.3274 -0.1043  0.0909
 2514TIP3    H129033   6.846   4.585  13.013  1.5083 -0.7638 -0.1295
 2514TIP3    H229034   6.828   4.440  13.051  1.0453 -0.4420  0.9035
 2515TIP3   OH229035   6.555   1.938  15.014 -0.2385  0.9703 -0.2006
 2515TIP3    H129036   6.634   1.891  14.990 -0.6127  0.3713 -0.2808
 2515TIP3    H229037   6.525   1.895  15.095 -1.1588  0.3622 -0.8406
 2516TIP3   OH229038   5.254   2.164  11.126 -1.0476  0.6199 -0.1405
 2516TIP3    H129039   5.184   2.221  11.158 -2.9430 -0.6992 -1.6848
 2516TIP3    H229040   5.255   2.179  11.031  1.2739  1.0919 -0.0906
 2517TIP3   OH229041   1.846   1.961  11.626  0.1313 -0.1981  0.1896
 2517TIP3    H129042   1.888   1.933  11.707 -1.2964 -1.4165  0.5428
 2517TIP3    H229043   1.786   2.031  11.653  0.9743  0.6592 -0.1154
 2518TIP3   OH229044   0.212   7.143  15.174 -0.3420 -0.1378  0.2151
 2518TIP3    H129045   0.300   7.143  15.212 -0.5409  0.7459  0.6990
 2518TIP3    H229046   0.192   7.235  15.158 -1.1916 -0.3216  0.1469
 2519TIP3   OH229047   5.361   4.291  12.026 -0.4076 -0.3729 -0.3042
 2519TIP3    H129048   5.322   4.204  12.018  0.2127 -0.8130  1.1219
 2519TIP3    H229049   5.295   4.343  12.073  0.8766 -1.3101  2.7407
 2520TIP3   OH229050   3.624   1.939  11.924  0.5843 -0.0840 -0.2563
 2520TIP3    H129051   3.659   1.937  11.835  0.0866 -0.3187 -0.4524
 2520TIP3    H229052   3.601   1.848  11.944 -1.1210  0.2216 -0.6381
 2521TIP3   OH229053   4.152   5.907  14.135  0.2819 -0.0481  0.2396
 2521TIP3    H129054   4.187   5.916  14.224  0.4013 -0.3028  0.2195
 2521TIP3    H229055   4.109   5.821  14.135  1.0936 -0.4725 -0.2154
 2522TIP3   OH229056   6.224   6.168  13.349  0.0984 -0.5945 -0.0524
 2522TIP3    H129057   6.280   6.202  13.280  0.3355 -1.1000 -0.1158
 2522TIP3    H229058   6.141   6.215  13.337  0.6824  0.6019  0.4201
 2523TIP3   OH229059   2.175   0.709  10.311 -0.6629  0.0276 -0.6072
 2523TIP3    H129060   2.270   0.714  10.316 -0.5182  2.6244 -3.0774
 2523TIP3    H229061   2.152   0.633  10.364  2.7310 -0.5601  0.2715
 2524TIP3   OH229062   0.778   2.054   9.936  0.1404  0.3506  0.1546
 2524TIP3    H129063   0.760   2.028   9.846  0.0374  1.8477 -0.2733
 2524TIP3    H229064   0.840   2.126   9.929  2.7592 -1.6147  1.4205
 2525TIP3   OH229065   0.575   3.732  14.751  0.3264  0.4508 -0.1039
 2525TIP3    H129066   0.545   3.721  14.841 -0.9329  0.8042 -0.4597
 2525TIP3    H229067   0.653   3.788  14.758  0.8788 -0.4035  0.8369
 2526TIP3   OH229068   4.217   3.990   9.814 -0.0273 -0.6163  0.3584
 2526TIP3    H129069   4.284   3.942   9.863  1.2308 -0.1444 -0.8265
 2526TIP3    H229070   4.182   3.926   9.752 -0.2920 -0.7247  0.6212
 2527TIP3   OH229071   4.782   6.197  10.679 -0.7649 -0.1686  0.1449
 2527TIP3    H129072   4.730   6.271  10.646  0.8606  0.1488 -1.9071
 2527TIP3    H229073   4.753   6.122  10.626 -0.0240 -0.2440 -0.1695
 2528TIP3   OH229074   3.771   4.533   1.184 -0.2846  0.0972 -0.4548
 2528TIP3    H129075   3.723   4.496   1.110 -2.2993  1.5867  0.0086
 2528TIP3    H229076   3.793   4.622   1.156 -0.8955  0.6066  0.6026
 2529TIP3   OH229077   4.448   2.753  11.359 -1.1233  0.2190  0.4922
 2529TIP3    H129078   4.376   2.751  11.295  0.0136 -0.1052 -0.8347
 2529TIP3    H229079   4.500   2.830  11.334  0.1762 -0.7707  0.0176
 2530TIP3   OH229080   3.131   4.176   9.712  0.2813 -0.4027  0.0179
 2530TIP3    H129081   3.053   4.232   9.712 -0.2155 -1.0642 -0.9366
 2530TIP3    H229082   3.197   4.226   9.665  0.2483 -0.0831  0.3106
 2531TIP3   OH229083   4.425   5.270  12.013  0.1249  0.1393  0.4923
 2531TIP3    H129084   4.444   5.262  12.106  0.4474 -1.5526  0.3114
 2531TIP3    H229085   4.482   5.205  11.971 -0.3971  0.5017 -0.8320
 2532TIP3   OH229086   3.855   6.085  10.460 -0.1645 -0.7922 -0.2076
 2532TIP3    H129087   3.856   6.145  10.534  1.2962  0.1399 -0.9416
 2532TIP3    H229088   3.762   6.069  10.444 -0.5952  1.0353  0.2149
 2533TIP3   OH229089   6.780   5.825  12.921 -0.0216  0.7851 -0.0097
 2533TIP3    H129090   6.860   5.786  12.886 -0.1854  0.2271  0.2421
 2533TIP3    H229091   6.726   5.751  12.948 -0.5495  1.1639 -0.0044
 2534TIP3   OH229092   6.894   4.614  12.823 -0.2096 -0.1486 -0.5662
 2534TIP3    H129093   6.833   4.541  12.814 -0.4917  0.1859 -1.4862
 2534TIP3    H229094   6.895   4.656  12.737  1.5192 -0.2983 -0.6588
 2535TIP3   OH229095   2.992   0.916  11.902  0.8075 -0.0922  0.1135
 2535TIP3    H129096   3.000   0.858  11.978  2.0904 -1.0001 -0.6870
 2535TIP3    H229097   2.966   0.859  11.830 -0.8679  0.8346 -0.0805
 2536TIP3   OH229098   6.165   1.938  12.376 -0.5498  0.3160 -0.0553
 2536TIP3    H129099   6.153   2.006  12.443 -0.6988 -0.5123  0.7776
 2536TIP3    H229100   6.145   1.982  12.294 -0.7792  1.2503  0.4848
 2537TIP3   OH229101   6.363   3.733   5.392  0.3627  0.3359  0.2328
 2537TIP3    H129102   6.284   3.695   5.430  0.3228  0.9638  0.7962
 2537TIP3    H229103   6.427   3.731   5.463  0.5888  0.6356  0.0403
 2538TIP3   OH229104   4.928   4.258  12.490 -0.7024 -0.3287 -0.0213
 2538TIP3    H129105   4.957   4.228  12.404 -2.3140  0.8619 -1.0274
 2538TIP3    H229106   5.009   4.283  12.535  0.2226 -1.6078 -0.9001
 2539TIP3   OH229107   2.154   1.969  12.398 -1.0954 -0.0511 -0.2076
 2539TIP3    H129108   2.125   2.010  12.316 -0.0140 -1.2529 -1.2549
 2539TIP3    H229109   2.250   1.968  12.391 -1.0553 -1.7855  0.2176
 2540TIP3   OH229110   0.720   2.987   9.304 -0.2463  0.0182  0.1652
 2540TIP3    H129111   0.702   2.968   9.396  0.2799 -0.3588  0.1949
 2540TIP3    H229112   0.694   3.078   9.293  0.1913  0.2342  0.8283
 2541TIP3   OH229113   6.390   2.834  12.613 -0.4622 -0.7608 -0.2959
 2541TIP3    H129114   6.401   2.771  12.543 -0.6088 -1.7631  0.5625
 2541TIP3    H229115   6.451   2.805  12.681  3.6728  3.0423 -1.8294
 2542TIP3   OH229116   3.786   0.473  13.671  0.4139  0.2290  0.2940
 2542TIP3    H129117   3.703   0.520  13.673 -0.1021 -0.5891 -0.7322
 2542TIP3    H229118   3.767   0.388  13.711  0.8951  0.2255  0.5279
 2543TIP3   OH229119   5.180   1.307  14.176  0.0284 -0.0931 -0.0308
 2543TIP3    H129120   5.113   1.311  14.244  0.8841 -0.9509  0.8882
 2543TIP3    H229121   5.175   1.392  14.133  0.7383  1.2439  2.3376
 2544TIP3   OH229122   7.166   2.621   9.714 -0.1007  0.5641  0.0796
 2544TIP3    H129123   7.156   2.711   9.745  2.0829  1.0252 -0.3801
 2544TIP3    H229124   7.152   2.627   9.620  1.3464  0.6942 -0.1436
 2545TIP3   OH229125   0.632   4.968  12.400  0.0051 -0.3721 -0.6241
 2545TIP3    H129126   0.584   5.039  12.359 -0.3710 -1.2213 -1.6929
 2545TIP3    H229127   0.600   4.966  12.491 -1.4012 -0.4125 -1.0988
 2546TIP3   OH229128   6.555   6.870  13.518  0.2834  0.2667 -0.0311
 2546TIP3    H129129   6.468   6.906  13.535  0.3544 -0.3143  1.7171
 2546TIP3    H229130   6.547   6.830  13.431 -1.6570 -1.1095  0.7226
 2547TIP3   OH229131   5.384   3.348  10.629  0.0444  0.0761 -0.2939
 2547TIP3    H129132   5.358   3.414  10.566 -1.2287  1.4914  1.6039
 2547TIP3    H229133   5.301   3.314  10.664  0.6887 -1.8382 -0.5050
 2548TIP3   OH229134   2.092   5.788  10.094 -0.5271 -0.2264  0.1317
 2548TIP3    H129135   2.103   5.706  10.046  0.9309  0.8921 -1.5732
 2548TIP3    H229136   2.040   5.843  10.036 -1.3945  0.1268  1.2124
 2549TIP3   OH229137   4.294   6.269  12.025  0.3163  0.0746 -0.1615
 2549TIP3    H129138   4.310   6.248  11.933 -1.6235 -0.6678 -0.3884
 2549TIP3    H229139   4.371   6.237  12.071  1.6056  1.0052 -1.5674
 2550TIP3   OH229140   0.616   0.851  11.364  0.0443 -0.0726  0.0718
 2550TIP3    H129141   0.596   0.758  11.371 -1.9683  0.2887 -0.2766
 2550TIP3    H229142   0.677   0.868  11.436 -0.3609 -1.4448  0.7660
 2551TIP3   OH229143   4.971   3.766   2.119  0.0623 -0.0409 -0.1005
 2551TIP3    H129144   5.058   3.726   2.115 -0.5918 -1.4932 -0.4344
 2551TIP3    H229145   4.982   3.852   2.078  1.2461 -0.3675 -0.5037
 2552TIP3   OH229146   5.712   4.642  11.604  0.1521  0.3576  0.3834
 2552TIP3    H129147   5.650   4.668  11.673  0.9978  0.0131  1.2881
 2552TIP3    H229148   5.739   4.554  11.628  0.4751  0.2403 -0.3885
 2553TIP3   OH229149   4.947   1.053  10.185  0.4963 -0.3735 -0.0276
 2553TIP3    H129150   4.901   0.970  10.196  2.6503 -1.5929  0.4734
 2553TIP3    H229151   5.027   1.043  10.236  1.7763  1.2349 -1.5681
 2554TIP3   OH229152   0.976   3.953  11.508  0.8315 -0.1696 -0.0285
 2554TIP3    H129153   0.975   3.981  11.600  1.0559 -2.1383  0.6070
 2554TIP3    H229154   1.068   3.936  11.489  0.5916 -1.4877 -0.0546
 2555TIP3   OH229155   6.303   1.165  11.470  0.0424  0.4042 -0.0688
 2555TIP3    H129156   6.301   1.076  11.437  2.6121  0.0949  0.4387
 2555TIP3    H229157   6.249   1.215  11.408  0.5933 -1.0520 -1.7862
 2556TIP3   OH229158   3.260   2.126  14.260 -0.3220 -0.4329 -0.0890
 2556TIP3    H129159   3.299   2.199  14.213 -3.7107  1.2740 -0.5580
 2556TIP3    H229160   3.238   2.062  14.192 -0.0726 -0.5655 -0.0489
 2557TIP3   OH229161   1.464   2.601  12.684  0.0323 -0.1002 -0.1633
 2557TIP3    H129162   1.449   2.540  12.755  0.9128 -1.1721 -0.8661
 2557TIP3    H229163   1.544   2.570  12.641  0.6895  1.7211 -0.3599
 2558TIP3   OH229164   1.509   2.676  11.454 -0.0566 -0.2547  0.5121
 2558TIP3    H129165   1.462   2.613  11.399 -0.3307 -1.2366  1.8484
 2558TIP3    H229166   1.602   2.655  11.440 -0.0324  0.5867 -0.8159
 2559TIP3   OH229167   6.721   1.424  12.203 -0.2042  0.0499 -0.3574
 2559TIP3    H129168   6.812   1.403  12.182 -0.5054 -0.1870 -1.5353
 2559TIP3    H229169   6.726   1.491  12.271  0.8751  1.0344 -1.3615
 2560TIP3   OH229170   6.076   2.191  11.258 -0.1420 -0.6970 -0.5805
 2560TIP3    H129171   6.055   2.285  11.258 -0.0975 -0.6796 -1.1302
 2560TIP3    H229172   6.124   2.178  11.176 -0.8032 -1.3360 -0.8826
 2561TIP3   OH229173   0.798   3.056  14.275 -0.0082 -0.2904  0.6024
 2561TIP3    H129174   0.880   3.083  14.317  0.2029 -0.5737  0.3746
 2561TIP3    H229175   0.745   3.022  14.346  0.6610 -1.5273  0.5267
 2562TIP3   OH229176   2.420   3.813   9.974  0.5484 -0.4491 -0.2366
 2562TIP3    H129177   2.493   3.761   9.940  0.5080 -0.6135 -0.0732
 2562TIP3    H229178   2.412   3.886   9.913 -1.2399 -2.1179 -2.1626
 2563TIP3   OH229179   5.437   6.050  11.384  0.3491  0.3934 -0.1323
 2563TIP3    H129180   5.502   5.980  11.394 -0.1781 -0.1332 -0.2884
 2563TIP3    H229181   5.445   6.103  11.463 -0.4020 -0.8346  0.8028
 2564TIP3   OH229182   2.507   2.130  11.800  0.1619 -0.8754  0.6155
 2564TIP3    H129183   2.428   2.166  11.759  1.6403  1.0434 -0.7475
 2564TIP3    H229184   2.529   2.194  11.868  0.8424 -1.1171  0.6258
 2565TIP3   OH229185   0.410   0.714   9.592  0.3039  0.2467  0.9477
 2565TIP3    H129186   0.360   0.694   9.671  0.1777  3.4430  1.7978
 2565TIP3    H229187   0.490   0.757   9.624  1.8275 -1.2747 -0.5728
 2566TIP3   OH229188   3.303   2.336   9.949 -0.1722  0.1754  0.2890
 2566TIP3    H129189   3.236   2.271   9.971  1.2363 -1.8488 -1.0577
 2566TIP3    H229190   3.296   2.347   9.855  0.5479  0.8976  0.3070
 2567TIP3   OH229191   7.098   4.682  10.738 -0.3166 -0.6545 -0.0560
 2567TIP3    H129192   7.132   4.613  10.681 -0.8787 -0.1452 -1.0440
 2567TIP3    H229193   7.165   4.693  10.805  1.8943  0.8567 -2.3465
 2568TIP3   OH229194   3.571   2.585  13.227  0.1052  0.2247 -0.0380
 2568TIP3    H129195   3.581   2.529  13.305  1.5502 -0.3458 -0.5943
 2568TIP3    H229196   3.496   2.548  13.181  0.1442 -0.3517  0.3424
 2569TIP3   OH229197   4.805   2.610   9.776 -0.6663  0.1244 -0.0284
 2569TIP3    H129198   4.777   2.646   9.692  1.3193 -0.8351 -1.1777
 2569TIP3    H229199   4.770   2.522   9.778  1.6827 -0.9449 -1.3033
 2570TIP3   OH229200   0.387   4.854  11.168  0.5607 -0.5171  0.0845
 2570TIP3    H129201   0.320   4.917  11.194  1.6351  1.6169 -1.9138
 2570TIP3    H229202   0.450   4.854  11.241  0.3534  0.4449  0.2734
 2571TIP3   OH229203   4.087   6.643  11.496  0.6956  0.4098  0.0240
 2571TIP3    H129204   4.112   6.735  11.490 -1.4641  1.1183  0.9352
 2571TIP3    H229205   4.115   6.617  11.584 -0.8028  0.9270  0.6816
 2572TIP3   OH229206   5.852   2.825  13.378  0.0331 -0.5837  0.0478
 2572TIP3    H129207   5.818   2.848  13.292  1.8930 -1.8546 -1.0864
 2572TIP3    H229208   5.869   2.909  13.420 -0.8021  0.0502 -0.8367
 2573TIP3   OH229209   6.051   6.219  11.076  0.1422 -0.0522  0.1504
 2573TIP3    H129210   5.960   6.239  11.054 -0.0032 -0.6414  0.1994
 2573TIP3    H229211   6.095   6.212  10.992  0.3833  1.3071  0.1529
 2574TIP3   OH229212   4.974   6.914  14.839  0.2876  0.3688 -0.3665
 2574TIP3    H129213   4.884   6.937  14.860  0.6271  0.4377  1.1019
 2574TIP3    H229214   4.980   6.820  14.856  0.8068  0.5945  0.7827
 2575TIP3   OH229215   2.857   6.363   9.373  0.6066 -0.1282 -0.6735
 2575TIP3    H129216   2.881   6.276   9.405  2.6952  0.2596 -1.0610
 2575TIP3    H229217   2.769   6.351   9.336 -0.3742 -1.4045  1.7861
 2576TIP3   OH229218   0.551   7.020  11.667 -0.8151  0.0408  0.1886
 2576TIP3    H129219   0.518   6.984  11.750 -0.7168 -2.3863 -0.7447
 2576TIP3    H229220   0.501   6.975  11.600  0.1477  0.8539 -1.1188
 2577TIP3   OH229221   1.513   4.908  10.253 -0.1413  0.2007  0.0205
 2577TIP3    H129222   1.608   4.923  10.249 -0.1297 -0.1671 -3.0187
 2577TIP3    H229223   1.504   4.813  10.260 -0.3303  0.2800  1.0908
 2578TIP3   OH229224   1.181   5.645  11.896 -0.2070  0.0996 -0.0094
 2578TIP3    H129225   1.221   5.690  11.821 -0.8274 -0.9777 -1.0276
 2578TIP3    H229226   1.089   5.634  11.871 -0.3323 -0.6379  0.7444
 2579TIP3   OH229227   2.809   3.030  11.581 -0.1267 -0.3521  0.0406
 2579TIP3    H129228   2.715   3.050  11.582  0.3885  3.0472 -1.9221
 2579TIP3    H229229   2.815   2.949  11.531 -2.0033 -0.3987 -0.2133
 2580TIP3   OH229230   5.117   3.130  10.421  0.3731  0.2932 -0.0207
 2580TIP3    H129231   5.202   3.152  10.384  0.4257  0.6485  0.3091
 2580TIP3    H229232   5.138   3.072  10.495  0.2501 -0.6819 -0.7319
 2581TIP3   OH229233   5.009   5.683  10.648 -0.6430 -0.0336 -0.2358
 2581TIP3    H129234   4.958   5.762  10.664 -1.8183 -0.6242 -0.9390
 2581TIP3    H229235   5.098   5.714  10.634 -0.5248  0.9253  2.2018
 2582TIP3   OH229236   4.720   3.261  12.958 -0.0873 -0.4037 -0.1657
 2582TIP3    H129237   4.688   3.351  12.950 -2.2875 -1.1018  0.2038
 2582TIP3    H229238   4.685   3.230  13.041 -1.4179 -2.3440 -1.3594
 2583TIP3   OH229239   1.728   6.530   2.080 -0.2166  0.5934  0.4905
 2583TIP3    H129240   1.733   6.625   2.085 -1.0634  0.6956 -0.2351
 2583TIP3    H229241   1.755   6.509   1.990 -2.1389  0.3629 -0.0922
 2584TIP3   OH229242   4.840   5.825  12.774  0.2180  0.0112 -0.6560
 2584TIP3    H129243   4.927   5.828  12.736  0.5058  0.5297  0.0224
 2584TIP3    H229244   4.839   5.745  12.827  0.3893  0.1591 -0.4251
 2585TIP3   OH229245   6.970   0.465  11.438 -0.0487 -0.1816 -0.2931
 2585TIP3    H129246   6.971   0.506  11.524 -0.7998 -0.3173 -0.2143
 2585TIP3    H229247   7.049   0.410  11.437  0.1230  0.0516  0.1894
 2586TIP3   OH229248   6.718   6.782  10.507  0.1343  0.1561 -0.4539
 2586TIP3    H129249   6.634   6.739  10.494  0.5993 -0.7710 -0.4675
 2586TIP3    H229250   6.742   6.815  10.421  0.6212 -1.1548 -0.8324
 2587TIP3   OH229251   4.139   1.126   9.820 -0.6424 -0.6258 -0.1993
 2587TIP3    H129252   4.188   1.125   9.902 -0.1581 -2.8001 -0.4600
 2587TIP3    H229253   4.085   1.205   9.825  0.3157 -0.0412  1.6273
 2588TIP3   OH229254   2.450   6.486  10.567  0.0537 -0.8701  0.4182
 2588TIP3    H129255   2.486   6.445  10.646 -1.2198 -1.4693  0.7060
 2588TIP3    H229256   2.499   6.447  10.495  1.9727  0.4403  0.9157
 2589TIP3   OH229257   3.986   6.561  14.770  0.1221 -0.3379 -0.8581
 2589TIP3    H129258   3.977   6.600  14.683  1.5604  0.9490 -0.4806
 2589TIP3    H229259   4.078   6.534  14.775  0.2752  0.3757  0.5455
 2590TIP3   OH229260   5.764   6.698   9.940 -0.0040  0.1062  0.2780
 2590TIP3    H129261   5.704   6.772   9.933  1.2147  1.1613  0.5622
 2590TIP3    H229262   5.716   6.625   9.902 -0.5963  1.4351 -1.6808
 2591TIP3   OH229263   4.968   0.550  12.637  0.8302 -0.2452  0.1317
 2591TIP3    H129264   5.062   0.550  12.623  0.7664  0.6731 -0.3842
 2591TIP3    H229265   4.957   0.575  12.729  1.0895 -0.1304  0.1316
 2592TIP3   OH229266   1.532   0.463  10.358  0.3922 -0.0528  0.1108
 2592TIP3    H129267   1.557   0.531  10.296 -0.2476 -0.9102 -1.1320
 2592TIP3    H229268   1.437   0.454  10.346  0.5347 -1.4710 -0.1025
 2593TIP3   OH229269   5.909   5.869  10.961  0.3432  0.3004  0.2425
 2593TIP3    H129270   5.884   5.919  11.038  0.8488  0.9400  0.0024
 2593TIP3    H229271   5.827   5.838  10.924 -0.0625  1.7074 -0.1025
 2594TIP3   OH229272   5.642   3.136  13.895  0.0429 -0.3586 -0.0694
 2594TIP3    H129273   5.722   3.127  13.947 -1.1634 -0.5444  1.8805
 2594TIP3    H229274   5.644   3.226  13.863  0.8316 -0.2362  0.3040
 2595TIP3   OH229275   4.108   5.785  10.934 -0.2287 -0.1052  0.3039
 2595TIP3    H129276   4.032   5.728  10.921 -0.6825  0.2201  1.4820
 2595TIP3    H229277   4.072   5.870  10.956  0.4484  0.7437 -1.6821
 2596TIP3   OH229278   3.021   3.898  11.087 -0.4163 -0.1674 -0.1941
 2596TIP3    H129279   2.953   3.960  11.061 -1.2662 -0.2311  1.6542
 2596TIP3    H229280   3.049   3.929  11.173  0.4476 -1.3073 -0.0462
 2597TIP3   OH229281   0.474   6.213   9.612  0.1753 -0.0623  0.8361
 2597TIP3    H129282   0.475   6.133   9.665 -0.7548  0.1350  1.1896
 2597TIP3    H229283   0.385   6.248   9.625 -0.5463 -0.6554 -1.8438
 2598TIP3   OH229284   1.351   0.349  10.898 -0.7562 -0.4299 -0.0782
 2598TIP3    H129285   1.412   0.300  10.953  1.6705  1.4524 -0.9105
 2598TIP3    H229286   1.316   0.417  10.956  0.5673  0.5591 -0.4048
 2599TIP3   OH229287   4.349   7.019  12.942 -0.3916  0.0615  0.3583
 2599TIP3    H129288   4.389   6.956  13.002  1.7338 -0.3062 -1.2926
 2599TIP3    H229289   4.261   6.984  12.925  0.7354 -2.6201 -0.5906
 2600TIP3   OH229290   5.460   6.004  12.593 -0.5715  0.3654  0.0038
 2600TIP3    H129291   5.555   5.998  12.582 -0.7743 -0.1358 -1.8380
 2600TIP3    H229292   5.438   6.093  12.567 -0.4169  1.2019  2.5022
 2601TIP3   OH229293   5.543   3.415  10.031  0.1203  0.1701  0.4732
 2601TIP3    H129294   5.466   3.407   9.974  1.5371 -1.1336 -1.3826
 2601TIP3    H229295   5.557   3.510  10.039 -0.4532  0.4075 -0.9368
 2602TIP3   OH229296   3.984   0.529  11.549 -0.7881  0.4154  0.0437
 2602TIP3    H129297   4.056   0.562  11.495 -0.8658  0.8447  0.1928
 2602TIP3    H229298   3.910   0.584  11.525 -1.1474 -0.2141 -0.3219
 2603TIP3   OH229299   6.909   5.125  12.070  1.0090 -0.0035 -0.2017
 2603TIP3    H129300   6.941   5.190  12.007  1.1209 -0.7530 -0.9304
 2603TIP3    H229301   6.987   5.074  12.093  0.4096 -1.7919 -1.9253
 2604TIP3   OH229302   0.970   2.960  11.254  0.1024  0.1237 -0.1808
 2604TIP3    H129303   0.944   2.906  11.179  0.1526  1.3241 -1.0945
 2604TIP3    H229304   0.941   3.048  11.231  2.0460  0.9286  0.2474
 2605TIP3   OH229305   5.156   5.657  11.579  0.2141 -0.4481 -0.0765
 2605TIP3    H129306   5.084   5.610  11.537  0.8576  0.3735 -2.2037
 2605TIP3    H229307   5.224   5.662  11.513  1.4547  0.5899  1.2095
 2606TIP3   OH229308   6.801   1.471   0.355 -1.0851  0.4194 -0.6922
 2606TIP3    H129309   6.864   1.544   0.360 -0.7514  0.0658  0.5301
 2606TIP3    H229310   6.789   1.457   0.261 -0.3491  1.3634 -0.9502
 2607TIP3   OH229311   2.569   1.043  13.998  0.5145  0.5391 -0.1724
 2607TIP3    H129312   2.494   1.026  13.941  1.9362 -0.4792 -1.8326
 2607TIP3    H229313   2.581   1.138  13.993 -2.4578  1.2428  2.6138
 2608TIP3   OH229314   4.399   3.479  14.565  0.2034 -0.7284 -0.5048
 2608TIP3    H129315   4.458   3.553  14.554  1.4271 -1.3990  1.1743
 2608TIP3    H229316   4.349   3.476  14.483  0.0601  1.9571 -0.5989
 2609TIP3   OH229317   2.779   7.009  13.288 -0.1365  0.2652  0.1664
 2609TIP3    H129318   2.816   6.921  13.276 -0.9468 -0.1092  0.3067
 2609TIP3    H229319   2.853   7.063  13.315  0.9046  0.1878 -2.2683
 2610TIP3   OH229320   6.169   5.146  12.533  0.6426  0.1281  0.5061
 2610TIP3    H129321   6.265   5.144  12.527  0.5727  0.7749 -1.1963
 2610TIP3    H229322   6.148   5.074  12.593  2.2169  0.4490  1.5024
 2611TIP3   OH229323   0.879   7.184  13.785  0.2162  0.0788  0.7218
 2611TIP3    H129324   0.871   7.125  13.710  0.2459 -0.5099  1.1791
 2611TIP3    H229325   0.858   7.271  13.749 -0.0872 -0.2429  0.1045
 2612TIP3   OH229326   2.994   3.903  12.187 -0.2398  0.4730  0.1984
 2612TIP3    H129327   2.961   3.814  12.179 -0.0050  0.3827  0.2231
 2612TIP3    H229328   2.940   3.954  12.127  0.8800 -0.0350 -1.3312
 2613TIP3   OH229329   3.873   1.301  12.265  0.3485 -0.6148  0.7145
 2613TIP3    H129330   3.902   1.379  12.217 -0.4598  0.5064  2.0024
 2613TIP3    H229331   3.851   1.238  12.196  1.8660 -0.0510 -0.3473
 2614TIP3   OH229332   6.986   6.464  13.685 -0.0539  0.1966 -0.3236
 2614TIP3    H129333   7.055   6.421  13.736 -1.5353 -1.3555  0.4516
 2614TIP3    H229334   6.958   6.399  13.621 -1.4464  0.4448 -0.0000
 2615TIP3   OH229335   0.364   4.316  13.311  0.1456  0.1707 -0.1110
 2615TIP3    H129336   0.407   4.360  13.238  1.0950  0.5002  0.6295
 2615TIP3    H229337   0.404   4.229  13.313 -0.3731 -0.0815 -0.3949
 2616TIP3   OH229338   0.724   1.955  13.710 -0.3371 -0.6441 -0.6736
 2616TIP3    H129339   0.685   1.896  13.646  0.8817 -2.4855  0.1763
 2616TIP3    H229340   0.651   1.980  13.767 -0.8070 -1.8493 -0.7070
 2617TIP3   OH229341   1.130   4.508  13.037 -0.0613  0.2332  0.8167
 2617TIP3    H129342   1.099   4.527  12.948 -0.9147  0.1708  1.0967
 2617TIP3    H229343   1.222   4.486  13.025  0.0747  1.1339  0.0602
 2618TIP3   OH229344   5.065   3.294   3.975  0.2414  0.2709  0.5849
 2618TIP3    H129345   5.122   3.371   3.980 -0.2607  0.6607  0.3842
 2618TIP3    H229346   5.049   3.271   4.066 -0.1924  0.8498  0.6642
 2619TIP3   OH229347   3.410   6.630  11.499 -0.1495 -0.0205 -0.2751
 2619TIP3    H129348   3.456   6.635  11.415 -0.8883 -0.9633 -0.7491
 2619TIP3    H229349   3.479   6.643  11.564  0.5980 -0.2385 -1.0048
 2620TIP3   OH229350   5.017   1.875  12.731 -0.8672 -0.3994 -0.1839
 2620TIP3    H129351   4.970   1.866  12.813 -1.2906 -1.5567 -0.5357
 2620TIP3    H229352   4.959   1.927  12.675  0.1049  1.8113  0.7245
 2621TIP3   OH229353   0.492   0.605   0.562 -0.0085  0.1419  0.5096
 2621TIP3    H129354   0.405   0.641   0.580 -0.8970 -1.4073 -0.4136
 2621TIP3    H229355   0.551   0.679   0.570 -1.5237  1.4182  0.3742
 2622TIP3   OH229356   5.828   5.886   9.970  0.0382 -0.3443  1.0782
 2622TIP3    H129357   5.906   5.941   9.964  0.5936 -1.1165  1.1868
 2622TIP3    H229358   5.856   5.809  10.018 -0.9323 -0.3892  1.6145
 2623TIP3   OH229359   4.064   1.942  12.495 -0.3954 -0.1917 -0.7657
 2623TIP3    H129360   4.018   2.024  12.514  0.7508  0.0418  1.2668
 2623TIP3    H229361   4.156   1.968  12.486 -0.3767 -0.8481 -3.3333
 2624TIP3   OH229362   6.182   2.915   2.845  0.0114 -0.5631  0.0605
 2624TIP3    H129363   6.153   2.828   2.868  0.6527 -1.0560 -0.8878
 2624TIP3    H229364   6.102   2.965   2.830 -0.3836 -0.5454  2.0778
 2625TIP3   OH229365   0.398   1.898  12.540  0.1331 -0.2315 -0.1241
 2625TIP3    H129366   0.434   1.834  12.480  1.4434 -0.7965  1.2079
 2625TIP3    H229367   0.312   1.864  12.563 -0.0052 -0.4667 -0.9648
 2626TIP3   OH229368   6.849   2.955  15.051 -0.6666 -0.2214 -0.0425
 2626TIP3    H129369   6.769   2.903  15.047 -1.0622  0.4014 -0.6548
 2626TIP3    H229370   6.819   3.043  15.075 -0.1031 -0.1046  0.2404
 2627TIP3   OH229371   4.695   0.677   0.021  0.0535 -0.2787 -0.0130
 2627TIP3    H129372   4.674   0.769   0.005  1.9097  0.3089  0.6407
 2627TIP3    H229373   4.657   0.631  -0.053 -0.4442  1.0819 -0.6466
 2628TIP3   OH229374   4.154   2.726  13.169  0.2620 -1.0167  0.3920
 2628TIP3    H129375   4.108   2.698  13.249  0.7832  0.1730  1.1353
 2628TIP3    H229376   4.246   2.727  13.194  0.2632  1.4665  0.4723
 2629TIP3   OH229377   3.799   4.297  10.710  0.3700 -0.0051  0.3270
 2629TIP3    H129378   3.842   4.302  10.795  0.9615 -3.1016  0.3392
 2629TIP3    H229379   3.854   4.350  10.652 -0.1641  2.3306  1.8159
 2630TIP3   OH229380   0.616   4.345  13.929  0.5779  0.2870  0.3819
 2630TIP3    H129381   0.528   4.313  13.907  1.1818  0.5070 -2.7467
 2630TIP3    H229382   0.605   4.386  14.015 -2.8956  2.0972 -0.7351
 2631TIP3   OH229383   6.063   2.719  12.096  0.2090 -0.0948  0.6951
 2631TIP3    H129384   6.025   2.800  12.062  1.5430  0.1381 -0.3163
 2631TIP3    H229385   6.036   2.652  12.034 -0.7600 -0.4185  1.4453
 2632TIP3   OH229386   2.286   5.994  12.445  0.4183  0.6370  0.0857
 2632TIP3    H129387   2.306   5.980  12.537  0.0475 -2.0262 -0.1409
 2632TIP3    H229388   2.224   5.924  12.424  1.2924  0.5124 -2.4122
 2633TIP3   OH229389   1.018   3.453  13.586  0.2648  0.5892  0.3371
 2633TIP3    H129390   1.013   3.516  13.659  0.5271 -0.0376  0.9113
 2633TIP3    H229391   1.075   3.495  13.522  0.5950  0.8576  0.8013
 2634TIP3   OH229392   1.692   5.234  11.639  0.4157 -0.7710  0.1806
 2634TIP3    H129393   1.766   5.173  11.637  2.5544  1.5454  2.3159
 2634TIP3    H229394   1.685   5.265  11.549  1.1921 -1.9714 -0.3262
 2635TIP3   OH229395   3.416   6.365  14.619  0.2252  0.2981  0.5141
 2635TIP3    H129396   3.489   6.337  14.674 -0.3680  0.5126  1.4363
 2635TIP3    H229397   3.338   6.351  14.674 -0.5271 -0.8060 -0.7697
 2636TIP3   OH229398   4.798   6.374  13.889  0.8007 -0.3357  0.0835
 2636TIP3    H129399   4.757   6.423  13.960 -0.3384 -1.9769  0.6311
 2636TIP3    H229400   4.875   6.335  13.929  0.0218 -1.4659  0.5354
 2637TIP3   OH229401   0.743   5.338  13.529  0.0996 -0.0324 -0.0386
 2637TIP3    H129402   0.764   5.257  13.577 -1.2253  0.0325  0.7123
 2637TIP3    H229403   0.670   5.313  13.472 -0.5671  0.7229  0.4759
 2638TIP3   OH229404   3.744   4.103  13.465 -0.0130 -0.0258 -0.5528
 2638TIP3    H129405   3.811   4.045  13.501 -0.7460 -1.8502 -1.9700
 2638TIP3    H229406   3.791   4.157  13.402  0.1328 -1.5024 -1.7657
 2639TIP3   OH229407   6.285   1.910  10.004  0.2558 -0.3574 -0.8529
 2639TIP3    H129408   6.268   1.941  10.093 -0.4258 -2.4578 -0.1806
 2639TIP3    H229409   6.354   1.844  10.014 -0.7769 -1.6173 -1.6300
 2640TIP3   OH229410   5.115   5.149   2.056 -0.1154 -0.2259 -0.1582
 2640TIP3    H129411   5.091   5.084   2.121  0.5633  1.3247  1.7327
 2640TIP3    H229412   5.149   5.098   1.982 -1.6223 -2.0667  0.3301
 2641TIP3   OH229413   3.387   6.524  10.085 -0.0603  0.0293 -0.0585
 2641TIP3    H129414   3.464   6.477  10.052  1.0521  0.7064  1.4506
 2641TIP3    H229415   3.413   6.616  10.085 -0.8790  0.2679  0.4463
 2642TIP3   OH229416   0.132   4.775   9.738  0.0505  0.4289  0.0635
 2642TIP3    H129417   0.219   4.766   9.697  0.4047 -0.2588  0.9339
 2642TIP3    H229418   0.122   4.869   9.753 -0.2441  0.7478 -1.8970
 2643TIP3   OH229419   4.737   2.917  10.685 -0.3383 -0.5326  0.0739
 2643TIP3    H129420   4.642   2.905  10.678 -0.5713  0.9029  0.2959
 2643TIP3    H229421   4.762   2.954  10.601  0.3354 -2.4640 -0.6175
 2644TIP3   OH229422   4.219   7.164  11.386 -0.0340  0.5644  0.0397
 2644TIP3    H129423   4.165   7.195  11.458 -1.9393 -4.0301  0.9505
 2644TIP3    H229424   4.303   7.142  11.426 -0.1981  0.4146  0.2975
 2645TIP3   OH229425   2.399   5.555  11.465  0.4979  0.3350 -0.2104
 2645TIP3    H129426   2.409   5.466  11.431 -2.2424  0.6517 -2.2055
 2645TIP3    H229427   2.354   5.543  11.549  0.5954 -0.1996 -0.2282
 2646TIP3   OH229428   1.975   2.188  11.493 -0.0963  0.1259 -0.4040
 2646TIP3    H129429   1.968   2.148  11.406 -0.5318  1.3010 -0.9480
 2646TIP3    H229430   1.990   2.115  11.553 -2.9065 -1.0901 -1.0431
 2647TIP3   OH229431   3.812   0.751   0.852  0.6674 -0.5599  0.0498
 2647TIP3    H129432   3.832   0.781   0.764  2.7211 -1.2401  0.2386
 2647TIP3    H229433   3.840   0.823   0.909 -0.1406 -0.3483  0.1923
 2648TIP3   OH229434   3.893   2.886  10.932  0.0692 -0.0722  0.3244
 2648TIP3    H129435   3.952   2.870  11.005  0.7895  0.0467 -0.2224
 2648TIP3    H229436   3.913   2.976  10.904 -0.7414  0.1618  0.4673
 2649TIP3   OH229437   3.455   5.007  12.847  0.0408 -0.2283  0.3781
 2649TIP3    H129438   3.474   4.958  12.767 -2.6865 -0.5338 -0.1699
 2649TIP3    H229439   3.500   5.091  12.835  0.0202 -0.4288 -1.2997
 2650TIP3   OH229440   1.103   2.878  11.720  0.4537  0.8210 -0.6751
 2650TIP3    H129441   1.165   2.944  11.753  0.6437 -0.1193  0.9192
 2650TIP3    H229442   1.156   2.799  11.710 -0.4509  0.0031  0.7032
 2651TIP3   OH229443   4.413   7.181  10.777  0.0895 -0.2287  0.1034
 2651TIP3    H129444   4.409   7.134  10.860  1.6722 -3.9785 -1.6692
 2651TIP3    H229445   4.506   7.200  10.765 -0.2400  1.1791 -0.3944
 2652TIP3   OH229446   5.210   6.420  14.471 -0.8912 -0.4508  0.8963
 2652TIP3    H129447   5.125   6.382  14.493 -0.9184 -0.4060  0.8700
 2652TIP3    H229448   5.193   6.473  14.393 -1.1714  0.8189  1.7912
 2653TIP3   OH229449   3.517   6.978   2.291  0.6663  0.4635  0.3984
 2653TIP3    H129450   3.596   6.955   2.339  1.2329  0.1874 -0.6471
 2653TIP3    H229451   3.446   6.940   2.342  1.2897 -0.2157  0.7761
 2654TIP3   OH229452   1.973   3.973  13.164  0.2009 -0.1812  0.1574
 2654TIP3    H129453   1.943   4.034  13.097 -1.4440 -2.6218 -1.4864
 2654TIP3    H229454   1.923   3.998  13.243  0.2317  1.1065 -0.2104
 2655TIP3   OH229455   4.537   0.798  11.836 -0.2736 -0.5934  0.1242
 2655TIP3    H129456   4.480   0.726  11.861 -0.4406 -0.3550  0.4304
 2655TIP3    H229457   4.531   0.860  11.908  2.1957 -1.6130  1.3041
 2656TIP3   OH229458   4.296   0.492  10.352 -0.4617 -0.9008  0.6008
 2656TIP3    H129459   4.355   0.424  10.320  0.7977 -0.2129  1.3921
 2656TIP3    H229460   4.354   0.562  10.382 -1.7169  0.3239  0.2707
 2657TIP3   OH229461   6.970   4.115  10.015 -0.4823  0.3234 -0.2811
 2657TIP3    H129462   6.971   4.190  10.075 -0.4392 -0.2684  0.4713
 2657TIP3    H229463   7.062   4.103   9.990 -0.2137 -0.6088  1.0565
 2658TIP3   OH229464   5.195   1.370   0.908  0.0276 -0.4256  0.2898
 2658TIP3    H129465   5.194   1.313   0.984  0.9053 -1.9436 -0.7796
 2658TIP3    H229466   5.104   1.377   0.881 -0.1384 -0.9886  0.6933
 2659TIP3   OH229467   4.559   1.159  11.183  0.3975 -0.1744  0.2368
 2659TIP3    H129468   4.633   1.220  11.180  0.0417  0.4657  2.7385
 2659TIP3    H229469   4.600   1.073  11.192  0.8616  0.0448  0.2592
 2660TIP3   OH229470   2.700   4.833  10.845  0.1155  0.6713  0.3680
 2660TIP3    H129471   2.751   4.901  10.889  1.3848 -1.4063  2.3424
 2660TIP3    H229472   2.612   4.841  10.884  0.2849  1.0990  0.6719
 2661TIP3   OH229473   3.864   0.337  12.513 -0.3850  0.0768  0.6877
 2661TIP3    H129474   3.951   0.300  12.497  0.4578  2.8088 -1.8104
 2661TIP3    H229475   3.859   0.346  12.608  2.0766 -0.1241  0.8913
 2662TIP3   OH229476   5.101   3.388   0.624  0.1511 -0.3067  0.1849
 2662TIP3    H129477   5.045   3.388   0.546 -0.9976 -0.4389  0.9823
 2662TIP3    H229478   5.145   3.473   0.622  2.5232 -1.4356 -2.2016
 2663TIP3   OH229479   1.400   0.582  13.516  0.4228 -0.0210  0.3282
 2663TIP3    H129480   1.379   0.595  13.609  0.5051  0.0094  0.3423
 2663TIP3    H229481   1.329   0.526  13.484  0.5507 -0.2696  0.4778
 2664TIP3   OH229482   3.930   5.102  11.905 -0.6384 -0.1347  0.0609
 2664TIP3    H129483   3.852   5.061  11.944 -0.9745  1.0905  0.7417
 2664TIP3    H229484   3.909   5.195  11.904  1.1522  0.3112  1.0011
 2665TIP3   OH229485   1.126   2.709  10.063 -0.1934 -0.4249  0.1532
 2665TIP3    H129486   1.196   2.769  10.039 -0.2234 -0.7874 -0.8670
 2665TIP3    H229487   1.168   2.623  10.067 -0.7326 -0.7883 -1.3694
 2666TIP3   OH229488   0.135   0.301   9.239 -0.0880  0.6233 -0.0881
 2666TIP3    H129489   0.138   0.294   9.144 -0.3357  2.2434 -0.2452
 2666TIP3    H229490   0.227   0.310   9.266  0.2874 -2.7113  0.1587
 2667TIP3   OH229491   5.379   0.042  11.386 -0.0477  0.0729  0.0849
 2667TIP3    H129492   5.464   0.044  11.340  0.4388  0.8457  0.9872
 2667TIP3    H229493   5.386  -0.031  11.447  0.3025  0.6409  0.7436
 2668TIP3   OH229494   5.921   5.431  10.606  0.0624  1.2334 -0.1073
 2668TIP3    H129495   5.979   5.450  10.681 -2.1864  0.2670  2.0147
 2668TIP3    H229496   5.969   5.366  10.555  1.7089  1.9848  0.3934
 2669TIP3   OH229497   0.226   6.212  12.371 -0.7195 -0.2753  0.5107
 2669TIP3    H129498   0.151   6.258  12.407 -0.1415  0.1176  1.2444
 2669TIP3    H229499   0.296   6.225  12.435  1.1900  2.6881 -1.8884
 2670TIP3   OH229500   3.207   2.198  12.522  0.2817  0.9441  0.1769
 2670TIP3    H129501   3.122   2.168  12.555  0.4950 -1.3207 -1.0780
 2670TIP3    H229502   3.185   2.255  12.448 -0.2604 -1.2669 -1.4915
 2671TIP3   OH229503   2.427   2.754   2.691  0.0866  0.1820 -0.3872
 2671TIP3    H129504   2.332   2.763   2.684  0.1011 -0.4004 -1.6491
 2671TIP3    H229505   2.461   2.837   2.656  0.0436 -0.2520 -1.5220
 2672TIP3   OH229506   3.545   1.351  13.611 -0.1109 -0.0105  0.4093
 2672TIP3    H129507   3.452   1.364  13.631 -0.1973  0.5256 -0.3129
 2672TIP3    H229508   3.588   1.427  13.652 -0.0373 -0.0568  0.4163
 2673TIP3   OH229509   4.878   5.002  10.797 -0.3964  0.2621 -0.0574
 2673TIP3    H129510   4.841   5.040  10.878 -0.3020  3.0454 -1.1893
 2673TIP3    H229511   4.944   4.941  10.827 -2.6660 -1.4022  1.9862
 2674TIP3   OH229512   4.984   4.766  10.933 -0.1742 -0.2179  0.2983
 2674TIP3    H129513   5.074   4.759  10.900  0.4495  0.5222  1.7269
 2674TIP3    H229514   4.959   4.676  10.953  0.0764 -0.4782 -0.5467
 2675TIP3   OH229515   0.126   6.156  10.092 -0.5652  0.4567 -0.0010
 2675TIP3    H129516   0.062   6.154  10.163 -0.4399 -0.7506  0.0944
 2675TIP3    H229517   0.099   6.086  10.033  1.4673 -1.0669  0.7714
 2676TIP3   OH229518   2.286   6.312  10.853  0.6774 -0.6658 -0.1193
 2676TIP3    H129519   2.364   6.257  10.858  0.6190 -0.7902 -0.5064
 2676TIP3    H229520   2.264   6.314  10.760 -0.1062 -1.0900  0.0415
 2677TIP3   OH229521   5.755   3.492   3.031 -0.4281 -0.1328  0.2316
 2677TIP3    H129522   5.759   3.515   2.938 -1.2331  0.7624  0.3994
 2677TIP3    H229523   5.790   3.570   3.076 -1.3862  0.0318  0.7301
 2678TIP3   OH229524   3.883   6.566  10.440  0.3174 -0.2376 -0.2254
 2678TIP3    H129525   3.967   6.523  10.431 -0.3383 -2.0622  1.5608
 2678TIP3    H229526   3.874   6.583  10.534 -0.8248  0.9575 -0.5110
 2679TIP3   OH229527   6.248   4.276  13.680  0.3391  0.1919  0.3365
 2679TIP3    H129528   6.309   4.318  13.741 -1.3516  0.1619  2.1476
 2679TIP3    H229529   6.180   4.341  13.665  0.7808  0.2499 -1.7046
 2680TIP3   OH229530   4.948   2.189  11.949 -0.1983  0.2366 -0.2443
 2680TIP3    H129531   5.039   2.161  11.940 -0.5453 -0.2789 -3.3328
 2680TIP3    H229532   4.937   2.259  11.885 -1.7430  1.0192  0.7949
 2681TIP3   OH229533   7.061   0.693  13.294  0.3965  0.5906 -0.2327
 2681TIP3    H129534   6.969   0.694  13.270  0.3619  1.0367 -0.0890
 2681TIP3    H229535   7.067   0.752  13.370  0.4730 -0.8945  0.9761
 2682TIP3   OH229536   5.138   2.851  13.821 -0.2011  0.2041  0.2478
 2682TIP3    H129537   5.133   2.808  13.907  0.7282  0.8373  0.6309
 2682TIP3    H229538   5.230   2.845  13.797 -0.3521  0.5723 -0.4401
 2683TIP3   OH229539   3.327   2.800  10.509  0.7857  0.4147 -0.3226
 2683TIP3    H129540   3.338   2.710  10.479  1.9542  0.4146  0.0553
 2683TIP3    H229541   3.366   2.802  10.596  1.5202  1.4569 -0.6463
 2684TIP3   OH229542   4.508   1.109  14.976 -0.5712  0.0207 -0.0265
 2684TIP3    H129543   4.552   1.059  14.907  0.2205 -0.3563  0.7375
 2684TIP3    H229544   4.523   1.201  14.952  0.7185 -0.0992  0.2607
 2685TIP3   OH229545   1.569   1.695  12.947  0.4819  0.3609 -0.0839
 2685TIP3    H129546   1.503   1.645  12.898 -1.1183  2.0726  0.1985
 2685TIP3    H229547   1.558   1.666  13.037  0.5555  0.1853 -0.1316
 2686TIP3   OH229548   1.768   4.438  12.337  0.2413  0.2752 -0.4342
 2686TIP3    H129549   1.779   4.354  12.382 -0.6636  0.7456  0.7033
 2686TIP3    H229550   1.854   4.480  12.343  0.0278  0.5099  1.2673
 2687TIP3   OH229551   5.696   1.604  11.480 -0.8268  0.2067 -0.0399
 2687TIP3    H129552   5.707   1.550  11.402  2.5522 -0.2312  0.5856
 2687TIP3    H229553   5.626   1.560  11.529  0.1557 -2.2901 -0.6786
 2688TIP3   OH229554   2.995   6.852  13.514  0.3198  0.0222 -0.3506
 2688TIP3    H129555   2.974   6.846  13.607 -1.3793 -0.6559 -0.7494
 2688TIP3    H229556   3.072   6.909  13.511  1.8058 -1.7083  1.6394
 2689TIP3   OH229557   1.688   5.438   9.685  0.0845 -0.1214 -1.0038
 2689TIP3    H129558   1.685   5.440   9.781 -0.2137 -1.8553 -0.9453
 2689TIP3    H229559   1.598   5.460   9.659  0.7927  3.2494 -1.0426
 2690TIP3   OH229560   5.020   4.985  13.301  0.3035  0.4314  0.3005
 2690TIP3    H129561   4.958   4.941  13.243 -0.7530  1.7031  0.4205
 2690TIP3    H229562   5.071   4.914  13.340  0.1994 -0.5221 -1.2340
 2691TIP3   OH229563   3.831   4.292  13.261  0.1418  0.2268  0.2997
 2691TIP3    H129564   3.878   4.353  13.204  1.2537 -0.8392  0.0160
 2691TIP3    H229565   3.757   4.262  13.209  1.2398 -0.8666 -0.7242
 2692TIP3   OH229566   6.146   3.183   1.221 -0.5790 -0.5146 -0.4557
 2692TIP3    H129567   6.068   3.146   1.262 -0.9756 -0.2455 -0.9517
 2692TIP3    H229568   6.147   3.274   1.250 -0.0285 -0.7073  0.1508
 2693TIP3   OH229569   4.107   4.843  10.729 -0.0139 -0.1118  0.0900
 2693TIP3    H129570   4.145   4.825  10.815 -0.0899 -0.4315  0.0599
 2693TIP3    H229571   4.097   4.938  10.726 -2.0023 -0.2252  1.2912
 2694TIP3   OH229572   4.218   1.620  12.200  0.0282  0.4552  0.8415
 2694TIP3    H129573   4.276   1.573  12.259  0.1949 -0.2190  0.1548
 2694TIP3    H229574   4.267   1.700  12.177  0.1257  0.5273  1.2939
 2695TIP3   OH229575   0.512   5.485  10.411 -1.0256  0.3729 -0.0063
 2695TIP3    H129576   0.576   5.416  10.396 -0.2532  1.4130 -1.9608
 2695TIP3    H229577   0.565   5.564  10.427 -1.7558  1.1944 -1.3858
 2696TIP3   OH229578   1.226   6.167   9.333  0.6146  0.2403  0.7442
 2696TIP3    H129579   1.302   6.133   9.380  1.4382  1.1038  0.0614
 2696TIP3    H229580   1.262   6.229   9.270 -0.6831  0.8672  0.5861
 2697TIP3   OH229581   5.957   3.546  14.010 -0.0948 -0.6884  0.5489
 2697TIP3    H129582   5.957   3.467  13.957  0.1487 -0.1071 -0.3367
 2697TIP3    H229583   5.940   3.516  14.099 -1.1572 -1.6208  0.0474
 2698TIP3   OH229584   2.917   6.950  15.017  0.3328  0.7808 -0.4973
 2698TIP3    H129585   2.857   6.918  14.950  0.5666 -2.2024  0.5677
 2698TIP3    H229586   2.936   7.040  14.991 -2.4188  0.9497 -2.3673
 2699TIP3   OH229587   5.392   1.244   9.584  0.8431 -0.2125 -0.2342
 2699TIP3    H129588   5.431   1.185   9.519  3.7293  0.9154  0.3259
 2699TIP3    H229589   5.467   1.291   9.621 -0.8723  0.3812  2.7360
 2700TIP3   OH229590   1.921   5.002  10.065 -0.1132 -0.3980  0.1269
 2700TIP3    H129591   1.981   4.957  10.007  0.7778  0.3712  0.4276
 2700TIP3    H229592   1.928   4.957  10.149 -1.9536 -1.9865 -0.4958
 2701TIP3   OH229593   0.898   0.790  11.130  0.5446  0.1441 -0.2994
 2701TIP3    H129594   0.911   0.757  11.042 -3.1229  0.8879 -1.2851
 2701TIP3    H229595   0.833   0.860  11.120  0.6536  0.8672  2.9044
 2702TIP3   OH229596   4.202   0.089  11.148 -0.3545  0.5173 -0.0058
 2702TIP3    H129597   4.211   0.046  11.233 -0.7175  0.6024  0.0740
 2702TIP3    H229598   4.166   0.021  11.091 -2.8355  1.2502  0.5928
 2703TIP3   OH229599   4.060   3.835   9.668  0.2784  0.8605  0.1885
 2703TIP3    H129600   3.967   3.854   9.651  0.0245  1.3445  1.9402
 2703TIP3    H229601   4.082   3.767   9.605 -1.6930 -0.3416  0.6999
 2704TIP3   OH229602   1.062   1.559  12.167  0.3469 -0.0820  0.2816
 2704TIP3    H129603   1.015   1.481  12.194 -0.5816  0.0703 -0.8080
 2704TIP3    H229604   1.142   1.526  12.125  0.6909 -0.3748  1.1404
 2705TIP3   OH229605   2.925   1.529  11.324 -0.3496  0.1469  0.3651
 2705TIP3    H129606   2.894   1.483  11.402  1.5663 -1.9030  0.0011
 2705TIP3    H229607   2.968   1.608  11.359 -0.3487 -0.2542  1.3069
 2706TIP3   OH229608   2.879   2.805   9.963 -0.2194  0.4084  0.1820
 2706TIP3    H129609   2.812   2.736   9.963 -0.5762  0.7470 -0.7453
 2706TIP3    H229610   2.832   2.885   9.944  0.1222  1.0158  1.7317
 2707TIP3   OH229611   3.848   4.101   9.765 -0.1835 -0.4608 -0.0302
 2707TIP3    H129612   3.790   4.173   9.739  0.7324  0.0137 -0.8346
 2707TIP3    H229613   3.798   4.022   9.745 -0.2258 -0.0845 -1.5922
 2708TIP3   OH229614   5.003   0.215   1.467 -0.3275  0.6570  0.1092
 2708TIP3    H129615   4.959   0.277   1.409  0.5420  0.2298 -1.0498
 2708TIP3    H229616   5.084   0.259   1.492  1.2548 -0.6886 -2.2973
 2709TIP3   OH229617   2.696   2.927  14.856  0.1137  0.0509 -0.0172
 2709TIP3    H129618   2.634   2.892  14.920 -0.2037 -0.5595 -0.6499
 2709TIP3    H229619   2.662   3.013  14.833  1.2522  1.1326  2.0544
 2710TIP3   OH229620   1.280   6.210  12.047 -0.4096  0.1569 -0.2692
 2710TIP3    H129621   1.206   6.149  12.051 -1.1385  1.0895  1.3587
 2710TIP3    H229622   1.357   6.155  12.053 -0.9402 -0.8390 -1.9134
 2711TIP3   OH229623   1.731   0.751  10.092 -0.4755  0.0805 -0.9339
 2711TIP3    H129624   1.777   0.778  10.013  0.0657 -0.1384 -0.6964
 2711TIP3    H229625   1.786   0.682  10.130 -0.8732 -0.0144 -0.5181
 2712TIP3   OH229626   0.390   3.729   9.852 -0.2079  0.3160 -0.2556
 2712TIP3    H129627   0.404   3.771   9.767 -0.7385 -0.0744 -0.5466
 2712TIP3    H229628   0.296   3.738   9.868 -0.4786 -1.4069 -0.6952
 2713TIP3   OH229629   3.753   5.908  13.052 -0.3481  0.0377  0.3826
 2713TIP3    H129630   3.712   5.921  12.966 -0.3898  1.6291  0.6108
 2713TIP3    H229631   3.754   5.814  13.064 -1.4777 -0.1614 -0.8357
 2714TIP3   OH229632   5.164   0.329  10.021  0.3437 -0.2923 -0.3436
 2714TIP3    H129633   5.252   0.349  10.052 -0.5504  0.3976  1.9832
 2714TIP3    H229634   5.163   0.234  10.011  0.8513 -0.5184  1.4436
 2715TIP3   OH229635   3.641   4.113  11.150  0.0821 -0.3640  0.0803
 2715TIP3    H129636   3.727   4.099  11.111 -0.0628  0.0021 -0.3726
 2715TIP3    H229637   3.659   4.148  11.238  0.4291  3.7093 -1.4100
 2716TIP3   OH229638   3.935   6.651  15.403 -0.1892 -0.3393 -0.5356
 2716TIP3    H129639   3.910   6.619  15.489 -0.4787  1.7613  0.2210
 2716TIP3    H229640   4.030   6.636  15.398 -0.0263  0.2933  0.5018
 2717TIP3   OH229641   4.647   6.380  10.425  0.1212  0.0482 -0.0159
 2717TIP3    H129642   4.655   6.419  10.338 -0.1768  0.0239 -0.0557
 2717TIP3    H229643   4.615   6.291  10.410 -0.5011  0.2358  0.1425
 2718TIP3   OH229644   1.854   0.601  14.308  0.2527  0.2151 -0.1732
 2718TIP3    H129645   1.799   0.523  14.312  2.0978 -1.3550 -2.8670
 2718TIP3    H229646   1.792   0.673  14.293 -1.3505 -0.8868  0.8943
 2719TIP3   OH229647   1.885   0.823  14.651 -0.1602 -0.4360  0.1938
 2719TIP3    H129648   1.808   0.815  14.708 -0.3676 -1.2084 -0.1807
 2719TIP3    H229649   1.850   0.818  14.562  0.1089  1.2766 -0.0297
 2720TIP3   OH229650   5.984   6.419   9.878 -0.2691 -0.0539 -0.3498
 2720TIP3    H129651   5.906   6.411   9.824  0.0551  0.7443 -0.9573
 2720TIP3    H229652   6.054   6.378   9.827 -0.1967 -0.3548 -0.0142
 2721TIP3   OH229653   4.717   5.837  12.439  0.2280  0.1145 -0.3001
 2721TIP3    H129654   4.724   5.825  12.344 -1.1675  0.7779 -0.5257
 2721TIP3    H229655   4.739   5.752  12.476  0.5136 -0.2324 -1.2410
 2722TIP3   OH229656   6.583   4.247  10.288 -0.4116  0.3606 -0.7515
 2722TIP3    H129657   6.603   4.333  10.327 -3.6801  0.5075  0.9065
 2722TIP3    H229658   6.541   4.268  10.204 -2.4539  0.5275  0.2625
 2723TIP3   OH229659   1.853   6.661   1.108  0.0385  0.3295 -0.4870
 2723TIP3    H129660   1.878   6.577   1.071  0.5360  0.4148 -0.3543
 2723TIP3    H229661   1.810   6.640   1.191 -2.2269  0.0550 -1.6487
 2724TIP3   OH229662   6.373   3.405  14.422 -0.0704 -0.4003 -0.2364
 2724TIP3    H129663   6.341   3.480  14.473 -0.3898 -1.0581  0.5658
 2724TIP3    H229664   6.454   3.436  14.383  1.6441 -0.6113  2.8260
 2725TIP3   OH229665   6.139   5.559  10.710  0.5467  0.3851  0.8316
 2725TIP3    H129666   6.115   5.609  10.632  0.7454  1.4356  1.4271
 2725TIP3    H229667   6.137   5.623  10.781  0.6277 -0.4994  1.6495
 2726TIP3   OH229668   4.629   0.337  11.781 -0.1048 -0.2131 -0.2397
 2726TIP3    H129669   4.698   0.276  11.807  0.0438 -0.6377 -1.5379
 2726TIP3    H229670   4.675   0.408  11.736 -0.2415  1.0793  1.5539
 2727TIP3   OH229671   4.113   0.404  10.031 -0.5473 -0.2639  0.4849
 2727TIP3    H129672   4.198   0.365  10.050  0.1433  0.4537 -1.0140
 2727TIP3    H229673   4.125   0.452   9.950 -1.9066  1.4239  1.2064
 2728TIP3   OH229674   2.030   5.741  15.350  0.1886  0.3590  0.1333
 2728TIP3    H129675   1.952   5.718  15.299 -0.7377  0.1959  1.5620
 2728TIP3    H229676   2.062   5.822  15.310 -1.0632  0.7436 -0.1352
 2729TIP3   OH229677   4.832   3.627   0.494 -0.5433  0.3830 -0.1904
 2729TIP3    H129678   4.887   3.703   0.474 -2.6135  1.6843 -1.3667
 2729TIP3    H229679   4.873   3.554   0.447 -0.1182  1.4373 -1.5194
 2730TIP3   OH229680   2.396   2.529   9.816  0.0738 -0.0884  0.2684
 2730TIP3    H129681   2.323   2.537   9.754  2.1388  0.5052 -2.2912
 2730TIP3    H229682   2.376   2.452   9.868 -1.4319 -1.1451 -1.7418
 2731TIP3   OH229683   2.199   5.611   0.160  0.0033 -0.1075  0.5203
 2731TIP3    H129684   2.233   5.691   0.120  0.5415  0.0690  1.3252
 2731TIP3    H229685   2.237   5.541   0.108  0.9300  0.1144  0.8806
 2732TIP3   OH229686   4.135   1.706  10.964  0.2588  0.0578 -0.4887
 2732TIP3    H129687   4.135   1.769  10.892  1.2988  0.8751  0.1988
 2732TIP3    H229688   4.046   1.671  10.966  0.0531  0.4680 -1.7734
 2733TIP3   OH229689   4.976   6.232  13.371  0.4668 -0.2300  0.0142
 2733TIP3    H129690   5.054   6.284  13.388  0.5504 -0.2589 -0.2874
 2733TIP3    H229691   4.930   6.231  13.455  0.7962 -0.2247  0.1977
 2734TIP3   OH229692   4.047   3.839   2.958 -0.9496 -0.3316  0.1466
 2734TIP3    H129693   3.976   3.902   2.965  0.2819  0.9958  1.4579
 2734TIP3    H229694   4.028   3.789   2.879 -0.9522  3.0175 -2.1704
 2735TIP3   OH229695   5.706   6.229  11.383  0.0060  0.4554  0.1626
 2735TIP3    H129696   5.688   6.151  11.434 -0.3408  1.3363  1.4384
 2735TIP3    H229697   5.801   6.238  11.385 -0.0822  1.6009  2.4776
 2736TIP3   OH229698   2.035   1.474  10.966  0.3927  0.8041 -0.0594
 2736TIP3    H129699   2.035   1.554  10.914 -1.1433  0.8006 -0.1162
 2736TIP3    H229700   1.964   1.422  10.930 -0.5037  0.6542  1.8031
 2737TIP3   OH229701   2.085   3.773  11.641 -0.1945 -0.3015  0.0572
 2737TIP3    H129702   2.000   3.808  11.616  1.2913  2.1716 -2.0975
 2737TIP3    H229703   2.125   3.745  11.558  0.9331 -1.9427  1.0706
 2738TIP3   OH229704   2.906   5.938  10.678 -0.2124  0.0602 -0.2872
 2738TIP3    H129705   2.872   6.021  10.643 -0.4845 -0.4140 -1.1906
 2738TIP3    H229706   2.828   5.890  10.705 -0.0431  0.1637  0.4056
 2739TIP3   OH229707   0.062   4.630  14.142 -0.2140  0.3938 -0.1897
 2739TIP3    H129708   0.079   4.714  14.184  3.0950  0.2377 -0.9973
 2739TIP3    H229709   0.096   4.640  14.053  0.7271 -1.9385 -0.1430
 2740TIP3   OH229710   7.132   0.566  11.221  0.2926  0.0026 -0.3288
 2740TIP3    H129711   7.154   0.635  11.284 -0.6941 -0.5413  0.6514
 2740TIP3    H229712   7.059   0.520  11.261 -0.0399 -0.6812 -1.6700
 2741TIP3   OH229713   1.275   4.493  10.902 -0.2717  0.3311 -0.4873
 2741TIP3    H129714   1.274   4.536  10.817  0.2189  1.9234  0.2819
 2741TIP3    H229715   1.202   4.532  10.949  0.1489  0.2804  0.2168
 2742TIP3   OH229716   6.187   4.962  10.545  0.4296 -0.0577 -0.3376
 2742TIP3    H129717   6.223   4.896  10.486 -0.1177 -2.9188  2.2971
 2742TIP3    H229718   6.264   4.998  10.589  0.5708 -1.1674  0.3580
 2743TIP3   OH229719   2.334   0.360  13.312  0.1067  0.2221  0.4129
 2743TIP3    H129720   2.311   0.287  13.254  1.1775  0.2359 -0.0640
 2743TIP3    H229721   2.426   0.378  13.292  0.0988  1.1489  1.1356
 2744TIP3   OH229722   2.608   4.089  10.350  0.2221 -0.5039 -0.2646
 2744TIP3    H129723   2.614   4.110  10.256 -0.0543 -1.5171 -0.5181
 2744TIP3    H229724   2.610   3.994  10.353  1.9694 -0.4667  0.9000
 2745TIP3   OH229725   0.967   4.530  10.947  0.2444 -0.3973 -0.0686
 2745TIP3    H129726   0.987   4.472  11.021  1.1900 -2.0655 -1.5711
 2745TIP3    H229727   0.881   4.502  10.917  0.0115  0.0553  0.1601
 2746TIP3   OH229728   6.217   1.079  12.502 -0.1770  0.1567 -0.0418
 2746TIP3    H129729   6.137   1.038  12.537  0.7289  0.0322  2.0330
 2746TIP3    H229730   6.265   1.107  12.580  1.2508  1.3317 -1.2910
 2747TIP3   OH229731   0.352   5.653  10.641 -0.0527  0.0343 -0.3760
 2747TIP3    H129732   0.270   5.604  10.642  0.0339 -0.3224 -2.9865
 2747TIP3    H229733   0.418   5.590  10.670 -0.5432  0.0040  0.7027
 2748TIP3   OH229734   4.402   5.140  11.252  0.3244  0.2342  0.3645
 2748TIP3    H129735   4.345   5.157  11.178  0.6491 -0.1161  0.0309
 2748TIP3    H229736   4.369   5.058  11.290 -0.2319  0.7337  0.9932
 2749TIP3   OH229737   6.412   4.301  11.470  0.3841  0.2273 -0.1791
 2749TIP3    H129738   6.485   4.346  11.511  2.1714 -2.3004 -0.3880
 2749TIP3    H229739   6.354   4.277  11.542  0.0800  1.5743  0.0601
 2750TIP3   OH229740   4.622   2.926  10.126 -0.1497  0.1342  0.0758
 2750TIP3    H129741   4.655   2.836  10.126  0.4814  0.3590  0.6917
 2750TIP3    H229742   4.527   2.916  10.121 -0.0428 -0.5344 -1.1159
 2751TIP3   OH229743   5.926   5.180  14.159 -0.6227 -0.1383 -0.2012
 2751TIP3    H129744   5.969   5.206  14.240  2.1201 -1.5614 -1.0886
 2751TIP3    H229745   5.874   5.257  14.134 -0.6596  0.7306  2.2747
 2752TIP3   OH229746   5.309   1.193  12.602  0.5261 -0.2227  0.2405
 2752TIP3    H129747   5.278   1.220  12.688 -1.3884 -2.2840  0.2896
 2752TIP3    H229748   5.231   1.196  12.546  1.2159 -1.1468 -0.8256
 2753TIP3   OH229749   3.804   2.694   0.599 -0.2526  0.2127  0.3170
 2753TIP3    H129750   3.748   2.752   0.652 -0.0877 -0.7605  1.6052
 2753TIP3    H229751   3.893   2.716   0.626 -0.0665  0.6971 -0.6311
 2754TIP3   OH229752   6.687   0.216  14.297  0.0864  0.0434  0.5146
 2754TIP3    H129753   6.638   0.157  14.354  1.3004 -1.2891  0.2245
 2754TIP3    H229754   6.619   0.261  14.246 -1.1191  1.9666  3.5191
 2755TIP3   OH229755   3.531   2.084  14.045  0.2826  0.4878  0.8768
 2755TIP3    H129756   3.588   2.015  14.011 -0.5348  0.3477 -0.2539
 2755TIP3    H229757   3.443   2.048  14.040 -0.2336  1.8378 -0.3576
 2756TIP3   OH229758   1.479   0.714  10.176 -0.3240  0.0346 -0.5970
 2756TIP3    H129759   1.570   0.740  10.163 -0.2837 -1.2245 -3.9398
 2756TIP3    H229760   1.430   0.797  10.175  0.5111  0.5583 -2.4521
 2757TIP3   OH229761   2.226   3.323  12.254  0.2675 -0.1202  0.3849
 2757TIP3    H129762   2.198   3.413  12.235  0.9730 -0.0879 -0.5946
 2757TIP3    H229763   2.234   3.320  12.349  0.8019  1.0472  0.3937
 2758TIP3   OH229764   0.184   1.338  10.975 -0.1469 -0.1151  0.2339
 2758TIP3    H129765   0.186   1.400  11.048 -0.8224  2.8015 -2.0387
 2758TIP3    H229766   0.102   1.290  10.988 -0.0951  0.0964  1.5304
 2759TIP3   OH229767   1.574   0.820  13.522  0.5804 -0.1723  0.1000
 2759TIP3    H129768   1.509   0.751  13.506 -0.0470  0.9199 -2.4327
 2759TIP3    H229769   1.645   0.803  13.460  1.1791  0.5364  0.5633
 2760TIP3   OH229770   2.371   4.063   9.809 -0.0873  0.0932 -0.2387
 2760TIP3    H129771   2.447   4.107   9.770 -0.0541  0.6855  0.4765
 2760TIP3    H229772   2.309   4.055   9.737  1.0429 -1.3654 -1.1233
 2761TIP3   OH229773   3.696   6.404  11.402  0.2720  0.3735  0.8354
 2761TIP3    H129774   3.641   6.475  11.370 -0.6629 -0.5761  0.2790
 2761TIP3    H229775   3.639   6.354  11.462  0.2861 -0.9937 -0.2382
 2762TIP3   OH229776   3.366   0.374  11.218  0.1259  0.3478  0.0782
 2762TIP3    H129777   3.440   0.390  11.160  0.0048  0.9653  0.0888
 2762TIP3    H229778   3.403   0.376  11.306  0.0589  0.9009  0.0959
 2763TIP3   OH229779   3.175   0.526   9.492  0.1177  0.2026  0.3936
 2763TIP3    H129780   3.178   0.440   9.535  0.0943 -0.1076 -0.2183
 2763TIP3    H229781   3.230   0.582   9.547  1.2711 -0.5500  0.0364
 2764TIP3   OH229782   0.421   6.441  10.734  0.0614  0.7811 -0.0442
 2764TIP3    H129783   0.491   6.430  10.799 -1.4072  0.5660  1.5733
 2764TIP3    H229784   0.398   6.533  10.739  1.3968  1.2839 -1.9081
 2765TIP3   OH229785   0.141   6.303  11.531  0.2026 -0.5888  0.5676
 2765TIP3    H129786   0.123   6.319  11.438 -1.7624  1.0453  1.1479
 2765TIP3    H229787   0.075   6.355  11.577  2.2594  0.1421  2.9233
 2766TIP3   OH229788   1.842   2.624  10.059 -0.1138 -0.4266 -0.0945
 2766TIP3    H129789   1.770   2.616   9.996  0.3272  0.2377 -0.7010
 2766TIP3    H229790   1.897   2.548  10.042  0.2942  0.0327 -0.9149
 2767TIP3   OH229791   1.253   3.374  10.589  0.4374  0.3116 -0.4574
 2767TIP3    H129792   1.169   3.384  10.544  0.0090 -0.3091  0.1970
 2767TIP3    H229793   1.318   3.402  10.524 -0.3631  2.5035 -0.3913
 2768TIP3   OH229794   4.400   4.397  10.115  0.1038  0.3376  0.9536
 2768TIP3    H129795   4.449   4.458  10.059  1.7101 -0.3647  1.5196
 2768TIP3    H229796   4.332   4.451  10.155 -1.1075  0.8664 -1.6188
 2769TIP3   OH229797   4.033   0.081  10.172  0.1062 -0.3373  0.0127
 2769TIP3    H129798   3.952   0.124  10.145  0.6874  1.4680  0.9747
 2769TIP3    H229799   4.102   0.143  10.149  1.1357 -1.4225  0.0897
 2770TIP3   OH229800   7.052   5.204  13.870 -0.4921  0.0014  0.2039
 2770TIP3    H129801   7.003   5.262  13.928 -0.8666  0.1543 -0.2575
 2770TIP3    H229802   7.129   5.256  13.844 -1.1844  0.5762 -0.7689
 2771TIP3   OH229803   5.534   4.768  15.424 -0.5692  0.4684  0.5513
 2771TIP3    H129804   5.570   4.707  15.488 -0.3978  0.7106  0.6909
 2771TIP3    H229805   5.578   4.851  15.443 -0.1509  0.4219 -0.2059
 2772TIP3   OH229806   5.926   2.883  10.864  0.4449 -0.3890 -0.5315
 2772TIP3    H129807   5.894   2.865  10.775 -0.1052 -1.9309 -0.0611
 2772TIP3    H229808   5.861   2.943  10.901 -0.7623 -1.7386 -0.3492
 2773TIP3   OH229809   6.893   5.723  12.641 -0.0307  0.0303  0.0214
 2773TIP3    H129810   6.798   5.711  12.644 -0.0861  0.6024  0.7007
 2773TIP3    H229811   6.907   5.786  12.570 -0.2263  0.5297  0.4194
 2774TIP3   OH229812   0.942   4.158  12.020  0.2322 -0.1325  0.2171
 2774TIP3    H129813   0.961   4.070  12.051  0.5307 -0.1834 -0.1124
 2774TIP3    H229814   0.964   4.215  12.094  3.1783 -0.0239 -0.6213
 2775TIP3   OH229815   1.422   4.211  12.946 -0.6468 -0.3399  0.3132
 2775TIP3    H129816   1.505   4.163  12.955  1.3014  2.4556 -1.4025
 2775TIP3    H229817   1.374   4.161  12.881  0.5258 -0.9808 -0.1026
 2776TIP3   OH229818   7.054   0.570  11.664  0.5282 -1.0485  0.4877
 2776TIP3    H129819   7.061   0.544  11.755 -0.5645  1.0172  1.2162
 2776TIP3    H229820   7.070   0.664  11.664  0.5868 -1.0053 -1.4657
 2777TIP3   OH229821   6.226   0.606  11.388  0.2322 -0.1343  0.7195
 2777TIP3    H129822   6.224   0.510  11.393 -1.4544 -0.0896  1.2618
 2777TIP3    H229823   6.138   0.631  11.360  1.2836  1.1611 -1.8474
 2778TIP3   OH229824   5.732   3.830  11.215  0.1742 -0.3458  0.2871
 2778TIP3    H129825   5.806   3.811  11.271 -0.0142  1.7484  1.3712
 2778TIP3    H229826   5.665   3.865  11.275 -1.3942 -1.4294 -0.7640
 2779TIP3   OH229827   4.549   0.252  14.143  0.0872  0.1203 -0.5008
 2779TIP3    H129828   4.594   0.282  14.221  0.2590  0.8860 -0.8813
 2779TIP3    H229829   4.549   0.156  14.149 -2.3404  0.1395  1.8241
 2780TIP3   OH229830   5.037   1.879  11.840 -0.1569  0.5758 -0.1246
 2780TIP3    H129831   4.949   1.895  11.873  0.3307  0.9293  1.0337
 2780TIP3    H229832   5.031   1.899  11.746 -1.2404  0.8378 -0.0140
 2781TIP3   OH229833   3.935   1.528  12.139 -0.0675 -0.2923  0.0046
 2781TIP3    H129834   4.009   1.557  12.193 -0.3883  1.0723 -0.2532
 2781TIP3    H229835   3.970   1.525  12.050  0.1884 -1.5929  0.1144
 2782TIP3   OH229836   3.474   3.782  12.033 -0.1743 -0.5482  0.4529
 2782TIP3    H129837   3.490   3.712  11.970  0.9912 -0.2027  0.3590
 2782TIP3    H229838   3.395   3.825  12.001  1.6931  1.1921 -2.2136
 2783TIP3   OH229839   7.144   6.056  10.971 -0.1602 -0.1132 -0.3004
 2783TIP3    H129840   7.089   6.110  10.914  1.2626  1.1723 -0.5212
 2783TIP3    H229841   7.223   6.041  10.921  0.7125  0.1853  0.9370
 2784TIP3   OH229842   0.020   0.728  12.699 -0.1076 -0.5125 -0.1907
 2784TIP3    H129843   0.045   0.775  12.620  0.1992 -0.2059  0.0802
 2784TIP3    H229844   0.003   0.798  12.763  1.4189 -0.7634  0.5372
 2785TIP3   OH229845   2.720   1.763  11.282 -0.1772  0.5201  0.0886
 2785TIP3    H129846   2.667   1.766  11.361  1.0495 -0.2038  0.9664
 2785TIP3    H229847   2.786   1.695  11.299 -1.5520 -1.7256 -2.6077
 2786TIP3   OH229848   5.251   5.371  10.314  0.0491 -0.1052  0.0575
 2786TIP3    H129849   5.252   5.388  10.409 -0.2204 -3.1756  0.7116
 2786TIP3    H229850   5.231   5.456  10.275  1.3866  1.5601  2.6526
 2787TIP3   OH229851   0.396   6.968  10.012 -0.8417 -0.4473 -0.4320
 2787TIP3    H129852   0.466   7.008   9.960  1.1474 -0.0995  2.2845
 2787TIP3    H229853   0.425   6.877  10.024 -1.7480 -0.7788 -0.6872
 2788TIP3   OH229854   6.712   3.363  11.021  0.1053 -0.3639  0.0249
 2788TIP3    H129855   6.646   3.398  11.080  0.3046  0.8701 -0.4465
 2788TIP3    H229856   6.725   3.432  10.956  1.8156 -0.5946  0.0805
 2789TIP3   OH229857   5.278   1.536  13.129 -0.0585  0.0120  0.1205
 2789TIP3    H129858   5.187   1.507  13.126 -0.1317  0.2224  0.2424
 2789TIP3    H229859   5.283   1.593  13.206 -0.3194  1.6291 -1.0076
 2790TIP3   OH229860   4.548   2.523  10.666  0.4221  0.6254  0.1277
 2790TIP3    H129861   4.608   2.568  10.607  0.8643  0.8494  0.7438
 2790TIP3    H229862   4.586   2.535  10.753  0.8505 -1.4275  0.2620
 2791TIP3   OH229863   5.519   5.205   9.929 -0.6684  0.2870  0.4053
 2791TIP3    H129864   5.557   5.261   9.861  2.6655 -2.5491 -0.3704
 2791TIP3    H229865   5.574   5.220  10.006 -0.9849 -0.5176  0.7952
 2792TIP3   OH229866   0.720   1.433   9.771  0.9006  0.0663  0.1341
 2792TIP3    H129867   0.717   1.464   9.861 -2.0257 -0.3704  0.2782
 2792TIP3    H229868   0.660   1.358   9.769 -0.0949  0.8362 -2.4166
 2793TIP3   OH229869   7.196   3.407   9.384  0.1313  0.1143 -0.9436
 2793TIP3    H129870   7.280   3.371   9.357 -0.3201 -0.6659 -1.3739
 2793TIP3    H229871   7.208   3.502   9.383  0.7010  0.0421 -2.0369
 2794TIP3   OH229872   0.591   7.097  12.703  0.6372 -0.0458  0.1417
 2794TIP3    H129873   0.624   7.074  12.616  2.0511  3.8733 -0.5520
 2794TIP3    H229874   0.661   7.149  12.742 -1.3281  1.2195  2.2340
 2795TIP3   OH229875   6.670   3.746  10.632 -0.1961 -0.0073  0.5266
 2795TIP3    H129876   6.753   3.781  10.601 -0.1963 -1.0523 -0.7297
 2795TIP3    H229877   6.627   3.710  10.554 -0.7736 -1.5682  1.4995
 2796TIP3   OH229878   6.323   0.081  14.419 -0.4113  0.2808 -0.5002
 2796TIP3    H129879   6.326   0.048  14.509  0.9689  0.3206 -0.5055
 2796TIP3    H229880   6.335   0.003  14.365  2.5187  0.6130 -0.5190
 2797TIP3   OH229881   4.308   2.637  10.246  0.6833 -0.3175 -0.6356
 2797TIP3    H129882   4.346   2.709  10.297  1.5547  0.0437 -1.7628
 2797TIP3    H229883   4.224   2.671  10.215  0.0879 -0.5813  0.6194
 2798TIP3   OH229884   1.357   4.247  13.919 -0.6670  0.0599  0.1421
 2798TIP3    H129885   1.276   4.198  13.907  0.2552 -1.1576 -1.4735
 2798TIP3    H229886   1.424   4.180  13.937  0.3872  0.8067 -0.8329
 2799TIP3   OH229887   5.016   5.815  13.096 -0.2387  0.1450  0.2098
 2799TIP3    H129888   4.921   5.820  13.088 -0.5474 -1.9780  1.8637
 2799TIP3    H229889   5.043   5.902  13.125 -1.6416  0.7845 -0.3510
 2800TIP3   OH229890   3.459   6.477  12.675  0.3975 -0.0737 -0.2981
 2800TIP3    H129891   3.531   6.518  12.627  0.3850  1.2343  0.7423
 2800TIP3    H229892   3.431   6.544  12.737 -0.0595 -1.4710  1.0427
 2801TIP3   OH229893   3.348   5.884  14.534  0.3386 -0.1058  0.5805
 2801TIP3    H129894   3.398   5.804  14.552  2.9886  1.3711  0.1922
 2801TIP3    H229895   3.267   5.852  14.495  1.3819 -2.6162  0.2675
 2802TIP3   OH229896   4.838   5.858  11.028 -0.1156 -0.3262 -0.0794
 2802TIP3    H129897   4.792   5.783  11.065  0.3162 -0.6501 -0.1954
 2802TIP3    H229898   4.770   5.924  11.017 -0.4936 -0.6865  0.0519
 2803TIP3   OH229899   5.216   7.041  10.588  0.4320 -0.4954 -0.1361
 2803TIP3    H129900   5.239   6.948  10.586  2.3427 -0.0599 -1.4089
 2803TIP3    H229901   5.151   7.048  10.658 -2.1203 -3.2658 -1.9613
 2804TIP3   OH229902   4.747   2.278  12.574  0.2872 -0.3788  0.0707
 2804TIP3    H129903   4.830   2.275  12.526  0.1527 -0.9063 -0.1234
 2804TIP3    H229904   4.684   2.311  12.511  0.5694  1.1725  0.5424
 2805TIP3   OH229905   3.688   2.702  12.042  0.0851  0.2748  0.7481
 2805TIP3    H129906   3.703   2.779  12.098  0.5748 -0.2251  1.3259
 2805TIP3    H229907   3.736   2.631  12.086  0.5502 -0.1150 -0.3586
 2806TIP3   OH229908   0.816   0.644  10.861 -0.2866 -0.0479 -0.4318
 2806TIP3    H129909   0.784   0.711  10.802 -1.5199 -0.4040 -0.2100
 2806TIP3    H229910   0.739   0.620  10.914  0.6640 -0.0507  1.0061
 2807TIP3   OH229911   4.040   2.943  13.558  0.3564 -0.6003 -0.3189
 2807TIP3    H129912   4.082   2.988  13.484  2.5244  0.2419  1.3153
 2807TIP3    H229913   4.037   2.851  13.531  1.7771 -0.4263 -1.1859
 2808TIP3   OH229914   0.475   6.641  14.123 -0.2001  0.1728  0.0378
 2808TIP3    H129915   0.460   6.698  14.048  0.0978 -0.2539 -0.3481
 2808TIP3    H229916   0.400   6.657  14.181 -0.6915  0.1279 -0.5761
 2809TIP3   OH229917   5.995   6.117   9.920  0.2919  0.0823  0.0303
 2809TIP3    H129918   5.956   6.204   9.924 -0.7881 -0.4031  0.7012
 2809TIP3    H229919   6.089   6.132   9.924  0.1609  1.2561 -0.7788
 2810TIP3   OH229920   1.028   5.455  10.966  0.2121  0.0292  0.5472
 2810TIP3    H129921   0.943   5.427  11.001  0.7691 -2.2525  0.2781
 2810TIP3    H229922   1.067   5.506  11.036 -1.0053  0.3287  1.0368
 2811TIP3   OH229923   2.715   4.041  12.857  0.3139  0.0529 -0.0019
 2811TIP3    H129924   2.670   4.125  12.849 -0.1727 -0.0356  1.6026
 2811TIP3    H229925   2.666   3.993  12.924  0.5186 -1.5669 -0.9633
 2812TIP3   OH229926   3.836   4.043  10.251 -0.0759 -0.2171 -0.2993
 2812TIP3    H129927   3.886   4.083  10.181  0.9585  0.6742  0.9084
 2812TIP3    H229928   3.882   4.068  10.331 -1.2222 -1.1919  0.7067
 2813TIP3   OH229929   7.202   0.473  12.767 -0.5420 -0.0779 -0.2567
 2813TIP3    H129930   7.235   0.457  12.855 -2.8692 -1.0411  0.4970
 2813TIP3    H229931   7.224   0.565  12.750 -0.5586  0.2988  1.5687
 2814TIP3   OH229932   1.222   6.200   9.708 -0.9199 -0.7013  0.1021
 2814TIP3    H129933   1.130   6.176   9.697 -1.6102  1.2849  1.1016
 2814TIP3    H229934   1.241   6.181   9.800  0.4090 -3.2404 -0.6058
 2815TIP3   OH229935   7.029   5.690  12.092 -0.3081 -0.0162  0.1284
 2815TIP3    H129936   6.962   5.758  12.082 -0.1547 -0.0870 -1.8683
 2815TIP3    H229937   7.112   5.738  12.087 -0.1658 -0.3827 -2.6286
 2816TIP3   OH229938   4.191   5.208  13.909 -0.1120 -0.2751  0.2574
 2816TIP3    H129939   4.117   5.167  13.954  0.8797  0.0039  2.2258
 2816TIP3    H229940   4.258   5.140  13.906  0.1823  0.0174  0.0747
 2817TIP3   OH229941   5.442   5.176  11.740 -0.0188 -0.5573  0.4682
 2817TIP3    H129942   5.464   5.231  11.666 -0.6784 -1.0311 -0.0925
 2817TIP3    H229943   5.346   5.176  11.742 -0.0102 -0.5762  1.3019
 2818TIP3   OH229944   0.651   0.362  12.366  0.2229 -0.0277 -0.0824
 2818TIP3    H129945   0.608   0.361  12.452 -0.9716  1.2621 -0.6391
 2818TIP3    H229946   0.654   0.270  12.340  0.1873 -0.3905  1.1327
 2819TIP3   OH229947   0.702   1.598  10.401  0.1035 -0.4622  0.1141
 2819TIP3    H129948   0.637   1.638  10.458 -0.4712 -1.8052  0.4484
 2819TIP3    H229949   0.697   1.648  10.320 -1.3272 -0.4930  0.1571
 2820TIP3   OH229950   4.576   7.178  14.158  0.4775  0.0179  0.2593
 2820TIP3    H129951   4.514   7.157  14.227 -0.2074  1.3235  0.0722
 2820TIP3    H229952   4.541   7.136  14.080 -0.3119  0.9206  0.1099
 2821TIP3   OH229953   1.871   0.801   9.882 -0.1975  0.1437  1.2161
 2821TIP3    H129954   1.858   0.791   9.788 -1.7011  1.0359  1.2880
 2821TIP3    H229955   1.954   0.758   9.900 -0.4382 -1.0508 -0.3279
 2822TIP3   OH229956   5.861   1.740  12.443 -0.0207 -0.2063 -0.3157
 2822TIP3    H129957   5.912   1.818  12.465  0.8710 -0.2965 -1.9422
 2822TIP3    H229958   5.770   1.771  12.438  0.0082  0.2288  1.2844
 2823TIP3   OH229959   2.342   0.854   9.519 -0.2225  0.1683 -0.3999
 2823TIP3    H129960   2.386   0.910   9.454  1.5865 -1.2900 -0.5386
 2823TIP3    H229961   2.398   0.860   9.597 -0.3732 -0.9042 -0.2005
 2824TIP3   OH229962   1.570   6.141  14.256  0.1506  0.3283  0.2372
 2824TIP3    H129963   1.551   6.140  14.349 -0.8546  0.6636  0.0428
 2824TIP3    H229964   1.485   6.155  14.214  0.5772  0.0860 -0.7311
 2825TIP3   OH229965   7.167   3.469  13.634  0.2928  0.2433 -0.3597
 2825TIP3    H129966   7.163   3.539  13.699 -0.3318  0.6277 -0.7999
 2825TIP3    H229967   7.090   3.415  13.653 -0.6557  1.0944 -1.5742
 2826TIP3   OH229968   6.404   6.354  10.796 -0.3990  0.0119 -0.0953
 2826TIP3    H129969   6.482   6.300  10.787 -0.2497 -0.2481  2.1820
 2826TIP3    H229970   6.332   6.298  10.769 -0.1878 -1.2131  1.7072
 2827TIP3   OH229971   4.127   3.059  12.256 -0.0488  0.1334  0.3000
 2827TIP3    H129972   4.216   3.093  12.250 -0.7432  2.1234  0.5878
 2827TIP3    H229973   4.103   3.071  12.348 -0.7411 -0.0457  0.1469
 2828TIP3   OH229974   7.170   2.098  12.314  0.5856  0.4523  0.0036
 2828TIP3    H129975   7.084   2.134  12.291 -0.0409 -0.5299  0.6790
 2828TIP3    H229976   7.216   2.171  12.355 -0.0060  0.9450 -0.1836
 2829TIP3   OH229977   1.639   6.050  11.136 -0.0590  0.5541  0.1502
 2829TIP3    H129978   1.729   6.019  11.147  0.2097  1.3178  0.1698
 2829TIP3    H229979   1.648   6.141  11.109 -0.8037  0.2764 -1.1123
 2830TIP3   OH229980   7.191   0.066  10.279 -0.2961 -0.0610 -0.4250
 2830TIP3    H129981   7.156   0.004  10.215 -2.1314  0.5271 -0.0311
 2830TIP3    H229982   7.284   0.043  10.286 -1.0199 -3.2924  0.2885
 2831TIP3   OH229983   1.484   4.290  14.524  0.3637  0.0562 -0.0788
 2831TIP3    H129984   1.519   4.373  14.556  1.2401 -0.0314 -0.7495
 2831TIP3    H229985   1.501   4.228  14.595 -1.0879  0.6064  0.7874
 2832TIP3   OH229986   1.376   5.010  11.216  0.0549 -0.0466 -0.0676
 2832TIP3    H129987   1.299   4.996  11.161 -1.6820  0.7147  2.0146
 2832TIP3    H229988   1.418   4.924  11.221 -1.1648 -0.6932 -0.5484
 2833TIP3   OH229989   2.789   6.660  11.583  0.2602  0.4288 -0.0360
 2833TIP3    H129990   2.708   6.632  11.625 -0.1728  0.7518 -0.6533
 2833TIP3    H229991   2.772   6.749  11.555  1.1775  0.8605  0.7245
 2834TIP3   OH229992   0.451   1.963  12.126  0.5762  0.0076  0.0077
 2834TIP3    H129993   0.477   1.972  12.034 -0.7245  1.6103 -0.2567
 2834TIP3    H229994   0.365   2.004  12.130  1.1753  1.2195  2.1847
 2835TIP3   OH229995   5.343   1.217  11.929  0.3750  0.5454 -0.5942
 2835TIP3    H129996   5.250   1.198  11.941  0.7548 -1.2739 -0.2249
 2835TIP3    H229997   5.386   1.132  11.942  2.0694  1.3283 -0.9194
 2836TIP3   OH229998   0.843   3.969   9.926  0.2805  0.5152  0.1143
 2836TIP3    H129999   0.936   3.984   9.907  0.0189 -0.2376 -2.0163
 2836TIP3    H230000   0.843   3.895   9.988  1.1014  0.2790 -0.1538
 2837TIP3   OH230001   7.129   4.001  12.828  0.0843  0.5058 -0.2418
 2837TIP3    H130002   7.051   3.954  12.859  1.0251 -0.4871  0.6929
 2837TIP3    H230003   7.116   4.010  12.734 -0.2597 -1.4163 -0.4176
 2838TIP3   OH230004   0.361   1.109  10.981  0.4290 -0.3961  0.4642
 2838TIP3    H130005   0.342   1.092  11.074 -1.2110  0.8485  0.4196
 2838TIP3    H230006   0.297   1.176  10.956  1.1159 -0.3979 -1.4681
 2839TIP3   OH230007   0.593   4.175  14.617  0.1349 -0.6430  0.3822
 2839TIP3    H130008   0.518   4.184  14.676 -0.1967 -0.4294 -0.0633
 2839TIP3    H230009   0.642   4.256  14.628 -0.7510  0.0623 -0.7557
 2840TIP3   OH230010   2.193   2.031   9.796  0.1209  0.4305  0.2544
 2840TIP3    H130011   2.206   1.975   9.720 -0.0287  0.8198 -0.0577
 2840TIP3    H230012   2.103   2.062   9.789 -0.6491 -1.2491  1.7418
 2841TIP3   OH230013   0.953   6.192   9.388 -0.6522  0.0100 -0.3293
 2841TIP3    H130014   0.921   6.136   9.459 -1.7673 -0.7395 -1.3774
 2841TIP3    H230015   1.048   6.180   9.389 -0.8253 -1.5640 -0.2296
 2842TIP3   OH230016   2.079   3.101  11.980 -0.5933  0.4343  0.6401
 2842TIP3    H130017   2.137   3.097  12.056 -0.6878 -0.2068  0.6897
 2842TIP3    H230018   2.026   3.021  11.987  0.1071 -0.1757 -0.6590
 2843TIP3   OH230019   6.141   1.562  14.597 -0.3569 -0.1912  0.2857
 2843TIP3    H130020   6.112   1.598  14.681 -1.8105  1.0947 -0.7082
 2843TIP3    H230021   6.233   1.588  14.591 -0.7699  1.5114  0.6071
 2844TIP3   OH230022   6.883   1.791  11.116 -0.4406  0.4764 -0.2493
 2844TIP3    H130023   6.976   1.807  11.132  0.0919 -2.1447 -0.2210
 2844TIP3    H230024   6.876   1.782  11.021 -0.6405  0.5202 -0.2398
 2845TIP3   OH230025   4.615   2.811  15.114 -0.3281  0.2660  0.2607
 2845TIP3    H130026   4.559   2.801  15.192  0.9945 -0.8966  1.0959
 2845TIP3    H230027   4.673   2.884  15.136 -1.0193  1.0229 -0.3362
 2846TIP3   OH230028   7.121   1.027   4.488  0.0098 -0.4847  0.9256
 2846TIP3    H130029   7.162   1.113   4.488  0.0430 -0.4585 -0.8208
 2846TIP3    H230030   7.190   0.968   4.458 -0.8230 -0.6249 -0.8470
 2847TIP3   OH230031   3.383   5.788  10.270  0.0290  0.1279  0.6921
 2847TIP3    H130032   3.391   5.752  10.182  0.1328 -0.7562  1.0481
 2847TIP3    H230033   3.323   5.862  10.261 -0.0790 -0.0470 -0.0893
 2848TIP3   OH230034   2.571   2.530  13.185  0.4592  0.2724  0.2883
 2848TIP3    H130035   2.562   2.472  13.109 -1.4440  0.2049  0.5202
 2848TIP3    H230036   2.567   2.472  13.260 -1.4627  0.6560  0.5250
 2849TIP3   OH230037   6.098   2.592  13.253  0.1020  0.1460  0.8202
 2849TIP3    H130038   6.163   2.525  13.232 -1.0431 -0.5110 -0.8467
 2849TIP3    H230039   6.144   2.675  13.241  0.5960 -0.2990 -0.5738
 2850TIP3   OH230040   5.764   5.655  13.856  0.2534 -0.1830  0.1634
 2850TIP3    H130041   5.831   5.587  13.859  0.5032  0.0788  0.7849
 2850TIP3    H230042   5.707   5.630  13.784 -0.1552 -1.5136  0.9100
 2851TIP3   OH230043   5.603   1.716  12.653  0.3647  0.2031 -0.4489
 2851TIP3    H130044   5.548   1.794  12.638  0.9367  1.0186  1.4502
 2851TIP3    H230045   5.691   1.744  12.630  0.1412 -1.0111 -3.1731
 2852TIP3   OH230046   6.204   3.406  11.939 -0.3118 -0.5698 -0.1886
 2852TIP3    H130047   6.270   3.465  11.903 -0.0929 -1.4686 -1.3029
 2852TIP3    H230048   6.157   3.459  12.003 -0.4460  0.9721 -1.5005
 2853TIP3   OH230049   0.191   4.190  11.878  0.2530  0.1246  0.7467
 2853TIP3    H130050   0.171   4.279  11.907 -2.1391  0.2464 -0.9075
 2853TIP3    H230051   0.183   4.194  11.783  0.1452 -1.8328  0.6373
 2854TIP3   OH230052   6.410   1.223  13.875  0.1677  0.1001 -0.4808
 2854TIP3    H130053   6.487   1.173  13.902  0.7777  0.3295 -1.7000
 2854TIP3    H230054   6.356   1.229  13.953  0.1283 -2.3638 -0.2259
 2855TIP3   OH230055   2.125   2.026  10.641  0.0898  0.1282  0.0691
 2855TIP3    H130056   2.106   2.005  10.732  3.6563  0.7979  1.1269
 2855TIP3    H230057   2.176   1.952  10.609 -0.6845  0.1378 -1.2726
 2856TIP3   OH230058   5.395   5.055  12.435 -0.1710  0.1518 -0.3701
 2856TIP3    H130059   5.472   5.008  12.468 -1.1442 -1.7018 -0.5773
 2856TIP3    H230060   5.333   4.986  12.412 -0.7640  1.4595 -3.1173
 2857TIP3   OH230061   5.624   2.209   0.551  0.4443 -0.0936 -0.6093
 2857TIP3    H130062   5.710   2.210   0.508 -0.4438 -0.9846 -2.5113
 2857TIP3    H230063   5.563   2.187   0.481 -1.2080 -0.6901  0.9665
 2858TIP3   OH230064   4.526   2.411  11.625  0.2540 -0.7369 -0.0023
 2858TIP3    H130065   4.548   2.504  11.630 -1.9324 -0.0671 -1.2474
 2858TIP3    H230066   4.440   2.405  11.667  0.6687 -2.3526  0.6942
 2859TIP3   OH230067   1.259   1.007  10.760 -0.3619  0.2775  0.2065
 2859TIP3    H130068   1.279   0.922  10.721 -0.8969  0.0913  0.3352
 2859TIP3    H230069   1.318   1.014  10.835  1.6577  1.2238 -1.3761
 2860TIP3   OH230070   4.566   2.328  10.402 -0.2829  0.0971  0.4643
 2860TIP3    H130071   4.508   2.389  10.447  1.2972  1.9971  0.0940
 2860TIP3    H230072   4.637   2.311  10.465  0.0404 -0.1800  0.0332
 2861TIP3   OH230073   6.127   6.628  11.634 -0.3572  0.8376  0.1685
 2861TIP3    H130074   6.213   6.668  11.637 -0.2764  1.2500 -3.2653
 2861TIP3    H230075   6.144   6.538  11.605 -1.0149  0.4458  0.9502
 2862TIP3   OH230076   3.996   1.430   2.777  0.1049  0.0896  0.2352
 2862TIP3    H130077   4.076   1.481   2.765  0.3225 -0.3922 -0.3563
 2862TIP3    H230078   3.936   1.462   2.709 -0.3517  0.7156  0.9096
 2863TIP3   OH230079   5.723   4.084  11.848  0.2847 -0.3443 -0.2353
 2863TIP3    H130080   5.705   4.075  11.942 -1.5193 -1.7003 -0.6658
 2863TIP3    H230081   5.814   4.054  11.838 -0.7513 -4.2895  0.5685
 2864TIP3   OH230082   2.592   4.230   9.807  0.0735  0.2243 -0.2347
 2864TIP3    H130083   2.636   4.314   9.823 -0.7073  0.9689 -1.7496
 2864TIP3    H230084   2.652   4.182   9.750  1.1597 -0.8808  1.7370
 2865TIP3   OH230085   5.318   4.124  14.582  0.7520 -0.3515  0.5408
 2865TIP3    H130086   5.332   4.127  14.677 -0.6140  0.6074  0.7399
 2865TIP3    H230087   5.355   4.206  14.550  1.2532 -0.6953  0.2246
 2866TIP3   OH230088   2.579   5.131  11.176 -0.0086 -0.3612  0.0393
 2866TIP3    H130089   2.501   5.109  11.125 -1.2060  0.1699  1.5486
 2866TIP3    H230090   2.557   5.213  11.219  0.9058 -0.8257  1.4643
 2867TIP3   OH230091   3.196   7.006  14.506  0.0788  0.4832  0.0373
 2867TIP3    H130092   3.287   7.024  14.529  1.1901 -4.0853  0.1466
 2867TIP3    H230093   3.201   6.964  14.420 -2.0343  0.6975 -0.2409
 2868TIP3   OH230094   5.192   6.991  12.887 -0.4609  0.7976 -0.1962
 2868TIP3    H130095   5.175   6.914  12.833 -0.9735  0.1989  0.7774
 2868TIP3    H230096   5.287   6.990  12.901 -0.2094  1.4006 -1.6814
 2869TIP3   OH230097   1.962   7.019  11.725 -0.8400 -0.1635  0.6492
 2869TIP3    H130098   2.030   7.082  11.702 -1.8948 -0.1539 -2.8882
 2869TIP3    H230099   2.005   6.934  11.721 -1.3368 -0.4348 -4.2198
 2870TIP3   OH230100   2.291   3.655  11.431  0.7771  0.5508 -0.3404
 2870TIP3    H130101   2.363   3.716  11.448  1.7309 -0.4776 -0.5595
 2870TIP3    H230102   2.329   3.590  11.372  0.1268 -0.8629  0.7520
 2871TIP3   OH230103   7.069   1.629  11.897  0.1201  0.1905  0.4485
 2871TIP3    H130104   7.015   1.612  11.819  2.3357  0.4798 -1.2789
 2871TIP3    H230105   7.057   1.722  11.915  1.1553  0.6477 -0.9414
 2872TIP3   OH230106   4.120   1.137  11.446 -0.3016 -0.5155  0.1008
 2872TIP3    H130107   4.141   1.054  11.489 -0.5002  0.0456  1.3207
 2872TIP3    H230108   4.201   1.162  11.401 -0.1540 -1.2157 -0.0338
 2873TIP3   OH230109   6.648   5.115  10.851 -0.3312  0.2149 -0.2301
 2873TIP3    H130110   6.707   5.100  10.777 -2.1063 -0.5587 -1.5395
 2873TIP3    H230111   6.574   5.162  10.814 -1.4553 -0.5502  0.9709
 2874TIP3   OH230112   0.075   4.710  13.636  0.1291 -1.0549  0.3162
 2874TIP3    H130113  -0.014   4.735  13.612  0.1138  1.6814  2.6228
 2874TIP3    H230114   0.131   4.765  13.581  0.1353  1.9690  2.9909
 2875TIP3   OH230115   2.125   6.302  10.631  0.3523 -0.4997 -0.1637
 2875TIP3    H130116   2.167   6.356  10.564 -0.1843 -0.6685 -0.6460
 2875TIP3    H230117   2.039   6.280  10.594 -0.8161  1.0772  1.4002
 2876TIP3   OH230118   0.350   6.406  12.099 -0.1288  0.4120 -0.3990
 2876TIP3    H130119   0.373   6.389  12.007  1.5501  1.7088 -0.2454
 2876TIP3    H230120   0.351   6.319  12.140  2.2298  0.1314 -0.9414
 2877TIP3   OH230121   2.655   3.596  14.716  0.5411 -0.4350 -0.1451
 2877TIP3    H130122   2.721   3.665  14.702  0.0711 -0.1532 -1.0155
 2877TIP3    H230123   2.593   3.607  14.644 -0.7448 -0.3733  0.9334
 2878TIP3   OH230124   3.718   1.137   5.039  0.1417 -0.5272  0.5356
 2878TIP3    H130125   3.744   1.188   5.116 -0.7979 -1.2139  1.3261
 2878TIP3    H230126   3.775   1.169   4.969 -0.0078  1.1833  1.1472
 2879TIP3   OH230127   1.825   5.585  14.360  0.4763 -0.7720 -0.1062
 2879TIP3    H130128   1.805   5.661  14.307  0.6015 -0.2427  0.5948
 2879TIP3    H230129   1.916   5.564  14.337  1.0038  0.3047  0.8985
 2880TIP3   OH230130   3.255   0.683  14.286 -0.2233  0.0302 -0.1177
 2880TIP3    H130131   3.252   0.613  14.351  1.3218  1.5903  1.7610
 2880TIP3    H230132   3.315   0.748  14.323  0.2731  1.2908 -2.8556
 2881TIP3   OH230133   0.654   1.123   9.549  0.6401 -0.4723  0.1181
 2881TIP3    H130134   0.634   1.178   9.625  0.2140 -0.0060 -0.3212
 2881TIP3    H230135   0.749   1.124   9.544  0.6641 -0.3409  0.5244
 2882TIP3   OH230136   5.579   5.918  10.312 -0.5465  0.0844  0.1001
 2882TIP3    H130137   5.513   5.974  10.352  0.1507  0.2390  1.0797
 2882TIP3    H230138   5.565   5.927  10.218 -1.3036  0.8475  0.2770
 2883TIP3   OH230139   0.154   1.768   1.251 -0.0339 -0.0413  0.6965
 2883TIP3    H130140   0.177   1.767   1.158  0.0075 -0.6522  0.7100
 2883TIP3    H230141   0.131   1.859   1.269 -2.5188 -0.3363 -0.5219
 2884TIP3   OH230142   1.721   2.474  12.838 -0.5955  0.1047 -0.2131
 2884TIP3    H130143   1.742   2.395  12.787 -1.9517 -0.5775  0.2618
 2884TIP3    H230144   1.633   2.459  12.872 -0.2151  1.0918  1.3149
 2885TIP3   OH230145   4.432   6.024  10.063 -0.2092 -0.0152  0.0945
 2885TIP3    H130146   4.439   5.929  10.051  0.2422 -0.0558  0.6479
 2885TIP3    H230147   4.342   6.037  10.094  0.2402 -0.4629  1.7042
 2886TIP3   OH230148   1.613   5.717  11.143 -0.5625 -0.0925 -0.4048
 2886TIP3    H130149   1.679   5.731  11.210 -0.6885  1.6866 -0.5879
 2886TIP3    H230150   1.661   5.689  11.065 -0.1475  0.1072 -0.2183
 2887TIP3   OH230151   5.185   6.375  13.287 -0.3904  0.1772  0.9089
 2887TIP3    H130152   5.207   6.307  13.223 -1.0740 -0.4443  1.3066
 2887TIP3    H230153   5.253   6.367  13.354  0.5058  1.0348  0.1435
 2888TIP3   OH230154   3.293   5.864   9.623  0.2111 -0.2283  0.0464
 2888TIP3    H130155   3.299   5.793   9.687  2.1407  1.4432  1.8625
 2888TIP3    H230156   3.229   5.925   9.661  1.0309  0.5565  0.1950
 2889TIP3   OH230157   2.612   6.016   2.918 -0.7723 -0.3298 -0.5624
 2889TIP3    H130158   2.674   6.021   2.845 -0.9682 -0.0450 -0.7125
 2889TIP3    H230159   2.664   6.036   2.996 -0.6736 -0.1015 -0.6858
 2890TIP3   OH230160   4.054   4.576  10.076  0.5415  0.3631 -0.0803
 2890TIP3    H130161   3.972   4.528  10.064 -0.8129  2.5573 -0.0757
 2890TIP3    H230162   4.089   4.543  10.159  0.9645 -2.3196 -1.2298
 2891TIP3   OH230163   6.112   3.572   9.693 -0.3782 -0.2011 -0.2158
 2891TIP3    H130164   6.203   3.566   9.722 -0.2627  0.2037 -0.4925
 2891TIP3    H230165   6.072   3.633   9.754 -0.3657 -0.0765 -0.3308
 2892TIP3   OH230166   6.403   4.121  14.789 -0.6012  0.1698 -0.1477
 2892TIP3    H130167   6.391   4.030  14.763 -1.1865 -0.2617  1.5176
 2892TIP3    H230168   6.496   4.128  14.812 -0.8447 -0.4098  1.0882
 2893TIP3   OH230169   2.579   6.381  10.268  0.1288  0.0781  0.3193
 2893TIP3    H130170   2.661   6.410  10.228  0.6273  0.1196  1.3249
 2893TIP3    H230171   2.571   6.289  10.243  0.5834  0.0218  0.3587
 2894TIP3   OH230172   2.819   2.206  13.028  0.0345 -0.6964  0.1403
 2894TIP3    H130173   2.894   2.208  12.969  0.6556  0.9902  0.9321
 2894TIP3    H230174   2.829   2.124  13.076 -0.6542 -2.2873 -2.2158
 2895TIP3   OH230175   1.305   5.719  13.508 -0.3439  0.1164  0.0455
 2895TIP3    H130176   1.393   5.701  13.476  0.6904 -0.1564  2.7517
 2895TIP3    H230177   1.265   5.632  13.519 -1.0307  0.2424 -1.2701
 2896TIP3   OH230178   0.588   0.071  11.930 -0.2858 -0.1066 -0.5221
 2896TIP3    H130179   0.601   0.103  11.840  1.3466  1.5230  0.2357
 2896TIP3    H230180   0.504   0.025  11.927 -0.0876 -0.4531 -2.9649
 2897TIP3   OH230181   2.172   2.847   1.161 -0.2771 -0.7058 -0.1350
 2897TIP3    H130182   2.120   2.784   1.212 -0.2324 -2.2266 -1.8960
 2897TIP3    H230183   2.106   2.901   1.117 -0.3871 -1.8636 -1.4302
 2898TIP3   OH230184   3.623   5.979   9.340  0.3907 -0.3777 -0.1464
 2898TIP3    H130185   3.649   6.004   9.251  1.3183  0.2469  0.2910
 2898TIP3    H230186   3.550   5.918   9.327  0.4620 -0.2329 -1.3318
 2899TIP3   OH230187   3.051   2.173  13.764 -0.0357  0.2818 -0.1565
 2899TIP3    H130188   3.108   2.211  13.831  0.0663  0.1510 -0.1670
 2899TIP3    H230189   2.968   2.218  13.774  0.1082  0.5660 -0.2235
 2900TIP3   OH230190   3.277   5.999  12.444 -0.1085 -0.0264 -0.6122
 2900TIP3    H130191   3.314   6.031  12.361 -0.0532  1.2646 -0.1088
 2900TIP3    H230192   3.188   5.973  12.422 -0.6332  1.7978 -0.7854
 2901TIP3   OH230193   4.140   6.149  11.510  0.2710 -0.2156 -0.1905
 2901TIP3    H130194   4.138   6.241  11.483 -0.5848 -0.1614  0.0158
 2901TIP3    H230195   4.112   6.150  11.602 -1.1515 -0.8015 -0.5889
 2902TIP3   OH230196   0.557   5.842  10.950  0.3730 -0.1495 -0.3111
 2902TIP3    H130197   0.652   5.850  10.954  0.3636  0.0984 -0.6065
 2902TIP3    H230198   0.529   5.912  10.892  0.1292 -1.1275 -1.4023
 2903TIP3   OH230199   1.622   4.073  10.828 -0.0701  0.0596 -0.0276
 2903TIP3    H130200   1.569   4.152  10.845  1.2516  1.1678 -0.8127
 2903TIP3    H230201   1.712   4.101  10.846  0.4596 -1.1864 -0.6497
 2904TIP3   OH230202   0.123   4.531  12.355 -0.6245 -0.0990 -0.1725
 2904TIP3    H130203   0.096   4.618  12.324 -0.5815 -0.1998 -0.4956
 2904TIP3    H230204   0.059   4.509  12.423 -0.5726  0.2305 -0.0166
 2905TIP3   OH230205   3.280   7.184   0.915 -0.4749  0.3124  0.0383
 2905TIP3    H130206   3.199   7.190   0.863 -0.3490 -2.2193 -0.5603
 2905TIP3    H230207   3.257   7.125   0.987  1.0924 -1.2510 -0.6998
 2906TIP3   OH230208   6.400   2.259  10.895  0.4074  0.2438  0.0272
 2906TIP3    H130209   6.449   2.275  10.815 -0.4189 -1.0757 -0.7854
 2906TIP3    H230210   6.401   2.343  10.941  2.4131  0.5620 -0.4917
 2907TIP3   OH230211   0.147   4.634  10.783 -0.0758 -0.3651 -0.2507
 2907TIP3    H130212   0.204   4.697  10.829 -0.0360  0.3093 -1.1859
 2907TIP3    H230213   0.207   4.584  10.727 -0.3125 -0.0768 -0.7720
 2908TIP3   OH230214   6.965   1.611  14.555  0.3799 -0.5057  0.1286
 2908TIP3    H130215   6.944   1.617  14.462 -1.2504 -0.6591  0.4521
 2908TIP3    H230216   6.957   1.701  14.588  3.3052  0.0103 -0.2730
 2909TIP3   OH230217   5.038   2.016  14.334 -0.0436  0.3235 -0.5744
 2909TIP3    H130218   5.109   1.952  14.324 -0.4699 -0.0019 -1.5629
 2909TIP3    H230219   5.083   2.100  14.340  0.6743 -0.1307  2.6339
 2910TIP3   OH230220   3.300   0.750   9.623 -0.0395 -0.4379 -0.0241
 2910TIP3    H130221   3.394   0.738   9.635 -0.1306 -0.1606  1.1139
 2910TIP3    H230222   3.288   0.845   9.621 -0.2949 -0.4730 -0.1015
 2911TIP3   OH230223   6.919   1.062  14.894  0.4429  0.2450 -0.2060
 2911TIP3    H130224   6.952   0.989  14.947  0.4705  0.4443  0.0550
 2911TIP3    H230225   6.995   1.095  14.847  0.7328  1.0235  0.7751
 2912TIP3   OH230226   1.018   2.220   9.859  0.0045 -0.4038 -0.6317
 2912TIP3    H130227   0.958   2.287   9.826  2.3443  1.6114 -1.0849
 2912TIP3    H230228   1.088   2.215   9.794  2.0452 -0.1850  1.3838
 2913TIP3   OH230229   0.843   1.226  14.635 -0.2164  0.6442  0.0589
 2913TIP3    H130230   0.828   1.293  14.569  0.5584  0.6386 -0.1314
 2913TIP3    H230231   0.757   1.187  14.649 -1.1969  3.1706  1.8481
 2914TIP3   OH230232   2.633   5.989  12.034  0.3258 -0.2582 -0.4799
 2914TIP3    H130233   2.570   6.017  12.101  1.5091  2.3913 -0.3631
 2914TIP3    H230234   2.688   5.924  12.078 -1.0463 -1.1338  0.0082
 2915TIP3   OH230235   4.154   7.194  13.687  0.2315  0.0078  0.1363
 2915TIP3    H130236   4.139   7.198  13.782 -0.2039  1.6445  0.0317
 2915TIP3    H230237   4.084   7.137  13.654  0.1836 -0.3058  0.7674
 2916TIP3   OH230238   1.507   4.823  11.672  0.1698  0.6349 -0.2953
 2916TIP3    H130239   1.442   4.873  11.623 -1.0855 -3.0306 -2.8275
 2916TIP3    H230240   1.456   4.759  11.721  1.7686 -0.1145  0.4583
 2917TIP3   OH230241   3.859   2.592  13.223 -0.1426  0.2088  0.0020
 2917TIP3    H130242   3.767   2.569  13.236 -0.3740  0.3694 -1.2560
 2917TIP3    H230243   3.861   2.640  13.140  1.3115 -1.3055 -0.8955
 2918TIP3   OH230244   1.668   1.756  12.307 -0.5167  0.4959  0.0609
 2918TIP3    H130245   1.649   1.774  12.399 -1.7021  0.4406 -0.1518
 2918TIP3    H230246   1.582   1.760  12.264 -0.6284 -3.1718 -0.4061
 2919TIP3   OH230247   2.938   0.055  11.609  0.0343 -0.0253 -0.6389
 2919TIP3    H130248   2.842   0.052  11.617  0.1752 -0.1134  4.4204
 2919TIP3    H230249   2.961  -0.025  11.561 -2.3533 -0.3401 -1.4080
 2920TIP3   OH230250   3.132   5.999  13.145 -0.6651 -0.0596  0.1448
 2920TIP3    H130251   3.052   6.044  13.173  0.1875  2.0989 -0.6230
 2920TIP3    H230252   3.141   5.926  13.206 -3.3605 -0.5707  0.0625
 2921TIP3   OH230253   5.665   6.333  13.038 -0.4328 -0.0810  0.2104
 2921TIP3    H130254   5.598   6.283  12.990 -1.8530  1.7787  0.1360
 2921TIP3    H230255   5.649   6.313  13.130 -0.0456 -0.8558  0.1188
 2922TIP3   OH230256   2.701   3.969  11.346  0.1634  0.1362  0.4451
 2922TIP3    H130257   2.765   4.027  11.387 -0.1031 -0.1773  1.3345
 2922TIP3    H230258   2.684   4.008  11.260  0.7776  0.7800  0.6095
 2923TIP3   OH230259   0.052   2.120  10.297  0.0235 -0.2887 -0.5076
 2923TIP3    H130260   0.135   2.149  10.260  0.1171  0.4459  0.2549
 2923TIP3    H230261   0.045   2.028  10.272  1.7405 -0.7542  0.6328
 2924TIP3   OH230262   5.215   1.709  13.341  0.2545  0.2823 -0.4384
 2924TIP3    H130263   5.291   1.678  13.391  0.9435  1.0078 -0.9973
 2924TIP3    H230264   5.160   1.754  13.405 -1.5450 -3.2251  0.7349
 2925TIP3   OH230265   2.296   4.293  13.497  0.7232 -0.3970 -0.4434
 2925TIP3    H130266   2.321   4.349  13.570 -0.3968 -0.3834 -0.0421
 2925TIP3    H230267   2.322   4.343  13.419  2.4762 -0.6914 -0.0686
 2926TIP3   OH230268   3.824   4.575  11.078 -0.0665  0.4842 -0.4944
 2926TIP3    H130269   3.912   4.612  11.074  0.8134 -1.1656  1.4554
 2926TIP3    H230270   3.831   4.492  11.031 -0.4474  0.1735 -0.0173
 2927TIP3   OH230271   5.003   0.562  10.090  0.2211  0.0914 -0.9786
 2927TIP3    H130272   5.055   0.482  10.085  0.4957 -0.0590  2.3821
 2927TIP3    H230273   4.913   0.534  10.072 -0.0659 -1.5381  2.3750
 2928TIP3   OH230274   5.134   3.288   0.017  0.6879 -0.1703 -0.4191
 2928TIP3    H130275   5.220   3.322   0.042 -0.5890  1.6964  1.8995
 2928TIP3    H230276   5.115   3.223   0.085  0.5748 -1.1951 -1.4069
 2929TIP3   OH230277   0.702   3.006  10.845  0.1548 -0.2822  0.1721
 2929TIP3    H130278   0.797   3.015  10.845 -0.0445  2.2923  0.1747
 2929TIP3    H230279   0.672   3.061  10.773 -1.4101  0.1373  1.1034
 2930TIP3   OH230280   1.642   1.390  14.396  0.0055  0.1046 -0.3091
 2930TIP3    H130281   1.576   1.453  14.425  0.3493  0.8751 -1.1410
 2930TIP3    H230282   1.719   1.443  14.376  1.1858 -0.8487  1.3938
 2931TIP3   OH230283   5.399   4.576  11.434 -0.0002 -0.0374  0.1383
 2931TIP3    H130284   5.450   4.652  11.404  2.1890 -1.5766 -0.2896
 2931TIP3    H230285   5.460   4.503  11.430 -1.8963 -1.7765  0.9897
 2932TIP3   OH230286   1.717   2.463  10.499 -0.4328 -0.1682  0.5157
 2932TIP3    H130287   1.793   2.431  10.547 -0.0210  0.9074  0.6004
 2932TIP3    H230288   1.753   2.526  10.437 -1.1300 -0.4777 -0.2226
 2933TIP3   OH230289   0.882   1.793  13.508 -0.4695  0.7232 -0.4670
 2933TIP3    H130290   0.898   1.805  13.415 -3.1864 -0.9629 -1.2583
 2933TIP3    H230291   0.787   1.786  13.516 -0.2782 -0.0114  2.3226
 2934TIP3   OH230292   4.918   5.451  13.544  0.1418  0.1906 -0.5069
 2934TIP3    H130293   4.885   5.540  13.534  1.2523  0.4809 -1.9639
 2934TIP3    H230294   4.889   5.424  13.631  1.7175  2.8399  0.9722
 2935TIP3   OH230295   0.808   7.027   9.272 -0.3266 -0.6598 -0.0752
 2935TIP3    H130296   0.875   6.988   9.327 -0.1311 -0.4889 -0.1933
 2935TIP3    H230297   0.754   7.078   9.332  0.4409  0.2973 -0.1669
 2936TIP3   OH230298   6.486   3.781  13.022 -0.2363  0.0431 -0.2010
 2936TIP3    H130299   6.460   3.814  13.108 -0.6740 -0.9345  0.0541
 2936TIP3    H230300   6.455   3.690  13.020 -1.9114  0.5728 -2.1227
 2937TIP3   OH230301   1.642   0.139  11.337  0.2182 -0.0743 -0.5214
 2937TIP3    H130302   1.682   0.067  11.289  0.7626 -1.0759  1.3516
 2937TIP3    H230303   1.549   0.136  11.313 -0.7386 -4.2193  2.6455
 2938TIP3   OH230304   3.025   2.073  11.795  0.0687  0.2026 -0.0198
 2938TIP3    H130305   2.992   2.119  11.872 -1.0209  1.1931 -1.0300
 2938TIP3    H230306   3.038   1.983  11.824  1.7773  0.9952  1.8895
 2939TIP3   OH230307   4.402   1.916   2.603 -0.6073 -0.4115  0.3015
 2939TIP3    H130308   4.422   1.972   2.678 -0.9396 -2.1005  1.7298
 2939TIP3    H230309   4.322   1.953   2.567  0.6948  1.7030 -0.6097
 2940TIP3   OH230310   4.609   3.013  11.305  0.4665  0.7547  0.2491
 2940TIP3    H130311   4.699   3.015  11.338  0.9085 -0.7347 -0.7358
 2940TIP3    H230312   4.566   3.087  11.347  1.6801  0.4714  2.1038
 2941TIP3   OH230313   4.789   0.945  10.991  0.2966  0.2256  0.0714
 2941TIP3    H130314   4.813   1.037  10.995 -0.1927  0.3332  0.6151
 2941TIP3    H230315   4.760   0.923  11.080  1.3152 -0.7081  0.2083
 2942TIP3   OH230316   4.547   5.461  12.377  0.0257  0.0028  0.4283
 2942TIP3    H130317   4.604   5.514  12.433 -0.6805  1.2297  0.0235
 2942TIP3    H230318   4.606   5.419  12.315  0.9476 -2.1291  2.5796
 2943TIP3   OH230319   7.059   0.869  12.901 -0.5639 -0.3130 -0.4386
 2943TIP3    H130320   7.037   0.940  12.840 -0.9459 -0.2005 -0.1693
 2943TIP3    H230321   7.116   0.911  12.966  1.3982 -0.8226 -1.7084
 2944TIP3   OH230322   2.820   5.095  10.909  0.4111  0.4424 -0.3615
 2944TIP3    H130323   2.853   5.182  10.930  0.0262  0.7108 -0.8598
 2944TIP3    H230324   2.899   5.040  10.906  1.0085  1.3001 -2.7079
 2945TIP3   OH230325   5.647   3.387  13.807  0.3506 -0.1725  0.4603
 2945TIP3    H130326   5.615   3.443  13.877  2.4736  0.5697  0.8912
 2945TIP3    H230327   5.607   3.423  13.727 -3.1653 -1.8308  1.2923
 2946TIP3   OH230328   0.126   5.408  13.545 -0.6759 -0.2478  0.2664
 2946TIP3    H130329   0.046   5.458  13.531 -0.3832  0.1922  0.1469
 2946TIP3    H230330   0.148   5.374  13.458 -0.5889 -0.1535  0.2525
 2947TIP3   OH230331   0.728   6.032  11.545  0.3613  0.8039 -0.3840
 2947TIP3    H130332   0.771   6.009  11.462 -0.3043  2.4163 -1.2403
 2947TIP3    H230333   0.775   5.982  11.611 -0.1966 -1.8995 -1.8931
 2948TIP3   OH230334   5.977   1.955  11.695 -0.2279 -0.2197  0.7125
 2948TIP3    H130335   5.942   1.895  11.760 -0.4509 -0.1055  0.6986
 2948TIP3    H230336   5.967   1.909  11.612  1.6655 -1.1025  0.9302
 2949TIP3   OH230337   4.672   3.878  14.273  0.1664 -0.1487 -0.9236
 2949TIP3    H130338   4.613   3.940  14.230 -0.9533  0.3935  1.2604
 2949TIP3    H230339   4.629   3.793  14.262 -1.4004  0.3055  1.0963
 2950TIP3   OH230340   0.293   6.337  13.832  0.0101  0.3210 -0.0208
 2950TIP3    H130341   0.369   6.349  13.888 -0.3628  1.0651  0.3299
 2950TIP3    H230342   0.218   6.350  13.889 -0.3990 -1.0315 -0.2241
 2951TIP3   OH230343   1.426   4.661  10.201 -0.1551 -0.2408 -0.1550
 2951TIP3    H130344   1.392   4.710  10.126  0.6376  1.1421  0.3406
 2951TIP3    H230345   1.485   4.596  10.164 -1.3582 -0.9528 -0.8494
 2952TIP3   OH230346   3.300   4.897  11.800 -0.2801  0.2517 -0.6659
 2952TIP3    H130347   3.316   4.990  11.814 -1.7389  0.7671 -2.0647
 2952TIP3    H230348   3.376   4.866  11.750 -0.3425  0.9727 -1.2166
 2953TIP3   OH230349   5.612   5.006   9.545 -0.4935  0.3288  0.2959
 2953TIP3    H130350   5.575   4.965   9.466  1.1690  0.2975 -0.5104
 2953TIP3    H230351   5.625   4.933   9.605 -0.4828  0.1469  0.0751
 2954TIP3   OH230352   0.610   4.426  11.266  0.0902 -0.3844  0.6711
 2954TIP3    H130353   0.700   4.444  11.240 -0.0220 -0.3663  0.2859
 2954TIP3    H230354   0.560   4.431  11.185 -0.3335  0.0829  0.9530
 2955TIP3   OH230355   6.659   3.203  15.046 -0.3878  0.3325 -0.1554
 2955TIP3    H130356   6.622   3.180  14.961 -1.0565 -0.9221  0.4496
 2955TIP3    H230357   6.586   3.190  15.108  0.4168  0.0753  0.7553
 2956TIP3   OH230358   4.182   1.698  13.697 -0.0148 -0.0584 -0.0081
 2956TIP3    H130359   4.222   1.614  13.718  2.0606  1.0089  0.6080
 2956TIP3    H230360   4.175   1.743  13.782 -0.9340  0.4687 -0.3498
 2957TIP3   OH230361   5.455   0.457  10.364 -0.1870 -0.1477 -0.2396
 2957TIP3    H130362   5.521   0.387  10.366 -0.3070 -0.2524  0.9180
 2957TIP3    H230363   5.430   0.463  10.272 -0.3790 -1.8353 -0.3359
 2958TIP3   OH230364   0.552   7.086   9.833  0.4749  0.0097 -0.5632
 2958TIP3    H130365   0.631   7.072   9.780  2.0831  2.3155  1.0086
 2958TIP3    H230366   0.517   7.169   9.802 -0.4498 -0.2175 -0.1608
 2959TIP3   OH230367   3.667   2.592  12.423  0.7565 -0.3312 -0.0880
 2959TIP3    H130368   3.757   2.583  12.453  0.8757  2.3528  0.6811
 2959TIP3    H230369   3.646   2.685  12.439 -2.0197 -0.7874 -0.5544
 2960TIP3   OH230370   3.185   4.902  12.045 -0.2085 -0.0149 -0.0548
 2960TIP3    H130371   3.225   4.864  11.967 -1.5159 -0.4334 -0.5591
 2960TIP3    H230372   3.169   4.826  12.102 -0.1537  0.1580  0.1883
 2961TIP3   OH230373   7.194   2.297  15.062 -0.0876  0.6355 -0.4446
 2961TIP3    H130374   7.193   2.325  15.153 -1.2731 -1.9783  0.4451
 2961TIP3    H230375   7.156   2.209  15.063 -0.6658  0.7206 -3.5436
 2962TIP3   OH230376   6.140   6.213  14.323 -0.3803  0.1957  0.2311
 2962TIP3    H130377   6.065   6.227  14.382  0.5282  1.3707  1.1613
 2962TIP3    H230378   6.115   6.136  14.271 -1.6544 -0.2633  1.4417
 2963TIP3   OH230379   2.007   6.571  12.916  0.4371 -0.0294  0.2786
 2963TIP3    H130380   1.943   6.508  12.883  0.2837  0.5744 -0.6155
 2963TIP3    H230381   2.010   6.555  13.010  1.8182 -2.6989 -0.0991
 2964TIP3   OH230382   4.509   4.744  14.670  0.4204  0.5820  0.6133
 2964TIP3    H130383   4.574   4.685  14.631  0.7921  1.7322 -0.5626
 2964TIP3    H230384   4.528   4.830  14.632  0.2220  1.5983  2.6626
 2965TIP3   OH230385   4.906   4.481  10.914 -0.2529  0.6147  0.2609
 2965TIP3    H130386   4.987   4.437  10.888 -0.0315  0.0202  1.8417
 2965TIP3    H230387   4.858   4.493  10.832  0.5574 -0.8314 -0.4708
 2966TIP3   OH230388   1.127   6.395  10.216  0.1692  0.0797 -0.2914
 2966TIP3    H130389   1.204   6.371  10.164 -0.7580 -0.3987 -1.5051
 2966TIP3    H230390   1.126   6.491  10.215 -0.2439  0.0914 -1.8553
 2967TIP3   OH230391   1.206   0.274  12.128  0.2769  0.1411  0.3822
 2967TIP3    H130392   1.259   0.339  12.083 -0.2275  1.1476  1.1893
 2967TIP3    H230393   1.126   0.321  12.153  0.2019 -0.5828  1.6000
 2968TIP3   OH230394   6.279   4.946   9.521 -0.4038 -0.4769  0.0174
 2968TIP3    H130395   6.371   4.963   9.541 -0.5788  0.7174 -0.1230
 2968TIP3    H230396   6.274   4.948   9.426 -0.3186 -2.0768 -0.0501
 2969TIP3   OH230397   0.095   0.841   0.177  0.6882 -0.1208 -1.2721
 2969TIP3    H130398   0.026   0.882   0.229  1.7275  0.2148 -0.1274
 2969TIP3    H230399   0.154   0.802   0.241  1.3104 -0.8326 -2.2507
 2970TIP3   OH230400   5.222   3.109  12.855 -0.2561 -0.1532  0.2415
 2970TIP3    H130401   5.172   3.122  12.774 -0.7256  0.0521  0.5638
 2970TIP3    H230402   5.266   3.193  12.869 -0.3285 -0.1262  0.3052
 2971TIP3   OH230403   0.544   0.598  11.939  0.4214  0.1155  0.9377
 2971TIP3    H130404   0.510   0.679  11.902 -1.5511 -0.5177  1.2205
 2971TIP3    H230405   0.626   0.583  11.894  0.0119  1.4210 -0.2941
 2972TIP3   OH230406   1.015   5.341  15.052  0.2935 -0.0360  0.1281
 2972TIP3    H130407   0.924   5.313  15.057  0.6149 -1.1297  0.1397
 2972TIP3    H230408   1.062   5.281  15.109  0.6763  2.2182  2.3233
 2973TIP3   OH230409   2.521   0.412  13.646 -0.9460  0.3790  0.2255
 2973TIP3    H130410   2.558   0.421  13.734 -0.1397  0.7516 -0.1496
 2973TIP3    H230411   2.559   0.331  13.613  2.1685  2.2951 -1.3768
 2974TIP3   OH230412   4.810   6.583  11.095  0.0873 -0.0839  0.4682
 2974TIP3    H130413   4.741   6.519  11.110 -0.7537  0.9221  1.0283
 2974TIP3    H230414   4.891   6.536  11.112 -0.4769 -1.1994  0.1084
 2975TIP3   OH230415   2.646   5.644  11.367  0.2549 -0.2473 -0.2369
 2975TIP3    H130416   2.556   5.627  11.392 -0.0543  0.6760 -0.6688
 2975TIP3    H230417   2.669   5.572  11.307 -1.0308  0.7793 -2.0696
 2976TIP3   OH230418   7.032   5.480  12.681  0.7084 -0.5535 -0.2492
 2976TIP3    H130419   6.951   5.527  12.660 -1.2592 -3.7204 -0.3772
 2976TIP3    H230420   7.072   5.463  12.595  0.7704 -0.2075 -0.2895
 2977TIP3   OH230421   0.250   3.717  14.561  0.2608 -0.1556 -0.2035
 2977TIP3    H130422   0.310   3.645  14.580  0.9573  0.7143  1.0179
 2977TIP3    H230423   0.269   3.740  14.470  1.7521  0.0402  0.1268
 2978TIP3   OH230424   7.124   2.209  12.686 -0.4564 -0.3483 -0.1529
 2978TIP3    H130425   7.108   2.137  12.624 -0.2524 -0.6145  0.1005
 2978TIP3    H230426   7.038   2.245  12.703 -0.6600 -1.0583  0.3443
 2979TIP3   OH230427   6.455   1.404  14.109 -0.0400 -0.1002  0.3160
 2979TIP3    H130428   6.551   1.401  14.115 -0.0925  0.3078  1.7528
 2979TIP3    H230429   6.425   1.339  14.173 -0.7396 -1.3788 -1.2437
 2980TIP3   OH230430   3.272   2.542  10.163  0.1151  0.1340 -0.2131
 2980TIP3    H130431   3.231   2.608  10.108 -0.1706  1.3302  1.3447
 2980TIP3    H230432   3.241   2.458  10.130 -2.4800  0.9381  0.0246
 2981TIP3   OH230433   2.780   1.097  10.733  0.6831 -0.6369  0.6627
 2981TIP3    H130434   2.709   1.076  10.794  0.1024 -0.4945  0.0419
 2981TIP3    H230435   2.742   1.084  10.646  1.5549 -1.0016  0.3224
 2982TIP3   OH230436   2.613   6.133  10.165  0.1756  0.1330  0.1016
 2982TIP3    H130437   2.686   6.080  10.135  0.5053  1.3630 -1.3702
 2982TIP3    H230438   2.549   6.069  10.197  0.6209 -1.1466 -1.4419
 2983TIP3   OH230439   2.378   3.320  13.134 -0.3185  0.5044 -0.3531
 2983TIP3    H130440   2.392   3.225  13.131 -0.3410  0.4952 -0.1619
 2983TIP3    H230441   2.329   3.334  13.215  1.9821  0.9646  1.0352
 2984TIP3   OH230442   4.801   3.411  11.606  0.4114 -0.6284 -0.0857
 2984TIP3    H130443   4.741   3.482  11.581 -0.6575 -0.6877  2.0907
 2984TIP3    H230444   4.887   3.453  11.611  0.7370 -0.5961 -3.5208
 2985TIP3   OH230445   5.185   6.853  10.278 -0.5119  0.5094 -0.0266
 2985TIP3    H130446   5.233   6.935  10.285 -0.2783  0.4080 -0.4296
 2985TIP3    H230447   5.197   6.811  10.364  1.8703 -0.4563 -0.7410
 2986TIP3   OH230448   6.059   4.547  12.471  0.2080  0.0622  0.1790
 2986TIP3    H130449   6.111   4.567  12.549  2.0843 -0.1178 -0.9722
 2986TIP3    H230450   6.042   4.633  12.431 -1.0076  0.1820  0.8947
 2987TIP3   OH230451   6.801   2.892  12.873 -0.7183  0.3344 -0.1855
 2987TIP3    H130452   6.894   2.900  12.890 -0.9128  0.2687  0.9937
 2987TIP3    H230453   6.759   2.925  12.952 -1.6941  0.2480 -0.6513
 2988TIP3   OH230454   1.660   2.333  10.225  0.3503  0.0145 -0.4492
 2988TIP3    H130455   1.680   2.295  10.140 -0.0931  2.3949 -1.7068
 2988TIP3    H230456   1.744   2.335  10.271  0.8917  0.0537 -1.4207
 2989TIP3   OH230457   2.537   0.462  11.886  0.3160  0.1298 -0.3728
 2989TIP3    H130458   2.470   0.524  11.855 -1.0629 -1.7201 -1.3240
 2989TIP3    H230459   2.608   0.471  11.824 -0.4640 -0.2143 -1.3406
 2990TIP3   OH230460   1.320   0.611  12.179 -0.4021  0.1396  0.6553
 2990TIP3    H130461   1.319   0.682  12.114  2.8135 -2.0967 -2.1810
 2990TIP3    H230462   1.397   0.629  12.233 -0.2510 -0.5700  0.6772
 2991TIP3   OH230463   1.519   5.783  14.595 -0.0186  0.2146  0.3188
 2991TIP3    H130464   1.481   5.860  14.638 -0.2050  0.7309 -0.7272
 2991TIP3    H230465   1.546   5.814  14.509 -0.8310 -1.0658 -0.4400
 2992TIP3   OH230466   0.359   7.035  10.276 -0.3188  0.1529 -0.3171
 2992TIP3    H130467   0.308   6.966  10.319  1.1229 -1.4249 -1.0561
 2992TIP3    H230468   0.354   7.014  10.183  1.5846 -0.0103 -0.4225
 2993TIP3   OH230469   1.116   5.021  14.366 -0.1703 -0.2330  0.2152
 2993TIP3    H130470   1.057   5.090  14.335  1.5645  1.2138 -0.0067
 2993TIP3    H230471   1.118   5.033  14.461 -0.4485 -0.4647  0.2508
 2994TIP3   OH230472   6.934   5.631  11.703 -0.2993  0.2939 -0.0361
 2994TIP3    H130473   6.993   5.673  11.640 -0.5184  1.2163  0.3542
 2994TIP3    H230474   6.877   5.702  11.733 -0.7976 -0.3274  0.5213
 2995TIP3   OH230475   3.073   2.157  10.083  0.5777 -0.2855  0.0474
 2995TIP3    H130476   3.058   2.099  10.008 -0.1085 -1.4647  1.0538
 2995TIP3    H230477   2.999   2.218  10.081  1.4147  0.7301 -1.1404
 2996TIP3   OH230478   5.812   3.385  10.853 -0.4261 -0.0489 -0.2748
 2996TIP3    H130479   5.809   3.472  10.893 -0.6753 -0.6529  1.0771
 2996TIP3    H230480   5.738   3.384  10.793 -1.0360  0.3393  0.4453
 2997TIP3   OH230481   5.738   2.528  13.164  0.3148  0.3516  0.6502
 2997TIP3    H130482   5.818   2.554  13.119  0.0453  0.7968  0.4228
 2997TIP3    H230483   5.718   2.441  13.130  0.0917  0.6989 -0.1363
 2998TIP3   OH230484   5.449   0.921  11.506 -0.6176 -0.0516 -0.0461
 2998TIP3    H130485   5.444   1.000  11.561  0.5484 -1.0800  1.6212
 2998TIP3    H230486   5.449   0.848  11.568 -0.4465 -1.3249 -1.4825
 2999TIP3   OH230487   2.857   3.107  11.858  0.3258 -0.8948 -0.2520
 2999TIP3    H130488   2.795   3.095  11.930  0.2678 -0.8530 -0.2946
 2999TIP3    H230489   2.824   3.051  11.788 -1.3703  1.2941 -1.3622
 3000TIP3   OH230490   2.013   4.757  14.877  0.3589 -0.3014 -0.3734
 3000TIP3    H130491   2.068   4.813  14.933  0.1403 -0.4592  0.0067
 3000TIP3    H230492   2.029   4.669  14.909 -2.4300 -0.1363  1.8806
 3001TIP3   OH230493   5.576   0.333   0.652 -0.5179 -0.3707 -0.0554
 3001TIP3    H130494   5.560   0.246   0.615  1.2408 -1.4788  1.5896
 3001TIP3    H230495   5.661   0.358   0.617  0.1047 -0.4313  1.3397
 3002TIP3   OH230496   4.472   4.184   9.923 -0.7399 -0.6933  0.9175
 3002TIP3    H130497   4.376   4.187   9.922 -0.9145 -2.3619  3.5029
 3002TIP3    H230498   4.497   4.245   9.993  0.0830 -0.6448  0.5988
 3003TIP3   OH230499   1.478   0.772   2.295 -0.0006  0.2971  0.4929
 3003TIP3    H130500   1.513   0.831   2.361  1.9389 -0.1728 -0.0524
 3003TIP3    H230501   1.391   0.749   2.327 -0.0761  1.9750  1.6342
 3004TIP3   OH230502   1.665   1.319  12.881  0.1825 -0.0209 -0.2524
 3004TIP3    H130503   1.616   1.390  12.838 -1.3978 -0.3171  0.9808
 3004TIP3    H230504   1.692   1.356  12.965 -2.2294 -1.3376  1.2185
 3005TIP3   OH230505   4.790   0.877  11.271 -0.0181  0.3562 -0.7170
 3005TIP3    H130506   4.882   0.900  11.280  0.8394 -2.9657  0.0671
 3005TIP3    H230507   4.782   0.790  11.310 -3.3166  0.1137 -1.6060
 3006TIP3   OH230508   5.747   3.366  13.366 -0.5830 -0.1803  0.3325
 3006TIP3    H130509   5.772   3.311  13.292  2.5202  0.1643  0.9687
 3006TIP3    H230510   5.769   3.455  13.338  2.2203 -0.2008  2.1280
 3007TIP3   OH230511   0.734   5.569  13.989  0.0427 -0.1546  0.5250
 3007TIP3    H130512   0.733   5.565  13.893  1.5057  0.4186  0.4596
 3007TIP3    H230513   0.805   5.509  14.014 -0.6304 -0.6592  1.2940
 3008TIP3   OH230514   2.655   4.734  11.206  0.4974 -0.4340 -0.2291
 3008TIP3    H130515   2.612   4.761  11.287  1.1224 -2.3516  0.8101
 3008TIP3    H230516   2.608   4.654  11.180  1.8116 -1.1768 -0.4060
 3009TIP3   OH230517   1.736   6.621  14.594 -0.1605 -0.5319  0.2136
 3009TIP3    H130518   1.796   6.639  14.522  0.2892 -0.2064  0.6559
 3009TIP3    H230519   1.773   6.543  14.637 -0.0558 -0.3383  0.4804
 3010TIP3   OH230520   5.971   1.573   9.860  0.0637 -0.0126  0.0707
 3010TIP3    H130521   5.906   1.566   9.790 -1.3364  0.8705  1.2309
 3010TIP3    H230522   6.014   1.657   9.845  0.6167 -0.3704 -0.4048
 3011TIP3   OH230523   7.035   4.248  10.263 -0.5189  0.0418 -0.1845
 3011TIP3    H130524   7.022   4.186  10.335 -0.2489  0.5843  0.3423
 3011TIP3    H230525   7.127   4.274  10.270 -0.9725  1.6239  0.5430
 3012TIP3   OH230526   2.662   0.249  13.291  0.5000 -0.3509 -0.1266
 3012TIP3    H130527   2.609   0.302  13.231  1.2865 -0.3729 -0.8577
 3012TIP3    H230528   2.683   0.171  13.240  0.9394 -0.4946  0.2799
 3013TIP3   OH230529   5.722   1.446  12.233  0.1768  0.2854  0.2404
 3013TIP3    H130530   5.658   1.482  12.294 -1.5685 -2.5628  0.3169
 3013TIP3    H230531   5.669   1.408  12.163  1.8268 -1.2493 -0.2663
 3014TIP3   OH230532   6.154   4.046  10.762 -0.4546 -0.1289  0.3191
 3014TIP3    H130533   6.065   4.069  10.733  0.1675  0.3636 -1.3157
 3014TIP3    H230534   6.188   4.126  10.800 -0.3179  0.0240 -0.1143
 3015TIP3   OH230535   7.040   0.683  10.896 -0.0004  0.4202  0.3066
 3015TIP3    H130536   6.981   0.734  10.841 -2.0455  0.7623  2.6420
 3015TIP3    H230537   6.998   0.597  10.904  1.1717 -0.2116 -0.0509
 3016TIP3   OH230538   3.317   6.385  11.397 -0.0510  0.3805  0.1207
 3016TIP3    H130539   3.300   6.398  11.304  0.3474 -0.6287 -0.1008
 3016TIP3    H230540   3.325   6.474  11.432 -0.2128  0.7703 -0.7977
 3017TIP3   OH230541   2.463   1.602  10.535 -0.1720  0.1288 -0.3206
 3017TIP3    H130542   2.492   1.547  10.461 -0.3980  1.4240 -1.4084
 3017TIP3    H230543   2.485   1.691  10.509  0.0247  0.5938  1.3434
 3018TIP3   OH230544   7.051   0.229  10.943 -0.2597 -0.0567  0.4528
 3018TIP3    H130545   6.987   0.299  10.947 -0.7328 -0.4649  0.1329
 3018TIP3    H230546   7.008   0.154  10.985  0.5148  0.0403  1.4719
 3019TIP3   OH230547   6.012   5.603  11.089 -0.0052  0.6967 -0.5296
 3019TIP3    H130548   5.930   5.615  11.041 -1.1324  0.8900  1.3716
 3019TIP3    H230549   6.074   5.663  11.046 -0.9325  0.7822 -1.7860
 3020TIP3   OH230550   4.098   1.690   9.648 -0.1133 -0.2807  0.7024
 3020TIP3    H130551   4.160   1.727   9.585 -0.5462 -2.6282 -1.2198
 3020TIP3    H230552   4.015   1.733   9.628  0.0334 -0.0438  0.5997
 3021TIP3   OH230553   1.783   2.874  10.471 -0.3874  0.0325 -0.0953
 3021TIP3    H130554   1.688   2.883  10.482 -0.2044  0.5045  1.3148
 3021TIP3    H230555   1.800   2.781  10.483 -0.7760 -0.2287 -1.4159
 3022TIP3   OH230556   0.039   6.146  10.599  0.6298 -0.2900 -0.1519
 3022TIP3    H130557   0.086   6.219  10.640 -1.0738  0.6028  0.3103
 3022TIP3    H230558   0.100   6.072  10.604  2.2582  0.9812 -0.2704
 3023TIP3   OH230559   3.970   2.663  11.438 -0.2080  0.2246 -0.2624
 3023TIP3    H130560   3.894   2.682  11.383 -0.5617 -2.3212 -0.7616
 3023TIP3    H230561   3.935   2.662  11.528 -1.0872 -2.0707 -0.5733
 3024TIP3   OH230562   5.961   3.698   9.902 -0.3076  0.6645 -0.0251
 3024TIP3    H130563   5.882   3.705   9.847 -0.1191  0.7580 -0.2863
 3024TIP3    H230564   5.930   3.656   9.982 -0.1265 -1.9589 -1.1978
 3025TIP3   OH230565   2.971   4.066  14.781 -0.1550 -0.3311 -0.5314
 3025TIP3    H130566   2.995   4.123  14.708  1.4578 -0.1255  0.1211
 3025TIP3    H230567   3.030   3.991  14.773  0.6099  0.0687  0.9899
 3026TIP3   OH230568   0.961   5.923  11.391 -0.2283 -0.2384  0.0635
 3026TIP3    H130569   0.936   5.831  11.389 -0.2857 -0.2164 -0.2035
 3026TIP3    H230570   1.021   5.934  11.318 -0.6857  0.0717 -0.2684
 3027TIP3   OH230571   2.413   5.587  10.820  0.2179  0.5031 -0.1135
 3027TIP3    H130572   2.365   5.667  10.841 -2.2165 -0.6385 -0.9450
 3027TIP3    H230573   2.368   5.518  10.869  1.7016 -0.5063 -0.1154
 3028TIP3   OH230574   3.807   2.298  10.105 -0.0606  0.2900 -0.2293
 3028TIP3    H130575   3.843   2.252  10.030 -0.0686 -0.9883  0.5170
 3028TIP3    H230576   3.733   2.347  10.070  0.2566  0.1372 -1.1438
 3029TIP3   OH230577   3.531   0.283  10.046 -0.0800 -0.7407 -0.3492
 3029TIP3    H130578   3.481   0.240   9.977  0.7215 -0.5039 -1.0952
 3029TIP3    H230579   3.488   0.368  10.058 -0.6940 -1.0901  0.0116
 3030TIP3   OH230580   6.857   4.512  13.550 -0.0357  0.4824  0.7725
 3030TIP3    H130581   6.833   4.429  13.592  0.9593  0.8162  2.1094
 3030TIP3    H230582   6.944   4.532  13.586 -0.1252  1.9530  0.2442
 3031TIP3   OH230583   3.809   2.399  11.276 -0.1706 -0.1184 -0.2467
 3031TIP3    H130584   3.774   2.343  11.346  0.0707  0.3552  0.2634
 3031TIP3    H230585   3.860   2.466  11.322  1.1993 -0.6330 -0.9373
 3032TIP3   OH230586   2.720   4.537  11.622 -0.3216 -0.1843 -0.3860
 3032TIP3    H130587   2.713   4.606  11.555 -1.2402 -0.4069 -0.5346
 3032TIP3    H230588   2.789   4.568  11.681 -1.1306  1.1690 -0.1000
 3033TIP3   OH230589   5.488   6.202  11.617 -0.0445 -0.0141 -0.0849
 3033TIP3    H130590   5.445   6.234  11.697  0.2908  1.6924 -0.5681
 3033TIP3    H230591   5.581   6.212  11.634  0.1059 -1.2895 -0.0471
 3034TIP3   OH230592   4.480   2.838  10.675 -0.0413  0.3963 -0.4931
 3034TIP3    H130593   4.463   2.897  10.748  1.5718  0.9284 -0.5095
 3034TIP3    H230594   4.408   2.775  10.678  1.3000 -1.2450  3.2116
 3035TIP3   OH230595   0.930   0.349  11.042 -0.3808 -0.1421  0.1405
 3035TIP3    H130596   0.909   0.288  10.971  0.6222 -1.3907  0.8877
 3035TIP3    H230597   0.846   0.391  11.063 -0.8189 -0.2262 -1.3144
 3036TIP3   OH230598   2.166   4.926  11.538 -0.4794  0.4418 -0.4261
 3036TIP3    H130599   2.219   4.883  11.605 -0.0367  1.8764  0.1682
 3036TIP3    H230600   2.079   4.885  11.547 -0.2344  0.1032  0.5240
 3037TIP3   OH230601   2.538   5.553  13.069 -0.0512 -0.5301 -0.0849
 3037TIP3    H130602   2.455   5.554  13.022 -0.1667 -0.8877  0.1092
 3037TIP3    H230603   2.515   5.536  13.160  0.2515 -0.9020 -0.0735
 3038TIP3   OH230604   5.495   6.699  11.494  0.5285  0.4655  0.1267
 3038TIP3    H130605   5.420   6.662  11.448 -0.2119 -1.3763  2.6021
 3038TIP3    H230606   5.458   6.744  11.570  1.8394  0.5651  0.7495
 3039TIP3   OH230607   6.354   3.720  13.551 -0.7875  0.4348  0.1733
 3039TIP3    H130608   6.388   3.790  13.607  1.9346 -0.7145  0.0727
 3039TIP3    H230609   6.379   3.639  13.595 -1.4301 -0.5024 -1.1179
 3040TIP3   OH230610   5.664   6.806  10.489  0.3370  0.2496  0.1276
 3040TIP3    H130611   5.621   6.761  10.416 -0.0434  1.4040 -0.3802
 3040TIP3    H230612   5.610   6.882  10.506 -0.3483 -0.6994  2.5571
 3041TIP3   OH230613   1.606   6.977  10.204 -0.0934 -0.1265  0.5390
 3041TIP3    H130614   1.512   6.970  10.185 -0.0450  0.3889  0.0833
 3041TIP3    H230615   1.620   7.070  10.221  0.1533 -0.3472  1.6130
 3042TIP3   OH230616   3.013   2.226  10.997 -0.4016  0.3083 -0.4958
 3042TIP3    H130617   3.088   2.257  10.946 -1.3184  0.9505 -1.4788
 3042TIP3    H230618   3.003   2.134  10.972  0.5860 -0.0486  0.3187
 3043TIP3   OH230619   6.676   1.200  14.925 -0.5188 -0.4339  0.0258
 3043TIP3    H130620   6.683   1.294  14.909  0.0130 -0.8131 -2.3654
 3043TIP3    H230621   6.766   1.172  14.940 -0.7429 -0.4907  1.3315
 3044TIP3   OH230622   0.347   3.017  10.342  0.3642 -0.3911 -0.4996
 3044TIP3    H130623   0.349   3.098  10.291  0.1163  0.1392  0.3246
 3044TIP3    H230624   0.435   2.980  10.332  0.9278  0.7051  0.2699
 3045TIP3   OH230625   1.965   1.841  11.396  0.3714 -0.5854  0.4295
 3045TIP3    H130626   1.925   1.768  11.349  0.4992 -1.2297  1.3080
 3045TIP3    H230627   1.907   1.856  11.471 -0.1770  0.8383 -0.2244
 3046TIP3   OH230628   6.306   3.722  11.707  0.3528 -0.2849  0.6060
 3046TIP3    H130629   6.223   3.676  11.692  0.1034 -0.4568  2.2614
 3046TIP3    H230630   6.307   3.792  11.642  0.3021 -2.0019 -1.3775
 3047TIP3   OH230631   3.850   2.257  14.114 -0.5144  0.2639 -0.2865
 3047TIP3    H130632   3.766   2.241  14.156 -0.4137 -2.4124 -0.8694
 3047TIP3    H230633   3.835   2.240  14.021  0.0198  2.8165 -0.9144
 3048TIP3   OH230634   0.275   5.790  10.314  0.4629 -0.5639  0.1982
 3048TIP3    H130635   0.195   5.801  10.364  0.7153  0.1732  0.4516
 3048TIP3    H230636   0.252   5.729  10.244 -0.6213  0.5157 -0.4024
 3049TIP3   OH230637   4.907   3.161  13.494 -0.2027 -0.6091 -0.3228
 3049TIP3    H130638   4.948   3.127  13.414  0.3033 -0.6202 -0.0634
 3049TIP3    H230639   4.974   3.150  13.562  0.0262  1.0478 -0.2550
 3050TIP3   OH230640   1.404   1.243  12.577 -0.5646 -0.0666  0.1673
 3050TIP3    H130641   1.450   1.302  12.637  3.1488 -1.5239 -0.9608
 3050TIP3    H230642   1.349   1.301  12.524  0.5269  1.9659  1.1185
 3051TIP3   OH230643   1.290   1.639  14.131  0.1628 -0.1116  0.0694
 3051TIP3    H130644   1.208   1.678  14.162 -0.0003  0.4647 -1.0384
 3051TIP3    H230645   1.295   1.555  14.177 -1.9007 -0.9362 -1.0843
 3052TIP3   OH230646   4.627   3.588  12.237  0.1376  0.6655  0.3364
 3052TIP3    H130647   4.715   3.566  12.205 -0.2999 -0.1590 -0.3479
 3052TIP3    H230648   4.611   3.524  12.307 -0.6993 -0.5495 -0.9100
 3053TIP3   OH230649   5.284   0.029   9.815 -0.0276 -0.6126 -0.1743
 3053TIP3    H130650   5.305   0.076   9.735 -1.5704 -2.6562 -1.8775
 3053TIP3    H230651   5.316  -0.060   9.801  0.4678 -0.8140  1.8693
 3054TIP3   OH230652   7.000   1.246  11.174 -0.4592  0.4521 -0.3473
 3054TIP3    H130653   7.068   1.183  11.199 -1.5351 -0.4830  0.3275
 3054TIP3    H230654   6.991   1.234  11.079 -0.1165  0.1376 -0.3420
 3055TIP3   OH230655   4.744   5.076  12.828  0.0999 -0.4448 -0.0626
 3055TIP3    H130656   4.729   5.146  12.892  0.3288 -1.6254  1.3178
 3055TIP3    H230657   4.734   5.119  12.743  1.2759  1.5271  0.7236
 3056TIP3   OH230658   6.685   2.471  11.622 -0.6975 -0.5288 -0.4814
 3056TIP3    H130659   6.703   2.533  11.693 -0.9873 -0.1826 -0.7071
 3056TIP3    H230660   6.610   2.421  11.653 -0.1411 -1.1359 -0.0725
 3057TIP3   OH230661   2.426   7.213  13.000  0.4057  0.2274 -0.3455
 3057TIP3    H130662   2.354   7.270  13.029 -0.9158 -1.3450 -0.3780
 3057TIP3    H230663   2.499   7.236  13.057 -0.4856  1.0440  0.5114
 3058TIP3   OH230664   5.918   6.819  10.711 -0.2497  0.8540  0.4659
 3058TIP3    H130665   5.859   6.826  10.786  0.7325 -0.6720  1.4393
 3058TIP3    H230666   5.864   6.786  10.641 -0.4444 -1.3849  1.5908
 3059TIP3   OH230667   0.387   4.701  10.027 -0.0591  0.8611  0.3544
 3059TIP3    H130668   0.293   4.708  10.007  0.3355 -0.5999 -2.5535
 3059TIP3    H230669   0.426   4.777   9.984  0.0827  1.8461  2.1400
 3060TIP3   OH230670   5.143   2.137  14.587  0.4238  0.5836 -0.0309
 3060TIP3    H130671   5.149   2.047  14.619 -1.8616  1.1333  2.3805
 3060TIP3    H230672   5.101   2.130  14.501 -1.3656 -0.6332  0.8780
 3061TIP3   OH230673   0.545   6.656  11.766  0.4204 -0.2467  0.0641
 3061TIP3    H130674   0.486   6.583  11.785 -2.5613  1.6079 -1.4090
 3061TIP3    H230675   0.544   6.665  11.671  0.0807  2.1487  0.2210
 3062TIP3   OH230676   5.731   6.072  13.889  0.4628 -0.2570 -0.3748
 3062TIP3    H130677   5.727   6.159  13.927  1.4298 -1.4005  2.6054
 3062TIP3    H230678   5.821   6.063  13.857 -0.1084  0.3834 -2.3155
 3063TIP3   OH230679   6.439   1.544  10.779 -0.0299 -0.2352 -0.1240
 3063TIP3    H130680   6.426   1.538  10.873 -3.0763 -0.9317 -0.4651
 3063TIP3    H230681   6.500   1.616  10.767 -0.6456  0.7941  2.3275
 3064TIP3   OH230682   2.741   0.619   9.997  0.2712  0.2041 -0.3813
 3064TIP3    H130683   2.706   0.689   9.942 -0.4904  0.0257 -0.1303
 3064TIP3    H230684   2.703   0.635  10.084  1.2114  0.2997  0.0205
 3065TIP3   OH230685   5.068   6.301  14.825  0.3491 -0.1729  0.5637
 3065TIP3    H130686   4.983   6.331  14.856 -0.5898 -0.0702 -1.8346
 3065TIP3    H230687   5.109   6.379  14.789  0.7514 -0.5225  0.2513
 3066TIP3   OH230688   2.461   2.529  10.798  0.4474 -0.1386 -0.1769
 3066TIP3    H130689   2.545   2.510  10.839  0.8368 -0.5479 -1.1547
 3066TIP3    H230690   2.468   2.495  10.709 -0.4126  0.6634 -0.5802
 3067TIP3   OH230691   2.326   5.072  10.656  0.9740  0.0469 -0.4008
 3067TIP3    H130692   2.255   5.130  10.628  2.0513  1.5001 -0.2498
 3067TIP3    H230693   2.404   5.109  10.615  1.7879 -1.0023  0.1471
 3068TIP3   OH230694   6.375   1.283  10.727 -0.8002 -0.4541 -0.2640
 3068TIP3    H130695   6.413   1.367  10.754  2.0340 -0.8237 -2.5428
 3068TIP3    H230696   6.292   1.306  10.686 -0.8205  1.0267  0.5132
 3069TIP3   OH230697   5.238   6.517  12.516 -0.3706 -0.1027 -0.2429
 3069TIP3    H130698   5.255   6.530  12.609  1.5795 -1.4476 -0.3410
 3069TIP3    H230699   5.306   6.567  12.472 -0.5778 -0.3877 -0.9019
 3070TIP3   OH230700   3.200   2.425   1.624 -0.1215 -0.4593 -0.1931
 3070TIP3    H130701   3.126   2.397   1.570  0.0044 -0.9379 -0.1190
 3070TIP3    H230702   3.260   2.466   1.562 -0.6162  0.2755 -0.1968
 3071TIP3   OH230703   4.497   4.928  10.210 -0.2209  0.2197 -0.0054
 3071TIP3    H130704   4.546   4.848  10.195  0.1251  0.5772 -0.8478
 3071TIP3    H230705   4.550   4.978  10.272  0.1031  0.2613 -0.3113
 3072TIP3   OH230706   4.443   5.642  11.770  0.0345  0.0457 -0.1087
 3072TIP3    H130707   4.484   5.638  11.857 -4.4322  1.3695  2.3541
 3072TIP3    H230708   4.385   5.566  11.767  1.7912 -1.3820 -3.1609
 3073TIP3   OH230709   5.850   7.199   0.789 -0.3192  0.2745  0.2566
 3073TIP3    H130710   5.809   7.153   0.716 -0.8209 -1.8584  1.7798
 3073TIP3    H230711   5.935   7.228   0.754  0.5958 -2.9542 -0.5465
 3074TIP3   OH230712   5.090   1.973  12.187 -0.2236 -0.0805  0.0751
 3074TIP3    H130713   5.108   2.064  12.211 -1.7883  0.4586 -0.6756
 3074TIP3    H230714   5.141   1.959  12.107 -0.4159  0.3170 -0.1210
 3075TIP3   OH230715   5.057   7.183  14.477 -0.4971  0.4145  0.0412
 3075TIP3    H130716   5.060   7.267  14.522 -0.0873  0.3614  0.1212
 3075TIP3    H230717   5.118   7.194  14.403  1.4112 -0.5565  1.3763
 3076TIP3   OH230718   5.793   2.241  13.143  0.1687  0.6001 -0.0535
 3076TIP3    H130719   5.803   2.166  13.085  0.3409  2.0210 -1.9477
 3076TIP3    H230720   5.880   2.255  13.180 -0.2691 -1.2710  1.9028
 3077TIP3   OH230721   7.062   4.868  10.996  0.5880 -0.3270  0.1967
 3077TIP3    H130722   7.002   4.806  11.036 -0.4715  0.0444 -0.7641
 3077TIP3    H230723   7.021   4.892  10.913  0.5866  2.2138  0.8372
 3078TIP3   OH230724   5.605   6.560  10.618 -0.1631 -0.2118 -0.1000
 3078TIP3    H130725   5.608   6.654  10.600  2.3058 -0.3292 -0.6145
 3078TIP3    H230726   5.603   6.519  10.532 -2.0020 -0.6805  0.1190
 3079TIP3   OH230727   1.430   3.487  11.621  0.2549 -0.0650  0.3540
 3079TIP3    H130728   1.415   3.535  11.702 -2.4044 -0.9814  0.5261
 3079TIP3    H230729   1.421   3.553  11.552 -0.3284  0.2335  0.7047
 3080TIP3   OH230730   5.942   4.148  12.351  0.4572 -0.5929  0.5986
 3080TIP3    H130731   5.921   4.171  12.261 -1.5619  0.5262  1.2877
 3080TIP3    H230732   5.887   4.071  12.369  2.8115 -2.4990  0.1262
 3081TIP3   OH230733   1.667   4.635  12.509 -0.4453 -0.6224 -0.1795
 3081TIP3    H130734   1.685   4.564  12.447  0.4882 -0.7691  0.2534
 3081TIP3    H230735   1.602   4.598  12.569  2.1606 -2.2182  1.8699
 3082TIP3   OH230736   4.396   6.569   9.609  0.3744  0.4520 -0.3135
 3082TIP3    H130737   4.448   6.504   9.561  0.0735  0.2416 -0.3530
 3082TIP3    H230738   4.459   6.638   9.631  0.6766  0.1910 -0.3521
 3083TIP3   OH230739   4.270   4.524   9.849 -0.9672 -0.0745  0.0094
 3083TIP3    H130740   4.299   4.478   9.769  0.5533 -1.3315  1.2203
 3083TIP3    H230741   4.184   4.558   9.826 -0.7839 -0.7969 -2.0249
 3084TIP3   OH230742   1.515   5.939  14.044  0.1676  0.8742 -0.0820
 3084TIP3    H130743   1.506   5.969  13.953 -0.2383  1.1548  0.0487
 3084TIP3    H230744   1.452   5.992  14.093 -3.2095 -2.4543 -0.3370
 3085TIP3   OH230745   4.559   4.829  14.270  0.4654  0.1393 -0.5563
 3085TIP3    H130746   4.555   4.924  14.259 -0.2406  0.2089  0.2137
 3085TIP3    H230747   4.527   4.794  14.186 -1.8391  0.6214  0.0383
 3086TIP3   OH230748   4.930   4.883  12.298  0.3272 -0.0361 -0.5584
 3086TIP3    H130749   4.937   4.806  12.241  0.0213  0.7433 -1.6843
 3086TIP3    H230750   5.001   4.941  12.269  0.5358  0.1304  0.2586
 3087TIP3   OH230751   5.257   2.691   0.637  0.7765  0.3577 -0.2319
 3087TIP3    H130752   5.322   2.757   0.663  1.5944 -0.5637  0.0912
 3087TIP3    H230753   5.263   2.689   0.542 -0.7831  2.2708 -0.4338
 3088TIP3   OH230754   6.443   4.226   9.668  0.5501  0.2205  0.4011
 3088TIP3    H130755   6.504   4.213   9.595  1.2380 -0.4703  1.0868
 3088TIP3    H230756   6.433   4.139   9.707 -2.1490 -0.0322 -0.6671
 3089TIP3   OH230757   0.865   4.795   0.930  1.1199 -0.3951 -0.3014
 3089TIP3    H130758   0.879   4.705   0.899 -1.4223 -1.2502  0.7670
 3089TIP3    H230759   0.936   4.809   0.993  1.2919 -1.8429 -0.1302
 3090TIP3   OH230760   0.719   4.413  10.898  0.2695 -0.0649  0.2458
 3090TIP3    H130761   0.698   4.444  10.810  0.2039 -0.0923  0.2521
 3090TIP3    H230762   0.636   4.416  10.946  0.7881  2.6172  1.1427
 3091TIP3   OH230763   2.574   3.380  15.260 -0.3734  0.8058  0.1652
 3091TIP3    H130764   2.493   3.388  15.209 -1.2221 -0.8658  1.1557
 3091TIP3    H230765   2.593   3.287  15.261 -0.3358  0.7664  2.7369
 3092TIP3   OH230766   4.171   7.212  10.655  0.1171  0.5650  0.2523
 3092TIP3    H130767   4.162   7.186  10.563 -0.5676 -2.5983  1.0746
 3092TIP3    H230768   4.261   7.188  10.677 -0.2631 -0.4260  0.8166
 3093TIP3   OH230769   3.524   3.423  11.102 -0.5310 -0.2602  0.3873
 3093TIP3    H130770   3.442   3.392  11.065 -0.8471  0.2235  0.6741
 3093TIP3    H230771   3.561   3.348  11.148 -1.6734 -0.0305  1.7553
 3094TIP3   OH230772   5.563   4.809  11.117 -0.2532  0.4347  0.1815
 3094TIP3    H130773   5.574   4.849  11.204 -0.9021 -0.0535  0.4960
 3094TIP3    H230774   5.543   4.717  11.135  0.9874  0.0051 -0.5308
 3095TIP3   OH230775   6.782   6.430  10.995  0.1398 -0.5161 -0.3447
 3095TIP3    H130776   6.783   6.352  11.051 -0.2707  0.1900  0.6697
 3095TIP3    H230777   6.752   6.398  10.910  0.1636 -1.4942  0.0031
 3096TIP3   OH230778   6.504   6.229  11.043  0.3735 -0.0545 -0.4615
 3096TIP3    H130779   6.530   6.214  11.134 -1.8727 -0.6159  0.1477
 3096TIP3    H230780   6.481   6.322  11.040 -0.4595 -0.2451 -0.1877
 3097TIP3   OH230781   6.415   5.708  15.024 -0.1004 -0.8280  0.8539
 3097TIP3    H130782   6.502   5.671  15.010 -0.1156 -1.1174  1.4957
 3097TIP3    H230783   6.359   5.661  14.963  0.7450  1.7606 -2.1600
 3098TIP3   OH230784   5.085   6.968  11.465  0.2823 -0.0503  0.2251
 3098TIP3    H130785   5.105   7.052  11.506  0.3480  0.4555 -0.8078
 3098TIP3    H230786   5.091   6.905  11.536  0.7118  0.7534  0.9233
 3099TIP3   OH230787   5.745   6.676  14.415 -0.0486  0.2242 -0.1384
 3099TIP3    H130788   5.695   6.715  14.487 -0.0352  0.0247 -0.0201
 3099TIP3    H230789   5.708   6.716  14.336 -1.3276 -0.9306 -0.1508
 3100TIP3   OH230790   4.628   1.821  14.774  0.1535 -0.1253  0.3809
 3100TIP3    H130791   4.635   1.736  14.731  3.6466  0.8693 -1.4568
 3100TIP3    H230792   4.645   1.802  14.867  0.4980 -1.4820  0.0633
 3101TIP3   OH230793   5.201   4.484  10.744  0.5270  0.3329  0.1221
 3101TIP3    H130794   5.195   4.430  10.822  0.7939 -3.4384 -2.2024
 3101TIP3    H230795   5.295   4.500  10.733  0.6041 -0.2234 -0.0612
 3102TIP3   OH230796   1.485   6.896  11.414 -0.5830  0.0737  1.0912
 3102TIP3    H130797   1.401   6.874  11.373  0.4650  0.0873 -1.2075
 3102TIP3    H230798   1.526   6.812  11.433 -0.2205  0.0467  0.2228
 3103TIP3   OH230799   1.662   2.646  14.144 -0.1937 -0.2826  0.3856
 3103TIP3    H130800   1.624   2.641  14.057  0.4708 -1.7246  0.1331
 3103TIP3    H230801   1.701   2.733  14.149  2.5283 -1.1837 -2.0181
 3104TIP3   OH230802   4.128   3.624  13.205  0.4643 -0.3933 -0.0955
 3104TIP3    H130803   4.109   3.534  13.181  0.8740 -0.3343 -0.6490
 3104TIP3    H230804   4.185   3.657  13.136  0.6283  0.1758  0.2960
 3105TIP3   OH230805   7.137   2.457  10.479 -0.2923  0.1961  0.5033
 3105TIP3    H130806   7.080   2.519  10.524 -0.5528 -0.7282  1.4922
 3105TIP3    H230807   7.189   2.417  10.549  0.8243  0.2585 -0.2640
 3106TIP3   OH230808   5.769   5.016   9.263 -0.5552 -0.1500  0.0069
 3106TIP3    H130809   5.697   4.954   9.275 -1.7447  1.2914  0.7624
 3106TIP3    H230810   5.757   5.050   9.174 -0.7943  0.0581  0.1169
 3107TIP3   OH230811   5.871   4.214  12.082  0.7663  0.0893 -0.1527
 3107TIP3    H130812   5.787   4.181  12.114  0.1168  0.5409 -1.3276
 3107TIP3    H230813   5.856   4.307  12.068  1.3609  0.1009 -0.7218
 3108TIP3   OH230814   4.686   2.223  10.650 -0.3665 -0.2833 -0.2544
 3108TIP3    H130815   4.685   2.138  10.696  0.4603  0.6403  1.5934
 3108TIP3    H230816   4.647   2.284  10.712  1.2687  1.1205 -0.5323
 3109TIP3   OH230817   4.390   1.362  11.774 -0.0951  0.0895  0.0672
 3109TIP3    H130818   4.389   1.267  11.780 -1.5779  0.0848  0.2810
 3109TIP3    H230819   4.332   1.391  11.845 -1.0678  1.0471 -1.0809
 3110TIP3   OH230820   2.860   0.752  12.419 -0.6093 -0.5509 -0.0646
 3110TIP3    H130821   2.775   0.708  12.427 -0.9150  0.1134  0.4154
 3110TIP3    H230822   2.855   0.825  12.481  0.5149 -0.8205  0.3666
 3111TIP3   OH230823   6.615   7.153   3.962 -0.1410  0.1763 -0.3729
 3111TIP3    H130824   6.708   7.134   3.949  0.1611  1.1450  0.3058
 3111TIP3    H230825   6.578   7.152   3.874  1.0299  2.3653 -0.9478
 3112TIP3   OH230826   2.618   1.445   9.692  0.4694  0.3279  0.4797
 3112TIP3    H130827   2.623   1.529   9.739 -1.2190  0.6195  0.2054
 3112TIP3    H230828   2.613   1.470   9.600  1.1643 -0.1304  0.3184
 3113TIP3   OH230829   7.177   6.745  15.191  0.2067 -0.4497  0.4177
 3113TIP3    H130830   7.112   6.814  15.201  0.1632 -0.4472  0.1149
 3113TIP3    H230831   7.162   6.710  15.103  1.0703  0.0151  0.0825
 3114TIP3   OH230832   4.419   2.750   0.122 -0.4358  0.3071 -0.3561
 3114TIP3    H130833   4.454   2.661   0.125 -1.2162 -0.0412 -1.1347
 3114TIP3    H230834   4.496   2.805   0.107  0.3365 -0.0081  1.9159
 3115TIP3   OH230835   5.171   5.926  12.843 -0.2422 -0.4493  0.7974
 3115TIP3    H130836   5.261   5.942  12.869 -0.0240 -0.6885  0.2162
 3115TIP3    H230837   5.123   5.915  12.925  0.4041 -1.1149  1.0955
 3116TIP3   OH230838   2.712   3.208  12.958 -0.2548  0.0260  0.0095
 3116TIP3    H130839   2.739   3.265  13.030 -0.4554 -0.3517  0.3901
 3116TIP3    H230840   2.647   3.258  12.910 -0.9600 -0.1547  0.7634
 3117TIP3   OH230841   1.563   5.588   9.941  0.2321 -0.2825 -0.5087
 3117TIP3    H130842   1.641   5.591   9.995  0.6686  0.8494 -1.1673
 3117TIP3    H230843   1.561   5.673   9.897 -1.8495  0.0731  0.1639
 3118TIP3   OH230844   1.170   1.656   9.947 -0.2003 -0.8032 -0.3276
 3118TIP3    H130845   1.244   1.594   9.950  0.1889 -0.4687 -1.9986
 3118TIP3    H230846   1.106   1.619  10.008  0.5674 -2.1379 -0.2797
 3119TIP3   OH230847   5.775   5.223  10.778 -0.2320  0.2222  0.2291
 3119TIP3    H130848   5.804   5.134  10.758 -0.9337 -0.1777  0.9034
 3119TIP3    H230849   5.852   5.265  10.816 -0.5996 -1.0124  2.5692
 3120TIP3   OH230850   0.651   5.025  11.129  0.3482 -0.2198  0.0091
 3120TIP3    H130851   0.718   5.077  11.173 -0.0385  0.2753  0.0170
 3120TIP3    H230852   0.619   5.082  11.059 -0.8708  0.0038  0.7128
 3121TIP3   OH230853   3.917   0.430  11.238  0.4725 -0.4754 -0.2562
 3121TIP3    H130854   3.973   0.503  11.265  0.8019 -0.2919 -1.3689
 3121TIP3    H230855   3.861   0.468  11.169  0.0660 -1.0672 -0.2593
 3122TIP3   OH230856   0.652   7.004  11.266  0.2851 -0.6617  0.1786
 3122TIP3    H130857   0.730   7.045  11.302 -1.2084  2.3768  0.3188
 3122TIP3    H230858   0.659   7.016  11.172 -0.2865  0.2481  0.2399
 3123TIP3   OH230859   2.703   5.806  12.684  0.4262 -0.2694 -0.2040
 3123TIP3    H130860   2.706   5.856  12.602 -0.5875 -1.0675 -0.7558
 3123TIP3    H230861   2.663   5.866  12.747 -1.1213 -0.4526 -0.9485
 3124TIP3   OH230862   1.487   2.216   9.982 -0.0140  0.0025 -0.2811
 3124TIP3    H130863   1.472   2.310   9.976  1.7376  0.3886  0.6256
 3124TIP3    H230864   1.443   2.191  10.064  0.1128  0.1812 -0.1549
 3125TIP3   OH230865   1.248   1.399  14.283  0.5559  0.8439 -0.2092
 3125TIP3    H130866   1.211   1.314  14.262 -0.4606  1.3500 -0.5287
 3125TIP3    H230867   1.314   1.381  14.349  1.1915 -0.3309 -1.1270
 3126TIP3   OH230868   4.069   5.931  10.593  0.5248 -0.5239 -0.6505
 3126TIP3    H130869   4.027   5.959  10.512 -0.6405  0.4913  0.2696
 3126TIP3    H230870   4.004   5.875  10.635  0.8003 -0.3822 -0.0287
 3127TIP3   OH230871   6.431   0.868  13.694  0.1443 -0.2992  0.1978
 3127TIP3    H130872   6.345   0.839  13.723 -0.2593  1.2861  0.6514
 3127TIP3    H230873   6.413   0.942  13.636  1.1108 -1.3123 -1.4831
 3128TIP3   OH230874   1.815   1.688  11.932 -0.6768 -0.6924  0.0631
 3128TIP3    H130875   1.824   1.617  11.869  0.8378 -1.0695  0.6620
 3128TIP3    H230876   1.845   1.651  12.014  0.1444  0.6401  0.3911
 3129TIP3   OH230877   0.766   2.433   9.926  0.4639 -0.4609  0.0701
 3129TIP3    H130878   0.783   2.523   9.898 -1.1103 -0.4723 -1.0479
 3129TIP3    H230879   0.750   2.385   9.844  0.1247 -1.5062  0.7334
 3130TIP3   OH230880   5.313   0.195   9.590 -0.1442 -0.0155 -0.0294
 3130TIP3    H130881   5.281   0.271   9.639 -0.8420 -0.7794  0.7312
 3130TIP3    H230882   5.408   0.194   9.607 -0.4675 -0.7415  2.0520
 3131TIP3   OH230883   6.046   3.907  11.187 -0.5133  0.7246  0.2883
 3131TIP3    H130884   6.044   4.002  11.195  0.0841  0.8388 -0.7297
 3131TIP3    H230885   6.013   3.875  11.271 -0.0095  1.8159  0.9224
 3132TIP3   OH230886   0.706   4.860  12.664 -0.9132 -0.3914  0.0139
 3132TIP3    H130887   0.746   4.831  12.582 -2.1113  2.9192 -1.9353
 3132TIP3    H230888   0.634   4.798  12.678 -0.4631 -1.2553 -1.2354
 3133TIP3   OH230889   0.590   5.733  11.634 -0.0525  0.2829 -0.1307
 3133TIP3    H130890   0.609   5.640  11.644 -0.2504  0.3434  1.0191
 3133TIP3    H230891   0.619   5.755  11.546  1.8506 -0.4341  0.2710
 3134TIP3   OH230892   1.404   0.118  13.061  0.2752 -0.0258 -0.0634
 3134TIP3    H130893   1.380   0.061  12.988 -1.4811  0.4640  0.0956
 3134TIP3    H230894   1.499   0.107  13.069 -0.0737 -4.0714  0.8895
 3135TIP3   OH230895   5.499   4.113  11.709  0.5444 -0.4588 -0.2387
 3135TIP3    H130896   5.572   4.110  11.771 -0.3322 -1.6331  0.7823
 3135TIP3    H230897   5.499   4.027  11.667 -0.4874 -0.6464  0.0945
 3136TIP3   OH230898   1.084   6.427  12.703  0.1578 -0.0883 -0.5639
 3136TIP3    H130899   1.036   6.393  12.628  1.3163 -0.1019 -1.3221
 3136TIP3    H230900   1.148   6.488  12.666  0.2195  0.5088  0.4857
 3137TIP3   OH230901   4.694   5.940  15.194  0.1247 -0.8733 -0.0011
 3137TIP3    H130902   4.699   5.946  15.289  1.6222  2.1222 -0.1474
 3137TIP3    H230903   4.608   5.902  15.177  0.0692 -2.0486  2.5272
 3138TIP3   OH230904   4.950   2.823  10.805 -0.1783  0.6431  0.0907
 3138TIP3    H130905   4.874   2.855  10.757 -1.4519 -1.0545  0.8901
 3138TIP3    H230906   5.008   2.900  10.811 -1.9004  2.0500 -0.3373
 3139TIP3   OH230907   0.217   2.583  10.722 -0.1082  0.1532  0.7648
 3139TIP3    H130908   0.204   2.488  10.722  1.7736 -0.1962 -1.3598
 3139TIP3    H230909   0.269   2.600  10.801  1.7450 -1.0393 -0.1158
 3140TIP3   OH230910   2.071   3.167   0.856  0.0705  0.0230 -0.2069
 3140TIP3    H130911   2.151   3.137   0.813 -0.8507  1.3638 -3.1024
 3140TIP3    H230912   2.043   3.243   0.805 -3.6433 -1.0391 -0.0416
 3141TIP3   OH230913   6.796   5.503   9.541 -0.6028  0.2482 -0.1765
 3141TIP3    H130914   6.764   5.513   9.451  1.1899  2.9694 -0.6414
 3141TIP3    H230915   6.779   5.588   9.582  0.0735 -0.4072  1.5349
 3142TIP3   OH230916   6.573   0.840   9.997 -0.0427  0.3170  0.3545
 3142TIP3    H130917   6.516   0.879   9.930 -1.2186 -1.9887 -0.0817
 3142TIP3    H230918   6.661   0.859   9.966 -0.5555 -0.4326 -1.7672
 3143TIP3   OH230919   3.283   4.733  14.039 -0.3554  0.6519  0.2531
 3143TIP3    H130920   3.349   4.799  14.015 -0.0181  1.1791  2.4472
 3143TIP3    H230921   3.209   4.752  13.982  0.7832  1.0650 -1.1608
 3144TIP3   OH230922   6.785   0.918  12.669 -0.1820 -0.3898  0.2077
 3144TIP3    H130923   6.758   0.913  12.577 -1.2323  3.5953  0.1046
 3144TIP3    H230924   6.878   0.941  12.664 -0.5581  1.2177  0.0163
 3145TIP3   OH230925   3.981   1.843  14.096 -0.6776  0.0508  0.7661
 3145TIP3    H130926   4.007   1.795  14.175 -0.4516  2.1670  2.0736
 3145TIP3    H230927   4.062   1.854  14.047 -0.7606 -0.9876  0.3668
 3146TIP3   OH230928   2.724   0.211  15.310 -0.4611 -0.5357  0.4692
 3146TIP3    H130929   2.637   0.208  15.270 -0.6573 -1.4975  0.9417
 3146TIP3    H230930   2.779   0.158  15.253 -0.5052 -1.0608  0.9092
 3147TIP3   OH230931   0.824   2.087  11.433 -0.8376 -0.2676  0.0545
 3147TIP3    H130932   0.807   2.154  11.366 -1.0052  1.5173  1.7718
 3147TIP3    H230933   0.913   2.104  11.461  0.2096 -2.7368 -1.4944
 3148TIP3   OH230934   3.677   4.616   0.106  0.4945 -0.0975  0.0893
 3148TIP3    H130935   3.682   4.558   0.182  1.2077  0.5428  0.5424
 3148TIP3    H230936   3.616   4.573   0.047 -0.0219 -0.6370  0.9998
 3149TIP3   OH230937   5.497   3.776  10.500  0.4780 -0.0868  0.1123
 3149TIP3    H130938   5.583   3.755  10.537  0.2624 -0.2055  0.5480
 3149TIP3    H230939   5.476   3.862  10.536 -0.0278 -0.4904  0.7976
 3150TIP3   OH230940   5.374   6.776  12.634  0.1602  0.4363 -0.0258
 3150TIP3    H130941   5.401   6.733  12.553  1.2118 -0.5900  0.8274
 3150TIP3    H230942   5.381   6.708  12.701 -2.8763  0.6020  0.6147
 3151TIP3   OH230943   6.265   5.034   9.253  0.2936 -0.1085  0.0098
 3151TIP3    H130944   6.354   5.037   9.216 -0.4396 -0.3945 -1.9062
 3151TIP3    H230945   6.256   5.117   9.300  1.6330 -0.1680  0.4251
 3152TIP3   OH230946   0.706   0.415   0.029  0.2973 -0.2804  0.2016
 3152TIP3    H130947   0.798   0.424   0.053 -0.0446  1.4743  0.9691
 3152TIP3    H230948   0.678   0.333   0.070  1.4289 -0.6779  0.2068
 3153TIP3   OH230949   4.719   1.901  10.149  0.2745  0.2900 -0.8293
 3153TIP3    H130950   4.717   1.992  10.122  1.5896  0.4533 -0.4231
 3153TIP3    H230951   4.811   1.875  10.142  0.3401 -0.2797  1.4185
 3154TIP3   OH230952   3.131   2.322  11.833  0.0811 -0.4918 -0.2915
 3154TIP3    H130953   3.084   2.311  11.916 -0.2358  0.3353 -0.3549
 3154TIP3    H230954   3.112   2.241  11.785 -0.4686 -0.5934  0.0782
 3155TIP3   OH230955   6.718   4.335  11.339 -0.4273 -0.2224  0.5135
 3155TIP3    H130956   6.681   4.423  11.346 -0.0307 -0.0133  0.0242
 3155TIP3    H230957   6.747   4.327  11.248  1.4193 -0.0798  1.0332
 3156TIP3   OH230958   0.022   4.118   9.993 -0.0170  0.2220 -0.2745
 3156TIP3    H130959   0.087   4.189   9.987  0.9113 -0.0894  3.5021
 3156TIP3    H230960   0.072   4.039   9.974  0.8237  0.0064  2.4066
 3157TIP3   OH230961   4.301   4.868  14.415  0.1653 -0.1977 -0.5641
 3157TIP3    H130962   4.392   4.855  14.388  0.6716 -2.8466  1.8646
 3157TIP3    H230963   4.307   4.898  14.506 -1.2089 -3.2804  0.7046
 3158TIP3   OH230964   0.198   0.226  13.354  0.0012 -0.3068 -0.0519
 3158TIP3    H130965   0.176   0.162  13.421  1.2534 -1.7923 -0.9721
 3158TIP3    H230966   0.116   0.240  13.306 -0.6760  0.0744  1.1763
 3159TIP3   OH230967   6.070   6.509  14.294  0.3090 -0.0997 -0.3665
 3159TIP3    H130968   6.031   6.537  14.212  1.1390 -1.4047 -1.2591
 3159TIP3    H230969   6.126   6.434  14.270  1.5789  0.2801  1.1772
 3160TIP3   OH230970   2.410   1.669  11.742  0.2286 -0.0414 -0.4901
 3160TIP3    H130971   2.347   1.651  11.812 -0.2178 -0.5943 -1.0212
 3160TIP3    H230972   2.478   1.720  11.784  0.5638 -1.3452  0.6329
 3161TIP3   OH230973   4.237   4.456  12.140 -0.4033 -0.0995 -0.2111
 3161TIP3    H130974   4.144   4.477  12.127 -0.1069  1.2602 -0.2779
 3161TIP3    H230975   4.276   4.538  12.168  0.6557 -0.8468  0.5557
 3162TIP3   OH230976   6.589   1.769  10.687  0.2598 -0.1810  0.3986
 3162TIP3    H130977   6.673   1.779  10.642  0.8918  1.4288  1.8371
 3162TIP3    H230978   6.544   1.852  10.673 -0.1793 -0.2316  1.4497
 3163TIP3   OH230979   3.452   2.896  11.241  0.0429 -0.0732  0.4208
 3163TIP3    H130980   3.529   2.939  11.203 -0.0437 -0.2331  0.0667
 3163TIP3    H230981   3.385   2.965  11.244 -0.1488 -0.2175 -0.3023
 3164TIP3   OH230982   3.272   3.596  10.723  0.0946 -0.0400  0.7734
 3164TIP3    H130983   3.190   3.640  10.742  0.0671 -0.3285  1.3728
 3164TIP3    H230984   3.327   3.614  10.800  0.9809  1.0368 -0.0847
 3165TIP3   OH230985   6.456   3.455  13.586  0.0293 -0.9132  0.0872
 3165TIP3    H130986   6.406   3.386  13.630  1.4223 -1.6257  0.6471
 3165TIP3    H230987   6.541   3.455  13.631  0.9532 -0.5665 -1.5675
 3166TIP3   OH230988   2.845   4.846  12.327 -0.5786 -0.4570  0.0874
 3166TIP3    H130989   2.835   4.823  12.235 -2.7688  0.0674  0.1447
 3166TIP3    H230990   2.814   4.937  12.333 -1.0021 -0.6659  1.4232
 3167TIP3   OH230991   3.741   4.418  12.828 -0.2678  0.2944 -0.1066
 3167TIP3    H130992   3.828   4.456  12.844 -0.0649 -0.5440  0.8701
 3167TIP3    H230993   3.756   4.355  12.757  0.2157 -0.8263  0.9630
 3168TIP3   OH230994   6.612   1.321  12.833  0.2079  0.0708  0.3290
 3168TIP3    H130995   6.693   1.364  12.860  0.2524  0.1614  0.0578
 3168TIP3    H230996   6.548   1.347  12.899 -0.1938  1.9664 -0.7440
 3169TIP3   OH230997   3.556   7.128  13.563 -0.1611 -0.0791  0.1995
 3169TIP3    H130998   3.465   7.147  13.587 -0.5320 -1.9658  0.4309
 3169TIP3    H230999   3.552   7.110  13.469 -0.4930 -2.4268  0.6011
 3170TIP3   OH231000   1.888   1.325  11.170 -0.4659 -0.0033  0.2192
 3170TIP3    H131001   1.957   1.365  11.117  0.6634  0.4604  1.9584
 3170TIP3    H231002   1.884   1.234  11.140 -2.2933  1.0179 -3.0200
 3171TIP3   OH231003   0.883   4.217  13.202  0.0857 -0.0447 -0.0407
 3171TIP3    H131004   0.921   4.188  13.119 -0.2373  0.2291 -0.2888
 3171TIP3    H231005   0.922   4.160  13.268 -1.5316 -1.9155 -0.6498
 3172TIP3   OH231006   4.612   6.593  12.964  0.0445  0.0395 -0.2882
 3172TIP3    H131007   4.565   6.519  12.927 -0.6846  0.7620 -0.8517
 3172TIP3    H231008   4.544   6.649  13.001  0.4253  1.1301 -1.1692
 3173TIP3   OH231009   1.403   4.162  14.292 -0.1004  0.9008  0.7075
 3173TIP3    H131010   1.474   4.154  14.228  0.3778 -0.4723  1.3773
 3173TIP3    H231011   1.443   4.205  14.367  0.2575 -0.5489  1.3783
 3174TIP3   OH231012   2.021   1.164  10.637  0.1960  0.1883 -0.5368
 3174TIP3    H131013   1.990   1.215  10.712  1.6931 -1.1626  1.0783
 3174TIP3    H231014   2.019   1.226  10.564 -2.7184  1.1485  0.2253
 3175TIP3   OH231015   4.712   3.614  10.306  0.2167 -0.0791 -0.9392
 3175TIP3    H131016   4.661   3.634  10.384  0.0117 -0.7534 -0.8974
 3175TIP3    H231017   4.683   3.678  10.241 -1.7320 -1.3294 -1.3719
 3176TIP3   OH231018   6.060   3.732  12.374  0.0341 -0.1290  0.2151
 3176TIP3    H131019   6.084   3.660  12.432 -2.8157 -0.4569  1.1079
 3176TIP3    H231020   6.091   3.811  12.420  1.0086 -0.6005  0.3971
 3177TIP3   OH231021   6.291   5.324  10.271 -0.0613 -0.2919  0.2491
 3177TIP3    H131022   6.363   5.283  10.222 -0.2666  0.0513 -0.3466
 3177TIP3    H231023   6.262   5.396  10.216  0.1239  0.5099  1.1630
 3178TIP3   OH231024   4.116   0.603  11.329 -0.1305  0.2625  0.2390
 3178TIP3    H131025   4.108   0.685  11.281 -0.9672  0.8672  1.3880
 3178TIP3    H231026   4.198   0.564  11.295 -1.4402 -0.1474 -2.8191
 3179TIP3   OH231027   2.138   6.377  14.811 -0.0174 -0.4717  0.1082
 3179TIP3    H131028   2.229   6.382  14.780  0.0495  0.6588  0.4331
 3179TIP3    H231029   2.086   6.379  14.730  0.2192  0.3465 -0.0392
 3180TIP3   OH231030   1.495   3.689   0.017  0.0795  0.3528 -0.1947
 3180TIP3    H131031   1.462   3.683   0.107  1.2551 -1.1269  0.1795
 3180TIP3    H231032   1.419   3.673  -0.038 -0.5147  0.5451  0.5554
 3181TIP3   OH231033   5.454   2.634  12.556  0.1417 -0.0184  0.3926
 3181TIP3    H131034   5.481   2.584  12.480 -3.5318  1.0408 -1.8933
 3181TIP3    H231035   5.391   2.577  12.601  2.7633 -0.9136  3.2369
 3182TIP3   OH231036   0.928   0.422  14.744 -0.2474  0.2644 -0.3177
 3182TIP3    H131037   0.948   0.387  14.657  0.6084 -0.6060  0.2059
 3182TIP3    H231038   0.984   0.500  14.751  1.4735 -0.9457  0.2953
 3183TIP3   OH231039   6.608   1.137  10.985 -0.1772  0.6238  0.8115
 3183TIP3    H131040   6.668   1.078  10.941 -0.1034 -0.2505  2.0309
 3183TIP3    H231041   6.521   1.111  10.954 -0.2084 -0.6297  1.8338
 3184TIP3   OH231042   0.360   0.350   9.405 -0.2070  0.5313 -0.6882
 3184TIP3    H131043   0.382   0.403   9.481 -0.9138  0.3387 -0.3468
 3184TIP3    H231044   0.422   0.277   9.408  0.4018  1.0236 -0.8492
 3185TIP3   OH231045   4.853   3.209   2.763 -0.1812  0.4692  0.0479
 3185TIP3    H131046   4.906   3.146   2.713  0.4062  1.2493 -0.3381
 3185TIP3    H231047   4.905   3.290   2.761 -0.6531  0.8013  1.0331
 3186TIP3   OH231048   0.981   5.476  10.110 -0.5406 -0.0768 -0.2896
 3186TIP3    H131049   1.026   5.485  10.026 -1.3549  0.5399 -0.6785
 3186TIP3    H231050   0.994   5.385  10.136  2.4788  0.4570  0.5267
 3187TIP3   OH231051   1.003   6.548  13.400 -0.3585 -0.9023  0.4057
 3187TIP3    H131052   0.921   6.501  13.416 -0.4880 -1.6215 -2.0131
 3187TIP3    H231053   1.071   6.481  13.406 -0.3802 -1.1408 -1.4353
 3188TIP3   OH231054   6.579   1.517  13.269 -0.2312  0.1017 -0.3102
 3188TIP3    H131055   6.634   1.460  13.215  0.0974 -2.4977  2.5405
 3188TIP3    H231056   6.638   1.552  13.336 -1.5103 -0.7741  1.3283
 3189TIP3   OH231057   4.373   6.819  13.119 -0.0326 -0.1162  0.2754
 3189TIP3    H131058   4.317   6.753  13.161  0.5417 -1.3279 -0.8049
 3189TIP3    H231059   4.435   6.844  13.188  1.0724 -2.2805  0.1665
 3190TIP3   OH231060   6.304   0.229  13.531 -0.0868 -0.7279 -0.3477
 3190TIP3    H131061   6.263   0.146  13.557 -0.1691 -0.8406 -0.8272
 3190TIP3    H231062   6.310   0.279  13.612 -0.2936 -1.0943 -0.1033
 3191TIP3   OH231063   1.953   7.206  11.068  0.2926 -0.6239  0.0689
 3191TIP3    H131064   1.915   7.127  11.030 -1.2027 -0.8846  1.9323
 3191TIP3    H231065   2.027   7.174  11.120 -2.2179 -1.4093  3.4984
 3192TIP3   OH231066   5.325   3.700   9.991  0.5247 -0.6942 -0.3903
 3192TIP3    H131067   5.286   3.725  10.075 -2.3677 -1.9098 -1.2263
 3192TIP3    H231068   5.328   3.782   9.941 -2.0618 -0.6521 -0.6151
 3193TIP3   OH231069   0.023   3.047   9.673  0.7692 -0.3296  0.3720
 3193TIP3    H131070  -0.039   2.975   9.684  0.0810  0.3926  1.3846
 3193TIP3    H231071   0.103   3.005   9.642 -0.3857 -1.2051 -1.5644
 3194TIP3   OH231072   0.022   3.017  12.791 -0.2831  0.1300  0.4620
 3194TIP3    H131073   0.067   2.985  12.870 -1.7389 -0.1373  1.2273
 3194TIP3    H231074  -0.054   3.064  12.825 -0.1041  1.3557 -0.7697
 3195TIP3   OH231075   6.578   1.761  10.368  0.2258 -0.3598  0.0089
 3195TIP3    H131076   6.660   1.797  10.401 -1.7681  0.8658  4.4203
 3195TIP3    H231077   6.583   1.668  10.388  0.7693 -0.3844 -0.2477
 3196TIP3   OH231078   0.108   2.215   0.691 -0.2510  0.0038 -0.2315
 3196TIP3    H131079   0.146   2.302   0.704 -1.0451  0.8242 -2.7053
 3196TIP3    H231080   0.180   2.154   0.706  0.8335  1.2247 -0.3060
 3197TIP3   OH231081   1.234   2.894  11.217  0.0552  0.3365 -0.2423
 3197TIP3    H131082   1.146   2.914  11.248 -0.0767 -0.5220 -0.0409
 3197TIP3    H231083   1.289   2.899  11.295 -0.0182 -0.2952 -0.1454
 3198TIP3   OH231084   2.744   0.038  10.762  0.1364  0.0457  0.0883
 3198TIP3    H131085   2.796   0.097  10.708 -0.0095  0.4153  0.3452
 3198TIP3    H231086   2.654   0.068  10.749  0.0734 -0.0503  0.3048
 3199TIP3   OH231087   1.404   5.298   0.921 -0.8123  0.0795 -0.3626
 3199TIP3    H131088   1.443   5.272   0.838 -1.5172  1.3913 -1.1384
 3199TIP3    H231089   1.455   5.251   0.987  0.8953  0.3253 -1.4262
 3200TIP3   OH231090   4.624   3.367   3.784 -0.2536 -0.2589 -0.7847
 3200TIP3    H131091   4.655   3.376   3.875  0.1293  0.1795 -0.9568
 3200TIP3    H231092   4.676   3.296   3.748 -0.7661 -0.7876 -0.5139
 3201TIP3   OH231093   2.729   3.796  14.294 -0.2228  0.2144 -0.4366
 3201TIP3    H131094   2.824   3.788  14.280  0.0937  0.0338  1.4754
 3201TIP3    H231095   2.691   3.725  14.241  0.6681  0.4786 -1.4684
 3202TIP3   OH231096   5.111   2.854   1.066  0.0348  0.3852  0.2275
 3202TIP3    H131097   5.173   2.795   1.109  0.3917  1.0645  0.6474
 3202TIP3    H231098   5.099   2.816   0.979  2.0587  0.9420 -0.3487
 3203TIP3   OH231099   0.122   1.866  11.897 -0.4726  0.0728 -0.2669
 3203TIP3    H131100   0.139   1.924  11.971 -1.3229 -1.3246  1.0557
 3203TIP3    H231101   0.068   1.796  11.932 -0.3017 -1.0181 -2.0486
 3204TIP3   OH231102   2.254   1.237  14.529 -0.0869 -0.3063  0.2344
 3204TIP3    H131103   2.298   1.208  14.610  1.5852 -0.1267 -0.5602
 3204TIP3    H231104   2.290   1.180  14.461  0.0472  0.8568 -0.6888
 3205TIP3   OH231105   5.874   1.864   9.674 -0.5547 -0.3850  0.4750
 3205TIP3    H131106   5.843   1.780   9.640  0.3864 -0.5009 -0.1189
 3205TIP3    H231107   5.964   1.847   9.701 -0.1782  0.5662 -0.1431
 3206TIP3   OH231108   3.235   3.461  11.011  0.2367  0.3143 -0.0094
 3206TIP3    H131109   3.176   3.431  11.079  1.6591 -2.8520 -0.0069
 3206TIP3    H231110   3.208   3.551  10.994 -0.5978  1.0593  4.2172
 3207TIP3   OH231111   5.663   2.804   9.387  0.3613 -0.3966 -0.4181
 3207TIP3    H131112   5.597   2.830   9.323  0.7228 -0.6699 -0.9089
 3207TIP3    H231113   5.739   2.859   9.366 -0.4969  1.8107  1.7605
 3208TIP3   OH231114   3.491   2.142  11.765  0.0294  0.0837  1.0231
 3208TIP3    H131115   3.502   2.070  11.827  1.0046  0.2268  1.0315
 3208TIP3    H231116   3.504   2.221  11.818 -1.8788  0.3322  1.1959
 3209TIP3   OH231117   5.937   0.184  12.501 -0.2059  0.0492 -0.1928
 3209TIP3    H131118   5.973   0.227  12.423  0.9807  0.9245  0.7977
 3209TIP3    H231119   5.959   0.243  12.573 -2.6499  0.0383  0.6467
 3210TIP3   OH231120   0.739   2.683  10.514  0.0431 -0.4752  0.3046
 3210TIP3    H131121   0.814   2.656  10.567 -0.4880  0.0828  1.3891
 3210TIP3    H231122   0.665   2.633  10.551 -0.2595 -0.4116 -0.2064
 3211TIP3   OH231123   0.573   4.918  12.937  0.2714  0.1296  0.2107
 3211TIP3    H131124   0.607   4.922  12.847 -0.2861 -0.7245 -0.0562
 3211TIP3    H231125   0.627   4.850  12.979 -0.2561 -0.3329  0.1550
 3212TIP3   OH231126   2.849   0.608  14.703  0.4735  0.0650 -0.4523
 3212TIP3    H131127   2.911   0.605  14.631 -0.5278  1.2674 -1.4192
 3212TIP3    H231128   2.822   0.517  14.716  3.4345 -0.7171  0.9589
 3213TIP3   OH231129   1.575   5.446   2.722  0.3676 -0.1686 -0.4736
 3213TIP3    H131130   1.606   5.380   2.784  0.6743  0.0354 -0.4110
 3213TIP3    H231131   1.615   5.420   2.638  0.2242 -0.2488 -0.5187
 3214TIP3   OH231132   1.160   0.969  13.580  0.1883  0.9249  0.2063
 3214TIP3    H131133   1.130   0.985  13.669  0.4170  1.7678  0.1439
 3214TIP3    H231134   1.104   0.898  13.548  0.8159 -0.1370  1.3775
 3215TIP3   OH231135   4.355   4.453  11.131 -0.3666 -0.4903  0.3810
 3215TIP3    H131136   4.427   4.394  11.155 -0.4280 -0.5178  0.5006
 3215TIP3    H231137   4.380   4.538  11.169 -0.7695 -0.6872  1.1013
 3216TIP3   OH231138   4.268   3.046  10.490  0.0490 -0.1316 -0.2484
 3216TIP3    H131139   4.239   2.958  10.466  0.4907 -0.5654  0.7545
 3216TIP3    H231140   4.277   3.092  10.406 -0.0789 -1.0717 -0.7920
 3217TIP3   OH231141   1.737   5.692  13.442 -0.3076  0.1826  0.0462
 3217TIP3    H131142   1.812   5.685  13.383 -0.1060  0.2109  0.2985
 3217TIP3    H231143   1.661   5.687  13.384 -0.1085  1.3833 -0.3536
 3218TIP3   OH231144   2.298   1.012   0.644  0.3412 -0.2243 -0.2786
 3218TIP3    H131145   2.299   0.981   0.735  0.6907 -0.6697 -0.4315
 3218TIP3    H231146   2.302   0.932   0.592 -1.9924 -0.1114 -0.7192
 3219TIP3   OH231147   0.987   4.789  14.646  0.0112 -0.4999 -0.3473
 3219TIP3    H131148   1.054   4.760  14.707 -0.3963  0.4298  0.5778
 3219TIP3    H231149   1.008   4.880  14.628 -0.0676 -0.6657 -1.3484
 3220TIP3   OH231150   0.289   0.426   1.573  0.2078  0.1848 -0.0084
 3220TIP3    H131151   0.361   0.368   1.548 -1.2915 -0.8731 -2.1453
 3220TIP3    H231152   0.264   0.471   1.492 -1.7657  0.2620  0.5820
 3221TIP3   OH231153   6.491   6.817   1.705 -0.3256  0.2664 -0.5055
 3221TIP3    H131154   6.577   6.842   1.737 -0.9630  2.3410 -0.2489
 3221TIP3    H231155   6.502   6.808   1.610  0.5068 -1.1786 -0.3057
 3222TIP3   OH231156   5.505   3.838  14.485 -0.7560  0.0042  0.2462
 3222TIP3    H131157   5.570   3.863  14.551 -0.6294 -0.5694  0.3409
 3222TIP3    H231158   5.426   3.817  14.535 -0.4794 -1.0215  0.2735
 3223TIP3   OH231159   5.144   4.350   9.621  0.5331  0.3120  0.4188
 3223TIP3    H131160   5.095   4.422   9.581  0.6799 -0.0853 -0.5131
 3223TIP3    H231161   5.235   4.368   9.599  0.7470  0.6581  1.5205
 3224TIP3   OH231162   5.859   4.142   5.007 -0.6473 -0.3393 -0.2902
 3224TIP3    H131163   5.822   4.151   5.095  1.0145  0.9187  0.3382
 3224TIP3    H231164   5.788   4.171   4.949 -2.1721 -2.2866  0.4981
 3225TIP3   OH231165   0.434   4.449  10.994  0.0856  0.0409  0.4760
 3225TIP3    H131166   0.431   4.541  10.966  0.9487 -0.1663 -0.3578
 3225TIP3    H231167   0.344   4.419  10.989 -0.2553  0.9298  1.0789
 3226TIP3   OH231168   6.686   4.677  10.332  0.6173  0.0839  0.3199
 3226TIP3    H131169   6.713   4.599  10.284  1.1007 -0.2251  1.0735
 3226TIP3    H231170   6.621   4.719  10.275 -1.3677 -2.0492  0.8647
 3227TIP3   OH231171   5.528   2.952  10.821 -0.0947 -0.7860 -0.6839
 3227TIP3    H131172   5.542   2.876  10.877  0.5558 -0.9232 -1.0331
 3227TIP3    H231173   5.562   3.026  10.872 -0.3150 -0.7828 -0.5356
 3228TIP3   OH231174   6.771   2.434  12.933 -0.2221 -0.1001 -0.4196
 3228TIP3    H131175   6.848   2.411  12.985  0.5759  1.7173 -0.7210
 3228TIP3    H231176   6.719   2.489  12.991 -0.1549  0.5479 -0.9615
 3229TIP3   OH231177   4.533   4.452  14.869 -0.2503  0.7045  0.4673
 3229TIP3    H131178   4.528   4.531  14.815 -1.6923  0.3496  0.0380
 3229TIP3    H231179   4.445   4.441  14.904  0.2960  0.0955  1.7166
 3230TIP3   OH231180   0.039   6.543  12.734 -0.8096  0.6666 -0.3121
 3230TIP3    H131181  -0.021   6.473  12.711  1.0522 -0.7651 -1.0912
 3230TIP3    H231182   0.056   6.531  12.827  0.9950 -1.2348 -0.8130
 3231TIP3   OH231183   2.196   0.242  11.514 -0.0235 -0.2943 -0.0409
 3231TIP3    H131184   2.248   0.225  11.593 -1.4047 -1.3251  0.7028
 3231TIP3    H231185   2.164   0.156  11.488  2.0452 -0.3270 -2.9964
 3232TIP3   OH231186   0.656   2.730   3.370  0.6400  0.4332  0.4777
 3232TIP3    H131187   0.727   2.714   3.308 -0.5150 -0.5077 -0.6562
 3232TIP3    H231188   0.676   2.674   3.444  1.0601  0.1295  0.1420
 3233TIP3   OH231189   0.995   6.361  12.959 -0.0504 -0.4107 -0.2705
 3233TIP3    H131190   1.014   6.373  12.866 -0.6037  0.4678 -0.2771
 3233TIP3    H231191   0.933   6.287  12.961  0.4878 -0.8764 -0.5365
 3234TIP3   OH231192   4.392   2.870  14.770 -0.2771 -0.2534  0.0345
 3234TIP3    H131193   4.400   2.812  14.846  1.3544 -0.6101 -0.3697
 3234TIP3    H231194   4.298   2.880  14.757 -0.5829 -0.6106  1.7792
 3235TIP3   OH231195   5.662   4.965   1.542  0.0799 -0.1772  0.7951
 3235TIP3    H131196   5.701   4.979   1.629  0.7540  1.1982  0.3016
 3235TIP3    H231197   5.569   4.953   1.560  0.1542  0.4531  1.6939
 3236TIP3   OH231198   2.941   0.730  10.998 -0.0683  0.5622  0.1110
 3236TIP3    H131199   2.962   0.823  11.004  0.4116  0.4180  0.6944
 3236TIP3    H231200   3.019   0.685  11.030 -0.7926 -0.0130  1.1250
 3237TIP3   OH231201   3.372   4.238  12.405  0.1531 -0.3894 -1.0438
 3237TIP3    H131202   3.467   4.232  12.402  0.2794  0.6162  0.1421
 3237TIP3    H231203   3.346   4.170  12.467  0.2720  0.5269  0.0427
 3238TIP3   OH231204   4.835   1.464  10.650 -0.0118  0.4229  0.1320
 3238TIP3    H131205   4.899   1.397  10.630 -1.5804 -1.1972  0.2593
 3238TIP3    H231206   4.796   1.488  10.566 -0.7081 -0.1823  0.2695
 3239TIP3   OH231207   3.273   6.174   3.437 -0.5603 -0.1860  0.6526
 3239TIP3    H131208   3.323   6.118   3.496 -0.4506  0.3937  1.1232
 3239TIP3    H231209   3.197   6.203   3.489  0.3962  1.6760  1.1249
 3240TIP3   OH231210   5.466   1.015   1.525 -0.0114 -0.1728  0.3892
 3240TIP3    H131211   5.542   0.957   1.534 -0.0503 -0.1576  0.8249
 3240TIP3    H231212   5.502   1.103   1.534  0.0199 -0.1377 -0.0846
 3241TIP3   OH231213   0.451   4.350  11.599 -0.3005  0.1673  0.1782
 3241TIP3    H131214   0.408   4.384  11.677  1.2629  0.9429  0.7509
 3241TIP3    H231215   0.477   4.429  11.550  0.3842 -0.2769 -0.1886
 3242TIP3   OH231216   5.323   5.771  12.534  0.2640  0.5307  0.0057
 3242TIP3    H131217   5.352   5.720  12.609  0.9804 -0.0336 -0.6424
 3242TIP3    H231218   5.357   5.859  12.550  2.2718 -0.0783 -0.6699
 3243TIP3   OH231219   2.413   3.538  12.376 -0.2942  0.3236  0.5207
 3243TIP3    H131220   2.460   3.599  12.433 -0.2895  1.2939 -0.4882
 3243TIP3    H231221   2.462   3.538  12.294 -0.1195 -1.2978  0.5892
 3244TIP3   OH231222   7.036   0.894   0.777 -0.2478  0.7618 -0.3488
 3244TIP3    H131223   7.120   0.901   0.824 -0.6115  2.2761  0.1461
 3244TIP3    H231224   6.971   0.917   0.843 -0.9731  0.6003 -1.0035
 3245TIP3   OH231225   4.899   6.028  11.400 -0.1425 -0.2740  0.2702
 3245TIP3    H131226   4.966   5.982  11.451  0.1454 -0.7725 -0.5346
 3245TIP3    H231227   4.944   6.054  11.320 -0.5966  0.4742  0.2543
 3246TIP3   OH231228   4.479   0.474  10.913 -0.2191 -0.2491 -0.3094
 3246TIP3    H131229   4.423   0.428  10.977  0.3655 -0.3960  0.1030
 3246TIP3    H231230   4.561   0.426  10.915 -0.2044 -0.2676 -1.2049
 3247TIP3   OH231231   5.560   5.761  15.251  0.5892 -0.1302 -0.1989
 3247TIP3    H131232   5.505   5.840  15.262 -0.0605 -0.7401  1.2434
 3247TIP3    H231233   5.650   5.794  15.256  0.3387  0.6537 -0.6583
 3248TIP3   OH231234   4.339   0.798  13.544 -1.1394 -0.0985  0.8045
 3248TIP3    H131235   4.333   0.778  13.450 -2.8895  1.6605  0.4736
 3248TIP3    H231236   4.390   0.726  13.580  0.5389 -0.2828 -1.6591
 3249TIP3   OH231237   2.444   4.451  13.122 -0.1305  0.4447  0.1141
 3249TIP3    H131238   2.363   4.423  13.165 -0.0296 -0.7852 -0.4614
 3249TIP3    H231239   2.501   4.480  13.194 -1.7995  3.4497  0.4141
 3250TIP3   OH231240   3.606   5.831  13.421 -0.0031 -0.3293  0.3077
 3250TIP3    H131241   3.668   5.830  13.349  1.0256 -0.8173  1.1784
 3250TIP3    H231242   3.524   5.798  13.383  0.9148 -2.0158 -0.3011
 3251TIP3   OH231243   1.004   1.595  10.493  0.2808  0.5682 -0.2735
 3251TIP3    H131244   0.913   1.611  10.469 -0.0365 -0.6546  0.0397
 3251TIP3    H231245   1.055   1.656  10.440 -0.6747  0.7434 -0.9998
 3252TIP3   OH231246   5.198   3.189  11.287 -0.4240  0.0346 -0.3312
 3252TIP3    H131247   5.170   3.264  11.234  0.4199 -1.0593 -2.4519
 3252TIP3    H231248   5.283   3.164  11.250  0.0031 -1.0813  1.2931
 3253TIP3   OH231249   2.913   5.632   1.995  0.0437 -0.3356 -0.2659
 3253TIP3    H131250   2.848   5.572   1.958  0.1995  0.1355 -1.3484
 3253TIP3    H231251   2.981   5.576   2.030 -0.1961 -0.8062 -0.5513
 3254TIP3   OH231252   0.332   3.999  10.503  0.3818  0.4949  1.1541
 3254TIP3    H131253   0.347   4.068  10.438 -0.2040  0.1237  0.6108
 3254TIP3    H231254   0.410   3.944  10.498 -0.5498 -0.7923 -0.8528
 3255TIP3   OH231255   2.844   4.767   2.536 -0.2544 -0.3238  0.3830
 3255TIP3    H131256   2.796   4.810   2.466 -1.0180 -1.0264  0.4687
 3255TIP3    H231257   2.789   4.693   2.562  0.6520 -0.8708  0.7980
 3256TIP3   OH231258   0.050   4.199  15.150 -0.2442  0.6292  0.0893
 3256TIP3    H131259   0.072   4.223  15.240 -1.4061 -0.1674  0.6103
 3256TIP3    H231260   0.000   4.117  15.158 -0.4290  0.5783 -1.2700
 3257TIP3   OH231261   7.116   5.826  11.532 -0.4834 -0.4070  0.0442
 3257TIP3    H131262   7.163   5.815  11.615 -0.0605 -3.0095 -0.4361
 3257TIP3    H231263   7.102   5.920  11.524  0.7549  0.0452  2.3490
 3258TIP3   OH231264   5.514   5.132  10.715  0.0301 -0.6033 -0.1470
 3258TIP3    H131265   5.466   5.215  10.708 -0.3907 -0.9235 -1.2794
 3258TIP3    H231266   5.606   5.158  10.725  0.2246  0.0556 -2.8841
 3259TIP3   OH231267   4.473   5.967  12.456 -0.4294 -0.1055  0.0425
 3259TIP3    H131268   4.560   6.001  12.433 -0.7365  1.7972  1.4776
 3259TIP3    H231269   4.486   5.921  12.539 -0.3610 -2.1193 -1.0183
 3260TIP3   OH231270   2.025   4.929  15.089 -0.4003 -0.2432  0.1239
 3260TIP3    H131271   2.004   4.985  15.015  1.1904  0.2500 -0.0006
 3260TIP3    H231272   1.942   4.917  15.135 -1.0249  1.1199 -0.5988
 3261TIP3   OH231273   4.165   5.168  10.432  0.0897 -0.0171 -0.5118
 3261TIP3    H131274   4.075   5.154  10.461  0.0512  0.1926 -0.5266
 3261TIP3    H231275   4.157   5.211  10.347  0.1994  0.8953 -0.0775
 3262TIP3   OH231276   4.077   1.309  11.656 -0.5053 -0.2164 -0.4687
 3262TIP3    H131277   4.139   1.377  11.629 -0.4838  0.0922  0.3314
 3262TIP3    H231278   4.092   1.237  11.594  1.2308 -0.4794  0.1969
 3263TIP3   OH231279   5.930   0.407  11.251 -0.5030  0.3161 -0.3483
 3263TIP3    H131280   5.997   0.383  11.316 -0.2508  0.9940 -0.3451
 3263TIP3    H231281   5.867   0.336  11.254  1.0419 -1.1663 -1.5066
 3264TIP3   OH231282   2.934   1.215  12.426 -0.3574  0.4147 -0.2134
 3264TIP3    H131283   3.020   1.193  12.463 -0.6948 -0.7028 -0.0516
 3264TIP3    H231284   2.935   1.177  12.338 -1.7322 -2.3030  0.8289
 3265TIP3   OH231285   3.095   3.975  11.335  0.1325  0.2393  0.4300
 3265TIP3    H131286   3.041   4.033  11.389 -1.6118 -1.2052  0.3314
 3265TIP3    H231287   3.175   3.961  11.387  0.2991  2.1116  0.7530
 3266TIP3   OH231288   6.480   5.503  13.742 -0.4116  0.3850  0.2382
 3266TIP3    H131289   6.451   5.432  13.799 -1.3296  0.0786 -0.5726
 3266TIP3    H231290   6.558   5.468  13.699 -1.2540 -0.4345 -0.6781
 3267TIP3   OH231291   3.828   2.067  13.416  0.5028  0.2207 -0.3217
 3267TIP3    H131292   3.923   2.058  13.411  0.4270 -1.1968  0.4004
 3267TIP3    H231293   3.796   2.017  13.341  0.2715 -0.5701  0.3060
 3268TIP3   OH231294   4.835   4.314  14.378 -0.3766 -0.2777  0.3098
 3268TIP3    H131295   4.800   4.232  14.413 -0.1442 -0.3353  0.4084
 3268TIP3    H231296   4.758   4.367  14.359 -0.5481 -0.6582 -0.0978
 3269TIP3   OH231297   6.852   2.835   0.004 -0.0604 -0.6649 -0.6371
 3269TIP3    H131298   6.894   2.919   0.026 -0.7292 -0.6871  0.8331
 3269TIP3    H231299   6.771   2.860  -0.041 -0.0272 -0.5246 -0.6196
 3270TIP3   OH231300   0.371   5.153  10.131  0.0134  0.4296  0.7734
 3270TIP3    H131301   0.347   5.076  10.080 -1.0203 -0.0134  1.8913
 3270TIP3    H231302   0.438   5.197  10.077 -1.3603  0.2685 -1.1836
 3271TIP3   OH231303   4.700   3.876  12.600 -0.0960 -0.5959  0.2665
 3271TIP3    H131304   4.796   3.873  12.609  0.1454  0.4846 -1.4720
 3271TIP3    H231305   4.686   3.919  12.516 -2.0899 -2.3960 -0.3897
 3272TIP3   OH231306   5.735   7.145  10.324  0.8757 -0.0062  0.0873
 3272TIP3    H131307   5.666   7.095  10.281  1.0669  0.2285 -0.5067
 3272TIP3    H231308   5.757   7.094  10.401  0.0586 -0.1011  0.2739
 3273TIP3   OH231309   4.580   0.170  11.464  0.5717  0.1272 -0.1768
 3273TIP3    H131310   4.638   0.131  11.398  1.6433 -0.0350  0.8447
 3273TIP3    H231311   4.559   0.098  11.523  3.8740  1.2693  2.6846
 3274TIP3   OH231312   0.533   6.957  14.598  0.4401  0.2053 -0.9546
 3274TIP3    H131313   0.446   6.961  14.639  1.1190  2.0845  0.4774
 3274TIP3    H231314   0.578   6.886  14.644 -0.5384 -1.3166 -2.2500
 3275TIP3   OH231315   6.687   6.788   4.789 -0.3674 -0.0346  0.3957
 3275TIP3    H131316   6.697   6.803   4.695  0.1009  0.9585  0.5953
 3275TIP3    H231317   6.773   6.759   4.818 -0.7027 -1.0748  0.4027
 3276TIP3   OH231318   6.177   5.912   0.634 -0.0460  0.2601  0.1729
 3276TIP3    H131319   6.106   5.973   0.614  0.5359  0.8181 -0.2024
 3276TIP3    H231320   6.161   5.886   0.725 -0.6974  0.4260  0.1103
 3277TIP3   OH231321   0.734   2.694  11.816 -0.0721 -0.5203  0.2679
 3277TIP3    H131322   0.797   2.758  11.848 -0.7256 -0.3479  1.2676
 3277TIP3    H231323   0.694   2.735  11.740  2.2731 -1.3764 -1.5281
 3278TIP3   OH231324   1.007   3.883  12.133  0.5176 -0.9197 -0.1714
 3278TIP3    H131325   0.966   3.798  12.120 -0.1104 -0.4943 -1.1608
 3278TIP3    H231326   0.994   3.903  12.225 -0.9388 -1.0971 -0.3129
 3279TIP3   OH231327   0.726   6.115   9.554 -0.1571 -0.4959  0.7754
 3279TIP3    H131328   0.646   6.164   9.573  0.7740  1.6945 -0.6574
 3279TIP3    H231329   0.699   6.050   9.489 -0.9945 -0.5637  1.1710
 3280TIP3   OH231330   5.394   3.496  12.308  0.1048  0.7563  0.4140
 3280TIP3    H131331   5.380   3.556  12.234  0.1316  0.7917  0.4373
 3280TIP3    H231332   5.363   3.545  12.384  1.1788  1.1873  0.5923
 3281TIP3   OH231333   3.395   3.270   9.893 -0.1240  0.0817  0.7768
 3281TIP3    H131334   3.303   3.245   9.878  0.1705 -0.2221 -0.5879
 3281TIP3    H231335   3.402   3.358   9.856  0.3090 -0.1847  0.2148
 3282TIP3   OH231336   1.700   1.591  11.413 -0.7157 -0.2508 -0.0271
 3282TIP3    H131337   1.638   1.607  11.342 -0.4824  2.2096  0.2334
 3282TIP3    H231338   1.669   1.648  11.484  1.9807  1.3266 -0.0064
 3283TIP3   OH231339   0.429   4.411  10.366 -0.3904  0.3163 -0.8513
 3283TIP3    H131340   0.518   4.382  10.383 -0.4439  0.8678  0.4564
 3283TIP3    H231341   0.421   4.407  10.271  0.7244 -0.5942 -0.9347
 3284TIP3   OH231342   3.392   6.451   1.379 -0.3984  0.9293 -0.0122
 3284TIP3    H131343   3.346   6.516   1.433 -0.9319  0.6624 -0.1357
 3284TIP3    H231344   3.323   6.391   1.350  0.1905 -0.1884  0.7997
 3285TIP3   OH231345   0.819   0.877  14.370  0.2023  0.1616  0.3255
 3285TIP3    H131346   0.736   0.896  14.415 -0.5285  0.0030 -0.9054
 3285TIP3    H231347   0.822   0.782  14.364  1.5967  0.0172  2.3398
 3286TIP3   OH231348   5.747   6.650  12.267 -0.2589  1.1282 -0.4881
 3286TIP3    H131349   5.682   6.638  12.197 -1.6943 -0.2877  1.0120
 3286TIP3    H231350   5.825   6.605  12.234 -1.2921 -0.5791 -0.7302
 3287TIP3   OH231351   5.794   5.680  12.239 -0.1222 -0.0920  0.1214
 3287TIP3    H131352   5.752   5.597  12.262 -1.2457 -0.1304 -1.8570
 3287TIP3    H231353   5.886   5.657  12.224 -0.4600 -1.0422 -0.5911
 3288TIP3   OH231354   4.386   6.661  13.813 -1.0209 -0.2268 -0.9015
 3288TIP3    H131355   4.434   6.737  13.845  1.1523 -1.1515 -1.7061
 3288TIP3    H231356   4.329   6.636  13.885 -1.3618  1.7776 -0.4097
 3289TIP3   OH231357   5.599   0.517  11.409 -0.2523 -0.4640 -0.1081
 3289TIP3    H131358   5.553   0.437  11.433  1.0454 -1.0711  0.4460
 3289TIP3    H231359   5.530   0.577  11.380 -1.3963 -1.2725  0.8663
 3290TIP3   OH231360   2.814   0.736  10.514  0.5769  0.2739 -0.7552
 3290TIP3    H131361   2.893   0.736  10.568  0.8049 -2.9103 -0.9003
 3290TIP3    H231362   2.761   0.665  10.550 -0.3313 -0.3859 -3.2139
 3291TIP3   OH231363   1.361   4.047   4.792  0.4396  0.3261 -1.0561
 3291TIP3    H131364   1.313   4.130   4.784 -0.6302 -0.0255  0.9814
 3291TIP3    H231365   1.443   4.070   4.835  1.5508  0.7106 -3.2305
 3292TIP3   OH231366   2.359   2.606  11.583  0.0141 -0.2430  0.0533
 3292TIP3    H131367   2.452   2.630  11.582 -0.1707  0.8147 -3.3165
 3292TIP3    H231368   2.351   2.539  11.515 -1.8931  0.8736 -0.9078
 3293TIP3   OH231369   6.531   4.596  11.170  0.2832  0.3423 -0.0698
 3293TIP3    H131370   6.616   4.612  11.212  0.6945  2.7650 -1.6346
 3293TIP3    H231371   6.477   4.670  11.197 -1.2613 -0.9676  0.5795
 3294TIP3   OH231372   5.817   2.845   9.719  0.1581 -0.1504 -0.7250
 3294TIP3    H131373   5.862   2.906   9.660 -2.9862  1.7423 -1.3978
 3294TIP3    H231374   5.819   2.887   9.804  0.7699 -0.6963 -0.4642
 3295TIP3   OH231375   7.184   4.516  12.585 -0.3055  0.2255  0.6643
 3295TIP3    H131376   7.233   4.572  12.645  0.2295  0.5628 -0.0745
 3295TIP3    H231377   7.220   4.428  12.598  1.0776  0.5879 -0.4167
 3296TIP3   OH231378   2.927   7.043  13.800 -0.5389 -0.5782  0.3832
 3296TIP3    H131379   2.854   7.093  13.836 -0.8976 -1.4973  0.9818
 3296TIP3    H231380   2.903   6.951  13.815  1.1122 -0.8882  1.3501
 3297TIP3   OH231381   3.408   2.880  10.969  0.2613 -0.1930 -0.0613
 3297TIP3    H131382   3.408   2.879  11.065 -1.7007  0.3392 -0.0022
 3297TIP3    H231383   3.490   2.837  10.944  0.5932 -0.7590  1.8506
 3298TIP3   OH231384   1.505   4.558   0.599 -0.0860  0.8513 -0.6225
 3298TIP3    H131385   1.414   4.551   0.571  0.5002 -0.5950 -2.3690
 3298TIP3    H231386   1.516   4.489   0.664 -0.2144  1.0197 -0.4193
 3299TIP3   OH231387   0.873   0.597  13.235 -0.5308 -0.0753  0.3177
 3299TIP3    H131388   0.922   0.552  13.166 -0.1722  0.6194  0.1008
 3299TIP3    H231389   0.812   0.654  13.188 -0.5347  0.1366  0.5753
 3300TIP3   OH231390   3.069   2.747   3.114 -0.6762  0.0259  0.0172
 3300TIP3    H131391   3.131   2.741   3.187 -1.4359  0.5761  0.7299
 3300TIP3    H231392   3.017   2.826   3.133 -2.3813 -1.0624  0.0845
 3301TIP3   OH231393   4.829   3.556  10.816  0.4536  0.2703 -0.0098
 3301TIP3    H131394   4.906   3.584  10.767 -0.0601 -0.2279 -1.1432
 3301TIP3    H231395   4.810   3.468  10.783 -0.1653  0.0975  0.7823
 3302TIP3   OH231396   3.485   3.915   0.196  0.1927  0.3201 -0.1244
 3302TIP3    H131397   3.395   3.923   0.229  0.3703  0.9313  0.2179
 3302TIP3    H231398   3.529   3.861   0.262  0.3296  0.8503  0.2287
 3303TIP3   OH231399   0.245   5.635  14.563 -0.3935 -0.1825 -0.4015
 3303TIP3    H131400   0.333   5.651  14.599  0.0653 -0.7593 -1.2299
 3303TIP3    H231401   0.233   5.704  14.497 -0.7019  0.0929 -0.0611
 3304TIP3   OH231402   6.769   1.620  11.420  0.1430  0.6414 -0.0956
 3304TIP3    H131403   6.830   1.686  11.388  0.6424  1.5639  2.5492
 3304TIP3    H231404   6.813   1.537  11.402  1.8117  1.2484  0.8831
 3305TIP3   OH231405   0.560   1.962  11.857 -0.2635 -0.3259 -0.1121
 3305TIP3    H131406   0.595   1.922  11.777 -1.4644 -0.8295 -0.4057
 3305TIP3    H231407   0.534   2.050  11.830 -2.0806 -0.9959 -0.7004
 3306TIP3   OH231408   3.809   2.579   9.887 -0.1439 -0.5298 -0.4342
 3306TIP3    H131409   3.802   2.591   9.982  1.1108 -0.4752 -0.3319
 3306TIP3    H231410   3.732   2.622   9.852 -0.4112 -0.1796  0.5370
 3307TIP3   OH231411   5.689   6.556  13.316  0.4378 -0.1236  0.5807
 3307TIP3    H131412   5.616   6.607  13.351 -1.1757 -1.5071 -0.5741
 3307TIP3    H231413   5.713   6.602  13.235  1.5369  0.8724  1.4435
 3308TIP3   OH231414   0.139   3.151  10.471 -0.2663 -0.3074  0.0743
 3308TIP3    H131415   0.212   3.098  10.438 -0.8785 -1.7230  0.8995
 3308TIP3    H231416   0.146   3.234  10.423  2.0638 -0.2687  0.3889
 3309TIP3   OH231417   0.632   2.237  15.199 -0.2562  0.6414 -0.2492
 3309TIP3    H131418   0.638   2.196  15.113  1.5417 -0.9216  0.5332
 3309TIP3    H231419   0.722   2.243  15.229 -0.8988 -0.2696  2.1199
 3310TIP3   OH231420   3.820   7.144  13.666 -0.2259  0.1548 -0.5770
 3310TIP3    H131421   3.728   7.137  13.643 -0.1028 -0.6653 -0.8261
 3310TIP3    H231422   3.863   7.074  13.618  0.2093 -0.8193  1.1513
 3311TIP3   OH231423   1.440   1.779   9.308 -0.4375 -0.2717 -0.5834
 3311TIP3    H131424   1.418   1.691   9.339 -0.2297 -0.3916 -0.7684
 3311TIP3    H231425   1.536   1.780   9.305 -0.4406 -0.0404 -0.5852
 3312TIP3   OH231426   1.376   5.058  14.201  0.0123  0.0449 -0.1052
 3312TIP3    H131427   1.434   5.110  14.256  0.6269  0.9648 -1.5534
 3312TIP3    H231428   1.296   5.047  14.254  0.1737  1.7890  0.5601
 3313TIP3   OH231429   1.571   5.581  11.931  0.2978  1.1700 -0.0810
 3313TIP3    H131430   1.645   5.624  11.973  0.5242  1.9189 -1.2062
 3313TIP3    H231431   1.495   5.607  11.984  0.5948  1.9575 -0.0268
 3314TIP3   OH231432   7.074   1.633  11.518 -0.0426  0.1861  0.2906
 3314TIP3    H131433   7.050   1.587  11.599  1.3088 -1.0303  0.0199
 3314TIP3    H231434   7.045   1.576  11.448  0.8367  0.1607 -0.0618
 3315TIP3   OH231435   2.266   4.449  11.892  0.1463  0.0830  0.4336
 3315TIP3    H131436   2.179   4.461  11.931  0.0446  0.0726  0.2098
 3315TIP3    H231437   2.250   4.442  11.798  0.2696 -1.0655  0.4838
 3316TIP3   OH231438   1.343   2.278  14.837  0.2779  0.2028  0.1771
 3316TIP3    H131439   1.358   2.296  14.744 -0.4798 -0.0383 -0.0009
 3316TIP3    H231440   1.409   2.214  14.861  0.0021 -0.2957 -0.3880
 3317TIP3   OH231441   0.090   6.572   9.229  0.3326  0.0537 -0.0253
 3317TIP3    H131442   0.176   6.551   9.194  0.8056  1.1867  0.3965
 3317TIP3    H231443   0.108   6.624   9.307 -0.7212 -0.8013  0.8262
 3318TIP3   OH231444   1.197   0.303  13.028 -0.4300 -0.0397 -0.7436
 3318TIP3    H131445   1.250   0.375  13.061 -1.1206 -0.4806  1.4790
 3318TIP3    H231446   1.253   0.226  13.036 -0.6920 -0.1900 -0.3234
 3319TIP3   OH231447   1.115   5.494  14.556  0.0104  0.2904 -0.0661
 3319TIP3    H131448   1.051   5.453  14.614  0.8760  0.0658  0.7702
 3319TIP3    H231449   1.182   5.426  14.542  1.2092  1.2148  0.9230
 3320TIP3   OH231450   0.593   3.778   1.798 -0.1546 -0.0007 -0.0582
 3320TIP3    H131451   0.526   3.739   1.742 -0.2494 -0.9110  0.6600
 3320TIP3    H231452   0.545   3.816   1.871  0.0144  0.6280 -0.2684
 3321TIP3   OH231453   4.637   1.285  14.550 -0.2712  0.0633  0.0805
 3321TIP3    H131454   4.684   1.208  14.520 -0.3796  0.3367 -0.8192
 3321TIP3    H231455   4.547   1.255  14.562 -0.7206  0.4493 -2.0359
 3322TIP3   OH231456   3.350   1.509  15.252  0.1856  0.1044  0.7640
 3322TIP3    H131457   3.350   1.596  15.210 -0.0288 -0.2471  0.0063
 3322TIP3    H231458   3.378   1.526  15.342  2.1882  0.7007  0.0890
 3323TIP3   OH231459   5.132   3.257  10.715  0.2071  0.3449  0.7730
 3323TIP3    H131460   5.051   3.270  10.666  0.4527  1.0571  0.5341
 3323TIP3    H231461   5.104   3.240  10.805 -0.1911  2.0451  1.0033
 3324TIP3   OH231462   6.361   0.805   4.987  0.5813 -0.2306 -0.7871
 3324TIP3    H131463   6.306   0.884   4.984 -0.8401 -1.1681 -0.2047
 3324TIP3    H231464   6.378   0.791   5.080  0.2570 -0.9724 -0.8313
 3325TIP3   OH231465   1.556   5.200  11.088 -0.1098  0.3820 -0.7790
 3325TIP3    H131466   1.487   5.255  11.051 -1.3402 -0.7610 -0.2975
 3325TIP3    H231467   1.510   5.120  11.115  1.1847  0.1115  0.7682
 3326TIP3   OH231468   4.302   4.274   1.160  0.4115 -0.5250  0.7010
 3326TIP3    H131469   4.394   4.303   1.159 -0.0718  1.1660 -0.8079
 3326TIP3    H231470   4.280   4.261   1.068 -0.8049 -1.1313  1.0577
 3327TIP3   OH231471   2.713   0.388  12.210  0.3927  0.1899  0.4552
 3327TIP3    H131472   2.636   0.439  12.186  0.4033  0.2038  0.4509
 3327TIP3    H231473   2.779   0.412  12.144  0.2962 -0.0752  0.2589
 3328TIP3   OH231474   4.187   0.514  13.800  0.4256 -0.1589  0.4390
 3328TIP3    H131475   4.276   0.514  13.836  0.3441  1.2500  0.6925
 3328TIP3    H231476   4.139   0.450  13.853  1.0713 -0.3072  0.8552
 3329TIP3   OH231477   0.255   0.692   0.670 -0.0593  0.1411 -0.4155
 3329TIP3    H131478   0.176   0.724   0.627  0.4885  0.9424 -0.8422
 3329TIP3    H231479   0.238   0.702   0.763 -0.3673  0.5276 -0.5128
 3330TIP3   OH231480   7.065   0.401   4.162  0.1719 -0.1559 -0.7788
 3330TIP3    H131481   7.094   0.332   4.222 -2.3348 -0.7597 -0.1288
 3330TIP3    H231482   7.121   0.475   4.182  1.7246 -1.4351 -0.1905
 3331TIP3   OH231483   6.771   0.738  11.836 -0.6299 -0.2093 -0.7487
 3331TIP3    H131484   6.823   0.657  11.835  0.4973  0.4486 -2.9450
 3331TIP3    H231485   6.687   0.713  11.799 -0.3927 -0.4743 -1.1273
 3332TIP3   OH231486   2.345   0.112  12.640  0.1945  0.0402 -0.0338
 3332TIP3    H131487   2.281   0.041  12.633 -0.5076  0.5873  0.6033
 3332TIP3    H231488   2.303   0.187  12.599  0.3188  0.4749  0.6125
 3333TIP3   OH231489   2.251   6.720  12.946 -0.8480 -0.1280  0.2020
 3333TIP3    H131490   2.176   6.665  12.969 -1.4813 -0.2920 -2.0809
 3333TIP3    H231491   2.227   6.807  12.978 -1.2101 -0.5274  1.0578
 3334TIP3   OH231492   1.325   3.332  11.031 -0.1965 -0.2814  0.5789
 3334TIP3    H131493   1.379   3.388  11.087  0.6655  0.7532 -1.1982
 3334TIP3    H231494   1.300   3.389  10.958  1.1644 -2.2871 -1.5862
 3335TIP3   OH231495   4.419   2.957   0.526 -0.5620  0.1722  0.0390
 3335TIP3    H131496   4.472   2.878   0.515 -1.0350 -0.1778  0.2545
 3335TIP3    H231497   4.472   3.027   0.487 -0.6478 -0.4475 -1.2353
 3336TIP3   OH231498   5.691   6.819  13.854 -0.1717 -0.3475 -0.0842
 3336TIP3    H131499   5.612   6.869  13.871 -0.3506 -0.2739 -1.0564
 3336TIP3    H231500   5.752   6.845  13.923 -1.7323 -2.1410  2.1406
 3337TIP3   OH231501   2.288   2.550   0.052 -0.0594 -0.5064 -0.1431
 3337TIP3    H131502   2.271   2.456   0.061 -1.9043 -0.4052 -1.8806
 3337TIP3    H231503   2.202   2.588   0.036  0.9335  1.1613 -1.8135
 3338TIP3   OH231504   6.060   6.055  14.096  0.2698  0.0030 -0.1828
 3338TIP3    H131505   5.965   6.064  14.091  0.4114  1.8790 -0.1861
 3338TIP3    H231506   6.091   6.078  14.008  0.7488 -0.3908 -0.1229
 3339TIP3   OH231507   1.842   5.216  10.952  0.1905 -0.0242 -0.1298
 3339TIP3    H131508   1.917   5.156  10.959 -0.8002 -1.7641 -2.7542
 3339TIP3    H231509   1.782   5.186  11.021  0.6855 -0.5158  0.1005
 3340TIP3   OH231510   0.522   2.968  14.212  0.0844  0.4814 -0.2484
 3340TIP3    H131511   0.558   2.953  14.300 -2.1479  2.9858  1.2504
 3340TIP3    H231512   0.594   3.006  14.163  0.7141  1.4905  1.3621
 3341TIP3   OH231513   5.175   5.987  11.395 -0.8204  0.0598 -0.1210
 3341TIP3    H131514   5.176   5.980  11.491 -0.8164 -0.0348 -0.1273
 3341TIP3    H231515   5.265   6.011  11.372 -0.3704 -1.6227 -0.2287
 3342TIP3   OH231516   3.490   0.339   1.638 -0.7968  0.1062 -0.5280
 3342TIP3    H131517   3.433   0.319   1.564 -0.4218  0.8366 -1.0239
 3342TIP3    H231518   3.512   0.432   1.628  0.5601 -0.1721 -0.4139
 3343TIP3   OH231519   1.981   4.431   2.012 -0.0833  0.2274 -0.0376
 3343TIP3    H131520   1.984   4.388   1.926  2.6488  0.9651 -0.4269
 3343TIP3    H231521   2.025   4.369   2.071  2.0950  1.5141 -0.1946
 3344TIP3   OH231522   2.810   3.839  11.584 -0.5874  0.3107 -0.1132
 3344TIP3    H131523   2.730   3.825  11.635 -1.4594 -0.3737 -1.5929
 3344TIP3    H231524   2.788   3.910  11.524 -0.8322 -1.1731 -1.8895
 3345TIP3   OH231525   4.648   7.083   1.268 -0.0015 -0.8014 -0.1779
 3345TIP3    H131526   4.610   7.160   1.226 -0.2356 -1.3467 -0.9930
 3345TIP3    H231527   4.578   7.018   1.267  0.1469 -0.9905  0.6382
 3346TIP3   OH231528   0.298   4.299  13.965 -0.0810 -0.0568  0.6658
 3346TIP3    H131529   0.271   4.360  13.896  0.1477 -0.2925  0.3597
 3346TIP3    H231530   0.272   4.213  13.932  2.1125 -0.4463 -0.2341
 3347TIP3   OH231531   2.654   5.189  15.219 -0.5288  0.3608 -0.0325
 3347TIP3    H131532   2.702   5.271  15.211 -0.6958  0.3790 -1.0656
 3347TIP3    H231533   2.563   5.213  15.203 -0.8464  0.2541  1.4526
 3348TIP3   OH231534   5.588   6.895   4.187 -0.4031 -0.0773 -0.1886
 3348TIP3    H131535   5.495   6.887   4.209 -0.2487 -4.0628 -0.2999
 3348TIP3    H231536   5.593   6.877   4.093  0.4692  0.0293 -0.1732
 3349TIP3   OH231537   5.984   3.148  11.227 -0.6652  0.1949  0.1796
 3349TIP3    H131538   6.047   3.172  11.159  0.0163  1.6488  1.2975
 3349TIP3    H231539   6.034   3.096  11.289 -1.5335 -2.0783 -0.8884
 3350TIP3   OH231540   3.944   3.135   0.582  0.4522  0.1599  0.4677
 3350TIP3    H131541   3.849   3.128   0.594  0.7236 -1.0626  2.4691
 3350TIP3    H231542   3.961   3.099   0.495 -1.0029  1.5420 -0.4354
 3351TIP3   OH231543   6.929   1.994  13.141  0.3993  0.4576 -0.8418
 3351TIP3    H131544   6.947   2.037  13.224  0.4961 -0.3460 -0.4344
 3351TIP3    H231545   6.838   2.018  13.121  0.0188 -0.1841  0.0344
 3352TIP3   OH231546   2.263   0.331  14.288  0.0773 -0.4804  0.6800
 3352TIP3    H131547   2.223   0.245  14.290 -2.1242  0.4787  0.4405
 3352TIP3    H231548   2.266   0.354  14.195  0.1859 -0.1026  0.7751
 3353TIP3   OH231549   4.778   6.451  13.470  0.6024 -0.1903  0.1258
 3353TIP3    H131550   4.748   6.482  13.555  1.2653 -1.5794  0.8818
 3353TIP3    H231551   4.837   6.520  13.438  0.9876 -0.0333  1.1564
 3354TIP3   OH231552   5.705   2.438  12.047 -0.5168  0.0486 -0.6733
 3354TIP3    H131553   5.772   2.370  12.053 -1.9079 -1.2479  2.0362
 3354TIP3    H231554   5.725   2.498  12.119 -1.1996  0.7060 -1.0136
 3355TIP3   OH231555   0.836   5.188   0.154  0.3506  0.5346  0.9483
 3355TIP3    H131556   0.852   5.258   0.217 -0.6690  1.5422  0.1327
 3355TIP3    H231557   0.923   5.166   0.119  0.8788  0.2090  2.4141
 3356TIP3   OH231558   3.924   3.848  15.130 -0.5139 -0.0787  0.1350
 3356TIP3    H131559   3.892   3.904  15.200  1.8870 -0.0871  1.3381
 3356TIP3    H231560   4.017   3.837  15.148 -0.3559 -2.3163 -1.5470
 3357TIP3   OH231561   2.081   0.302   9.895 -0.1158 -0.0224 -0.2375
 3357TIP3    H131562   2.147   0.264   9.836  0.9047  0.9800  0.2227
 3357TIP3    H231563   2.056   0.384   9.852  1.6617  1.4295  1.3226
 3358TIP3   OH231564   1.335   0.723  10.518 -0.2197  0.3374 -0.0376
 3358TIP3    H131565   1.379   0.807  10.504  0.7660 -0.1610 -0.0029
 3358TIP3    H231566   1.323   0.717  10.613  0.5595  0.0312  0.0500
 3359TIP3   OH231567   5.735   3.555  11.690 -0.2795 -0.2190 -0.3946
 3359TIP3    H131568   5.682   3.634  11.681  0.2375  0.0598 -1.1586
 3359TIP3    H231569   5.822   3.582  11.660  0.3200 -0.6490  0.8900
 3360TIP3   OH231570   3.264   2.572  14.313  0.3351 -0.3249 -0.0232
 3360TIP3    H131571   3.323   2.523  14.256  1.7768  0.9610  0.2937
 3360TIP3    H231572   3.313   2.584  14.395 -0.2524  0.9647  0.1755
 3361TIP3   OH231573   6.270   4.322  12.132 -0.1550 -0.6532 -0.7395
 3361TIP3    H131574   6.212   4.267  12.185  3.2001 -1.0658  2.9535
 3361TIP3    H231575   6.247   4.411  12.158 -0.6846 -0.6673 -1.1343
 3362TIP3   OH231576   6.640   0.822  10.937 -0.2627  0.2229  0.6621
 3362TIP3    H131577   6.559   0.813  10.986  0.5853  0.4068  2.1539
 3362TIP3    H231578   6.709   0.798  10.999  0.9277  1.5053 -0.0874
 3363TIP3   OH231579   2.863   3.159  14.155 -0.3086  0.2795  0.5996
 3363TIP3    H131580   2.770   3.135  14.160 -0.1535 -0.5344 -0.2136
 3363TIP3    H231581   2.881   3.164  14.061  0.3599  0.8882  0.7580
 3364TIP3   OH231582   4.202   1.222  11.941 -0.6977  0.5363 -0.0985
 3364TIP3    H131583   4.133   1.282  11.913 -0.4230  0.5148 -0.8292
 3364TIP3    H231584   4.155   1.150  11.982 -1.3283 -0.7416 -2.8522
 3365TIP3   OH231585   4.732   0.209   1.546  0.7419 -0.2446 -0.2344
 3365TIP3    H131586   4.828   0.213   1.547  0.7492  0.0731  1.3224
 3365TIP3    H231587   4.706   0.272   1.479  1.6207  1.0275  0.5573
 3366TIP3   OH231588   1.900   2.452  13.679  0.2504  0.5123 -0.0809
 3366TIP3    H131589   1.866   2.529  13.635 -2.1864 -0.1480  0.4927
 3366TIP3    H231590   1.880   2.379  13.620  0.7191  0.0761  0.2786
 3367TIP3   OH231591   3.497   0.086   0.443  0.0302  0.1852  0.5557
 3367TIP3    H131592   3.421   0.114   0.392  0.1924 -0.1945  0.0972
 3367TIP3    H231593   3.505   0.152   0.512 -0.3927  0.5243  0.2878
 3368TIP3   OH231594   6.333   6.115   0.121  0.5853 -0.2483  0.1342
 3368TIP3    H131595   6.284   6.108   0.039  0.2926 -2.3328  0.4396
 3368TIP3    H231596   6.418   6.076   0.102  0.5199 -0.7415  0.8018
 3369TIP3   OH231597   0.948   6.360   9.953  0.6552  0.1379  0.3298
 3369TIP3    H131598   0.881   6.428   9.953 -0.4273 -0.8908 -0.5459
 3369TIP3    H231599   1.004   6.382  10.027 -1.6496  0.0859  2.2215
 3370TIP3   OH231600   6.874   4.553  14.806 -0.1091 -0.5620 -0.0587
 3370TIP3    H131601   6.967   4.531  14.803 -0.0850 -0.6020  0.6347
 3370TIP3    H231602   6.868   4.639  14.766  0.0412 -1.0922 -1.2544
 3371TIP3   OH231603   6.730   1.393  14.016 -0.4187  0.3208  0.2097
 3371TIP3    H131604   6.757   1.335  14.087 -1.3136 -0.4372 -0.0411
 3371TIP3    H231605   6.772   1.356  13.938  0.2683  0.9352  0.2849
 3372TIP3   OH231606   5.994   6.375   1.164 -0.0975 -0.6879 -0.2082
 3372TIP3    H131607   6.012   6.299   1.219  0.6810  0.0556  0.5792
 3372TIP3    H231608   6.008   6.344   1.075  2.3699 -0.9264  0.1920
 3373TIP3   OH231609   4.495   1.785   9.719  0.3685 -0.2195  0.3512
 3373TIP3    H131610   4.450   1.800   9.636 -0.2148  0.1811  0.7336
 3373TIP3    H231611   4.547   1.706   9.704 -0.2045 -0.5022 -0.2060
 3374TIP3   OH231612   2.923   5.961   0.308  0.2692  0.0350  0.2522
 3374TIP3    H131613   3.006   5.938   0.349  0.3209  0.9915  0.7067
 3374TIP3    H231614   2.931   5.931   0.218  0.6078 -1.0297  0.6260
 3375TIP3   OH231615   4.034   0.797  12.744 -0.3861  0.1682 -0.1009
 3375TIP3    H131616   3.963   0.786  12.807  1.1444 -1.3088  1.4498
 3375TIP3    H231617   4.001   0.756  12.664 -2.6953  2.8043 -0.6875
 3376TIP3   OH231618   2.248   0.743  13.484  0.3324 -0.0078  0.1300
 3376TIP3    H131619   2.207   0.696  13.411  0.1696  2.3345 -1.3677
 3376TIP3    H231620   2.335   0.704  13.491 -0.1421 -1.2241 -0.3611
 3377TIP3   OH231621   6.868   5.146  11.046  0.0584  0.4367  0.3483
 3377TIP3    H131622   6.895   5.060  11.076  0.9751 -0.0038 -1.5593
 3377TIP3    H231623   6.806   5.128  10.975  0.9996  1.2850 -0.7316
 3378TIP3   OH231624   0.360   6.492   4.246  0.5539 -0.3656  0.2291
 3378TIP3    H131625   0.298   6.562   4.226  0.3541 -0.0444  1.8031
 3378TIP3    H231626   0.442   6.519   4.204  0.4799  0.8374  0.8146
 3379TIP3   OH231627   5.472   7.028  12.424  0.1703  0.1365 -0.3168
 3379TIP3    H131628   5.545   7.031  12.485 -0.0463 -0.6709 -0.0062
 3379TIP3    H231629   5.394   7.031  12.480 -0.0659  1.9462 -0.6820
 3380TIP3   OH231630   4.945   4.945  11.470  0.7176  0.0349  0.0814
 3380TIP3    H131631   5.034   4.922  11.498  1.0049 -0.2560 -1.0425
 3380TIP3    H231632   4.896   4.953  11.552  0.8998 -3.2919  0.6304
 3381TIP3   OH231633   5.892   6.653  11.852 -0.4633  0.1697  0.0364
 3381TIP3    H131634   5.944   6.629  11.775 -0.9682 -0.7272 -0.0399
 3381TIP3    H231635   5.815   6.696  11.817  0.2603  1.6469  0.1559
 3382TIP3   OH231636   4.673   2.570   3.228 -0.1190 -0.5566 -0.4235
 3382TIP3    H131637   4.663   2.657   3.266  3.4252  0.3793 -1.2894
 3382TIP3    H231638   4.617   2.514   3.281 -0.6864  1.8294  1.6737
 3383TIP3   OH231639   0.047   1.692  14.264  0.2642 -0.1102  0.2676
 3383TIP3    H131640   0.098   1.671  14.343  0.2831 -1.0068  0.0241
 3383TIP3    H231641   0.017   1.782  14.279  1.6381  0.3225  0.5619
 3384TIP3   OH231642   6.765   6.359   0.979  0.1020  0.0435 -0.6445
 3384TIP3    H131643   6.796   6.394   0.896  0.2023 -2.5913 -1.8320
 3384TIP3    H231644   6.842   6.316   1.017 -0.3555 -0.2617 -0.0438
 3385TIP3   OH231645   6.706   0.603  12.575  0.0303 -0.2408 -0.4802
 3385TIP3    H131646   6.630   0.581  12.521 -1.2324 -0.9887  1.4948
 3385TIP3    H231647   6.678   0.681  12.624  0.9593  0.1200 -0.4976
 3386TIP3   OH231648   0.124   1.747  12.276  0.1431 -0.3587  0.4265
 3386TIP3    H131649   0.185   1.685  12.236 -0.6209 -0.6663 -0.2878
 3386TIP3    H231650   0.142   1.740  12.370  3.2453  1.7010  0.1457
 3387TIP3   OH231651   4.938   7.138  11.232  0.3763 -0.1676 -0.4300
 3387TIP3    H131652   4.994   7.074  11.275  0.5710 -0.2817 -0.8437
 3387TIP3    H231653   4.880   7.086  11.175 -0.7889 -0.1283  0.6780
 3388TIP3   OH231654   6.009   1.180   1.794 -0.8814 -0.0662  0.2962
 3388TIP3    H131655   5.974   1.195   1.882  1.8212 -1.4395  1.7183
 3388TIP3    H231656   6.084   1.122   1.808  1.0639  1.5280 -2.6426
 3389TIP3   OH231657   5.912   6.437  12.021  0.4393  0.4593  0.4548
 3389TIP3    H131658   5.986   6.459  12.078  1.4510  0.3070 -0.7590
 3389TIP3    H231659   5.903   6.514  11.964 -1.8150  1.4610  2.0028
 3390TIP3   OH231660   1.593   3.271  11.855  0.0504  0.0449 -0.3615
 3390TIP3    H131661   1.670   3.215  11.861 -0.3713 -0.4477  0.5314
 3390TIP3    H231662   1.545   3.239  11.779  0.8560  0.5388 -1.1008
 3391TIP3   OH231663   6.269   5.813   0.364  0.1870 -0.5578  0.0629
 3391TIP3    H131664   6.256   5.850   0.451  1.4906 -0.3256  0.1754
 3391TIP3    H231665   6.211   5.864   0.307 -0.3151 -0.3959  0.7132
 3392TIP3   OH231666   3.234   2.591  13.198  0.1490 -0.2592 -0.0138
 3392TIP3    H131667   3.200   2.503  13.213  0.5137 -0.1604  1.5647
 3392TIP3    H231668   3.169   2.650  13.236  0.3064  0.1070 -0.3030
 3393TIP3   OH231669   3.030   3.348  11.776  0.7918  0.6658 -0.1022
 3393TIP3    H131670   3.001   3.258  11.763  1.4451  0.3526  0.5448
 3393TIP3    H231671   2.959   3.401  11.741 -0.3097 -0.0824  0.9074
 3394TIP3   OH231672   4.064   3.827   2.661 -0.4457 -0.1328  0.0767
 3394TIP3    H131673   4.147   3.784   2.683  0.1938  1.6144  1.3746
 3394TIP3    H231674   4.072   3.847   2.568  1.1001  0.9365  0.3938
 3395TIP3   OH231675   6.721   1.097  10.361 -0.2602 -0.7340  0.4787
 3395TIP3    H131676   6.653   1.073  10.424 -1.2730 -1.5382 -0.8463
 3395TIP3    H231677   6.738   1.016  10.312  0.0889 -0.0129 -0.6366
 3396TIP3   OH231678   7.097   1.356   0.182  0.4041 -0.6223  0.0253
 3396TIP3    H131679   7.052   1.284   0.139  0.8558 -0.3663 -0.8986
 3396TIP3    H231680   7.122   1.322   0.268  0.2229 -1.4157 -0.2347
 3397TIP3   OH231681   6.464   1.163  10.027  0.1722  0.3894  0.0878
 3397TIP3    H131682   6.525   1.209   9.969 -0.7393  0.9503 -0.4549
 3397TIP3    H231683   6.378   1.181   9.989 -0.3877  0.2394  1.2604
 3398TIP3   OH231684   3.076   5.806   9.984  0.1751  0.5095 -1.0031
 3398TIP3    H131685   3.123   5.837   9.906  0.1372 -0.3201 -1.3690
 3398TIP3    H231686   3.123   5.843  10.058  1.7965 -0.7911 -1.3354
 3399TIP3   OH231687   5.270   0.239  12.671 -0.1338 -0.0705  0.6920
 3399TIP3    H131688   5.302   0.157  12.708  1.9432  0.1714 -0.4454
 3399TIP3    H231689   5.327   0.306  12.707  2.5892  0.1008 -3.3147
 3400TIP3   OH231690   6.192   2.467  14.345  0.6291 -0.0816  0.3489
 3400TIP3    H131691   6.122   2.525  14.374  0.0990  0.6932 -2.1945
 3400TIP3    H231692   6.180   2.462  14.250  2.8123 -1.5618  0.0899
 3401TIP3   OH231693   1.158   2.943  12.279  0.2934  0.1053 -0.1343
 3401TIP3    H131694   1.082   2.971  12.331  2.3292  1.9850  2.0421
 3401TIP3    H231695   1.173   3.016  12.218 -0.8923 -1.2488 -2.1918
 3402TIP3   OH231696   2.571   6.079   4.886 -0.1018 -0.3347  0.2484
 3402TIP3    H131697   2.606   6.047   4.802  0.4341  1.1529 -0.1191
 3402TIP3    H231698   2.609   6.021   4.951  0.5277 -0.7046 -0.4300
 3403TIP3   OH231699   3.103   1.264  11.162  0.4497 -0.6667 -0.4438
 3403TIP3    H131700   3.171   1.201  11.184  1.7431 -0.2050 -2.7570
 3403TIP3    H231701   3.143   1.349  11.181  0.1763 -0.4182 -0.9818
 3404TIP3   OH231702   4.435   2.809  13.226  0.7410 -0.3708 -0.6544
 3404TIP3    H131703   4.473   2.787  13.311  1.0734 -3.1712 -1.4248
 3404TIP3    H231704   4.484   2.886  13.198  2.1926 -0.7224  0.7384
 3405TIP3   OH231705   7.157   6.375  11.008  0.5655  0.3617 -0.1903
 3405TIP3    H131706   7.192   6.355  10.921 -0.4606 -0.9429 -0.3415
 3405TIP3    H231707   7.067   6.403  10.991  0.8135  1.5403  0.3550
 3406TIP3   OH231708   0.352   3.364  10.430  0.5793  0.4158 -0.6732
 3406TIP3    H131709   0.273   3.372  10.377 -0.0474 -1.0685 -0.0193
 3406TIP3    H231710   0.415   3.321  10.372  1.0852  2.0072 -1.3426
 3407TIP3   OH231711   6.303   6.041  11.013 -0.0241  0.3409  0.3662
 3407TIP3    H131712   6.371   6.109  11.016 -0.3576  0.6477  1.4143
 3407TIP3    H231713   6.240   6.074  10.948  1.6644 -0.8063 -2.0287
 3408TIP3   OH231714   4.297   4.099  14.921 -0.3794  0.0002 -0.6227
 3408TIP3    H131715   4.256   4.184  14.935  0.7326  0.5919 -0.8204
 3408TIP3    H231716   4.388   4.120  14.897  0.4245 -1.2825  1.0845
 3409TIP3   OH231717   6.525   2.769  12.843  0.3343 -0.1135  0.2060
 3409TIP3    H131718   6.614   2.739  12.827 -0.0649 -0.6670 -1.0817
 3409TIP3    H231719   6.530   2.818  12.926  1.9610  0.4916 -0.2309
 3410TIP3   OH231720   0.705   3.027  10.099 -0.2463 -0.3135  0.7353
 3410TIP3    H131721   0.683   3.025  10.006 -0.0944  1.3027  0.6419
 3410TIP3    H231722   0.790   2.981  10.104 -2.0518 -4.0311  0.7108
 3411TIP3   OH231723   5.153   4.074   3.340  0.1198  0.3573 -0.8455
 3411TIP3    H131724   5.059   4.081   3.357  0.1892 -0.2730 -0.1633
 3411TIP3    H231725   5.194   4.116   3.416  0.3940  0.2228 -0.9182
 3412TIP3   OH231726   0.708   6.173  10.571  0.0148  0.2493 -0.1424
 3412TIP3    H131727   0.716   6.261  10.535 -1.9602  0.2461 -0.6876
 3412TIP3    H231728   0.750   6.178  10.657  1.2417  1.2984 -0.7632
 3413TIP3   OH231729   5.313   3.777  11.476  0.2111  0.0658  0.1161
 3413TIP3    H131730   5.376   3.831  11.430 -0.8695  1.1503 -0.1130
 3413TIP3    H231731   5.299   3.821  11.560  1.0143 -1.0794  0.8954
 3414TIP3   OH231732   3.085   2.955  12.567  0.0623  0.2717 -0.5930
 3414TIP3    H131733   3.130   2.964  12.483  1.4361 -1.6958 -0.1617
 3414TIP3    H231734   3.143   2.998  12.630 -0.6312  1.1627 -0.5583
 3415TIP3   OH231735   2.959   4.036   3.753 -0.1382  0.1084 -0.2818
 3415TIP3    H131736   3.002   3.965   3.801 -1.0107 -0.8379 -0.8725
 3415TIP3    H231737   2.979   4.114   3.804  1.3957 -0.4507  0.0208
 3416TIP3   OH231738   5.865   3.358  13.619 -0.1833 -0.1760 -0.0127
 3416TIP3    H131739   5.799   3.363  13.550 -0.3096 -2.8543 -0.1923
 3416TIP3    H231740   5.814   3.356  13.700 -0.2196 -0.1812 -0.0353
 3417TIP3   OH231741   4.154   5.357  12.166 -0.2277 -0.3606  0.2073
 3417TIP3    H131742   4.117   5.394  12.086  0.4783 -0.9431 -0.4095
 3417TIP3    H231743   4.233   5.311  12.137  0.9862  0.8295  1.4796
 3418TIP3   OH231744   3.082   5.920  11.878 -0.0462  0.5003  0.0803
 3418TIP3    H131745   3.096   6.009  11.912  0.6308  0.5659 -0.3510
 3418TIP3    H231746   3.048   5.932  11.790  0.2807  0.3351 -0.0707
 3419TIP3   OH231747   6.136   2.134  14.253 -0.3102  0.1709  0.1930
 3419TIP3    H131748   6.118   2.224  14.281  0.4023  0.6901 -0.9650
 3419TIP3    H231749   6.051   2.102  14.222 -0.3304  0.8584 -0.4903
 3420TIP3   OH231750   0.673   4.804   0.057  0.0270 -0.2520 -0.1790
 3420TIP3    H131751   0.673   4.893   0.021  0.7497 -0.1702  0.0057
 3420TIP3    H231752   0.663   4.817   0.151  0.4102 -0.3550 -0.1256
 3421TIP3   OH231753   1.470   4.688  11.085 -0.4291  0.7835  0.1550
 3421TIP3    H131754   1.550   4.719  11.043 -0.3454  1.4745  0.8113
 3421TIP3    H231755   1.447   4.608  11.036 -0.0220  1.2461 -0.8277
 3422TIP3   OH231756   6.916   7.207  13.020 -0.2983  0.4156 -0.2879
 3422TIP3    H131757   6.926   7.297  12.991 -0.1118  0.6671  0.5258
 3422TIP3    H231758   6.968   7.202  13.100 -0.0177 -0.5112 -0.5163
 3423TIP3   OH231759   6.346   1.093  10.919  0.6187  0.5406  0.3634
 3423TIP3    H131760   6.254   1.116  10.930  0.5153  2.3937 -2.9691
 3423TIP3    H231761   6.381   1.160  10.861  3.3341 -1.6826 -0.8559
 3424TIP3   OH231762   4.037   2.969  11.638 -0.5403 -0.3171 -0.0937
 3424TIP3    H131763   3.969   2.943  11.576  0.0780  0.8408 -1.3212
 3424TIP3    H231764   4.075   2.887  11.668  0.1080 -0.9243 -2.3946
 3425TIP3   OH231765   1.414   6.176  10.549 -0.4053 -0.3393 -0.4505
 3425TIP3    H131766   1.475   6.119  10.502 -0.2561 -0.3323 -0.2653
 3425TIP3    H231767   1.465   6.210  10.622  0.1780  1.7555 -1.7498
 3426TIP3   OH231768   6.666   0.271  12.579  0.1749 -0.1421  0.2791
 3426TIP3    H131769   6.696   0.331  12.646  0.3710 -0.6587  0.6593
 3426TIP3    H231770   6.698   0.185  12.607 -1.4889 -0.6910  0.6110
 3427TIP3   OH231771   0.207   3.996  14.622 -0.2971  0.1764 -0.2034
 3427TIP3    H131772   0.233   3.904  14.630 -0.9562  0.0225  0.1573
 3427TIP3    H231773   0.139   3.996  14.555 -1.4692  0.1632  0.9480
 3428TIP3   OH231774   2.561   1.647  14.724  0.4112 -0.0887 -0.2202
 3428TIP3    H131775   2.513   1.566  14.743  2.8547 -1.8681 -1.0832
 3428TIP3    H231776   2.563   1.651  14.628  1.3114  0.3684 -0.1875
 3429TIP3   OH231777   7.067   3.676  12.726 -0.5477  0.8521 -0.2476
 3429TIP3    H131778   7.002   3.735  12.688 -0.9535  0.6393  0.1134
 3429TIP3    H231779   7.087   3.614  12.656 -0.3840  1.1949 -0.5109
 3430TIP3   OH231780   5.133   5.446  10.940  0.5031  0.1541  0.2301
 3430TIP3    H131781   5.209   5.440  10.998  1.9115 -0.5632 -1.5936
 3430TIP3    H231782   5.113   5.355  10.918 -1.5009  0.2597  1.3675
 3431TIP3   OH231783   1.591   1.302  11.030  0.0293  0.2185  0.3932
 3431TIP3    H131784   1.548   1.367  10.975 -0.1098  0.6882  1.0639
 3431TIP3    H231785   1.635   1.244  10.967 -0.0914  0.7782 -0.2151
 3432TIP3   OH231786   3.474   4.237  10.494  0.1018  0.0483 -0.1780
 3432TIP3    H131787   3.414   4.163  10.498 -1.4963  1.1969 -1.3899
 3432TIP3    H231788   3.529   4.221  10.417  0.0247 -0.0614 -0.2087
 3433TIP3   OH231789   2.860   1.160  14.161 -0.5614  0.1557  0.1030
 3433TIP3    H131790   2.796   1.209  14.108 -1.0544 -0.5919 -0.0048
 3433TIP3    H231791   2.944   1.175  14.117 -0.9859 -0.5550 -0.9653
 3434TIP3   OH231792   4.936   0.056  10.262 -0.0318  0.6537  0.0698
 3434TIP3    H131793   4.974   0.052  10.175 -2.8229  1.8142 -1.3246
 3434TIP3    H231794   4.909   0.147  10.273 -0.4873  0.3603  1.8051
 3435TIP3   OH231795   6.466   0.499  10.797 -0.6308  0.4516  0.1275
 3435TIP3    H131796   6.463   0.516  10.891 -0.4323 -1.0584  0.4298
 3435TIP3    H231797   6.397   0.434  10.782  0.3500 -0.4785 -0.4964
 3436TIP3   OH231798   0.018   2.718  13.561  0.2608 -0.5910  0.2032
 3436TIP3    H131799   0.074   2.693  13.488  1.5830  0.4904  0.7998
 3436TIP3    H231800   0.079   2.750  13.628 -1.1162  1.4342  0.5610
 3437TIP3   OH231801   2.964   2.425  10.774 -0.0745  0.1099  0.9469
 3437TIP3    H131802   3.029   2.356  10.759  0.3815  0.1397  2.5804
 3437TIP3    H231803   2.993   2.497  10.718  1.4069  0.1701  1.7292
 3438TIP3   OH231804   4.954   5.879  13.388 -0.9924 -0.5398 -0.5256
 3438TIP3    H131805   5.048   5.869  13.406 -0.6931  0.2258 -1.5748
 3438TIP3    H231806   4.920   5.789  13.388 -0.4610 -0.7712  0.7904
 3439TIP3   OH231807   6.185   7.184  11.824  0.6659 -0.1381  0.3731
 3439TIP3    H131808   6.246   7.204  11.895  0.3641  1.3031  0.2565
 3439TIP3    H231809   6.145   7.101  11.849  0.7809  0.2017  1.7383
 3440TIP3   OH231810   4.976   3.818  11.650 -0.5384 -0.3464 -0.4882
 3440TIP3    H131811   4.944   3.908  11.639 -2.0348 -0.7580  0.2208
 3440TIP3    H231812   4.898   3.764  11.643  0.0190 -1.4376  1.1614
 3441TIP3   OH231813   6.191   1.721  13.473  0.4047 -0.5383 -0.4625
 3441TIP3    H131814   6.196   1.701  13.567 -0.7377  1.2148  0.0203
 3441TIP3    H231815   6.116   1.779  13.465  1.7497  1.0971 -2.1558
 3442TIP3   OH231816   0.992   1.039  11.966  0.6611 -0.4266 -0.1796
 3442TIP3    H131817   1.012   1.019  12.058  0.1669 -0.1213 -0.0030
 3442TIP3    H231818   0.988   1.134  11.963 -0.9201 -0.4594 -0.1599
 3443TIP3   OH231819   1.048   1.787  14.230 -0.3047 -0.0446 -0.4435
 3443TIP3    H131820   1.010   1.867  14.266 -1.3726 -1.4978  1.9505
 3443TIP3    H231821   0.984   1.758  14.165 -0.9332  0.0184  0.1317
 3444TIP3   OH231822   6.772   5.412  11.685  0.0810 -0.0041  0.1999
 3444TIP3    H131823   6.720   5.419  11.604 -2.1671 -2.7445  1.2462
 3444TIP3    H231824   6.828   5.489  11.684  0.6025 -0.1677 -4.2558
 3445TIP3   OH231825   7.134   1.790   0.008 -0.1320  0.8137 -0.0445
 3445TIP3    H131826   7.080   1.735  -0.049  0.0812 -1.7258  1.9831
 3445TIP3    H231827   7.072   1.844   0.057 -1.2240 -2.5635  2.7816
 3446TIP3   OH231828   2.178   3.679  10.640 -0.1941  0.2576 -0.0957
 3446TIP3    H131829   2.116   3.705  10.573  1.5998 -2.1076 -2.9055
 3446TIP3    H231830   2.138   3.602  10.681 -0.0319 -0.0342 -0.4806
 3447TIP3   OH231831   2.297   6.852   2.841  0.6514 -0.3281 -0.1479
 3447TIP3    H131832   2.362   6.916   2.813 -0.3647 -0.1037 -2.1543
 3447TIP3    H231833   2.216   6.880   2.799 -0.4307 -1.3892  1.1663
 3448TIP3   OH231834   3.089   2.636  12.404  0.4821  0.4357 -0.6779
 3448TIP3    H131835   3.117   2.549  12.433 -1.3847  0.2364  0.6741
 3448TIP3    H231836   3.065   2.624  12.313 -1.7861 -1.0393  0.0265
 3449TIP3   OH231837   3.896   6.047  12.564  0.2547  0.7676  0.7771
 3449TIP3    H131838   3.983   6.023  12.595 -0.3464 -0.0501  1.9114
 3449TIP3    H231839   3.866   5.971  12.515 -0.0592  0.8146  0.8955
 3450TIP3   OH231840   0.838   6.327  12.516 -0.3435  1.0174  0.4908
 3450TIP3    H131841   0.916   6.345  12.464 -0.6996  0.7871 -0.1382
 3450TIP3    H231842   0.784   6.405  12.506 -0.9611  0.4839 -0.5232
 3451TIP3   OH231843   5.215   5.606  14.196 -0.1578  0.3687  0.3168
 3451TIP3    H131844   5.144   5.544  14.217 -1.4990  1.5458 -0.5339
 3451TIP3    H231845   5.196   5.682  14.251 -1.1861  1.7648 -1.8444
 3452TIP3   OH231846   3.860   0.372   2.864 -0.1158 -0.2222 -0.9257
 3452TIP3    H131847   3.854   0.280   2.841  0.6408 -0.3551 -0.6385
 3452TIP3    H231848   3.841   0.375   2.958  1.1427 -0.2728 -0.6484
 3453TIP3   OH231849   7.075   3.103  10.507 -0.0684 -0.4426  0.4767
 3453TIP3    H131850   7.170   3.094  10.502 -0.1903 -1.2102 -2.8727
 3453TIP3    H231851   7.058   3.191  10.474 -0.5408 -0.6962  0.0302
 3454TIP3   OH231852   1.680   4.433  10.700 -0.4597 -0.4994 -0.8686
 3454TIP3    H131853   1.748   4.464  10.759 -1.5995  2.0086 -0.7512
 3454TIP3    H231854   1.633   4.366  10.750 -0.8534  0.9380  0.7439
 3455TIP3   OH231855   4.849   4.100   5.094 -0.3528 -0.2235  0.2664
 3455TIP3    H131856   4.942   4.088   5.078 -0.3892 -0.7697  0.4668
 3455TIP3    H231857   4.845   4.144   5.179 -0.2563  0.4887 -0.0860
 3456TIP3   OH231858   6.931   5.190   3.001 -0.3258  0.8879  0.9818
 3456TIP3    H131859   6.959   5.110   3.046  0.1342  1.5317  1.8842
 3456TIP3    H231860   7.003   5.252   3.015 -0.5138  1.3521 -0.0093
 3457TIP3   OH231861   1.500   2.465   0.778 -0.0835 -0.5204  0.4343
 3457TIP3    H131862   1.484   2.525   0.852 -1.5728  1.6168 -1.4466
 3457TIP3    H231863   1.514   2.523   0.703  1.3797 -2.5933 -1.0060
 3458TIP3   OH231864   5.236   6.075  10.886  0.3883 -0.3834 -0.6415
 3458TIP3    H131865   5.252   6.083  10.980  1.4525 -1.4350 -0.7165
 3458TIP3    H231866   5.167   6.139  10.868  2.1862  1.9671  0.3295
 3459TIP3   OH231867   4.052   5.171   1.375  0.5119  0.1955  0.1183
 3459TIP3    H131868   4.012   5.247   1.417  1.4322  0.8541 -0.1666
 3459TIP3    H231869   4.142   5.170   1.408  0.7008 -0.3677 -0.3981
 3460TIP3   OH231870   1.210   2.590  12.555  0.2964 -0.1133  0.6447
 3460TIP3    H131871   1.277   2.527  12.527  0.7513  0.6800 -0.1056
 3460TIP3    H231872   1.253   2.675  12.547 -0.7010  0.3857  0.4699
 3461TIP3   OH231873   5.405   3.162  12.563 -0.0516  0.4150 -0.6836
 3461TIP3    H131874   5.330   3.214  12.534  0.4499  0.1211 -2.5983
 3461TIP3    H231875   5.474   3.181  12.499  0.8700 -0.8626 -0.1086
 3462TIP3   OH231876   0.915   2.939  12.441 -0.3987 -0.3464 -0.4083
 3462TIP3    H131877   0.882   3.011  12.386 -0.6973 -1.8162 -2.2353
 3462TIP3    H231878   0.844   2.923  12.504  0.1600  1.7121  0.8346
 3463TIP3   OH231879   5.656   4.725  13.116  0.2100  0.7450 -0.2292
 3463TIP3    H131880   5.727   4.708  13.178 -0.9501 -0.2059  0.9110
 3463TIP3    H231881   5.660   4.819  13.100  1.3226  0.8022  0.2946
 3464TIP3   OH231882   3.509   1.195  11.953 -0.5926  0.9396 -0.5424
 3464TIP3    H131883   3.542   1.261  12.015 -0.9986  0.6703 -0.0347
 3464TIP3    H231884   3.418   1.219  11.939 -0.5213  0.9556 -0.9871
 3465TIP3   OH231885   5.780   3.935  10.755 -0.1433 -0.9481  0.7527
 3465TIP3    H131886   5.706   3.877  10.775  0.3001 -1.8825 -0.2518
 3465TIP3    H231887   5.842   3.919  10.826 -0.9941  0.0501  1.7594
 3466TIP3   OH231888   4.988   6.453  12.426  0.4604 -0.9038 -0.1217
 3466TIP3    H131889   4.974   6.540  12.388 -1.9853 -0.6995  1.0347
 3466TIP3    H231890   5.083   6.447  12.438  0.8855  0.7585 -2.0899
 3467TIP3   OH231891   4.621   1.453  11.658  0.0852 -0.4673 -0.4889
 3467TIP3    H131892   4.599   1.409  11.576  0.5050 -2.5941  0.4745
 3467TIP3    H231893   4.554   1.425  11.720  0.9264 -0.5469  0.4194
 3468TIP3   OH231894   0.016   5.194  10.848  0.5722  0.5135 -1.2592
 3468TIP3    H131895  -0.004   5.142  10.770 -0.5241 -0.8535 -0.1236
 3468TIP3    H231896   0.098   5.239  10.826  0.8298 -0.6134 -2.8137
 3469TIP3   OH231897   5.633   4.469  10.386 -0.3290  0.2484  0.3872
 3469TIP3    H131898   5.671   4.402  10.443  0.3652  1.1553  1.0187
 3469TIP3    H231899   5.702   4.534  10.377 -0.3443  0.0230 -1.7024
 3470TIP3   OH231900   1.380   4.896  13.760 -0.2698 -0.0152  0.1055
 3470TIP3    H131901   1.405   4.955  13.689 -0.9714 -0.8411 -0.8466
 3470TIP3    H231902   1.331   4.952  13.821 -1.4042  0.3111 -1.0536
 3471TIP3   OH231903   4.477   1.251  10.923  0.3048 -0.0027  0.0324
 3471TIP3    H131904   4.486   1.209  11.008  1.0042 -0.4549 -0.2550
 3471TIP3    H231905   4.534   1.200  10.865 -0.3557  0.1432 -0.7603
 3472TIP3   OH231906   1.734   3.506   5.237 -0.2257  0.3381 -0.5123
 3472TIP3    H131907   1.704   3.580   5.185  1.0526  1.3280  0.1152
 3472TIP3    H231908   1.664   3.492   5.301  0.9830  3.4207  1.7480
 3473TIP3   OH231909   2.655   2.950  12.922  0.0114  0.3101  0.2232
 3473TIP3    H131910   2.739   2.904  12.918  0.4532  1.1961 -1.4534
 3473TIP3    H231911   2.679   3.043  12.929 -0.6851  0.8562 -3.0336
 3474TIP3   OH231912   2.370   5.461  14.903  0.0171 -0.0147  0.0090
 3474TIP3    H131913   2.279   5.436  14.889 -0.4194  2.9156 -5.0575
 3474TIP3    H231914   2.421   5.394  14.856  0.1172  0.3469 -0.4063
 3475TIP3   OH231915   0.211   1.344  15.339 -0.5580  0.2289 -0.7381
 3475TIP3    H131916   0.123   1.383  15.336 -0.1674  1.2245  0.3467
 3475TIP3    H231917   0.211   1.291  15.419 -0.0379  0.5566 -0.5209
 3476TIP3   OH231918   5.076   4.043  11.947 -0.1493  0.6082  0.3799
 3476TIP3    H131919   5.156   4.032  11.998  0.1690  1.3018  0.0383
 3476TIP3    H231920   5.106   4.068  11.860 -0.6920 -0.4055 -0.1220
 3477TIP3   OH231921   7.162   2.248  10.917  0.8073 -0.5164  0.7852
 3477TIP3    H131922   7.171   2.155  10.896  0.0559 -0.1881 -1.2150
 3477TIP3    H231923   7.240   2.289  10.879  0.1546 -0.1062 -0.1812
 3478TIP3   OH231924   3.047   6.132   0.089  0.2552  0.7468  0.3991
 3478TIP3    H131925   3.073   6.134   0.181  0.4390  0.0055  0.3722
 3478TIP3    H231926   3.102   6.064   0.050 -0.1841  0.6959 -0.1457
 3479TIP3   OH231927   4.832   7.124  13.820  0.1548 -0.0504  0.5138
 3479TIP3    H131928   4.830   7.209  13.777  1.1881  0.0732  0.7028
 3479TIP3    H231929   4.856   7.142  13.911  0.2007 -0.5275  0.6019
 3480TIP3   OH231930   2.893   2.071   0.407 -0.2476  0.3675  0.3118
 3480TIP3    H131931   2.842   1.993   0.388  0.7384 -0.3996  0.6984
 3480TIP3    H231932   2.893   2.078   0.503 -1.4550  1.6337  0.2455
 3481TIP3   OH231933   7.177   5.944  10.076 -0.5238  0.1605  0.0404
 3481TIP3    H131934   7.189   5.908   9.988 -1.2655 -1.5860  0.6175
 3481TIP3    H231935   7.182   5.868  10.134 -1.2590  1.1105  1.4072
 3482TIP3   OH231936   2.630   5.681   1.753  0.0671 -0.7015  0.2357
 3482TIP3    H131937   2.698   5.638   1.701 -0.7433 -1.4001 -0.2681
 3482TIP3    H231938   2.584   5.737   1.690  0.6843  0.4148  0.7478
 3483TIP3   OH231939   0.337   1.241   9.574 -0.0915 -0.4228  0.0532
 3483TIP3    H131940   0.327   1.335   9.555  0.8966 -0.4828 -0.8635
 3483TIP3    H231941   0.370   1.204   9.492  1.2366 -1.2642  0.9418
 3484TIP3   OH231942   1.062   5.931   9.511  0.3553  0.1565 -0.6837
 3484TIP3    H131943   0.980   5.908   9.468 -0.0502 -3.0543  1.4592
 3484TIP3    H231944   1.107   5.989   9.449 -2.6356  0.4560 -2.7591
 3485TIP3   OH231945   0.737   6.551  11.054  0.5657  0.2900 -0.5300
 3485TIP3    H131946   0.780   6.624  11.011  1.7846 -0.4188 -0.5735
 3485TIP3    H231947   0.720   6.488  10.984 -0.4080  0.4840 -0.4823
 3486TIP3   OH231948   3.139   3.898   1.289 -0.2603 -0.5548  0.3763
 3486TIP3    H131949   3.059   3.902   1.238 -0.3714  0.7441  0.5959
 3486TIP3    H231950   3.123   3.956   1.363  0.9183 -0.1699  0.3622
 3487TIP3   OH231951   6.402   4.040  11.959  0.3514  0.0406  0.1769
 3487TIP3    H131952   6.428   4.056  12.050  0.5145  0.7469  0.0079
 3487TIP3    H231953   6.310   4.013  11.965  0.9851 -2.1991  0.7494
 3488TIP3   OH231954   4.920   1.681  11.218 -0.1082  0.1979  0.2409
 3488TIP3    H131955   4.847   1.620  11.203 -1.0660  1.4139 -0.2205
 3488TIP3    H231956   4.902   1.717  11.305  0.3258  0.0030  0.4116
 3489TIP3   OH231957   1.834   4.358  10.238 -0.1304 -0.2776 -0.2148
 3489TIP3    H131958   1.747   4.354  10.198 -0.7534 -1.5622  1.1599
 3489TIP3    H231959   1.834   4.438  10.291 -0.5648 -0.3888 -0.0463
 3490TIP3   OH231960   1.535   3.940  10.583  0.0005  0.3464 -0.3019
 3490TIP3    H131961   1.573   3.981  10.660  3.2511 -3.3801  0.3987
 3490TIP3    H231962   1.594   3.963  10.511 -0.2993  0.0054 -0.6699
 3491TIP3   OH231963   3.645   0.373  12.261 -0.0653  0.1564  0.2183
 3491TIP3    H131964   3.716   0.309  12.247 -0.4270  0.1839 -2.2036
 3491TIP3    H231965   3.684   0.457  12.237 -1.3940 -0.0929 -3.4790
 3492TIP3   OH231966   2.333   6.936   4.142  0.0823  0.0408 -0.1425
 3492TIP3    H131967   2.245   6.956   4.110  0.4013  0.9952 -0.4287
 3492TIP3    H231968   2.364   7.017   4.181  2.7634  1.3873 -4.3923
 3493TIP3   OH231969   2.643   5.267  14.039  0.7241 -0.2120 -0.3612
 3493TIP3    H131970   2.552   5.289  14.022  0.9445  1.5508  0.5597
 3493TIP3    H231971   2.666   5.318  14.117  2.0391 -1.8698  0.3941
 3494TIP3   OH231972   0.627   6.769  12.002  0.1229  0.0562 -0.4293
 3494TIP3    H131973   0.664   6.857  11.999 -0.1258  0.1299 -3.1229
 3494TIP3    H231974   0.610   6.747  11.911 -0.9726 -2.3148  0.2847
 3495TIP3   OH231975   2.102   6.509  11.547 -0.0894  0.1712 -0.5096
 3495TIP3    H131976   2.187   6.502  11.590 -1.0480 -1.0592  1.3180
 3495TIP3    H231977   2.095   6.428  11.495 -0.4252 -0.0748 -0.0862
 3496TIP3   OH231978   4.873   3.315  14.629  0.3407  0.2087  0.2124
 3496TIP3    H131979   4.807   3.311  14.699 -0.2863  0.2640 -0.3654
 3496TIP3    H231980   4.888   3.223  14.606  0.5901  0.1874  0.4555
 3497TIP3   OH231981   3.589   0.688   9.639  0.0588 -0.0193 -1.0094
 3497TIP3    H131982   3.673   0.735   9.635  0.6834 -0.7392  1.6047
 3497TIP3    H231983   3.582   0.644   9.555  1.8630  0.8090 -1.6439
 3498TIP3   OH231984   7.168   5.744  10.520 -0.3140 -0.1471 -0.1012
 3498TIP3    H131985   7.106   5.722  10.589 -1.5323  0.7523 -0.8684
 3498TIP3    H231986   7.223   5.812  10.558  0.2533 -0.9880  0.6050
 3499TIP3   OH231987   5.167   5.441  10.553 -0.2395  0.1071 -0.1983
 3499TIP3    H131988   5.135   5.517  10.602 -1.2974 -0.4837  0.0531
 3499TIP3    H231989   5.181   5.374  10.620  1.4112  0.2771 -0.3157
 3500TIP3   OH231990   4.615   0.013  12.559 -0.4002 -0.4339 -0.3293
 3500TIP3    H131991   4.709  -0.004  12.554 -0.5615 -1.1904 -1.2473
 3500TIP3    H231992   4.596   0.021  12.652  0.8203  1.2709 -0.1747
 3501TIP3   OH231993   7.127   5.359  12.424 -0.1874  0.2372 -0.9265
 3501TIP3    H131994   7.069   5.283  12.425  0.0781 -0.0840  2.3485
 3501TIP3    H231995   7.200   5.333  12.367  0.8681 -2.9017  1.4934
 3502TIP3   OH231996   2.413   4.585  12.096  0.1687  0.0451  0.3676
 3502TIP3    H131997   2.419   4.675  12.064  1.5319 -0.4178 -0.7863
 3502TIP3    H231998   2.344   4.545  12.043 -1.0711  0.6037  1.4852
 3503TIP3   OH231999   0.156   4.191  11.367 -0.2644 -0.1052 -0.1780
 3503TIP3    H132000   0.066   4.157  11.364  0.0422 -0.9712 -0.0084
 3503TIP3    H232001   0.149   4.273  11.415 -0.6976 -1.1315  1.6342
 3504TIP3   OH232002   0.084   3.682  14.769 -0.0190 -0.1369  0.5473
 3504TIP3    H132003   0.104   3.592  14.794 -0.6264 -0.7448 -1.0389
 3504TIP3    H232004   0.148   3.703  14.700 -0.7142  0.1579 -0.0225
 3505TIP3   OH232005   6.727   0.607   1.510 -0.2730 -0.1782 -0.1220
 3505TIP3    H132006   6.685   0.656   1.581 -1.3732 -0.8382 -0.2849
 3505TIP3    H232007   6.767   0.531   1.554  0.4897  0.2806 -0.0085
 3506TIP3   OH232008   5.766   5.512  11.290 -0.2596  0.0514  0.1726
 3506TIP3    H132009   5.701   5.529  11.222  0.5856 -0.4129 -0.7727
 3506TIP3    H232010   5.830   5.455  11.248 -0.1375 -0.8926  1.6089
 3507TIP3   OH232011   4.093   5.187   1.090 -0.3336 -0.7175 -0.6804
 3507TIP3    H132012   4.094   5.092   1.101 -0.1143 -0.5808  0.6782
 3507TIP3    H232013   4.061   5.220   1.174 -1.2392  0.3822 -1.4234
 3508TIP3   OH232014   7.203   2.039  11.727 -0.4194 -0.1340  0.1501
 3508TIP3    H132015   7.254   1.998  11.796 -0.8945  0.3965  0.8281
 3508TIP3    H232016   7.164   2.116  11.768 -2.0906 -0.7329 -0.2395
 3509TIP3   OH232017   4.596   5.747   9.796 -0.5773  0.4275 -0.3346
 3509TIP3    H132018   4.562   5.790   9.718 -0.1463 -1.4039 -1.5947
 3509TIP3    H232019   4.680   5.791   9.812 -1.1638  1.5384 -0.2405
 3510TIP3   OH232020   5.052   2.040   0.166  0.0244  0.0639 -0.2928
 3510TIP3    H132021   5.080   1.951   0.185 -1.4170 -1.0296 -2.7450
 3510TIP3    H232022   4.999   2.066   0.241  0.2103 -1.2698  0.3245
 3511TIP3   OH232023   6.996   6.386  14.640  0.0638  0.1450  0.2933
 3511TIP3    H132024   6.949   6.405  14.559  0.6291 -0.2091 -0.1286
 3511TIP3    H232025   6.936   6.330  14.691 -0.3611  0.5134  0.1990
 3512TIP3   OH232026   4.674   6.620  10.008 -0.5432 -0.2139  0.1939
 3512TIP3    H132027   4.622   6.673   9.947  0.8637  0.5375 -0.4379
 3512TIP3    H232028   4.722   6.560   9.952  1.0392  0.7201  0.4688
 3513TIP3   OH232029   4.333   0.293   9.830  0.0602 -0.1389 -1.0262
 3513TIP3    H132030   4.407   0.353   9.841 -0.1224 -0.1879  0.5782
 3513TIP3    H232031   4.366   0.208   9.860 -0.2320 -0.4750 -1.6231
 3514TIP3   OH232032   1.008   1.543  11.011  0.3791 -0.4340  0.3872
 3514TIP3    H132033   0.955   1.622  11.014 -0.7606 -1.1744  0.5227
 3514TIP3    H232034   0.997   1.511  10.921 -0.0255 -0.9836  0.6252
 3515TIP3   OH232035   2.784   5.438   3.430 -0.0775 -0.1848  0.3168
 3515TIP3    H132036   2.730   5.374   3.475 -1.7007 -0.5358 -1.9475
 3515TIP3    H232037   2.748   5.523   3.456 -0.5037 -0.3441  0.2386
 3516TIP3   OH232038   2.762   0.082  14.076  0.1843 -0.6241 -0.4755
 3516TIP3    H132039   2.822   0.148  14.041 -0.3547 -1.0453 -2.2942
 3516TIP3    H232040   2.676   0.107  14.043 -0.2827 -1.3378  0.1667
 3517TIP3   OH232041   3.175   1.289  10.323 -0.2911  0.2564 -0.1468
 3517TIP3    H132042   3.215   1.263  10.406  0.8484  0.1610 -0.7126
 3517TIP3    H232043   3.220   1.237  10.257  0.2699  1.8067 -1.0339
 3518TIP3   OH232044   2.406   6.676   3.121  0.5179  0.5665  0.7760
 3518TIP3    H132045   2.332   6.726   3.156  0.0214  2.6497 -2.7252
 3518TIP3    H232046   2.431   6.723   3.041  2.3352 -2.9445 -0.9558
 3519TIP3   OH232047   1.754   2.521  11.100 -0.3391  0.2077 -0.3052
 3519TIP3    H132048   1.779   2.565  11.181 -1.0622 -2.4455  1.4924
 3519TIP3    H232049   1.796   2.436  11.104 -1.9421 -0.7347 -1.7739
 3520TIP3   OH232050   4.753   0.223  14.628  0.0130  0.4287  0.1355
 3520TIP3    H132051   4.721   0.313  14.619  1.8568  1.0007 -1.4764
 3520TIP3    H232052   4.807   0.224  14.707  1.3806  1.2248 -0.7732
 3521TIP3   OH232053   0.679   1.169  13.241  0.2462 -0.3299 -0.3126
 3521TIP3    H132054   0.629   1.180  13.322 -0.6109 -1.4845 -0.6572
 3521TIP3    H232055   0.763   1.133  13.270  0.0819 -0.4016  0.0880
 3522TIP3   OH232056   3.485   5.380   0.023 -0.1046 -0.2181 -0.1113
 3522TIP3    H132057   3.392   5.358   0.017 -0.1302 -0.0142 -0.4961
 3522TIP3    H232058   3.527   5.300   0.052 -0.1460 -0.9117 -1.8226
 3523TIP3   OH232059   7.039   2.963  13.412 -0.0194 -0.7359 -0.1581
 3523TIP3    H132060   7.003   3.029  13.352 -1.1362  0.2628  1.5132
 3523TIP3    H232061   7.133   2.983  13.415  0.1901 -1.2007 -1.9735
 3524TIP3   OH232062   6.804   4.238  12.572 -0.0780  0.2425 -0.2172
 3524TIP3    H132063   6.771   4.306  12.630 -0.8853 -0.4359  0.1400
 3524TIP3    H232064   6.897   4.232  12.594  0.2974  2.0507 -1.1196
 3525TIP3   OH232065   3.694   5.191   9.491  0.0716  0.2335  0.2633
 3525TIP3    H132066   3.754   5.150   9.553 -0.8870 -2.1609 -0.2674
 3525TIP3    H232067   3.742   5.268   9.459  2.4863 -1.0409  0.5463
 3526TIP3   OH232068   0.209   5.738  11.130 -0.3082 -0.2149  0.4275
 3526TIP3    H132069   0.149   5.736  11.204  0.2418 -0.5368  0.8748
 3526TIP3    H232070   0.238   5.829  11.125  0.4454 -0.3912  1.2704
 3527TIP3   OH232071   5.211   3.043  14.094 -0.6087  0.1518 -0.0728
 3527TIP3    H132072   5.157   2.975  14.136 -0.3226 -0.4711 -0.6866
 3527TIP3    H232073   5.295   2.999  14.077 -0.1448  0.9032  0.2316
 3528TIP3   OH232074   4.068   3.459  13.806  0.1709  0.9601 -0.5224
 3528TIP3    H132075   4.053   3.465  13.712 -0.5103  2.9088 -0.3254
 3528TIP3    H232076   3.999   3.401  13.838  0.5810  0.0514 -1.2319
 3529TIP3   OH232077   6.717   4.256  13.714 -0.2835 -0.9455  0.1680
 3529TIP3    H132078   6.777   4.184  13.695  0.1047 -0.4806 -0.4104
 3529TIP3    H232079   6.640   4.239  13.661 -0.2475 -1.0074  0.1364
 3530TIP3   OH232080   0.877   4.604  10.481 -0.5728 -0.3603  0.5669
 3530TIP3    H132081   0.796   4.594  10.431 -1.2584 -1.6224  1.8679
 3530TIP3    H232082   0.850   4.593  10.572  0.9135  0.2098  1.0996
 3531TIP3   OH232083   0.332   7.005  14.925  0.0758 -0.2052  0.0981
 3531TIP3    H132084   0.300   7.040  15.008 -0.1954 -0.4832  0.1111
 3531TIP3    H232085   0.293   7.063  14.859  2.4548  1.7423  0.2530
 3532TIP3   OH232086   3.943   1.274  13.964  0.4626  0.3121  0.2300
 3532TIP3    H132087   4.033   1.243  13.957  0.1416 -1.0545  1.5466
 3532TIP3    H232088   3.948   1.343  14.031  0.0976 -2.1798  3.0731
 3533TIP3   OH232089   3.517   6.525  13.704 -0.3851 -0.7444 -0.1747
 3533TIP3    H132090   3.584   6.517  13.772  0.8119 -1.6051 -1.4076
 3533TIP3    H232091   3.526   6.446  13.652 -0.6371  0.3024 -1.8961
 3534TIP3   OH232092   4.396   4.871   9.891 -0.1670  0.0092 -0.0952
 3534TIP3    H132093   4.425   4.837   9.975  1.2419 -0.7665 -0.8519
 3534TIP3    H232094   4.435   4.812   9.826 -0.5880  1.0086 -1.3188
 3535TIP3   OH232095   0.167   0.992   2.810  0.5186 -0.3632 -0.0683
 3535TIP3    H132096   0.143   0.940   2.734  1.0158  0.4700 -0.8107
 3535TIP3    H232097   0.096   0.976   2.873 -1.6838  1.4322 -1.9023
 3536TIP3   OH232098   1.960   1.604  12.762 -0.4141  0.3390  0.0299
 3536TIP3    H132099   1.964   1.574  12.671 -0.0234  0.0151  0.1537
 3536TIP3    H232100   1.948   1.699  12.755  2.7244  0.8057 -0.3967
 3537TIP3   OH232101   0.249   1.783  12.889  0.3148  0.1124 -0.4876
 3537TIP3    H132102   0.210   1.756  12.972 -0.3265  0.7081 -0.5792
 3537TIP3    H232103   0.309   1.712  12.866 -2.2230 -1.9312 -1.3563
 3538TIP3   OH232104   5.409   0.637  15.260  0.7867 -0.0829  0.2096
 3538TIP3    H132105   5.388   0.695  15.186  1.8209 -0.7404 -0.6284
 3538TIP3    H232106   5.387   0.689  15.338 -1.3426  0.2419 -0.5328
 3539TIP3   OH232107   5.200   2.194  12.289 -0.3463  0.2102 -0.2466
 3539TIP3    H132108   5.240   2.157  12.367 -0.2286  1.2717  0.2179
 3539TIP3    H232109   5.260   2.263  12.261 -1.8134  1.8708  0.4887
 3540TIP3   OH232110   3.571   1.512  11.495 -0.1057  0.6603 -0.0671
 3540TIP3    H132111   3.579   1.510  11.400 -1.7219  1.7058 -0.2659
 3540TIP3    H232112   3.628   1.442  11.526  0.6446  0.4710 -1.7835
 3541TIP3   OH232113   6.929   6.876  10.632 -0.0870 -0.5446  0.3873
 3541TIP3    H132114   6.929   6.961  10.587  1.1464  0.3038  1.9099
 3541TIP3    H232115   6.864   6.825  10.584  1.3714  0.1380 -2.6204
 3542TIP3   OH232116   1.825   4.274   5.200 -0.1000 -0.4592 -0.0138
 3542TIP3    H132117   1.845   4.195   5.151  1.4069 -0.2086  0.1446
 3542TIP3    H232118   1.824   4.246   5.292 -0.5140 -0.4681 -0.0186
 3543TIP3   OH232119   4.823   0.828   9.735 -0.3722  0.1157  0.1125
 3543TIP3    H132120   4.806   0.737   9.760  0.3483  0.5828  2.5601
 3543TIP3    H232121   4.914   0.828   9.705 -0.6125 -0.0890 -0.6364
 3544TIP3   OH232122   2.949   4.353   3.612  0.4857  0.0473  0.0690
 3544TIP3    H132123   2.895   4.414   3.563  0.4867 -0.7166 -0.9074
 3544TIP3    H232124   2.959   4.277   3.555 -2.8998 -2.7524  2.7032
 3545TIP3   OH232125   5.425   5.757   1.399  0.1605  0.2162 -0.1775
 3545TIP3    H132126   5.336   5.790   1.390 -0.1010 -0.7359 -1.2986
 3545TIP3    H232127   5.452   5.737   1.310  0.5785 -1.8392  0.3662
 3546TIP3   OH232128   2.682   5.577  10.875 -0.0021 -0.1193 -0.2489
 3546TIP3    H132129   2.712   5.668  10.873 -0.7255  0.1305 -0.4584
 3546TIP3    H232130   2.591   5.582  10.845  0.0401 -0.9527 -0.5409
 3547TIP3   OH232131   0.378   3.970  14.968 -0.4113 -0.3691  0.1833
 3547TIP3    H132132   0.299   3.916  14.980 -0.5539 -0.0896  0.5144
 3547TIP3    H232133   0.449   3.906  14.965 -0.7544 -0.7265 -1.3707
 3548TIP3   OH232134   0.726   4.555  15.173 -0.2146 -0.1418  0.4500
 3548TIP3    H132135   0.776   4.551  15.091 -0.2892  0.0294  0.3953
 3548TIP3    H232136   0.644   4.511  15.152 -0.0974 -0.3990  0.5333
 3549TIP3   OH232137   3.578   1.680  11.976 -0.6008 -0.0915  0.4552
 3549TIP3    H132138   3.641   1.683  12.049  0.1240 -1.7168 -0.0486
 3549TIP3    H232139   3.603   1.602  11.927 -2.6846 -0.4648 -0.0939
 3550TIP3   OH232140   3.378   1.478  12.947 -0.3216  0.1217 -0.1664
 3550TIP3    H132141   3.413   1.443  13.029  0.7441  1.0089 -0.2157
 3550TIP3    H232142   3.374   1.572  12.962 -1.2963  0.1690 -0.7090
 3551TIP3   OH232143   1.359   2.334   0.159  0.0336 -0.3924 -0.3040
 3551TIP3    H132144   1.311   2.412   0.185  1.6421  1.0108 -1.2956
 3551TIP3    H232145   1.427   2.324   0.227 -0.3520 -1.1419 -0.0125
 3552TIP3   OH232146   1.949   6.933   9.974  0.2640 -0.1510 -0.2729
 3552TIP3    H132147   2.019   6.900  10.031  2.0068 -1.0604 -2.7844
 3552TIP3    H232148   1.982   7.017   9.942 -1.1350  0.8243  0.7330
 3553TIP3   OH232149   3.326   0.477  10.807  0.0022 -0.4419 -0.6024
 3553TIP3    H132150   3.396   0.536  10.781 -0.3996  1.2456  1.7595
 3553TIP3    H232151   3.276   0.461  10.727 -0.8990  3.9188 -1.1531
 3554TIP3   OH232152   6.364   3.043  10.820 -0.5406  0.0016 -0.2351
 3554TIP3    H132153   6.384   3.117  10.763 -0.1705  0.7022  0.7853
 3554TIP3    H232154   6.393   2.967  10.770 -1.3980  0.4705 -1.5202
 3555TIP3   OH232155   3.517   5.063   4.211 -0.2060 -0.3980 -0.0046
 3555TIP3    H132156   3.579   5.126   4.246 -0.5646 -0.1758  0.2371
 3555TIP3    H232157   3.571   4.991   4.178  0.1234 -0.7991  1.3657
 3556TIP3   OH232158   3.674   6.486   1.502  0.6181 -0.2179 -0.0317
 3556TIP3    H132159   3.618   6.488   1.580 -1.3754  0.3504 -1.3858
 3556TIP3    H232160   3.713   6.574   1.500  0.3264 -0.0798  0.1003
 3557TIP3   OH232161   6.646   3.929   9.974 -0.0648 -0.6046 -0.5293
 3557TIP3    H132162   6.713   3.872   9.936  1.9974 -0.3281  2.3743
 3557TIP3    H232163   6.673   3.942  10.064 -4.7477 -1.4851  1.3078
 3558TIP3   OH232164   0.594   3.566  12.409  0.2996 -0.1817 -0.0648
 3558TIP3    H132165   0.587   3.661  12.399  0.8312 -0.0641  0.6129
 3558TIP3    H232166   0.504   3.537  12.428  0.3437  0.3460  0.9871
 3559TIP3   OH232167   1.601   6.581  15.302 -0.3766 -0.5374  0.3479
 3559TIP3    H132168   1.564   6.548  15.220 -1.1920 -0.2797  0.5988
 3559TIP3    H232169   1.548   6.658  15.323  1.2726  0.7683 -0.0506
 3560TIP3   OH232170   4.470   3.892   1.516  0.0676 -0.1606 -0.5682
 3560TIP3    H132171   4.520   3.972   1.530  0.3747 -0.6896  2.0181
 3560TIP3    H232172   4.396   3.900   1.576 -1.5007 -0.5790 -2.3861
 3561TIP3   OH232173   7.069   6.462  11.982  0.6320 -0.1271 -0.0857
 3561TIP3    H132174   7.075   6.546  12.027  0.8165  0.0818 -0.4895
 3561TIP3    H232175   7.152   6.418  12.001  1.2106  0.4592 -1.1800
 3562TIP3   OH232176   0.790   2.255  14.735 -0.7611 -0.2940  0.2981
 3562TIP3    H132177   0.722   2.283  14.796 -0.3383 -0.9921  1.1168
 3562TIP3    H232178   0.815   2.335  14.688 -0.2533  0.5354  1.9021
 3563TIP3   OH232179   2.267   0.341  10.909  0.0667 -0.1765 -0.3644
 3563TIP3    H132180   2.239   0.431  10.896  0.6069  0.2822  1.3024
 3563TIP3    H232181   2.186   0.290  10.911 -0.5469  0.7666  1.8896
 3564TIP3   OH232182   5.054   4.531  11.797 -0.1226  0.1198  0.4581
 3564TIP3    H132183   5.127   4.504  11.740 -0.9981  1.2246 -1.2873
 3564TIP3    H232184   5.076   4.495  11.883  1.3899 -1.4446 -0.5127
 3565TIP3   OH232185   5.338   7.066  11.120 -0.2565 -0.3290  0.1475
 3565TIP3    H132186   5.358   7.096  11.209 -0.4535  0.1069  0.0459
 3565TIP3    H232187   5.247   7.036  11.125  0.4020 -2.4093  0.6360
 3566TIP3   OH232188   2.428   2.038  14.594  0.0748 -0.0041  0.6304
 3566TIP3    H132189   2.383   1.957  14.616 -1.2378  0.6661  0.5467
 3566TIP3    H232190   2.490   2.014  14.526 -0.4973 -0.8860  0.4056
 3567TIP3   OH232191   5.293   3.306   3.278 -0.3564  0.5569 -0.0313
 3567TIP3    H132192   5.256   3.360   3.349 -0.6137 -0.2083  0.4308
 3567TIP3    H232193   5.382   3.285   3.308 -0.1999  0.8588 -0.2850
 3568TIP3   OH232194   2.389   2.909   3.002 -0.0609 -0.1883 -0.7070
 3568TIP3    H132195   2.324   2.951   2.946 -0.7997  1.8878  1.5522
 3568TIP3    H232196   2.464   2.969   3.000 -0.1959  0.0558  0.6663
 3569TIP3   OH232197   3.348   6.877  11.090 -0.2551 -0.0262  0.3523
 3569TIP3    H132198   3.274   6.921  11.049 -0.7398 -2.1260 -1.2646
 3569TIP3    H232199   3.425   6.920  11.053 -0.7105 -0.7561 -1.5803
 3570TIP3   OH232200   2.114   7.177  11.504 -0.6151  0.0330 -0.2815
 3570TIP3    H132201   2.040   7.165  11.446  1.1097 -1.8269 -2.2618
 3570TIP3    H232202   2.159   7.093  11.505 -0.0479  0.1938  3.1770
 3571TIP3   OH232203   0.686   1.633  14.264 -0.0834 -0.3094  0.6400
 3571TIP3    H132204   0.673   1.708  14.322  0.4594 -0.2406  0.6851
 3571TIP3    H232205   0.771   1.596  14.292  0.0386 -0.4545  0.0885
 3572TIP3   OH232206   3.901   3.626  11.920  0.0578 -0.1644 -0.0308
 3572TIP3    H132207   3.890   3.551  11.860 -0.8075 -1.2137  1.3834
 3572TIP3    H232208   3.979   3.604  11.971  0.8367  0.7667 -0.7691
 3573TIP3   OH232209   5.005   5.001  14.061  0.0478  0.0299 -0.1924
 3573TIP3    H132210   5.058   4.928  14.028 -0.0015  0.9594 -2.5482
 3573TIP3    H232211   5.069   5.064  14.094  0.1779 -0.4149  0.4158
 3574TIP3   OH232212   2.926   0.438  15.423  0.2424  0.0967  0.4973
 3574TIP3    H132213   2.939   0.504  15.355 -1.4995 -1.2998 -1.3068
 3574TIP3    H232214   2.858   0.380  15.388  1.3873 -2.4373  2.1666
 3575TIP3   OH232215   5.870   0.110  15.008  0.6559 -0.1035  0.2149
 3575TIP3    H132216   5.799   0.092  15.070  0.4054 -1.9313 -0.5463
 3575TIP3    H232217   5.949   0.109  15.062  0.5788 -2.8439  0.4375
 3576TIP3   OH232218   0.834   2.033   2.224  0.6054  0.0104 -0.2462
 3576TIP3    H132219   0.868   2.122   2.226  1.0786 -0.1786  0.7211
 3576TIP3    H232220   0.872   1.994   2.145 -0.0775  0.8253 -1.0055
 3577TIP3   OH232221   2.022   6.801   0.006 -0.3095  0.4733 -0.2275
 3577TIP3    H132222   1.967   6.770  -0.066 -2.0232 -0.5729  1.4578
 3577TIP3    H232223   1.991   6.889   0.024  0.9320  1.2190 -1.4726
 3578TIP3   OH232224   3.575   6.945  10.497 -0.5339  0.7772 -0.3844
 3578TIP3    H132225   3.494   6.986  10.465  0.4502  3.9691  0.7798
 3578TIP3    H232226   3.642   6.972  10.434  0.1189  0.8229  0.3081
 3579TIP3   OH232227   5.829   2.577  11.370  0.2592 -0.1866  0.2669
 3579TIP3    H132228   5.877   2.604  11.448  0.2995 -0.5841  0.3822
 3579TIP3    H232229   5.801   2.487  11.389 -0.7652  0.1280  0.3139
 3580TIP3   OH232230   5.428   5.926  10.687  0.0325  0.6461  0.4372
 3580TIP3    H132231   5.522   5.925  10.704  0.2228  2.6489 -0.2977
 3580TIP3    H232232   5.391   5.975  10.761 -0.2981  0.8248  0.1549
 3581TIP3   OH232233   0.080   5.878   0.839  0.6058  0.2415  0.2879
 3581TIP3    H132234  -0.006   5.873   0.880  0.3881  0.5790 -0.1189
 3581TIP3    H232235   0.105   5.787   0.825 -1.1858  0.0745 -2.6791
 3582TIP3   OH232236   1.342   2.493  11.304 -0.2072 -0.7112  0.4922
 3582TIP3    H132237   1.332   2.456  11.391 -1.3207  1.0008  1.1303
 3582TIP3    H232238   1.253   2.502  11.271  0.1541 -0.4638 -0.4481
 3583TIP3   OH232239   1.775   2.667  13.540  0.3368 -0.1455 -0.2194
 3583TIP3    H132240   1.722   2.622  13.474 -1.2189  2.7106 -1.1218
 3583TIP3    H232241   1.735   2.754  13.547  1.5120  0.2495  3.3082
 3584TIP3   OH232242   0.265   0.806  15.025  0.0481 -0.4369 -0.2871
 3584TIP3    H132243   0.318   0.741  14.978  0.1415 -0.4830 -0.1183
 3584TIP3    H232244   0.197   0.754  15.069 -0.7140 -0.2973 -1.2551
 3585TIP3   OH232245   3.899   0.640  11.998  1.2159 -0.1361  0.3379
 3585TIP3    H132246   3.858   0.697  11.933  1.0000  0.6453  1.1491
 3585TIP3    H232247   3.871   0.675  12.082  2.0477 -0.7195  0.8729
 3586TIP3   OH232248   3.237   1.980  10.657  0.3608  0.0785  0.1962
 3586TIP3    H132249   3.182   1.936  10.722  0.7394 -0.9963 -0.1887
 3586TIP3    H232250   3.196   2.065  10.644 -1.2549 -0.7171 -0.1420
 3587TIP3   OH232251   5.966   3.908  13.764  0.3619  0.5285 -0.3893
 3587TIP3    H132252   5.915   3.878  13.840 -2.1846  1.2426 -1.6823
 3587TIP3    H232253   5.961   3.834  13.703 -0.9117  1.3115 -1.2920
 3588TIP3   OH232254   0.301   1.541   9.744  0.1405 -0.3831  0.1733
 3588TIP3    H132255   0.206   1.548   9.750  0.2872  1.2370  1.4550
 3588TIP3    H232256   0.319   1.525   9.652 -1.3573 -0.1767 -0.1694
 3589TIP3   OH232257   2.010   4.326   1.250  0.0905 -0.2635  0.3097
 3589TIP3    H132258   1.952   4.265   1.296  2.4954 -2.9427  0.0133
 3589TIP3    H232259   1.982   4.320   1.158 -0.7358  0.4099  0.4987
 3590TIP3   OH232260   0.176   7.009   0.951  0.4964 -0.0627 -0.3802
 3590TIP3    H132261   0.134   6.954   1.017 -2.3664  2.7290  0.3862
 3590TIP3    H232262   0.122   6.999   0.872  1.0153  0.2639 -0.7892
 3591TIP3   OH232263   2.917   1.346  10.395  0.2847 -0.0179 -0.4337
 3591TIP3    H132264   3.006   1.315  10.376  0.0496 -0.2771 -1.1395
 3591TIP3    H232265   2.923   1.382  10.483  0.7097 -1.5148  0.1759
 3592TIP3   OH232266   6.725   4.177  12.015 -0.1902  0.8487  0.1142
 3592TIP3    H132267   6.735   4.136  11.929 -0.8849 -1.2668  0.9807
 3592TIP3    H232268   6.784   4.127  12.072 -0.2863  1.7457  1.0201
 3593TIP3   OH232269   4.472   0.785   2.391  0.2605  0.0769  0.1881
 3593TIP3    H132270   4.400   0.722   2.385 -0.2087  0.7278 -2.4346
 3593TIP3    H232271   4.550   0.731   2.399 -0.3068 -0.7711  0.1734
 3594TIP3   OH232272   1.232   1.378  10.218 -0.1135  0.0718 -0.3255
 3594TIP3    H132273   1.138   1.392  10.202 -0.0767  0.6382 -0.0598
 3594TIP3    H232274   1.273   1.392  10.133 -0.3598 -1.1605 -0.6819
 3595TIP3   OH232275   0.455   5.534  11.406  0.1772 -0.2811 -0.0359
 3595TIP3    H132276   0.401   5.541  11.327  0.2712  0.4284 -0.0411
 3595TIP3    H232277   0.506   5.614  11.407 -0.1244 -0.0958  0.9709
 3596TIP3   OH232278   5.013   5.997  10.513  0.6031 -0.3358 -0.5809
 3596TIP3    H132279   5.008   5.993  10.608 -0.3835  0.2775 -0.5914
 3596TIP3    H232280   4.996   5.907  10.484  2.0553 -0.7737 -0.1632
 3597TIP3   OH232281   5.146   2.682   1.513 -0.0242 -0.3010  0.1581
 3597TIP3    H132282   5.122   2.772   1.490 -0.1421 -0.3146  0.2316
 3597TIP3    H232283   5.088   2.659   1.585 -0.2852 -0.5903 -0.1448
 3598TIP3   OH232284   4.117   2.346  10.783  0.0842 -0.1300  0.2993
 3598TIP3    H132285   4.188   2.345  10.848 -0.1664  1.4179  0.6229
 3598TIP3    H232286   4.115   2.436  10.750 -1.7550 -0.1230  0.3278
 3599TIP3   OH232287   0.979   3.893  12.425  0.1373  0.2536  0.2116
 3599TIP3    H132288   1.035   3.860  12.495  2.5374  1.7280 -0.8885
 3599TIP3    H232289   0.913   3.946  12.470  0.5203 -0.3016  1.4639
 3600TIP3   OH232290   1.729   1.534  14.740  0.5000  0.5273 -0.2257
 3600TIP3    H132291   1.658   1.559  14.681  0.0939  0.9216  0.4164
 3600TIP3    H232292   1.733   1.438  14.732 -0.0843  0.5027 -0.2920
 3601TIP3   OH232293   0.152   2.820  13.783 -0.2072 -0.2860 -0.0425
 3601TIP3    H132294   0.109   2.749  13.832 -1.3884 -0.1069 -0.7934
 3601TIP3    H232295   0.208   2.863  13.848 -0.7016 -0.9090  0.8169
 3602TIP3   OH232296   3.950   1.740   0.302 -0.2089 -0.1814 -0.1103
 3602TIP3    H132297   3.984   1.819   0.343  0.6103  0.6333 -2.2018
 3602TIP3    H232298   3.855   1.752   0.303 -0.1429  0.3585  0.4669
 3603TIP3   OH232299   6.864   1.439   0.625 -0.9824 -0.0378  0.1893
 3603TIP3    H132300   6.847   1.470   0.536  0.7947  2.1624  0.5238
 3603TIP3    H232301   6.854   1.517   0.680  0.1230 -0.8495  1.6117
 3604TIP3   OH232302   4.782   0.625  14.988  0.0717 -0.4284  0.2331
 3604TIP3    H132303   4.815   0.699  14.937 -2.0166  1.5062  1.4764
 3604TIP3    H232304   4.698   0.603  14.947 -1.0779  0.3835  1.9930
 3605TIP3   OH232305   0.339   2.609  13.036 -0.1159  0.4167 -0.2954
 3605TIP3    H132306   0.425   2.619  12.995 -0.7368  0.4501 -1.6291
 3605TIP3    H232307   0.336   2.678  13.103  0.8383  0.4893 -0.3238
 3606TIP3   OH232308   5.829   6.785  10.260  0.3751  0.3623  0.3906
 3606TIP3    H132309   5.795   6.782  10.350  2.4418 -0.4581  1.2168
 3606TIP3    H232310   5.761   6.831  10.210 -1.3172 -0.1015  2.1324
 3607TIP3   OH232311   5.676   5.823  12.474  0.0609 -0.2354  0.1375
 3607TIP3    H132312   5.615   5.778  12.415 -3.0669 -0.5240  3.2491
 3607TIP3    H232313   5.763   5.799  12.441 -1.3588 -0.3636 -4.2043
 3608TIP3   OH232314   1.464   2.273  10.991  0.2973 -0.5626  0.4597
 3608TIP3    H132315   1.420   2.297  10.910  0.1743 -0.1897  0.6322
 3608TIP3    H232316   1.402   2.298  11.060  1.6880  2.1335  0.8321
 3609TIP3   OH232317   5.458   5.728   3.464  0.1152 -0.1626 -0.2990
 3609TIP3    H132318   5.426   5.778   3.539 -1.7607  0.5552 -1.5088
 3609TIP3    H232319   5.545   5.698   3.491  0.6069  2.2753  1.1549
 3610TIP3   OH232320   0.715   5.805  12.419  0.1323  0.3684  0.0701
 3610TIP3    H132321   0.716   5.811  12.514 -0.9456 -0.5751  0.1557
 3610TIP3    H232322   0.782   5.739  12.398 -0.3219 -0.1498  0.2397
 3611TIP3   OH232323   1.283   6.427  15.399  0.5656 -0.4348 -0.1213
 3611TIP3    H132324   1.237   6.501  15.439  1.1107 -0.5751  0.8008
 3611TIP3    H232325   1.304   6.457  15.310  0.5573  0.4227  0.1562
 3612TIP3   OH232326   2.496   2.851  15.025  0.2254 -0.8082 -0.4052
 3612TIP3    H132327   2.440   2.920  15.061  0.4965 -1.8613  2.3305
 3612TIP3    H232328   2.460   2.833  14.938 -0.9415  1.5112 -0.4724
 3613TIP3   OH232329   6.725   5.989  12.484  0.0341 -0.2431  0.0918
 3613TIP3    H132330   6.753   6.033  12.564  1.3190  0.7389 -0.8552
 3613TIP3    H232331   6.648   6.038  12.455 -0.3291 -0.4949  0.6114
 3614TIP3   OH232332   2.090   3.400  10.148  0.2641 -0.1746 -0.2209
 3614TIP3    H132333   2.167   3.409  10.205  0.3232  0.6519 -0.4125
 3614TIP3    H232334   2.032   3.471  10.176 -0.5869 -0.9905  0.1458
 3615TIP3   OH232335   3.839   2.566  10.181  0.4133  0.2841  0.1243
 3615TIP3    H132336   3.840   2.475  10.212 -2.2319 -0.3925 -1.5030
 3615TIP3    H232337   3.796   2.615  10.250  0.3741 -0.0055  0.3068
 3616TIP3   OH232338   2.692   0.356  11.664 -0.0872  0.5779 -0.3771
 3616TIP3    H132339   2.611   0.380  11.619  0.5319  0.2849 -1.6944
 3616TIP3    H232340   2.754   0.335  11.594  0.8515 -0.1322  0.6163
 3617TIP3   OH232341   7.144   6.303  13.833  0.3715  0.8063  0.4366
 3617TIP3    H132342   7.162   6.210  13.819 -1.8949  0.4878 -1.0822
 3617TIP3    H232343   7.177   6.322  13.920  1.0224 -1.3941  0.7233
 3618TIP3   OH232344   6.786   6.671  12.143  0.0232  0.0828  0.1965
 3618TIP3    H132345   6.819   6.694  12.230 -0.3573  1.0806  0.0856
 3618TIP3    H232346   6.815   6.742  12.086  1.9094 -1.4726 -0.9123
 3619TIP3   OH232347   5.151   2.279  14.355  0.3973  0.1880 -0.0734
 3619TIP3    H132348   5.133   2.366  14.391  1.4924  1.3965 -2.2325
 3619TIP3    H232349   5.233   2.252  14.398 -0.8929 -0.6825  1.9845
 3620TIP3   OH232350   5.168   0.031  10.061  0.1358 -0.3034  0.0468
 3620TIP3    H132351   5.225   0.030   9.985 -0.2735 -0.8231 -0.2642
 3620TIP3    H232352   5.221  -0.008  10.131  0.5120  0.1796  0.0349
 3621TIP3   OH232353   2.553   2.905  12.671  0.0450 -0.2678  0.3004
 3621TIP3    H132354   2.542   2.922  12.765  0.5541 -2.2089  0.7451
 3621TIP3    H232355   2.641   2.935  12.651  0.5142 -1.2620  0.8127
 3622TIP3   OH232356   4.471   1.051  13.633  0.1621 -0.1005  0.1312
 3622TIP3    H132357   4.436   0.975  13.588  1.5350 -1.1179  0.7143
 3622TIP3    H232358   4.477   1.025  13.725 -1.0831  1.3789  0.6804
 3623TIP3   OH232359   4.057   0.573  13.079 -0.1266  0.4275  0.2442
 3623TIP3    H132360   3.968   0.542  13.096 -0.4999  1.8835  1.1836
 3623TIP3    H232361   4.110   0.528  13.145 -0.2481 -0.0281  0.0366
 3624TIP3   OH232362   2.124   0.573  14.418 -0.3362 -0.1017 -0.1657
 3624TIP3    H132363   2.133   0.505  14.351 -2.4828 -1.3086  0.6450
 3624TIP3    H232364   2.031   0.597  14.415 -0.1797  0.8291  1.3991
 3625TIP3   OH232365   7.039   2.455  13.874  0.3643 -0.1961  0.3857
 3625TIP3    H132366   6.959   2.490  13.836  0.8647  0.1866 -0.3457
 3625TIP3    H232367   7.029   2.360  13.870  0.5777 -0.1802 -1.1253
 3626TIP3   OH232368   5.789   1.960  14.443 -0.4568 -1.0525 -0.2891
 3626TIP3    H132369   5.734   1.884  14.427 -0.7779 -1.2470  1.5282
 3626TIP3    H232370   5.878   1.928  14.429 -0.6244 -1.5967 -0.1169
 3627TIP3   OH232371   5.970   4.987   0.174  0.4307 -0.7415  0.0601
 3627TIP3    H132372   6.048   5.027   0.212  0.3440 -0.7042  0.2017
 3627TIP3    H232373   5.979   4.893   0.193  1.0654 -0.9228 -1.0380
 3628TIP3   OH232374   6.364   2.110   1.035 -0.3079  0.4989 -0.0466
 3628TIP3    H132375   6.323   2.065   1.109 -0.8130  0.3750 -0.3977
 3628TIP3    H232376   6.341   2.203   1.047 -0.4557  0.4679 -0.0905
 3629TIP3   OH232377   2.880   6.158   5.305 -0.4768  0.5331 -0.3044
 3629TIP3    H132378   2.936   6.112   5.367  1.1160  2.4023 -0.2655
 3629TIP3    H232379   2.791   6.139   5.335  0.1368 -1.4252  0.4267
 3630TIP3   OH232380   0.092   2.098  10.580 -0.6059 -0.4327 -0.1647
 3630TIP3    H132381   0.046   2.093  10.497 -1.4283 -0.8468  0.3069
 3630TIP3    H232382   0.103   2.007  10.608 -2.6425 -0.2781  1.4046
 3631TIP3   OH232383   3.561   5.730  10.947 -0.3681  0.1245 -0.1739
 3631TIP3    H132384   3.500   5.680  10.892 -2.1196  1.0174  0.8576
 3631TIP3    H232385   3.519   5.816  10.956 -0.2513 -0.0215  2.6281
 3632TIP3   OH232386   6.421   4.957  14.529 -0.1488  0.1037 -0.8495
 3632TIP3    H132387   6.514   4.947  14.547 -0.2937 -2.0109 -0.9769
 3632TIP3    H232388   6.403   4.893  14.459 -1.9317 -0.5138  0.1034
 3633TIP3   OH232389   2.541   1.465   0.953  0.2282  0.1401  0.0241
 3633TIP3    H132390   2.446   1.476   0.951  0.3864  2.0238  0.5854
 3633TIP3    H232391   2.567   1.470   0.861 -0.3508 -2.5217 -0.3670
 3634TIP3   OH232392   0.265   4.153  12.887 -0.5463  0.3450 -0.2603
 3634TIP3    H132393   0.203   4.121  12.952 -0.0983 -0.7246 -0.3362
 3634TIP3    H232394   0.275   4.081  12.826  2.1617 -0.2764  0.7537
 3635TIP3   OH232395   2.646   3.398  10.391 -0.2935 -0.1215 -0.4492
 3635TIP3    H132396   2.596   3.474  10.359  0.3168  0.2858 -0.4552
 3635TIP3    H232397   2.710   3.381  10.321 -1.0071 -1.2073 -0.8535
 3636TIP3   OH232398   6.214   0.311   0.526  0.2093 -0.1578  0.0299
 3636TIP3    H132399   6.238   0.227   0.564  0.8867 -0.7958 -1.7333
 3636TIP3    H232400   6.296   0.347   0.492 -0.1782  0.9327  0.1921
 3637TIP3   OH232401   2.114   0.255   1.649 -0.3044 -0.1728  0.2890
 3637TIP3    H132402   2.150   0.175   1.612  0.3447 -0.3825  1.3154
 3637TIP3    H232403   2.106   0.237   1.743  0.3582  1.1286  0.6278
 3638TIP3   OH232404   5.593   0.143   9.624 -0.2644 -0.2651 -0.1781
 3638TIP3    H132405   5.674   0.194   9.627 -1.2989  1.7366 -2.7766
 3638TIP3    H232406   5.609   0.076   9.557 -1.1738  1.0976 -1.8339
 3639TIP3   OH232407   6.661   0.359  11.360  0.3016  0.7171 -0.3065
 3639TIP3    H132408   6.717   0.397  11.428  0.7159  3.4792 -2.0272
 3639TIP3    H232409   6.588   0.319  11.408  2.2078 -0.4368  1.8496
 3640TIP3   OH232410   1.625   0.879  14.769 -0.1294 -0.3290 -0.1630
 3640TIP3    H132411   1.608   0.833  14.851  4.0452 -0.7170  0.7093
 3640TIP3    H232412   1.618   0.972  14.791 -0.1368 -0.4454  0.3342
 3641TIP3   OH232413   2.478   2.452   0.852 -0.4529 -0.0995  0.3728
 3641TIP3    H132414   2.515   2.439   0.940 -0.1250 -0.5928  0.1699
 3641TIP3    H232415   2.388   2.422   0.859 -0.5408  0.2214  0.6368
 3642TIP3   OH232416   6.799   3.343  14.463  0.4064 -0.2844 -0.7612
 3642TIP3    H132417   6.882   3.341  14.416  0.3552 -0.5134 -0.8430
 3642TIP3    H232418   6.802   3.267  14.521  0.9877  0.6625  0.5129
 3643TIP3   OH232419   2.482   6.248  14.253 -0.1095  0.1895  0.0076
 3643TIP3    H132420   2.439   6.237  14.338  0.6811  0.6244  0.4663
 3643TIP3    H232421   2.502   6.158  14.225 -2.5248 -0.1632 -0.8809
 3644TIP3   OH232422   6.312   6.855  11.678 -0.3322  0.2579  0.6015
 3644TIP3    H132423   6.358   6.865  11.762 -1.6222  1.0700  1.2428
 3644TIP3    H232424   6.274   6.941  11.661 -1.6733 -0.3966  0.1389
 3645TIP3   OH232425   1.627   6.290  10.699  0.3519 -0.4356 -0.3570
 3645TIP3    H132426   1.666   6.372  10.668  1.1058 -0.6663 -0.0631
 3645TIP3    H232427   1.680   6.266  10.775  0.4090 -1.4126 -0.6856
 3646TIP3   OH232428   6.250   0.185  12.451  0.2292  0.9013 -0.2122
 3646TIP3    H132429   6.168   0.217  12.414  0.8885  1.1820 -1.4887
 3646TIP3    H232430   6.265   0.239  12.528 -0.4738  1.2671 -0.3293
 3647TIP3   OH232431   6.689   6.936  10.276  0.0746 -0.0400 -0.7069
 3647TIP3    H132432   6.762   6.977  10.228 -0.9000  2.7056 -0.0509
 3647TIP3    H232433   6.663   7.003  10.340 -2.7021 -1.1110 -0.6011
 3648TIP3   OH232434   1.674   1.101  10.532 -0.5142 -0.0956  0.2070
 3648TIP3    H132435   1.677   1.195  10.551  0.9946 -0.1591  0.4141
 3648TIP3    H232436   1.739   1.088  10.463 -1.0073 -0.9399 -0.1239
 3649TIP3   OH232437   4.539   1.257  14.020 -0.2759  0.0820 -0.2798
 3649TIP3    H132438   4.491   1.176  14.031  0.4077 -0.2399  0.3627
 3649TIP3    H232439   4.623   1.243  14.064 -1.1483  2.0598  2.2568
 3650TIP3   OH232440   1.958   7.165   0.345  0.2218 -0.1632  0.3588
 3650TIP3    H132441   1.990   7.255   0.336  1.6323 -0.4690  1.8329
 3650TIP3    H232442   1.865   7.176   0.365  0.4296  0.9831  0.8149
 3651TIP3   OH232443   2.915   2.472  13.203  0.0276 -0.6211  0.6762
 3651TIP3    H132444   2.867   2.406  13.153  0.1053  0.2652 -0.6065
 3651TIP3    H232445   3.000   2.433  13.220 -0.4068 -1.3842  1.1513
 3652TIP3   OH232446   5.344   4.003  12.039 -0.0394 -0.2340 -0.7138
 3652TIP3    H132447   5.335   3.914  12.073 -1.7729 -0.1581 -0.9350
 3652TIP3    H232448   5.435   4.027  12.061  1.2123 -2.7963 -2.5387
 3653TIP3   OH232449   4.673   2.659  10.448  0.0402  0.1718  0.1732
 3653TIP3    H132450   4.594   2.709  10.430 -1.2548 -0.7373  2.8496
 3653TIP3    H232451   4.743   2.725  10.454 -0.6311  1.0649 -1.4374
 3654TIP3   OH232452   6.139   0.901  13.784  0.2499  0.0395  0.3387
 3654TIP3    H132453   6.158   0.809  13.799  3.0779  0.4988  0.1167
 3654TIP3    H232454   6.131   0.939  13.871  1.5618 -0.0097  0.4992
 3655TIP3   OH232455   1.414   3.442  12.856 -0.1955 -0.1873  0.1471
 3655TIP3    H132456   1.443   3.475  12.771  1.0333  1.0224  1.0005
 3655TIP3    H232457   1.349   3.375  12.835  1.7785 -1.6132 -1.8185
 3656TIP3   OH232458   0.004   5.666  13.045  0.5655 -0.1327 -0.0757
 3656TIP3    H132459  -0.024   5.715  12.968  3.4758 -1.6063 -2.2945
 3656TIP3    H232460  -0.069   5.607  13.063 -1.4431  2.3106  0.3399
 3657TIP3   OH232461   1.441   0.174  10.446  0.1867  0.2955  0.1233
 3657TIP3    H132462   1.359   0.146  10.486 -0.0226  2.2054  1.1793
 3657TIP3    H232463   1.417   0.250  10.394  1.1648  0.3742 -0.2235
 3658TIP3   OH232464   6.321   1.006   3.312  0.1448 -0.1398  0.5620
 3658TIP3    H132465   6.377   0.941   3.356  0.4136  0.7622  1.5968
 3658TIP3    H232466   6.232   0.975   3.328  0.3053 -1.3334 -0.6969
 3659TIP3   OH232467   3.082   6.966   9.990 -0.2199 -0.0516  0.7634
 3659TIP3    H132468   3.073   6.872  10.005  2.2099 -0.1879  1.9530
 3659TIP3    H232469   3.175   6.984  10.006 -0.5829  2.5409  0.4671
 3660TIP3   OH232470   1.045   1.114  10.171 -0.4301  0.0119 -0.3578
 3660TIP3    H132471   1.030   1.055  10.097 -1.6488  0.9765 -0.9181
 3660TIP3    H232472   1.028   1.202  10.136  0.8173  0.6742  0.5913
 3661TIP3   OH232473   5.020   5.740  11.281 -0.3287  0.2780 -0.0139
 3661TIP3    H132474   4.953   5.803  11.254 -1.2843 -1.0306 -0.8274
 3661TIP3    H232475   5.098   5.793  11.296 -1.3455  1.7637  0.2717
 3662TIP3   OH232476   3.916   4.032  12.755  0.5594  0.6172  0.5858
 3662TIP3    H132477   3.888   3.970  12.823  1.2018 -0.0073  0.3045
 3662TIP3    H232478   4.011   4.017  12.748  0.4670  0.5208 -0.5849
 3663TIP3   OH232479   3.536   6.974  14.479  0.1373 -0.0532  0.2309
 3663TIP3    H132480   3.512   7.044  14.540 -0.6972  1.3522 -1.6094
 3663TIP3    H232481   3.555   7.019  14.397  0.9189 -1.8950 -0.6577
 3664TIP3   OH232482   1.082   0.490  12.602 -0.7850 -0.1830  0.6130
 3664TIP3    H132483   1.071   0.539  12.684  0.5654 -0.6703  1.0979
 3664TIP3    H232484   1.176   0.486  12.589 -0.9089 -1.8236  0.0698
 3665TIP3   OH232485   1.868   4.292  11.468  0.4803  0.0185  0.1802
 3665TIP3    H132486   1.853   4.306  11.374  0.6093  1.0548  0.3026
 3665TIP3    H232487   1.801   4.230  11.494  0.3894 -0.2146 -0.5859
 3666TIP3   OH232488   4.312   4.030  11.290 -0.1402 -0.3390 -0.3926
 3666TIP3    H132489   4.311   4.009  11.196 -2.7870 -0.1079 -0.5053
 3666TIP3    H232490   4.248   4.100  11.299 -1.4461 -1.6891  1.8312
 3667TIP3   OH232491   3.848   3.658  13.701  0.2978 -0.0283 -0.1858
 3667TIP3    H132492   3.851   3.576  13.752 -1.3092  0.2688  0.4640
 3667TIP3    H232493   3.842   3.629  13.610 -0.4733 -0.6708  0.0470
 3668TIP3   OH232494   0.567   2.153   5.206  0.3249  0.2829 -0.2009
 3668TIP3    H132495   0.607   2.066   5.207  0.1745  0.2154  1.0656
 3668TIP3    H232496   0.530   2.161   5.118 -0.6981 -1.4185  0.0212
 3669TIP3   OH232497   4.935   0.251  12.363 -0.3216  0.1063  0.1765
 3669TIP3    H132498   5.029   0.237  12.376 -0.3121 -2.2274 -1.7606
 3669TIP3    H232499   4.893   0.191  12.426 -0.5503  1.1290  1.0236
 3670TIP3   OH232500   3.005   6.360  14.709 -0.1567  0.0568 -0.5096
 3670TIP3    H132501   3.045   6.439  14.746  2.4390 -1.4280  0.1177
 3670TIP3    H232502   3.024   6.365  14.616  0.9406 -0.2936 -0.3165
 3671TIP3   OH232503   5.145   2.851  11.444  0.0533  0.1553  0.0618
 3671TIP3    H132504   5.185   2.766  11.465  0.7256 -0.2354 -2.4501
 3671TIP3    H232505   5.088   2.869  11.519  1.4199 -1.5034  1.6263
 3672TIP3   OH232506   0.495   3.878  10.160  0.4807 -0.1991  0.9684
 3672TIP3    H132507   0.508   3.925  10.078  0.2428  1.1275  1.6601
 3672TIP3    H232508   0.506   3.786  10.137  2.0305  0.2457 -0.2357
 3673TIP3   OH232509   4.630   1.165  12.153  0.1091  0.1612 -0.6004
 3673TIP3    H132510   4.592   1.144  12.068 -0.3612 -0.4338 -0.2570
 3673TIP3    H232511   4.638   1.080  12.197 -0.8513  0.5691  0.4346
 3674TIP3   OH232512   5.657   1.215  11.476  0.3474  0.0420  0.1820
 3674TIP3    H132513   5.751   1.232  11.483  0.7101 -1.7145 -0.0770
 3674TIP3    H232514   5.635   1.172  11.558 -0.0784 -0.2248 -0.0724
 3675TIP3   OH232515   3.101   4.888  11.611  0.2035 -0.3856 -0.1646
 3675TIP3    H132516   3.050   4.954  11.657  0.5969  1.0962 -1.7048
 3675TIP3    H232517   3.187   4.889  11.654  0.1583  0.0221 -0.0795
 3676TIP3   OH232518   5.022   5.524  13.985  0.1520  0.1567 -0.0747
 3676TIP3    H132519   5.009   5.585  14.058  0.1491  0.0819 -0.0130
 3676TIP3    H232520   5.058   5.445  14.025 -1.2764 -0.4533  0.0740
 3677TIP3   OH232521   5.298   2.914  13.045  0.1095 -0.2073  0.6560
 3677TIP3    H132522   5.318   2.973  13.117  1.7016  1.0923 -0.7794
 3677TIP3    H232523   5.270   2.972  12.974 -2.0799 -1.4984  0.3708
 3678TIP3   OH232524   6.565   0.353  14.875  0.2944 -0.4472 -0.4209
 3678TIP3    H132525   6.534   0.318  14.959 -2.4138 -1.5971 -1.7740
 3678TIP3    H232526   6.552   0.447  14.883 -0.1628 -0.5633  0.3721
 3679TIP3   OH232527   2.891   1.913  15.421  0.6583 -0.4933 -0.3994
 3679TIP3    H132528   2.800   1.886  15.412  0.0022  1.4963 -0.1195
 3679TIP3    H232529   2.924   1.918  15.331  0.8838 -2.3377 -0.4548
 3680TIP3   OH232530   3.997   1.278  15.084 -0.2962  0.0786 -0.4351
 3680TIP3    H132531   4.011   1.193  15.126  0.8566  1.3534  1.9825
 3680TIP3    H232532   3.989   1.258  14.991  0.8142 -2.5706 -0.0452
 3681TIP3   OH232533   2.765   2.871  10.791 -0.2629  0.1673 -0.4559
 3681TIP3    H132534   2.697   2.820  10.747  0.3710 -0.8845 -0.2654
 3681TIP3    H232535   2.745   2.861  10.884 -1.7450  2.5861 -0.4228
 3682TIP3   OH232536   6.775   2.571   0.564  0.4219 -0.4967 -0.1184
 3682TIP3    H132537   6.787   2.655   0.519  1.7773 -0.7826 -0.3646
 3682TIP3    H232538   6.861   2.553   0.602 -0.2614 -1.0700  1.1918
 3683TIP3   OH232539   6.373   6.388  13.021  0.1647  0.3009 -0.2334
 3683TIP3    H132540   6.402   6.390  13.112 -0.3052  0.8243 -0.0890
 3683TIP3    H232541   6.282   6.358  13.026  0.2984 -0.1761 -0.5813
 3684TIP3   OH232542   4.632   3.355  10.486  0.0668 -0.2004  0.4133
 3684TIP3    H132543   4.672   3.308  10.412 -0.2464 -1.9618  1.3011
 3684TIP3    H232544   4.564   3.409  10.447  0.1023 -0.8780 -0.6252
 3685TIP3   OH232545   1.283   6.278  11.582  0.5718 -0.3901 -0.8339
 3685TIP3    H132546   1.347   6.224  11.629  0.7319 -0.5015 -1.1815
 3685TIP3    H232547   1.243   6.331  11.651  1.3014 -0.0415 -0.6701
 3686TIP3   OH232548   3.278   0.085  14.111  0.0862  0.3626  0.2331
 3686TIP3    H132549   3.206   0.092  14.174  0.3413 -1.2548  0.7358
 3686TIP3    H232550   3.311  -0.004  14.122  0.3302  0.1285 -1.9900
 3687TIP3   OH232551   0.630   1.118  13.681 -0.2371 -0.2559  0.0408
 3687TIP3    H132552   0.714   1.158  13.658 -0.2481 -0.9184 -1.2522
 3687TIP3    H232553   0.604   1.161  13.763  1.6234 -0.4418  0.7635
 3688TIP3   OH232554   0.515   5.192  12.234 -0.0791  0.0211  0.8083
 3688TIP3    H132555   0.487   5.165  12.147 -1.0706 -1.5988  1.5928
 3688TIP3    H232556   0.569   5.270  12.218 -2.4596  1.4275 -1.0295
 3689TIP3   OH232557   1.376   5.058   9.795  0.1428  0.2102 -0.1645
 3689TIP3    H132558   1.454   5.019   9.756  1.0855  2.9973 -1.2613
 3689TIP3    H232559   1.406   5.097   9.877 -0.3415  0.3875 -0.0654
 3690TIP3   OH232560   3.230   6.415  11.957 -0.1637 -0.4033 -0.2034
 3690TIP3    H132561   3.267   6.437  12.042  0.0369 -0.6971 -0.2136
 3690TIP3    H232562   3.169   6.486  11.938  0.6245  0.2556 -0.3314
 3691TIP3   OH232563   4.223   2.668  11.629  0.4340  0.2277 -0.2709
 3691TIP3    H132564   4.305   2.707  11.599  0.7555 -1.2006 -1.3774
 3691TIP3    H232565   4.167   2.670  11.552  0.2377 -0.8656 -0.1645
 3692TIP3   OH232566   4.465   3.573  11.017 -0.5244 -0.7094 -0.6180
 3692TIP3    H132567   4.491   3.538  10.932 -2.0239 -4.7251  0.3440
 3692TIP3    H232568   4.537   3.550  11.075 -1.8904 -3.4611  0.2010
 3693TIP3   OH232569   6.169   2.504  12.377  0.2493 -0.6143 -0.1206
 3693TIP3    H132570   6.130   2.591  12.386 -0.1641 -0.8459  0.3388
 3693TIP3    H232571   6.219   2.509  12.296  1.7279  0.6247  0.8103
 3694TIP3   OH232572   1.045   6.018   0.800  0.6446 -0.2973 -0.5573
 3694TIP3    H132573   1.131   6.013   0.758  0.1253 -2.1291 -1.4986
 3694TIP3    H232574   0.989   6.060   0.735  0.1364 -1.9773 -1.2589
 3695TIP3   OH232575   6.481   3.556   3.448 -0.4574  0.5306 -0.0447
 3695TIP3    H132576   6.466   3.482   3.507 -2.1146 -0.0921 -1.1795
 3695TIP3    H232577   6.420   3.624   3.478  1.3027  1.6586  1.2193
 3696TIP3   OH232578   5.446   3.246  15.222 -0.6049  0.7161 -0.0907
 3696TIP3    H132579   5.475   3.267  15.311  5.3416 -0.5840 -1.2967
 3696TIP3    H232580   5.439   3.151  15.220  1.5026  0.5104 -1.3338
 3697TIP3   OH232581   6.674   0.819  11.311  0.1689 -0.0223  0.6014
 3697TIP3    H132582   6.718   0.897  11.277  1.9343 -0.7869  0.9829
 3697TIP3    H232583   6.590   0.816  11.266  1.8458 -0.2741 -2.8198
 3698TIP3   OH232584   5.964   3.843   4.617  0.4601  0.3488 -0.3270
 3698TIP3    H132585   5.921   3.778   4.561 -0.6600  0.5325  0.3004
 3698TIP3    H232586   6.057   3.825   4.607  0.2022 -0.7597 -0.8782
 3699TIP3   OH232587   0.484   5.746  13.187  0.5814  0.3394 -0.5626
 3699TIP3    H132588   0.537   5.787  13.118 -1.0837 -0.7075 -2.5981
 3699TIP3    H232589   0.398   5.785  13.177  0.6104  1.2213  1.9763
 3700TIP3   OH232590   1.986   3.895  12.036 -0.2432  0.2912  0.5106
 3700TIP3    H132591   1.924   3.832  12.000  1.2013 -2.0074  1.7282
 3700TIP3    H232592   2.069   3.847  12.040  0.9348  2.2679  1.6110
 3701TIP3   OH232593   7.067   4.633   0.169  0.0428 -0.3952 -0.0268
 3701TIP3    H132594   7.081   4.724   0.141  0.8877 -0.9960 -1.7119
 3701TIP3    H232595   7.049   4.586   0.088  1.7559 -2.1068  0.5179
 3702TIP3   OH232596   5.179   5.957  11.936 -0.1025  0.3626 -0.0136
 3702TIP3    H132597   5.214   5.880  11.981  0.9481  0.7930 -0.0659
 3702TIP3    H232598   5.126   6.001  12.003 -0.5732 -0.3109  0.0650
 3703TIP3   OH232599   1.775   4.574   0.481  0.2740  0.2122 -0.0873
 3703TIP3    H132600   1.702   4.591   0.541  0.3665 -1.5338  0.5772
 3703TIP3    H232601   1.846   4.630   0.514 -0.2650  0.7190  0.2414
 3704TIP3   OH232602   7.096   4.883   0.032  0.0921 -0.1735 -0.0810
 3704TIP3    H132603   7.060   4.959  -0.013  1.2052  1.1320  1.1276
 3704TIP3    H232604   7.137   4.831  -0.037 -1.5942 -0.2407 -1.0641
 3705TIP3   OH232605   1.340   0.283  13.406 -0.6826  0.4467  0.3793
 3705TIP3    H132606   1.314   0.191  13.398  0.8997 -0.0993  1.2823
 3705TIP3    H232607   1.261   0.327  13.440 -1.4664 -0.5391 -0.1016
 3706TIP3   OH232608   6.507   3.453  15.395  0.2191 -0.2122 -0.3334
 3706TIP3    H132609   6.422   3.485  15.364  0.3861  1.1881  0.5579
 3706TIP3    H232610   6.546   3.528  15.440  0.0151 -2.0033  3.2117
 3707TIP3   OH232611   0.633   2.181  14.431 -0.5330 -0.2706 -0.5681
 3707TIP3    H132612   0.622   2.201  14.524  1.7604  0.3190 -0.3512
 3707TIP3    H232613   0.676   2.096  14.429  0.6649  0.3118 -0.9868
 3708TIP3   OH232614   6.676   3.787  11.611 -0.7496 -0.4933 -0.5694
 3708TIP3    H132615   6.650   3.872  11.574 -0.7650 -0.6669 -0.9582
 3708TIP3    H232616   6.761   3.768  11.571 -0.7652 -0.6788 -0.5153
 3709TIP3   OH232617   6.836   5.823  13.862  0.4156  0.8086  0.1232
 3709TIP3    H132618   6.863   5.735  13.834 -1.6505  0.2218 -0.2096
 3709TIP3    H232619   6.813   5.813  13.954  1.0816  1.2381  0.3415
 3710TIP3   OH232620   4.089   1.188   4.402 -0.1354  0.8016  0.3411
 3710TIP3    H132621   4.103   1.121   4.469  0.4953 -0.3666 -0.9120
 3710TIP3    H232622   4.092   1.140   4.320  1.1914  2.5140 -0.6525
 3711TIP3   OH232623   4.925   0.226  11.570 -0.3365  0.3989  0.0046
 3711TIP3    H132624   4.873   0.162  11.617  1.2417 -0.6753  0.3665
 3711TIP3    H232625   4.974   0.174  11.506  0.2323  1.3769 -0.3718
 3712TIP3   OH232626   6.098   6.134   1.249  0.1620 -0.9096 -0.3514
 3712TIP3    H132627   6.114   6.043   1.223  0.1247 -0.5552 -1.6793
 3712TIP3    H232628   6.173   6.156   1.304  0.5331 -1.5270 -0.5935
 3713TIP3   OH232629   4.977   1.580  12.199  0.1311 -0.0433  0.5074
 3713TIP3    H132630   4.909   1.615  12.142 -0.6393  0.9258  1.9274
 3713TIP3    H232631   4.932   1.517  12.255  0.9951 -1.4547 -0.3359
 3714TIP3   OH232632   5.414   4.880   1.589  0.3305  0.3540 -0.5894
 3714TIP3    H132633   5.367   4.806   1.550  2.7313 -2.1496  0.9742
 3714TIP3    H232634   5.383   4.883   1.680 -0.5446  2.0549 -0.9030
 3715TIP3   OH232635   0.902   0.242  10.719  0.3915 -0.6670  0.1611
 3715TIP3    H132636   0.886   0.253  10.626  0.0689  2.2423  0.4805
 3715TIP3    H232637   0.946   0.156  10.726 -1.2998 -1.8570 -2.3893
 3716TIP3   OH232638   5.578   4.795  11.405 -0.2150  0.2392  0.4032
 3716TIP3    H132639   5.567   4.877  11.454  0.4483 -1.2373  3.2079
 3716TIP3    H232640   5.624   4.737  11.465 -0.0323 -2.0135 -1.7521
 3717TIP3   OH232641   6.539   4.930  13.678  0.1565  0.1236  1.0808
 3717TIP3    H132642   6.459   4.890  13.712  0.7614 -2.3456 -0.1268
 3717TIP3    H232643   6.508   4.991  13.610 -0.7137 -0.7381  0.6802
 3718TIP3   OH232644   3.505   3.404  13.546  0.1172 -0.2687  0.2066
 3718TIP3    H132645   3.430   3.344  13.543  0.7123 -1.0678  0.9503
 3718TIP3    H232646   3.576   3.357  13.503 -0.2567  1.2194 -2.2096
 3719TIP3   OH232647   1.899   1.482  10.027  0.2655  0.3273 -0.4519
 3719TIP3    H132648   1.908   1.575  10.011  1.3935  0.0614 -1.5289
 3719TIP3    H232649   1.983   1.444   9.999 -0.2314 -1.0221 -0.2145
 3720TIP3   OH232650   4.305   6.727  10.800 -1.0434  0.2327 -0.4626
 3720TIP3    H132651   4.264   6.690  10.723  0.1027 -1.3840 -0.3313
 3720TIP3    H232652   4.259   6.810  10.814 -0.0360  1.5428 -3.9735
 3721TIP3   OH232653   4.695   6.342   1.089  0.2803 -0.2298  0.1610
 3721TIP3    H132654   4.722   6.337   0.997 -2.4115  0.4985 -0.7813
 3721TIP3    H232655   4.662   6.254   1.109 -0.4367 -0.0174 -0.0534
 3722TIP3   OH232656   1.151   3.876   2.854 -0.2876  0.1129 -0.6521
 3722TIP3    H132657   1.234   3.886   2.901 -0.2988  1.1014 -0.8290
 3722TIP3    H232658   1.102   3.812   2.905 -0.7375  1.9103  1.3103
 3723TIP3   OH232659   1.000   5.629   0.295 -0.1191 -0.5353 -0.5064
 3723TIP3    H132660   0.989   5.635   0.200  0.5293 -1.7235 -0.6869
 3723TIP3    H232661   0.919   5.665   0.331  1.0229  3.3860 -1.3685
 3724TIP3   OH232662   0.010   6.484  12.411  0.2706  0.5214  0.1021
 3724TIP3    H132663  -0.005   6.575  12.437  0.1799  0.2789  0.9306
 3724TIP3    H232664  -0.032   6.432  12.480 -2.3105 -0.1707 -1.8349
 3725TIP3   OH232665   2.872   3.110   9.837 -0.1718  0.2102 -0.1938
 3725TIP3    H132666   2.903   3.064   9.759 -0.9857  0.6864 -0.7987
 3725TIP3    H232667   2.823   3.184   9.804  0.4418  1.0775  0.7823
 3726TIP3   OH232668   0.278   5.526  11.650 -0.4853  0.0932  0.1967
 3726TIP3    H132669   0.331   5.552  11.575  0.8490  0.1822  1.1216
 3726TIP3    H232670   0.188   5.531  11.619  0.0462 -0.6650 -1.6443
 3727TIP3   OH232671   4.520   5.858   9.566  0.0725  0.5497 -0.4257
 3727TIP3    H132672   4.426   5.854   9.554  0.1437  0.1708 -0.9005
 3727TIP3    H232673   4.545   5.945   9.533 -0.6491  2.6467  3.8652
 3728TIP3   OH232674   1.290   3.208   1.634 -0.8070 -0.5234 -0.5367
 3728TIP3    H132675   1.197   3.224   1.649 -0.7060  1.5788 -1.7401
 3728TIP3    H232676   1.298   3.192   1.540 -0.0268 -1.5227 -0.3240
 3729TIP3   OH232677   2.396   3.258  11.519  0.1280 -0.1567 -0.7485
 3729TIP3    H132678   2.316   3.229  11.474 -0.0495  0.9514 -1.1804
 3729TIP3    H232679   2.365   3.323  11.582  0.6032 -0.3361 -0.3229
 3730TIP3   OH232680   5.773   2.695  10.019 -0.2661  0.1769  0.5835
 3730TIP3    H132681   5.850   2.681  10.074  0.3121 -1.2703 -0.5433
 3730TIP3    H232682   5.706   2.726  10.080  0.4366 -1.0889  2.0629
 3731TIP3   OH232683   4.089   4.256  13.992  0.7634 -0.0866  0.2794
 3731TIP3    H132684   4.044   4.341  13.986  1.1490  0.0240 -2.1684
 3731TIP3    H232685   4.022   4.195  14.023 -0.9868  0.2007 -2.6306
 3732TIP3   OH232686   6.650   4.496  10.639  0.9827  0.2094 -0.2992
 3732TIP3    H132687   6.560   4.528  10.646  0.9895 -0.0882  1.5203
 3732TIP3    H232688   6.702   4.574  10.617  0.5304  0.7540  0.5563
 3733TIP3   OH232689   0.506   1.431  12.091 -1.1008  0.7466  0.4693
 3733TIP3    H132690   0.578   1.487  12.061 -1.3639  0.7136 -0.2383
 3733TIP3    H232691   0.434   1.492  12.107 -1.7803  0.5179 -1.4867
 3734TIP3   OH232692   5.102   4.277  10.927  0.0298  1.0786  0.7270
 3734TIP3    H132693   5.053   4.252  11.006 -1.6857  0.7736 -0.3774
 3734TIP3    H232694   5.066   4.221  10.858  1.4633  1.3649 -0.2956
 3735TIP3   OH232695   4.502   6.912  14.169 -0.5377 -0.0788  0.4309
 3735TIP3    H132696   4.515   6.910  14.074 -1.5739  0.7245  0.2432
 3735TIP3    H232697   4.574   6.861  14.205 -0.0988 -0.3469 -0.7891
 3736TIP3   OH232698   5.104   0.546  13.711  0.4165 -0.4550 -0.4257
 3736TIP3    H132699   5.056   0.581  13.635  1.5083  2.6990  0.2010
 3736TIP3    H232700   5.196   0.563  13.691  0.8540 -1.1374  0.9003
 3737TIP3   OH232701   7.086   1.435  10.669  0.4064  0.3779 -0.0309
 3737TIP3    H132702   7.060   1.343  10.670  1.8831 -0.1104 -1.3798
 3737TIP3    H232703   7.076   1.462  10.577 -0.4238  1.7083  0.4214
 3738TIP3   OH232704   5.892   2.226  14.842  0.1795  0.1921 -0.1465
 3738TIP3    H132705   5.816   2.203  14.897  1.5913 -0.6574  1.5518
 3738TIP3    H232706   5.889   2.321  14.837 -2.3431  0.1001 -2.1927
 3739TIP3   OH232707   4.269   1.407  10.799  0.1571  0.1910 -0.1278
 3739TIP3    H132708   4.203   1.346  10.832 -0.2589  1.2493  1.0672
 3739TIP3    H232709   4.344   1.395  10.858  0.3404  0.3327 -0.3298
 3740TIP3   OH232710   2.347   6.384   9.695 -0.1012 -0.0726  0.1107
 3740TIP3    H132711   2.412   6.393   9.625 -0.0220  1.0233  0.3074
 3740TIP3    H232712   2.287   6.456   9.682 -1.8088 -1.5497 -0.5660
 3741TIP3   OH232713   5.980   0.764  12.281 -0.2869  0.0611 -0.0938
 3741TIP3    H132714   5.900   0.782  12.231 -0.1731 -0.5205 -0.4923
 3741TIP3    H232715   6.050   0.804  12.229 -0.2686  0.2207  0.0510
 3742TIP3   OH232716   2.184   7.116  12.556  0.1308 -0.0370  0.1667
 3742TIP3    H132717   2.101   7.069  12.559 -0.0820  0.2234 -1.2914
 3742TIP3    H232718   2.245   7.053  12.517  0.2463  0.3182 -0.2256
 3743TIP3   OH232719   5.787   6.331  13.516  0.2244  0.3515 -0.6064
 3743TIP3    H132720   5.773   6.418  13.479 -0.4698  0.4092 -0.2307
 3743TIP3    H232721   5.847   6.346  13.590 -0.1965  0.5712 -0.3064
 3744TIP3   OH232722   6.356   3.345  12.278  0.1480 -0.3394 -0.1685
 3744TIP3    H132723   6.420   3.409  12.247  1.7346 -1.9689 -0.4020
 3744TIP3    H232724   6.342   3.368  12.370 -0.4428  1.1997 -0.6131
 3745TIP3   OH232725   4.873   7.176  15.125  0.2104  0.3053  0.0323
 3745TIP3    H132726   4.794   7.215  15.165  0.2228  0.0294  0.3317
 3745TIP3    H232727   4.844   7.147  15.039 -0.0131  0.2265  0.1310
 3746TIP3   OH232728   1.106   6.983   9.965  1.0116 -0.4415 -0.4703
 3746TIP3    H132729   1.128   6.988   9.872 -3.2058  1.2671 -1.6199
 3746TIP3    H232730   1.050   6.906   9.973  0.9935 -0.3382  0.5472
 3747TIP3   OH232731   4.800   5.733  11.614  0.0124  0.5169  0.1020
 3747TIP3    H132732   4.741   5.806  11.631 -1.7182 -0.9742  0.8986
 3747TIP3    H232733   4.852   5.725  11.694 -0.3953  0.3516  0.3524
 3748TIP3   OH232734   1.514   0.370  10.678  0.1982  0.2431  0.2069
 3748TIP3    H132735   1.454   0.320  10.734 -0.1325  0.9813  0.5214
 3748TIP3    H232736   1.457   0.411  10.613  0.5883 -0.6648 -0.7387
 3749TIP3   OH232737   2.107   1.817   0.154  0.0223  0.3316 -0.0170
 3749TIP3    H132738   2.025   1.854   0.120 -0.1493  0.5217  0.5972
 3749TIP3    H232739   2.164   1.893   0.168 -0.5648  0.4707  1.8855
 3750TIP3   OH232740   5.381   5.398  12.028 -0.2275 -0.2168  0.2174
 3750TIP3    H132741   5.466   5.362  12.006  0.5065  1.0770  0.8571
 3750TIP3    H232742   5.366   5.468  11.965 -0.9405 -0.5771 -0.0366
 3751TIP3   OH232743   3.237   1.478  10.647  0.1659 -0.5415 -0.2227
 3751TIP3    H132744   3.152   1.458  10.606 -1.3502  2.0455  1.3645
 3751TIP3    H232745   3.219   1.554  10.703  3.4014 -0.3806  0.7875
 3752TIP3   OH232746   5.880   0.479  10.354 -0.4971 -0.3169 -0.3062
 3752TIP3    H132747   5.928   0.397  10.368  0.1752  0.1000 -0.1059
 3752TIP3    H232748   5.948   0.546  10.349 -1.0164  0.1817 -0.8593
 3753TIP3   OH232749   4.940   7.002  10.201  0.2605  0.0708  0.2948
 3753TIP3    H132750   5.014   6.962  10.246 -0.1733  1.6945  2.6445
 3753TIP3    H232751   4.940   7.093  10.231 -2.7666  0.1014  0.5701
 3754TIP3   OH232752   3.349   3.973  10.522 -0.8302  0.0219 -0.4896
 3754TIP3    H132753   3.350   3.877  10.523 -0.4721  0.0032 -1.4035
 3754TIP3    H232754   3.282   3.997  10.586 -0.8735 -0.8375 -0.2011
 3755TIP3   OH232755   5.885   2.583   9.671 -0.1488  0.4252  0.2868
 3755TIP3    H132756   5.948   2.597   9.601 -0.3753  1.6384  0.3015
 3755TIP3    H232757   5.863   2.671   9.702 -2.5154  0.1431 -0.3183
 3756TIP3   OH232758   6.139   2.765  14.246  0.0151  0.5027  1.3116
 3756TIP3    H132759   6.057   2.779  14.198  0.1986 -0.3673  0.6986
 3756TIP3    H232760   6.208   2.788  14.183  0.2451  0.7744  1.6597
 3757TIP3   OH232761   6.174   2.282   9.852 -0.5385 -0.2990 -0.1511
 3757TIP3    H132762   6.221   2.218   9.905  0.2926 -0.4254 -1.0122
 3757TIP3    H232763   6.082   2.260   9.863 -0.3229 -0.9084  0.4912
 3758TIP3   OH232764   2.189   1.023  11.336  0.2186  0.1985  0.0084
 3758TIP3    H132765   2.222   1.095  11.282 -0.3169 -0.2565 -0.9483
 3758TIP3    H232766   2.141   0.967  11.275 -2.9655  1.1742  1.4039
 3759TIP3   OH232767   0.879   5.988  11.778  0.3785 -0.1459  0.8323
 3759TIP3    H132768   0.801   6.005  11.831  0.9841  2.7581  0.9390
 3759TIP3    H232769   0.914   6.075  11.758  2.7451 -1.3147 -0.5154
 3760TIP3   OH232770   7.118   0.561  12.476 -0.2707  0.0394 -0.2886
 3760TIP3    H132771   7.183   0.492  12.479 -1.4456 -1.1604 -1.3114
 3760TIP3    H232772   7.116   0.596  12.565  0.2765 -1.3138  0.2780
 3761TIP3   OH232773   1.291   5.056  10.914 -0.4402 -0.1042 -0.1595
 3761TIP3    H132774   1.291   4.960  10.904 -0.0136 -0.1028 -0.1897
 3761TIP3    H232775   1.383   5.078  10.930 -0.7907  0.0945  1.8764
 3762TIP3   OH232776   3.156   3.138  11.993 -0.0227  0.1438  0.2419
 3762TIP3    H132777   3.062   3.134  11.978 -0.1741  1.3620  0.7576
 3762TIP3    H232778   3.191   3.063  11.945 -1.3641 -0.9974  0.9714
 3763TIP3   OH232779   5.097   0.973  11.580  0.8292  0.4912 -0.1002
 3763TIP3    H132780   5.028   1.032  11.609  0.7518  0.0471  0.6182
 3763TIP3    H232781   5.178   1.016  11.606  0.8263  0.8668 -0.6777
 3764TIP3   OH232782   1.591   1.881   0.631  0.3808 -0.4941  0.1033
 3764TIP3    H132783   1.595   1.840   0.544  0.1982 -2.1336  0.8384
 3764TIP3    H232784   1.683   1.901   0.652  0.3421  0.8741 -0.8659
 3765TIP3   OH232785   0.548   4.192   0.162  0.2002 -0.3871 -0.3950
 3765TIP3    H132786   0.598   4.274   0.167  1.1141 -0.9845  1.6039
 3765TIP3    H232787   0.509   4.193   0.075  3.9672 -0.0240 -2.2970
 3766TIP3   OH232788   4.729   0.532  10.283 -0.1477 -1.0336  0.4155
 3766TIP3    H132789   4.638   0.551  10.304 -0.8133 -3.0709 -0.3700
 3766TIP3    H232790   4.738   0.554  10.190  0.8641  1.3269  0.9810
 3767TIP3   OH232791   0.228   4.745  13.215  0.1085  0.0167 -0.7349
 3767TIP3    H132792   0.279   4.784  13.286  0.3652 -1.3166 -0.1651
 3767TIP3    H232793   0.191   4.665  13.252 -3.3309  1.4290 -0.7875
 3768TIP3   OH232794   4.729   1.974  10.431 -0.2538  0.4249  0.5333
 3768TIP3    H132795   4.787   1.990  10.357 -0.3090  2.9933  0.9639
 3768TIP3    H232796   4.779   2.003  10.507 -1.2750  0.6066  1.1564
 3769TIP3   OH232797   2.975   4.571   2.839 -0.1143 -0.1401  0.5553
 3769TIP3    H132798   2.894   4.619   2.853  0.6892  1.0679  1.2318
 3769TIP3    H232799   2.994   4.531   2.924 -1.9910 -3.7602 -0.5260
 3770TIP3   OH232800   0.723   4.770  10.262 -0.2449  0.6462 -0.2116
 3770TIP3    H132801   0.770   4.854  10.267  0.9623  0.2373 -3.0555
 3770TIP3    H232802   0.631   4.794  10.264  0.0541  2.2444 -2.2581
 3771TIP3   OH232803   4.116   5.115  10.766 -0.4085  0.2418 -0.2658
 3771TIP3    H132804   4.113   5.169  10.688 -1.5615  1.6314  0.6845
 3771TIP3    H232805   4.108   5.177  10.839  0.4911 -1.0063  0.9612
 3772TIP3   OH232806   3.186   2.279  10.663  0.1577  0.0497 -0.1728
 3772TIP3    H132807   3.274   2.243  10.651  0.6391  1.0458  0.2996
 3772TIP3    H232808   3.197   2.374  10.656 -1.0672  0.1349 -1.2278
 3773TIP3   OH232809   0.632   5.690  11.920  0.4250 -0.6034  0.1439
 3773TIP3    H132810   0.603   5.737  11.998  0.3149  0.8260 -0.7160
 3773TIP3    H232811   0.598   5.742  11.847  3.2124 -0.1147 -0.9072
 3774TIP3   OH232812   4.149   6.889  11.451 -0.1708 -0.0981 -0.0557
 3774TIP3    H132813   4.241   6.912  11.441  0.0687 -1.1999 -0.5466
 3774TIP3    H232814   4.102   6.951  11.395  0.1877  0.9774  0.8098
 3775TIP3   OH232815   6.156   5.304  12.762 -0.1100 -0.1292 -0.4180
 3775TIP3    H132816   6.160   5.259  12.678  2.3028 -0.1705 -0.3339
 3775TIP3    H232817   6.063   5.324  12.773 -0.4235  0.8657 -3.6161
 3776TIP3   OH232818   0.221   2.185  12.674 -0.1639  0.0287 -0.9555
 3776TIP3    H132819   0.261   2.133  12.744  0.4813  0.9430 -0.6183
 3776TIP3    H232820   0.296   2.218  12.623 -0.5605  0.4981 -1.2483
 3777TIP3   OH232821   0.927   4.362  12.238 -0.7702 -0.0401 -0.5794
 3777TIP3    H132822   0.963   4.403  12.316 -2.1292  2.2150 -1.0363
 3777TIP3    H232823   0.867   4.295  12.271 -2.9993  2.2961  0.5250
 3778TIP3   OH232824   4.290   6.643  13.312  0.0987  0.2427  0.4548
 3778TIP3    H132825   4.336   6.670  13.392  2.8251  0.2278 -1.0219
 3778TIP3    H232826   4.336   6.565  13.283 -0.5658  0.4866 -1.3661
 3779TIP3   OH232827   3.779   0.262  14.118  0.2679 -0.2974 -0.4964
 3779TIP3    H132828   3.704   0.320  14.108 -1.1428 -1.9728 -0.1836
 3779TIP3    H232829   3.743   0.183  14.160  2.4755 -0.6066  1.0141
 3780TIP3   OH232830   2.443   4.746  11.444  0.6172  0.3244  0.2349
 3780TIP3    H132831   2.416   4.679  11.382 -2.1607 -0.1764  1.8284
 3780TIP3    H232832   2.390   4.730  11.522  2.5740  2.0924  2.0637
 3781TIP3   OH232833   0.532   6.333   3.522  0.0005 -0.4862  0.5304
 3781TIP3    H132834   0.453   6.365   3.566 -1.0838 -1.6041 -0.5322
 3781TIP3    H232835   0.531   6.377   3.437  1.2242  0.4461  0.9690
 3782TIP3   OH232836   3.980   3.155  13.037  0.4817 -0.3259  0.7363
 3782TIP3    H132837   3.957   3.072  13.081  2.1961 -1.0916  0.2661
 3782TIP3    H232838   4.014   3.128  12.952 -0.5833  1.0045 -0.1441
 3783TIP3   OH232839   4.760   2.932  11.897  0.5930 -0.7455 -0.1979
 3783TIP3    H132840   4.848   2.969  11.907  1.1451 -1.1721 -2.8028
 3783TIP3    H232841   4.725   2.929  11.986  3.1657 -0.4710  0.9076
 3784TIP3   OH232842   1.773   0.684  11.415  0.1807 -0.0316  0.1435
 3784TIP3    H132843   1.755   0.667  11.508 -1.0424 -1.8461 -0.3749
 3784TIP3    H232844   1.765   0.598  11.373  1.3749  0.6371 -1.5686
 3785TIP3   OH232845   4.989   1.111   9.622 -0.1295  0.2920  0.0248
 3785TIP3    H132846   5.064   1.167   9.644 -0.9638  0.8507  1.5923
 3785TIP3    H232847   5.016   1.023   9.649  0.1956  0.3806 -0.0044
 3786TIP3   OH232848   0.001   4.809  10.025 -0.2226 -0.2842  0.3859
 3786TIP3    H132849   0.025   4.729  10.073 -1.1969 -0.5241  0.4878
 3786TIP3    H232850  -0.007   4.781   9.934 -1.6040 -0.5554  0.5672
 3787TIP3   OH232851   6.318   5.580  14.455 -0.6285  0.4391 -0.3848
 3787TIP3    H132852   6.283   5.668  14.464 -1.2315  0.3813 -1.8035
 3787TIP3    H232853   6.300   5.557  14.364 -0.3917 -1.1083 -0.0682
 3788TIP3   OH232854   5.269   6.766   0.949  0.0635  0.3978  0.2276
 3788TIP3    H132855   5.180   6.738   0.930  0.4030 -0.7046  0.1381
 3788TIP3    H232856   5.322   6.688   0.931  0.8454  0.4869  1.9576
 3789TIP3   OH232857   1.140   3.731  10.923  0.6906 -0.5845 -0.4925
 3789TIP3    H132858   1.182   3.652  10.888  1.9350 -0.1577  0.0172
 3789TIP3    H232859   1.046   3.709  10.922  1.0173 -2.1929 -0.0862
 3790TIP3   OH232860   1.193   1.974  12.209 -0.4939  0.1717 -0.0080
 3790TIP3    H132861   1.129   2.026  12.258 -0.2307 -1.2112  1.9093
 3790TIP3    H232862   1.276   1.991  12.253 -0.1103 -0.5498 -0.4393
 3791TIP3   OH232863   6.204   2.125  11.018  0.0451  0.1755 -0.6677
 3791TIP3    H132864   6.279   2.160  10.971  0.6500  0.4155  0.4479
 3791TIP3    H232865   6.228   2.034  11.036 -1.0515 -0.5369 -2.5833
 3792TIP3   OH232866   3.903   5.182  10.507  0.0954 -0.2465 -0.3675
 3792TIP3    H132867   3.866   5.159  10.592  0.6422 -0.0981 -0.0821
 3792TIP3    H232868   3.847   5.253  10.475 -1.1608 -1.4565 -0.9268
 3793TIP3   OH232869   6.448   4.969  12.168 -0.1074  0.1604  0.9643
 3793TIP3    H132870   6.516   4.950  12.232  0.7205 -1.4486 -0.3393
 3793TIP3    H232871   6.448   4.894  12.109 -3.3266 -0.1286  1.1614
 3794TIP3   OH232872   7.198   3.291   1.392  0.1588  0.1960 -0.0952
 3794TIP3    H132873   7.109   3.258   1.404 -0.3547  1.8220  0.8856
 3794TIP3    H232874   7.243   3.270   1.474  0.3077  0.4837 -0.1024
 3795TIP3   OH232875   6.618   5.658  14.334  0.3153 -0.0813 -0.2200
 3795TIP3    H132876   6.556   5.597  14.374 -0.5724  0.7460 -0.2770
 3795TIP3    H232877   6.582   5.745  14.355  1.1080  0.4029 -0.8118
 3796TIP3   OH232878   5.377   6.232  13.844 -0.2857  0.3706 -0.4999
 3796TIP3    H132879   5.424   6.297  13.791  0.1544 -1.2190 -2.1443
 3796TIP3    H232880   5.402   6.148  13.806 -1.2287 -0.7539  1.2645
 3797TIP3   OH232881   1.265   4.707  11.279 -0.0036  0.6960  0.4630
 3797TIP3    H132882   1.218   4.624  11.282  0.9277  0.0528  5.2962
 3797TIP3    H232883   1.349   4.686  11.238 -0.4189 -0.2822  0.0813
 3798TIP3   OH232884   6.349   4.807  11.263 -0.5025 -0.1254  0.2257
 3798TIP3    H132885   6.301   4.888  11.275  0.4523  0.4112  0.5282
 3798TIP3    H232886   6.287   4.748  11.219 -2.0239 -0.0778  2.1975
 3799TIP3   OH232887   0.067   6.308  14.055 -0.2341 -0.4074  0.2563
 3799TIP3    H132888   0.133   6.256  14.101  1.1158  0.4630 -0.6489
 3799TIP3    H232889   0.017   6.350  14.125 -1.0097 -2.4313  1.0001
 3800TIP3   OH232890   5.012   6.120  11.164  0.3125 -0.0354  0.2350
 3800TIP3    H132891   4.988   6.085  11.079  1.0879  0.4649 -0.2010
 3800TIP3    H232892   5.101   6.088  11.179 -0.2048 -1.0461  1.3750
 3801TIP3   OH232893   6.598   4.889  12.416 -0.1065  0.3031  0.3307
 3801TIP3    H132894   6.666   4.821  12.410 -0.6059 -0.0727 -1.8395
 3801TIP3    H232895   6.522   4.844  12.453 -0.7973 -0.7073 -2.1372
 3802TIP3   OH232896   1.655   1.392  12.520 -0.3451  0.0699  0.0265
 3802TIP3    H132897   1.743   1.359  12.540 -0.3795  0.5763  1.0643
 3802TIP3    H232898   1.635   1.353  12.435  1.2979  0.7926 -0.7437
 3803TIP3   OH232899   5.353   6.178  14.124  0.4053  0.3466 -0.0274
 3803TIP3    H132900   5.402   6.246  14.170  3.0973 -0.7020 -1.1725
 3803TIP3    H232901   5.377   6.189  14.032 -1.2479 -0.4877 -0.5899
 3804TIP3   OH232902   2.541   3.767  12.916 -0.2884 -0.4848  0.5492
 3804TIP3    H132903   2.560   3.704  12.985  0.5271  1.2344  1.9950
 3804TIP3    H232904   2.496   3.717  12.848  0.2530 -2.5569  1.6566
 3805TIP3   OH232905   0.562   0.181  10.426 -1.1096  0.6919 -0.0550
 3805TIP3    H132906   0.642   0.188  10.374 -1.5713  0.1729 -0.8672
 3805TIP3    H232907   0.549   0.087  10.439 -1.1936  0.8053  0.6954
 3806TIP3   OH232908   2.139   7.067   9.260  0.4833 -0.0410  0.2074
 3806TIP3    H132909   2.072   7.113   9.310  2.2108  0.3785  2.2826
 3806TIP3    H232910   2.217   7.069   9.316  2.3971 -0.0636 -2.2613
 3807TIP3   OH232911   0.649   0.519  10.178  0.0745  0.0645  0.3048
 3807TIP3    H132912   0.721   0.581  10.166  0.9784 -1.1814 -1.1357
 3807TIP3    H232913   0.691   0.433  10.173 -1.5494 -0.7084 -0.8432
 3808TIP3   OH232914   1.869   6.645  13.561 -0.0565 -0.0008  0.0906
 3808TIP3    H132915   1.825   6.668  13.479 -2.2440 -2.1822  0.5328
 3808TIP3    H232916   1.802   6.603  13.614  1.6476  0.0530  2.4741
 3809TIP3   OH232917   2.567   7.219  12.781  0.1760  0.5841  0.0478
 3809TIP3    H132918   2.510   7.262  12.718 -0.3435 -0.6893 -0.3541
 3809TIP3    H232919   2.513   7.206  12.859 -0.4103 -1.4699 -0.6547
 3810TIP3   OH232920   0.799   0.954  14.840  0.2157  0.0723  0.1954
 3810TIP3    H132921   0.796   0.859  14.847  1.3866 -0.0370 -0.4878
 3810TIP3    H232922   0.728   0.976  14.779  0.6217 -0.4774 -0.4921
 3811TIP3   OH232923   6.048   7.207  11.592  0.3944 -0.2345  0.1830
 3811TIP3    H132924   5.974   7.258  11.625  1.3060  0.2436  1.5895
 3811TIP3    H232925   6.102   7.190  11.669  1.1190 -1.6673 -0.5977
 3812TIP3   OH232926   6.992   4.309  11.057 -0.1069 -0.1360 -0.5592
 3812TIP3    H132927   6.934   4.375  11.018 -0.9792 -1.5974 -1.8323
 3812TIP3    H232928   6.935   4.235  11.076  0.8593 -0.5605  0.8405
 3813TIP3   OH232929   5.713   0.956  12.685  0.6974  0.0199  0.0739
 3813TIP3    H132930   5.659   0.938  12.608 -3.0817 -1.2382  2.7217
 3813TIP3    H232931   5.703   1.050  12.700 -0.2920 -0.0916  0.1718
 3814TIP3   OH232932   3.125   3.772  10.095  1.4394  0.1229  0.1851
 3814TIP3    H132933   3.096   3.828  10.166 -0.1852  1.9865 -1.8069
 3814TIP3    H232934   3.177   3.829  10.038 -1.2575  0.1479 -2.5235
 3815TIP3   OH232935   1.277   3.072  11.817 -0.1264  0.3104 -0.1899
 3815TIP3    H132936   1.260   3.165  11.801 -0.4946  0.3392  0.3456
 3815TIP3    H232937   1.360   3.055  11.771 -0.4505  0.7064 -0.9496
 3816TIP3   OH232938   6.553   4.930  11.092 -0.4467 -0.0935  0.3911
 3816TIP3    H132939   6.466   4.941  11.130 -1.1036 -0.0706 -1.0631
 3816TIP3    H232940   6.564   5.006  11.035  0.0531 -0.6735 -0.3006
 3817TIP3   OH232941   4.801   2.082   5.548 -0.1304 -0.0335  0.4006
 3817TIP3    H132942   4.714   2.119   5.533  0.6585  0.9285 -2.4668
 3817TIP3    H232943   4.797   1.994   5.509  0.1400 -0.0462  0.3956
 3818TIP3   OH232944   1.137   0.005  15.030  0.7041 -0.2087 -0.3834
 3818TIP3    H132945   1.120   0.066  14.958 -1.2268  0.3029  0.4494
 3818TIP3    H232946   1.225  -0.029  15.012  0.9199  1.1121 -2.0884
 3819TIP3   OH232947   2.985   4.200  14.551 -0.2443  0.3096  1.0446
 3819TIP3    H132948   3.070   4.245  14.546  0.4827 -0.9378  1.6145
 3819TIP3    H232949   2.981   4.148  14.470 -0.1916 -0.0669  1.2779
 3820TIP3   OH232950   5.251   4.507  12.668  0.2366 -0.6507 -0.2211
 3820TIP3    H132951   5.330   4.560  12.658 -0.1235 -0.3216 -1.5714
 3820TIP3    H232952   5.257   4.472  12.756 -0.5252  3.2913  1.6121
 3821TIP3   OH232953   4.198   4.836  11.617  0.5361  0.1927 -0.3753
 3821TIP3    H132954   4.103   4.846  11.625  0.1714 -2.2484 -0.8158
 3821TIP3    H232955   4.226   4.802  11.702  0.9269  0.3092 -0.4534
 3822TIP3   OH232956   4.662   5.033  11.722  0.4407 -0.0614 -0.7904
 3822TIP3    H132957   4.657   4.937  11.727  2.3919 -0.1680 -0.1905
 3822TIP3    H232958   4.605   5.056  11.648 -2.4620 -1.3766  0.8325
 3823TIP3   OH232959   2.871   3.102  10.123 -0.6643 -0.1117  0.3137
 3823TIP3    H132960   2.776   3.093  10.124 -0.7349  0.6199  0.9565
 3823TIP3    H232961   2.892   3.132  10.035 -0.8773 -1.6594 -0.2968
 3824TIP3   OH232962   6.970   6.595  10.731  0.5334 -0.3072  0.4606
 3824TIP3    H132963   6.886   6.555  10.706  0.1045  0.1297  1.1750
 3824TIP3    H232964   6.980   6.669  10.671  1.8512 -2.0372 -1.6012
 3825TIP3   OH232965   4.942   1.765   2.770 -0.8660  0.2779 -0.1437
 3825TIP3    H132966   4.987   1.848   2.761  0.5616 -0.2434  1.6337
 3825TIP3    H232967   4.867   1.772   2.711  0.8274  1.6573 -2.3167
 3826TIP3   OH232968   2.922   0.513  12.691  0.5584 -0.6513  0.0404
 3826TIP3    H132969   2.921   0.524  12.596  0.5545 -2.1528 -0.1604
 3826TIP3    H232970   2.980   0.582  12.722 -0.4537  0.6954 -0.9070
 3827TIP3   OH232971   3.522   5.233  13.136 -0.3918 -0.1036  0.1646
 3827TIP3    H132972   3.547   5.248  13.044 -0.5288 -1.8286 -0.1783
 3827TIP3    H232973   3.603   5.250  13.185 -0.1207  0.1098 -0.3432
 3828TIP3   OH232974   5.192   3.491   9.646 -0.0390 -0.4574  0.4395
 3828TIP3    H132975   5.172   3.403   9.614  1.3181 -1.4907  2.2408
 3828TIP3    H232976   5.260   3.523   9.587  0.1261 -1.0045  0.3233
 3829TIP3   OH232977   5.366   4.007   9.585  0.1580  0.3513 -0.3649
 3829TIP3    H132978   5.388   4.079   9.644 -1.3624  0.9455 -0.4567
 3829TIP3    H232979   5.416   3.933   9.617  0.9215  1.1746  0.4176
 3830TIP3   OH232980   5.273   6.378  11.456 -0.0416  0.3451 -0.2993
 3830TIP3    H132981   5.202   6.326  11.493  0.1269  0.2350 -0.1258
 3830TIP3    H232982   5.353   6.338  11.492  0.0633  1.2090  0.4760
 3831TIP3   OH232983   2.711   5.519  12.668  0.4152 -0.6111 -0.5490
 3831TIP3    H132984   2.634   5.484  12.624 -1.2909 -0.0860  1.8631
 3831TIP3    H232985   2.690   5.612  12.682  0.9367 -0.7438  1.2601
 3832TIP3   OH232986   0.843   2.264  11.153  0.3757  0.0742 -0.6181
 3832TIP3    H132987   0.749   2.264  11.136  0.4232  0.0662 -0.8794
 3832TIP3    H232988   0.874   2.348  11.119  0.0821  1.1917  1.6207
 3833TIP3   OH232989   3.975   1.589   0.600 -0.2358 -0.6367  0.4068
 3833TIP3    H132990   3.912   1.651   0.563  0.0973 -1.1027 -0.9926
 3833TIP3    H232991   4.060   1.633   0.591 -0.1426 -0.7953  0.5132
 3834TIP3   OH232992   5.395   1.936   0.714  0.1716  0.5928 -0.6941
 3834TIP3    H132993   5.480   1.979   0.726  1.3843 -1.2419 -2.0867
 3834TIP3    H232994   5.407   1.880   0.637 -1.8048 -0.9533  0.0308
 3835TIP3   OH232995   2.973   2.193  14.558  0.0837  0.4691  0.2395
 3835TIP3    H132996   2.955   2.285  14.578  1.2183  0.6843  0.3445
 3835TIP3    H232997   3.024   2.196  14.477 -0.5627 -0.1263 -0.1989
 3836TIP3   OH232998   6.497   2.040  10.596  0.0385  0.0762 -0.1229
 3836TIP3    H132999   6.405   2.032  10.573 -0.9906  2.0999  2.6822
 3836TIP3    H233000   6.524   2.123  10.557 -0.3948  1.1804  1.7709
 3837TIP3   OH233001   3.044   6.414  13.079  0.0389 -0.0836 -0.8498
 3837TIP3    H133002   2.980   6.483  13.092 -1.6916 -1.2029 -2.7593
 3837TIP3    H233003   2.995   6.333  13.094  1.5680 -0.9657 -0.3568
 3838TIP3   OH233004   6.245   1.353  12.362 -0.0913 -0.2062 -0.5094
 3838TIP3    H133005   6.222   1.272  12.407 -1.4739  0.1886 -0.4704
 3838TIP3    H233006   6.174   1.414  12.384 -0.0284  0.4500 -2.0096
 3839TIP3   OH233007   2.109   6.475  12.490 -0.3854 -0.1023 -0.0326
 3839TIP3    H133008   2.163   6.545  12.453 -0.1263 -0.3962 -0.2112
 3839TIP3    H233009   2.152   6.394  12.462  0.3621 -0.3367  1.6979
 3840TIP3   OH233010   3.228   1.844  12.254 -0.6311 -0.3971  0.7384
 3840TIP3    H133011   3.314   1.816  12.284 -1.1663 -1.8030  1.0354
 3840TIP3    H233012   3.246   1.898  12.177  0.4856 -1.0673  0.5091
 3841TIP3   OH233013   4.004   6.940  10.515  0.3986 -0.4439  0.6064
 3841TIP3    H133014   4.066   6.868  10.503  1.8025  0.4212  2.3007
 3841TIP3    H233015   4.041   7.013  10.465  0.6119 -0.0173  1.3674
 3842TIP3   OH233016   5.098   6.052  13.189  0.6654 -0.2625 -0.8899
 3842TIP3    H133017   5.147   6.124  13.151 -0.4175  0.1320 -1.5947
 3842TIP3    H233018   5.035   6.094  13.247  0.2414 -0.6512 -1.0614
 3843TIP3   OH233019   0.935   3.313  12.061  0.7611  0.8078  0.1274
 3843TIP3    H133020   0.952   3.379  11.994  0.3024  2.7447  1.8193
 3843TIP3    H233021   1.022   3.292  12.096  0.9904 -0.1331 -0.9663
 3844TIP3   OH233022   4.678   0.903  10.389 -0.0559  0.1091  0.4413
 3844TIP3    H133023   4.666   0.998  10.393  1.1335  0.2758  0.5897
 3844TIP3    H233024   4.700   0.877  10.479  2.2382  0.1283 -0.0355
 3845TIP3   OH233025   3.426   6.386   2.240 -0.3873  0.3275 -0.4484
 3845TIP3    H133026   3.402   6.405   2.331  0.1280  0.4964 -0.3425
 3845TIP3    H233027   3.484   6.310   2.246 -2.0579 -1.0195 -0.8302
 3846TIP3   OH233028   2.344   6.704   0.814  0.2104  0.1409 -0.1568
 3846TIP3    H133029   2.378   6.621   0.781 -1.1870  0.1979 -1.8910
 3846TIP3    H233030   2.256   6.683   0.846  0.1451  0.8099  0.1162
 3847TIP3   OH233031   4.119   2.874  13.834  0.3772  0.1451 -0.2126
 3847TIP3    H133032   4.202   2.853  13.876  1.7812 -0.9356 -3.2840
 3847TIP3    H233033   4.129   2.964  13.804  0.0651  0.3325  0.2442
 3848TIP3   OH233034   6.117   4.706   1.194 -0.2667  0.2320  0.0891
 3848TIP3    H133035   6.175   4.724   1.119 -0.0374  2.0316  0.6591
 3848TIP3    H233036   6.107   4.790   1.238 -1.3770 -0.5462  1.4148
 3849TIP3   OH233037   4.827   0.631   1.911  0.0496 -0.5476 -0.2493
 3849TIP3    H133038   4.736   0.646   1.935  0.5088  1.2520  0.5651
 3849TIP3    H233039   4.833   0.656   1.819 -0.3537 -1.1006 -0.4301
 3850TIP3   OH233040   1.333   2.393  12.420  0.0541 -0.8024  0.1779
 3850TIP3    H133041   1.427   2.403  12.407  0.2629  0.0105  2.0161
 3850TIP3    H233042   1.294   2.449  12.353  0.8799 -0.6850 -0.2191
 3851TIP3   OH233043   1.049   4.899  11.442  0.1043  0.1110 -0.3290
 3851TIP3    H133044   1.001   4.911  11.360  1.7363 -0.6831 -1.4702
 3851TIP3    H233045   1.120   4.964  11.438  2.8921 -2.7395 -1.7751
 3852TIP3   OH233046   1.924   3.139  10.586  0.2661  0.4846  0.0925
 3852TIP3    H133047   1.872   3.060  10.595 -2.3987  1.9166 -1.5814
 3852TIP3    H233048   1.911   3.186  10.669  1.2847 -0.4250  0.8020
 3853TIP3   OH233049   6.256   2.453   9.622 -0.3435  0.0919 -0.1411
 3853TIP3    H133050   6.189   2.428   9.558 -0.0407 -0.3623 -0.2915
 3853TIP3    H233051   6.240   2.395   9.697 -0.4029  0.2991  0.0078
 3854TIP3   OH233052   6.228   0.596  12.250  0.1012  1.4973 -0.4852
 3854TIP3    H133053   6.300   0.652  12.281 -0.0585  1.7284 -0.5309
 3854TIP3    H233054   6.158   0.657  12.227 -0.1637  1.2639 -0.3046
 3855TIP3   OH233055   6.371   4.613  13.174  0.0817 -0.0295  0.0472
 3855TIP3    H133056   6.291   4.599  13.123 -0.2087 -3.3214  1.1402
 3855TIP3    H233057   6.340   4.649  13.257  0.1732  1.9635 -0.7424
 3856TIP3   OH233058   1.558   1.290   1.653  0.1094  0.0306 -0.0125
 3856TIP3    H133059   1.490   1.282   1.719  1.3749  1.5544  1.5537
 3856TIP3    H233060   1.542   1.376   1.612 -0.0564 -0.4613 -1.0276
 3857TIP3   OH233061   0.371   7.103  11.977 -0.3578  0.1898 -0.0685
 3857TIP3    H133062   0.355   7.159  12.053 -2.5026 -0.8195  0.2899
 3857TIP3    H233063   0.385   7.016  12.014 -2.4730 -0.5276 -0.7795
 3858TIP3   OH233064   0.108   6.115  14.507  0.1317 -0.6188 -0.1365
 3858TIP3    H133065   0.066   6.169  14.573  1.2353  1.0748 -0.7507
 3858TIP3    H233066   0.201   6.118  14.528  0.5095 -0.0723 -1.6857
 3859TIP3   OH233067   4.350   2.374   0.318 -0.1308 -0.1473  0.1061
 3859TIP3    H133068   4.380   2.356   0.407 -2.4378  1.5488  1.3339
 3859TIP3    H233069   4.319   2.289   0.285 -2.1034 -0.3379  2.1636
 3860TIP3   OH233070   1.869   0.692  13.826  0.5698 -0.0095  0.2364
 3860TIP3    H133071   1.778   0.664  13.818  0.6350 -1.0252  2.3383
 3860TIP3    H233072   1.914   0.649  13.754 -0.2685 -1.1762  0.3726
 3861TIP3   OH233073   1.389   5.386   9.869  1.1803  0.4239  0.2432
 3861TIP3    H133074   1.439   5.452   9.917 -0.2234  0.2472  2.0457
 3861TIP3    H233075   1.429   5.302   9.893  0.6074  0.3515  0.9745
 3862TIP3   OH233076   1.881   5.242  13.915 -0.2601 -0.1750  0.0458
 3862TIP3    H133077   1.821   5.233  13.989 -0.3544  0.3631  0.0410
 3862TIP3    H233078   1.957   5.288  13.951  0.1117 -0.7688  0.0297
 3863TIP3   OH233079   4.068   2.923  10.268 -0.2398  1.1079 -0.0360
 3863TIP3    H133080   4.057   2.854  10.203  0.9736  1.1010 -0.2553
 3863TIP3    H233081   3.979   2.951  10.288 -0.6574  0.7558 -1.3105
 3864TIP3   OH233082   0.908   6.930  12.838  0.3702  0.5201  0.7313
 3864TIP3    H133083   0.926   6.863  12.772  0.5708  0.7741  0.5283
 3864TIP3    H233084   0.919   7.013  12.792 -4.0390  0.8177 -0.2847
 3865TIP3   OH233085   2.728   1.206  11.937  0.0800  0.7466  0.5421
 3865TIP3    H133086   2.747   1.172  11.850 -0.4815  1.1087  0.2745
 3865TIP3    H233087   2.634   1.192  11.948 -0.5247  3.5554 -0.1993
 3866TIP3   OH233088   4.142   7.029  11.057 -0.2139 -0.3501 -0.1641
 3866TIP3    H133089   4.107   6.953  11.103  0.7340 -0.7242 -0.0398
 3866TIP3    H233090   4.129   7.009  10.964 -0.1017 -0.6027 -0.1262
 3867TIP3   OH233091   3.404   1.751   9.969  0.2724  0.3866 -0.0863
 3867TIP3    H133092   3.355   1.675   9.939  0.1320  1.2628 -2.2804
 3867TIP3    H233093   3.371   1.823   9.915  2.2553  1.4684  0.0639
 3868TIP3   OH233094   5.891   6.705  13.543 -0.0618  0.3459 -0.3290
 3868TIP3    H133095   5.905   6.777  13.481 -2.1051  1.7768  0.7334
 3868TIP3    H233096   5.963   6.712  13.605  0.4999  0.6280 -1.0037
 3869TIP3   OH233097   0.260   2.279   1.175 -0.0084 -0.3537  0.0662
 3869TIP3    H133098   0.239   2.341   1.106  0.4425  0.3609  0.5608
 3869TIP3    H233099   0.349   2.302   1.203 -0.3138 -0.3910  1.1235
 3870TIP3   OH233100   3.257   2.706   4.952  0.0902  0.2584 -1.3681
 3870TIP3    H133101   3.347   2.673   4.942 -0.0226 -1.7918  2.6245
 3870TIP3    H233102   3.206   2.629   4.973 -1.9133  1.8697  0.0387
 3871TIP3   OH233103   3.629   2.715  10.938  0.0651  0.2215 -0.0825
 3871TIP3    H133104   3.656   2.633  10.897 -1.0802 -1.8535  2.9610
 3871TIP3    H233105   3.709   2.767  10.944  0.5928 -0.0258 -3.1604
 3872TIP3   OH233106   4.362   2.171  11.876  0.7459  0.8346 -0.1258
 3872TIP3    H133107   4.351   2.111  11.802  1.4120 -1.3480  1.4415
 3872TIP3    H233108   4.293   2.147  11.937  0.8966  1.8462  0.4677
 3873TIP3   OH233109   6.592   2.647  10.362  0.2238  0.2665 -0.2223
 3873TIP3    H133110   6.665   2.628  10.421  0.6505  0.7534 -0.5852
 3873TIP3    H233111   6.543   2.565  10.357 -1.1424  0.7861  2.6116
 3874TIP3   OH233112   5.678   3.879  14.692 -0.0041  0.8751  0.8641
 3874TIP3    H133113   5.691   3.786  14.709  3.9850  1.0573 -0.1668
 3874TIP3    H233114   5.633   3.911  14.770 -3.9590 -2.1933  0.1597
 3875TIP3   OH233115   4.421   5.391  11.408  0.4991 -0.2958 -0.3045
 3875TIP3    H133116   4.453   5.435  11.486 -0.3665  2.1554 -1.2481
 3875TIP3    H233117   4.499   5.374  11.355  0.7525  1.5683 -0.5962
 3876TIP3   OH233118   2.148   1.646  10.484  0.4968  0.6965 -0.3575
 3876TIP3    H133119   2.222   1.621  10.540 -0.4526 -0.0189  0.6247
 3876TIP3    H233120   2.151   1.583  10.412  1.0828  0.9431 -0.5620
 3877TIP3   OH233121   3.916   4.373  12.083  0.0262 -0.0076 -0.2703
 3877TIP3    H133122   3.822   4.367  12.099 -0.0755  2.9099  0.7141
 3877TIP3    H233123   3.943   4.282  12.065 -2.9101 -0.9424 -0.4710
 3878TIP3   OH233124   3.245   0.354  11.519  0.6544  0.0053 -0.0374
 3878TIP3    H133125   3.226   0.260  11.517 -0.3570  0.1894  0.2863
 3878TIP3    H233126   3.296   0.366  11.599 -1.4555  0.0888  1.3827
 3879TIP3   OH233127   6.515   6.699  12.244 -0.2922  0.5748  0.5451
 3879TIP3    H133128   6.601   6.707  12.201 -0.4641  1.0850  0.2846
 3879TIP3    H233129   6.456   6.748  12.187 -1.3229 -2.0524 -0.8010
 3880TIP3   OH233130   2.652   2.582  13.987 -0.4083  0.3056  0.0225
 3880TIP3    H133131   2.635   2.676  13.992 -0.7173  0.2901 -0.5871
 3880TIP3    H233132   2.739   2.570  14.024  0.4037  1.0721 -1.5655
 3881TIP3   OH233133   2.523   5.705  14.831  0.1655  0.3452 -0.3997
 3881TIP3    H133134   2.524   5.610  14.821 -1.5748  0.0106  1.7762
 3881TIP3    H233135   2.561   5.721  14.917 -2.7615  1.2248  0.8655
 3882TIP3   OH233136   2.589   5.617   4.237 -0.2404  0.1505 -0.0267
 3882TIP3    H133137   2.519   5.579   4.292 -2.5790  1.0701 -2.1888
 3882TIP3    H233138   2.550   5.625   4.150  1.8264  2.8383 -0.8398
 3883TIP3   OH233139   6.586   4.065   0.514 -0.5048  0.1358 -0.2146
 3883TIP3    H133140   6.558   3.997   0.576  1.0990 -0.1187  0.2863
 3883TIP3    H233141   6.663   4.027   0.471  0.6860  1.7721  0.3956
 3884TIP3   OH233142   1.218   5.033  13.182  0.4193  0.1277 -0.1356
 3884TIP3    H133143   1.225   5.128  13.183  1.0409  0.0910 -0.6325
 3884TIP3    H233144   1.158   5.013  13.254  3.4036  0.6569  2.7982
 3885TIP3   OH233145   5.840   4.561  11.370  0.3998  0.7419  0.2094
 3885TIP3    H133146   5.914   4.612  11.336  2.3002 -0.6298  2.0935
 3885TIP3    H233147   5.800   4.618  11.436  0.7113  0.8897  0.2694
 3886TIP3   OH233148   5.372   1.756  11.865 -0.5208  0.2032 -0.1166
 3886TIP3    H133149   5.335   1.833  11.822 -2.2913 -0.1595  0.6888
 3886TIP3    H233150   5.319   1.683  11.834  1.5433 -0.8754 -1.3864
 3887TIP3   OH233151   7.030   5.681  14.216 -0.1551  0.5751  0.2814
 3887TIP3    H133152   7.038   5.773  14.192  0.4608  0.5028  0.1964
 3887TIP3    H233153   6.963   5.647  14.157  1.6906  0.2683 -1.7807
 3888TIP3   OH233154   4.617   1.760  13.371  0.3351 -0.4540 -0.0267
 3888TIP3    H133155   4.687   1.711  13.327  0.7555  0.3670 -0.2854
 3888TIP3    H233156   4.656   1.786  13.455  0.3538  0.0275 -0.1831
 3889TIP3   OH233157   4.562   6.619  10.605  1.0824 -0.2689  0.3317
 3889TIP3    H133158   4.595   6.666  10.528  0.9870 -1.6697 -0.6003
 3889TIP3    H233159   4.487   6.570  10.573 -0.0570  0.4894  1.7439
 3890TIP3   OH233160   5.128   6.721   0.572  0.5197 -0.0244  0.4768
 3890TIP3    H133161   5.183   6.796   0.594  1.8371 -0.7787 -0.1509
 3890TIP3    H233162   5.136   6.711   0.477  2.3378 -2.3623  0.7651
 3891TIP3   OH233163   5.462   6.015  15.261  0.0142 -0.0338  0.3041
 3891TIP3    H133164   5.516   6.056  15.329 -0.8313  0.5080  0.6707
 3891TIP3    H233165   5.406   6.086  15.229  1.2534  0.0352 -1.8803
 3892TIP3   OH233166   6.187   0.165  14.009 -0.1502 -0.2804 -0.3226
 3892TIP3    H133167   6.143   0.080  14.015  0.1325 -0.4108 -0.0681
 3892TIP3    H233168   6.278   0.143  13.989  0.0943 -0.0698  0.5523
 3893TIP3   OH233169   5.993   2.889  11.657 -0.0146  0.1090 -0.1586
 3893TIP3    H133170   5.980   2.794  11.655 -0.4415  0.1011 -3.7347
 3893TIP3    H233171   5.910   2.925  11.624  0.7990  1.5644 -0.7233
 3894TIP3   OH233172   3.076   0.374  11.259 -0.0743 -0.1731  0.1978
 3894TIP3    H133173   3.165   0.352  11.285  0.6041  1.2671 -0.7921
 3894TIP3    H233174   3.053   0.308  11.193  0.5888 -0.0579 -0.1580
 3895TIP3   OH233175   2.247   7.116   0.241  0.5332 -0.2804 -0.4042
 3895TIP3    H133176   2.155   7.134   0.258 -0.1419 -2.9655 -0.7858
 3895TIP3    H233177   2.290   7.131   0.325 -0.0374  1.8254 -0.4257
 3896TIP3   OH233178   1.393   1.450  12.824  0.0900  0.4203 -0.1236
 3896TIP3    H133179   1.359   1.369  12.862  0.6520  0.9444  1.5998
 3896TIP3    H233180   1.320   1.512  12.828 -0.1346  0.2091 -0.8099
 3897TIP3   OH233181   2.563   5.252  10.876  0.2556  0.5934  0.2836
 3897TIP3    H133182   2.658   5.245  10.876  0.5747  3.2946  2.0630
 3897TIP3    H233183   2.534   5.197  10.948  0.4781 -0.0338 -0.1009
 3898TIP3   OH233184   2.922   3.095  13.882  0.0835 -0.4777 -0.5306
 3898TIP3    H133185   2.843   3.121  13.834  0.1620  0.2689 -0.2661
 3898TIP3    H233186   2.907   3.004  13.906 -0.1483 -0.7209 -1.5839
 3899TIP3   OH233187   3.685   5.730  11.806 -0.1465  0.4445  0.2758
 3899TIP3    H133188   3.646   5.715  11.892  0.3681 -2.4448  0.1073
 3899TIP3    H233189   3.775   5.756  11.825  0.0326 -0.4060  0.6283
 3900TIP3   OH233190   6.777   4.638  14.061 -0.0404  0.0303  0.2507
 3900TIP3    H133191   6.755   4.587  13.984 -1.3819 -1.1074  1.3394
 3900TIP3    H233192   6.853   4.592  14.098 -1.3504 -1.3883  1.3274
 3901TIP3   OH233193   1.762   6.242  13.916 -0.3869 -0.7272  0.1611
 3901TIP3    H133194   1.780   6.211  14.005  0.9560  0.3296  0.3013
 3901TIP3    H233195   1.696   6.310  13.927  2.8460  2.5814  1.0350
 3902TIP3   OH233196   4.348   2.877  13.945  0.2905 -0.5861  0.0817
 3902TIP3    H133197   4.323   2.897  14.035  1.5736  0.6272  0.2033
 3902TIP3    H233198   4.413   2.807  13.953  0.3621 -0.5179  0.0992
 3903TIP3   OH233199   2.227   1.725  11.438  0.0129 -0.5508  0.3640
 3903TIP3    H133200   2.164   1.762  11.376  0.5721 -0.9914 -0.4904
 3903TIP3    H233201   2.193   1.750  11.524 -0.4970  0.5277 -0.1275
 3904TIP3   OH233202   0.757   6.626  10.237  0.0140  0.1387  0.3728
 3904TIP3    H133203   0.763   6.583  10.152  0.0568  2.1763 -0.7091
 3904TIP3    H233204   0.675   6.675  10.234  1.1564  2.1509  0.5357
 3905TIP3   OH233205   5.906   0.799  10.363 -0.1325  0.1779  0.3293
 3905TIP3    H133206   5.848   0.751  10.304 -2.4354  2.9302  0.1092
 3905TIP3    H233207   5.994   0.773  10.336 -1.1857 -2.6930 -0.6837
 3906TIP3   OH233208   5.570   6.283  12.623  0.0419  0.0686 -0.3778
 3906TIP3    H133209   5.630   6.210  12.642  1.0461  1.2932  1.4722
 3906TIP3    H233210   5.594   6.311  12.535  1.4449 -0.1771 -0.1008
 3907TIP3   OH233211   0.945   1.434  14.229 -0.0210  0.4597  0.1149
 3907TIP3    H133212   0.974   1.343  14.231 -0.0063  0.4377 -0.7134
 3907TIP3    H233213   0.947   1.457  14.136 -0.1356  1.2690  0.3119
 3908TIP3   OH233214   0.546   4.533   0.864  0.9041 -0.5337  0.6128
 3908TIP3    H133215   0.566   4.454   0.814  1.6250  1.6622 -2.8810
 3908TIP3    H233216   0.455   4.522   0.892  0.7253 -2.2246 -0.5146
 3909TIP3   OH233217   1.776   5.958  13.850  0.0121 -0.2894  0.3569
 3909TIP3    H133218   1.747   6.047  13.869  0.1689 -0.3190  0.7436
 3909TIP3    H233219   1.815   5.964  13.763  0.2842  0.0835  0.5006
 3910TIP3   OH233220   3.417   0.824  11.366  0.1336  0.6497 -0.1140
 3910TIP3    H133221   3.348   0.772  11.406  2.0062 -0.3735  2.0121
 3910TIP3    H233222   3.481   0.760  11.335  0.6546  1.5930 -1.0674
 3911TIP3   OH233223   0.148   1.229  10.602 -0.0685  0.3873 -0.2961
 3911TIP3    H133224   0.157   1.263  10.514 -1.8418 -0.6582 -0.9374
 3911TIP3    H233225   0.238   1.213  10.632  0.5381 -0.2726 -2.3313
 3912TIP3   OH233226   7.130   2.890  11.202  0.2057  0.6098 -0.0324
 3912TIP3    H133227   7.163   2.801  11.187  0.4302  0.7049 -0.1061
 3912TIP3    H233228   7.141   2.934  11.118  0.5227  0.8441  0.1338
 3913TIP3   OH233229   6.097   6.100  12.474 -0.2790 -0.1587 -0.2669
 3913TIP3    H133230   6.158   6.172  12.457 -0.3980  0.3969  1.4870
 3913TIP3    H233231   6.154   6.024  12.489 -0.0336  0.2128  0.7188
 3914TIP3   OH233232   4.033   4.951  12.570  0.2041  0.0784  0.1236
 3914TIP3    H133233   4.025   5.045  12.560  1.9321  0.2799  0.3437
 3914TIP3    H233234   4.015   4.916  12.483 -1.3610  0.5050  0.2430
 3915TIP3   OH233235   2.008   7.043   1.979 -0.4471 -0.2247  0.6310
 3915TIP3    H133236   1.961   7.056   2.061 -2.1034  0.2958 -0.3381
 3915TIP3    H233237   2.032   6.950   1.979 -1.0537 -0.3875  1.3868
 3916TIP3   OH233238   1.333   2.866  11.500  0.7631  0.2348  0.5495
 3916TIP3    H133239   1.411   2.817  11.474  0.6586 -0.1864  1.0107
 3916TIP3    H233240   1.268   2.799  11.520  0.6841  0.5486  1.3921
 3917TIP3   OH233241   4.208   1.497   9.818 -0.0941  0.1690  1.1476
 3917TIP3    H133242   4.128   1.449   9.843 -0.6628  0.3481 -0.2234
 3917TIP3    H233243   4.177   1.567   9.761  0.9516  0.9070  1.4591
 3918TIP3   OH233244   5.850   2.906   1.845  0.2960  0.2276 -0.2201
 3918TIP3    H133245   5.812   2.986   1.808  2.0073 -0.1643 -3.1355
 3918TIP3    H233246   5.928   2.936   1.891  1.8656  0.2558 -2.6849
 3919TIP3   OH233247   3.906   1.868  12.288 -0.1325  0.0277 -0.0165
 3919TIP3    H133248   3.892   1.962  12.272  0.5455 -0.1291 -1.7209
 3919TIP3    H233249   3.956   1.865  12.370  0.4798  1.2066 -0.3234
 3920TIP3   OH233250   4.036   1.631  11.573  0.3587  0.7512  0.0391
 3920TIP3    H133251   4.040   1.691  11.647  2.2691  1.0716 -0.2815
 3920TIP3    H233252   4.125   1.598  11.563 -0.5636 -2.1095  0.1273
 3921TIP3   OH233253   2.280   1.498  11.282  0.0870  0.0439  0.1143
 3921TIP3    H133254   2.279   1.582  11.328  0.0175 -0.0836  0.3457
 3921TIP3    H233255   2.332   1.515  11.203 -1.0351  0.6543 -0.5114
 3922TIP3   OH233256   0.581   3.562  10.426 -0.1901 -0.2467  0.8913
 3922TIP3    H133257   0.657   3.562  10.367  0.1849 -1.8587  1.3517
 3922TIP3    H233258   0.506   3.551  10.367 -0.1056  1.2958  0.4400
 3923TIP3   OH233259   5.107   1.975  10.632 -0.6587  0.3067  0.3938
 3923TIP3    H133260   5.104   2.015  10.545 -1.9585 -2.1876 -0.8223
 3923TIP3    H233261   5.077   2.044  10.691 -1.4490  1.5548 -1.3675
 3924TIP3   OH233262   6.570   7.138  11.190 -0.2222  0.3169  0.2543
 3924TIP3    H133263   6.486   7.111  11.226 -0.0854 -0.0458  0.2991
 3924TIP3    H233264   6.596   7.066  11.132  0.0310  0.4517  0.1980
 3925TIP3   OH233265   1.445   4.467  14.074  0.0170  0.0862  0.0720
 3925TIP3    H133266   1.417   4.557  14.055  1.2353  0.4755  0.0269
 3925TIP3    H233267   1.430   4.419  13.992 -0.7098  0.2212  0.1190
 3926TIP3   OH233268   2.613   1.835  10.423 -0.2807 -0.2714  0.0369
 3926TIP3    H133269   2.700   1.868  10.401 -1.1892  1.4900 -1.1373
 3926TIP3    H233270   2.573   1.813  10.338 -1.2479 -0.2980  0.4799
 3927TIP3   OH233271   6.055   2.215   4.494 -0.0876 -0.1923  0.3964
 3927TIP3    H133272   6.055   2.295   4.546  1.3309  0.3636 -0.4069
 3927TIP3    H233273   6.030   2.146   4.556  2.1753  0.3485  2.0124
 3928TIP3   OH233274   4.031   5.298  14.330 -0.2922  0.2449  0.1738
 3928TIP3    H133275   3.940   5.304  14.302 -0.1597  0.4657 -0.2111
 3928TIP3    H233276   4.056   5.388  14.350  0.0204  0.2634 -0.2900
 3929TIP3   OH233277   6.438   1.921  13.713  0.6194 -0.2543 -0.0712
 3929TIP3    H133278   6.468   1.841  13.669 -0.4717 -0.6933 -0.0472
 3929TIP3    H233279   6.381   1.890  13.783  2.4872  0.4260  1.8416
 3930TIP3   OH233280   1.721   5.331  12.822  0.5116  0.4576 -0.8009
 3930TIP3    H133281   1.764   5.368  12.745  1.4688 -0.8705 -0.9389
 3930TIP3    H233282   1.699   5.241  12.796 -0.6209  0.5076 -0.0680
 3931TIP3   OH233283   6.373   3.531   9.768 -0.5436 -0.0764  0.1293
 3931TIP3    H133284   6.367   3.554   9.861 -0.7536  0.4068 -0.0007
 3931TIP3    H233285   6.413   3.444   9.767 -1.0966 -0.3463  0.7041
 3932TIP3   OH233286   2.666   1.684   9.850  0.5181 -0.4203  0.2143
 3932TIP3    H133287   2.742   1.734   9.879 -0.0707  0.5065  0.1856
 3932TIP3    H233288   2.600   1.750   9.829  0.3046 -1.1296 -1.5077
 3933TIP3   OH233289   1.855   1.965  10.514  0.3549 -0.1363 -0.3585
 3933TIP3    H133290   1.780   1.911  10.489  0.4033 -0.0803 -0.6348
 3933TIP3    H233291   1.931   1.916  10.484  0.5616 -1.0779  1.5371
 3934TIP3   OH233292   3.815   3.376  13.708  0.4545  0.2704  0.2434
 3934TIP3    H133293   3.807   3.285  13.737  0.6003 -0.3735 -1.5852
 3934TIP3    H233294   3.776   3.376  13.621  0.7294  1.9100  0.0951
 3935TIP3   OH233295   7.023   5.772  11.048  0.1277  0.0210 -0.0162
 3935TIP3    H133296   7.059   5.861  11.041 -1.0108  0.6423  1.3853
 3935TIP3    H233297   6.983   5.770  11.135  1.1924 -2.2888  0.4934
 3936TIP3   OH233298   2.339   1.287  13.315  0.0686 -0.3809  0.4313
 3936TIP3    H133299   2.302   1.373  13.333 -1.0533 -0.6925 -0.3126
 3936TIP3    H233300   2.297   1.259  13.234 -0.8666 -2.3481  1.5179
 3937TIP3   OH233301   0.693   3.241  13.233 -0.0934 -0.8789 -0.3377
 3937TIP3    H133302   0.687   3.332  13.262  1.1476 -0.2988 -1.7854
 3937TIP3    H233303   0.659   3.190  13.307 -1.2539  0.7701  0.3153
 3938TIP3   OH233304   1.880   4.173  12.400 -0.3713  0.4941  0.6781
 3938TIP3    H133305   1.934   4.160  12.477  1.2686  1.9498 -0.1718
 3938TIP3    H233306   1.847   4.085  12.379  2.2573 -0.6063  0.8223
 3939TIP3   OH233307   7.106   3.403  13.381  0.5794  0.7055 -0.1131
 3939TIP3    H133308   7.133   3.406  13.473  0.5189  2.1607 -0.1092
 3939TIP3    H233309   7.184   3.371  13.334 -0.1342 -2.3737  0.6407
 3940TIP3   OH233310   0.211   6.093  10.876  0.4605  0.9618 -0.2598
 3940TIP3    H133311   0.250   6.117  10.960  0.0757  0.3813  0.0917
 3940TIP3    H233312   0.286   6.081  10.817  0.7590  0.8750  0.1324
 3941TIP3   OH233313   3.980   2.442  11.857 -0.8513 -0.0215  0.5532
 3941TIP3    H133314   4.074   2.441  11.877 -0.7720 -0.4271  0.1717
 3941TIP3    H233315   3.964   2.360  11.811 -1.1755  0.5524 -0.3794
 3942TIP3   OH233316   5.786   5.726  13.135  1.1134 -0.0269 -0.4652
 3942TIP3    H133317   5.739   5.727  13.219  0.6640 -1.3063 -0.6779
 3942TIP3    H233318   5.835   5.643  13.137  2.3271  0.6671 -0.8095
 3943TIP3   OH233319   2.125   6.896  10.881  0.3481  0.1466  0.6468
 3943TIP3    H133320   2.117   6.842  10.802  1.3286  1.2618 -0.2467
 3943TIP3    H233321   2.039   6.938  10.889  0.7174  1.2619 -0.7888
 3944TIP3   OH233322   0.557   1.547  11.745  0.1863 -0.3078 -0.6467
 3944TIP3    H133323   0.524   1.491  11.675 -0.1282  0.2679 -0.9678
 3944TIP3    H233324   0.627   1.598  11.704  0.0713 -0.0415 -0.5171
 3945TIP3   OH233325   5.980   4.154  12.792 -0.4048 -0.3815 -0.5956
 3945TIP3    H133326   5.902   4.099  12.796 -1.2925  0.6771 -2.0628
 3945TIP3    H233327   5.960   4.219  12.724  2.2413 -0.8252 -1.9361
 3946TIP3   OH233328   2.696   0.457  12.859  0.5942  0.0652  0.0693
 3946TIP3    H133329   2.668   0.530  12.914  0.4056 -0.6048  0.8828
 3946TIP3    H233330   2.768   0.492  12.807 -0.0450  1.0735 -0.1817
 3947TIP3   OH233331   6.718   6.362   3.474  0.2852  0.0342  0.8001
 3947TIP3    H133332   6.780   6.320   3.534 -0.1387  0.0126  1.2213
 3947TIP3    H233333   6.770   6.377   3.395  0.3439 -1.6791  0.4633
 3948TIP3   OH233334   7.076   0.099  11.910 -0.3414 -0.1645 -0.2567
 3948TIP3    H133335   7.110   0.173  11.961  0.9583  0.6606 -2.2011
 3948TIP3    H233336   7.151   0.040  11.903 -1.1782 -1.3769  0.6941
 3949TIP3   OH233337   0.280   6.911  10.994  0.0572  0.2247  0.1734
 3949TIP3    H133338   0.195   6.870  10.978  0.8717 -0.6056 -2.6840
 3949TIP3    H233339   0.269   6.958  11.077 -1.8986 -3.2188  2.1445
 3950TIP3   OH233340   3.218   2.890  12.349  0.2209  0.0868 -0.4004
 3950TIP3    H133341   3.310   2.866  12.334  0.0326 -1.1086  0.2135
 3950TIP3    H233342   3.177   2.808  12.376 -0.3476  1.2079  2.4732
 3951TIP3   OH233343   4.971   2.945   9.824 -0.3709 -0.0693  0.3493
 3951TIP3    H133344   4.939   2.873   9.878  1.0919 -1.5728 -0.6638
 3951TIP3    H233345   5.018   2.902   9.753  1.3189  1.9193  0.1670
 3952TIP3   OH233346   3.827   3.077  14.598 -0.0371 -0.5884  0.0486
 3952TIP3    H133347   3.754   3.119  14.553 -1.0551 -1.0466  1.2134
 3952TIP3    H233348   3.878   3.037  14.528  0.3487  1.5967 -0.9872
 3953TIP3   OH233349   6.729   0.726  12.175  0.0228 -0.3277 -0.1002
 3953TIP3    H133350   6.762   0.637  12.163 -0.6669 -1.1148  2.9633
 3953TIP3    H233351   6.675   0.742  12.097  0.5260 -2.3847 -0.9392
 3954TIP3   OH233352   5.998   4.846  11.350  0.4011 -0.1382 -0.8579
 3954TIP3    H133353   6.038   4.843  11.437 -1.5013 -2.5801  0.0692
 3954TIP3    H233354   6.037   4.771  11.303  0.4426  0.3732 -1.6552
 3955TIP3   OH233355   1.440   3.568   0.392  0.4111 -0.2293 -0.4383
 3955TIP3    H133356   1.400   3.536   0.311  1.0500 -0.4978 -0.6573
 3955TIP3    H233357   1.453   3.489   0.445 -1.6159  0.1238  0.6899
 3956TIP3   OH233358   2.074   6.975   4.085 -0.5382 -0.0430  0.3948
 3956TIP3    H133359   2.032   7.044   4.035 -0.2575  0.7180  1.1843
 3956TIP3    H233360   2.007   6.907   4.094 -0.7695  0.0505 -0.5017
 3957TIP3   OH233361   3.377   4.578  10.769  0.1278  0.1570 -0.5986
 3957TIP3    H133362   3.409   4.544  10.685 -0.7232  0.9403 -1.2594
 3957TIP3    H233363   3.390   4.505  10.830  1.5081 -0.1592 -1.2104
 3958TIP3   OH233364   6.909   4.741  11.514  0.2680  0.2171  0.6364
 3958TIP3    H133365   6.928   4.834  11.521  1.6287  0.0400 -0.2549
 3958TIP3    H233366   6.979   4.698  11.563 -1.7636 -0.3342  3.3308
 3959TIP3   OH233367   5.146   2.383   0.921  0.4689 -0.2561 -0.1781
 3959TIP3    H133368   5.097   2.350   0.997 -2.3028 -1.2080 -2.2293
 3959TIP3    H233369   5.201   2.310   0.895  0.9706 -0.1384  0.5287
 3960TIP3   OH233370   0.179   4.520  15.344  0.2170  0.1567 -0.0551
 3960TIP3    H133371   0.147   4.579  15.275 -0.1192  0.8846  0.7002
 3960TIP3    H233372   0.273   4.511  15.325  0.5130  1.8261  0.4118
 3961TIP3   OH233373   2.306   6.862  11.683 -0.8386  0.1910  0.3345
 3961TIP3    H133374   2.234   6.851  11.621 -0.8804  1.9100  0.0476
 3961TIP3    H233375   2.273   6.925  11.748 -0.7117 -1.3757  2.0154
 3962TIP3   OH233376   0.171   5.707   9.475  0.3381 -0.1495  0.2501
 3962TIP3    H133377   0.195   5.664   9.557 -1.4808 -1.6158  0.0505
 3962TIP3    H233378   0.091   5.664   9.447  0.1157  1.3244 -1.5670
 3963TIP3   OH233379   3.886   3.564  13.426 -0.0595  0.1387 -0.3131
 3963TIP3    H133380   3.916   3.507  13.356  1.2646  2.1165 -1.4385
 3963TIP3    H233381   3.961   3.619  13.448 -0.7437  0.2938  1.9690
 3964TIP3   OH233382   3.108   2.790  13.335  0.2926 -0.2572  0.3331
 3964TIP3    H133383   3.038   2.754  13.391 -0.2287  0.9743  0.5195
 3964TIP3    H233384   3.177   2.815  13.397 -0.9570  2.6514  0.7102
 3965TIP3   OH233385   5.287   5.832   0.769  0.5236  0.3196 -0.7410
 3965TIP3    H133386   5.344   5.755   0.760 -0.5224 -0.5707  0.0608
 3965TIP3    H233387   5.221   5.821   0.701 -0.0262  0.1331 -0.1890
 3966TIP3   OH233388   4.878   0.463  11.703 -0.2251  0.3679  0.3053
 3966TIP3    H133389   4.892   0.382  11.654 -3.8025 -0.1378 -0.1380
 3966TIP3    H233390   4.943   0.461  11.773  1.6870 -1.4018 -1.3979
 3967TIP3   OH233391   2.733   4.966  14.366 -0.0103  0.2804 -0.2491
 3967TIP3    H133392   2.769   4.978  14.454  2.3434  0.6850 -1.1764
 3967TIP3    H233393   2.762   5.044  14.318 -0.4225 -0.3845 -1.6297
 3968TIP3   OH233394   6.159   6.687  12.889  0.1922  0.6483  0.5327
 3968TIP3    H133395   6.145   6.647  12.975 -0.4996  0.1562  0.2014
 3968TIP3    H233396   6.100   6.762  12.887  1.1214  1.4023  0.9602
 3969TIP3   OH233397   1.748   2.418   2.700  0.4199 -0.1366 -0.2537
 3969TIP3    H133398   1.823   2.358   2.694  1.6729  1.0929  1.7256
 3969TIP3    H233399   1.673   2.365   2.675  1.2446 -3.0283  2.6855
 3970TIP3   OH233400   1.753   2.087  14.469 -0.1169 -0.0899 -0.4643
 3970TIP3    H133401   1.806   2.131  14.402  1.3461 -1.6888 -0.4012
 3970TIP3    H233402   1.751   2.149  14.542  1.5973  0.0512 -0.5105
 3971TIP3   OH233403   6.728   6.080  10.800 -0.7992 -0.4530 -0.8099
 3971TIP3    H133404   6.785   6.108  10.872 -0.4819  0.9391 -1.5703
 3971TIP3    H233405   6.785   6.030  10.742 -0.0673  1.7156 -2.0387
 3972TIP3   OH233406   1.221   6.386   2.130  0.3107 -0.2836 -0.4869
 3972TIP3    H133407   1.263   6.340   2.057  1.8090  0.8842 -0.4224
 3972TIP3    H233408   1.283   6.375   2.203 -0.5425 -0.3210  0.2432
 3973TIP3   OH233409   1.647   2.838  11.912  0.1816 -0.4125 -0.1326
 3973TIP3    H133410   1.582   2.872  11.973  0.0229 -0.1758 -0.4371
 3973TIP3    H233411   1.659   2.747  11.940 -0.6610 -0.6148 -0.3988
 3974TIP3   OH233412   0.838   4.226  13.979  0.2533  0.4201 -0.2192
 3974TIP3    H133413   0.759   4.272  13.951  0.4115  0.1994 -1.0729
 3974TIP3    H233414   0.893   4.224  13.901 -0.9197 -3.7568 -1.2150
 3975TIP3   OH233415   6.182   3.403   2.610  0.2035  1.2615  0.5591
 3975TIP3    H133416   6.111   3.463   2.587 -0.4621 -0.2219 -1.5308
 3975TIP3    H233417   6.174   3.393   2.705 -1.1092  2.6610  0.6454
 3976TIP3   OH233418   2.755   6.103  11.131  0.1771 -0.4519  0.2680
 3976TIP3    H133419   2.834   6.148  11.100 -0.4282 -0.1036 -0.7944
 3976TIP3    H233420   2.693   6.111  11.059 -0.4678 -1.6657  0.6679
 3977TIP3   OH233421   0.266   5.820   2.313  0.3382  0.3487 -0.1708
 3977TIP3    H133422   0.315   5.897   2.286 -0.4068  0.4900 -1.1580
 3977TIP3    H233423   0.174   5.842   2.296 -0.5008  1.2072  4.2751
 3978TIP3   OH233424   5.826   6.050  12.907 -0.9787 -0.4085 -0.2963
 3978TIP3    H133425   5.864   6.106  12.839 -0.0676 -0.6236  0.0195
 3978TIP3    H233426   5.817   6.106  12.983 -0.1600 -0.6575 -0.0100
 3979TIP3   OH233427   1.688   7.175  11.146  0.7788  0.4753  0.2249
 3979TIP3    H133428   1.622   7.108  11.127  0.5452  0.3173  1.5189
 3979TIP3    H233429   1.713   7.208  11.059 -0.4256 -0.0094 -0.3416
 3980TIP3   OH233430   3.763   1.933  13.963  0.2463  0.6069 -0.2485
 3980TIP3    H133431   3.839   1.919  14.018 -0.7536  3.1256  1.9899
 3980TIP3    H233432   3.780   2.016  13.919 -0.5855  0.4785 -0.8389
 3981TIP3   OH233433   4.766   2.339  13.717 -0.2751  0.2249 -0.4531
 3981TIP3    H133434   4.830   2.396  13.675 -0.6842  1.2407  0.2394
 3981TIP3    H233435   4.817   2.265  13.750  0.3454  0.4133 -0.9788
 3982TIP3   OH233436   3.211   5.701   1.312  0.2910  0.0999 -0.2463
 3982TIP3    H133437   3.135   5.757   1.297  0.5660  0.9492  1.2761
 3982TIP3    H233438   3.253   5.694   1.226 -1.8905 -1.0400 -1.2876
 3983TIP3   OH233439   5.288   0.494  14.566  0.1259  0.4215  0.4370
 3983TIP3    H133440   5.260   0.429  14.501 -1.0554 -0.5365  1.8343
 3983TIP3    H233441   5.214   0.500  14.627  1.7440  0.1361  2.5590
 3984TIP3   OH233442   0.462   5.078  10.435 -0.2337  0.0977 -0.0211
 3984TIP3    H133443   0.478   5.043  10.347  1.7937 -2.4000  1.2046
 3984TIP3    H233444   0.388   5.029  10.468  0.7021 -0.9511  0.5919
 3985TIP3   OH233445   5.165   5.119  14.647  0.3653 -0.1800  0.2584
 3985TIP3    H133446   5.216   5.141  14.725 -2.2809  0.3673  1.9537
 3985TIP3    H233447   5.145   5.204  14.607 -0.5196 -0.2565  0.5171
 3986TIP3   OH233448   1.111   3.999   2.373 -0.1919  0.3466  0.4812
 3986TIP3    H133449   1.158   3.989   2.456 -1.2064  1.1042  1.1769
 3986TIP3    H233450   1.180   3.999   2.307  0.5170 -2.1775  1.1063
 3987TIP3   OH233451   2.423   2.841  10.390  0.4349 -0.1012  0.4935
 3987TIP3    H133452   2.429   2.937  10.382  0.2562 -0.1663 -0.4442
 3987TIP3    H233453   2.337   2.826  10.429  0.4379  0.1140  0.5856
 3988TIP3   OH233454   6.177   2.762  10.567 -0.1968  0.1746  0.3270
 3988TIP3    H133455   6.088   2.781  10.537  0.3582 -2.5892 -4.1649
 3988TIP3    H233456   6.179   2.667  10.577  2.4605 -0.0441 -1.0788
 3989TIP3   OH233457   3.913   6.177   1.509 -0.1117 -0.0325 -0.6172
 3989TIP3    H133458   3.823   6.203   1.491 -0.0799 -0.2570 -1.1016
 3989TIP3    H233459   3.937   6.120   1.436  0.6958  0.6860 -0.9335
 3990TIP3   OH233460   4.111   5.467  13.914  0.0972 -0.1517  0.6144
 3990TIP3    H133461   4.160   5.394  13.875 -0.0560 -0.2235  0.5551
 3990TIP3    H233462   4.135   5.543  13.860  0.7209 -0.0375  1.0423
 3991TIP3   OH233463   1.942   2.124   9.788  0.0981 -0.0800 -0.0610
 3991TIP3    H133464   1.867   2.120   9.728 -1.4006 -0.2490  1.7164
 3991TIP3    H233465   1.923   2.199   9.845  0.7012 -0.7951  1.1211
 3992TIP3   OH233466   2.632   5.615  10.040  0.5268  0.3495  0.4661
 3992TIP3    H133467   2.541   5.637  10.061  0.2908 -1.2617  1.2359
 3992TIP3    H233468   2.684   5.669  10.100  0.0980  1.3397 -0.0328
 3993TIP3   OH233469   3.267   1.335  11.938 -0.1381 -0.0506 -0.2459
 3993TIP3    H133470   3.191   1.293  11.898 -1.1548  1.4937 -0.0015
 3993TIP3    H233471   3.248   1.336  12.031 -0.8953  2.2888 -0.3616
 3994TIP3   OH233472   2.804   3.384  10.165 -0.1047  0.1111 -0.3938
 3994TIP3    H133473   2.894   3.371  10.193  0.0325  1.2338 -0.2757
 3994TIP3    H233474   2.776   3.298  10.133  0.9230 -0.3004 -0.2160
 3995TIP3   OH233475   0.670   1.802  10.210  0.3173  0.1856 -0.6573
 3995TIP3    H133476   0.731   1.865  10.250  0.5001  1.1243 -2.3204
 3995TIP3    H233477   0.697   1.798  10.119 -2.8151  1.5537 -1.7588
 3996TIP3   OH233478   1.927   4.785  11.534 -0.3649 -0.8067 -0.3013
 3996TIP3    H133479   1.890   4.766  11.448  1.7088 -1.6579 -1.0636
 3996TIP3    H233480   1.956   4.700  11.567 -0.4048 -0.3785  0.9072
 3997TIP3   OH233481   0.314   6.091  13.693 -0.4860  0.4573  0.0153
 3997TIP3    H133482   0.330   6.024  13.760 -0.8167  0.0875 -0.2684
 3997TIP3    H233483   0.309   6.173  13.741 -0.5216  0.2203  0.4202
 3998TIP3   OH233484   4.228   4.120  12.650  0.1468  0.4065 -0.4144
 3998TIP3    H133485   4.320   4.099  12.661 -0.2488 -1.5477 -0.5205
 3998TIP3    H233486   4.224   4.215  12.661  2.2233  0.6062 -0.8633
 3999TIP3   OH233487   0.462   4.296  10.658  0.2537  0.0388 -0.2346
 3999TIP3    H133488   0.455   4.240  10.581  1.9435 -1.6906  0.7869
 3999TIP3    H233489   0.408   4.252  10.724 -1.9618  2.0056 -0.6062
 4000TIP3   OH233490   0.651   5.555  13.721 -0.1409  0.8196  0.1575
 4000TIP3    H133491   0.583   5.583  13.659 -1.7493  0.3895  1.6418
 4000TIP3    H233492   0.698   5.486  13.675 -0.5025  1.3312 -1.0264
 4001TIP3   OH233493   1.604   4.385  11.764  0.0606 -0.4853 -0.2019
 4001TIP3    H133494   1.639   4.300  11.792 -0.2792 -0.0629  1.6522
 4001TIP3    H233495   1.522   4.364  11.720 -0.1482 -1.1153  0.4716
 4002TIP3   OH233496   0.104   2.684  14.128  0.2802 -0.0988  0.0069
 4002TIP3    H133497   0.106   2.629  14.206  1.5964 -1.5305 -0.9951
 4002TIP3    H233498   0.118   2.773  14.161  1.5367 -0.7581  1.3375
 4003TIP3   OH233499   1.906   1.049  11.501  0.2342  0.3130 -0.0386
 4003TIP3    H133500   1.987   1.019  11.541  0.3835  0.7934  0.0184
 4003TIP3    H233501   1.926   1.053  11.407 -0.2179 -1.1479 -0.2283
 4004TIP3   OH233502   1.670   3.298  13.316 -0.5255  0.0855 -0.9760
 4004TIP3    H133503   1.615   3.349  13.375 -0.8903  1.1103 -2.1795
 4004TIP3    H233504   1.610   3.232  13.279  0.0970 -1.8209  1.1363
 4005TIP3   OH233505   6.111   2.346  10.798 -0.1831 -0.1458  0.0258
 4005TIP3    H133506   6.121   2.257  10.831 -1.6374 -1.5423 -2.9182
 4005TIP3    H233507   6.187   2.359  10.741 -1.0995 -0.4330 -1.3082
 4006TIP3   OH233508   6.761   0.201  10.367 -0.4600 -0.0116 -0.4420
 4006TIP3    H133509   6.695   0.242  10.423 -0.7238 -1.5414  0.4352
 4006TIP3    H233510   6.831   0.176  10.428 -0.4731 -1.1750 -0.8831
 4007TIP3   OH233511   1.419   6.683   2.144  0.0154 -0.2933 -0.2458
 4007TIP3    H133512   1.435   6.657   2.053 -0.2324 -1.5086  0.0337
 4007TIP3    H233513   1.329   6.718   2.143  0.1119 -0.0505 -0.5164
 4008TIP3   OH233514   2.709   1.727  10.691  0.1131  0.0499 -0.4903
 4008TIP3    H133515   2.680   1.757  10.605  0.2774 -0.5817 -0.7727
 4008TIP3    H233516   2.629   1.721  10.743 -0.1721 -0.9449 -1.0307
 4009TIP3   OH233517   1.002   2.284   0.433 -0.1074  0.1567 -0.0976
 4009TIP3    H133518   0.949   2.244   0.364  2.0074  0.5370 -2.0285
 4009TIP3    H233519   1.082   2.232   0.436  0.6683  1.3449  0.6868
 4010TIP3   OH233520   3.239   5.173   0.638 -0.0392  0.4044 -0.2007
 4010TIP3    H133521   3.307   5.238   0.657  0.5656 -0.4739  0.7189
 4010TIP3    H233522   3.158   5.224   0.637  0.4842  1.2609  0.0091
 4011TIP3   OH233523   2.487   1.335  12.814  0.0942  0.2279  0.1690
 4011TIP3    H133524   2.398   1.335  12.780  0.7898 -0.9091 -1.7992
 4011TIP3    H233525   2.525   1.417  12.783  0.7588 -0.8502 -2.0668
 4012TIP3   OH233526   2.677   4.066   1.280 -0.1742  0.2154  0.2848
 4012TIP3    H133527   2.726   4.141   1.312  0.4129  0.4294 -1.0463
 4012TIP3    H233528   2.610   4.051   1.347  0.6847  0.9264  1.3363
 4013TIP3   OH233529   2.001   5.146  14.841 -0.3044  0.5530 -0.2424
 4013TIP3    H133530   2.083   5.119  14.799 -0.5870  1.2107 -1.2620
 4013TIP3    H233531   2.020   5.231  14.881  0.2376 -0.5044  1.8890
 4014TIP3   OH233532   5.863   1.745  11.165  0.1280  0.6091  0.1459
 4014TIP3    H133533   5.950   1.720  11.196 -1.4154  0.4883  5.3091
 4014TIP3    H233534   5.859   1.840  11.176 -0.1346  0.7124 -0.8082
 4015TIP3   OH233535   4.551   5.585  14.757  0.3578 -0.0638  0.2457
 4015TIP3    H133536   4.559   5.661  14.699 -1.5168  1.7515  2.2082
 4015TIP3    H233537   4.621   5.597  14.821  0.1798 -0.1207  0.4488
 4016TIP3   OH233538   3.420   1.990   0.571 -0.1615  0.1955 -0.5575
 4016TIP3    H133539   3.379   2.022   0.491 -2.0634  2.3238  1.1048
 4016TIP3    H233540   3.347   1.981   0.633  1.2982 -0.7590  1.1202
 4017TIP3   OH233541   6.379   4.287  10.741 -0.1388  0.4423 -0.0815
 4017TIP3    H133542   6.315   4.342  10.696  1.5742  2.8165  0.1891
 4017TIP3    H233543   6.365   4.305  10.834  0.0462 -0.0473  0.0434
 4018TIP3   OH233544   6.230   4.210  14.565 -0.0084  0.8288  0.3579
 4018TIP3    H133545   6.263   4.215  14.655 -0.1117  1.6213  0.3596
 4018TIP3    H233546   6.309   4.204  14.511  0.0337 -0.8059  0.5471
 4019TIP3   OH233547   6.086   0.942  14.474  0.2785 -0.2874 -0.2535
 4019TIP3    H133548   5.990   0.936  14.467  0.4180 -1.2965 -1.6991
 4019TIP3    H233549   6.102   0.948  14.568 -1.2075 -0.0892  0.0198
 4020TIP3   OH233550   4.739   4.775  12.472 -0.1056  0.6603 -0.6076
 4020TIP3    H133551   4.744   4.680  12.485  0.3449  0.9303  1.6140
 4020TIP3    H233552   4.807   4.793  12.408  0.1687 -0.4700 -0.6631
 4021TIP3   OH233553   6.474   0.528   0.102 -0.2246  0.2622  0.0742
 4021TIP3    H133554   6.402   0.517   0.041 -0.9828 -1.6418  1.1993
 4021TIP3    H233555   6.525   0.447   0.094  0.7189  0.7833  0.6147
 4022TIP3   OH233556   5.176   1.538  14.641 -0.4225  0.3128  0.7237
 4022TIP3    H133557   5.178   1.619  14.692 -1.3749  0.0445  1.2055
 4022TIP3    H233558   5.090   1.501  14.658  0.6706 -1.8062  2.1138
 4023TIP3   OH233559   4.946   3.498   2.665  0.0639  0.5567  0.0835
 4023TIP3    H133560   4.963   3.471   2.575 -1.4454  1.1791 -0.4225
 4023TIP3    H233561   4.859   3.539   2.662  0.0073  0.6488  1.8103
 4024TIP3   OH233562   0.711   0.976  11.079  0.0029 -0.0528  0.2736
 4024TIP3    H133563   0.731   1.036  11.007 -2.4526 -0.5550 -0.9429
 4024TIP3    H233564   0.671   1.032  11.146  0.4673  0.1088  0.4202
 4025TIP3   OH233565   1.845   6.950  11.006 -0.4926 -0.1125 -0.0035
 4025TIP3    H133566   1.772   6.919  10.952  2.3892 -1.3509 -3.6125
 4025TIP3    H233567   1.864   6.876  11.064 -1.0561 -0.4446 -0.2317
 4026TIP3   OH233568   2.393   3.205  14.277 -0.1057  0.1521 -0.0998
 4026TIP3    H133569   2.301   3.184  14.261  0.0560 -0.9893  0.3635
 4026TIP3    H233570   2.392   3.276  14.340 -0.6780 -1.3632  1.6661
 4027TIP3   OH233571   3.320   3.519  12.426 -0.1826 -0.1141  0.0829
 4027TIP3    H133572   3.386   3.558  12.482 -0.7027  0.2434  0.4624
 4027TIP3    H233573   3.237   3.539  12.469 -0.5014 -1.1007 -0.0567
 4028TIP3   OH233574   6.799   6.978  11.581  0.2742  0.3623  0.6572
 4028TIP3    H133575   6.861   7.034  11.627 -0.1024  1.4048 -0.0635
 4028TIP3    H233576   6.853   6.927  11.520  0.6066 -0.0345  1.2636
 4029TIP3   OH233577   3.431   6.858  12.249 -0.8240 -0.6602  0.0088
 4029TIP3    H133578   3.513   6.813  12.270 -1.5962 -1.6010  1.1408
 4029TIP3    H233579   3.444   6.948  12.278  0.4687 -0.2713 -1.5885
 4030TIP3   OH233580   6.814   1.705  10.543  0.1653 -0.4544 -1.1389
 4030TIP3    H133581   6.835   1.789  10.500 -0.3692 -0.0368 -0.5995
 4030TIP3    H233582   6.854   1.639  10.487  0.9023  0.1857 -1.3819
 4031TIP3   OH233583   1.557   0.773   9.691  0.1300  0.3832 -0.9901
 4031TIP3    H133584   1.570   0.680   9.713  1.3901  1.1282  1.9092
 4031TIP3    H233585   1.462   0.782   9.687 -0.0426 -0.9084 -0.5631
 4032TIP3   OH233586   4.722   5.604  14.958 -0.6058 -0.3734 -0.1910
 4032TIP3    H133587   4.682   5.534  15.010 -0.7715  1.6452  2.6046
 4032TIP3    H233588   4.799   5.630  15.008 -0.1700  0.9944 -1.5079
 4033TIP3   OH233589   1.621   4.586   0.904 -0.1331 -0.6187  0.1623
 4033TIP3    H133590   1.588   4.629   0.983  1.2543  0.6743  0.0681
 4033TIP3    H233591   1.624   4.655   0.839  1.1531 -1.0960 -0.3065
 4034TIP3   OH233592   0.813   1.343   1.318  0.9643  0.0640 -0.9051
 4034TIP3    H133593   0.880   1.300   1.265  2.0111 -2.2584  2.0574
 4034TIP3    H233594   0.801   1.286   1.393 -5.8934 -0.7887 -2.0406
 4035TIP3   OH233595   0.859   0.224  13.546 -0.5186 -0.1421  0.4015
 4035TIP3    H133596   0.803   0.151  13.519  0.9745 -0.7200 -1.3007
 4035TIP3    H233597   0.820   0.301  13.504  0.3098 -0.6551 -1.4119
 4036TIP3   OH233598   3.319   3.122  10.155  0.4021 -0.1871 -0.5441
 4036TIP3    H133599   3.381   3.181  10.198  0.6383  1.1330 -2.6041
 4036TIP3    H233600   3.338   3.130  10.062 -1.0110 -1.9252 -1.0421
 4037TIP3   OH233601   6.379   1.945  12.677 -0.5494  0.3407  0.3113
 4037TIP3    H133602   6.375   2.038  12.654 -2.4886 -0.1727 -1.7710
 4037TIP3    H233603   6.428   1.905  12.605  0.7456 -0.2440  1.4579
 4038TIP3   OH233604   3.870   0.523   1.005 -0.4218 -0.1275  0.8152
 4038TIP3    H133605   3.827   0.569   0.933 -1.3436 -0.3283  1.2193
 4038TIP3    H233606   3.914   0.591   1.055  1.6498 -0.1493 -0.8356
 4039TIP3   OH233607   5.548   0.656  13.528  0.3936  0.0346 -0.0779
 4039TIP3    H133608   5.604   0.579  13.514  1.3319  0.8109 -0.6764
 4039TIP3    H233609   5.545   0.699  13.443  2.2843  2.2461  0.8791
 4040TIP3   OH233610   6.367   1.747  14.566 -0.0131  0.1718 -0.2269
 4040TIP3    H133611   6.344   1.804  14.639 -1.3608  0.3950 -0.8140
 4040TIP3    H233612   6.333   1.791  14.489 -0.2238 -0.9584 -0.7973
 4041TIP3   OH233613   6.151   1.604   1.379  0.3930  0.5309  0.1082
 4041TIP3    H133614   6.079   1.547   1.353  1.3120  0.1280 -1.7006
 4041TIP3    H233615   6.113   1.661   1.446 -0.7170 -1.7989  1.6073
 4042TIP3   OH233616   1.813   3.489  12.127  0.3285 -0.1882  0.3482
 4042TIP3    H133617   1.898   3.472  12.086  1.8760  3.5826  1.5677
 4042TIP3    H233618   1.764   3.537  12.060 -0.0659 -0.5591  0.3671
 4043TIP3   OH233619   4.272   0.885   1.410  0.0568  0.0406 -0.3324
 4043TIP3    H133620   4.321   0.810   1.377  2.3217  0.8078  1.0585
 4043TIP3    H233621   4.278   0.950   1.341  1.7778  0.4073  0.1134
 4044TIP3   OH233622   5.740   3.224  12.561 -0.0747  0.8744  0.5806
 4044TIP3    H133623   5.699   3.238  12.476 -1.0568  0.1365  0.9150
 4044TIP3    H233624   5.667   3.222  12.623  0.6033  1.1395  1.4110
 4045TIP3   OH233625   6.349   7.067  14.624  0.0166  0.2033 -0.4731
 4045TIP3    H133626   6.271   7.090  14.676 -0.4452  0.3634 -1.2213
 4045TIP3    H233627   6.368   6.976  14.648 -0.6353  0.0373 -0.5709
 4046TIP3   OH233628   5.473   5.156   2.545 -0.3432 -0.0483  0.2219
 4046TIP3    H133629   5.418   5.222   2.588  0.2705  0.0444  0.8801
 4046TIP3    H233630   5.448   5.161   2.453 -1.3800  0.0483  0.4906
 4047TIP3   OH233631   5.886   2.126  10.457 -0.1292 -0.3297  0.3926
 4047TIP3    H133632   5.811   2.131  10.398 -0.3457 -0.6308  0.6353
 4047TIP3    H233633   5.848   2.133  10.544  0.1450 -0.3101  0.5117
 4048TIP3   OH233634   4.689   6.031  12.898  0.2200  0.3052  0.0243
 4048TIP3    H133635   4.701   5.972  12.973 -0.4775  1.0899  0.7765
 4048TIP3    H233636   4.723   5.982  12.823  1.0084 -0.4641  0.8672
 4049TIP3   OH233637   0.839   4.779  12.423 -0.2166 -0.7082  1.3333
 4049TIP3    H133638   0.872   4.752  12.337 -0.4919 -1.4082  1.4399
 4049TIP3    H233639   0.769   4.841  12.404  0.8438  0.4433  1.0924
 4050TIP3   OH233640   3.313   5.195  11.851  0.5130 -0.0227 -0.3614
 4050TIP3    H133641   3.400   5.232  11.865  0.5364 -0.4142  0.5837
 4050TIP3    H233642   3.275   5.187  11.938 -0.5763  0.3728 -0.7743
 4051TIP3   OH233643   6.466   6.239  11.312  0.0815  0.0784  0.2004
 4051TIP3    H133644   6.439   6.331  11.304 -0.0838 -0.0559 -1.0071
 4051TIP3    H233645   6.525   6.238  11.387  0.7254  1.3278 -0.2599
 4052TIP3   OH233646   5.500   3.194   0.188  0.7468  0.3715  0.2148
 4052TIP3    H133647   5.574   3.138   0.163 -0.1741  0.1508 -2.3082
 4052TIP3    H233648   5.438   3.135   0.231  1.4720  0.3076  1.2022
 4053TIP3   OH233649   6.892   3.142  15.390  0.7334  0.1973 -0.0427
 4053TIP3    H133650   6.816   3.193  15.415  0.6388  0.2231 -0.3737
 4053TIP3    H233651   6.943   3.132  15.470  0.2775 -0.0006  0.2230
 4054TIP3   OH233652   7.136   2.624  10.997  0.0669  0.6729 -0.4026
 4054TIP3    H133653   7.044   2.633  11.023 -0.1919 -0.2559 -0.9053
 4054TIP3    H233654   7.185   2.626  11.078 -0.5348 -0.1747 -0.0016
 4055TIP3   OH233655   0.465   4.041  13.988 -0.2130  0.6745 -0.2801
 4055TIP3    H133656   0.432   3.953  13.967  1.0695  0.6161 -2.2304
 4055TIP3    H233657   0.403   4.074  14.053 -2.1676 -0.7196 -1.3230
 4056TIP3   OH233658   4.037   3.937  10.794 -0.2320 -0.0177  0.3036
 4056TIP3    H133659   3.978   3.862  10.785 -1.1783  0.6865  0.4445
 4056TIP3    H233660   4.122   3.905  10.762 -0.8570 -0.8494 -0.5847
 4057TIP3   OH233661   1.744   1.606   4.732  0.0856  0.3187  0.3098
 4057TIP3    H133662   1.652   1.630   4.720 -0.1538  0.4397  2.1121
 4057TIP3    H233663   1.773   1.578   4.645 -1.3425  1.2994 -0.5244
 4058TIP3   OH233664   6.477   1.861  11.487  0.4046 -0.1172  0.0800
 4058TIP3    H133665   6.561   1.890  11.451  0.3764 -0.1127  0.0179
 4058TIP3    H233666   6.436   1.941  11.520  0.0448  0.0074 -0.6663
 4059TIP3   OH233667   6.164   3.860  10.388  0.1664  0.4582  0.1500
 4059TIP3    H133668   6.166   3.770  10.422  1.3690  0.7890  0.9974
 4059TIP3    H233669   6.099   3.905  10.442  0.3433  0.3761  0.4296
 4060TIP3   OH233670   0.926   1.510   0.239 -0.0588  0.2111 -0.6276
 4060TIP3    H133671   0.854   1.510   0.177  0.0310  0.8006 -0.7356
 4060TIP3    H233672   0.989   1.447   0.203  0.3796  1.1791 -1.5888
 4061TIP3   OH233673   0.906   2.867  10.173  0.3354  0.0740  0.1582
 4061TIP3    H133674   0.869   2.787  10.210 -0.0586  0.0237 -0.3360
 4061TIP3    H233675   0.992   2.841  10.139 -1.2996 -1.1636 -3.6073
 4062TIP3   OH233676   1.281   5.307  13.166 -0.5382  0.2922 -0.1687
 4062TIP3    H133677   1.285   5.372  13.236  0.9354 -0.8068  0.8425
 4062TIP3    H233678   1.368   5.309  13.126 -0.4676 -0.9754 -0.1460
 4063TIP3   OH233679   1.160   6.017  11.178 -0.3090  0.0844 -0.0014
 4063TIP3    H133680   1.184   6.082  11.112 -0.3766 -1.2938 -1.4568
 4063TIP3    H233681   1.229   5.951  11.173 -0.9792 -0.6694  0.4119
 4064TIP3   OH233682   3.938   3.300  15.357  0.0492 -0.1345  0.2266
 4064TIP3    H133683   3.843   3.287  15.363  0.0335 -0.0124  0.2565
 4064TIP3    H233684   3.974   3.246  15.427 -0.0275  0.1388  0.4800
 4065TIP3   OH233685   4.345   4.353  13.974  0.2545 -0.5708 -0.0487
 4065TIP3    H133686   4.261   4.331  14.014  0.0082 -0.1579 -0.3220
 4065TIP3    H233687   4.324   4.425  13.914  0.7927 -0.5092 -0.1664
 4066TIP3   OH233688   3.182   2.684  11.306  0.1916  0.1860 -0.7514
 4066TIP3    H133689   3.109   2.647  11.256 -1.6214  0.3132  1.6313
 4066TIP3    H233690   3.203   2.766  11.261  0.0553 -0.6656 -2.4606
 4067TIP3   OH233691   1.723   3.078  13.010  0.5706 -0.2238 -0.4202
 4067TIP3    H133692   1.633   3.098  13.033  0.2051 -0.9637 -1.1841
 4067TIP3    H233693   1.724   3.075  12.915  0.9077 -2.3449 -0.4062
 4068TIP3   OH233694   7.130   3.623  10.737 -0.0642  0.5628  0.2197
 4068TIP3    H133695   7.041   3.589  10.728  0.0109  0.2483  0.6243
 4068TIP3    H233696   7.157   3.645  10.648  0.0362 -0.8213 -0.1080
 4069TIP3   OH233697   0.933   3.536  10.593 -0.3399 -0.2171 -0.6350
 4069TIP3    H133698   0.964   3.474  10.527  0.6342 -0.0322 -0.3616
 4069TIP3    H233699   1.001   3.603  10.597  0.1420 -0.7692  1.2965
 4070TIP3   OH233700   4.111   3.346   1.162  0.0208  0.4779  0.2634
 4070TIP3    H133701   4.183   3.290   1.132 -0.0982 -0.0884  0.9910
 4070TIP3    H233702   4.152   3.429   1.186  0.6292 -0.2341  1.7887
 4071TIP3   OH233703   5.246   0.906  12.946 -0.8197 -0.8106  0.2457
 4071TIP3    H133704   5.297   0.918  13.025  0.1947  1.3932 -0.6602
 4071TIP3    H233705   5.311   0.901  12.876 -1.7222 -1.9058 -0.5644
 4072TIP3   OH233706   0.926   3.157  13.449  0.0896 -0.9413  0.2589
 4072TIP3    H133707   0.961   3.219  13.514  0.9006 -1.3531  0.2293
 4072TIP3    H233708   0.832   3.158  13.463 -0.0009  0.8399 -0.2200
 4073TIP3   OH233709   3.316   1.118  10.127 -0.4078 -0.3253 -0.7942
 4073TIP3    H133710   3.410   1.102  10.140 -0.1894  0.7365 -0.9619
 4073TIP3    H233711   3.302   1.103  10.034 -0.2096  0.3907 -0.9458
 4074TIP3   OH233712   6.221   2.373  12.051  0.1934 -0.0630  0.3538
 4074TIP3    H133713   6.297   2.416  12.011  0.2637 -1.4495 -1.1090
 4074TIP3    H233714   6.254   2.286  12.075 -1.4438 -1.6678 -2.6092
 4075TIP3   OH233715   2.539   3.440  13.706  0.8509 -0.9769  0.2366
 4075TIP3    H133716   2.456   3.454  13.752  1.7441  0.1820  1.5877
 4075TIP3    H233717   2.536   3.349  13.677 -1.8124 -0.3711 -1.7254
 4076TIP3   OH233718   5.265   4.791  14.646 -0.0792 -0.0783 -0.1579
 4076TIP3    H133719   5.249   4.863  14.708  0.9362  2.7104 -2.8939
 4076TIP3    H233720   5.345   4.816  14.600 -0.0966 -2.6524 -1.8023
 4077TIP3   OH233721   0.320   7.137   1.371 -0.4024 -0.7740  0.0456
 4077TIP3    H133722   0.262   7.068   1.404  0.2787 -1.9142 -1.0598
 4077TIP3    H233723   0.405   7.118   1.411 -0.1822 -0.6593 -0.3640
 4078TIP3   OH233724   0.099   5.263  10.447 -0.5176 -0.3249  0.4243
 4078TIP3    H133725   0.135   5.189  10.497 -1.1049 -0.4299  0.7000
 4078TIP3    H233726   0.168   5.286  10.385 -0.2661 -1.0098  0.4378
 4079TIP3   OH233727   5.295   6.140  11.157 -0.1836  0.2176  0.2844
 4079TIP3    H133728   5.318   6.233  11.147 -0.5343  0.3080  0.3048
 4079TIP3    H233729   5.362   6.105  11.216  0.4780  0.2478 -0.4234
 4080TIP3   OH233730   2.824   2.106   1.595 -0.9708  0.4494 -0.3157
 4080TIP3    H133731   2.864   2.180   1.641  0.9643 -1.1974  0.7961
 4080TIP3    H233732   2.791   2.049   1.664 -1.3453 -0.3379 -1.1183
 4081TIP3   OH233733   0.328   3.726  12.517  0.3592  0.1187  0.0080
 4081TIP3    H133734   0.304   3.716  12.425 -0.1132 -0.2324  0.1688
 4081TIP3    H233735   0.244   3.734  12.563  0.6132  1.7936  0.2415
 4082TIP3   OH233736   2.844   0.106  12.923  0.1668  0.1715  0.0584
 4082TIP3    H133737   2.808   0.018  12.912  0.2824 -0.0800  1.6059
 4082TIP3    H233738   2.845   0.142  12.834 -2.4944 -0.3562 -0.2732
 4083TIP3   OH233739   2.577   1.079   0.439  0.1925 -0.0311 -0.1649
 4083TIP3    H133740   2.619   1.033   0.366 -1.0049  1.4682 -1.8926
 4083TIP3    H233741   2.505   1.022   0.465  0.1673 -0.2363 -0.6773
 4084TIP3   OH233742   4.195   6.004  10.183  0.6090 -0.0664 -0.5385
 4084TIP3    H133743   4.108   6.042  10.196  1.4959  1.8740  0.0295
 4084TIP3    H233744   4.190   5.919  10.226 -0.3539  0.9659  1.5456
 4085TIP3   OH233745   0.289   5.626  11.909 -0.1638  0.6901  0.0005
 4085TIP3    H133746   0.280   5.600  11.817  0.2152  1.5840 -0.2962
 4085TIP3    H233747   0.343   5.557  11.948 -2.2912 -1.0023  0.1525
 4086TIP3   OH233748   1.611   3.720  12.215 -0.5313 -0.0224 -0.6710
 4086TIP3    H133749   1.662   3.651  12.257  1.7460  1.3185 -1.0684
 4086TIP3    H233750   1.645   3.724  12.126  1.3957  3.2820  0.0354
 4087TIP3   OH233751   5.882   0.188  15.306 -0.2464  0.0736  0.1089
 4087TIP3    H133752   5.888   0.265  15.362  0.5960 -1.1690  1.8189
 4087TIP3    H233753   5.804   0.142  15.338 -0.4552 -0.0515 -0.5630
 4088TIP3   OH233754   7.088   5.561  13.556 -0.3101 -0.3957 -0.3679
 4088TIP3    H133755   7.044   5.627  13.502  1.1616  1.5743  0.7389
 4088TIP3    H233756   7.156   5.609  13.603  2.2849 -3.0670 -1.1063
 4089TIP3   OH233757   3.117   3.830  12.512 -0.3010  0.1038  0.4269
 4089TIP3    H133758   3.090   3.741  12.533  0.4853 -0.6204 -1.4182
 4089TIP3    H233759   3.083   3.845  12.423  2.6729  0.2280 -0.7970
 4090TIP3   OH233760   0.713   6.567  14.241  0.2194 -0.6136  0.2020
 4090TIP3    H133761   0.753   6.489  14.200 -0.3196  0.3322 -2.3372
 4090TIP3    H233762   0.633   6.581  14.190 -0.2854  0.9568  1.3764
 4091TIP3   OH233763   1.746   0.193  11.608  0.0734 -0.9487 -0.0885
 4091TIP3    H133764   1.707   0.110  11.634 -0.9219 -0.9775 -1.5781
 4091TIP3    H233765   1.752   0.188  11.512  2.0245 -0.1822 -0.0573
 4092TIP3   OH233766   5.570   4.034   2.667 -0.3603  0.3227 -0.1810
 4092TIP3    H133767   5.538   4.090   2.596 -0.6387  1.1381  0.5779
 4092TIP3    H233768   5.495   4.026   2.727 -0.4245 -1.1062 -0.4077
 4093TIP3   OH233769   5.968   4.064  14.893 -0.1934  0.5833 -0.4380
 4093TIP3    H133770   5.995   4.001  14.960 -2.5725 -0.3745 -0.2936
 4093TIP3    H233771   6.010   4.146  14.918  0.2121 -0.1307  1.3302
 4094TIP3   OH233772   2.805   1.100  10.433 -0.0700  0.7935 -0.1160
 4094TIP3    H133773   2.828   1.193  10.422  0.4491  0.8735  1.3289
 4094TIP3    H233774   2.890   1.055  10.439 -0.3200  0.2396 -0.7338
 4095TIP3   OH233775   2.490   3.574  13.099  0.1169  0.0461  0.3379
 4095TIP3    H133776   2.439   3.601  13.176 -0.9581  0.6751 -0.5685
 4095TIP3    H233777   2.481   3.479  13.097 -0.6934  0.1126  0.4271
 4096TIP3   OH233778   0.675   0.301   3.179  0.5417  0.2905  0.2559
 4096TIP3    H133779   0.718   0.250   3.110  1.7389 -0.1162  1.2862
 4096TIP3    H233780   0.591   0.256   3.193  0.9484 -0.5226  0.1252
 4097TIP3   OH233781   4.217   6.127  10.714  0.2101 -0.0615  0.4066
 4097TIP3    H133782   4.173   6.043  10.700  0.3052 -0.1078  0.3809
 4097TIP3    H233783   4.214   6.170  10.629 -1.4462  0.7447  0.8441
 4098TIP3   OH233784   4.288   5.131  14.337 -0.0583 -0.1835 -0.2634
 4098TIP3    H133785   4.292   5.036  14.329 -0.3656 -0.2005 -0.2325
 4098TIP3    H233786   4.197   5.149  14.360  0.5633 -0.1076  2.5437
 4099TIP3   OH233787   5.319   4.126  10.313 -0.0517  0.4973  0.3154
 4099TIP3    H133788   5.335   4.220  10.299 -0.5336  0.4969 -0.2640
 4099TIP3    H233789   5.281   4.122  10.401  1.2544  0.6944  0.9152
 4100TIP3   OH233790   4.533   0.673  14.815  0.0872  0.0264 -0.9241
 4100TIP3    H133791   4.538   0.741  14.749 -1.6549  0.2714 -0.8551
 4100TIP3    H233792   4.441   0.674  14.844  1.1977  1.7730  3.4015
 4101TIP3   OH233793   5.684   6.190   9.967 -0.6791 -0.7271 -0.3151
 4101TIP3    H133794   5.754   6.131   9.939  0.6817 -0.0255  1.3736
 4101TIP3    H233795   5.618   6.132  10.005  1.8891 -1.2596  4.0114
 4102TIP3   OH233796   1.335   3.679  11.125  0.0915  0.5820  0.3152
 4102TIP3    H133797   1.267   3.672  11.192 -0.3060  5.0247  0.7183
 4102TIP3    H233798   1.288   3.676  11.042 -0.2494  0.9704  0.4913
 4103TIP3   OH233799   3.565   0.435  11.061 -0.6206 -0.3276 -0.0005
 4103TIP3    H133800   3.614   0.363  11.022  0.7712 -0.4167  1.7672
 4103TIP3    H233801   3.564   0.503  10.993 -1.1705 -1.6490 -1.3516
 4104TIP3   OH233802   2.108   4.553  11.434  0.6688  0.3726  0.0124
 4104TIP3    H133803   2.119   4.481  11.371  1.6347  1.1854 -0.7863
 4104TIP3    H233804   2.069   4.623  11.382 -1.0118  0.1982  0.9696
 4105TIP3   OH233805   6.768   3.949  14.316  0.2421 -0.1679  0.0847
 4105TIP3    H133806   6.742   3.859  14.295 -1.9652  0.3047  0.5611
 4105TIP3    H233807   6.756   3.998  14.235 -2.6511  0.4707  0.7691
 4106TIP3   OH233808   3.195   0.154  10.009 -0.0923 -0.6069  0.2945
 4106TIP3    H133809   3.274   0.174   9.958 -0.5285 -0.8515 -0.4962
 4106TIP3    H233810   3.226   0.142  10.099  0.7574 -0.6261  0.0036
 4107TIP3   OH233811   5.624   2.670  12.239  0.2965 -0.1519  0.3357
 4107TIP3    H133812   5.663   2.753  12.266  0.4015 -0.4584  1.1769
 4107TIP3    H233813   5.548   2.694  12.186 -1.1983  0.5615  2.6696
 4108TIP3   OH233814   2.814   3.042  11.285  0.1301  0.5007  0.2073
 4108TIP3    H133815   2.882   3.022  11.350  0.4824  1.7349  0.2375
 4108TIP3    H233816   2.749   3.092  11.333  0.4024  1.4470 -0.3916
 4109TIP3   OH233817   1.209   1.452  15.382 -0.3956  0.2645 -0.1653
 4109TIP3    H133818   1.151   1.527  15.396  0.1624  0.6943 -0.1151
 4109TIP3    H233819   1.290   1.490  15.348 -0.0915 -0.3131 -0.1073
 4110TIP3   OH233820   6.375   1.441  11.503 -0.3817  0.2910 -0.0170
 4110TIP3    H133821   6.354   1.347  11.509  0.5535 -0.0228 -1.2325
 4110TIP3    H233822   6.341   1.468  11.418  1.6529  0.3860 -0.8695
 4111TIP3   OH233823   3.191   5.578  12.729 -0.3229 -0.4520 -0.7543
 4111TIP3    H133824   3.113   5.633  12.729 -0.0645 -0.0676  0.2050
 4111TIP3    H233825   3.176   5.517  12.657 -1.4142 -0.2532 -0.7268
 4112TIP3   OH233826   0.189   4.339   9.940  0.4666  0.0892 -0.2633
 4112TIP3    H133827   0.185   4.401   9.868  1.3406  0.3776 -0.0819
 4112TIP3    H233828   0.233   4.262   9.903  0.7590  0.1708 -0.0904
 4113TIP3   OH233829   1.800   5.039   0.936 -0.3058  0.4309  0.0909
 4113TIP3    H133830   1.761   4.987   1.006  0.9165 -0.9565 -0.1984
 4113TIP3    H233831   1.733   5.103   0.913 -1.1876  0.1356  1.6906
 4114TIP3   OH233832   3.819   3.966   1.869  0.4807 -0.4230 -0.2309
 4114TIP3    H133833   3.769   3.975   1.950 -0.2422 -3.4207 -0.2269
 4114TIP3    H233834   3.763   4.005   1.801  0.3176  0.5263  0.4308
 4115TIP3   OH233835   2.098   3.583  13.135  0.1006  0.0248 -0.3068
 4115TIP3    H133836   2.003   3.593  13.137  0.2319  1.6084 -0.5756
 4115TIP3    H233837   2.117   3.515  13.199 -1.1524  0.2372  0.3123
 4116TIP3   OH233838   7.045   1.948  10.635  0.6302  0.3613 -0.5630
 4116TIP3    H133839   7.031   1.876  10.573  3.8052  1.5118 -2.8959
 4116TIP3    H233840   6.983   2.015  10.608 -0.1951 -0.3225 -0.4087
 4117TIP3   OH233841   1.948   1.267  12.214 -0.7237  0.2523  0.1150
 4117TIP3    H133842   1.917   1.354  12.239 -0.3829  0.3652  0.1470
 4117TIP3    H233843   1.901   1.207  12.272 -1.8064  0.3252 -0.6482
 4118TIP3   OH233844   3.490   6.853   1.340  0.3186 -0.0626 -0.0841
 4118TIP3    H133845   3.426   6.796   1.298 -1.0197  1.1762  0.1847
 4118TIP3    H233846   3.445   6.887   1.418  2.0491 -0.7671  1.3077
 4119TIP3   OH233847   6.141   4.648  12.691  0.1309 -0.1195 -0.3926
 4119TIP3    H133848   6.161   4.575  12.748  0.5782 -0.7414 -1.3274
 4119TIP3    H233849   6.078   4.701  12.740  2.2169  0.6195  1.6445
 4120TIP3   OH233850   2.968   7.091  10.217  0.0053 -0.0567 -0.1680
 4120TIP3    H133851   3.019   7.148  10.275 -0.8193  0.9693 -0.4137
 4120TIP3    H233852   3.023   7.080  10.140  0.0060  0.7787 -0.2962
 4121TIP3   OH233853   3.147   6.757  12.485 -0.2985 -0.1224  0.5739
 4121TIP3    H133854   3.212   6.686  12.493 -0.1356 -0.0099  0.2670
 4121TIP3    H233855   3.112   6.747  12.397 -0.9219 -0.3682  0.8411
 4122TIP3   OH233856   0.858   6.609  11.434  0.0426 -0.2501 -0.4255
 4122TIP3    H133857   0.816   6.653  11.360  2.7178  0.7638 -1.5029
 4122TIP3    H233858   0.888   6.681  11.490 -0.0111 -0.9349  0.5057
 4123TIP3   OH233859   6.777   5.090   4.074  0.2796 -0.3242  0.6228
 4123TIP3    H133860   6.822   5.156   4.126 -0.8761  0.5005  0.6227
 4123TIP3    H233861   6.734   5.033   4.138 -0.8247  0.4615  0.6030
 4124TIP3   OH233862   5.253   3.941  10.827  0.0030  0.1413  0.1161
 4124TIP3    H133863   5.225   3.863  10.875  0.1494  0.0539  0.0628
 4124TIP3    H233864   5.231   3.922  10.736 -0.2949  0.3164  0.1511
 4125TIP3   OH233865   0.108   5.522  10.607 -0.3449 -0.4560 -0.1751
 4125TIP3    H133866   0.085   5.441  10.561  0.3907  0.3648 -2.0831
 4125TIP3    H233867   0.035   5.581  10.588 -0.9767 -0.6862  1.3784
 4126TIP3   OH233868   7.031   6.927  14.394  0.3588 -0.9972  0.5255
 4126TIP3    H133869   6.987   7.009  14.368 -0.5382 -1.8071 -0.6544
 4126TIP3    H233870   7.094   6.953  14.461  0.4273  0.7322 -0.1627
 4127TIP3   OH233871   4.614   2.850  11.086 -0.0196  0.1884 -0.5074
 4127TIP3    H133872   4.709   2.836  11.084 -0.2070 -1.8496  1.2733
 4127TIP3    H233873   4.603   2.923  11.148  0.3294 -0.8289  0.8005
 4128TIP3   OH233874   3.005   0.212  12.276  0.2084 -0.5732  0.0805
 4128TIP3    H133875   3.058   0.187  12.351  0.4405 -1.3511 -0.3218
 4128TIP3    H233876   2.991   0.130  12.229 -0.6517 -0.2411 -0.2692
 4129TIP3   OH233877   0.721   5.069  10.299  0.2503  0.1985 -0.9197
 4129TIP3    H133878   0.648   5.078  10.360  1.0701 -1.5139  0.4162
 4129TIP3    H233879   0.720   5.149  10.247 -1.0130  1.3397  0.7690
 4130TIP3   OH233880   2.633   1.434  13.238 -0.3077  0.4314  0.1505
 4130TIP3    H133881   2.554   1.483  13.259 -1.8850 -1.1317 -1.6875
 4130TIP3    H233882   2.647   1.376  13.313  0.3797  2.1368  1.4083
 4131TIP3   OH233883   4.693   6.897  12.725  0.2840 -0.3418 -0.7255
 4131TIP3    H133884   4.629   6.863  12.663  1.0929 -1.1779 -1.1279
 4131TIP3    H233885   4.739   6.819  12.758 -0.2860  0.0508  1.1211
 4132TIP3   OH233886   3.907   3.452  10.361 -0.4196  0.7685 -0.0549
 4132TIP3    H133887   3.928   3.462  10.454 -0.0253  3.1408 -0.3190
 4132TIP3    H233888   3.815   3.478  10.355 -0.0004  2.2797 -0.4960
 4133TIP3   OH233889   4.784   7.127   1.497 -0.2488 -0.1854  0.3726
 4133TIP3    H133890   4.748   7.115   1.409  0.4725  1.1220 -0.1373
 4133TIP3    H233891   4.795   7.222   1.505  2.0675 -0.4465  0.8843
 4134TIP3   OH233892   2.133   2.377  11.346  0.4165  0.0592 -0.2623
 4134TIP3    H133893   2.211   2.321  11.345 -1.0890 -2.1971  0.2804
 4134TIP3    H233894   2.077   2.338  11.412 -1.3379  1.3981 -0.8934
 4135TIP3   OH233895   6.702   7.060  10.757 -0.0541 -0.3525 -0.7125
 4135TIP3    H133896   6.635   6.996  10.733 -0.4885  0.1360 -0.8137
 4135TIP3    H233897   6.710   7.052  10.852 -0.8800  0.1837 -0.5870
 4136TIP3   OH233898   2.193   1.672  11.943  0.1219 -0.1305 -0.2734
 4136TIP3    H133899   2.118   1.617  11.966 -0.2399  0.4955  0.0563
 4136TIP3    H233900   2.256   1.657  12.014 -0.7133  1.2621  0.8000
 4137TIP3   OH233901   4.803   3.882  10.559  0.5013 -0.3005 -0.9455
 4137TIP3    H133902   4.792   3.883  10.654  1.1859  0.6257 -0.8574
 4137TIP3    H233903   4.754   3.805  10.529 -1.7137  0.7075 -0.0969
 4138TIP3   OH233904   1.427   4.112  11.371  0.9052  0.2001 -0.1086
 4138TIP3    H133905   1.433   4.194  11.321  1.0040 -0.0018 -0.4313
 4138TIP3    H233906   1.427   4.043  11.304  1.4393 -0.0944  0.1856
 4139TIP3   OH233907   0.949   2.752  14.561  0.0306  0.0334  0.1392
 4139TIP3    H133908   0.858   2.740  14.533 -0.6844 -0.8706  2.6242
 4139TIP3    H233909   0.976   2.835  14.521 -1.5061 -0.2081 -1.5031
 4140TIP3   OH233910   5.747   3.980  12.804  0.5760  0.1430 -0.3551
 4140TIP3    H133911   5.664   3.944  12.772  1.2031 -0.3037 -1.5622
 4140TIP3    H233912   5.725   4.021  12.888 -0.7275 -0.5426 -0.3355
 4141TIP3   OH233913   0.560   5.261  12.767  0.0725 -0.2767  0.0185
 4141TIP3    H133914   0.483   5.283  12.820  0.6060 -0.7415  1.0107
 4141TIP3    H233915   0.611   5.341  12.764  0.6650 -0.5834  1.3091
 4142TIP3   OH233916   3.865   5.603  11.447 -0.1246  0.1748 -0.0385
 4142TIP3    H133917   3.832   5.646  11.368  2.1681  2.3769  0.0594
 4142TIP3    H233918   3.806   5.529  11.460 -1.8086  0.8930 -2.6395
 4143TIP3   OH233919   4.401   5.904  13.950 -0.2997  0.1591 -0.2806
 4143TIP3    H133920   4.440   5.818  13.957 -1.6363 -0.7876 -3.0526
 4143TIP3    H233921   4.310   5.892  13.979 -0.8929  0.2285 -1.9771
 4144TIP3   OH233922   4.361   3.783  12.711  0.1311 -0.4210  0.2808
 4144TIP3    H133923   4.434   3.752  12.658 -1.1315  0.6871 -2.2849
 4144TIP3    H233924   4.285   3.735  12.677 -0.6814 -0.0393  1.4753
 4145TIP3   OH233925   1.654   5.059  14.311 -0.8156  0.3709  0.7683
 4145TIP3    H133926   1.650   4.983  14.252  1.3093  1.0006 -0.2750
 4145TIP3    H233927   1.702   5.027  14.388  1.2400  0.9278 -0.2245
 4146TIP3   OH233928   2.053   0.343  14.731 -0.8644 -0.0271  0.0845
 4146TIP3    H133929   2.024   0.357  14.822 -5.1782 -1.4593 -0.8061
 4146TIP3    H233930   2.080   0.251  14.728  2.8051  0.8963  0.5256
 4147TIP3   OH233931   5.332   0.755  10.228  0.0041 -0.1242 -0.3492
 4147TIP3    H133932   5.387   0.678  10.211 -1.2643 -0.5891 -2.7187
 4147TIP3    H233933   5.255   0.720  10.272  0.9321  0.3601  1.8103
 4148TIP3   OH233934   0.634   1.041  14.629  0.3733  0.5452  0.1290
 4148TIP3    H133935   0.581   1.012  14.555  0.5940  0.9141 -0.1787
 4148TIP3    H233936   0.572   1.050  14.702  0.2543 -0.4114  0.1589
 4149TIP3   OH233937   1.302   0.368  14.815  0.3391  0.1406 -0.4406
 4149TIP3    H133938   1.302   0.371  14.719 -0.2273 -1.4659 -0.5148
 4149TIP3    H233939   1.372   0.429  14.840  1.0421 -0.0049 -1.9064
 4150TIP3   OH233940   6.969   3.935  11.581  0.5237  0.3757 -0.2097
 4150TIP3    H133941   6.933   4.017  11.549 -0.5268  0.4609  1.0962
 4150TIP3    H233942   6.987   3.884  11.502 -0.6936  1.0925 -0.9785
 4151TIP3   OH233943   0.556   6.486  11.248  0.3250 -0.3315  0.1542
 4151TIP3    H133944   0.615   6.431  11.299 -1.0657 -1.1204  0.9767
 4151TIP3    H233945   0.608   6.515  11.174  1.2769 -2.2823  0.0094
 4152TIP3   OH233946   2.328   3.081  12.225 -0.1660 -0.4326 -0.3071
 4152TIP3    H133947   2.420   3.080  12.198  0.6970 -2.7648  2.2349
 4152TIP3    H233948   2.304   3.173  12.223  2.4104  0.3258 -0.4915
 4153TIP3   OH233949   0.136   5.780  11.394  0.0957 -0.0433 -0.5565
 4153TIP3    H133950   0.070   5.793  11.462 -0.0740  1.5428 -0.9819
 4153TIP3    H233951   0.185   5.863  11.392  0.8921 -0.5167 -1.5265
 4154TIP3   OH233952   2.199   7.141  13.834  0.1934 -0.8104  0.1943
 4154TIP3    H133953   2.218   7.079  13.764  0.5547  0.3153 -0.7439
 4154TIP3    H233954   2.127   7.194  13.800 -1.4513 -1.9183  1.7635
 4155TIP3   OH233955   0.813   3.299  13.955  0.6885 -0.4487  0.2539
 4155TIP3    H133956   0.791   3.327  13.866 -1.8533 -0.2957  0.8604
 4155TIP3    H233957   0.797   3.377  14.009 -2.1212 -1.6910  1.3756
 4156TIP3   OH233958   2.746   6.752  10.744 -0.1216  0.6024 -0.2094
 4156TIP3    H133959   2.733   6.704  10.662  0.5256  0.3266 -0.1597
 4156TIP3    H233960   2.725   6.689  10.813 -0.6287  0.8230 -0.1529
 4157TIP3   OH233961   4.525   2.456  12.388  0.1949  0.4769 -0.5396
 4157TIP3    H133962   4.537   2.515  12.462  1.2397 -1.2518  0.7344
 4157TIP3    H233963   4.430   2.447  12.380  0.0576  0.3253  0.9237
 4158TIP3   OH233964   3.073   5.273  11.700  0.1268  0.2760  0.0387
 4158TIP3    H133965   3.012   5.211  11.740 -0.2071  1.6879  1.9115
 4158TIP3    H233966   3.158   5.249  11.735  0.2044  0.0659 -0.2921
 4159TIP3   OH233967   1.086   2.105  13.184  0.0807 -0.6677 -0.0263
 4159TIP3    H133968   1.095   2.077  13.275  0.4284 -1.7008 -0.3702
 4159TIP3    H233969   1.127   2.192  13.182  2.2384 -1.6250  0.2977
 4160TIP3   OH233970   1.821   3.342  12.983 -0.4541  0.7233 -0.8536
 4160TIP3    H133971   1.892   3.291  12.944 -1.1927 -0.8626 -0.2102
 4160TIP3    H233972   1.748   3.280  12.988 -1.5496  2.0096 -0.5006
 4161TIP3   OH233973   2.406   1.032  10.349  0.0751  0.2173  0.0574
 4161TIP3    H133974   2.492   1.009  10.384  0.0519 -0.0429 -0.0491
 4161TIP3    H233975   2.372   1.097  10.411 -0.1191 -0.5077  0.7358
 4162TIP3   OH233976   0.663   4.628  13.458 -0.9680 -0.2010 -0.0725
 4162TIP3    H133977   0.644   4.659  13.369 -0.8422  1.0433  0.3090
 4162TIP3    H233978   0.686   4.536  13.447 -2.8986 -0.6080 -1.0742
 4163TIP3   OH233979   1.037   6.404  10.476  0.1765  0.0085  0.3842
 4163TIP3    H133980   1.109   6.393  10.538  0.2459 -1.0141  0.1337
 4163TIP3    H233981   1.074   6.381  10.391 -0.5197 -0.8756  0.2994
 4164TIP3   OH233982   3.008   4.622  12.317  0.0442  0.2158 -0.4360
 4164TIP3    H133983   3.089   4.643  12.271 -0.0087 -0.4209 -0.8347
 4164TIP3    H233984   2.958   4.703  12.317  1.0381  0.8549  0.5693
 4165TIP3   OH233985   4.789   3.900  10.817  0.3732 -0.2838  0.0234
 4165TIP3    H133986   4.698   3.922  10.838  0.3062  0.7673 -1.2052
 4165TIP3    H233987   4.839   3.934  10.892 -0.1055  0.6000 -0.0419
 4166TIP3   OH233988   2.631   5.147   1.685  0.4398 -0.2793  0.3389
 4166TIP3    H133989   2.583   5.221   1.648  0.9745 -1.3163 -2.6988
 4166TIP3    H233990   2.573   5.072   1.672  1.2942 -0.9286  0.1863
 4167TIP3   OH233991   2.305   0.734   0.620  0.2844  0.1050 -0.3994
 4167TIP3    H133992   2.323   0.652   0.664  0.5367  0.2718 -0.1870
 4167TIP3    H233993   2.210   0.742   0.621  0.3038  0.2756  0.4235
 4168TIP3   OH233994   0.904   1.464  13.944 -0.6323  0.2227  0.5221
 4168TIP3    H133995   0.890   1.468  13.849  0.0437 -1.2870  0.3401
 4168TIP3    H233996   0.897   1.555  13.972  1.1187  0.9978 -1.2604
 4169TIP3   OH233997   3.397   6.350  10.716 -0.2146 -0.1781 -0.5290
 4169TIP3    H133998   3.459   6.280  10.738  0.5731  0.7860  0.4320
 4169TIP3    H233999   3.441   6.400  10.647  0.1855  0.6091  0.2751
 4170TIP3   OH234000   5.332   2.418  15.352 -0.2991  0.6247  0.2951
 4170TIP3    H134001   5.360   2.401  15.262  3.0680  1.4989  1.0408
 4170TIP3    H234002   5.347   2.335  15.398  2.9416  1.4748  1.0172
 4171TIP3   OH234003   2.872   1.742  10.971 -0.1925  0.4747  0.8352
 4171TIP3    H134004   2.858   1.648  10.959 -1.5801  0.9174 -1.6764
 4171TIP3    H234005   2.784   1.779  10.975  0.3204  1.7749  0.6184
 4172TIP3   OH234006   5.134   4.995  13.666 -0.5572  0.2053 -0.3452
 4172TIP3    H134007   5.195   4.989  13.739 -0.7261  1.9472 -0.0025
 4172TIP3    H234008   5.060   4.941  13.692  0.7959 -1.9860 -0.7931
 4173TIP3   OH234009   5.630   5.491  11.716 -0.4599 -0.0144 -0.2994
 4173TIP3    H134010   5.599   5.522  11.801 -1.1920  1.0354 -0.9292
 4173TIP3    H234011   5.561   5.433  11.684  0.1854 -1.0846  0.1562
 4174TIP3   OH234012   3.765   4.732  14.409  0.2129  0.0355  0.1512
 4174TIP3    H134013   3.719   4.661  14.364 -0.7774  0.0021  1.1828
 4174TIP3    H234014   3.790   4.695  14.494 -2.5908  1.5957  1.8101
 4175TIP3   OH234015   4.347   5.326  10.578  0.3813 -0.5693 -0.4733
 4175TIP3    H134016   4.299   5.262  10.525 -0.0767 -1.4393  0.9266
 4175TIP3    H234017   4.429   5.282  10.599  0.6509 -0.1448 -0.6260
 4176TIP3   OH234018   0.646   5.127   9.828 -0.2779 -0.0527 -0.1265
 4176TIP3    H134019   0.695   5.145   9.748  1.0820  0.2670  0.7421
 4176TIP3    H234020   0.592   5.051   9.807 -1.2909  1.0619 -1.8768
 4177TIP3   OH234021   5.942   2.384  10.067  0.2406 -0.2808  0.1526
 4177TIP3    H134022   5.849   2.362  10.075 -0.4229 -0.5488 -5.0008
 4177TIP3    H234023   5.945   2.479  10.071 -0.7663 -0.0919 -2.2105
 4178TIP3   OH234024   2.057   2.074  11.224  0.0306  0.3670 -0.5886
 4178TIP3    H134025   2.040   1.987  11.259 -0.3652  1.4591  2.2324
 4178TIP3    H234026   2.150   2.088  11.238 -0.3852  1.3491  1.5550
 4179TIP3   OH234027   7.035   0.660  12.165  0.2450 -0.1980 -0.4805
 4179TIP3    H134028   7.053   0.606  12.088 -0.4977 -0.6116 -0.3717
 4179TIP3    H234029   6.990   0.600  12.225  0.7388  0.1399  0.2414
 4180TIP3   OH234030   3.277   1.357  13.612 -0.6112 -0.0201  0.2043
 4180TIP3    H134031   3.258   1.308  13.532 -0.2937 -0.1703  0.2191
 4180TIP3    H234032   3.219   1.433  13.608 -0.1214  0.3281 -0.5026
 4181TIP3   OH234033   0.447   5.625   0.530 -0.3143  0.0167 -0.6129
 4181TIP3    H134034   0.459   5.573   0.450 -0.9243 -0.3024 -0.4966
 4181TIP3    H234035   0.353   5.621   0.548 -0.3232  0.9168 -0.4353
 4182TIP3   OH234036   3.488   3.702   5.673  0.2687 -0.4914 -0.4290
 4182TIP3    H134037   3.465   3.691   5.581 -1.2080 -1.7359  0.0486
 4182TIP3    H234038   3.485   3.614   5.709  1.3515 -0.0907  0.7178
 4183TIP3   OH234039   0.153   2.189  11.901 -0.1999 -0.1590 -0.0600
 4183TIP3    H134040   0.244   2.218  11.889 -0.2823 -0.2713 -1.0547
 4183TIP3    H234041   0.103   2.271  11.907 -0.1609 -0.0846 -0.6452
 4184TIP3   OH234042   0.766   4.149  12.289 -0.1745  0.2232  0.1473
 4184TIP3    H134043   0.696   4.214  12.285 -0.7853 -0.2022  2.5590
 4184TIP3    H234044   0.753   4.105  12.373  1.9586 -1.0666 -0.1324
 4185TIP3   OH234045   5.193   4.945  12.210 -0.0471  0.0163  0.5651
 4185TIP3    H134046   5.225   5.019  12.158 -1.4731  0.4232  0.2173
 4185TIP3    H234047   5.152   4.887  12.146 -0.7493 -0.0716  1.0845
 4186TIP3   OH234048   0.394   3.551  13.433  0.1579  0.1279  0.0542
 4186TIP3    H134049   0.324   3.588  13.487 -1.1391 -2.8130  0.6327
 4186TIP3    H234050   0.380   3.589  13.346 -0.4149  1.6809  0.7857
 4187TIP3   OH234051   2.682   5.302  11.854  0.1951 -0.3814  0.4098
 4187TIP3    H134052   2.754   5.335  11.907 -0.4813 -0.7694  1.6190
 4187TIP3    H234053   2.723   5.268  11.775  1.0774  1.7994 -0.1455
 4188TIP3   OH234054   4.553   0.204   0.160 -0.4070  0.3685  0.0549
 4188TIP3    H134055   4.544   0.243   0.073 -2.0117 -0.8282 -0.3401
 4188TIP3    H234056   4.602   0.270   0.210  0.8057  0.9597 -1.8038
 4189TIP3   OH234057   0.651   0.274   9.871  0.4666  0.2433  0.3119
 4189TIP3    H134058   0.725   0.214   9.882  0.2851 -0.1189 -0.4259
 4189TIP3    H234059   0.692   0.358   9.850  0.6640 -0.2579 -1.5151
 4190TIP3   OH234060   3.716   2.244  13.106  0.0885  0.0195  0.0731
 4190TIP3    H134061   3.795   2.292  13.130  0.6992 -0.1403 -1.5047
 4190TIP3    H234062   3.667   2.303  13.049 -1.1053  0.2236  1.2476
 4191TIP3   OH234063   1.565   1.244  15.124 -0.2074  0.1287  0.2392
 4191TIP3    H134064   1.513   1.179  15.171 -0.1824  1.0874  1.6613
 4191TIP3    H234065   1.573   1.317  15.185 -0.3669  1.5529 -1.3570
 4192TIP3   OH234066   5.768   2.911  12.244 -0.3634 -0.1543  0.4147
 4192TIP3    H134067   5.806   2.934  12.329 -1.0622  1.5329  0.3004
 4192TIP3    H234068   5.835   2.935  12.180 -0.2582 -0.4290  0.4209
 4193TIP3   OH234069   1.918   5.950  10.839  0.4132  0.4466  0.3089
 4193TIP3    H134070   1.840   5.901  10.814 -0.1315  1.1904  0.5478
 4193TIP3    H234071   1.894   5.995  10.920  0.9162  1.0838  0.1105
 4194TIP3   OH234072   6.014   3.658   0.238  0.3530  0.4474 -0.5998
 4194TIP3    H134073   6.008   3.666   0.333 -1.4546 -0.6693 -0.5650
 4194TIP3    H234074   5.965   3.733   0.204  2.0144  1.5224 -0.7057
 4195TIP3   OH234075   5.927   5.151  12.874  0.3068 -0.0150 -0.1624
 4195TIP3    H134076   5.858   5.206  12.836  1.8244  0.3993 -2.5343
 4195TIP3    H234077   5.890   5.120  12.956 -2.1480  1.3203 -0.6567
 4196TIP3   OH234078   1.146   4.452   9.630  0.1446 -0.5646 -0.9306
 4196TIP3    H134079   1.096   4.521   9.586  2.9089  1.2078 -1.5510
 4196TIP3    H234080   1.225   4.442   9.576  2.5392 -0.0594  2.2233
 4197TIP3   OH234081   2.296   2.271   0.996 -0.2350 -0.4506  0.4985
 4197TIP3    H134082   2.258   2.210   1.059 -0.0914 -0.3002  0.7320
 4197TIP3    H234083   2.347   2.215   0.937 -0.0629 -0.5550  0.7429
 4198TIP3   OH234084   4.262   1.019  10.407 -0.5466  0.6344 -0.0951
 4198TIP3    H134085   4.320   0.950  10.375 -0.4999 -0.0528  1.4007
 4198TIP3    H234086   4.320   1.083  10.448 -0.7207  0.7946 -0.0937
 4199TIP3   OH234087   7.038   0.547   1.070  0.0161  0.3213  0.4092
 4199TIP3    H134088   6.993   0.478   1.021 -0.0938 -0.2129  1.2464
 4199TIP3    H234089   6.969   0.591   1.119  0.0469  1.2160 -0.3181
 4200TIP3   OH234090   0.298   4.659  12.562  0.0581 -0.0476 -0.2981
 4200TIP3    H134091   0.254   4.575  12.549 -0.4869  0.2375 -0.3104
 4200TIP3    H234092   0.230   4.718  12.594  0.5183  0.2961  0.0615
 4201TIP3   OH234093   6.238   3.828  12.826  0.0525  0.0712 -0.4048
 4201TIP3    H134094   6.229   3.902  12.886  0.5286 -0.8040  0.7877
 4201TIP3    H234095   6.332   3.822  12.810  0.3111 -1.7630  1.4922
 4202TIP3   OH234096   6.318   4.205  11.216  0.0017 -0.2574  0.0096
 4202TIP3    H134097   6.352   4.226  11.303 -0.3774 -1.6079  0.5009
 4202TIP3    H234098   6.314   4.110  11.213  0.5725 -0.2660 -1.7200
 4203TIP3   OH234099   1.637   2.573  11.968 -0.4005  0.5251  0.1313
 4203TIP3    H134100   1.596   2.514  11.905  0.5443  1.7484 -1.7274
 4203TIP3    H234101   1.681   2.515  12.030 -0.7186 -0.7271 -0.7740
 4204TIP3   OH234102   0.946   1.433  10.749  0.5311  0.4846  0.5224
 4204TIP3    H134103   1.033   1.397  10.731  0.1028 -0.3056 -0.0808
 4204TIP3    H234104   0.917   1.470  10.666  0.4476  1.1123  0.8222
 4205TIP3   OH234105   3.567   5.451   2.633  0.2475  0.3551 -0.5014
 4205TIP3    H134106   3.515   5.373   2.613  0.2523  0.4386 -0.8527
 4205TIP3    H234107   3.513   5.501   2.694  0.1370  0.1937 -0.4672
 4206TIP3   OH234108   3.713   0.673  11.516 -0.5100 -0.2833 -0.2314
 4206TIP3    H134109   3.687   0.657  11.425 -1.2088 -0.8207  0.0551
 4206TIP3    H234110   3.631   0.669  11.565 -0.6297  2.9973  0.0661
 4207TIP3   OH234111   6.697   6.780  13.732 -0.0136 -0.2952 -0.6707
 4207TIP3    H134112   6.754   6.856  13.724 -0.1868 -0.1151 -0.2317
 4207TIP3    H234113   6.646   6.779  13.652 -0.3062  0.2921 -0.4945
 4208TIP3   OH234114   2.532   4.241  14.895  0.0514 -0.1952 -0.6592
 4208TIP3    H134115   2.545   4.333  14.876 -0.9196  0.0405 -0.2558
 4208TIP3    H234116   2.448   4.237  14.941 -0.6680 -1.4521 -1.9920
 4209TIP3   OH234117   6.913   1.658   3.190 -0.6762  0.4827  0.2840
 4209TIP3    H134118   6.827   1.680   3.154 -1.0399 -1.2609 -0.0151
 4209TIP3    H234119   6.939   1.580   3.141  1.8943  1.9522 -0.8761
 4210TIP3   OH234120   5.111   2.916  11.174  0.0921  0.0009 -0.4283
 4210TIP3    H134121   5.112   2.870  11.258 -0.0730 -2.1061 -1.5187
 4210TIP3    H234122   5.202   2.941  11.159 -0.0757  1.6954  0.9829
 4211TIP3   OH234123   4.173   3.592   9.826 -0.3058  0.3871 -0.7831
 4211TIP3    H134124   4.108   3.539   9.872  0.1349  1.5545  1.3046
 4211TIP3    H234125   4.148   3.683   9.844  3.0856  0.9715  2.1957
 4212TIP3   OH234126   5.630   6.724  11.110 -0.1034  0.4143  0.7815
 4212TIP3    H134127   5.725   6.725  11.121  0.2016 -1.1349 -1.1005
 4212TIP3    H234128   5.602   6.642  11.149 -0.0887 -0.9913 -1.9419
 4213TIP3   OH234129   0.738   4.205  15.299 -0.2215  0.2107  0.3082
 4213TIP3    H134130   0.705   4.116  15.299 -0.1993  0.2020 -0.3524
 4213TIP3    H234131   0.673   4.255  15.249  1.1352  0.0471 -1.7049
 4214TIP3   OH234132   7.202   7.063  14.881 -0.2554 -0.0625 -0.6247
 4214TIP3    H134133   7.129   7.124  14.890  0.3172  0.7983 -1.5652
 4214TIP3    H234134   7.266   7.110  14.829  1.9078  0.0126  1.9038
 4215TIP3   OH234135   6.142   7.191   9.481 -0.0558 -0.0079 -0.0546
 4215TIP3    H134136   6.056   7.233   9.470  0.0335  0.3700  0.5905
 4215TIP3    H234137   6.140   7.115   9.423 -1.4546 -0.9483  1.1695
 4216TIP3   OH234138   2.351   0.540  10.086 -0.0095 -0.3671  0.3431
 4216TIP3    H134139   2.366   0.563   9.994 -0.5598 -1.2774  0.0118
 4216TIP3    H234140   2.395   0.609  10.136  2.0021 -0.8968 -0.5883
 4217TIP3   OH234141   5.263   5.842  15.027 -0.0571  0.1090 -0.9522
 4217TIP3    H134142   5.225   5.854  15.114  1.6141 -0.2930 -0.1163
 4217TIP3    H234143   5.244   5.923  14.980  1.7367  1.7134  0.8980
 4218TIP3   OH234144   5.791   2.679  15.281  0.1897 -0.1731  0.0666
 4218TIP3    H134145   5.802   2.592  15.320 -0.6268  0.4432  1.7684
 4218TIP3    H234146   5.880   2.713  15.275  0.6329 -1.4752 -1.5742
 4219TIP3   OH234147   4.627   2.937   2.821 -0.8056 -0.4124 -0.2573
 4219TIP3    H134148   4.590   3.025   2.812  2.4418  1.2413  1.1765
 4219TIP3    H234149   4.565   2.892   2.878 -1.6490  1.5495  0.4808
 4220TIP3   OH234150   4.269   3.751  12.994 -0.5068 -0.2552 -0.2737
 4220TIP3    H134151   4.313   3.835  12.977 -2.4720  0.7798 -0.5163
 4220TIP3    H234152   4.331   3.685  12.962 -0.1853  1.2395 -2.9990
 4221TIP3   OH234153   6.265   0.598  13.563  0.4827  0.0626  0.0686
 4221TIP3    H134154   6.355   0.628  13.553 -0.0510  2.5655  1.8404
 4221TIP3    H234155   6.256   0.582  13.657 -1.1027  0.5903  0.0330
 4222TIP3   OH234156   1.570   3.859  14.579  0.1482 -0.5153 -0.2325
 4222TIP3    H134157   1.572   3.776  14.531 -0.3685 -1.7960  1.8525
 4222TIP3    H234158   1.645   3.854  14.639 -1.9230 -1.1772  2.4917
 4223TIP3   OH234159   5.595   4.199  13.787  0.0447  0.2134  0.1743
 4223TIP3    H134160   5.575   4.262  13.857 -1.3231  0.6890 -0.6138
 4223TIP3    H234161   5.526   4.212  13.723  0.3585 -1.3550 -0.5191
 4224TIP3   OH234162   3.036   5.624  10.941  0.1529  0.3527  0.2580
 4224TIP3    H134163   3.046   5.628  10.846  0.8621  1.5011  0.3559
 4224TIP3    H234164   2.961   5.681  10.959 -1.2715 -1.4455  0.2461
 4225TIP3   OH234165   4.266   6.340   0.253  0.5096 -0.3602 -0.2407
 4225TIP3    H134166   4.242   6.249   0.270 -0.1453 -0.0147  0.8096
 4225TIP3    H234167   4.270   6.380   0.340 -1.9292  1.2722 -0.7812
 4226TIP3   OH234168   2.582   0.512  11.331  0.1095  0.1216 -0.6254
 4226TIP3    H134169   2.520   0.509  11.404 -0.0659 -0.2991 -0.7922
 4226TIP3    H234170   2.551   0.446  11.270  1.1853 -0.6722 -0.3470
 4227TIP3   OH234171   2.825   4.531   1.741  0.1203  0.3115 -0.1034
 4227TIP3    H134172   2.730   4.546   1.740  0.3256  2.1995  1.3296
 4227TIP3    H234173   2.862   4.612   1.705  1.1963 -0.0597  0.1324
 4228TIP3   OH234174   5.289   2.659   0.047  0.4076 -0.1168 -0.6199
 4228TIP3    H134175   5.194   2.673   0.043  0.5072  1.1182  0.6573
 4228TIP3    H234176   5.302   2.572   0.008 -1.5035 -1.3647  1.2967
 4229TIP3   OH234177   7.213   1.485   9.736 -0.1540  0.4214  0.1464
 4229TIP3    H134178   7.180   1.567   9.699  0.0161  0.9351  1.0826
 4229TIP3    H234179   7.152   1.418   9.705 -1.3076  1.1569  0.7534
 4230TIP3   OH234180   5.167   3.134  13.559  0.2566 -0.0865 -0.3237
 4230TIP3    H134181   5.241   3.101  13.610  1.3784  0.2442 -1.6830
 4230TIP3    H234182   5.152   3.222  13.594  0.7899  0.0061 -0.3158
 4231TIP3   OH234183   1.434   4.336  10.232 -0.0331 -0.3026 -0.6724
 4231TIP3    H134184   1.471   4.249  10.226 -1.3802 -1.1429  1.6889
 4231TIP3    H234185   1.491   4.383  10.292 -0.8306 -0.5132  0.2855
 4232TIP3   OH234186   3.099   7.157  13.628  0.0163 -0.1837  0.0603
 4232TIP3    H134187   3.039   7.100  13.676  2.1415 -1.6187  1.1247
 4232TIP3    H234188   3.186   7.134  13.660  1.0593  3.5809  0.5035
 4233TIP3   OH234189   3.325   2.426  13.823  0.1090 -0.1156  0.2071
 4233TIP3    H134190   3.343   2.475  13.742  0.2301 -0.0734  0.2590
 4233TIP3    H234191   3.236   2.452  13.847  0.1587  0.0517  0.2145
 4234TIP3   OH234192   0.308   4.127   9.837  0.1884 -0.3770  0.2869
 4234TIP3    H134193   0.372   4.077   9.887  0.1507 -1.0951 -0.3634
 4234TIP3    H234194   0.311   4.089   9.749 -0.0132  0.6124 -0.1605
 4235TIP3   OH234195   6.217   4.266   0.156  0.2541 -0.0823  0.1836
 4235TIP3    H134196   6.249   4.344   0.203 -0.1066  0.8708 -1.1064
 4235TIP3    H234197   6.251   4.192   0.207  0.9313  0.9094  1.2249
 4236TIP3   OH234198   6.592   6.393   9.720  0.1485 -0.4290  0.8876
 4236TIP3    H134199   6.562   6.369   9.808 -0.0126  0.8708  1.1981
 4236TIP3    H234200   6.627   6.311   9.684  0.2306 -0.9754  2.1595
 4237TIP3   OH234201   3.961   3.674  14.338  0.0478 -0.7664  0.0490
 4237TIP3    H134202   4.021   3.683  14.412  1.4643  2.1422 -1.2921
 4237TIP3    H234203   4.017   3.681  14.260 -1.6912 -1.1695 -1.3026
 4238TIP3   OH234204   3.730   6.795  10.677  0.1653  0.4341 -0.3879
 4238TIP3    H134205   3.665   6.834  10.619  2.3399  0.3953 -3.0668
 4238TIP3    H234206   3.762   6.869  10.729 -2.0885  0.4009  1.1994
 4239TIP3   OH234207   2.251   2.251  15.090 -0.4001  0.2733 -0.1059
 4239TIP3    H134208   2.235   2.160  15.116  1.4980 -0.0594  0.0041
 4239TIP3    H234209   2.261   2.247  14.995 -1.6210  0.6073 -0.2721
 4240TIP3   OH234210   4.859   2.481  10.968  0.1983  0.3055 -0.3790
 4240TIP3    H134211   4.813   2.556  10.931  1.5204  0.0851 -2.7599
 4240TIP3    H234212   4.792   2.415  10.981 -0.5120  0.7270 -1.6714
 4241TIP3   OH234213   1.579   6.372  12.830 -0.1446  0.8541 -0.0884
 4241TIP3    H134214   1.620   6.344  12.912  0.4801  0.7512 -0.4381
 4241TIP3    H234215   1.549   6.461  12.849  1.3240  1.4006 -0.2046
 4242TIP3   OH234216   2.390   7.004   9.902  0.2222  0.1976  0.6169
 4242TIP3    H134217   2.309   7.047   9.930 -1.5682 -2.0766 -0.6885
 4242TIP3    H234218   2.420   7.056   9.827 -0.3183  0.7839  0.8004
 4243TIP3   OH234219   1.128   3.355   0.601 -0.4027 -0.4336 -0.7888
 4243TIP3    H134220   1.092   3.268   0.581 -0.4282 -1.3120  2.5224
 4243TIP3    H234221   1.056   3.415   0.583 -1.2979 -1.4105 -0.5906
 4244TIP3   OH234222   0.984   0.581   0.899  0.2006 -1.1065  0.0941
 4244TIP3    H134223   1.002   0.635   0.975  2.9063 -1.5778 -0.1016
 4244TIP3    H234224   0.895   0.549   0.912 -0.0820  0.3520  2.0705
 4245TIP3   OH234225   6.184   2.952  11.821  0.1130 -0.2171  0.1763
 4245TIP3    H134226   6.108   2.944  11.763  0.1787 -1.2275  0.2131
 4245TIP3    H234227   6.222   2.864  11.823  2.1282  0.5663 -0.9648
 4246TIP3   OH234228   4.171   1.066  13.880  0.0799 -0.0621 -0.6759
 4246TIP3    H134229   4.172   1.035  13.790  1.5787 -0.6787 -0.4727
 4246TIP3    H234230   4.094   1.024  13.919 -0.2250 -0.2751 -1.4925
 4247TIP3   OH234231   1.621   1.865  13.631  0.2080  0.0566  0.1573
 4247TIP3    H134232   1.559   1.860  13.703 -0.5958 -1.1110 -0.5787
 4247TIP3    H234233   1.683   1.933  13.657 -0.7900  0.5341  1.3599
 4248TIP3   OH234234   0.715   4.026  12.894 -0.1195  0.2478  0.0916
 4248TIP3    H134235   0.764   4.106  12.876 -0.3816  0.9075  2.0508
 4248TIP3    H234236   0.781   3.958  12.900  0.4624  0.8870  1.3867
 4249TIP3   OH234237   6.769   6.152  11.331 -0.5762  0.6183  0.6144
 4249TIP3    H134238   6.768   6.065  11.371  1.2515  0.3427  0.1769
 4249TIP3    H234239   6.804   6.209  11.399 -0.5031  0.7473  0.4694
 4250TIP3   OH234240   6.516   5.368  10.430  0.6365 -0.9461 -0.0939
 4250TIP3    H134241   6.556   5.397  10.347 -0.6414 -0.0922 -0.4430
 4250TIP3    H234242   6.423   5.358  10.409 -0.3323  2.2345  1.9075
 4251TIP3   OH234243   1.624   3.957  14.336 -0.3270 -0.0079  0.0500
 4251TIP3    H134244   1.717   3.973  14.356 -0.5324  2.2447 -0.5468
 4251TIP3    H234245   1.587   3.928  14.420  0.7190 -0.0715  0.5189
 4252TIP3   OH234246   0.025   2.488  12.628 -0.8473  0.0170  0.1589
 4252TIP3    H134247  -0.005   2.402  12.658 -0.2570 -0.1300  0.3446
 4252TIP3    H234248   0.109   2.501  12.673  0.1754 -0.3014 -1.5624
 4253TIP3   OH234249   3.036   2.570  14.808  0.3162  0.3735 -0.3628
 4253TIP3    H134250   3.070   2.605  14.726 -0.2179  1.7948 -0.0196
 4253TIP3    H234251   3.102   2.594  14.873 -0.0418  0.7530 -0.1289
 4254TIP3   OH234252   6.771   5.839  11.805  0.4673  0.0330  0.7932
 4254TIP3    H134253   6.755   5.927  11.839  0.9376  0.0255  1.0439
 4254TIP3    H234254   6.762   5.782  11.881  0.1886 -0.1370  0.6363
 4255TIP3   OH234255   0.904   6.566  13.137 -0.1285  0.2917  0.3603
 4255TIP3    H134256   0.958   6.550  13.215  0.9362 -0.4417 -0.4946
 4255TIP3    H234257   0.932   6.498  13.075  0.5446  2.1124 -1.4193
 4256TIP3   OH234258   1.894   5.524  12.651  0.2542  0.4713 -0.3370
 4256TIP3    H134259   1.932   5.438  12.638  1.4016  0.6671  1.4593
 4256TIP3    H234260   1.846   5.542  12.569 -0.9030 -2.2694 -0.3568
 4257TIP3   OH234261   5.578   1.941  11.575 -0.1592 -0.7708  0.0325
 4257TIP3    H134262   5.631   1.913  11.500 -0.1318 -0.3678 -0.0999
 4257TIP3    H234263   5.572   2.036  11.566  0.8543 -0.5762  1.1990
 4258TIP3   OH234264   4.267   0.077  14.441  0.1205 -0.1993  0.2709
 4258TIP3    H134265   4.349   0.049  14.481  0.6376  0.4999 -0.2747
 4258TIP3    H234266   4.253   0.016  14.369  0.7464  0.3358 -0.3196
 4259TIP3   OH234267   4.565   2.011   9.866  0.7162  0.1069 -0.1738
 4259TIP3    H134268   4.526   1.937   9.820  2.4035 -0.1591 -1.2782
 4259TIP3    H234269   4.571   2.080   9.800  0.2659  0.8324  0.5247
 4260TIP3   OH234270   1.716   0.449  11.280 -0.6323  0.1271  0.0182
 4260TIP3    H134271   1.728   0.528  11.228 -0.7969  1.0060  1.2952
 4260TIP3    H234272   1.791   0.394  11.258 -1.1614  0.0711 -1.8306
 4261TIP3   OH234273   5.856   6.176  14.826  0.0609  0.4029  0.6470
 4261TIP3    H134274   5.837   6.115  14.755  1.1877  2.1362 -1.2354
 4261TIP3    H234275   5.782   6.237  14.826  0.2248  0.6025  0.7518
 4262TIP3   OH234276   6.384   0.148  12.959  0.5866  0.2824 -0.0541
 4262TIP3    H134277   6.453   0.083  12.968 -0.8986 -1.4437 -0.5052
 4262TIP3    H234278   6.309   0.109  13.004  0.0951  2.4643  1.1683
 4263TIP3   OH234279   5.890   5.959  14.394 -0.5270  0.6017 -0.5390
 4263TIP3    H134280   5.835   5.960  14.316 -0.1957  1.9426 -0.7758
 4263TIP3    H234281   5.975   5.928  14.363 -1.1911 -1.8653 -0.0969
 4264TIP3   OH234282   2.110   3.562  12.234 -0.4993 -0.0776  0.8422
 4264TIP3    H134283   2.062   3.639  12.264 -1.4443 -0.6390  0.8469
 4264TIP3    H234284   2.148   3.588  12.151  0.4249  0.8465  1.5295
 4265TIP3   OH234285   3.714   6.738  12.213  0.1277 -0.0696  0.0512
 4265TIP3    H134286   3.770   6.813  12.194 -1.0447  1.6013  2.5435
 4265TIP3    H234287   3.770   6.678  12.262  0.4212  0.3920  0.2901
 4266TIP3   OH234288   2.302   6.132  13.982  0.1434 -0.6497 -0.4127
 4266TIP3    H134289   2.354   6.212  13.993  0.4309 -0.9355  0.3359
 4266TIP3    H234290   2.302   6.091  14.068 -0.9058 -0.9140 -0.5205
 4267TIP3   OH234291   5.175   2.912  12.266  0.1234 -0.6613 -0.2398
 4267TIP3    H134292   5.116   2.873  12.330 -0.8582  1.6863  0.4064
 4267TIP3    H234293   5.261   2.910  12.308 -0.0450 -1.3681  0.0886
 4268TIP3   OH234294   6.282   1.759  10.602  0.6742  0.4072 -0.4273
 4268TIP3    H134295   6.287   1.795  10.513 -0.9959 -1.9568 -1.5760
 4268TIP3    H234296   6.314   1.669  10.593 -3.4707 -1.3735  0.2996
 4269TIP3   OH234297   3.043   4.209  11.138 -0.1283  0.1332  0.3875
 4269TIP3    H134298   2.978   4.163  11.085  1.3704 -1.5355 -0.0892
 4269TIP3    H234299   3.109   4.143  11.158  0.7114  1.4123  2.0812
 4270TIP3   OH234300   6.076   7.003   3.148  0.3684  0.0914  0.0858
 4270TIP3    H134301   6.105   6.949   3.075 -0.4451  0.7854 -0.7879
 4270TIP3    H234302   6.151   7.008   3.207  1.2300 -0.0267 -0.9762
 4271TIP3   OH234303   5.617   1.509  14.373  0.4132 -0.1467  0.4386
 4271TIP3    H134304   5.654   1.577  14.429  1.6578  0.1113 -0.6271
 4271TIP3    H234305   5.642   1.426  14.414 -0.4280  0.0233  1.3183
 4272TIP3   OH234306   1.843   1.327  10.806  0.4490 -0.2626  0.6260
 4272TIP3    H134307   1.779   1.256  10.809  1.6937 -1.5259 -0.9303
 4272TIP3    H234308   1.800   1.397  10.756  0.6597 -1.5968 -1.5553
 4273TIP3   OH234309   4.820   3.023   9.461  0.1128  0.2541 -0.4455
 4273TIP3    H134310   4.903   2.982   9.483  0.3639  0.0361 -1.7609
 4273TIP3    H234311   4.811   3.012   9.367 -1.1119  0.8309 -0.4197
 4274TIP3   OH234312   4.983   0.688  10.621 -0.3778  0.0134  0.0701
 4274TIP3    H134313   5.023   0.665  10.538 -1.8190 -1.2426 -0.3089
 4274TIP3    H234314   5.056   0.721  10.674  0.4840  1.2770 -1.8034
 4275TIP3   OH234315   2.106   0.972  14.666  0.4390  0.3238  0.2030
 4275TIP3    H134316   2.092   1.007  14.578  1.0525 -0.1786 -0.1040
 4275TIP3    H234317   2.037   0.907  14.677  0.8492 -0.1998 -0.2357
 4276TIP3   OH234318   2.036   1.240  14.372  0.0880 -0.1072  0.6844
 4276TIP3    H134319   2.122   1.234  14.414  0.4720  0.4505 -0.0053
 4276TIP3    H234320   1.988   1.164  14.406 -0.1351  1.0692  3.2454
 4277TIP3   OH234321   6.586   6.612  11.205 -0.3233 -0.5719 -0.0035
 4277TIP3    H134322   6.654   6.563  11.158  0.6077 -1.3400  2.0110
 4277TIP3    H234323   6.504   6.567  11.182 -0.1100 -0.0371 -1.9532
 4278TIP3   OH234324   6.735   5.498  14.761 -0.3651  0.0866 -0.0120
 4278TIP3    H134325   6.691   5.583  14.755  1.0145  0.9519  1.2729
 4278TIP3    H234326   6.820   5.512  14.720 -0.5053 -0.9869 -0.6934
 4279TIP3   OH234327   3.235   5.491  13.081 -0.5447 -0.1574 -0.3399
 4279TIP3    H134328   3.248   5.425  13.013 -2.3564 -0.8720 -0.0408
 4279TIP3    H234329   3.204   5.569  13.034  1.1304  0.3893 -0.6327
 4280TIP3   OH234330   6.772   2.578  12.085 -0.2231 -0.2660 -0.0869
 4280TIP3    H134331   6.774   2.656  12.141 -0.1579  1.1243 -1.9361
 4280TIP3    H234332   6.856   2.535  12.101 -0.6616 -0.5389  1.6922
 4281TIP3   OH234333   5.306   2.594  14.902  0.0534 -0.2330  0.0960
 4281TIP3    H134334   5.313   2.538  14.825 -1.0368  1.2492 -1.1589
 4281TIP3    H234335   5.225   2.566  14.945  0.7823 -1.2147  0.8689
 4282TIP3   OH234336   2.769   2.860  11.079  0.1890 -0.3889 -0.4436
 4282TIP3    H134337   2.788   2.942  11.125  1.1564 -0.3242 -0.9247
 4282TIP3    H234338   2.725   2.806  11.144 -1.0538  0.7359 -0.3060
 4283TIP3   OH234339   3.913   1.402  10.318 -0.2407  0.5466  0.1442
 4283TIP3    H134340   3.978   1.470  10.335  1.5022 -0.5653 -1.5634
 4283TIP3    H234341   3.963   1.320  10.319 -1.7172 -0.4225 -0.6575
 4284TIP3   OH234342   5.064   3.381   1.028  0.5223  0.3402  0.1394
 4284TIP3    H134343   5.080   3.316   0.960  2.3584  0.3524  0.5215
 4284TIP3    H234344   4.997   3.439   0.991 -1.5233 -1.9802 -0.0344
 4285TIP3   OH234345   3.115   3.288  12.551  0.0866 -0.1070 -0.1783
 4285TIP3    H134346   3.140   3.235  12.475  1.6915 -0.2644  0.4147
 4285TIP3    H234347   3.187   3.276  12.613 -0.6439  0.9292  0.9151
 4286TIP3   OH234348   4.007   6.254  12.107 -0.0516  0.7942 -0.2611
 4286TIP3    H134349   4.099   6.269  12.085  0.3959  1.4130  1.8385
 4286TIP3    H234350   3.959   6.321  12.058  0.6018  0.5592 -1.2534
 4287TIP3   OH234351   1.248   5.742   0.262 -0.0305  0.1533 -0.3305
 4287TIP3    H134352   1.160   5.708   0.279  0.1181  0.4116  1.1119
 4287TIP3    H234353   1.270   5.710   0.175 -0.3048 -2.6801  0.5338
 4288TIP3   OH234354   2.430   2.423  14.090 -0.6361 -0.0097  0.1099
 4288TIP3    H134355   2.366   2.429  14.019 -2.4905 -0.4667  1.6626
 4288TIP3    H234356   2.501   2.482  14.063 -2.1596  1.3104 -1.2498
 4289TIP3   OH234357   4.881   4.042   4.271 -0.4913 -0.0824  0.0881
 4289TIP3    H134358   4.816   4.086   4.326 -0.0184  0.4092  0.2602
 4289TIP3    H234359   4.875   4.087   4.186 -0.0339  0.2971  0.2533
 4290TIP3   OH234360   1.536   6.047  10.026  0.2317 -0.2954  0.2955
 4290TIP3    H134361   1.564   6.138  10.034 -2.9522  0.9245 -0.8665
 4290TIP3    H234362   1.457   6.041  10.080 -2.1823 -1.0380 -2.9879
 4291TIP3   OH234363   4.897   5.752   1.255 -0.5220 -0.5031  0.8785
 4291TIP3    H134364   4.804   5.745   1.233 -0.7858 -1.1437  2.1087
 4291TIP3    H234365   4.904   5.710   1.341  0.6360  0.9093  1.5038
 4292TIP3   OH234366   3.124   2.317   0.273  0.1745 -0.4107  0.9055
 4292TIP3    H134367   3.177   2.366   0.210 -1.1292  0.5651  0.5250
 4292TIP3    H234368   3.075   2.254   0.220 -0.4415 -0.0260  1.0059
 4293TIP3   OH234369   6.743   0.831   2.108  0.3632 -0.6133  0.3098
 4293TIP3    H134370   6.709   0.855   2.022 -2.8538 -0.0960  1.5781
 4293TIP3    H234371   6.785   0.911   2.141  1.5994 -0.8128 -0.6973
 4294TIP3   OH234372   2.524   3.571   9.363  0.4637  0.4117 -0.7595
 4294TIP3    H134373   2.598   3.530   9.408 -0.4266  0.0128  0.4160
 4294TIP3    H234374   2.485   3.501   9.312 -0.3569  0.0423  0.3247
 4295TIP3   OH234375   3.822   3.695   9.257  0.4267  0.1634  0.6623
 4295TIP3    H134376   3.763   3.767   9.234 -2.6933 -1.4494  2.7971
 4295TIP3    H234377   3.801   3.626   9.194  1.9637  0.4017 -0.1454
 4296TIP3   OH234378   4.845   2.920   2.204 -0.9027  0.1516 -0.7948
 4296TIP3    H134379   4.851   2.825   2.200 -2.4151  0.0331 -0.7022
 4296TIP3    H234380   4.785   2.938   2.276  0.9129  1.2708  0.5278
 4297TIP3   OH234381   1.901   0.778  13.480 -1.2216 -0.5950  0.4010
 4297TIP3    H134382   1.911   0.692  13.521 -2.4667 -0.2318  1.5370
 4297TIP3    H234383   1.917   0.762  13.387  0.5912 -1.6592  0.8390
 4298TIP3   OH234384   6.345   1.871  10.280  0.1383 -0.1246 -0.0813
 4298TIP3    H134385   6.417   1.816  10.312 -0.1391  0.4749  1.7256
 4298TIP3    H234386   6.378   1.961  10.288 -0.4971  0.1138 -0.0785
 4299TIP3   OH234387   0.608   5.045   2.912 -0.3390  0.0990  0.4316
 4299TIP3    H134388   0.623   5.067   3.004 -0.2569  1.0415  0.2084
 4299TIP3    H234389   0.534   4.984   2.913 -1.2033  1.1114  1.0530
 4300TIP3   OH234390   6.649   2.118  10.957 -0.2703  0.0874 -0.0329
 4300TIP3    H134391   6.603   2.200  10.936 -0.9869 -0.6033 -1.2362
 4300TIP3    H234392   6.580   2.056  10.978  0.2023 -0.5331 -0.2849
 4301TIP3   OH234393   5.436   1.111   3.248 -0.2160  0.1680 -0.5404
 4301TIP3    H134394   5.387   1.143   3.324  0.8933 -0.2620  0.3790
 4301TIP3    H234395   5.457   1.190   3.197 -1.1725  0.4321 -0.5437
 4302TIP3   OH234396   5.157   5.873  14.246  0.1409  0.3301 -0.4575
 4302TIP3    H134397   5.250   5.861  14.262  1.0235  2.9308 -2.8144
 4302TIP3    H234398   5.140   5.965  14.267 -0.9728  0.9197 -3.4326
 4303TIP3   OH234399   6.629   5.416  12.261 -0.1030 -0.4634 -0.3634
 4303TIP3    H134400   6.539   5.420  12.292 -0.1850  0.2337 -0.6791
 4303TIP3    H234401   6.661   5.331  12.291 -0.4305 -0.1589  0.9284
 4304TIP3   OH234402   5.354   3.149   9.870  0.0573  0.0157  0.3212
 4304TIP3    H134403   5.292   3.078   9.855  0.2333  0.4905 -3.4842
 4304TIP3    H234404   5.299   3.227   9.882 -0.0765 -0.0837  0.3615
 4305TIP3   OH234405   3.414   5.741   0.279 -0.0985 -0.7557 -0.2456
 4305TIP3    H134406   3.345   5.784   0.228  0.5488 -0.4147 -0.8490
 4305TIP3    H234407   3.423   5.795   0.358  0.5019  0.0694 -0.8620
 4306TIP3   OH234408   3.688   5.998  12.748 -0.0238  0.2427 -0.4918
 4306TIP3    H134409   3.746   6.047  12.689 -1.7381  1.5090 -1.1939
 4306TIP3    H234410   3.636   5.943  12.690  0.9094 -1.4450  0.1955
 4307TIP3   OH234411   6.112   4.641  13.079  0.2870 -0.0384  0.3606
 4307TIP3    H134412   6.134   4.557  13.040  1.9693 -0.3336  1.8202
 4307TIP3    H234413   6.090   4.621  13.170 -1.1533  0.9065  0.2644
 4308TIP3   OH234414   5.286   0.804  11.868 -0.2148 -0.5264 -0.0932
 4308TIP3    H134415   5.336   0.885  11.879  0.1462 -0.8896  1.0834
 4308TIP3    H234416   5.194   0.832  11.870 -0.0962  0.0358 -1.3604
 4309TIP3   OH234417   4.661   3.730  10.028 -0.3553 -0.4276  0.1597
 4309TIP3    H134418   4.751   3.697  10.029 -0.0640  0.3036 -0.7104
 4309TIP3    H234419   4.669   3.822  10.003 -1.1693  0.2963  2.3297
 4310TIP3   OH234420   1.579   7.199  14.186  0.7912  0.0173 -0.4568
 4310TIP3    H134421   1.595   7.210  14.092  1.3142 -0.4541 -0.4305
 4310TIP3    H234422   1.510   7.132  14.191  1.3160 -0.5429 -0.4981
 4311TIP3   OH234423   4.387   2.138   2.089  0.1307 -0.8299  0.2181
 4311TIP3    H134424   4.333   2.086   2.149  1.4724 -0.6234  1.6714
 4311TIP3    H234425   4.347   2.225   2.089  0.6700 -0.5553  1.6280
 4312TIP3   OH234426   3.748   4.877   4.203  0.2900 -0.0229 -0.2465
 4312TIP3    H134427   3.843   4.874   4.186  0.2635 -0.7386 -0.3002
 4312TIP3    H234428   3.721   4.785   4.203 -0.5787  0.2196 -1.1788
 4313TIP3   OH234429   4.817   1.093  12.814 -0.2034 -0.2303  0.3683
 4313TIP3    H134430   4.761   1.162  12.780 -0.3351 -0.2181  0.6074
 4313TIP3    H234431   4.863   1.059  12.737  2.4576  2.4002  0.6117
 4314TIP3   OH234432   4.641   2.168  11.537 -0.3549  0.5492 -0.1079
 4314TIP3    H134433   4.571   2.139  11.478 -1.8637  0.9746  1.3906
 4314TIP3    H234434   4.607   2.248  11.576 -0.0410 -0.4282  2.3531
 4315TIP3   OH234435   5.934   1.224  11.483  0.6905 -0.4258  0.0097
 4315TIP3    H134436   5.966   1.134  11.481  1.2040 -0.2405 -0.2448
 4315TIP3    H234437   5.996   1.269  11.540  0.1257 -0.3506  0.5651
 4316TIP3   OH234438   7.011   2.502  11.819 -0.3616 -0.1607  0.5723
 4316TIP3    H134439   7.009   2.475  11.910 -0.9706 -1.5800  0.1723
 4316TIP3    H234440   6.945   2.447  11.776  0.3374  0.0378 -0.8343
 4317TIP3   OH234441   3.568   4.134  10.235 -0.5245 -0.0892 -0.4828
 4317TIP3    H134442   3.536   4.063  10.180 -2.1091  0.5567 -0.4491
 4317TIP3    H234443   3.662   4.117  10.244 -0.9919 -2.7505  0.3489
 4318TIP3   OH234444   5.439   5.929  12.171  0.3269 -0.3049  0.7343
 4318TIP3    H134445   5.410   5.988  12.241  0.9939 -0.5664  1.2331
 4318TIP3    H234446   5.445   5.844  12.212 -1.9280 -1.0590 -0.2839
 4319TIP3   OH234447   1.785   3.269  10.813 -0.3409  0.1976 -0.0890
 4319TIP3    H134448   1.789   3.306  10.901 -1.5703 -2.2564  1.0871
 4319TIP3    H234449   1.741   3.336  10.761  1.2695  2.1134  0.8611
 4320TIP3   OH234450   6.564   4.820  11.414 -0.0089  0.0803  0.1772
 4320TIP3    H134451   6.496   4.808  11.349 -0.7015  1.5250  0.5833
 4320TIP3    H234452   6.601   4.907  11.394 -0.2974  0.5912  1.7274
 4321TIP3   OH234453   2.067   0.241   4.951 -0.1407 -0.2427 -0.0729
 4321TIP3    H134454   2.096   0.218   4.863 -0.0352 -1.4820  0.2759
 4321TIP3    H234455   1.975   0.264   4.940  0.3316  1.4542 -0.7981
 4322TIP3   OH234456   6.620   1.257   0.434 -0.1056 -0.0272  0.3137
 4322TIP3    H134457   6.614   1.276   0.527  2.0846 -1.6434  0.8856
 4322TIP3    H234458   6.662   1.335   0.397  1.3269 -0.3553  1.1625
 4323TIP3   OH234459   6.410   5.217  12.102 -0.2475 -0.2019 -0.2692
 4323TIP3    H134460   6.480   5.242  12.041 -1.8235  0.8945 -1.7069
 4323TIP3    H234461   6.416   5.122  12.107  1.0700 -0.1618 -0.6925
 4324TIP3   OH234462   6.783   3.590  12.615  0.0643 -0.3566 -0.0731
 4324TIP3    H134463   6.738   3.663  12.656  0.0196  0.1952 -1.0578
 4324TIP3    H234464   6.714   3.544  12.567  0.2859 -0.3656 -0.3892
 4325TIP3   OH234465   3.261   1.385  12.235 -0.3141  0.0738 -0.0361
 4325TIP3    H134466   3.346   1.416  12.266  0.3196  0.8357 -2.3159
 4325TIP3    H234467   3.199   1.449  12.268  0.3393  0.9113 -0.3872
 4326TIP3   OH234468   0.430   3.305  11.478 -0.8877  0.0861  0.2323
 4326TIP3    H134469   0.395   3.290  11.566 -1.7206 -0.5113 -0.1934
 4326TIP3    H234470   0.471   3.391  11.483 -0.7354 -0.0343  1.2648
 4327TIP3   OH234471   3.570   0.078  11.716  0.1980  0.3824 -0.0231
 4327TIP3    H134472   3.560   0.169  11.743  0.1134 -0.1720  1.8995
 4327TIP3    H234473   3.527   0.027  11.784 -0.3794 -1.0948 -1.4244
 4328TIP3   OH234474   5.499   2.710  10.976 -0.2860  0.2811 -0.2728
 4328TIP3    H134475   5.450   2.628  10.985 -1.7958  0.9622 -1.8384
 4328TIP3    H234476   5.580   2.685  10.931 -2.2360  0.0237 -4.0123
 4329TIP3   OH234477   7.041   0.521  10.556 -0.1379  0.0788 -0.2089
 4329TIP3    H134478   7.048   0.438  10.507  0.5942 -0.0043  0.0175
 4329TIP3    H234479   7.106   0.512  10.626  1.8114  1.8517 -1.6612
 4330TIP3   OH234480   3.509   6.098   9.568  0.0186  0.2276  0.2219
 4330TIP3    H134481   3.558   6.062   9.494 -0.5014 -0.5416  0.2377
 4330TIP3    H234482   3.420   6.110   9.534  0.2982  2.0609  0.0487
 4331TIP3   OH234483   0.915   5.649  10.305 -0.1530  0.0217 -0.3702
 4331TIP3    H134484   0.886   5.722  10.250 -0.6551 -0.4016 -0.6811
 4331TIP3    H234485   0.955   5.587  10.243 -2.5165 -1.3930 -0.6076
 4332TIP3   OH234486   5.831   7.205  14.774  0.1640  0.5915 -0.3937
 4332TIP3    H134487   5.921   7.174  14.774 -0.5773 -1.7828  0.2341
 4332TIP3    H234488   5.808   7.213  14.867 -0.7441 -0.4446 -0.5034
 4333TIP3   OH234489   3.586   0.493  12.791  0.3747  0.9311  0.2704
 4333TIP3    H134490   3.576   0.576  12.838 -0.4695  0.3515  1.1558
 4333TIP3    H234491   3.680   0.488  12.771  0.4350  2.0821  0.2206
 4334TIP3   OH234492   1.358   5.684   0.015 -0.1747 -0.1091 -0.0261
 4334TIP3    H134493   1.366   5.776  -0.007 -1.5718  0.2458  0.8432
 4334TIP3    H234494   1.293   5.650  -0.046  0.0683 -0.4418 -0.1045
 4335TIP3   OH234495   1.625   1.641  10.697  0.1590 -0.3305 -0.8205
 4335TIP3    H134496   1.547   1.684  10.734 -0.2373 -0.8120 -1.0881
 4335TIP3    H234497   1.691   1.649  10.766 -0.3158 -0.4697 -0.3368
 4336TIP3   OH234498   2.087   3.769   9.966  0.0832 -0.1824  0.6201
 4336TIP3    H134499   2.117   3.859   9.977  0.2448 -0.2896  1.0391
 4336TIP3    H234500   2.167   3.717   9.963  0.0936 -0.1523 -1.2660
 4337TIP3   OH234501   1.793   6.110  10.258 -0.6784 -0.0460  0.6848
 4337TIP3    H134502   1.731   6.162  10.206 -1.9788 -0.4033  1.8159
 4337TIP3    H234503   1.781   6.020  10.228 -0.7522 -0.1221  0.9372
 4338TIP3   OH234504   1.885   3.020   9.976  0.3450  0.1184  0.0145
 4338TIP3    H134505   1.836   2.992  10.053  2.0216 -0.8616  0.7677
 4338TIP3    H234506   1.877   2.948   9.913 -1.9777  1.3819 -1.2665
 4339TIP3   OH234507   4.037   3.237   9.757  0.4691  0.3776  0.1747
 4339TIP3    H134508   3.966   3.273   9.703  1.0154  1.4830  0.1674
 4339TIP3    H234509   4.060   3.154   9.715  0.1707  0.7140 -0.6681
 4340TIP3   OH234510   5.817   5.924  14.989 -0.6539  0.3980  0.1304
 4340TIP3    H134511   5.764   6.001  15.010  2.2703  2.2567  1.2431
 4340TIP3    H234512   5.753   5.853  14.981 -3.2722  2.3895  1.6296
 4341TIP3   OH234513   5.750   0.823  12.135  0.5982  0.7006  0.0290
 4341TIP3    H134514   5.684   0.761  12.166  2.8381 -0.6920  2.4509
 4341TIP3    H234515   5.727   0.906  12.176  0.4392  0.1658  1.0698
 4342TIP3   OH234516   6.074   2.732  14.514  0.3937 -0.0252 -0.1774
 4342TIP3    H134517   6.118   2.792  14.573 -0.6349  0.0674  0.5190
 4342TIP3    H234518   6.109   2.753  14.427  0.3198  1.3243  0.1041
 4343TIP3   OH234519   3.660   6.214  12.203  0.3690  0.1831 -0.0711
 4343TIP3    H134520   3.622   6.296  12.171  1.5717  0.2969 -1.2939
 4343TIP3    H234521   3.711   6.240  12.280  0.1188  0.4551  0.0063
 4344TIP3   OH234522   6.080   6.622  13.129  0.0233 -0.0572 -0.1844
 4344TIP3    H134523   6.036   6.650  13.209  0.3508 -0.3633  0.1056
 4344TIP3    H234524   6.026   6.549  13.097  0.1851 -0.2816  0.0471
 4345TIP3   OH234525   0.933   5.864  10.065  0.1296 -0.0887 -0.1206
 4345TIP3    H134526   0.926   5.906  10.150 -1.3808 -0.2937 -0.1100
 4345TIP3    H234527   0.927   5.936  10.002  0.2409 -0.0332 -0.0670
 4346TIP3   OH234528   3.145   1.702  10.794 -0.0997  0.1902 -0.0572
 4346TIP3    H134529   3.158   1.713  10.888  0.1255 -0.6242  0.0186
 4346TIP3    H234530   3.054   1.672  10.785  0.0913 -0.4014 -0.0379
 4347TIP3   OH234531   5.397   0.347   0.874  0.2664  0.0401  0.3242
 4347TIP3    H134532   5.455   0.357   0.799 -1.7240  1.7457 -1.1353
 4347TIP3    H234533   5.384   0.253   0.883  1.6920 -0.2588 -0.5316
 4348TIP3   OH234534   2.369   7.106  10.894  0.7080 -0.3681  0.3584
 4348TIP3    H134535   2.297   7.163  10.866 -1.8218 -2.1131  2.7044
 4348TIP3    H234536   2.417   7.159  10.957  0.6047  0.3449 -0.1388
 4349TIP3   OH234537   5.642   1.116  11.753  0.0031  0.4662  0.5510
 4349TIP3    H134538   5.594   1.052  11.806 -1.4940  1.1338  0.0832
 4349TIP3    H234539   5.664   1.186  11.815 -0.4760  0.5772  0.6072
 4350TIP3   OH234540   6.293   1.139  13.645 -0.2351  1.0977  0.1852
 4350TIP3    H134541   6.347   1.151  13.723  0.8243  1.4474 -0.5796
 4350TIP3    H234542   6.207   1.114  13.679  0.9072 -1.5237  1.4235
 4351TIP3   OH234543   0.314   4.147  10.245 -0.0610 -0.2922 -0.2378
 4351TIP3    H134544   0.260   4.097  10.184  0.5304  1.1849 -2.0846
 4351TIP3    H234545   0.402   4.146  10.205  0.5432  0.0018  1.0379
 4352TIP3   OH234546   6.007   5.566   1.283  0.1686 -0.3836  0.4851
 4352TIP3    H134547   5.914   5.573   1.259 -0.6717 -0.4674  3.3609
 4352TIP3    H234548   6.044   5.651   1.258 -0.7736 -0.2110 -0.3719
 4353TIP3   OH234549   6.861   2.339   0.853  0.3842  0.0369  0.2831
 4353TIP3    H134550   6.931   2.275   0.835 -1.2435 -1.5684 -0.6685
 4353TIP3    H234551   6.892   2.420   0.812  1.7734 -0.5677  0.0622
 4354TIP3   OH234552   3.663   5.192  11.304  0.0464  0.5090  0.0864
 4354TIP3    H134553   3.666   5.242  11.385 -0.7922  1.0703 -0.2192
 4354TIP3    H234554   3.751   5.203  11.266  0.4535  0.2004  0.9295
 4355TIP3   OH234555   0.483   2.838  11.151  0.5395  0.2647 -0.2669
 4355TIP3    H134556   0.442   2.896  11.087 -1.4495 -0.0820  0.5898
 4355TIP3    H234557   0.524   2.897  11.215  0.2190  0.6865 -0.4442
 4356TIP3   OH234558   4.297   4.780  10.931 -0.4390  0.2183 -0.1310
 4356TIP3    H134559   4.355   4.770  10.856 -1.0129  1.1916 -0.7332
 4356TIP3    H234560   4.344   4.740  11.004  0.8865  0.7747 -0.6487
 4357TIP3   OH234561   2.899   6.225  12.675 -0.0088  0.1962 -0.1958
 4357TIP3    H134562   2.964   6.155  12.669  0.9749  0.6134  3.2899
 4357TIP3    H234563   2.946   6.299  12.712 -1.8118  1.5947 -0.5114
 4358TIP3   OH234564   2.160   0.862  13.739  0.2110 -0.1178 -0.0056
 4358TIP3    H134565   2.072   0.900  13.740  0.9598  1.7319  0.5618
 4358TIP3    H234566   2.171   0.828  13.650 -0.2778  1.6707 -0.7972
 4359TIP3   OH234567   6.585   4.754  12.777  0.2435 -0.3070  0.0808
 4359TIP3    H134568   6.588   4.847  12.756 -1.5119 -0.4425 -0.9719
 4359TIP3    H234569   6.593   4.751  12.872  2.6159  0.7217 -0.0138
 4360TIP3   OH234570   6.594   6.009   9.392 -0.2067  0.1195 -0.1975
 4360TIP3    H134571   6.575   5.939   9.454  2.9358 -0.3823  0.3648
 4360TIP3    H234572   6.522   6.005   9.329 -2.1189 -1.0708  1.9098
 4361TIP3   OH234573   0.976   3.837  14.220  0.2360 -0.1265  0.1114
 4361TIP3    H134574   0.970   3.744  14.238 -0.0947 -0.1110  0.0887
 4361TIP3    H234575   0.945   3.879  14.300 -2.2231 -0.0666 -0.7897
 4362TIP3   OH234576   2.507   3.830  11.498  0.5075 -0.2610 -0.0783
 4362TIP3    H134577   2.558   3.849  11.419 -1.5528 -1.6070 -1.8361
 4362TIP3    H234578   2.493   3.916  11.538 -0.2612  0.7905 -2.4133
 4363TIP3   OH234579   2.494   2.872  13.441  0.1586  0.3590 -0.2076
 4363TIP3    H134580   2.459   2.838  13.359 -0.7202  1.0710 -0.1491
 4363TIP3    H234581   2.519   2.962  13.421 -1.4952  1.0608  0.6419
 4364TIP3   OH234582   6.632   5.510  12.002 -0.0547 -0.0694 -1.0718
 4364TIP3    H134583   6.611   5.431  11.951  2.6967 -0.1920 -2.1912
 4364TIP3    H234584   6.660   5.476  12.087 -1.1324 -0.1130 -0.7228
 4365TIP3   OH234585   5.124   5.190  10.094 -0.4752  0.1071  0.2394
 4365TIP3    H134586   5.035   5.155  10.096  0.1984 -1.6426  0.8055
 4365TIP3    H234587   5.143   5.212  10.186 -0.1036 -0.0907  0.2089
 4366TIP3   OH234588   0.497   0.355  12.591  0.5139 -1.0392  0.0615
 4366TIP3    H134589   0.507   0.308  12.674 -2.2031 -2.1276 -0.1137
 4366TIP3    H234590   0.415   0.403  12.600  0.6396 -0.4167 -1.6659
 4367TIP3   OH234591   2.359   4.258   0.318 -0.3769 -0.0999 -0.4339
 4367TIP3    H134592   2.390   4.262   0.228 -1.2182  2.8964 -0.6813
 4367TIP3    H234593   2.380   4.344   0.355 -1.5412 -0.6721  1.7292
 4368TIP3   OH234594   6.392   1.985  11.202  0.0208  0.2450  0.4732
 4368TIP3    H134595   6.437   1.949  11.126  2.0237  0.1901  1.6249
 4368TIP3    H234596   6.445   1.958  11.277 -2.8237 -1.2830  2.1536
 4369TIP3   OH234597   6.254   6.931  13.513  0.7002 -0.5271  0.5608
 4369TIP3    H134598   6.207   6.876  13.450  1.7775 -1.3031  0.3990
 4369TIP3    H234599   6.227   7.020  13.492  0.1734 -0.8672 -0.2642
 4370TIP3   OH234600   4.583   1.741  14.350  0.1957 -0.3043  0.2104
 4370TIP3    H134601   4.579   1.675  14.281 -0.5891  0.4896 -0.5227
 4370TIP3    H234602   4.668   1.782  14.340  0.1039 -0.2273 -0.2571
 4371TIP3   OH234603   0.571   1.060   0.714  0.2893  0.2694 -0.4546
 4371TIP3    H134604   0.502   1.055   0.780  1.7680  0.6529  1.1999
 4371TIP3    H234605   0.530   1.105   0.640 -1.5751 -0.6713 -0.0521
 4372TIP3   OH234606   5.568   0.879  13.971 -0.5777  0.3394  0.0464
 4372TIP3    H134607   5.588   0.944  14.038 -0.9691  0.4183  0.0878
 4372TIP3    H234608   5.644   0.882  13.911  0.0431 -0.1378  0.7846
 4373TIP3   OH234609   1.142   6.057  10.430 -0.2317 -0.2732  0.1172
 4373TIP3    H134610   1.229   6.092  10.452 -0.3085 -0.2971  0.4724
 4373TIP3    H234611   1.102   6.039  10.515 -0.5819 -0.2705 -0.0463
 4374TIP3   OH234612   6.223   1.615   0.907  0.5220  0.4789  0.6693
 4374TIP3    H134613   6.176   1.668   0.842 -0.5468 -0.2244  0.8283
 4374TIP3    H234614   6.192   1.647   0.991 -0.9354 -0.9945  0.7670
 4375TIP3   OH234615   6.569   6.225  11.566 -0.2129  0.2757  0.1656
 4375TIP3    H134616   6.519   6.147  11.590 -0.5101  1.2511  3.0946
 4375TIP3    H234617   6.598   6.262  11.649  1.8527  2.0851 -1.2250
 4376TIP3   OH234618   1.140   1.173  12.196 -0.0529  0.1127 -0.3181
 4376TIP3    H134619   1.121   1.202  12.285 -1.9371 -0.4604 -0.4925
 4376TIP3    H234620   1.081   1.226  12.141  1.6803  1.0665 -1.3333
 4377TIP3   OH234621   5.200   4.855  11.829 -0.0690 -0.1064 -0.4705
 4377TIP3    H134622   5.192   4.767  11.792 -0.9972 -0.1041 -0.3036
 4377TIP3    H234623   5.128   4.861  11.891 -0.3209  0.9500 -0.8476
 4378TIP3   OH234624   0.435   7.018  14.051 -0.0857  0.0263  0.3062
 4378TIP3    H134625   0.414   6.937  14.005  1.7089 -0.9222  1.0396
 4378TIP3    H234626   0.527   7.034  14.030 -0.2622  1.6016  0.6085
 4379TIP3   OH234627   6.232   6.805  11.106 -0.4176 -0.1596  0.0539
 4379TIP3    H134628   6.295   6.747  11.065 -1.1882 -1.2959  0.4213
 4379TIP3    H234629   6.189   6.751  11.172 -2.6578  0.1794 -1.0338
 4380TIP3   OH234630   3.354   5.647  10.518 -0.1963 -0.0967 -0.3925
 4380TIP3    H134631   3.350   5.714  10.450  2.3238 -0.7209 -1.2642
 4380TIP3    H234632   3.335   5.565  10.472  0.7285 -0.4240 -0.2198
 4381TIP3   OH234633   1.673   1.112  10.829 -0.0056  0.0835 -0.5970
 4381TIP3    H134634   1.728   1.034  10.827  0.4306  0.3586 -3.3787
 4381TIP3    H234635   1.631   1.113  10.743 -2.3103  1.3578  0.4471
 4382TIP3   OH234636   1.262   4.921   0.079 -0.0899 -0.3281 -0.1333
 4382TIP3    H134637   1.308   4.974   0.014  0.6055 -0.6030  0.1261
 4382TIP3    H234638   1.171   4.949   0.073  0.3179  1.1159  0.2244
 4383TIP3   OH234639   2.140   0.236   2.647  0.3953  0.2723  0.0672
 4383TIP3    H134640   2.079   0.309   2.651 -0.6329 -0.5777  0.1163
 4383TIP3    H234641   2.221   0.270   2.686  0.8769  2.2864 -2.4083
 4384TIP3   OH234642   6.467   2.573  14.689  0.0923 -0.3767 -0.3179
 4384TIP3    H134643   6.398   2.638  14.703  0.4173  0.5138 -2.4165
 4384TIP3    H234644   6.483   2.576  14.594  0.2060 -3.4413 -0.4723
 4385TIP3   OH234645   2.572   2.445  11.690 -0.0992 -0.1768  0.0884
 4385TIP3    H134646   2.495   2.433  11.634  1.3346 -1.0452 -1.8288
 4385TIP3    H234647   2.605   2.356  11.704 -0.2101  0.0608  2.0786
 4386TIP3   OH234648   0.811   5.444  13.117  0.0294 -0.0371  1.1221
 4386TIP3    H134649   0.725   5.458  13.158 -0.2066 -0.4236  0.7641
 4386TIP3    H234650   0.865   5.516  13.149 -0.3401  0.0329  1.5978
 4387TIP3   OH234651   2.701   4.994   1.311 -0.3285 -0.2011  0.1643
 4387TIP3    H134652   2.754   4.942   1.251  2.6181  2.8098 -0.1501
 4387TIP3    H234653   2.718   4.957   1.397  1.7176  0.1709 -0.0332
 4388TIP3   OH234654   1.993   1.328  10.411 -0.8605 -0.1152 -0.2219
 4388TIP3    H134655   1.916   1.376  10.381 -2.1264 -2.0756 -0.2737
 4388TIP3    H234656   2.022   1.279  10.334 -0.9745 -1.1610  0.3838
 4389TIP3   OH234657   1.667   0.302   0.254  0.0135  0.0705 -0.3529
 4389TIP3    H134658   1.739   0.272   0.198  0.7098 -2.1159  1.5798
 4389TIP3    H234659   1.609   0.226   0.261  0.1627  0.1178  2.1468
 4390TIP3   OH234660   4.489   3.589   9.530  0.0472  0.3790 -0.0810
 4390TIP3    H134661   4.462   3.661   9.474 -0.8596 -0.1050 -0.2817
 4390TIP3    H234662   4.410   3.537   9.543  0.5576 -0.2772  0.5173
 4391TIP3   OH234663   3.546   5.937  10.004  0.2763  0.5859 -0.3934
 4391TIP3    H134664   3.487   5.862  10.006  0.0276  0.7665  2.3109
 4391TIP3    H234665   3.623   5.909  10.053 -0.3353  2.3960  1.7797
 4392TIP3   OH234666   5.221   0.403   9.711  0.2947 -0.1575 -0.3482
 4392TIP3    H134667   5.187   0.492   9.709 -0.4486 -0.4356 -2.9207
 4392TIP3    H234668   5.294   0.407   9.774 -0.3126  1.9975  0.3107
 4393TIP3   OH234669   2.532   3.820  10.478  0.1762  0.0231  0.2270
 4393TIP3    H134670   2.461   3.792  10.537  0.0963 -0.9631 -0.3051
 4393TIP3    H234671   2.610   3.819  10.533  0.2013 -1.4539  0.1975
 4394TIP3   OH234672   5.023   1.095  15.203  0.2295  0.7953  0.4147
 4394TIP3    H134673   5.047   1.144  15.125  1.5923 -2.7397 -1.6310
 4394TIP3    H234674   4.935   1.062  15.184  0.5651 -0.0761  0.3241
 4395TIP3   OH234675   1.415   2.605  10.637 -0.3144  0.1951  0.1400
 4395TIP3    H134676   1.463   2.688  10.646  0.3220 -0.1386 -0.1267
 4395TIP3    H234677   1.462   2.544  10.693  0.8555 -0.6813 -1.7293
 4396TIP3   OH234678   5.282   6.223   1.295 -0.2963 -0.0336  0.3069
 4396TIP3    H134679   5.307   6.272   1.216  2.8577  0.0808  1.2415
 4396TIP3    H234680   5.311   6.279   1.367 -0.6109 -1.3485  1.4792
 4397TIP3   OH234681   4.023   4.104  14.650 -0.5727  0.2545 -0.5445
 4397TIP3    H134682   4.084   4.148  14.591 -0.4838  1.1005  0.1609
 4397TIP3    H234683   3.984   4.034  14.597  3.1064 -2.2561 -0.2729
 4398TIP3   OH234684   6.778   5.380  14.995 -0.1654 -0.1931 -0.5752
 4398TIP3    H134685   6.717   5.306  15.001  2.2536 -2.3550 -0.8128
 4398TIP3    H234686   6.771   5.409  14.904  0.2605 -1.4344 -1.0163
 4399TIP3   OH234687   1.611   2.296  11.406 -0.2693  0.5645 -0.0333
 4399TIP3    H134688   1.671   2.236  11.362  0.5316  0.2499  1.4287
 4399TIP3    H234689   1.524   2.269  11.376  0.2142  0.1489 -1.1227
 4400TIP3   OH234690   3.686   4.038  11.660  0.6728 -0.2006 -0.5835
 4400TIP3    H134691   3.719   3.993  11.738  0.6113 -0.1319 -0.5169
 4400TIP3    H234692   3.642   3.970  11.609  1.4771 -0.4274 -0.9864
 4401TIP3   OH234693   4.168   2.500  12.498  0.1515 -0.3785  0.1727
 4401TIP3    H134694   4.199   2.516  12.409 -2.5391  0.5759 -0.6844
 4401TIP3    H234695   4.195   2.577  12.547 -2.1234  1.2535 -0.9666
 4402TIP3   OH234696   4.756   3.109  10.902 -0.1299 -0.2452  0.5124
 4402TIP3    H134697   4.676   3.119  10.952 -0.8674 -1.1664 -0.4353
 4402TIP3    H234698   4.741   3.033  10.847  1.3420 -0.3461  0.1947
 4403TIP3   OH234699   0.327   0.130  13.617 -0.0128  0.0641  0.1863
 4403TIP3    H134700   0.367   0.183  13.686 -2.0641 -0.0379  1.5434
 4403TIP3    H234701   0.316   0.190  13.544  1.2414  0.4556  0.2976
 4404TIP3   OH234702   6.657   5.106   0.570  0.0046 -0.3461  0.0460
 4404TIP3    H134703   6.608   5.107   0.652 -1.1335  0.8576 -0.6072
 4404TIP3    H234704   6.697   5.193   0.565  2.8892 -1.5001  0.8931
 4405TIP3   OH234705   1.780   6.662  11.225  0.3049  0.2775  0.0732
 4405TIP3    H134706   1.739   6.639  11.141 -0.1485 -0.2520  0.4297
 4405TIP3    H234707   1.775   6.581  11.277 -1.3464  1.1573  1.3811
 4406TIP3   OH234708   7.127   0.791  11.376 -0.4115 -0.0253 -0.2006
 4406TIP3    H134709   7.153   0.767  11.465 -0.3515 -0.3120 -0.2963
 4406TIP3    H234710   7.126   0.887  11.377 -1.1023 -0.0231  0.3149
 4407TIP3   OH234711   6.570   5.031  14.249 -0.7670 -0.5856  0.7370
 4407TIP3    H134712   6.650   4.999  14.208 -0.3705  2.2759 -0.9847
 4407TIP3    H234713   6.499   4.984  14.206 -0.1201 -1.1023  0.2346
 4408TIP3   OH234714   6.138   1.716  10.170 -0.1115 -0.2173  0.8205
 4408TIP3    H134715   6.074   1.785  10.186 -0.8382 -0.9597  1.1724
 4408TIP3    H234716   6.222   1.762  10.167 -0.8186  1.1126 -1.9294
 4409TIP3   OH234717   1.636   5.119  10.449  0.0908 -0.5202  0.3523
 4409TIP3    H134718   1.590   5.091  10.528 -1.0199  0.6659  0.1686
 4409TIP3    H234719   1.574   5.101  10.378  0.3805  0.0253 -0.0424
 4410TIP3   OH234720   1.293   0.598  15.058  0.1331  0.7419  0.0001
 4410TIP3    H134721   1.280   0.685  15.097 -0.8500  0.8621 -0.5506
 4410TIP3    H234722   1.369   0.609  15.001 -0.0744  1.2853 -0.1830
 4411TIP3   OH234723   0.109   6.641  11.026 -0.0899 -0.1907 -0.1885
 4411TIP3    H134724   0.089   6.550  11.050  0.8457 -0.4670 -0.4013
 4411TIP3    H234725   0.024   6.683  11.017 -0.5190 -0.8262  0.7511
 4412TIP3   OH234726   7.038   4.852  12.807  0.3757 -0.0159  0.1698
 4412TIP3    H134727   6.959   4.901  12.787  1.2612  0.5467 -2.1888
 4412TIP3    H234728   7.009   4.761  12.816 -0.5341  0.1768 -0.7195
 4413TIP3   OH234729   0.063   7.005  11.367  0.0391 -0.5816  0.1402
 4413TIP3    H134730   0.099   6.917  11.359  1.6303 -0.3184  2.9230
 4413TIP3    H234731   0.113   7.058  11.304 -0.2886 -1.4633 -0.8807
 4414TIP3   OH234732   3.466   6.271  11.124 -0.0757  0.1532  0.0956
 4414TIP3    H134733   3.372   6.255  11.136 -0.4498  3.0834  2.1653
 4414TIP3    H234734   3.505   6.241  11.206  0.9661 -1.6830 -1.0212
 4415TIP3   OH234735   0.884   3.601  10.906  0.5288  0.6166  0.2706
 4415TIP3    H134736   0.859   3.542  10.835  0.0430  0.8895  0.2149
 4415TIP3    H234737   0.801   3.633  10.941  0.7590  0.2774  1.1404
 4416TIP3   OH234738   0.187   1.146   9.803 -0.3478  0.2487 -0.1603
 4416TIP3    H134739   0.140   1.068   9.776  0.5349 -0.3900  0.0818
 4416TIP3    H234740   0.246   1.165   9.730  0.5285 -0.2338  0.3946
 4417TIP3   OH234741   2.996   3.606  13.033 -0.3400  0.3335  0.0337
 4417TIP3    H134742   2.946   3.669  12.981 -2.3888  0.4960  2.0489
 4417TIP3    H234743   3.050   3.660  13.091 -1.2411  0.2619  0.9669
 4418TIP3   OH234744   6.322   3.452  11.480  0.2108 -0.7413  0.4002
 4418TIP3    H134745   6.348   3.400  11.404  1.5392 -1.2087  1.1477
 4418TIP3    H234746   6.402   3.464  11.530 -0.7184 -0.8552  1.9925
 4419TIP3   OH234747   1.865   0.094  15.223 -0.0039  0.1085  0.1951
 4419TIP3    H134748   1.957   0.072  15.233 -0.4018 -2.2922 -0.6786
 4419TIP3    H234749   1.820   0.010  15.224 -1.9517  1.0160 -1.5957
 4420TIP3   OH234750   3.592   6.003  10.349 -0.0465 -0.6922 -0.6171
 4420TIP3    H134751   3.521   5.959  10.302  0.1251 -0.9631 -0.6252
 4420TIP3    H234752   3.572   5.990  10.442  0.1440 -1.0174 -0.6206
 4421TIP3   OH234753   5.709   6.413  10.862  0.5044  0.0221  0.3843
 4421TIP3    H134754   5.630   6.458  10.834  0.0612 -0.4689  0.8200
 4421TIP3    H234755   5.757   6.396  10.780 -0.2696 -0.4644  0.0150
 4422TIP3   OH234756   4.312   4.771  13.398  0.5339  0.3413  0.4303
 4422TIP3    H134757   4.355   4.740  13.477 -0.4925  0.7428  1.1605
 4422TIP3    H234758   4.288   4.691  13.351  1.2128  0.1042  0.4758
 4423TIP3   OH234759   5.442   0.209  12.988  0.2864  0.3934 -0.3758
 4423TIP3    H134760   5.356   0.169  12.971  0.5974 -0.0680 -0.8736
 4423TIP3    H234761   5.452   0.275  12.920 -1.0012  2.6206  1.4668
 4424TIP3   OH234762   6.896   3.953  13.329  0.3690  0.0810 -0.1773
 4424TIP3    H134763   6.852   4.027  13.287 -1.0462 -1.3925 -1.4381
 4424TIP3    H234764   6.989   3.979  13.332  0.2380  1.0663 -2.5230
 4425TIP3   OH234765   2.859   1.966  13.158 -0.4913  0.6578  0.7165
 4425TIP3    H134766   2.933   1.930  13.110 -0.4374 -0.0129  1.2718
 4425TIP3    H234767   2.866   1.926  13.245  0.0403  2.6725  1.6450
 4426TIP3   OH234768   2.817   2.273  11.768  0.3149 -0.0314 -0.1232
 4426TIP3    H134769   2.844   2.271  11.859  2.3239  1.4887 -0.6071
 4426TIP3    H234770   2.832   2.184  11.736  0.0054 -0.4619  0.8804
 4427TIP3   OH234771   6.158   6.880  13.192 -0.6030 -0.7887  0.0206
 4427TIP3    H134772   6.250   6.858  13.179 -0.2013  0.1730  1.0848
 4427TIP3    H234773   6.118   6.865  13.106  0.6067 -0.8926 -0.5483
 4428TIP3   OH234774   6.159   4.079  10.199  0.1007  0.0007  0.3068
 4428TIP3    H134775   6.195   4.124  10.275  0.0701  0.0052  0.3189
 4428TIP3    H234776   6.128   3.995  10.233 -0.8322  0.4089  0.5036
 4429TIP3   OH234777   6.887   1.694  13.142  0.0055  0.2010 -0.6364
 4429TIP3    H134778   6.866   1.786  13.126 -1.5370 -0.2496 -1.4601
 4429TIP3    H234779   6.824   1.667  13.209  1.9482  0.2912  1.3238
 4430TIP3   OH234780   5.423   0.417  12.812  0.2706  0.5279  0.7375
 4430TIP3    H134781   5.359   0.488  12.816  0.9271  1.0989  1.2020
 4430TIP3    H234782   5.502   0.457  12.777  0.9906  0.2913  2.0346
 4431TIP3   OH234783   0.637   3.947  13.508 -0.2021  0.2180  0.6377
 4431TIP3    H134784   0.561   3.929  13.454  1.4602 -0.7890 -1.5487
 4431TIP3    H234785   0.655   3.864  13.553  0.6241 -0.1050 -0.2639
 4432TIP3   OH234786   0.519   0.933   3.387 -0.0342  0.4420  0.3704
 4432TIP3    H134787   0.545   0.974   3.470 -0.9202 -0.0454  0.9043
 4432TIP3    H234788   0.458   0.864   3.413 -1.0053  0.8547 -0.7510
 4433TIP3   OH234789   4.684   4.181  13.729  0.0730  0.3544 -0.0771
 4433TIP3    H134790   4.675   4.275  13.713  0.1903  0.4441  0.3608
 4433TIP3    H234791   4.635   4.166  13.809  1.4686  0.3648  0.8217
 4434TIP3   OH234792   1.172   0.109   1.013 -0.2275  0.0527 -0.6399
 4434TIP3    H134793   1.127   0.192   1.027 -2.2527 -0.9736 -0.7546
 4434TIP3    H234794   1.178   0.069   1.099  1.4419  0.6032 -0.4598
 4435TIP3   OH234795   2.366   3.742   9.504  0.6150  0.2027 -0.5668
 4435TIP3    H134796   2.281   3.710   9.472  0.4686 -0.8632  0.8123
 4435TIP3    H234797   2.430   3.680   9.467  0.6818  0.3405 -0.6834
 4436TIP3   OH234798   2.185   4.249   0.961 -0.1290  0.7258 -0.3314
 4436TIP3    H134799   2.127   4.325   0.954 -0.9994  0.0783 -0.1868
 4436TIP3    H234800   2.257   4.268   0.900 -0.4878  1.5278 -0.5134
 4437TIP3   OH234801   5.265   5.380   9.932  0.2617  0.0250  0.0311
 4437TIP3    H134802   5.278   5.334   9.848 -1.8509  1.1610 -0.9847
 4437TIP3    H234803   5.252   5.310   9.995  1.2149 -0.8432 -0.6868
 4438TIP3   OH234804   2.084   2.051  14.816  0.8358  0.3729 -0.2272
 4438TIP3    H134805   2.032   1.999  14.756 -0.1584  0.8618  0.1927
 4438TIP3    H234806   2.065   2.142  14.791  1.9924  0.5630 -0.4886
 4439TIP3   OH234807   2.016   3.220  12.854 -0.0185  0.3568  0.0756
 4439TIP3    H134808   1.987   3.236  12.764 -0.4638 -1.7917 -0.2146
 4439TIP3    H234809   2.048   3.130  12.854  0.5476  0.5059  1.9423
 4440TIP3   OH234810   6.584   3.369   2.107  0.0741  0.0584  0.1617
 4440TIP3    H134811   6.622   3.282   2.098 -0.9011 -0.3616  0.0080
 4440TIP3    H234812   6.581   3.404   2.018 -0.4693 -0.1590  0.0925
 4441TIP3   OH234813   6.426   5.928  10.763  0.4022 -0.4465 -0.3386
 4441TIP3    H134814   6.485   5.989  10.807  2.0321 -0.9981 -1.6346
 4441TIP3    H234815   6.471   5.844  10.768 -1.0815 -1.2324  0.0784
 4442TIP3   OH234816   4.019   0.007  11.550  0.0900  0.0307 -0.4378
 4442TIP3    H134817   3.934   0.017  11.507 -0.9827 -0.7701  1.3455
 4442TIP3    H234818   4.011  -0.075  11.599  1.8264  0.0522 -0.0560
 4443TIP3   OH234819   1.848   0.819  12.246  0.1754 -0.5071 -0.5528
 4443TIP3    H134820   1.879   0.902  12.209 -1.1655  0.2426 -0.0364
 4443TIP3    H234821   1.861   0.829  12.341 -0.3897 -0.6997 -0.4514
 4444TIP3   OH234822   0.349   6.009   2.066 -0.1732 -0.1479  0.3438
 4444TIP3    H134823   0.261   6.047   2.059 -0.3644 -0.8669 -2.0593
 4444TIP3    H234824   0.338   5.917   2.041  1.1708 -0.3730  0.5128
 4445TIP3   OH234825   1.752   6.786  10.074 -0.1799  0.3604 -0.5295
 4445TIP3    H134826   1.832   6.826  10.040  0.2541  1.2171  1.3571
 4445TIP3    H234827   1.690   6.859  10.080 -0.8898 -0.1583 -1.2921
 4446TIP3   OH234828   5.422   0.916  13.178 -0.1002  0.4973 -0.1582
 4446TIP3    H134829   5.433   1.011  13.179  1.5988  0.3301 -0.0435
 4446TIP3    H234830   5.493   0.883  13.234  1.5370 -1.0248 -2.9179
 4447TIP3   OH234831   0.422   4.614  14.390 -0.5632 -0.2612  0.5046
 4447TIP3    H134832   0.390   4.591  14.302  1.0912 -0.4358 -0.0792
 4447TIP3    H234833   0.445   4.706  14.384 -0.8927 -0.1493  0.9098
 4448TIP3   OH234834   2.488   2.479  11.186  0.2249 -0.4494  0.4147
 4448TIP3    H134835   2.406   2.526  11.169  1.3450  1.4523 -0.0559
 4448TIP3    H234836   2.467   2.388  11.167 -1.0797  0.3213 -2.4090
 4449TIP3   OH234837   6.143   5.190  13.455 -0.3452 -0.1574  0.1976
 4449TIP3    H134838   6.233   5.197  13.486  0.1591  0.1879 -1.2758
 4449TIP3    H234839   6.121   5.278  13.424 -0.5233 -0.6533 -1.1525
 4450TIP3   OH234840   4.532   5.795  12.674 -0.8546 -0.3625  0.3392
 4450TIP3    H134841   4.553   5.735  12.746  0.3838 -0.4535 -0.0805
 4450TIP3    H234842   4.601   5.780  12.610 -1.0115  0.9228 -0.1456
 4451TIP3   OH234843   2.154   2.831   2.342 -0.5554  0.2204 -0.2259
 4451TIP3    H134844   2.171   2.737   2.348  0.0330  0.3958  2.7541
 4451TIP3    H234845   2.232   2.872   2.378 -1.7270  1.7141  0.7627
 4452TIP3   OH234846   5.714   3.334  12.149 -0.2407  0.4021 -0.0887
 4452TIP3    H134847   5.717   3.343  12.054  0.8280  1.3559  0.0144
 4452TIP3    H234848   5.804   3.350  12.177 -0.9185  2.1548  1.2365
 4453TIP3   OH234849   3.445   3.979   9.327 -0.0086  0.2955 -0.3683
 4453TIP3    H134850   3.476   3.905   9.274  2.3188 -0.6086  1.9886
 4453TIP3    H234851   3.365   3.946   9.369  0.2904 -0.4285 -0.3457
 4454TIP3   OH234852   6.121   0.776  15.370  0.1577 -0.5694 -0.2887
 4454TIP3    H134853   6.078   0.861  15.358  0.7607 -0.3006 -0.6103
 4454TIP3    H234854   6.079   0.739  15.448  0.1174  0.1654  0.0529
 4455TIP3   OH234855   5.153   0.745   9.973 -0.3794  0.6275 -0.3888
 4455TIP3    H134856   5.209   0.688   9.920 -0.2877  0.4373 -0.0891
 4455TIP3    H234857   5.116   0.687  10.040  0.6161  1.1361  0.6364
 4456TIP3   OH234858   5.911   2.951  11.997  0.0579  0.2859  0.0637
 4456TIP3    H134859   5.862   2.956  11.915  0.2371 -1.2097 -0.1653
 4456TIP3    H234860   5.997   2.987  11.975  1.1269 -2.7691 -1.2934
 4457TIP3   OH234861   5.161   3.846  12.912 -0.5582  0.0995  0.0775
 4457TIP3    H134862   5.127   3.923  12.867  0.6045  0.0894 -0.8598
 4457TIP3    H234863   5.130   3.772  12.860 -2.1702 -0.1458  1.3035
 4458TIP3   OH234864   4.336   6.360  13.932 -1.0102 -0.4484 -0.2171
 4458TIP3    H134865   4.391   6.310  13.871  1.1116 -0.7489  1.8092
 4458TIP3    H234866   4.246   6.338  13.906 -0.1759 -2.7022 -1.5233
 4459TIP3   OH234867   6.400   2.628  13.445  0.4301 -0.6622 -0.4163
 4459TIP3    H134868   6.373   2.686  13.374  1.8104  0.2012 -0.2612
 4459TIP3    H234869   6.407   2.542  13.404  0.5844 -0.2914 -1.1838
 4460TIP3   OH234870   3.564   2.883   9.732  0.1524  0.6800 -0.3653
 4460TIP3    H134871   3.579   2.909   9.823 -0.2784 -1.1680  0.2600
 4460TIP3    H234872   3.586   2.790   9.729 -0.4763  0.5498 -1.9935
 4461TIP3   OH234873   1.542   6.957  11.108 -0.1719 -0.5061  0.4697
 4461TIP3    H134874   1.480   6.914  11.049 -2.6747  0.2510  2.3619
 4461TIP3    H234875   1.554   6.895  11.179  0.0309 -0.0380  0.8492
 4462TIP3   OH234876   0.024   3.744  10.501  0.3255  0.2527  0.0299
 4462TIP3    H134877   0.091   3.679  10.480 -1.4029 -1.7229  0.3056
 4462TIP3    H234878  -0.003   3.779  10.416 -1.0100 -1.8758 -0.5096
 4463TIP3   OH234879   5.626   4.022  11.061  0.5541 -0.1970  0.1752
 4463TIP3    H134880   5.690   3.992  11.126  1.1583  0.1203 -0.2674
 4463TIP3    H234881   5.605   3.943  11.010  0.0731 -0.4498  0.7458
 4464TIP3   OH234882   0.905   5.951  10.319  0.0914  0.2094 -0.0642
 4464TIP3    H134883   0.961   5.997  10.382 -0.3683 -1.2996  1.5230
 4464TIP3    H234884   0.816   5.980  10.340 -0.0442 -0.0907 -0.2139
 4465TIP3   OH234885   5.564   5.276  15.337 -0.4527  0.0019  0.0529
 4465TIP3    H134886   5.625   5.217  15.293 -0.7063  0.7149 -1.3322
 4465TIP3    H234887   5.606   5.362  15.331 -0.5955  0.1467  1.0523
 4466TIP3   OH234888   1.793   6.340  15.354 -0.0529 -0.0593 -0.6148
 4466TIP3    H134889   1.853   6.347  15.429 -0.5314  1.2098 -0.3216
 4466TIP3    H234890   1.735   6.415  15.363 -3.6155 -2.7298  0.7579
 4467TIP3   OH234891   4.790   1.165   1.318 -0.0948 -0.6550 -0.3867
 4467TIP3    H134892   4.860   1.225   1.345  0.9686 -1.8778 -0.3039
 4467TIP3    H234893   4.800   1.157   1.223 -2.0838  1.4934 -0.8625
 4468TIP3   OH234894   2.018   0.807  14.152  0.0182  0.2106 -0.2718
 4468TIP3    H134895   2.063   0.744  14.096 -0.2638  0.3614 -0.6757
 4468TIP3    H234896   1.951   0.756  14.198 -0.7719  0.3460 -1.2237
 4469TIP3   OH234897   1.419   5.997  13.362 -0.3871  0.0633  0.1752
 4469TIP3    H134898   1.467   6.022  13.441 -1.5054 -1.9062  1.5665
 4469TIP3    H234899   1.451   6.058  13.295  1.7499  0.8089  1.7318
 4470TIP3   OH234900   1.680   3.053  11.215  0.0297  0.1112 -0.2155
 4470TIP3    H134901   1.686   3.095  11.129  0.7047 -1.9131 -1.2242
 4470TIP3    H234902   1.771   3.043  11.243 -0.0315 -1.3946 -0.4291
 4471TIP3   OH234903   2.654   6.517  11.892 -0.2761 -0.2019  0.1894
 4471TIP3    H134904   2.688   6.429  11.880  1.9273  0.5505  0.3813
 4471TIP3    H234905   2.614   6.540  11.808  0.9657 -0.6577 -0.5534
 4472TIP3   OH234906   5.741   1.467  13.725  0.2222  0.3345  0.3007
 4472TIP3    H134907   5.674   1.536  13.724  0.1469  0.2825  1.2159
 4472TIP3    H234908   5.810   1.500  13.667 -0.4861  0.4876 -0.4797
 4473TIP3   OH234909   0.208   6.360   2.769  0.2011  0.1316  0.4825
 4473TIP3    H134910   0.277   6.306   2.806  0.4221  0.3563  0.3951
 4473TIP3    H234911   0.236   6.450   2.785  0.2857  0.2322 -0.2009
 4474TIP3   OH234912   1.703   6.824  10.765  0.2113 -0.0839 -0.1567
 4474TIP3    H134913   1.625   6.850  10.716  0.1948  0.8239  0.3298
 4474TIP3    H234914   1.767   6.893  10.748  0.5283 -0.2480  0.3389
 4475TIP3   OH234915   3.846   6.191  12.912  0.1869 -0.0486  0.3737
 4475TIP3    H134916   3.803   6.109  12.889 -0.1382 -0.5249  2.4665
 4475TIP3    H234917   3.938   6.176  12.893 -0.1073 -0.1704 -1.0948
 4476TIP3   OH234918   2.437   4.296  14.312 -0.1426 -0.2526  0.1280
 4476TIP3    H134919   2.507   4.263  14.256  0.7323 -0.6986  1.4410
 4476TIP3    H234920   2.412   4.380  14.272  0.8495 -0.2888 -0.6069
 4477TIP3   OH234921   3.140   3.779  13.220  0.0706 -0.1746 -0.8942
 4477TIP3    H134922   3.197   3.727  13.277  0.1379 -1.2199 -1.8721
 4477TIP3    H234923   3.056   3.781  13.265 -0.1687 -1.8452 -1.1940
 4478TIP3   OH234924   4.181   2.716  10.688  0.3298  0.4082  0.0817
 4478TIP3    H134925   4.160   2.686  10.776 -0.0538 -2.6355 -0.9383
 4478TIP3    H234926   4.132   2.798  10.679 -2.3959 -0.8919  1.5790
 4479TIP3   OH234927   4.331   3.364  12.473 -0.0926  0.1315 -0.6425
 4479TIP3    H134928   4.257   3.390  12.419  0.2453 -0.8967 -1.6394
 4479TIP3    H234929   4.297   3.362  12.562 -1.0074  0.5726 -0.9723
 4480TIP3   OH234930   6.258   2.414  10.587  0.1647  0.0592  0.2908
 4480TIP3    H134931   6.171   2.412  10.547 -0.4384 -2.4570  1.5240
 4480TIP3    H234932   6.318   2.401  10.514 -0.4594  1.4996 -0.5312
 4481TIP3   OH234933   6.827   0.941   9.898  0.5066  0.1956  0.0499
 4481TIP3    H134934   6.881   0.888   9.840 -0.6813 -1.1221  0.0910
 4481TIP3    H234935   6.816   1.024   9.852 -0.4723 -0.8397 -1.6942
 4482TIP3   OH234936   0.180   3.558  11.886 -0.3203  0.0873 -0.7704
 4482TIP3    H134937   0.261   3.536  11.932 -2.1660  0.5854  3.1538
 4482TIP3    H234938   0.173   3.653  11.894 -2.2124 -0.1370  0.8294
 4483TIP3   OH234939   0.518   4.722  10.529 -0.3354  0.2404 -0.0719
 4483TIP3    H134940   0.499   4.747  10.439  0.7616  0.1614 -0.3445
 4483TIP3    H234941   0.510   4.803  10.579  1.8376  0.9470 -0.7250
 4484TIP3   OH234942   3.745   5.325  10.934 -0.0095  0.1928 -0.4483
 4484TIP3    H134943   3.768   5.254  10.874 -2.3926 -1.3165  0.2657
 4484TIP3    H234944   3.670   5.292  10.983  0.8242  1.9577  2.2970
 4485TIP3   OH234945   7.010   4.461  12.111 -0.0452  0.8031  0.0419
 4485TIP3    H134946   6.978   4.392  12.053 -2.4540 -0.5244  2.7238
 4485TIP3    H234947   7.105   4.460  12.099 -0.2769 -0.7441 -2.3456
 4486TIP3   OH234948   5.865   4.973  10.774  0.2511  0.4940 -0.4516
 4486TIP3    H134949   5.938   4.940  10.826 -1.1941 -0.3874  1.1541
 4486TIP3    H234950   5.836   4.899  10.722 -0.1507  0.5221 -0.2752
 4487TIP3   OH234951   7.096   4.365  15.045  0.5804  0.0881  0.1805
 4487TIP3    H134952   7.067   4.351  14.955 -0.3362 -2.0493  0.7617
 4487TIP3    H234953   7.173   4.309  15.055  0.7710  0.4284  0.6847
 4488TIP3   OH234954   2.334   2.206  12.595  0.2159 -0.1121 -0.4510
 4488TIP3    H134955   2.430   2.203  12.602  0.2388  0.0540 -0.6654
 4488TIP3    H234956   2.313   2.138  12.531  0.2020 -0.0581 -0.5035
 4489TIP3   OH234957   2.835   3.114  12.320  0.1315  0.4572 -0.2163
 4489TIP3    H134958   2.924   3.144  12.303 -0.3477  2.5255  0.6364
 4489TIP3    H234959   2.841   3.068  12.403  0.1116  2.2689  0.8257
 4490TIP3   OH234960   3.834   1.359  11.447 -0.2940 -0.1899  0.2687
 4490TIP3    H134961   3.842   1.412  11.367  1.0052 -1.2709 -0.3519
 4490TIP3    H234962   3.909   1.385  11.501 -0.1119 -0.7847  0.3128
 4491TIP3   OH234963   3.354   3.661   0.798 -0.4971  0.0679 -0.0538
 4491TIP3    H134964   3.364   3.689   0.889  0.0300  2.7647 -0.8482
 4491TIP3    H234965   3.259   3.649   0.787 -0.8854  2.3241  0.2426
 4492TIP3   OH234966   2.942   4.098   1.054 -0.1764  0.2387 -0.2649
 4492TIP3    H134967   2.868   4.158   1.065  1.8025  3.1697 -1.7598
 4492TIP3    H234968   2.906   4.025   1.003 -2.3454  0.8130  0.3335
 4493TIP3   OH234969   3.632   6.803  14.180  0.0148  1.0127 -0.1603
 4493TIP3    H134970   3.568   6.823  14.249 -0.4567  1.5208 -0.7353
 4493TIP3    H234971   3.618   6.710  14.162 -0.5914  1.1254 -0.2997
 4494TIP3   OH234972   1.975   2.876  10.711  0.1239 -0.4562  0.0010
 4494TIP3    H134973   1.982   2.951  10.771  1.2383 -0.8210  0.3476
 4494TIP3    H234974   1.901   2.826  10.743 -1.1409  0.8853 -0.6915
 4495TIP3   OH234975   6.579   3.186  10.691 -0.3826 -0.5592 -0.2881
 4495TIP3    H134976   6.601   3.134  10.768  0.3999 -0.2264 -0.2782
 4495TIP3    H234977   6.575   3.122  10.619 -0.7928 -0.8225 -0.0361
 4496TIP3   OH234978   6.795   0.667  13.263 -0.0999  0.3108  0.0091
 4496TIP3    H134979   6.757   0.600  13.207  1.2494  0.4731 -1.1658
 4496TIP3    H234980   6.739   0.744  13.250 -2.0782 -0.7064  1.9088
 4497TIP3   OH234981   5.121   0.398   9.291  0.0756  0.1735  0.1363
 4497TIP3    H134982   5.076   0.314   9.296  0.7168 -0.1007  2.5143
 4497TIP3    H234983   5.210   0.376   9.265  0.2801  0.0968  0.8965
 4498TIP3   OH234984   0.502   0.573  11.489  0.4631  0.2037 -0.5521
 4498TIP3    H134985   0.462   0.503  11.540 -2.5137  2.7079  0.8789
 4498TIP3    H234986   0.588   0.586  11.528 -1.0958  0.9750  2.9724
 4499TIP3   OH234987   0.558   6.107   0.924 -0.2911 -0.1244  0.0436
 4499TIP3    H134988   0.639   6.158   0.922 -0.6771  0.4775 -0.9252
 4499TIP3    H234989   0.578   6.027   0.876 -0.6049  0.5808 -1.3208
 4500TIP3   OH234990   6.228   6.737   9.944 -0.3808  0.0076 -0.2151
 4500TIP3    H134991   6.145   6.693   9.964  0.8029 -2.0064  0.5848
 4500TIP3    H234992   6.272   6.678   9.883  0.7177  0.7538 -0.1744
 4501TIP3   OH234993   0.416   5.261  13.541 -0.1032 -0.2281 -0.0401
 4501TIP3    H134994   0.351   5.273  13.610 -0.6063  1.5748 -0.7436
 4501TIP3    H234995   0.383   5.315  13.468  0.4919 -1.9048 -1.6307
 4502TIP3   OH234996   7.004   4.546   9.457  0.0473 -0.1113  0.0122
 4502TIP3    H134997   7.077   4.577   9.403  0.3404 -2.4781 -1.0726
 4502TIP3    H234998   7.001   4.608   9.530  1.6625  1.3763 -1.0763
 4503TIP3   OH234999   2.077   3.423  13.602 -0.2615 -0.0298  0.4744
 4503TIP3    H135000   2.117   3.407  13.516  1.6468 -0.5879  1.4257
 4503TIP3    H235001   2.129   3.372  13.663 -0.7529  1.3991  2.1691
 4504TIP3   OH235002   4.738   2.329  10.171  0.3161  0.2878  0.1095
 4504TIP3    H135003   4.679   2.313  10.097  0.1154  1.9796 -0.1177
 4504TIP3    H235004   4.680   2.346  10.245  0.5111 -1.6447  0.7773
 4505TIP3   OH235005   2.385   6.275  14.725 -0.1534 -0.4922  0.0030
 4505TIP3    H135006   2.443   6.349  14.743 -1.1629  0.5953 -1.0123
 4505TIP3    H235007   2.389   6.264  14.630  0.3548 -2.0829  0.1818
 4506TIP3   OH235008   3.454   4.594   2.601  0.1263  0.9418  0.0175
 4506TIP3    H135009   3.412   4.583   2.515  1.1786  0.4756 -0.4546
 4506TIP3    H235010   3.388   4.565   2.664  0.1851 -1.0521 -0.7804
 4507TIP3   OH235011   1.952   0.954  14.391 -0.3904 -0.2137  0.0655
 4507TIP3    H135012   1.861   0.949  14.363 -0.0896  1.1908 -1.3504
 4507TIP3    H235013   2.001   0.910  14.322  0.0729 -0.1515  0.3502
 4508TIP3   OH235014   3.249   3.135  11.206 -0.0926 -0.0684 -0.5870
 4508TIP3    H135015   3.183   3.130  11.274  0.8878 -1.3077  0.3139
 4508TIP3    H235016   3.199   3.138  11.124 -1.2730 -1.4422  0.0369
 4509TIP3   OH235017   5.662   4.206  10.503 -0.5648 -0.2941  0.7919
 4509TIP3    H135018   5.621   4.230  10.419  0.6359 -0.4416  0.1485
 4509TIP3    H235019   5.669   4.111  10.500 -0.9650 -0.3440  1.2871
 4510TIP3   OH235020   4.559   0.603   2.051 -0.1571  0.5472  0.3654
 4510TIP3    H135021   4.472   0.575   2.081 -0.2248 -0.4787 -0.7185
 4510TIP3    H235022   4.612   0.523   2.054  0.4478  0.9242 -0.0526
 4511TIP3   OH235023   5.103   0.256  14.465 -0.4286  0.2894 -0.0545
 4511TIP3    H135024   5.064   0.327  14.517 -0.2350 -0.1727  0.7365
 4511TIP3    H235025   5.163   0.301  14.406  1.9175  0.6244  2.3964
 4512TIP3   OH235026   1.754   1.145   1.332  0.4251  0.0349 -0.1595
 4512TIP3    H135027   1.702   1.224   1.343 -0.4814 -0.6201  0.4316
 4512TIP3    H235028   1.827   1.155   1.394 -0.7644 -0.4380  1.3853
 4513TIP3   OH235029   2.528   0.156   1.201  0.6159  0.2983 -0.6050
 4513TIP3    H135030   2.537   0.251   1.206  1.2842  0.2732 -1.1365
 4513TIP3    H235031   2.617   0.123   1.215  0.2898 -0.2775  0.1580
 4514TIP3   OH235032   5.915   5.389  14.665  0.2338 -0.0598  0.4701
 4514TIP3    H135033   5.885   5.480  14.673  0.6742  0.1918 -0.6084
 4514TIP3    H235034   5.838   5.336  14.688  0.2392  0.5751  2.0271
 4515TIP3   OH235035   2.016   1.805  13.462 -0.0050  0.7201 -0.1200
 4515TIP3    H135036   1.977   1.739  13.518  0.4477  0.4600 -0.1064
 4515TIP3    H235037   2.048   1.872  13.523  3.2034 -0.9625  0.2342
 4516TIP3   OH235038   3.615   1.760  10.975  0.1866 -0.2921 -0.0309
 4516TIP3    H135039   3.657   1.846  10.983  0.8744 -0.5510 -0.7467
 4516TIP3    H235040   3.537   1.775  10.922 -0.2225  0.0550  0.6561
 4517TIP3   OH235041   1.733   4.916  14.538  0.2669 -0.3150 -0.1806
 4517TIP3    H135042   1.719   4.822  14.529 -0.2140 -0.4418  1.6433
 4517TIP3    H235043   1.747   4.930  14.631  0.6400  1.3999 -0.4588
 4518TIP3   OH235044   2.230   0.315  12.517  0.9700 -0.1848 -0.4054
 4518TIP3    H135045   2.219   0.285  12.427  1.2657  1.8155 -1.1659
 4518TIP3    H235046   2.261   0.405  12.509  0.4054  0.2689  1.7056
 4519TIP3   OH235047   5.094   4.186  13.245  0.5505 -0.6427  0.3078
 4519TIP3    H135048   5.070   4.099  13.211  0.2173  0.0244 -1.2703
 4519TIP3    H235049   5.012   4.234  13.247  0.9327  0.0462 -0.1460
 4520TIP3   OH235050   0.746   6.544  13.927 -0.1270 -0.3804  0.3109
 4520TIP3    H135051   0.700   6.578  14.004 -1.4204  0.9782 -0.9895
 4520TIP3    H235052   0.693   6.470  13.898  1.1547 -1.8371  1.5049
 4521TIP3   OH235053   5.254   3.806  11.728 -0.5549 -0.0731 -0.3817
 4521TIP3    H135054   5.282   3.790  11.818 -1.1777 -0.2984 -0.2204
 4521TIP3    H235055   5.158   3.810  11.733 -0.5375  1.3300 -0.7986
 4522TIP3   OH235056   3.744   2.984  11.483 -0.7689  0.3433  0.5530
 4522TIP3    H135057   3.685   2.909  11.474  2.0794 -2.1135  0.3901
 4522TIP3    H235058   3.688   3.057  11.505 -4.1014 -1.2148 -1.9393
 4523TIP3   OH235059   5.497   6.400   3.971 -0.2183  0.3608  0.4175
 4523TIP3    H135060   5.411   6.399   4.013 -0.6979  1.4261 -0.4849
 4523TIP3    H235061   5.532   6.487   3.989  0.7721 -0.1221  0.9269
 4524TIP3   OH235062   4.978   2.456   9.585  0.2964 -0.2246  0.0740
 4524TIP3    H135063   5.012   2.485   9.500 -2.0236  0.8482 -0.5787
 4524TIP3    H235064   4.978   2.536   9.638  0.1890 -0.5176  0.5134
 4525TIP3   OH235065   5.346   2.373   9.745 -0.6584  0.1326 -0.2182
 4525TIP3    H135066   5.284   2.446   9.748 -1.1913 -0.2991 -0.5344
 4525TIP3    H235067   5.421   2.407   9.697 -1.7754 -0.1543 -2.2708
 4526TIP3   OH235068   0.563   1.242  11.231 -0.2966  0.6074 -0.1400
 4526TIP3    H135069   0.528   1.298  11.161 -0.3147 -0.2078 -0.7909
 4526TIP3    H235070   0.577   1.302  11.304 -0.3564  1.4639 -0.8128
 4527TIP3   OH235071   3.080   6.180  11.929 -0.3081 -0.3365  0.4164
 4527TIP3    H135072   3.078   6.201  12.023  0.4062 -1.0321  0.6074
 4527TIP3    H235073   3.146   6.240  11.893  0.7281 -1.2516  0.7091
 4528TIP3   OH235074   3.995   4.735  13.081  0.2776 -0.1855 -0.2700
 4528TIP3    H135075   3.916   4.784  13.057 -0.7240 -1.9529 -0.7853
 4528TIP3    H235076   4.067   4.786  13.045 -0.5485  1.8067  0.7540
 4529TIP3   OH235077   5.684   2.336  11.021  0.4039  0.0873 -0.5140
 4529TIP3    H135078   5.768   2.373  11.050 -0.5551  1.2135  1.0468
 4529TIP3    H235079   5.667   2.265  11.083 -0.2814  0.5699 -0.1337
 4530TIP3   OH235080   0.611   2.466  11.914  0.6318 -0.1910 -0.1869
 4530TIP3    H135081   0.643   2.460  12.004 -2.0024 -0.0474  0.8466
 4530TIP3    H235082   0.639   2.553  11.884 -1.1352  1.0995  1.6683
 4531TIP3   OH235083   6.302   2.384  13.107 -0.1203 -0.0923 -0.0120
 4531TIP3    H135084   6.337   2.448  13.046  1.3108  0.4975  1.3680
 4531TIP3    H235085   6.379   2.346  13.149 -1.0535 -0.4919  1.3983
 4532TIP3   OH235086   6.794   3.149  14.205  0.2180 -0.5242  0.0355
 4532TIP3    H135087   6.852   3.217  14.239  0.2100  0.0970 -1.1345
 4532TIP3    H235088   6.827   3.067  14.242  1.1585 -0.0505  0.2635
 4533TIP3   OH235089   1.490   2.291  12.171 -0.2505 -0.0406  0.3862
 4533TIP3    H135090   1.557   2.314  12.236 -1.7981  2.1207  1.3420
 4533TIP3    H235091   1.437   2.224  12.215  0.4257 -0.7621  0.1450
 4534TIP3   OH235092   6.223   2.239  11.492 -0.0261 -0.5846 -0.6547
 4534TIP3    H135093   6.161   2.213  11.424  0.7431 -0.2638 -1.4914
 4534TIP3    H235094   6.278   2.305  11.451 -1.5004  1.9604  1.2071
 4535TIP3   OH235095   5.552   0.006  14.954 -0.5577 -0.3011  0.1492
 4535TIP3    H135096   5.459  -0.015  14.962 -0.1945 -1.6138  1.4665
 4535TIP3    H235097   5.558   0.060  14.875 -2.4134 -0.2676 -0.0113
 4536TIP3   OH235098   0.138   0.604  15.205  0.1930  0.0269  0.0417
 4536TIP3    H135099   0.194   0.565  15.273  1.1173 -2.6998 -2.0909
 4536TIP3    H235100   0.078   0.533  15.181 -1.5825  1.6410 -0.5112
 4537TIP3   OH235101   5.512   6.943   0.016  0.1073 -0.2977  0.8104
 4537TIP3    H135102   5.456   6.866   0.003 -0.0872 -0.5082  2.5818
 4537TIP3    H235103   5.579   6.936  -0.052 -0.7552 -1.2306  0.0266
 4538TIP3   OH235104   2.584   3.650  12.607 -0.4425 -0.3767  0.8127
 4538TIP3    H135105   2.529   3.613  12.676 -2.7148 -0.7751 -1.0603
 4538TIP3    H235106   2.606   3.738  12.638 -1.1714 -0.6423  2.1537
 4539TIP3   OH235107   1.021   1.631  11.819  0.4173  0.4750 -0.2484
 4539TIP3    H135108   0.989   1.667  11.901 -1.0753 -0.9749 -0.1212
 4539TIP3    H235109   1.091   1.690  11.791  0.7618  1.1449  1.9012
 4540TIP3   OH235110   4.191   4.391  15.321 -0.5592  0.4714  0.2602
 4540TIP3    H135111   4.269   4.338  15.306  1.5317  3.2811  0.5272
 4540TIP3    H235112   4.123   4.349  15.268  1.4681 -1.2906 -1.0931
 4541TIP3   OH235113   4.965   0.944  12.592 -0.3739  0.1175 -0.5820
 4541TIP3    H135114   4.929   0.876  12.535  0.6218 -0.2046 -0.8534
 4541TIP3    H235115   4.994   1.012  12.532  2.1528 -0.9100 -0.6618
 4542TIP3   OH235116   4.516   1.995  14.584  0.0111 -0.3649 -0.0422
 4542TIP3    H135117   4.589   1.962  14.531  0.6073  0.9428 -0.0767
 4542TIP3    H235118   4.528   1.955  14.670  1.4927  0.7732  0.3127
 4543TIP3   OH235119   4.198   6.987  12.657  0.1359 -0.3066  0.4357
 4543TIP3    H135120   4.178   6.895  12.672  0.4966 -0.2713  1.1368
 4543TIP3    H235121   4.185   7.029  12.742  1.8508 -0.0446  0.6005
 4544TIP3   OH235122   5.276   1.351  11.510  0.1042  0.1115  0.1828
 4544TIP3    H135123   5.268   1.347  11.414 -2.3329  0.6556  0.3080
 4544TIP3    H235124   5.191   1.384  11.540  0.3191 -1.3145  2.6402
 4545TIP3   OH235125   6.213   6.137  13.660  0.2085  0.5624  0.1710
 4545TIP3    H135126   6.285   6.179  13.707 -0.4703  2.1045 -0.0821
 4545TIP3    H235127   6.223   6.167  13.570 -0.1260 -0.0893 -0.0898
 4546TIP3   OH235128   3.473   1.313  15.131  0.0477 -0.7756  0.4709
 4546TIP3    H135129   3.420   1.378  15.177 -0.2505 -1.3519  0.9519
 4546TIP3    H235130   3.504   1.359  15.053  0.2589  0.0956  1.0555
 4547TIP3   OH235131   2.618   5.683  13.524 -0.0486  0.2585  0.2300
 4547TIP3    H135132   2.685   5.690  13.592 -0.4254  1.1486  0.5257
 4547TIP3    H235133   2.560   5.757  13.541 -1.0468 -0.4380 -0.0887
 4548TIP3   OH235134   6.686   4.114   4.432 -0.1384 -0.1780 -0.2411
 4548TIP3    H135135   6.751   4.063   4.383 -0.7726 -1.0883 -0.1638
 4548TIP3    H235136   6.658   4.055   4.502 -1.1938  0.1224 -0.3955
 4549TIP3   OH235137   2.647   2.012   0.197  0.2120  0.5446  0.1781
 4549TIP3    H135138   2.634   1.962   0.116 -0.0575 -0.9591  1.1139
 4549TIP3    H235139   2.668   2.101   0.167  0.5887 -0.0827 -1.5403
 4550TIP3   OH235140   5.421   2.119  10.861  0.2122  0.0811  0.3653
 4550TIP3    H135141   5.358   2.048  10.863  1.6398 -1.3297 -1.2460
 4550TIP3    H235142   5.477   2.104  10.938 -0.5503  0.5360  1.0227
 4551TIP3   OH235143   5.732   2.614  10.845 -0.5747 -0.8999 -0.3906
 4551TIP3    H135144   5.802   2.572  10.895  0.1324 -0.5226 -1.0405
 4551TIP3    H235145   5.771   2.632  10.759 -1.8257 -1.7679 -1.1947
 4552TIP3   OH235146   5.425   5.020  14.079  0.5755  0.4340 -0.6662
 4552TIP3    H135147   5.516   5.002  14.100  0.7058  0.0796 -1.5107
 4552TIP3    H235148   5.404   5.099  14.128  0.6930 -0.6658  1.2530
 4553TIP3   OH235149   0.884   1.115   0.081 -0.1214 -0.1633  0.6886
 4553TIP3    H135150   0.977   1.120   0.102 -0.3100 -0.5493  1.6632
 4553TIP3    H235151   0.853   1.037   0.128 -0.9573  0.0341  0.4807
 4554TIP3   OH235152   5.710   6.919  12.237 -0.3517 -0.4478  0.7897
 4554TIP3    H135153   5.727   6.830  12.207 -1.7411 -0.0903 -1.3356
 4554TIP3    H235154   5.631   6.913  12.290  0.2384 -0.6137  1.6765
 4555TIP3   OH235155   5.053   4.575  14.754 -0.7612  0.1515 -0.3299
 4555TIP3    H135156   5.121   4.641  14.760 -0.8004  0.2803 -1.1471
 4555TIP3    H235157   4.983   4.618  14.705 -1.2331 -0.1419  0.0743
 4556TIP3   OH235158   6.567   3.043  14.342 -0.1200 -0.2968 -0.1083
 4556TIP3    H135159   6.580   2.955  14.307 -0.3106 -0.0142 -0.9088
 4556TIP3    H235160   6.638   3.095  14.304 -0.6096  0.1207 -0.4608
 4557TIP3   OH235161   6.688   1.766  13.357  0.8237 -0.0148 -0.4117
 4557TIP3    H135162   6.698   1.856  13.388  2.8194  0.1616 -1.3907
 4557TIP3    H235163   6.615   1.731  13.407  0.3789  1.9688  0.4088
 4558TIP3   OH235164   4.524   1.583  13.662 -0.0319 -0.3734  0.1408
 4558TIP3    H135165   4.538   1.497  13.701 -0.5936 -0.8142 -0.5941
 4558TIP3    H235166   4.498   1.564  13.572 -4.0415  0.3322  0.9545
 4559TIP3   OH235167   1.682   6.768  11.734  0.3220 -0.3694  0.1382
 4559TIP3    H135168   1.732   6.723  11.666  0.4819 -1.5684  1.0282
 4559TIP3    H235169   1.636   6.698  11.781  0.9619  0.3266  1.8736
 4560TIP3   OH235170   2.079   4.384  11.227  0.3048 -0.7237  0.3745
 4560TIP3    H135171   1.989   4.369  11.196  0.2138  0.0098  0.2508
 4560TIP3    H235172   2.123   4.300  11.215  0.4381 -0.3711 -2.3693
 4561TIP3   OH235173   2.466   5.537  14.452  0.0414  0.3000 -0.4102
 4561TIP3    H135174   2.425   5.623  14.454  1.1493  0.8466 -0.3314
 4561TIP3    H235175   2.427   5.494  14.375 -0.5152  0.8663 -0.4565
 4562TIP3   OH235176   0.436   5.425  14.761 -0.3280 -0.6148  0.1277
 4562TIP3    H135177   0.528   5.402  14.750  1.0436  3.2305  1.8488
 4562TIP3    H235178   0.426   5.509  14.716 -2.8867 -0.6685  0.4315
 4563TIP3   OH235179   3.203   0.303   0.617  0.2826  0.0073  0.1407
 4563TIP3    H135180   3.121   0.280   0.662  0.6826  1.9947  2.0972
 4563TIP3    H235181   3.176   0.359   0.544 -0.1461  0.1510  0.4083
 4564TIP3   OH235182   2.011   3.066  12.361  0.0466 -0.1781 -0.3253
 4564TIP3    H135183   2.029   3.114  12.280  0.4542  1.4483  0.6562
 4564TIP3    H235184   1.960   3.128  12.414  0.7089 -0.7748  1.0564
 4565TIP3   OH235185   5.355   5.815   9.791 -0.0468 -0.6980  0.3248
 4565TIP3    H135186   5.426   5.757   9.763 -0.8286 -1.6690  0.3031
 4565TIP3    H235187   5.331   5.783   9.878  0.2635  0.3238  0.8026
 4566TIP3   OH235188   3.253   3.212  10.517  1.2312  0.0916 -0.0242
 4566TIP3    H135189   3.317   3.260  10.465  1.4844 -0.4051 -0.1803
 4566TIP3    H235190   3.267   3.242  10.607 -0.3340  2.2239 -0.3990
 4567TIP3   OH235191   6.343   2.480  11.063  0.4547  0.5299 -0.1961
 4567TIP3    H135192   6.266   2.517  11.021 -0.5155 -2.5705 -1.4558
 4567TIP3    H235193   6.309   2.414  11.124  2.0462 -0.0809  0.0998
 4568TIP3   OH235194   3.776   4.064  12.141  0.0847  0.1188 -0.2082
 4568TIP3    H135195   3.815   3.988  12.184 -0.6885 -0.5635 -0.6986
 4568TIP3    H235196   3.846   4.130  12.141  0.7176 -0.5449  0.3285
 4569TIP3   OH235197   2.617   3.689  10.962 -0.2197  0.0670 -0.3234
 4569TIP3    H135198   2.610   3.696  11.057 -1.3918  2.7242 -0.5404
 4569TIP3    H235199   2.695   3.635  10.948  0.2765  0.0429  2.1225
 4570TIP3   OH235200   6.239   1.256   0.495  0.4096 -0.1367 -0.4440
 4570TIP3    H135201   6.292   1.275   0.418 -2.2154  0.9897 -2.1006
 4570TIP3    H235202   6.167   1.318   0.491 -1.0039 -1.4915  1.7412
 4571TIP3   OH235203   0.447   2.652  13.906  0.2343 -0.2590  0.3808
 4571TIP3    H135204   0.372   2.711  13.913  0.4223 -0.0455  0.5997
 4571TIP3    H235205   0.471   2.654  13.814  0.1495 -0.1103  0.3628
 4572TIP3   OH235206   1.777   3.718   2.402 -1.0326  0.5798  0.2225
 4572TIP3    H135207   1.776   3.813   2.397 -2.0896  0.6129  0.7547
 4572TIP3    H235208   1.728   3.689   2.325  0.7132  0.3860 -0.8667
 4573TIP3   OH235209   2.220   2.422   9.341  0.6718 -0.4935  0.5374
 4573TIP3    H135210   2.188   2.504   9.305  2.8257  0.5433  0.8248
 4573TIP3    H235211   2.158   2.400   9.411 -0.8253 -0.0012 -0.5829
 4574TIP3   OH235212   2.610   2.924   4.281 -0.4154  0.7458 -0.2936
 4574TIP3    H135213   2.661   3.000   4.255 -1.5660  1.4982 -0.4314
 4574TIP3    H235214   2.616   2.922   4.377  0.7798  0.1547 -0.3650
 4575TIP3   OH235215   5.991   2.390  10.484  0.3676 -0.3011  0.3165
 4575TIP3    H135216   5.935   2.421  10.556 -1.1269 -0.9477 -0.5253
 4575TIP3    H235217   5.944   2.315  10.448  1.1507 -0.0773 -1.2514
 4576TIP3   OH235218   5.095   5.093  15.217 -0.3019 -0.0039 -0.6067
 4576TIP3    H135219   5.149   5.152  15.270  1.1027 -0.4047 -1.5455
 4576TIP3    H235220   5.101   5.008  15.262 -1.0484  0.1996 -0.1150
 4577TIP3   OH235221   4.636   1.713  10.538  0.9904 -0.2878  0.0244
 4577TIP3    H135222   4.669   1.645  10.479  0.8745  0.5782 -1.0607
 4577TIP3    H235223   4.672   1.795  10.504 -2.3048  0.7779 -1.3804
 4578TIP3   OH235224   4.755   3.473  12.679  0.1345 -0.1653  0.1613
 4578TIP3    H135225   4.711   3.456  12.595 -1.2696  3.8695 -0.1537
 4578TIP3    H235226   4.808   3.395  12.694 -0.6448 -1.7133 -3.7508
 4579TIP3   OH235227   1.911   1.548  12.480 -0.2987  0.6394 -0.1246
 4579TIP3    H135228   1.966   1.470  12.480 -0.3731  0.4199 -4.2086
 4579TIP3    H235229   1.822   1.514  12.475 -0.4445  1.0213 -0.1501
 4580TIP3   OH235230   1.893   0.654  14.965  0.3244 -0.0914 -0.1414
 4580TIP3    H135231   1.826   0.704  15.012  1.8660 -0.0509  2.1931
 4580TIP3    H235232   1.972   0.708  14.971  0.7128 -0.2498 -2.5988
 4581TIP3   OH235233   2.822   6.204  10.592  0.0627  0.1835 -0.1618
 4581TIP3    H135234   2.882   6.278  10.603 -0.0626  0.7263 -2.4337
 4581TIP3    H235235   2.739   6.245  10.568 -0.3491 -0.6643 -0.2086
 4582TIP3   OH235236   6.498   6.430  12.576  0.6678  0.0546 -0.7832
 4582TIP3    H135237   6.522   6.400  12.488  1.0618  2.1331 -1.4323
 4582TIP3    H235238   6.474   6.522  12.564  1.6300  0.6524  1.4319
 4583TIP3   OH235239   2.881   2.548  12.637 -0.5756  0.3046 -0.4696
 4583TIP3    H135240   2.914   2.503  12.715 -1.4557  3.3668  1.9058
 4583TIP3    H235241   2.958   2.593  12.602 -0.7674  1.8266  0.9077
 4584TIP3   OH235242   6.300   5.686  13.686 -0.0730 -0.1113 -0.0971
 4584TIP3    H135243   6.296   5.767  13.736 -0.6572  0.9378 -1.7770
 4584TIP3    H235244   6.388   5.652  13.701  0.8980  1.9115 -1.0076
 4585TIP3   OH235245   5.689   5.305  13.404 -0.4941  0.2853 -0.1884
 4585TIP3    H135246   5.634   5.235  13.370 -2.0035  0.2021  2.1930
 4585TIP3    H235247   5.768   5.260  13.435  0.9215  0.3645 -3.2855
 4586TIP3   OH235248   5.217   3.428   2.779 -0.3439 -0.0171  0.3382
 4586TIP3    H135249   5.151   3.365   2.749  0.5215 -1.0701  0.5553
 4586TIP3    H235250   5.180   3.465   2.859 -0.5842 -0.7651  0.5868
 4587TIP3   OH235251   3.001   4.437  13.067  0.2722 -0.1021  0.0349
 4587TIP3    H135252   3.032   4.526  13.084 -0.2895 -0.0119  0.6056
 4587TIP3    H235253   2.977   4.437  12.974 -4.1796  1.7825  0.9298
 4588TIP3   OH235254   0.831   0.447  11.862 -0.0190 -0.5821  0.2490
 4588TIP3    H135255   0.814   0.370  11.917  0.3651 -0.1088  1.0451
 4588TIP3    H235256   0.926   0.450  11.854 -0.0840 -1.0339 -1.0331
 4589TIP3   OH235257   1.679   5.749   1.259  0.0802  0.2661 -0.2382
 4589TIP3    H135258   1.699   5.708   1.175  1.0269  2.2428 -1.0492
 4589TIP3    H235259   1.637   5.832   1.236 -2.2252 -0.3411  1.3357
 4590TIP3   OH235260   5.486   4.553  13.525  0.6358 -0.3320 -0.1339
 4590TIP3    H135261   5.576   4.561  13.555  0.4918  1.4582 -0.0635
 4590TIP3    H235262   5.486   4.593  13.438  0.2246 -1.8152 -0.8543
 4591TIP3   OH235263   3.463   2.155  10.715  0.1737 -0.5945 -0.3026
 4591TIP3    H135264   3.502   2.131  10.799  0.9122 -1.0365 -0.7602
 4591TIP3    H235265   3.410   2.080  10.690 -0.6618 -0.1599  0.1191
 4592TIP3   OH235266   4.632   2.347   1.450 -0.6097  0.0124  0.0507
 4592TIP3    H135267   4.720   2.370   1.478 -0.3547 -0.9472  0.0479
 4592TIP3    H235268   4.576   2.413   1.490  0.2876  1.8646 -1.5634
 4593TIP3   OH235269   1.934   0.346  12.929 -0.1401  0.4878 -0.0123
 4593TIP3    H135270   1.974   0.353  12.842  0.9742  0.8145  0.5013
 4593TIP3    H235271   2.008   0.350  12.989 -0.9226  0.5547  0.9683
 4594TIP3   OH235272   3.079   6.720   0.988  0.1169  0.6502 -0.1049
 4594TIP3    H135273   3.099   6.796   0.933 -0.9984 -0.9988 -3.0206
 4594TIP3    H235274   3.030   6.755   1.062  1.9583  3.0313  0.1037
 4595TIP3   OH235275   4.811   1.851  14.281 -0.2904 -0.1553  0.0681
 4595TIP3    H135276   4.830   1.854  14.188 -0.3893 -0.6461  0.0274
 4595TIP3    H235277   4.882   1.901  14.322  0.0407 -0.3769 -0.2267
 4596TIP3   OH235278   7.160   4.149  11.622  0.2793 -0.2811  0.3936
 4596TIP3    H135279   7.167   4.055  11.639 -2.8106 -0.5859  0.6370
 4596TIP3    H235280   7.123   4.155  11.534  1.1312  0.7449  0.0903
 4597TIP3   OH235281   3.635   3.298  10.096  0.2762  0.0993  0.8020
 4597TIP3    H135282   3.710   3.358  10.096 -0.0014  0.4567  0.0204
 4597TIP3    H235283   3.658   3.231  10.033 -0.0071  0.1403  0.6539
 4598TIP3   OH235284   5.441   2.658  10.565 -0.2597  0.1988 -0.0113
 4598TIP3    H135285   5.503   2.648  10.637  0.2357 -0.1362 -0.4782
 4598TIP3    H235286   5.490   2.633  10.487 -1.0272 -0.2028 -0.3753
 4599TIP3   OH235287   0.177   6.624   4.054  0.0682 -0.0289 -0.1120
 4599TIP3    H135288   0.168   6.528   4.052  0.5025 -0.1024  0.7526
 4599TIP3    H235289   0.236   6.644   3.982 -0.4442 -0.3517 -0.6369
 4600TIP3   OH235290   1.558   2.030  10.238  0.2125  0.2906  0.0865
 4600TIP3    H135291   1.608   2.111  10.251 -0.2663  1.1399 -2.6761
 4600TIP3    H235292   1.623   1.965  10.214  0.5477 -0.0837  1.8785
 4601TIP3   OH235293   1.352   6.782   5.002  0.8243 -0.6442 -0.0655
 4601TIP3    H135294   1.363   6.815   5.091  0.2271  0.5783 -0.4199
 4601TIP3    H235295   1.296   6.847   4.960 -0.8626 -2.3830 -0.6480
 4602TIP3   OH235296   4.901   2.196  13.920 -0.0158 -0.2468 -0.1862
 4602TIP3    H135297   4.889   2.199  14.015  0.3645 -0.1325 -0.1419
 4602TIP3    H235298   4.986   2.236  13.905  0.6792 -1.7408 -0.4309
 4603TIP3   OH235299   4.649   3.963  14.658  0.6783  0.2570 -0.0422
 4603TIP3    H135300   4.606   4.018  14.723  0.2838 -1.7892  1.5244
 4603TIP3    H235301   4.715   4.020  14.619 -0.5643  2.2084  0.5336
 4604TIP3   OH235302   3.897   3.520   9.826  0.0223 -0.0913 -0.3829
 4604TIP3    H135303   3.906   3.578   9.751 -1.2464 -2.2484 -2.3468
 4604TIP3    H235304   3.868   3.437   9.789  0.7130 -1.7093  2.3655
 4605TIP3   OH235305   6.235   1.497  13.950 -0.5113 -0.2299  0.1221
 4605TIP3    H135306   6.322   1.485  13.988 -0.8188  1.3905  1.4696
 4605TIP3    H235307   6.214   1.413  13.910  0.7377 -1.3817  1.7475
 4606TIP3   OH235308   4.026   6.662  12.231 -0.3650  0.5094  0.0200
 4606TIP3    H135309   4.019   6.735  12.292 -2.5720  1.5582 -1.3594
 4606TIP3    H235310   4.020   6.702  12.144 -0.1508 -1.1764 -0.8168
 4607TIP3   OH235311   5.900   3.200  13.954 -0.7278  0.6703  0.2716
 4607TIP3    H135312   5.877   3.234  14.040  1.3442  2.9092  0.0517
 4607TIP3    H235313   5.994   3.181  13.960 -0.9425 -1.0795 -0.9421
 4608TIP3   OH235314   0.160   1.639  11.470 -0.0067 -0.5887 -0.2504
 4608TIP3    H135315   0.069   1.664  11.486  0.2687  0.9401 -0.8990
 4608TIP3    H235316   0.199   1.715  11.426  1.6468 -1.1169  0.2107
 4609TIP3   OH235317   4.312   6.596   1.702  0.2360 -0.4520  0.1322
 4609TIP3    H135318   4.349   6.528   1.759  1.6652  0.9107  0.9240
 4609TIP3    H235319   4.259   6.651   1.761 -0.2577 -0.4167 -0.3359
 4610TIP3   OH235320   0.037   1.656   0.518  0.5580  0.0106 -0.0375
 4610TIP3    H135321   0.102   1.726   0.529  0.6262 -0.0187 -0.2462
 4610TIP3    H235322  -0.027   1.672   0.587  0.7795  0.0491  0.1629
 4611TIP3   OH235323   0.906   6.859  10.690 -0.1233 -0.3392 -0.5010
 4611TIP3    H135324   0.836   6.904  10.736 -0.1594 -0.6452 -0.2566
 4611TIP3    H235325   0.966   6.929  10.663  0.5050 -0.2591  1.0223
 4612TIP3   OH235326   6.559   5.249  13.084 -0.2951  0.1729 -0.4311
 4612TIP3    H135327   6.521   5.287  13.005  1.5933  0.5548 -1.2128
 4612TIP3    H235328   6.527   5.159  13.085 -2.3394  0.8625 -0.2303
 4613TIP3   OH235329   6.881   6.117  14.849  0.3447 -0.2193 -0.2614
 4613TIP3    H135330   6.866   6.063  14.926  0.5925  0.0400 -0.0252
 4613TIP3    H235331   6.875   6.057  14.775 -0.1330 -0.4242 -0.0552
 4614TIP3   OH235332   3.109   2.302  13.285 -0.4290 -0.1057 -0.1354
 4614TIP3    H135333   3.189   2.249  13.276 -0.3714 -0.1178  0.3689
 4614TIP3    H235334   3.052   2.248  13.340  0.1699  0.9119  1.5977
 4615TIP3   OH235335   0.277   0.311  12.266  0.1230 -0.9320  0.0263
 4615TIP3    H135336   0.215   0.382  12.280 -0.1909 -1.5401  1.9923
 4615TIP3    H235337   0.338   0.345  12.200 -1.2288  0.3486 -0.6020
 4616TIP3   OH235338   5.399   3.780  13.855  0.2313 -0.2745  0.7915
 4616TIP3    H135339   5.347   3.826  13.789  1.4622  1.0566  0.6998
 4616TIP3    H235340   5.445   3.849  13.902  0.1740 -1.2639  2.3821
 4617TIP3   OH235341   1.131   0.038  14.748 -0.6494  0.2283  0.1397
 4617TIP3    H135342   1.197   0.095  14.787 -1.4385  0.8206  0.6347
 4617TIP3    H235343   1.179  -0.041  14.723  0.4251  1.0107 -0.3554
 4618TIP3   OH235344   5.364   2.924  10.512 -0.0753 -0.1603 -0.1193
 4618TIP3    H135345   5.321   2.961  10.589  0.8701  0.8530 -0.0580
 4618TIP3    H235346   5.366   2.830  10.528 -1.1504 -0.0976  0.4344
 4619TIP3   OH235347   5.584   2.316  10.770 -0.1143 -0.3704  0.2154
 4619TIP3    H135348   5.512   2.260  10.798  1.0519 -2.3703 -0.6126
 4619TIP3    H235349   5.626   2.343  10.852 -0.3211 -1.2371  0.6185
 4620TIP3   OH235350   2.417   4.237  11.291 -0.3052  0.1867  0.4672
 4620TIP3    H135351   2.365   4.210  11.366  1.5004 -1.4810  1.2231
 4620TIP3    H235352   2.495   4.277  11.330 -0.1346  0.9019 -0.5765
 4621TIP3   OH235353   2.864   5.708  10.179  0.5064 -0.5875 -0.0896
 4621TIP3    H135354   2.923   5.769  10.134  1.9938 -0.3642  2.0119
 4621TIP3    H235355   2.882   5.722  10.272 -0.6075 -2.8141  0.5228
 4622TIP3   OH235356   4.940   1.412   3.042 -0.4049 -0.4196 -0.3693
 4622TIP3    H135357   4.898   1.384   3.123 -1.2654 -0.4647 -0.8232
 4622TIP3    H235358   5.001   1.342   3.020  0.1243 -0.2252  0.4411
 4623TIP3   OH235359   4.369   1.926  11.724 -0.5147 -0.4520 -0.0585
 4623TIP3    H135360   4.424   1.848  11.720 -0.4466 -0.4385  0.4960
 4623TIP3    H235361   4.320   1.917  11.806  0.7745  0.9015  0.9206
 4624TIP3   OH235362   4.701   2.943  11.631  0.2513  0.4745 -0.1171
 4624TIP3    H135363   4.686   3.029  11.592  0.9042  1.7241  2.2100
 4624TIP3    H235364   4.709   2.960  11.725  3.4400 -1.6813  0.1692
 4625TIP3   OH235365   5.973   4.777   2.843 -0.1986 -0.1670 -0.0854
 4625TIP3    H135366   5.887   4.777   2.884  0.0501 -1.3519  0.4635
 4625TIP3    H235367   6.033   4.745   2.910  0.4368 -0.7931 -0.9183
 4626TIP3   OH235368   3.240   4.510  11.893  0.0717 -0.1612 -0.2112
 4626TIP3    H135369   3.232   4.429  11.843 -1.6824 -0.6262  0.7386
 4626TIP3    H235370   3.320   4.551  11.860 -0.0376 -1.3319 -2.0558
 4627TIP3   OH235371   2.143   2.608  10.315 -0.0627  0.1646 -0.0763
 4627TIP3    H135372   2.167   2.534  10.371 -0.7228 -0.0258 -0.0432
 4627TIP3    H235373   2.152   2.685  10.371 -0.1312  0.0348  0.1119
 4628TIP3   OH235374   0.488   0.828  11.799  0.8353  0.4456 -0.2929
 4628TIP3    H135375   0.569   0.878  11.796  0.1704  1.5750 -0.1902
 4628TIP3    H235376   0.490   0.774  11.720  1.7871  0.2834 -0.1624
 4629TIP3   OH235377   6.286   4.695   3.863  0.1991  0.0861 -0.7636
 4629TIP3    H135378   6.297   4.603   3.840  3.5209 -0.5525  2.4588
 4629TIP3    H235379   6.223   4.728   3.799  0.2639 -3.8997 -3.2485
 4630TIP3   OH235380   5.969   4.062  13.405 -0.1297  0.0537 -1.0459
 4630TIP3    H135381   5.922   4.108  13.474 -1.7109  0.7596 -2.5339
 4630TIP3    H235382   6.013   4.131  13.356 -0.5446 -0.2441 -1.8543
 4631TIP3   OH235383   6.133   0.914   9.758 -0.0453  0.1033 -0.1821
 4631TIP3    H135384   6.221   0.902   9.795 -0.5293  0.6963  1.2230
 4631TIP3    H235385   6.116   1.007   9.768 -1.2865 -0.1967  0.6290
 4632TIP3   OH235386   4.102   5.090  15.005 -0.0125  0.4603  0.0342
 4632TIP3    H135387   4.073   5.171  14.961  0.8846  0.4963 -0.5175
 4632TIP3    H235388   4.118   5.116  15.095  1.5413  1.2226 -0.4369
 4633TIP3   OH235389   4.444   1.217  10.461  0.9787 -0.5685 -0.9003
 4633TIP3    H135390   4.443   1.300  10.509 -0.2097 -1.6574  1.1156
 4633TIP3    H235391   4.537   1.203  10.441  1.1506  1.4556 -1.7648
 4634TIP3   OH235392   7.201   6.959   1.833  0.1005 -0.2161 -0.0282
 4634TIP3    H135393   7.119   6.912   1.817  0.1970 -0.0357 -1.1796
 4634TIP3    H235394   7.174   7.050   1.848  0.0798 -0.1498 -0.4433
 4635TIP3   OH235395   0.647   7.085  10.963 -0.1583 -0.1273  0.3580
 4635TIP3    H135396   0.646   7.076  10.868  2.4764 -1.8020  0.3877
 4635TIP3    H235397   0.603   7.169  10.979 -2.1461 -0.5519 -2.1480
 4636TIP3   OH235398   7.203   0.667  13.073  0.0391 -0.4941  0.0896
 4636TIP3    H135399   7.168   0.674  13.162  0.7652  0.1412  0.3384
 4636TIP3    H235400   7.150   0.728  13.021 -0.3980 -0.8805  0.0734
 4637TIP3   OH235401   1.956   6.528  10.794  0.0386  0.0938 -0.1369
 4637TIP3    H135402   2.013   6.559  10.723  1.0987 -1.5997 -0.0924
 4637TIP3    H235403   2.000   6.558  10.874  0.2747 -0.2522 -0.1341
 4638TIP3   OH235404   2.155   5.202  11.463  0.0400  0.0830 -0.8023
 4638TIP3    H135405   2.249   5.205  11.447  0.0507  0.0962 -0.7351
 4638TIP3    H235406   2.139   5.112  11.492  0.0777  0.1675 -0.5178
 4639TIP3   OH235407   3.396   3.149  13.463 -0.2340 -0.4291 -0.2137
 4639TIP3    H135408   3.359   3.111  13.543  1.5534  1.2328  1.4970
 4639TIP3    H235409   3.427   3.073  13.413  0.4598 -1.4425  1.6480
 4640TIP3   OH235410   3.166   2.902  10.295  0.2888 -0.2558 -0.0894
 4640TIP3    H135411   3.209   2.876  10.376 -0.1277  0.1633  0.2760
 4640TIP3    H235412   3.229   2.958  10.250  0.3431 -0.1085  0.1703
 4641TIP3   OH235413   3.327   2.268  15.256  0.4099  0.1240  0.0496
 4641TIP3    H135414   3.422   2.267  15.248  0.2498 -0.3977 -2.5713
 4641TIP3    H235415   3.297   2.206  15.190 -1.7830  0.6332  0.4977
 4642TIP3   OH235416   6.783   1.643   0.781  0.1120 -0.0020 -0.2358
 4642TIP3    H135417   6.801   1.737   0.783  0.9768 -0.0893  3.5540
 4642TIP3    H235418   6.691   1.635   0.805  0.1887 -0.1345  0.0205
 4643TIP3   OH235419   6.433   0.172  12.220 -0.8533 -0.6829 -0.1390
 4643TIP3    H135420   6.383   0.192  12.299 -0.5286 -0.4900  0.0195
 4643TIP3    H235421   6.523   0.162  12.250 -0.6018  0.1156 -0.5809
 4644TIP3   OH235422   0.336   1.784  10.447  0.3502 -0.5941  0.0584
 4644TIP3    H135423   0.349   1.873  10.415  2.5580 -0.8709  0.0716
 4644TIP3    H235424   0.360   1.728  10.373 -0.1350 -1.2091  0.3543
 4645TIP3   OH235425   2.487   4.713   2.284 -0.2739 -0.5317  0.0369
 4645TIP3    H135426   2.433   4.652   2.335 -0.8885  0.9021  1.1867
 4645TIP3    H235427   2.547   4.657   2.234  0.9766 -2.0534  2.9998
 4646TIP3   OH235428   4.069   4.763   0.362 -0.4328  0.5862  0.3851
 4646TIP3    H135429   4.108   4.749   0.277  1.2879  0.1050  1.2188
 4646TIP3    H235430   3.982   4.799   0.343  0.0427  0.8041 -1.5388
 4647TIP3   OH235431   5.300   4.831   1.074 -0.0195  0.4173 -0.3157
 4647TIP3    H135432   5.284   4.743   1.041 -1.1816 -0.2693  1.9069
 4647TIP3    H235433   5.222   4.880   1.050 -1.0307 -0.1772  1.5467
 4648TIP3   OH235434   5.994   4.580  12.043  0.4561 -0.0184  0.9304
 4648TIP3    H135435   6.062   4.627  12.093  2.0882 -1.8001  0.5201
 4648TIP3    H235436   6.005   4.610  11.953  0.4559 -0.0332  0.9255
 4649TIP3   OH235437   2.408   5.261  14.651  0.3535 -0.2680 -0.0682
 4649TIP3    H135438   2.347   5.288  14.582 -1.4170  0.5724  1.7398
 4649TIP3    H235439   2.359   5.197  14.702  1.9199 -1.4661  0.0015
 4650TIP3   OH235440   4.729   2.613  13.101  0.6055 -0.0639 -0.5538
 4650TIP3    H135441   4.747   2.603  13.194 -0.0486  2.4928 -0.0701
 4650TIP3    H235442   4.813   2.598  13.058  1.8613  2.4622  0.8226
 4651TIP3   OH235443   0.060   0.002  10.965  0.4958 -0.5533  0.3034
 4651TIP3    H135444   0.040   0.057  10.889  1.0578 -0.5573  0.1505
 4651TIP3    H235445   0.015  -0.080  10.948  0.2035 -0.3749  0.2124
 4652TIP3   OH235446   6.559   0.106  11.862  0.7291 -0.2420  0.8723
 4652TIP3    H135447   6.615   0.060  11.926  0.3375  2.7251  3.6057
 4652TIP3    H235448   6.470   0.095  11.896  0.2399 -0.3999 -0.4202
 4653TIP3   OH235449   4.259   1.484  11.567  0.1543  0.0963 -0.7513
 4653TIP3    H135450   4.322   1.433  11.617  2.4560  1.6088 -1.9376
 4653TIP3    H235451   4.305   1.507  11.487 -0.8270  3.7531 -0.4286
 4654TIP3   OH235452   2.044   1.841  10.345 -0.2855 -0.4391 -0.5747
 4654TIP3    H135453   2.086   1.787  10.412 -0.2237  2.0100  1.5259
 4654TIP3    H235454   2.117   1.879  10.296 -0.2946 -1.2193 -1.2118
 4655TIP3   OH235455   6.980   4.581   3.011 -0.0241  0.4783  0.0363
 4655TIP3    H135456   6.908   4.566   2.950 -0.3939 -0.5611  0.7007
 4655TIP3    H235457   6.946   4.551   3.096  1.0971  0.2322  0.4191
 4656TIP3   OH235458   1.555   4.350  12.562  0.4657 -0.2240  0.6492
 4656TIP3    H135459   1.582   4.309  12.644  0.4225 -2.3472 -0.3266
 4656TIP3    H235460   1.460   4.346  12.563  0.4665 -2.1457 -0.3001
 4657TIP3   OH235461   3.127   5.642  10.681 -1.0851  0.4039 -0.2885
 4657TIP3    H135462   3.104   5.559  10.639 -0.5676 -0.5866  1.2994
 4657TIP3    H235463   3.218   5.658  10.657 -0.2880 -0.9562  1.5813
 4658TIP3   OH235464   7.202   3.056  12.502  0.1556 -0.8311  0.1168
 4658TIP3    H135465   7.197   3.025  12.593  2.1053 -0.1914  0.4785
 4658TIP3    H235466   7.247   3.140  12.507  0.2013 -0.7330 -1.4281
 4659TIP3   OH235467   5.666   6.587  13.681 -0.0761 -0.0534  0.1096
 4659TIP3    H135468   5.733   6.625  13.623 -0.8921  2.3960  0.6467
 4659TIP3    H235469   5.660   6.649  13.754 -0.4583 -2.0497  1.8700
 4660TIP3   OH235470   0.220   1.236   0.683 -0.3127 -1.0994 -0.3763
 4660TIP3    H135471   0.132   1.260   0.653 -1.7131 -2.8693  1.9772
 4660TIP3    H235472   0.243   1.159   0.631 -0.5427 -1.1486 -0.4067
 4661TIP3   OH235473   6.228   5.986   2.465  0.0464  0.0071 -0.4682
 4661TIP3    H135474   6.188   5.911   2.422 -0.7685 -0.3008  0.7747
 4661TIP3    H235475   6.257   5.952   2.550  0.3361  0.9247 -0.1911
 4662TIP3   OH235476   4.863   4.894  13.040 -0.2426 -0.2494  0.1713
 4662TIP3    H135477   4.809   4.816  13.053 -1.1189  0.6092  1.9662
 4662TIP3    H235478   4.810   4.950  12.983 -1.3113  0.5645  1.8786
 4663TIP3   OH235479   5.429   4.250  13.573  0.7214  0.1444  0.2777
 4663TIP3    H135480   5.465   4.339  13.575 -0.5735  0.6818  1.5525
 4663TIP3    H235481   5.335   4.262  13.560  0.1496 -0.8589  2.8249
 4664TIP3   OH235482   0.516   1.344   3.692  0.2860 -0.0546 -0.6814
 4664TIP3    H135483   0.435   1.387   3.718  0.8742  0.6998 -0.0372
 4664TIP3    H235484   0.554   1.402   3.626  0.2700 -0.4405 -1.0332
 4665TIP3   OH235485   3.847   3.359  14.813  0.0786 -0.3389  0.4779
 4665TIP3    H135486   3.896   3.413  14.752  0.2066  0.6855  1.4650
 4665TIP3    H235487   3.812   3.288  14.758  0.7384  0.1707 -0.6511
 4666TIP3   OH235488   0.105   4.520  11.876  0.0267  0.4941  0.0407
 4666TIP3    H135489   0.178   4.570  11.839  2.0882 -1.1506  1.6507
 4666TIP3    H235490   0.043   4.511  11.804  0.9346  2.7617 -1.1268
 4667TIP3   OH235491   6.584   0.684  11.638 -0.3100 -0.3292  0.2559
 4667TIP3    H135492   6.556   0.705  11.549 -0.1903 -1.1461  0.0219
 4667TIP3    H235493   6.505   0.648  11.680 -0.4725  0.4149  0.6096
 4668TIP3   OH235494   4.602   1.301   0.433  0.5372  0.8020  0.3691
 4668TIP3    H135495   4.519   1.344   0.455  1.5470  3.6218 -0.9104
 4668TIP3    H235496   4.602   1.296   0.338  0.8398 -1.4174  0.4436
 4669TIP3   OH235497   5.869   0.807  13.445 -0.3239  0.0478  0.3296
 4669TIP3    H135498   5.949   0.851  13.417 -0.5500 -1.1120 -2.4344
 4669TIP3    H235499   5.899   0.724  13.483 -0.1514  0.2823  0.7082
 4670TIP3   OH235500   4.093   6.416   0.949 -0.3733 -0.2472  0.0211
 4670TIP3    H135501   3.999   6.419   0.966 -0.1621  1.9868  1.1356
 4670TIP3    H235502   4.101   6.430   0.855 -1.1439 -1.3088 -0.2301
 4671TIP3   OH235503   6.884   5.956  14.602  0.0783 -0.1222 -0.2574
 4671TIP3    H135504   6.852   5.874  14.640 -3.0107  0.4898 -1.2432
 4671TIP3    H235505   6.962   5.930  14.551  0.7184 -1.9220  1.5184
 4672TIP3   OH235506   3.039   3.616  13.826  0.4708 -1.1481 -0.7744
 4672TIP3    H135507   3.063   3.709  13.825 -0.5623 -0.8619 -2.5362
 4672TIP3    H235508   3.080   3.582  13.905 -0.7165  1.2136  0.9545
 4673TIP3   OH235509   0.607   5.784  12.163  0.4185 -0.0228  0.5023
 4673TIP3    H135510   0.549   5.715  12.193 -0.8294  0.9707  0.4577
 4673TIP3    H235511   0.651   5.815  12.243 -0.4315  0.3895  0.8248
 4674TIP3   OH235512   1.184   4.221  13.187  0.2938 -0.3807 -0.0896
 4674TIP3    H135513   1.121   4.291  13.206  0.4628 -0.2883  0.1436
 4674TIP3    H235514   1.138   4.162  13.128  0.6784  0.7542 -1.5916
 4675TIP3   OH235515   6.413   0.926   9.767  0.1267  0.3069 -0.0206
 4675TIP3    H135516   6.458   0.863   9.709  0.6401  0.8408 -0.2073
 4675TIP3    H235517   6.409   1.007   9.716  0.9323  0.8999  0.8421
 4676TIP3   OH235518   3.903   6.747  14.200 -0.3729 -0.1934 -0.0483
 4676TIP3    H135519   3.914   6.660  14.162  0.3352 -0.7353  1.3166
 4676TIP3    H235520   3.808   6.759  14.205 -0.4748 -0.6883 -0.6729
 4677TIP3   OH235521   0.793   6.588  12.594  0.5221  0.2560 -0.3273
 4677TIP3    H135522   0.735   6.558  12.664  1.2168  0.6552  0.4310
 4677TIP3    H235523   0.872   6.619  12.639  0.7220  1.1216 -1.2397
 4678TIP3   OH235524   5.271   6.236  11.829  0.1624 -0.1357 -0.0468
 4678TIP3    H135525   5.205   6.238  11.760  0.1981 -2.0849 -0.1934
 4678TIP3    H235526   5.231   6.184  11.899 -0.2044  2.4497  1.8480
 4679TIP3   OH235527   0.005   3.291  11.253  0.0430  0.3607  0.3827
 4679TIP3    H135528   0.099   3.277  11.245 -0.1947 -0.3640 -2.1830
 4679TIP3    H235529  -0.017   3.351  11.181 -1.6304 -0.6334 -0.0002
 4680TIP3   OH235530   5.922   2.925  13.852  0.1215  0.2640  0.3822
 4680TIP3    H135531   5.844   2.892  13.897 -0.9540  1.9415 -0.1370
 4680TIP3    H235532   5.945   3.005  13.899  1.1943  0.0951  0.1680
 4681TIP3   OH235533   5.119   7.021  13.837 -0.3715 -0.1431  0.5439
 4681TIP3    H135534   5.034   7.027  13.880 -0.1064 -1.4510  1.3049
 4681TIP3    H235535   5.183   7.022  13.909  0.0793 -2.2888  0.2440
 4682TIP3   OH235536   6.927   5.867  11.273  0.1182  0.0758  0.3258
 4682TIP3    H135537   6.850   5.889  11.324  0.4202  1.7681  0.1348
 4682TIP3    H235538   6.977   5.949  11.269 -0.1347  0.2020 -3.0634
 4683TIP3   OH235539   1.421   5.013  13.484 -0.2961 -0.1294  0.3373
 4683TIP3    H135540   1.478   5.090  13.486  0.3763 -0.6193  0.6810
 4683TIP3    H235541   1.334   5.047  13.504 -0.0835  0.6046  0.0293
 4684TIP3   OH235542   2.954   3.596  11.619  0.7003 -0.1818  0.4081
 4684TIP3    H135543   3.041   3.627  11.595 -0.7735  2.2212 -2.6558
 4684TIP3    H235544   2.896   3.669  11.597 -2.0834 -1.4406  2.8886
 4685TIP3   OH235545   6.673   5.844   0.106  0.0843  0.3714 -0.0530
 4685TIP3    H135546   6.632   5.823   0.190  0.0884 -2.3911 -0.6458
 4685TIP3    H235547   6.606   5.893   0.058 -0.7077  0.1317  0.7846
 4686TIP3   OH235548   5.374   2.389  12.212  0.5325 -0.1468  0.3910
 4686TIP3    H135549   5.448   2.344  12.252 -0.0531 -0.1959  1.4610
 4686TIP3    H235550   5.405   2.479  12.199  0.8115 -0.1857  0.7586
 4687TIP3   OH235551   5.719   6.190  11.755 -0.3426  0.3167  0.0262
 4687TIP3    H135552   5.674   6.146  11.827 -0.7868  1.3395  0.4076
 4687TIP3    H235553   5.796   6.137  11.737  1.0990  1.2885  2.8855
 4688TIP3   OH235554   5.095   3.559  10.733 -0.0615 -0.5052 -0.4959
 4688TIP3    H135555   5.054   3.477  10.707  1.7088 -0.9726 -2.0342
 4688TIP3    H235556   5.140   3.590  10.654 -0.4752  1.8447  0.0951
 4689TIP3   OH235557   1.699   5.067  12.721  0.2305 -0.1628 -0.0950
 4689TIP3    H135558   1.785   5.029  12.705 -0.4572 -0.8687 -2.5157
 4689TIP3    H235559   1.643   4.991  12.739 -0.0792  0.2308  0.6775
 4690TIP3   OH235560   0.057   2.785  10.568  0.4029  0.3035 -0.0314
 4690TIP3    H135561   0.082   2.701  10.606  0.4117 -0.1002 -0.9075
 4690TIP3    H235562   0.128   2.845  10.594  2.1230 -0.7010 -2.0401
 4691TIP3   OH235563   4.656   3.977  12.353 -0.7168 -0.3569  0.2092
 4691TIP3    H135564   4.621   3.923  12.282 -0.3176 -0.0857 -0.1997
 4691TIP3    H235565   4.651   4.067  12.320  1.3515 -0.3807 -0.3216
 4692TIP3   OH235566   3.035   1.472   3.815  0.3854  0.2067 -0.0792
 4692TIP3    H135567   3.053   1.470   3.909 -0.7831 -1.1645  0.1474
 4692TIP3    H235568   3.012   1.382   3.793 -0.4207  0.7214 -1.4590
 4693TIP3   OH235569   1.388   7.017  14.269  0.0025  0.1243 -0.0265
 4693TIP3    H135570   1.358   6.981  14.353  0.7778 -0.4475  0.0127
 4693TIP3    H235571   1.309   7.054  14.230  0.0859  3.0529  2.2401
 4694TIP3   OH235572   3.923   7.138  12.236  0.0756 -1.1696  0.0017
 4694TIP3    H135573   3.926   7.045  12.213 -1.0466 -1.3485  0.5098
 4694TIP3    H235574   3.830   7.156  12.254  0.1554  0.2212 -0.7639
 4695TIP3   OH235575   4.390   7.147  10.331  0.7610 -0.2229  0.0909
 4695TIP3    H135576   4.415   7.113  10.245 -0.3026  0.4109 -0.4989
 4695TIP3    H235577   4.472   7.170  10.373  1.4294 -2.2973  0.0078
 4696TIP3   OH235578   4.530   4.020   9.690 -0.4306 -0.3702  0.7126
 4696TIP3    H135579   4.536   3.933   9.729 -0.1108  0.3400  2.3355
 4696TIP3    H235580   4.539   4.080   9.764  0.1676  1.0560 -0.4601
 4697TIP3   OH235581   0.379   5.665   1.772 -0.1652 -0.5856 -0.6039
 4697TIP3    H135582   0.439   5.652   1.845 -3.3073  0.5944  2.4216
 4697TIP3    H235583   0.332   5.583   1.764 -1.6206  0.1124  0.5167
 4698TIP3   OH235584   0.452   6.756  10.659 -0.3153  0.0062  0.0795
 4698TIP3    H135585   0.370   6.789  10.622 -0.6783  0.9226  1.6200
 4698TIP3    H235586   0.428   6.721  10.744  0.3207 -3.1067 -0.9008
 4699TIP3   OH235587   2.760   6.314  13.795 -0.5718 -0.5734  0.3615
 4699TIP3    H135588   2.783   6.251  13.864 -1.0181 -2.9834 -1.5498
 4699TIP3    H235589   2.788   6.272  13.714 -0.1059  2.1431 -0.9935
 4700TIP3   OH235590   6.109   1.071  15.360 -0.6114 -0.3132  0.2753
 4700TIP3    H135591   6.083   1.054  15.450 -1.3937  1.4326  0.4234
 4700TIP3    H235592   6.028   1.095  15.315 -0.1752 -0.8183 -0.8194
 4701TIP3   OH235593   5.685   5.780  10.806 -0.4643 -0.3550 -0.1318
 4701TIP3    H135594   5.730   5.789  10.723  0.6669 -1.2074  0.3667
 4701TIP3    H235595   5.689   5.687  10.827 -1.2824 -0.2497  0.5851
 4702TIP3   OH235596   6.304   4.009  11.627  0.4428 -0.0143 -0.0873
 4702TIP3    H135597   6.298   4.095  11.668 -0.1075 -0.4154  0.7067
 4702TIP3    H235598   6.393   4.005  11.593  0.5864  0.7350  0.1842
 4703TIP3   OH235599   5.239   0.209  11.192  0.7688 -0.2446 -0.2744
 4703TIP3    H135600   5.201   0.218  11.279  2.4640 -1.7170  0.6946
 4703TIP3    H235601   5.267   0.298  11.169 -0.7712  0.3749  0.1131
 4704TIP3   OH235602   5.501   5.442  10.787 -0.2458 -0.4780 -0.4776
 4704TIP3    H135603   5.428   5.501  10.769  0.3901  1.3570  2.4075
 4704TIP3    H235604   5.565   5.463  10.719 -0.8387  0.7202 -0.6956
 4705TIP3   OH235605   3.247   1.947   0.778 -0.9261 -0.2079  0.0292
 4705TIP3    H135606   3.224   1.868   0.729  1.0212 -0.0242 -1.3065
 4705TIP3    H235607   3.272   1.915   0.865 -0.3531 -1.0568 -0.4350
 4706TIP3   OH235608   5.036   2.996  11.920  0.2156  0.3348 -0.1069
 4706TIP3    H135609   5.097   3.068  11.903  0.4371 -0.1613 -1.4832
 4706TIP3    H235610   5.091   2.926  11.955  0.6466 -0.4431 -2.2101
 4707TIP3   OH235611   5.779   2.916  15.037 -0.8327  0.3580 -0.3051
 4707TIP3    H135612   5.853   2.909  14.977 -1.0760  0.2374 -0.5952
 4707TIP3    H235613   5.815   2.954  15.117 -0.4869  0.4211 -0.4942
 4708TIP3   OH235614   6.452   5.796   4.279 -0.4960 -0.2015 -0.7133
 4708TIP3    H135615   6.519   5.841   4.227  0.4537 -0.2446  0.4321
 4708TIP3    H235616   6.417   5.864   4.337  1.1958 -0.9203  1.2787
 4709TIP3   OH235617   5.095   4.600  13.555 -0.1869  0.1064 -0.7091
 4709TIP3    H135618   5.165   4.593  13.619  0.1539  0.5067 -1.0355
 4709TIP3    H235619   5.080   4.510  13.526  0.4134  0.0553 -0.8757
 4710TIP3   OH235620   1.563   1.720  15.046 -0.1618  0.2479  0.6639
 4710TIP3    H135621   1.534   1.636  15.011  0.0906  0.7808 -0.9011
 4710TIP3    H235622   1.483   1.764  15.072 -0.6633  0.9174 -1.8056
 4711TIP3   OH235623   0.833   5.707  14.226 -0.1461 -0.1316  0.0567
 4711TIP3    H135624   0.921   5.734  14.201  0.0245  0.1124  0.8876
 4711TIP3    H235625   0.800   5.659  14.150 -0.0456  1.4744 -1.0454
 4712TIP3   OH235626   3.301   3.357  11.935 -0.5450  0.6511 -0.3285
 4712TIP3    H135627   3.270   3.400  11.855 -0.5621  1.0978 -0.0847
 4712TIP3    H235628   3.231   3.296  11.958 -0.6681  0.7275 -0.4992
 4713TIP3   OH235629   7.181   5.350   0.077 -0.0701 -0.4715  0.5810
 4713TIP3    H135630   7.229   5.311   0.150  2.4376 -0.9429 -1.1791
 4713TIP3    H235631   7.156   5.276   0.022  0.5333  0.0233 -0.3953
 4714TIP3   OH235632   3.393   7.080  10.114  0.1510  0.1589 -0.3467
 4714TIP3    H135633   3.390   7.102  10.021 -1.1370  0.6224 -0.2110
 4714TIP3    H235634   3.484   7.097  10.139  0.1748  1.4868 -1.1873
 4715TIP3   OH235635   1.779   4.633  10.299  0.4394  0.5836  0.3708
 4715TIP3    H135636   1.764   4.725  10.324  0.7617  0.5701  0.6273
 4715TIP3    H235637   1.746   4.627  10.210 -2.5782  0.1631  1.4038
 4716TIP3   OH235638   6.714   6.802  14.056 -0.1996 -0.3980  0.3595
 4716TIP3    H135639   6.729   6.803  14.151  0.0698  0.9563  0.3337
 4716TIP3    H235640   6.801   6.814  14.018 -0.4172  0.0232 -0.0230
 4717TIP3   OH235641   0.927   0.236  12.616  0.6627  0.0922 -0.0718
 4717TIP3    H135642   0.991   0.304  12.598  0.1627  0.7661  0.6476
 4717TIP3    H235643   0.873   0.232  12.536  0.9676  0.2294 -0.2832
 4718TIP3   OH235644   0.984   3.089  10.340 -0.3367  0.1599  0.5318
 4718TIP3    H135645   0.920   3.076  10.410 -1.0335  0.3003 -0.0660
 4718TIP3    H235646   0.958   3.027  10.272 -0.4798  0.9528 -0.1543
 4719TIP3   OH235647   3.348   6.047  13.698 -0.9335  0.4914  0.5104
 4719TIP3    H135648   3.276   6.098  13.735 -0.4200 -0.0896  2.3927
 4719TIP3    H235649   3.387   6.002  13.773  0.9721  0.2559 -0.5683
 4720TIP3   OH235650   1.883   7.025  14.353 -0.6832  0.6550  0.0537
 4720TIP3    H135651   1.864   7.118  14.366 -1.7194  0.2444  1.7040
 4720TIP3    H235652   1.799   6.981  14.367 -0.1043 -0.5881 -0.2159
 4721TIP3   OH235653   6.803   1.049  12.967  0.7358  0.4413  0.0734
 4721TIP3    H135654   6.804   0.998  12.886 -3.2271  0.3157 -0.1169
 4721TIP3    H235655   6.805   1.140  12.939 -0.8786  0.4028 -0.2903
 4722TIP3   OH235656   4.360   6.191   1.111  0.0655  0.6369 -0.7273
 4722TIP3    H135657   4.432   6.139   1.145 -0.5292  0.1328 -0.2069
 4722TIP3    H235658   4.326   6.238   1.188 -2.2610 -1.6641 -0.2090
 4723TIP3   OH235659   2.682   5.147  12.548 -0.7356  0.5153 -0.1028
 4723TIP3    H135660   2.626   5.071  12.562 -1.0382  0.8173  0.3564
 4723TIP3    H235661   2.727   5.130  12.465 -1.7470  0.4148 -0.6374
 4724TIP3   OH235662   1.589   7.186  13.529 -0.0835  0.9320 -0.4604
 4724TIP3    H135663   1.508   7.192  13.480 -0.2052  1.3676 -0.2164
 4724TIP3    H235664   1.658   7.195  13.463 -0.1575 -1.8679 -1.0080
 4725TIP3   OH235665   3.141   6.451  12.824  0.0883 -0.3279  0.0345
 4725TIP3    H135666   3.092   6.426  12.903  0.2936 -2.9003 -0.5807
 4725TIP3    H235667   3.100   6.533  12.796 -0.6446  0.1291  2.2386
 4726TIP3   OH235668   3.339   1.787  14.325 -0.1553 -0.0906  0.5627
 4726TIP3    H135669   3.278   1.829  14.386  1.4964  0.7240  1.7713
 4726TIP3    H235670   3.376   1.714  14.375  0.4721 -0.0338  0.1951
 4727TIP3   OH235671   0.920   1.116  13.355 -0.0933  0.6788  0.4166
 4727TIP3    H135672   0.929   1.022  13.368  1.4191  0.5963 -0.8746
 4727TIP3    H235673   1.010   1.146  13.341 -0.6945  2.0895 -0.5930
 4728TIP3   OH235674   3.331   4.809  10.550  0.7550  0.1747  0.4023
 4728TIP3    H135675   3.364   4.722  10.526  1.9487  1.0336 -1.2292
 4728TIP3    H235676   3.305   4.799  10.642  4.3413 -0.9842  1.4864
 4729TIP3   OH235677   1.354   4.869  10.028  0.9598  0.3274 -0.1599
 4729TIP3    H135678   1.378   4.905  10.113 -0.5758 -0.4312  0.6447
 4729TIP3    H235679   1.340   4.945   9.972  1.4637  0.8494  0.4128
 4730TIP3   OH235680   1.768   2.111   0.388  0.1392 -0.0092 -0.1382
 4730TIP3    H135681   1.808   2.195   0.364 -2.0129  0.8286 -1.0003
 4730TIP3    H235682   1.702   2.134   0.453 -1.1768 -0.8642 -1.1388
 4731TIP3   OH235683   2.638   3.685  13.343  0.8094 -0.6754 -0.5622
 4731TIP3    H135684   2.555   3.732  13.337  1.6009  0.9661  0.5726
 4731TIP3    H235685   2.643   3.635  13.262  0.1011  1.5843 -2.1133
 4732TIP3   OH235686   1.085   6.669   0.046  0.1954  0.6689  0.1383
 4732TIP3    H135687   1.002   6.623   0.045  0.4536  0.2013 -0.1577
 4732TIP3    H235688   1.080   6.731  -0.026  0.5406 -0.1661 -0.6295
 4733TIP3   OH235689   1.107   1.765   1.976 -0.1211  0.8307  0.0449
 4733TIP3    H135690   1.156   1.771   1.894  0.9427  0.8630  0.6661
 4733TIP3    H235691   1.052   1.688   1.964  1.1974 -0.1265 -0.1097
 4734TIP3   OH235692   5.858   1.810  11.478 -0.3454  0.1394  0.1850
 4734TIP3    H135693   5.945   1.779  11.453 -1.2018 -2.0472 -0.3595
 4734TIP3    H235694   5.807   1.730  11.489 -2.0073  1.3193  1.6143
 4735TIP3   OH235695   2.109   1.104  12.947  0.5667  0.1384 -0.0054
 4735TIP3    H135696   2.192   1.123  12.992  0.5282 -0.6751  0.4173
 4735TIP3    H235697   2.061   1.187  12.953  0.8117  0.2319  0.9287
 4736TIP3   OH235698   4.106   5.309   2.465  0.1915 -0.1232  0.0782
 4736TIP3    H135699   4.184   5.364   2.453  0.9623 -0.6251  2.2914
 4736TIP3    H235700   4.034   5.371   2.472  0.5989  0.4299 -0.4995
 4737TIP3   OH235701   3.402   6.097  12.212  0.2070  0.0684 -0.3432
 4737TIP3    H135702   3.492   6.104  12.245  0.6752  0.4668 -1.6093
 4737TIP3    H235703   3.410   6.045  12.132 -0.9937 -1.5200  0.5078
 4738TIP3   OH235704   1.053   0.949   0.840  0.0940 -0.2371 -0.1134
 4738TIP3    H135705   0.967   0.970   0.803  0.9554  1.8588 -1.1229
 4738TIP3    H235706   1.062   1.011   0.913  1.0924  0.2261 -0.6093
 4739TIP3   OH235707   4.705   5.174  12.552  0.6352 -0.4608  0.3549
 4739TIP3    H135708   4.642   5.231  12.597  1.1654  1.0731 -0.7609
 4739TIP3    H235709   4.652   5.103  12.516 -0.4950  0.7593 -0.4880
 4740TIP3   OH235710   6.366   4.015   1.903 -0.2358  0.5335 -0.5883
 4740TIP3    H135711   6.457   4.000   1.877 -0.5962  0.0792 -1.6471
 4740TIP3    H235712   6.356   3.967   1.985  0.9449  2.0282  0.4986
 4741TIP3   OH235713   4.777   2.629  10.172 -0.8763  0.2154 -0.2532
 4741TIP3    H135714   4.766   2.648  10.265  0.0834 -0.9115  0.1142
 4741TIP3    H235715   4.724   2.550  10.157 -0.8229  0.2452 -0.6059
 4742TIP3   OH235716   0.189   1.997  12.164 -0.0712  0.5752 -0.1191
 4742TIP3    H135717   0.123   2.066  12.154  1.0126  1.9908  1.8015
 4742TIP3    H235718   0.141   1.922  12.200 -0.8867  1.0537 -0.1947
 4743TIP3   OH235719   1.720   6.543  10.183 -0.4535 -0.4694  0.0197
 4743TIP3    H135720   1.797   6.557  10.237 -1.2269 -1.2359  1.3631
 4743TIP3    H235721   1.711   6.624  10.133  1.3681 -0.4682 -0.3992
 4744TIP3   OH235722   3.312   2.156  13.009 -0.0613  0.3977 -0.3383
 4744TIP3    H135723   3.262   2.091  12.960 -0.8753  1.0374 -0.3772
 4744TIP3    H235724   3.397   2.160  12.964  0.0819 -0.7902 -0.1927
 4745TIP3   OH235725   3.736   2.627   0.066  0.4475 -0.3465  0.0333
 4745TIP3    H135726   3.693   2.542   0.079 -0.3434  0.0708  0.2011
 4745TIP3    H235727   3.706   2.680   0.140 -0.2213  0.5363 -0.8510
 4746TIP3   OH235728   6.791   1.573  12.443 -0.3856  0.1937  0.3362
 4746TIP3    H135729   6.884   1.550  12.452 -0.9466 -1.7212  1.9086
 4746TIP3    H235730   6.761   1.590  12.532 -2.0275 -1.3817  0.1377
 4747TIP3   OH235731   6.767   1.296  13.182  0.1032 -0.1492  0.7122
 4747TIP3    H135732   6.831   1.248  13.235 -0.2812 -0.8888  0.5198
 4747TIP3    H235733   6.813   1.316  13.100 -0.3053 -1.8488  0.0346
 4748TIP3   OH235734   1.429   2.941  12.039  0.0455  0.3862 -0.7704
 4748TIP3    H135735   1.438   2.984  12.124 -2.8015  0.3917 -0.3703
 4748TIP3    H235736   1.379   3.003  11.985 -1.9233 -1.2873 -1.0073
 4749TIP3   OH235737   5.827   4.636  10.281 -0.0311 -0.5207 -0.2457
 4749TIP3    H135738   5.839   4.727  10.307 -0.6559 -0.7084  0.7768
 4749TIP3    H235739   5.875   4.627  10.198  1.6353  0.2388  0.5986
 4750TIP3   OH235740   1.547   5.708  10.404  0.2869 -0.1299  0.4576
 4750TIP3    H135741   1.473   5.753  10.364 -0.0184 -0.8401  0.2085
 4750TIP3    H235742   1.528   5.615  10.392  0.2089 -0.3704  2.1991
 4751TIP3   OH235743   0.018   0.898  10.229  0.0514  0.3665  0.1819
 4751TIP3    H135744   0.067   0.948  10.164 -0.2714 -0.0908 -0.4192
 4751TIP3    H235745  -0.037   0.839  10.178 -0.5295  0.3059  0.8660
 4752TIP3   OH235746   2.713   5.346  10.466 -0.0314  0.0552  0.0778
 4752TIP3    H135747   2.757   5.403  10.528  2.0037 -0.5541 -0.7318
 4752TIP3    H235748   2.659   5.404  10.413 -0.0619  0.8624  0.9851
 4753TIP3   OH235749   5.157   6.919  12.354 -0.0823  0.1770  0.2103
 4753TIP3    H135750   5.073   6.920  12.399 -0.4309  0.8872 -0.4257
 4753TIP3    H235751   5.201   6.999  12.382  0.6124 -0.4360  0.9330
 4754TIP3   OH235752   1.788   1.531  13.029  0.0811  0.2147 -0.2909
 4754TIP3    H135753   1.811   1.561  12.941  1.9143 -0.1612  0.0207
 4754TIP3    H235754   1.830   1.595  13.087 -1.0590  0.4239  0.3296
 4755TIP3   OH235755   2.420   1.612  10.809  0.2974 -0.2513  0.0520
 4755TIP3    H135756   2.438   1.601  10.716 -0.6735 -1.1933 -0.0426
 4755TIP3    H235757   2.442   1.528  10.848 -0.0577 -0.1242  0.5448
 4756TIP3   OH235758   6.290   0.866  10.745 -0.5785 -0.2540  0.4163
 4756TIP3    H135759   6.381   0.841  10.733 -0.1615  1.9242 -1.6654
 4756TIP3    H235760   6.294   0.943  10.802 -1.3025 -1.0648  1.6161
 4757TIP3   OH235761   1.155   1.930  13.501  0.2014 -0.3431  0.4198
 4757TIP3    H135762   1.219   1.881  13.449 -0.3112 -1.2538  0.6210
 4757TIP3    H235763   1.086   1.866  13.519  1.0796 -0.5582  3.5832
 4758TIP3   OH235764   0.306   3.053   9.680  0.2372  0.0794  0.5465
 4758TIP3    H135765   0.284   3.080   9.769  0.2716 -1.8705  1.1905
 4758TIP3    H235766   0.394   3.086   9.666  0.8935 -0.9824  1.8845
 4759TIP3   OH235767   1.406   2.779  14.196  0.3113  0.3837 -0.7452
 4759TIP3    H135768   1.394   2.821  14.110 -0.8085  2.5214  0.3577
 4759TIP3    H235769   1.496   2.747  14.195  0.0587 -0.4767 -3.0235
 4760TIP3   OH235770   5.948   1.821  10.835 -0.4204  0.0051  0.2649
 4760TIP3    H135771   5.856   1.842  10.847  0.0534  1.4882  1.5915
 4760TIP3    H235772   5.995   1.885  10.889  1.3627 -1.0700  0.0774
 4761TIP3   OH235773   1.499   3.427  11.247  0.1172  0.2766  0.0368
 4761TIP3    H135774   1.559   3.481  11.194  0.2996  0.5309  0.4904
 4761TIP3    H235775   1.551   3.404  11.324  0.2023 -0.9666 -0.3804
 4762TIP3   OH235776   2.022   4.831   0.347  0.4590  0.4974 -0.0557
 4762TIP3    H135777   1.948   4.869   0.395 -0.2167 -1.6321  0.7242
 4762TIP3    H235778   2.099   4.852   0.400  0.0622  0.5070  0.5294
 4763TIP3   OH235779   3.930   4.843  11.500  0.1690 -0.5211  0.2146
 4763TIP3    H135780   3.865   4.891  11.551 -0.6712 -0.3446 -0.9721
 4763TIP3    H235781   3.919   4.752  11.527 -1.1161 -0.6080 -0.4761
 4764TIP3   OH235782   7.195   5.166  11.933 -0.8607 -0.2071  0.4791
 4764TIP3    H135783   7.127   5.231  11.913 -0.1539  0.3908 -0.0663
 4764TIP3    H235784   7.207   5.119  11.850  2.7870  2.9334 -1.0910
 4765TIP3   OH235785   3.844   0.686   0.075 -0.0112 -0.0255 -0.1041
 4765TIP3    H135786   3.880   0.617   0.131 -0.5685  0.6060  1.0634
 4765TIP3    H235787   3.792   0.639   0.010 -1.5129 -0.6742  1.5071
 4766TIP3   OH235788   6.545   6.856   0.382  0.3226 -0.2275 -0.2538
 4766TIP3    H135789   6.618   6.807   0.419  2.3159 -0.0635 -3.5195
 4766TIP3    H235790   6.479   6.857   0.450  3.2218 -0.6744  2.8206
 4767TIP3   OH235791   3.043   1.489  14.690  0.1428  0.0224  0.5177
 4767TIP3    H135792   3.093   1.427  14.742  1.1210  1.3715  1.2599
 4767TIP3    H235793   3.079   1.575  14.713 -0.4479  0.8035 -1.2278
 4768TIP3   OH235794   5.010   3.491  11.846  0.7398  0.2659  0.7345
 4768TIP3    H135795   5.052   3.504  11.762  0.1648 -1.4481  0.1220
 4768TIP3    H235796   5.073   3.440  11.897  0.7374  0.5460  1.0206
 4769TIP3   OH235797   5.774   5.058   9.813 -0.1574  0.1239  0.0094
 4769TIP3    H135798   5.760   5.019   9.899 -1.4278 -2.6137 -1.3144
 4769TIP3    H235799   5.709   5.128   9.807  0.8267  1.2590  1.6976
 4770TIP3   OH235800   4.175   0.616   1.458 -0.3534  0.1673 -0.2007
 4770TIP3    H135801   4.182   0.640   1.551  0.0997 -1.0137  0.0850
 4770TIP3    H235802   4.261   0.640   1.421  0.4217 -1.7131  0.2758
 4771TIP3   OH235803   1.368   5.934  10.676  0.2976 -0.0747 -0.1631
 4771TIP3    H135804   1.380   5.967  10.587  1.7540 -0.8785 -0.2921
 4771TIP3    H235805   1.355   6.013  10.729 -1.0921  0.3832 -1.1331
 4772TIP3   OH235806   3.798   6.674   4.062  0.2867 -0.2710  0.2434
 4772TIP3    H135807   3.713   6.712   4.087  0.7202 -0.0628  1.4891
 4772TIP3    H235808   3.859   6.708   4.128  1.3166 -0.5219 -0.5670
 4773TIP3   OH235809   0.640   6.458  12.859 -0.3355  0.3458 -0.5148
 4773TIP3    H135810   0.547   6.466  12.838 -0.9724 -0.4701  1.7174
 4773TIP3    H235811   0.643   6.456  12.954  1.8413 -1.1081 -0.5435
 4774TIP3   OH235812   3.180   6.220  11.090  0.4644 -0.0758 -0.2920
 4774TIP3    H135813   3.116   6.204  11.159  0.1994 -0.8175 -0.6966
 4774TIP3    H235814   3.156   6.160  11.020  2.3210 -1.2489  0.0009
 4775TIP3   OH235815   1.223   0.333  10.623  0.0597 -0.0784  0.0761
 4775TIP3    H135816   1.163   0.407  10.627 -0.4442 -0.4861  0.1393
 4775TIP3    H235817   1.248   0.317  10.714 -0.3811 -0.4271  0.1385
 4776TIP3   OH235818   4.728   4.294  11.657 -0.6800  0.2931  0.0784
 4776TIP3    H135819   4.639   4.307  11.691 -0.7985  0.0781 -0.1439
 4776TIP3    H235820   4.716   4.282  11.563 -0.8499 -3.5127  0.4118
 4777TIP3   OH235821   2.700   4.991   9.918  0.1826  0.1680  0.3030
 4777TIP3    H135822   2.719   5.080   9.948 -1.0077  0.2093  1.0012
 4777TIP3    H235823   2.783   4.959   9.883  1.0240  0.9741  1.5059
 4778TIP3   OH235824   4.677   2.207  11.118 -0.1639  0.3182 -0.0371
 4778TIP3    H135825   4.655   2.280  11.175  0.6524  1.3157 -0.9689
 4778TIP3    H235826   4.639   2.231  11.033  1.2539  0.3256 -0.7026
 4779TIP3   OH235827   2.601   4.478   0.577  0.8754 -0.4161 -0.4915
 4779TIP3    H135828   2.577   4.570   0.580  0.7661 -0.4735  0.6361
 4779TIP3    H235829   2.660   4.465   0.651  2.0021 -0.9621 -1.4322
 4780TIP3   OH235830   1.691   0.572   3.052 -0.3568 -0.7695  0.0775
 4780TIP3    H135831   1.694   0.485   3.091  0.2418  0.2171  2.3941
 4780TIP3    H235832   1.663   0.630   3.123  1.6228  1.2917 -0.6899
 4781TIP3   OH235833   4.660   5.571  13.268 -0.1264  0.2245 -0.5930
 4781TIP3    H135834   4.668   5.479  13.296 -0.0641  0.2650 -0.4761
 4781TIP3    H235835   4.594   5.608  13.327 -0.1453  0.2572 -0.6350
 4782TIP3   OH235836   6.892   4.222  15.156  0.2636  0.1814 -0.0334
 4782TIP3    H135837   6.964   4.280  15.129  1.6828 -0.9902  1.0852
 4782TIP3    H235838   6.910   4.139  15.112 -0.7263  0.0373 -0.1791
 4783TIP3   OH235839   0.197   3.402  11.670  0.6281  0.1065  0.2418
 4783TIP3    H135840   0.124   3.341  11.679  0.9583 -0.1494  1.2914
 4783TIP3    H235841   0.168   3.481  11.714  0.8122  0.1638  0.2612
 4784TIP3   OH235842   6.705   2.639  11.828 -0.7796  0.2914 -0.3200
 4784TIP3    H135843   6.717   2.623  11.922 -1.5351  0.3730 -0.2032
 4784TIP3    H235844   6.707   2.734  11.820 -0.8920  0.2903 -0.3624
 4785TIP3   OH235845   0.232   4.934  10.316 -0.0197  0.2898 -0.1577
 4785TIP3    H135846   0.183   4.854  10.335 -0.6769  1.1891  2.3257
 4785TIP3    H235847   0.171   4.989  10.266  0.3727 -0.6484 -1.7150
 4786TIP3   OH235848   6.179   6.011  15.336 -0.0657  0.5530 -0.0423
 4786TIP3    H135849   6.213   6.006  15.247 -0.8554 -0.4484 -0.3047
 4786TIP3    H235850   6.104   6.070  15.330  1.1214  2.1603  0.3892
 4787TIP3   OH235851   1.650   0.733  10.506 -0.1466  0.1956 -0.2059
 4787TIP3    H135852   1.605   0.814  10.528 -0.5330 -0.0642 -0.0233
 4787TIP3    H235853   1.594   0.691  10.441 -0.0976 -0.0611 -0.0870
 4788TIP3   OH235854   5.059   2.886  14.263  0.6635  0.4074  0.1295
 4788TIP3    H135855   5.027   2.911  14.350  1.2411  2.0758 -0.1061
 4788TIP3    H235856   5.115   2.810  14.279 -0.2672 -0.1067  1.0417
 4789TIP3   OH235857   6.951   1.891  11.832  0.1564  0.1936 -0.2189
 4789TIP3    H135858   6.929   1.948  11.906 -2.7892  1.0352 -1.6184
 4789TIP3    H235859   7.030   1.930  11.795 -0.7063  2.2903  0.0152
 4790TIP3   OH235860   5.615   3.531  15.199  0.4361  0.2053  0.3022
 4790TIP3    H135861   5.520   3.528  15.210  0.3387 -1.2955 -0.6612
 4790TIP3    H235862   5.633   3.620  15.168 -0.7253  0.2929 -0.1501
 4791TIP3   OH235863   6.631   5.096  11.421 -0.4461 -0.0935 -0.0500
 4791TIP3    H135864   6.587   5.176  11.448  1.3608  0.7229  0.6347
 4791TIP3    H235865   6.685   5.122  11.347  3.0561  0.3861  2.3897
 4792TIP3   OH235866   0.004   6.972  10.310  0.1750  0.3634  0.1864
 4792TIP3    H135867  -0.063   7.016  10.362  0.2580  0.8865 -0.1425
 4792TIP3    H235868   0.064   6.935  10.375  0.3947  1.1883  0.4703
 4793TIP3   OH235869   6.402   2.141   9.941  0.4358 -0.0651 -0.2768
 4793TIP3    H135870   6.433   2.139   9.850  0.8496 -1.2648 -0.1137
 4793TIP3    H235871   6.374   2.052   9.959 -0.5230  0.3728  0.4917
 4794TIP3   OH235872   2.185   3.047  13.159  0.2604  0.6686 -0.3043
 4794TIP3    H135873   2.158   3.045  13.067  1.5934 -1.0468 -0.7156
 4794TIP3    H235874   2.280   3.057  13.155  0.4272 -0.2225  0.8499
 4795TIP3   OH235875   6.747   0.615   0.883  0.5738 -0.3237  0.6376
 4795TIP3    H135876   6.813   0.545   0.885  1.2121  0.2884  1.5041
 4795TIP3    H235877   6.766   0.669   0.959 -0.5674  0.2150  0.5637
 4796TIP3   OH235878   0.109   1.588  14.530 -1.1988 -0.8230 -0.1002
 4796TIP3    H135879   0.129   1.580  14.623  1.0103 -2.6886 -0.6368
 4796TIP3    H235880   0.038   1.525  14.516  0.7959 -3.2034 -0.1963
 4797TIP3   OH235881   3.535   2.417  12.691 -0.1245 -0.2334 -0.1431
 4797TIP3    H135882   3.598   2.468  12.640 -0.3305 -0.3469 -0.5143
 4797TIP3    H235883   3.459   2.408  12.633  0.6137 -2.6189 -0.8413
 4798TIP3   OH235884   6.724   3.289  14.777  0.0956 -0.6493 -0.6693
 4798TIP3    H135885   6.807   3.280  14.824 -0.1208  0.2040 -0.0869
 4798TIP3    H235886   6.691   3.200  14.769 -0.9286 -0.7279  2.8171
 4799TIP3   OH235887   2.979   0.305  10.071 -0.2152 -0.5816  0.2671
 4799TIP3    H135888   3.051   0.356  10.107 -0.1316 -0.2088 -0.4095
 4799TIP3    H235889   3.022   0.231  10.027 -0.3615 -1.6959  1.8772
 4800TIP3   OH235890   2.951   5.556  13.918  0.6631 -0.2766  0.3512
 4800TIP3    H135891   3.033   5.522  13.953  0.5491  0.3031  1.2144
 4800TIP3    H235892   2.886   5.534  13.984  0.1170 -0.6931 -0.3063
 4801TIP3   OH235893   7.180   2.890   9.269  0.1498  0.1329 -0.2149
 4801TIP3    H135894   7.244   2.908   9.200  2.0656  0.4525  1.5609
 4801TIP3    H235895   7.173   2.972   9.318 -1.4456  0.0198 -0.1834
 4802TIP3   OH235896   0.952   6.176   9.713  0.0769  0.7325 -0.0819
 4802TIP3    H135897   0.947   6.214   9.800  0.5134  0.5710  0.0189
 4802TIP3    H235898   0.864   6.184   9.677  0.1152  1.6281  0.0202
 4803TIP3   OH235899   3.332   5.172  14.300 -0.1367 -0.5509 -0.0286
 4803TIP3    H135900   3.314   5.144  14.210  0.1514  2.5438 -1.1888
 4803TIP3    H235901   3.342   5.091  14.349 -0.4125 -2.3753 -2.7590
 4804TIP3   OH235902   0.841   1.759  10.994 -0.3740  0.1275 -0.0225
 4804TIP3    H135903   0.872   1.832  11.048 -3.4971 -0.6768  3.2598
 4804TIP3    H235904   0.791   1.802  10.924  1.0242  1.1387 -0.4583
 4805TIP3   OH235905   4.570   3.252  12.015  0.3011  0.0951  0.3369
 4805TIP3    H135906   4.661   3.278  12.002  1.3295 -1.3654  3.5827
 4805TIP3    H235907   4.570   3.157  12.002 -0.7597  0.0812  0.3651
 4806TIP3   OH235908   4.804   1.627  11.942 -0.6068 -0.6193  0.0422
 4806TIP3    H135909   4.814   1.663  11.854  0.9181  0.3021  0.5668
 4806TIP3    H235910   4.710   1.611  11.951 -0.7932 -0.5895 -1.6878
 4807TIP3   OH235911   1.071   2.521  11.302 -0.2480 -0.6683 -0.3168
 4807TIP3    H135912   1.068   2.456  11.371 -0.7568 -0.5428 -0.2217
 4807TIP3    H235913   1.025   2.597  11.337  0.8832 -0.0103 -0.1828
 4808TIP3   OH235914   3.709   7.056  15.070 -0.7248  0.3063 -0.1355
 4808TIP3    H135915   3.765   7.018  15.138 -1.2621  0.0183  0.1560
 4808TIP3    H235916   3.696   7.147  15.096 -2.1618 -0.1784  0.9898
 4809TIP3   OH235917   1.188   0.933  11.612 -0.0522  0.0648  0.3297
 4809TIP3    H135918   1.187   1.016  11.565  0.9900  0.6989  1.3748
 4809TIP3    H235919   1.219   0.955  11.700 -0.1519 -1.3655  0.7547
 4810TIP3   OH235920   4.314   1.115  10.045  0.8354  0.0839 -0.0556
 4810TIP3    H135921   4.398   1.152  10.071  0.6680  0.4575 -0.0368
 4810TIP3    H235922   4.249   1.161  10.098  0.7718 -1.8509  1.6754
 4811TIP3   OH235923   4.343   2.071  13.303  0.0887 -0.2185  0.4205
 4811TIP3    H135924   4.310   2.160  13.292  0.7045  0.2281  1.9573
 4811TIP3    H235925   4.267   2.020  13.330 -0.7829 -0.7036 -2.6144
 4812TIP3   OH235926   4.309   5.560   0.380 -0.6417 -0.3179 -0.0026
 4812TIP3    H135927   4.239   5.624   0.390  1.4642  2.5792 -2.0935
 4812TIP3    H235928   4.289   5.516   0.297 -1.0843 -1.0451  0.4820
 4813TIP3   OH235929   3.309   2.089   0.322 -0.1897  0.2510  0.2958
 4813TIP3    H135930   3.291   2.174   0.280 -0.9165 -1.1334 -2.4614
 4813TIP3    H235931   3.222   2.054   0.344  0.1655  0.8184  2.9211
 4814TIP3   OH235932   5.808   6.542   4.403  0.1232 -0.2994 -0.3336
 4814TIP3    H135933   5.844   6.617   4.450  2.1437 -0.1377 -2.0038
 4814TIP3    H235934   5.727   6.575   4.363  0.5247  0.7457 -0.3073
 4815TIP3   OH235935   1.896   4.880  13.956  0.4282 -0.4103 -0.3966
 4815TIP3    H135936   1.889   4.890  14.051 -0.2150  0.3661 -0.5196
 4815TIP3    H235937   1.808   4.855  13.928  0.1399  1.1661 -0.9857
 4816TIP3   OH235938   3.239   1.906  12.747  0.1560 -0.0411  0.1862
 4816TIP3    H135939   3.228   1.831  12.689  2.2690 -0.7381  0.6143
 4816TIP3    H235940   3.305   1.879  12.810  1.0049  2.1642  0.3427
 4817TIP3   OH235941   0.384   3.915  12.300 -0.6273 -0.5321 -0.1845
 4817TIP3    H135942   0.394   3.871  12.384  0.3828  0.4697  0.2428
 4817TIP3    H235943   0.459   3.886  12.248 -0.5090 -0.0998 -0.2593
 4818TIP3   OH235944   5.933   6.016  11.623 -0.0771 -0.0873 -0.1926
 4818TIP3    H135945   5.981   6.067  11.558  0.2379 -0.1999 -0.0538
 4818TIP3    H235946   6.001   5.985  11.683 -0.3767  0.1018  0.2471
 4819TIP3   OH235947   0.064   5.053  13.472  0.2300  0.0983 -0.0263
 4819TIP3    H135948  -0.014   5.054  13.416 -0.0583 -0.7319  0.3465
 4819TIP3    H235949   0.030   5.033  13.559  0.7363  0.8619  0.3576
 4820TIP3   OH235950   5.485   3.976  14.962 -0.6297  0.4623 -0.0134
 4820TIP3    H135951   5.442   4.061  14.952 -1.6576  0.0086  0.4472
 4820TIP3    H235952   5.417   3.912  14.944 -0.1112 -0.2770  0.5761
 4821TIP3   OH235953   2.574   0.967   1.194  0.0156 -0.5700  0.3386
 4821TIP3    H135954   2.521   0.939   1.269 -1.4969  1.4444  0.0936
 4821TIP3    H235955   2.529   1.043   1.160  2.4618  0.5395 -0.6387
 4822TIP3   OH235956   3.336   3.622   1.086  0.1575  0.8274  0.0551
 4822TIP3    H135957   3.376   3.697   1.131  0.6474  1.3897 -1.2693
 4822TIP3    H235958   3.246   3.621   1.119  0.6242  0.9262  1.3860
 4823TIP3   OH235959   1.450   4.431  13.230  0.0930  0.0554 -0.5014
 4823TIP3    H135960   1.372   4.435  13.285 -0.2227 -2.6443 -0.6103
 4823TIP3    H235961   1.421   4.461  13.144  0.1038  2.3863  0.2333
 4824TIP3   OH235962   0.721   2.730  12.257 -0.0530  0.1580 -0.2680
 4824TIP3    H135963   0.652   2.664  12.251 -0.8192  0.9894 -0.9138
 4824TIP3    H235964   0.691   2.791  12.325  0.1907  0.3476 -0.3288
 4825TIP3   OH235965   1.504   3.476  10.443  0.4332  0.9628  0.2008
 4825TIP3    H135966   1.548   3.474  10.359  1.3310  2.1184  0.6176
 4825TIP3    H235967   1.465   3.563  10.448 -2.9894 -0.3505 -0.6439
 4826TIP3   OH235968   5.847   6.435  15.052 -0.0534 -0.0291 -0.4962
 4826TIP3    H135969   5.781   6.370  15.074 -1.7203  1.5546 -0.6242
 4826TIP3    H235970   5.860   6.485  15.133  1.6525 -0.8274 -0.2273
 4827TIP3   OH235971   3.051   2.790   1.790 -0.4552 -0.0549 -0.5547
 4827TIP3    H135972   3.003   2.722   1.743  1.0722  0.0940 -2.4500
 4827TIP3    H235973   3.143   2.767   1.778  0.0572  1.5866 -0.0354
 4828TIP3   OH235974   5.246   2.732  14.367  0.1757  0.2637 -0.0369
 4828TIP3    H135975   5.210   2.718  14.455  0.3326 -0.0733 -0.0250
 4828TIP3    H235976   5.311   2.663  14.357 -0.3309 -0.1302 -0.6910
 4829TIP3   OH235977   3.419   4.700  13.295  0.3006 -0.5276  0.1771
 4829TIP3    H135978   3.499   4.717  13.246 -0.2933  0.1271 -0.5970
 4829TIP3    H235979   3.443   4.633  13.359  1.1092 -1.3686 -0.9775
 4830TIP3   OH235980   3.369   3.100   0.041  0.2572 -0.2369  0.3565
 4830TIP3    H135981   3.287   3.147   0.056 -0.0219 -0.2285 -1.0029
 4830TIP3    H235982   3.412   3.097   0.127 -0.9037  0.2425  0.9722
 4831TIP3   OH235983   5.617   0.662  10.984 -0.5203  0.2213 -0.0745
 4831TIP3    H135984   5.549   0.726  11.005  0.7386  1.6305 -0.1622
 4831TIP3    H235985   5.598   0.588  11.042 -1.1773  1.2579  1.0960
 4832TIP3   OH235986   4.233   2.793   0.899 -0.1160  0.1871  0.3996
 4832TIP3    H135987   4.182   2.846   0.960  0.8014 -0.1195  1.4892
 4832TIP3    H235988   4.321   2.832   0.902 -0.2114  0.5920 -1.2840
 4833TIP3   OH235989   2.354   5.416  10.195  0.0871  0.2453 -0.4892
 4833TIP3    H135990   2.261   5.406  10.173  0.1292 -1.7042  0.0031
 4833TIP3    H235991   2.356   5.410  10.291  0.9360 -2.8642 -0.5926
 4834TIP3   OH235992   3.535   1.620   2.428  0.2553 -0.0983  0.0557
 4834TIP3    H135993   3.468   1.552   2.427 -0.2090  0.3492  0.6019
 4834TIP3    H235994   3.588   1.602   2.350 -1.0912  0.1364 -0.9605
 4835TIP3   OH235995   5.252   6.517  10.427  0.0514  0.1989  0.4496
 4835TIP3    H135996   5.204   6.496  10.347  0.0745 -1.1167  0.7538
 4835TIP3    H235997   5.286   6.433  10.457 -0.7578  0.5027  2.3672
 4836TIP3   OH235998   2.745   5.225  11.578  0.6667  0.2702  0.6962
 4836TIP3    H135999   2.823   5.252  11.529 -0.4209  0.8436 -0.8072
 4836TIP3    H236000   2.721   5.140  11.540 -1.0992  1.4331 -1.0057
 4837TIP3   OH236001   0.788   0.254  12.049  0.5671 -0.5101  0.6435
 4837TIP3    H136002   0.716   0.212  12.001 -0.9745  2.1173  0.4519
 4837TIP3    H236003   0.776   0.226  12.140 -1.9046  1.1920  0.9589
 4838TIP3   OH236004   1.055   1.104  12.468  0.7403 -0.0008 -0.1250
 4838TIP3    H136005   0.968   1.111  12.429  1.3599  0.9544 -1.3924
 4838TIP3    H236006   1.059   1.174  12.532  0.0868 -0.9344  0.9674
 4839TIP3   OH236007   1.761   1.607  10.954 -0.2702  0.0108 -0.1537
 4839TIP3    H136008   1.681   1.597  11.006 -1.0957 -0.8897 -1.5163
 4839TIP3    H236009   1.832   1.610  11.018 -1.0748 -2.7606  1.0233
 4840TIP3   OH236010   7.191   2.342  11.439 -0.1062 -0.0262  0.0142
 4840TIP3    H136011   7.275   2.387  11.428 -1.0546  1.4035 -1.8562
 4840TIP3    H236012   7.214   2.259  11.482  1.9996  1.1444  1.3095
 4841TIP3   OH236013   1.716   3.103   1.884 -0.6446 -0.1851  0.4679
 4841TIP3    H136014   1.795   3.142   1.846 -0.8549 -0.1984  0.0137
 4841TIP3    H236015   1.721   3.011   1.860 -1.4317  0.0524 -0.6472
 4842TIP3   OH236016   3.632   5.737   0.108 -0.6148  0.5966  0.1245
 4842TIP3    H136017   3.601   5.777   0.027 -0.9016  0.9420  0.4023
 4842TIP3    H236018   3.562   5.753   0.171 -1.4630 -1.6836 -0.1294
 4843TIP3   OH236019   4.224   4.294  11.515  0.1227 -0.4068 -0.0842
 4843TIP3    H136020   4.189   4.383  11.516  0.7457 -0.1018 -1.8601
 4843TIP3    H236021   4.217   4.267  11.424  3.2631 -0.8002 -0.3189
 4844TIP3   OH236022   2.472   2.289  12.296 -0.7415 -0.2472  0.7413
 4844TIP3    H136023   2.490   2.280  12.202 -1.4427 -0.8362  0.6587
 4844TIP3    H236024   2.536   2.354  12.326 -0.2130 -0.3854 -0.0533
 4845TIP3   OH236025   1.749   1.154  14.211 -0.0563 -0.4556  0.4094
 4845TIP3    H136026   1.786   1.231  14.169  0.5461 -0.4608  0.9160
 4845TIP3    H236027   1.748   1.175  14.304  1.6764 -1.6702  0.7585
 4846TIP3   OH236028   2.318   3.518  14.092  0.3786  0.3074  0.3169
 4846TIP3    H136029   2.385   3.564  14.143  0.6392  1.3400 -0.8871
 4846TIP3    H236030   2.250   3.497  14.155  0.3371  2.2233  0.9732
 4847TIP3   OH236031   5.026   2.253   1.140  0.2875 -0.1387 -0.1098
 4847TIP3    H136032   5.086   2.291   1.205 -0.0753 -2.2008  1.5634
 4847TIP3    H236033   5.024   2.160   1.162 -2.4087 -0.3771 -1.0234
 4848TIP3   OH236034   3.801   5.804  10.066 -0.2338 -0.3941 -0.2292
 4848TIP3    H136035   3.896   5.815  10.066 -0.2553 -0.1495 -1.1346
 4848TIP3    H236036   3.788   5.709  10.056 -0.0651 -0.2058 -2.8957
 4849TIP3   OH236037   2.981   6.337   9.887 -0.3783 -0.1236  0.1671
 4849TIP3    H136038   2.933   6.285   9.823  3.0453 -0.7119 -2.1902
 4849TIP3    H236039   3.041   6.276   9.928 -0.6888  0.7930  2.0851
 4850TIP3   OH236040   0.880   0.079   9.877  0.2791  0.3191 -0.3918
 4850TIP3    H136041   0.902   0.040   9.961 -0.1797 -3.9657 -1.9865
 4850TIP3    H236042   0.954   0.059   9.820 -1.4137 -1.3738 -2.1742
 4851TIP3   OH236043   6.828   3.465  12.065 -0.6869 -0.2801 -0.9767
 4851TIP3    H136044   6.828   3.371  12.053  2.0485 -0.4372 -0.4458
 4851TIP3    H236045   6.905   3.496  12.016  0.0052  1.2753  0.9361
 4852TIP3   OH236046   7.074   2.742  11.462  0.4832  0.0422 -0.5756
 4852TIP3    H136047   7.134   2.756  11.536 -0.4368  1.0722 -0.0066
 4852TIP3    H236048   7.014   2.674  11.492  1.5612 -1.2945 -1.2988
 4853TIP3   OH236049   2.059   6.629  15.134  0.0635  0.3568 -0.7293
 4853TIP3    H136050   2.042   6.629  15.040 -2.0276  2.3429 -0.4421
 4853TIP3    H236051   1.978   6.664  15.173  1.2796  0.6487  1.7152
 4854TIP3   OH236052   1.215   3.253  12.845 -0.2209  0.0667 -1.0750
 4854TIP3    H136053   1.134   3.294  12.874 -1.2440 -1.9924 -0.8840
 4854TIP3    H236054   1.199   3.231  12.753  0.4737  0.4600 -1.2963
 4855TIP3   OH236055   6.746   1.386   1.438 -0.3274  0.3399  0.4192
 4855TIP3    H136056   6.706   1.399   1.524  0.5262  1.7007  0.6456
 4855TIP3    H236057   6.840   1.389   1.456 -0.1273  1.8878 -0.7151
 4856TIP3   OH236058   5.476   0.207  14.373 -0.0178  0.2934  0.0341
 4856TIP3    H136059   5.567   0.217  14.343  0.2209 -1.9132 -0.1529
 4856TIP3    H236060   5.482   0.208  14.468  0.0712  0.9641  0.0298
 4857TIP3   OH236061   2.441   3.910  10.938 -0.7856  0.0535 -0.4784
 4857TIP3    H136062   2.489   3.828  10.950 -1.3447 -0.0729  1.1488
 4857TIP3    H236063   2.348   3.884  10.939 -0.9853  0.7379  0.6347
 4858TIP3   OH236064   2.528   3.623   0.370  0.2448 -0.0534 -0.1719
 4858TIP3    H136065   2.582   3.566   0.315  0.2167 -0.1579 -0.0927
 4858TIP3    H236066   2.521   3.705   0.321 -1.3684 -0.7815 -1.2222
 4859TIP3   OH236067   4.850   0.421  15.425 -0.6474  0.2606  0.3756
 4859TIP3    H136068   4.879   0.430  15.515  0.0415 -0.4944  0.2339
 4859TIP3    H236069   4.830   0.328  15.415  0.4020  0.1165 -0.5763
 4860TIP3   OH236070   2.253   0.501  12.765 -0.3692 -0.2407 -0.0557
 4860TIP3    H136071   2.328   0.474  12.710  0.5431 -0.8180  1.4148
 4860TIP3    H236072   2.242   0.429  12.827 -0.1517  1.1802  1.7180
 4861TIP3   OH236073   5.883   5.137  13.439 -0.0129  0.4591  0.0264
 4861TIP3    H136074   5.872   5.076  13.513  2.0361  1.2123  1.0419
 4861TIP3    H236075   5.977   5.149  13.432  0.0633 -1.0968 -4.0752
 4862TIP3   OH236076   3.475   0.162   0.877 -0.6826  0.2864  0.2910
 4862TIP3    H136077   3.438   0.173   0.789  0.1781 -0.3232 -0.1637
 4862TIP3    H236078   3.421   0.094   0.917 -0.4640 -0.1437 -0.1340
 4863TIP3   OH236079   5.051   1.157   9.913 -0.4908 -0.1860 -0.1199
 4863TIP3    H136080   5.084   1.200   9.834 -1.0424 -0.5633 -0.5584
 4863TIP3    H236081   4.983   1.217   9.946  0.2966  0.3707  0.5338
 4864TIP3   OH236082   5.537   6.113  11.929 -0.5345  0.8236 -0.1940
 4864TIP3    H136083   5.588   6.159  11.994 -1.4435 -0.5634  1.5897
 4864TIP3    H236084   5.466   6.072  11.978 -0.9354 -0.7598 -1.9497
 4865TIP3   OH236085   3.303   1.664  14.823  0.0184  0.1965  0.3524
 4865TIP3    H136086   3.323   1.752  14.855  0.6024  0.8036 -1.5594
 4865TIP3    H236087   3.376   1.642  14.766 -0.7343 -1.0282 -0.1862
 4866TIP3   OH236088   3.920   2.506  14.141  0.2687 -0.0174  0.3214
 4866TIP3    H136089   3.904   2.411  14.134 -0.6306  0.1528 -0.0981
 4866TIP3    H236090   4.015   2.513  14.150  0.1905 -1.0909  2.9386
 4867TIP3   OH236091   0.668   3.497  10.666  0.7819 -0.0897  0.3313
 4867TIP3    H136092   0.760   3.482  10.643  1.3023  1.6241  1.1195
 4867TIP3    H236093   0.633   3.545  10.591  0.8114  0.1565  0.4746
 4868TIP3   OH236094   6.427   2.540  10.748  0.0127  0.2435 -0.5566
 4868TIP3    H136095   6.365   2.507  10.682  0.7473 -1.5992 -0.3958
 4868TIP3    H236096   6.375   2.601  10.801 -1.2371 -0.0584 -1.3817
 4869TIP3   OH236097   1.826   3.577  13.085  0.2817  0.3224 -0.1691
 4869TIP3    H136098   1.818   3.497  13.032 -0.6295 -0.2531  0.8017
 4869TIP3    H236099   1.826   3.546  13.175 -0.0045  1.4247  0.2196
 4870TIP3   OH236100   4.675   2.496  12.150 -0.0205  0.1108 -0.8539
 4870TIP3    H136101   4.671   2.494  12.246  0.1973  0.7110 -0.8239
 4870TIP3    H236102   4.722   2.416  12.126  1.1373  0.6211 -0.3725
 4871TIP3   OH236103   4.334   5.611  12.768  0.1092 -0.4010  0.2535
 4871TIP3    H136104   4.343   5.534  12.712  2.4423 -0.7339  0.9941
 4871TIP3    H236105   4.360   5.685  12.712 -2.5157 -0.0103 -0.5815
 4872TIP3   OH236106   5.983   0.322  14.123  0.4434 -0.1460  0.2044
 4872TIP3    H136107   6.027   0.294  14.203  3.4214  1.1324 -0.8624
 4872TIP3    H236108   6.031   0.278  14.053 -1.0393  0.0863 -1.0174
 4873TIP3   OH236109   2.039   6.431   1.459  0.2116 -0.1182  0.0602
 4873TIP3    H136110   2.067   6.461   1.546 -0.9974  0.6085  0.2196
 4873TIP3    H236111   2.015   6.511   1.413 -0.8319 -0.6502 -0.3392
 4874TIP3   OH236112   6.976   1.672  10.128 -0.3397  0.0790 -0.3423
 4874TIP3    H136113   7.063   1.710  10.115 -0.6270  0.9102  0.0881
 4874TIP3    H236114   6.982   1.584  10.091  0.6545  0.1643 -0.4005
 4875TIP3   OH236115   1.255   2.957   9.996 -1.0878 -0.1017  0.2316
 4875TIP3    H136116   1.274   2.983  10.086 -0.4487 -0.2464  0.1386
 4875TIP3    H236117   1.224   3.037   9.954 -2.6473 -0.3065  0.9139
 4876TIP3   OH236118   5.829   6.266  14.135  0.4043 -0.0580  0.0754
 4876TIP3    H136119   5.795   6.344  14.091  0.8810  2.9159  4.3584
 4876TIP3    H236120   5.924   6.277  14.132  0.4699 -0.4474  0.7057
 4877TIP3   OH236121   5.590   1.667  15.357 -0.5263 -0.3264 -0.5747
 4877TIP3    H136122   5.547   1.731  15.301 -0.4685  2.1967  2.0135
 4877TIP3    H236123   5.551   1.681  15.444  2.3180 -0.9685  0.9430
 4878TIP3   OH236124   0.877   2.103  13.526  0.1905  0.7649 -0.7820
 4878TIP3    H136125   0.970   2.089  13.543  0.0327  0.6443  0.0509
 4878TIP3    H236126   0.832   2.044  13.587 -0.4328  0.7650 -1.2252
 4879TIP3   OH236127   7.174   4.749  11.615  0.4199 -0.1996 -0.4327
 4879TIP3    H136128   7.228   4.779  11.689  0.0392 -0.6145  0.0197
 4879TIP3    H236129   7.237   4.731  11.546  0.6883  1.4647 -0.6776
 4880TIP3   OH236130   6.910   3.835  10.448  0.3451  0.3735  0.0582
 4880TIP3    H136131   6.961   3.876  10.378  2.0032  1.7150  1.9475
 4880TIP3    H236132   6.939   3.878  10.528 -0.1003 -2.3553  1.8343
 4881TIP3   OH236133   0.898   0.617  15.334  0.1586 -0.1771  0.2770
 4881TIP3    H136134   0.827   0.555  15.349  0.5450 -1.1319 -1.5705
 4881TIP3    H236135   0.934   0.593  15.249 -0.5602  3.4264 -1.2417
 4882TIP3   OH236136   2.901   1.963  11.148  0.2275  0.8089  0.2523
 4882TIP3    H136137   2.856   1.880  11.167  1.8021 -0.3256 -0.7546
 4882TIP3    H236138   2.833   2.017  11.107 -0.9734  0.2446  1.4082
 4883TIP3   OH236139   1.893   4.447  13.619  0.3991  0.0513  0.4620
 4883TIP3    H136140   1.972   4.486  13.656 -0.3427  1.4269  0.6690
 4883TIP3    H236141   1.924   4.376  13.564  1.7844  0.7070  0.3726
 4884TIP3   OH236142   2.420   0.741  14.126  0.1288  0.7071  0.3575
 4884TIP3    H136143   2.383   0.823  14.093  0.6427  1.0174  0.5415
 4884TIP3    H236144   2.510   0.763  14.152  0.7221 -0.2026 -0.8149
 4885TIP3   OH236145   4.100   0.092   2.653 -0.7196  0.0918 -0.5645
 4885TIP3    H136146   4.168   0.082   2.587  0.3452 -0.7753  0.6137
 4885TIP3    H236147   4.136   0.154   2.715 -1.1362 -0.1231 -0.1006
 4886TIP3   OH236148   2.067   4.864  10.254  0.0543 -1.0993  0.4695
 4886TIP3    H136149   2.142   4.901  10.301 -0.1388 -0.7430  0.5052
 4886TIP3    H236150   2.102   4.841  10.168  0.3721 -1.6023  0.7285
 4887TIP3   OH236151   1.988   0.578  12.660  0.2164 -0.5851  0.0121
 4887TIP3    H136152   2.003   0.637  12.586  1.4890 -1.0548 -0.1231
 4887TIP3    H236153   2.063   0.592  12.718  0.0257 -1.3525  0.4534
 4888TIP3   OH236154   4.045   5.540  11.637  0.3182 -0.0785  0.1981
 4888TIP3    H136155   3.977   5.568  11.575 -1.5294 -0.8541  1.7719
 4888TIP3    H236156   4.055   5.446  11.620 -0.1221 -0.2722  0.9736
 4889TIP3   OH236157   3.926   1.622   5.232  0.2527  0.0791 -0.4149
 4889TIP3    H136158   3.843   1.600   5.190 -0.6186 -0.0595  1.2868
 4889TIP3    H236159   3.904   1.629   5.326  2.2469 -0.3778  0.1233
 4890TIP3   OH236160   4.716   3.735  11.930  0.5283  0.5575 -0.0647
 4890TIP3    H136161   4.647   3.745  11.865  1.8120  1.3687 -1.3494
 4890TIP3    H236162   4.754   3.648  11.913  0.6381  0.6277 -0.1803
 4891TIP3   OH236163   0.214   2.942  10.722  0.2915 -0.3110 -0.3611
 4891TIP3    H136164   0.308   2.937  10.702  0.1652 -1.3888 -0.7505
 4891TIP3    H236165   0.195   3.036  10.722  1.2387 -0.1001 -0.8787
 4892TIP3   OH236166   3.275   4.734  12.710 -0.1230 -0.3528 -0.3218
 4892TIP3    H136167   3.366   4.744  12.681  0.1802  0.3245  0.8166
 4892TIP3    H236168   3.264   4.640  12.724  0.6413 -0.3660  0.2574
 4893TIP3   OH236169   0.086   4.734  11.387  0.2426  0.1649  0.1490
 4893TIP3    H136170   0.113   4.826  11.388  1.7024 -0.2419  0.2276
 4893TIP3    H236171   0.022   4.729  11.315  0.0150  1.2696  0.2619
 4894TIP3   OH236172   1.657   7.015  12.281 -0.1847  0.4475  0.4194
 4894TIP3    H136173   1.605   7.070  12.223 -0.6964  1.4218  1.7491
 4894TIP3    H236174   1.599   6.941  12.302  0.6166 -0.8346 -1.6163
 4895TIP3   OH236175   4.482   3.809  10.332 -0.0955 -0.3011 -0.8779
 4895TIP3    H136176   4.510   3.897  10.306  1.1855 -0.0370  1.1726
 4895TIP3    H236177   4.387   3.811  10.322 -0.0806  1.2422 -1.0839
 4896TIP3   OH236178   6.360   0.539  12.953 -0.4811 -0.0333 -0.6127
 4896TIP3    H136179   6.322   0.496  13.030  1.6147  0.1091  0.5775
 4896TIP3    H236180   6.285   0.568  12.902 -1.9604  0.6797  1.8316
 4897TIP3   OH236181   1.866   7.142  11.345  0.3245 -0.0814 -0.1264
 4897TIP3    H136182   1.800   7.161  11.279 -0.8528  0.8224  1.2571
 4897TIP3    H236183   1.887   7.049  11.332  0.4463  0.1563 -1.9959
 4898TIP3   OH236184   5.416   2.002  14.654 -0.1906  0.2158 -0.1245
 4898TIP3    H136185   5.509   1.985  14.668 -0.0831  0.6994 -0.2534
 4898TIP3    H236186   5.384   1.925  14.606  0.4156  0.6436 -1.2285
 4899TIP3   OH236187   6.941   0.002  12.223 -0.1856 -0.1387 -0.4494
 4899TIP3    H136188   7.030  -0.021  12.249 -0.6375 -0.8207  0.5695
 4899TIP3    H236189   6.902   0.039  12.302 -0.8634  0.0055 -0.8427
 4900TIP3   OH236190   5.300   1.172  13.946 -0.0260 -0.3812  0.8076
 4900TIP3    H136191   5.223   1.210  13.988 -0.3078 -2.0800  1.9057
 4900TIP3    H236192   5.353   1.248  13.920 -1.0886  0.7679  1.8906
 4901TIP3   OH236193   1.920   5.087   1.610  0.1597 -0.1564  0.2704
 4901TIP3    H136194   1.867   5.126   1.540 -1.9688 -0.1839  1.7740
 4901TIP3    H236195   1.941   4.999   1.579 -0.2490  0.0291 -0.5549
 4902TIP3   OH236196   4.001   2.791   0.764 -0.4371  0.1318 -0.2571
 4902TIP3    H136197   4.088   2.767   0.796 -0.0782 -0.5611 -1.6563
 4902TIP3    H236198   3.998   2.886   0.773  0.3774  0.1422  0.0167
 4903TIP3   OH236199   3.047   5.759  11.322 -0.5577  0.1502  0.6584
 4903TIP3    H136200   3.123   5.755  11.264  0.3324 -0.0742  1.7994
 4903TIP3    H236201   3.000   5.678  11.305  0.5951 -0.7074  1.4097
 4904TIP3   OH236202   1.299   4.563  11.585 -0.2441  0.3656 -0.3162
 4904TIP3    H136203   1.326   4.575  11.494 -0.4001  1.6834 -0.2147
 4904TIP3    H236204   1.287   4.469  11.595  0.7344  0.1093 -1.3787
 4905TIP3   OH236205   0.637   6.628   0.261 -0.2433  0.2187  0.0857
 4905TIP3    H136206   0.640   6.718   0.230  0.8883 -0.3338 -1.5719
 4905TIP3    H236207   0.615   6.635   0.354 -1.0154  2.1291 -0.1987
 4906TIP3   OH236208   4.189   0.862  11.478 -0.5284 -0.3428 -0.3040
 4906TIP3    H136209   4.095   0.859  11.460 -0.7654 -0.0816  0.8114
 4906TIP3    H236210   4.222   0.779  11.444 -1.2678 -0.7181 -0.1432
 4907TIP3   OH236211   3.955   5.987   1.328 -0.3958 -0.1098  0.1394
 4907TIP3    H136212   3.984   6.041   1.255 -1.2810  1.2747  0.7598
 4907TIP3    H236213   3.931   5.903   1.289 -2.2800  1.0672 -1.4089
 4908TIP3   OH236214   3.270   4.623  10.182 -0.1959  0.0973 -0.1402
 4908TIP3    H136215   3.308   4.564  10.116  1.5609  0.2186  0.7010
 4908TIP3    H236216   3.178   4.629  10.158 -0.2578 -2.2970 -0.7749
 4909TIP3   OH236217   2.902   6.098  12.264 -0.0346  0.0498 -0.2485
 4909TIP3    H136218   2.936   6.009  12.252 -1.2403 -0.4907  0.2763
 4909TIP3    H236219   2.968   6.154  12.222 -0.7089 -1.2812 -3.3438
 4910TIP3   OH236220   6.399   1.357  14.996  0.0647 -0.4026  0.3145
 4910TIP3    H136221   6.310   1.326  15.013 -0.2978 -0.0817 -0.9282
 4910TIP3    H236222   6.454   1.306  15.056 -0.9250 -0.7485  0.9483
 4911TIP3   OH236223   6.882   2.241  11.533 -0.0595 -0.0134 -0.3115
 4911TIP3    H136224   6.902   2.149  11.517 -2.8745 -0.2445 -3.9351
 4911TIP3    H236225   6.869   2.246  11.628  2.6746 -2.6650  0.3609
 4912TIP3   OH236226   1.092   5.866   1.114 -0.8159 -0.2298  0.1432
 4912TIP3    H136227   1.071   5.773   1.108 -0.0935 -0.3565 -0.8284
 4912TIP3    H236228   1.021   5.910   1.068 -1.5728 -0.2346  1.3040
 4913TIP3   OH236229   4.084   2.794  12.232  0.6918  0.2073  0.5325
 4913TIP3    H136230   4.093   2.878  12.278  1.3593  0.4555 -0.0459
 4913TIP3    H236231   4.109   2.813  12.142  3.3872 -1.1593  0.9091
 4914TIP3   OH236232   2.864   1.445  10.937  0.3251 -0.0039 -0.0785
 4914TIP3    H136233   2.799   1.471  11.002  0.7867  0.8430  0.0536
 4914TIP3    H236234   2.932   1.401  10.988 -0.0939 -0.8144 -0.2054
 4915TIP3   OH236235   5.898   0.827  12.922  0.1405 -0.5454  0.5010
 4915TIP3    H136236   5.829   0.838  12.856  0.0674  1.0757  0.8152
 4915TIP3    H236237   5.902   0.912  12.966  1.7072 -0.9190  1.1062
 4916TIP3   OH236238   2.535   6.677   9.686  0.4184  0.4332 -0.0056
 4916TIP3    H136239   2.550   6.682   9.781 -0.4043  3.0110  0.0843
 4916TIP3    H236240   2.441   6.662   9.677  0.4387  0.5435 -0.4105
 4917TIP3   OH236241   6.611   6.674   9.944  0.4308  1.0034  0.7734
 4917TIP3    H136242   6.623   6.680   9.849 -3.2104  0.2987  0.1082
 4917TIP3    H236243   6.583   6.762   9.970  0.7411  1.0161  1.0634
 4918TIP3   OH236244   1.442   5.273  11.995  0.1109 -0.4677 -0.0147
 4918TIP3    H136245   1.352   5.301  11.978  0.4173 -0.5314 -1.9462
 4918TIP3    H236246   1.495   5.350  11.976  0.7068 -1.3647 -2.3146
 4919TIP3   OH236247   1.598   0.051   0.666 -0.0416  0.5030 -0.0845
 4919TIP3    H136248   1.628   0.142   0.658 -1.9385  1.1994  0.1738
 4919TIP3    H236249   1.503   0.057   0.661 -0.1617 -1.7338 -2.2170
 4920TIP3   OH236250   4.006   0.318  14.381  0.6852 -0.1629  0.0380
 4920TIP3    H136251   3.946   0.391  14.399  1.1420 -0.1645  1.7533
 4920TIP3    H236252   3.963   0.268  14.311 -1.1749 -0.0036  1.0031
 4921TIP3   OH236253   4.377   6.454  12.875  0.2679 -0.4208  0.8083
 4921TIP3    H136254   4.298   6.477  12.826  1.6696  2.0978 -0.4765
 4921TIP3    H236255   4.427   6.400  12.813  1.1821  1.1547  0.1243
 4922TIP3   OH236256   2.361   1.894  12.108 -0.2431 -0.5448 -0.2163
 4922TIP3    H136257   2.374   1.805  12.139 -0.5414 -0.8427 -0.9231
 4922TIP3    H236258   2.303   1.885  12.032  0.4067  0.1605 -0.8181
 4923TIP3   OH236259   2.021   2.726  11.227  0.1339 -0.3629 -0.2381
 4923TIP3    H136260   2.082   2.799  11.214 -1.8042  1.4299  0.2076
 4923TIP3    H236261   2.062   2.673  11.296  1.7061  0.1238 -0.7494
 4924TIP3   OH236262   5.311   3.594  14.067 -0.5704 -0.3819  0.0686
 4924TIP3    H136263   5.323   3.655  14.140 -1.0312  0.3349 -0.4455
 4924TIP3    H236264   5.307   3.649  13.989  0.4817 -1.1720 -0.5886
 4925TIP3   OH236265   0.938   1.118  15.153 -0.0133 -0.0049  0.2904
 4925TIP3    H136266   0.876   1.046  15.168  0.6782 -0.7599 -0.3611
 4925TIP3    H236267   0.909   1.159  15.072  0.6600 -0.7350 -0.3385
 4926TIP3   OH236268   0.792   6.816  14.002 -0.2884  0.0384 -0.3124
 4926TIP3    H136269   0.729   6.770  13.947 -0.4642  0.4638 -0.4712
 4926TIP3    H236270   0.772   6.909  13.989 -0.0066  0.1585  0.0820
 4927TIP3   OH236271   7.030   4.544  14.489 -0.3026 -0.3534  0.1029
 4927TIP3    H136272   6.956   4.490  14.518 -1.2327  0.9847  0.2815
 4927TIP3    H236273   7.086   4.482  14.442 -1.7212 -1.3314 -0.3974
 4928TIP3   OH236274   6.955   6.390  12.248  0.6468  0.0905  0.4552
 4928TIP3    H136275   6.984   6.463  12.303  0.9233 -0.1358  0.6093
 4928TIP3    H236276   7.002   6.401  12.166  1.1242 -0.2382  0.6808
 4929TIP3   OH236277   6.987   3.620  14.137 -0.0319 -0.1726 -0.1643
 4929TIP3    H136278   7.020   3.674  14.209 -2.2774  1.4639 -0.2535
 4929TIP3    H236279   6.892   3.626  14.145 -0.3326 -1.7630 -1.9862
 4930TIP3   OH236280   4.390   0.941  12.076  0.8515 -0.2506 -0.4193
 4930TIP3    H136281   4.328   0.992  12.128  1.5018  1.3185 -1.1022
 4930TIP3    H236282   4.352   0.853  12.071 -0.3422  0.1695  0.7672
 4931TIP3   OH236283   3.728   4.315  13.966  0.4959  0.4598 -0.2332
 4931TIP3    H136284   3.786   4.390  13.958  0.0778  0.6897 -1.4447
 4931TIP3    H236285   3.686   4.309  13.880 -0.0392 -0.6982  0.0902
 4932TIP3   OH236286   4.383   6.245  11.767 -0.4257  0.5006  0.3866
 4932TIP3    H136287   4.378   6.326  11.716 -0.5090  1.6279  2.0894
 4932TIP3    H236288   4.476   6.232  11.782 -0.4181  0.3479  0.2009
 4933TIP3   OH236289   6.814   3.780  11.034  0.5224 -0.1741 -0.5364
 4933TIP3    H136290   6.870   3.780  10.956  1.0658  0.5336 -0.1578
 4933TIP3    H236291   6.754   3.854  11.020  0.3495 -0.3033 -0.4751
 4934TIP3   OH236292   6.529   5.028  12.770  0.2122 -0.0807 -0.4668
 4934TIP3    H136293   6.494   5.083  12.700 -0.1403 -0.1335 -0.3360
 4934TIP3    H236294   6.474   5.047  12.846 -0.0932 -0.8091 -0.4940
 4935TIP3   OH236295   3.734   4.789  13.424  0.0495 -0.3031 -0.1322
 4935TIP3    H136296   3.697   4.773  13.337 -2.4186  1.3458  0.5241
 4935TIP3    H236297   3.673   4.746  13.484  0.1896  0.8958  0.9118
 4936TIP3   OH236298   3.809   0.794  12.202 -0.0508  0.2704 -0.3226
 4936TIP3    H136299   3.829   0.870  12.257 -0.6202  0.0445  0.2197
 4936TIP3    H236300   3.729   0.819  12.155 -0.0422  0.1450 -0.4041
 4937TIP3   OH236301   6.630   3.708  13.756  0.4225  0.5350  0.4020
 4937TIP3    H136302   6.600   3.761  13.683 -1.0155 -0.2187  0.4064
 4937TIP3    H236303   6.678   3.635  13.715 -0.6690 -0.0687  0.1635
 4938TIP3   OH236304   3.395   2.564  14.546 -0.2232  0.0534 -0.1783
 4938TIP3    H136305   3.347   2.499  14.596  0.6347 -0.6468 -0.2509
 4938TIP3    H236306   3.456   2.603  14.608  1.6769 -1.6387 -0.8709
 4939TIP3   OH236307   0.213   5.370  10.827 -0.1698 -0.3136 -0.0297
 4939TIP3    H136308   0.184   5.447  10.779  1.0574  1.3159  1.7199
 4939TIP3    H236309   0.305   5.359  10.803  0.2476  0.0685  1.3209
 4940TIP3   OH236310   0.472   5.385  10.676  0.2291 -0.2307 -0.3868
 4940TIP3    H136311   0.437   5.406  10.589 -3.3826  0.1011  1.0049
 4940TIP3    H236312   0.514   5.299  10.665 -0.5051 -0.3824 -2.3492
 4941TIP3   OH236313   2.233   4.259  14.967  0.1854  0.8173  0.1638
 4941TIP3    H136314   2.249   4.326  14.900 -1.9693  1.8278  0.5484
 4941TIP3    H236315   2.255   4.177  14.924 -0.5779  1.4906 -1.6413
 4942TIP3   OH236316   3.137   0.741  12.663  1.0561 -0.6920 -0.3088
 4942TIP3    H136317   3.223   0.759  12.624  2.1662 -4.0138  0.2955
 4942TIP3    H236318   3.157   0.695  12.744 -1.3379  0.0852  0.8077
 4943TIP3   OH236319   2.677   7.212  13.803  0.0588  0.3672  0.1313
 4943TIP3    H136320   2.595   7.254  13.828 -1.2360 -1.1463 -1.3038
 4943TIP3    H236321   2.724   7.277  13.750 -0.4948  1.0368  0.4636
 4944TIP3   OH236322   3.018   4.574   0.458  0.0914 -0.1509  0.3451
 4944TIP3    H136323   2.937   4.625   0.457 -0.5138 -1.0783  0.0805
 4944TIP3    H236324   3.059   4.596   0.541 -0.8285 -0.2579  0.8472
 4945TIP3   OH236325   2.683   7.140   9.724  0.3562  0.2891  0.5220
 4945TIP3    H136326   2.705   7.122   9.633 -0.3251  1.3913  0.1111
 4945TIP3    H236327   2.601   7.190   9.720  2.0568  3.4904  1.4649
 4946TIP3   OH236328   3.369   4.602   4.663  0.3333 -0.0258  0.0630
 4946TIP3    H136329   3.388   4.661   4.590 -0.8290  0.0537 -0.1842
 4946TIP3    H236330   3.435   4.625   4.729  1.0753  0.2514 -0.7541
 4947TIP3   OH236331   0.776   0.924  12.241  0.0050  0.0562 -0.4196
 4947TIP3    H136332   0.695   0.956  12.202 -0.0167 -0.7723 -1.0808
 4947TIP3    H236333   0.804   0.853  12.184  0.0432 -1.1025  0.9640
 4948TIP3   OH236334   1.619   0.972   9.835  1.0318 -0.0114  0.1346
 4948TIP3    H136335   1.625   0.893   9.781 -2.1883 -0.8923  0.8419
 4948TIP3    H236336   1.622   0.940   9.925 -1.2794  0.4691  0.4360
 4949TIP3   OH236337   7.001   2.538   9.971 -0.2383 -0.4584 -0.0595
 4949TIP3    H136338   7.036   2.626   9.985 -0.1398 -0.4333 -0.4595
 4949TIP3    H236339   6.973   2.510  10.058  0.6551 -0.4288  0.2542
 4950TIP3   OH236340   2.530   1.906  14.860  0.5119 -0.9126  0.2068
 4950TIP3    H136341   2.606   1.863  14.821  1.7990  0.8291  0.6501
 4950TIP3    H236342   2.460   1.893  14.797  1.5267 -1.4258 -0.8514
 4951TIP3   OH236343   2.524   5.217  10.066  0.1854 -0.6142 -0.3275
 4951TIP3    H136344   2.446   5.212  10.122 -0.3957  0.0775 -1.0495
 4951TIP3    H236345   2.501   5.281   9.998 -0.8171 -4.3639 -3.9346
 4952TIP3   OH236346   1.336   0.278  15.323  0.0800  0.3164  0.2826
 4952TIP3    H136347   1.385   0.321  15.393  1.0334 -0.6682  0.2364
 4952TIP3    H236348   1.245   0.278  15.354  0.4132  0.3352  1.2954
 4953TIP3   OH236349   1.381   1.441   9.964  0.1150 -0.0552 -0.0781
 4953TIP3    H136350   1.417   1.437   9.876 -0.1938  0.3625 -0.2271
 4953TIP3    H236351   1.432   1.510  10.008 -0.1457  0.1692 -0.1251
 4954TIP3   OH236352   3.399   5.803   9.366  0.1333 -0.2948  0.1195
 4954TIP3    H136353   3.369   5.715   9.387 -0.0627 -0.1924  0.2758
 4954TIP3    H236354   3.366   5.857   9.438 -0.8403  0.1227 -0.6179
 4955TIP3   OH236355   3.929   3.317  12.673 -0.7122 -0.0216 -0.3092
 4955TIP3    H136356   3.863   3.247  12.671  0.3424 -1.2250  2.3078
 4955TIP3    H236357   3.886   3.390  12.717 -1.4036  0.5443 -1.8756
 4956TIP3   OH236358   3.097   1.698  15.017 -0.0612 -0.1609  0.4795
 4956TIP3    H136359   3.172   1.675  14.962 -0.3337  1.5464 -0.7037
 4956TIP3    H236360   3.022   1.660  14.972  0.0361 -1.9794  1.7310
 4957TIP3   OH236361   6.840   5.886  10.648  0.1972  0.4332 -0.3302
 4957TIP3    H136362   6.912   5.824  10.640  0.1043  0.4382 -1.3667
 4957TIP3    H236363   6.808   5.898  10.558 -0.2131  1.4724 -0.0665
 4958TIP3   OH236364   5.416   1.585  13.449  0.1614 -0.1015  0.1728
 4958TIP3    H136365   5.454   1.549  13.529 -0.1165 -1.4363 -0.2728
 4958TIP3    H236366   5.481   1.565  13.381 -0.8315 -1.5320 -0.4210
 4959TIP3   OH236367   1.021   3.592  12.772 -0.6863 -0.2299  0.0629
 4959TIP3    H136368   1.037   3.563  12.862 -0.0720 -1.8459 -0.5389
 4959TIP3    H236369   0.928   3.575  12.758 -0.5603 -0.9514  0.0638
 4960TIP3   OH236370   2.928   2.869  14.427 -0.2810 -0.2492 -0.5404
 4960TIP3    H136371   2.839   2.835  14.419 -0.3385 -0.2303 -0.0226
 4960TIP3    H236372   2.931   2.907  14.515  0.1474  0.0194 -0.6679
 4961TIP3   OH236373   1.441   3.703  13.661  0.3533  0.6665 -0.3356
 4961TIP3    H136374   1.427   3.758  13.583 -2.5715 -2.8567 -2.6004
 4961TIP3    H236375   1.379   3.737  13.725  0.6261  1.7193 -0.5990
 4962TIP3   OH236376   5.362   4.215  14.865 -0.1009  0.6977 -0.3616
 4962TIP3    H136377   5.416   4.292  14.884 -0.8910  0.8113  1.7368
 4962TIP3    H236378   5.297   4.245  14.802  0.6505  1.2769 -0.8698
 4963TIP3   OH236379   6.559   5.215  14.452  0.1415 -0.2900 -0.0633
 4963TIP3    H136380   6.648   5.245  14.431 -0.0534  0.5903  0.3220
 4963TIP3    H236381   6.553   5.129  14.412  0.9169 -0.0434 -0.7427
 4964TIP3   OH236382   4.763   3.006   1.546 -0.4521 -0.5873 -0.1884
 4964TIP3    H136383   4.751   3.077   1.609  1.2960 -0.9039  0.5700
 4964TIP3    H236384   4.733   3.042   1.463  0.9712  1.2840  0.0428
 4965TIP3   OH236385   4.411   6.473  11.609  0.4497  0.5445 -0.2317
 4965TIP3    H136386   4.355   6.547  11.633  1.1233  0.7977  0.6224
 4965TIP3    H236387   4.500   6.507  11.615  0.7692 -0.3201  0.1163
 4966TIP3   OH236388   6.153   2.159  14.819 -0.6263 -0.6973  0.0600
 4966TIP3    H136389   6.069   2.177  14.862 -0.5785  0.4305 -0.2948
 4966TIP3    H236390   6.208   2.235  14.841 -0.7381  0.1500 -2.3304
 4967TIP3   OH236391   3.235   4.471  12.719  0.1170 -0.7129 -0.2207
 4967TIP3    H136392   3.278   4.391  12.689 -0.2627 -0.9578 -0.1227
 4967TIP3    H236393   3.141   4.452  12.712  0.0106 -0.0470 -0.8155
 4968TIP3   OH236394   3.554   2.084   9.958 -0.3085  0.1377  0.6331
 4968TIP3    H136395   3.609   2.017   9.916  1.6940 -0.0600  3.2859
 4968TIP3    H236396   3.465   2.063   9.930  0.7395 -0.0614 -3.2090
 4969TIP3   OH236397   4.987   0.278   3.938 -0.3280 -0.5387 -0.2757
 4969TIP3    H136398   4.930   0.310   4.008  1.9274  1.8828  0.5984
 4969TIP3    H236399   5.030   0.202   3.976  0.0098  0.0556  0.5646
 4970TIP3   OH236400   5.903   1.088  12.359 -0.1554  0.3065  0.4989
 4970TIP3    H136401   5.824   1.082  12.306 -0.1798  0.3105  0.5351
 4970TIP3    H236402   5.971   1.118  12.298 -0.5769  2.1394  0.8699
 4971TIP3   OH236403   3.757   0.485  14.388 -0.4888  0.1385 -0.2067
 4971TIP3    H136404   3.710   0.459  14.467 -1.6871 -0.3569 -1.0390
 4971TIP3    H236405   3.688   0.512  14.327  0.3834  0.3364 -1.1393
 4972TIP3   OH236406   5.386   1.703  15.179 -0.6464 -0.1939 -0.3269
 4972TIP3    H136407   5.325   1.722  15.250  0.5944 -1.1627  1.0459
 4972TIP3    H236408   5.417   1.614  15.197 -0.3695 -0.5151 -2.1528
 4973TIP3   OH236409   5.178   2.069  10.004 -0.1781  0.1254 -0.3810
 4973TIP3    H136410   5.152   2.069   9.912 -0.8063 -0.0031 -0.2074
 4973TIP3    H236411   5.114   2.125  10.047 -0.1488 -0.1652  0.0449
 4974TIP3   OH236412   4.698   2.055   3.101 -0.2383 -0.1655  0.2393
 4974TIP3    H136413   4.781   2.084   3.140  0.5092  0.2690 -1.5508
 4974TIP3    H236414   4.644   2.134   3.101  0.9990  0.8309 -2.5903
 4975TIP3   OH236415   0.324   6.765   0.423  0.3543  0.1520 -0.2205
 4975TIP3    H136416   0.332   6.843   0.369 -0.3746 -0.1797 -0.8277
 4975TIP3    H236417   0.282   6.700   0.366  0.7542 -0.6135  0.3392
 4976TIP3   OH236418   3.347   6.471   9.788  0.4343  0.2374  0.6101
 4976TIP3    H136419   3.292   6.396   9.764  1.1508  0.6116 -2.7130
 4976TIP3    H236420   3.339   6.478   9.883 -0.4897 -3.3572  0.9169
 4977TIP3   OH236421   5.548   2.679   9.833 -0.1963 -0.4817 -0.2937
 4977TIP3    H136422   5.637   2.689   9.868 -0.2132  2.7610 -0.8990
 4977TIP3    H236423   5.552   2.599   9.781  1.8597 -1.3603  1.0529
 4978TIP3   OH236424   3.372   2.228  14.900  0.5906  0.0791 -0.2016
 4978TIP3    H136425   3.355   2.314  14.861 -1.2029 -0.7103 -1.3109
 4978TIP3    H236426   3.451   2.240  14.952  0.8373  2.1918 -0.9720
 4979TIP3   OH236427   3.352   5.305  14.661 -0.5303  0.1794 -0.3403
 4979TIP3    H136428   3.288   5.315  14.731 -1.7507  3.3255 -1.7138
 4979TIP3    H236429   3.300   5.286  14.583  0.4649  0.0915 -1.0057
 4980TIP3   OH236430   2.163   1.248   0.868 -0.0532  0.1511 -0.5333
 4980TIP3    H136431   2.087   1.192   0.851 -0.3861  1.0390 -2.1987
 4980TIP3    H236432   2.237   1.187   0.871 -0.3837 -0.4299 -2.4203
 4981TIP3   OH236433   1.573   1.586  11.151 -0.2984 -0.5402  0.3376
 4981TIP3    H136434   1.584   1.493  11.171 -1.3465 -0.2000  2.9281
 4981TIP3    H236435   1.479   1.598  11.140 -0.2235  0.2818  0.4963
 4982TIP3   OH236436   6.346   6.843  12.060  0.0735  0.1891 -0.1214
 4982TIP3    H136437   6.344   6.891  12.143  2.9185 -3.7489  2.5529
 4982TIP3    H236438   6.256   6.813  12.048 -0.8766  2.6271  0.1933
 4983TIP3   OH236439   0.555   6.451  12.303 -0.1830  0.0560  0.2962
 4983TIP3    H136440   0.492   6.413  12.241 -3.5914  3.8393  0.9711
 4983TIP3    H236441   0.594   6.524  12.256  1.0993 -0.1193  1.0480
 4984TIP3   OH236442   4.151   2.946  12.605  0.1526 -0.4774 -0.8239
 4984TIP3    H136443   4.078   2.999  12.572 -0.0034  0.9308  1.5864
 4984TIP3    H236444   4.228   3.000  12.592 -0.0265  0.5680  1.7929
 4985TIP3   OH236445   4.158   1.197  15.323  0.0732  0.2158 -0.1069
 4985TIP3    H136446   4.079   1.251  15.329  0.0073  0.0794  0.2396
 4985TIP3    H236447   4.130   1.121  15.272 -0.8943 -1.3939  2.6076
 4986TIP3   OH236448   2.618   1.881  11.051 -0.1723  0.4365 -0.0693
 4986TIP3    H136449   2.537   1.929  11.035  0.2319  1.7963  1.7575
 4986TIP3    H236450   2.615   1.858  11.144  0.1362 -2.2513 -0.6158
 4987TIP3   OH236451   3.717   1.417  10.987  0.3642 -0.0717 -0.0084
 4987TIP3    H136452   3.691   1.491  10.933  0.8082 -0.7970 -1.2586
 4987TIP3    H236453   3.813   1.415  10.981  0.4479 -0.0011  1.0489
 4988TIP3   OH236454   3.981   2.101  10.239 -0.6324  0.0860 -0.3602
 4988TIP3    H136455   3.909   2.161  10.221  0.5992  1.4330 -1.0593
 4988TIP3    H236456   3.980   2.089  10.333 -2.3013 -0.6494 -0.4477
 4989TIP3   OH236457   4.539   5.701  10.747  0.0496 -0.7257 -0.1651
 4989TIP3    H136458   4.538   5.754  10.827 -1.3179 -1.4910  0.3620
 4989TIP3    H236459   4.518   5.763  10.677 -0.1579 -0.3089  0.2613
 4990TIP3   OH236460   5.837   1.620  12.063  0.2597  0.3220 -0.5600
 4990TIP3    H136461   5.823   1.553  12.130  1.6428  1.4303  0.8855
 4990TIP3    H236462   5.839   1.570  11.981 -2.1767 -0.9826  0.0743
 4991TIP3   OH236463   5.749   1.839  10.474 -0.4910  0.2609 -0.1476
 4991TIP3    H136464   5.824   1.781  10.462 -1.0036 -0.9287  1.9978
 4991TIP3    H236465   5.788   1.926  10.487  0.5234 -0.2832  0.5940
 4992TIP3   OH236466   0.254   6.408  10.053  0.5381 -0.1407  0.1859
 4992TIP3    H136467   0.331   6.384  10.002 -0.6925 -1.6609 -1.0260
 4992TIP3    H236468   0.203   6.328  10.059 -1.8676  1.2317 -0.6436
 4993TIP3   OH236469   6.465   5.897  12.745  0.1837  0.0139  0.2964
 4993TIP3    H136470   6.472   5.869  12.836  0.0919  0.6812  0.5122
 4993TIP3    H236471   6.373   5.917  12.732  0.5386  2.2127  0.7674
 4994TIP3   OH236472   2.134   0.697   9.874  0.0706  0.1990 -0.2308
 4994TIP3    H136473   2.149   0.684   9.781  0.3775  0.9217 -0.2869
 4994TIP3    H236474   2.217   0.674   9.915 -0.9004 -3.1293  0.2009
 4995TIP3   OH236475   0.066   6.785  10.071  0.8484  0.1309 -0.1384
 4995TIP3    H136476   0.044   6.809  10.161  1.9502  0.1718  0.1394
 4995TIP3    H236477   0.035   6.859  10.019  1.5755  0.8362  0.3918
 4996TIP3   OH236478   6.227   1.447  11.256 -0.7800 -0.0928  0.4590
 4996TIP3    H136479   6.161   1.514  11.276 -1.4315 -0.3696 -0.6814
 4996TIP3    H236480   6.223   1.438  11.160 -0.0962 -1.1456  0.5204
 4997TIP3   OH236481   5.538   2.373  11.850  0.2593 -0.0882  0.2954
 4997TIP3    H136482   5.554   2.279  11.841 -1.3945 -0.4531  0.6973
 4997TIP3    H236483   5.595   2.400  11.921 -1.0125 -1.3562  1.8998
 4998TIP3   OH236484   6.147   4.276  13.297  0.4522  0.6457  0.0506
 4998TIP3    H136485   6.231   4.234  13.316 -0.5881 -2.7525 -1.9676
 4998TIP3    H236486   6.149   4.292  13.203 -1.6918 -1.1215 -0.3810
 4999TIP3   OH236487   3.129   0.009   5.282  0.2242 -0.3412 -0.1702
 4999TIP3    H136488   3.143  -0.070   5.335 -1.4706  0.6166  1.8922
 4999TIP3    H236489   3.105  -0.024   5.195  1.0715 -2.0476  0.2089
 5000TIP3   OH236490   4.096   0.754  10.948 -0.2075 -0.0803  0.1055
 5000TIP3    H136491   4.142   0.690  10.894  1.3860  1.4127 -0.3787
 5000TIP3    H236492   4.144   0.755  11.031  0.6078  1.3678 -0.3451
 5001TIP3   OH236493   3.303   1.913  14.086  0.5890 -0.4134 -0.9171
 5001TIP3    H136494   3.328   1.850  14.153  0.0302 -0.6653 -0.9391
 5001TIP3    H236495   3.245   1.864  14.027  1.5130 -0.3555 -1.9046
 5002TIP3   OH236496   0.388   1.021  11.254  0.2015  0.1337  0.0781
 5002TIP3    H136497   0.468   0.977  11.283 -0.2866 -0.9884 -0.2040
 5002TIP3    H236498   0.413   1.113  11.245  1.4310 -0.1813  0.0665
 5003TIP3   OH236499   4.763   5.665  11.207 -0.1182 -0.0654 -0.2034
 5003TIP3    H136500   4.794   5.580  11.178 -0.2233 -0.8813  1.9234
 5003TIP3    H236501   4.827   5.694  11.272 -0.1982  1.4002 -0.7221
 5004TIP3   OH236502   6.465   2.142  11.883  0.4646  0.3925 -0.0242
 5004TIP3    H136503   6.537   2.203  11.900  1.2398 -0.6667  0.5659
 5004TIP3    H236504   6.429   2.122  11.970  0.2733 -0.0555 -0.2037
 5005TIP3   OH236505   6.699   4.320  12.256 -0.0297  0.0476 -0.3240
 5005TIP3    H136506   6.774   4.284  12.304  1.0188  3.2313  0.6656
 5005TIP3    H236507   6.701   4.276  12.171  0.2600 -3.0969  1.1492
 5006TIP3   OH236508   6.544   5.001   9.185 -0.4900  0.0470 -0.1639
 5006TIP3    H136509   6.586   4.932   9.236 -2.3882 -0.9768  0.1127
 5006TIP3    H236510   6.589   5.000   9.100  1.3904  0.4398  0.7820
 5007TIP3   OH236511   6.776   5.594  14.096 -0.0038 -0.3511 -0.5608
 5007TIP3    H136512   6.735   5.591  14.182  0.6247 -2.2265 -0.2803
 5007TIP3    H236513   6.704   5.615  14.036 -0.7701 -0.6337  0.2417
 5008TIP3   OH236514   0.179   2.855   5.008 -0.2701  0.2017  0.2548
 5008TIP3    H136515   0.087   2.864   5.032 -0.2601  1.4186 -0.0640
 5008TIP3    H236516   0.185   2.772   4.961 -1.3523  0.4504 -0.3483
 5009TIP3   OH236517   7.172   1.000  13.126 -0.5870  0.3837 -0.4544
 5009TIP3    H136518   7.111   1.031  13.192  0.5222  1.0061  0.3130
 5009TIP3    H236519   7.252   1.052  13.141  0.6860 -1.5191 -0.3717
 5010TIP3   OH236520   5.976   3.336  12.179  0.1939 -0.1423  0.2136
 5010TIP3    H136521   6.014   3.258  12.138  0.7169 -0.1300  0.6600
 5010TIP3    H236522   6.033   3.354  12.254 -0.7088 -0.1394  0.9295
 5011TIP3   OH236523   4.927   6.661  11.849 -0.7662  0.4359  0.0255
 5011TIP3    H136524   4.979   6.731  11.809 -2.5571  0.5366 -2.4008
 5011TIP3    H236525   4.988   6.589  11.861  0.3094  1.1260 -1.0806
 5012TIP3   OH236526   4.549   6.509  14.057 -0.0012  0.3901  0.6194
 5012TIP3    H136527   4.543   6.458  14.137 -1.8732  0.4351  0.5442
 5012TIP3    H236528   4.480   6.473  14.000  2.0653 -0.4989 -1.5065
 5013TIP3   OH236529   0.136   1.791   9.940  0.4345  0.7316  0.8451
 5013TIP3    H136530   0.068   1.839   9.893  0.0386  0.7208  1.4052
 5013TIP3    H236531   0.101   1.702   9.948  0.8272  0.5392  0.5036
 5014TIP3   OH236532   1.675   5.962  13.522  0.3033  0.1203  0.4433
 5014TIP3    H136533   1.684   5.960  13.427 -2.3980 -0.2876  0.1285
 5014TIP3    H236534   1.692   5.872  13.549 -2.3357 -0.6431 -0.1295
 5015TIP3   OH236535   2.888   1.058  12.177  0.2253  0.7403  0.4230
 5015TIP3    H136536   2.873   1.009  12.097 -0.3189  2.1218 -0.3590
 5015TIP3    H236537   2.948   1.004  12.228  0.3629 -0.2862 -0.7929
 5016TIP3   OH236538   3.924   4.488   1.959  0.1419  0.0150 -0.0044
 5016TIP3    H136539   3.978   4.417   1.924  0.3623 -1.0462  2.3233
 5016TIP3    H236540   3.962   4.568   1.921  1.7430 -0.8909 -0.4063
 5017TIP3   OH236541   5.433   1.306  13.595  0.3267  0.3155  0.0078
 5017TIP3    H136542   5.513   1.278  13.551  0.8830 -1.7250  2.1337
 5017TIP3    H236543   5.463   1.338  13.680 -1.1777 -3.0710  2.0136
 5018TIP3   OH236544   3.981   3.111  12.517  0.3053  0.4602 -0.6854
 5018TIP3    H136545   3.893   3.115  12.480  0.1250  0.5276 -0.2537
 5018TIP3    H236546   3.992   3.193  12.565  0.0858 -0.1200  0.3958
 5019TIP3   OH236547   3.811   3.000  11.957 -0.5857  0.1899  0.5137
 5019TIP3    H136548   3.759   2.946  11.897  1.1589 -0.5534 -0.3994
 5019TIP3    H236549   3.821   2.946  12.035 -2.1416  0.8158  1.1771
 5020TIP3   OH236550   4.528   2.227  10.040  0.8116  0.1814 -0.3900
 5020TIP3    H136551   4.575   2.168   9.981  0.2887  1.4040 -2.1036
 5020TIP3    H236552   4.466   2.171  10.087  1.1112 -0.8001 -1.1469
 5021TIP3   OH236553   1.130   5.499   9.866 -0.0320 -0.1403 -0.0441
 5021TIP3    H136554   1.114   5.485   9.773 -2.2260 -1.8366  0.4872
 5021TIP3    H236555   1.205   5.442   9.886  0.2909  0.0425 -0.7197
 5022TIP3   OH236556   1.559   6.176  15.179 -0.0211  0.6712 -0.1651
 5022TIP3    H136557   1.583   6.143  15.266  0.4424  1.1631 -0.1007
 5022TIP3    H236558   1.626   6.241  15.159  0.3751 -0.0664 -1.2842
 5023TIP3   OH236559   3.708   5.006  10.366 -0.3089 -0.0642  0.2146
 5023TIP3    H136560   3.772   4.938  10.344 -2.0798 -2.3907  1.7344
 5023TIP3    H236561   3.705   5.006  10.461 -2.8693 -0.4403  0.1999
 5024TIP3   OH236562   6.121   3.147  10.520 -0.4514 -0.2325 -0.1193
 5024TIP3    H136563   6.206   3.105  10.505  0.2623 -0.3557  3.3751
 5024TIP3    H236564   6.081   3.095  10.589 -1.9857  1.6295  0.4822
 5025TIP3   OH236565   2.398   4.513   1.020  0.4491 -0.2848 -0.2701
 5025TIP3    H136566   2.433   4.429   1.049  1.3444  0.6820  1.6922
 5025TIP3    H236567   2.448   4.578   1.070  0.5279  1.4871 -2.4922
 5026TIP3   OH236568   6.007   5.204  11.609  0.2756 -0.1977 -0.3728
 5026TIP3    H136569   5.977   5.121  11.644 -0.5636 -0.0084 -0.6320
 5026TIP3    H236570   5.988   5.268  11.678  0.6982 -0.1765 -0.2707
 5027TIP3   OH236571   5.561   5.801   4.259  0.2446 -0.2743 -0.0894
 5027TIP3    H136572   5.582   5.715   4.294  1.0995 -0.0006  0.1013
 5027TIP3    H236573   5.475   5.821   4.294  1.1934  0.1351  2.1966
 5028TIP3   OH236574   6.242   3.115   1.649 -0.5869 -0.0131  0.8028
 5028TIP3    H136575   6.201   3.095   1.566 -1.1920 -3.1865  1.7332
 5028TIP3    H236576   6.189   3.070   1.714  0.7439  1.0791  2.7713
 5029TIP3   OH236577   3.640   4.083  12.415  0.0928 -0.0894  0.2865
 5029TIP3    H136578   3.581   4.007  12.409  2.0778 -1.9846  2.7102
 5029TIP3    H236579   3.663   4.102  12.324 -0.6215 -2.2636 -0.4265
 5030TIP3   OH236580   0.494   1.020   3.635  0.2390 -0.2565 -0.3552
 5030TIP3    H136581   0.414   1.065   3.662  0.4188  0.0387 -0.3078
 5030TIP3    H236582   0.563   1.064   3.684  0.3856 -0.7665 -0.1015
 5031TIP3   OH236583   6.232   6.823   9.565  0.6849  0.0096 -0.6352
 5031TIP3    H136584   6.171   6.867   9.506  0.0098 -0.2745 -0.1588
 5031TIP3    H236585   6.284   6.894   9.603 -0.1627  0.3825 -0.1367
 5032TIP3   OH236586   5.319   6.125   0.387 -0.2045  0.0288  0.1868
 5032TIP3    H136587   5.352   6.048   0.433  2.4082 -0.0698 -1.6063
 5032TIP3    H236588   5.347   6.199   0.441  1.9111 -0.1338 -0.5715
 5033TIP3   OH236589   3.198   0.760  10.613  0.4034 -0.1425  0.0007
 5033TIP3    H136590   3.253   0.804  10.678  0.8168 -0.2411 -0.2787
 5033TIP3    H236591   3.182   0.827  10.546 -3.6571  1.4409  2.2099
 5034TIP3   OH236592   1.863   1.234   0.380  0.4176  0.1620 -0.1887
 5034TIP3    H136593   1.932   1.299   0.397  1.0887 -1.1293  2.6640
 5034TIP3    H236594   1.902   1.151   0.407  0.1075 -1.8592 -5.0185
 5035TIP3   OH236595   0.291   0.146  12.905 -0.6336  0.2438  0.3567
 5035TIP3    H136596   0.372   0.185  12.873  0.0781 -0.2139  1.5096
 5035TIP3    H236597   0.259   0.208  12.970 -0.5199 -0.1708  0.8147
 5036TIP3   OH236598   6.747   3.559  11.799  0.3930  0.2966  0.5059
 5036TIP3    H136599   6.767   3.465  11.799  0.4832  0.3151  0.7090
 5036TIP3    H236600   6.734   3.581  11.891 -0.8731  0.2235  0.3659
 5037TIP3   OH236601   1.782   4.976  14.813  0.1891  0.0055  0.0920
 5037TIP3    H136602   1.746   4.990  14.900 -0.2285 -0.0614 -0.0695
 5037TIP3    H236603   1.854   5.040  14.807  1.8005 -1.5778  1.3718
 5038TIP3   OH236604   1.220   1.271  12.924  0.2960 -0.0684 -0.3924
 5038TIP3    H136605   1.132   1.237  12.910  1.0540 -2.1589 -0.4211
 5038TIP3    H236606   1.241   1.246  13.014  0.8882  0.3657 -0.4027
 5039TIP3   OH236607   0.285   7.199   1.699 -0.5254 -0.3524  0.0587
 5039TIP3    H136608   0.341   7.159   1.764  1.1622  0.5190 -0.8033
 5039TIP3    H236609   0.235   7.126   1.662 -0.4017 -1.0602  1.2402
 5040TIP3   OH236610   1.452   5.491  11.068  0.3226  0.4542 -0.5732
 5040TIP3    H136611   1.513   5.552  11.026 -0.7116  2.6810  0.9509
 5040TIP3    H236612   1.464   5.506  11.162 -2.6218  1.0998 -0.2185
 5041TIP3   OH236613   2.016   3.613  13.865  0.5784 -0.4418  0.2893
 5041TIP3    H136614   2.050   3.647  13.948 -0.0419  0.5294  0.1680
 5041TIP3    H236615   2.093   3.609  13.808  0.8552 -0.2644  0.6444
 5042TIP3   OH236616   0.733   5.943  13.298  0.1869  0.0763  0.1741
 5042TIP3    H136617   0.645   5.951  13.335 -0.0491 -1.2379 -0.0701
 5042TIP3    H236618   0.733   6.006  13.225 -0.3340  0.5347  0.5572
 5043TIP3   OH236619   3.083   5.535  11.664  0.0571 -0.2140 -0.6376
 5043TIP3    H136620   3.065   5.442  11.650  1.2078 -0.6190  0.4768
 5043TIP3    H236621   3.045   5.554  11.750  0.3289  0.2188 -0.6108
 5044TIP3   OH236622   1.249   0.871   9.973  0.3399  0.0889  0.1750
 5044TIP3    H136623   1.308   0.906  10.039  1.1605  0.9275 -0.9636
 5044TIP3    H236624   1.162   0.883  10.010  0.7988  0.1124  1.2851
 5045TIP3   OH236625   5.639   3.164   1.173  0.5623 -0.1653 -0.2960
 5045TIP3    H136626   5.572   3.232   1.173  3.0845  2.5381  1.2615
 5045TIP3    H236627   5.707   3.197   1.115  0.9522 -2.4816 -1.2595
 5046TIP3   OH236628   1.224   1.979  14.692  0.0815 -0.2617  0.5046
 5046TIP3    H136629   1.266   2.007  14.774  0.9819 -1.4865  0.4983
 5046TIP3    H236630   1.144   1.935  14.720  0.8250 -1.4499  0.8042
 5047TIP3   OH236631   4.829   1.870  12.176  0.0158  0.3057  0.0367
 5047TIP3    H136632   4.914   1.915  12.175 -0.0800  0.4931 -0.8432
 5047TIP3    H236633   4.800   1.872  12.085  0.2582 -2.0281 -0.1537
 5048TIP3   OH236634   6.306   2.995  10.412 -0.4960 -0.2205 -0.2022
 5048TIP3    H136635   6.379   2.973  10.469 -0.4174  0.8663  0.1225
 5048TIP3    H236636   6.294   2.917  10.357 -1.4348 -1.8632  2.1589
 5049TIP3   OH236637   6.958   3.790  12.332 -0.5561 -0.1986 -0.1832
 5049TIP3    H136638   6.918   3.778  12.246 -2.3256  0.7797  0.4635
 5049TIP3    H236639   6.896   3.751  12.393 -0.1296  0.5877  0.7771
 5050TIP3   OH236640   4.705   5.950  13.846 -0.4761 -0.2957  0.1989
 5050TIP3    H136641   4.616   5.970  13.876 -0.2907 -0.3261  0.7917
 5050TIP3    H236642   4.734   5.879  13.903 -0.2361 -0.5966 -0.2914
 5051TIP3   OH236643   5.536   2.814  14.334  0.3230  0.0384 -0.1356
 5051TIP3    H136644   5.500   2.728  14.357 -1.5790  0.1547 -2.2394
 5051TIP3    H236645   5.628   2.810  14.357 -0.0428 -2.0574  1.1300
 5052TIP3   OH236646   5.286   6.215  10.592 -0.0193 -0.2395  0.3118
 5052TIP3    H136647   5.337   6.142  10.556 -1.4355 -1.7148  1.1796
 5052TIP3    H236648   5.226   6.174  10.654 -0.6653  1.7232  1.0565
 5053TIP3   OH236649   5.067   6.037  12.604 -0.2102  0.3957 -0.1803
 5053TIP3    H136650   5.100   6.000  12.686 -2.3590 -0.2911  0.4299
 5053TIP3    H236651   5.050   5.961  12.549 -1.6264  0.6577 -0.1219
 5054TIP3   OH236652   3.166   6.554   9.502  0.6409  0.0657  0.8438
 5054TIP3    H136653   3.173   6.479   9.442  1.4084  0.8202 -0.0606
 5054TIP3    H236654   3.088   6.601   9.472 -0.3176 -0.7802  1.9291
 5055TIP3   OH236655   4.194   3.508  11.026  0.0398  0.6331 -0.2790
 5055TIP3    H136656   4.284   3.538  11.029 -0.3687  1.9525 -0.3601
 5055TIP3    H236657   4.150   3.569  10.967 -0.8091 -0.2731 -0.6179
 5056TIP3   OH236658   4.857   6.862  14.247 -0.2110 -0.5456  0.1461
 5056TIP3    H136659   4.822   6.884  14.334 -0.4256  0.6523 -0.2297
 5056TIP3    H236660   4.918   6.790  14.264 -0.9953 -1.0063  1.1498
 5057TIP3   OH236661   4.189   1.035  13.362 -0.0297 -0.0862 -0.5091
 5057TIP3    H136662   4.141   0.952  13.356  4.5997 -3.4333  2.0524
 5057TIP3    H236663   4.152   1.078  13.439  0.3298 -2.0810  0.8596
 5058TIP3   OH236664   5.780   3.156  10.553 -0.2184 -0.5639 -0.7556
 5058TIP3    H136665   5.736   3.240  10.563 -0.3064 -0.6559 -0.3673
 5058TIP3    H236666   5.851   3.157  10.618 -0.2919 -0.8356 -0.6682
 5059TIP3   OH236667   7.155   5.984  14.783 -0.0986  0.0816  0.4078
 5059TIP3    H136668   7.222   6.046  14.755 -1.7598  1.3047 -1.1028
 5059TIP3    H236669   7.106   6.031  14.851 -2.0801  0.9883 -1.5317
 5060TIP3   OH236670   3.142   6.316  13.654 -0.3625 -0.0344 -0.0961
 5060TIP3    H136671   3.089   6.237  13.644 -0.4057  0.1485 -1.5509
 5060TIP3    H236672   3.104   6.378  13.591 -0.1554  1.0562  0.8185
 5061TIP3   OH236673   2.103   5.641  15.073 -0.1054 -0.8278 -0.1885
 5061TIP3    H136674   2.148   5.670  14.993  1.3946 -0.8371  0.6098
 5061TIP3    H236675   2.107   5.716  15.131  3.1338 -2.2081  1.6164
 5062TIP3   OH236676   1.559   2.061  10.602  0.5908 -0.0800 -0.4616
 5062TIP3    H136677   1.621   2.125  10.568  0.1107  0.2971 -0.6351
 5062TIP3    H236678   1.600   1.976  10.584  0.8643  0.1517 -0.9500
 5063TIP3   OH236679   1.750   1.430  13.384  0.1893  0.4132  0.5018
 5063TIP3    H136680   1.770   1.337  13.373 -0.8479  0.2236  0.0982
 5063TIP3    H236681   1.810   1.460  13.452 -0.0431 -0.7534  1.2453
 5064TIP3   OH236682   4.427   5.023   0.815 -0.0322 -0.5283  0.7109
 5064TIP3    H136683   4.458   5.088   0.751  0.5592 -0.1937  1.3268
 5064TIP3    H236684   4.331   5.027   0.808 -0.0376  0.9210  1.2152
 5065TIP3   OH236685   3.856   1.137  11.736  0.1364  0.2607  0.6734
 5065TIP3    H136686   3.928   1.200  11.725  0.6208 -0.3204  0.4248
 5065TIP3    H236687   3.780   1.180  11.698  1.1136 -0.5097 -2.4175
 5066TIP3   OH236688   1.747   2.053  11.356 -0.1268  0.0263  0.3352
 5066TIP3    H136689   1.745   1.985  11.423  2.0081 -0.5130 -0.0570
 5066TIP3    H236690   1.713   2.010  11.277  2.3749 -1.1089 -0.2425
 5067TIP3   OH236691   5.755   5.818  10.501 -0.1599 -0.3541  0.5509
 5067TIP3    H136692   5.682   5.824  10.440 -0.1522  1.8101  0.6550
 5067TIP3    H236693   5.791   5.907  10.505  1.3249 -0.9447  1.9098
 5068TIP3   OH236694   5.133   5.141  11.749 -0.6916 -0.1318 -0.5032
 5068TIP3    H136695   5.150   5.046  11.746 -0.8797 -0.1552 -0.8479
 5068TIP3    H236696   5.117   5.159  11.841  0.5489 -0.2281 -0.2426
 5069TIP3   OH236697   2.740   3.911   0.849  0.3622 -0.7481  0.8608
 5069TIP3    H136698   2.686   3.856   0.793 -0.0242  1.1581 -0.7526
 5069TIP3    H236699   2.828   3.905   0.811  0.1000  0.5455  0.0077
 5070TIP3   OH236700   2.178   0.506  11.284 -0.4975 -0.5895 -0.2114
 5070TIP3    H136701   2.228   0.426  11.265  2.1913  0.1472  2.7648
 5070TIP3    H236702   2.093   0.475  11.316 -0.2000 -2.1634 -0.8676
 5071TIP3   OH236703   0.861   2.690   9.906 -0.3522  0.0377 -0.3647
 5071TIP3    H136704   0.820   2.776   9.917  0.9080  0.6189 -0.1364
 5071TIP3    H236705   0.942   2.695   9.955  0.2295 -0.9388 -1.1890
 5072TIP3   OH236706   1.871   7.025   0.081 -0.0854 -0.0074 -0.0354
 5072TIP3    H136707   1.886   7.092   0.148 -1.5926 -0.6484  0.9994
 5072TIP3    H236708   1.798   6.973   0.115  0.7724 -1.9269 -0.9980
 5073TIP3   OH236709   6.676   3.582  10.866 -0.6210  0.1866 -0.0335
 5073TIP3    H136710   6.644   3.632  10.942  0.0571  0.1627  0.2783
 5073TIP3    H236711   6.657   3.638  10.791 -1.1409  0.2888  0.1682
 5074TIP3   OH236712   5.628   2.508   9.627  0.4062 -0.8447  0.6982
 5074TIP3    H136713   5.614   2.415   9.609 -0.3320 -0.8901  1.4536
 5074TIP3    H236714   5.722   2.516   9.640  0.5415 -1.3903  0.1131
 5075TIP3   OH236715   3.622   4.305  11.774  0.4913  0.1269 -0.0344
 5075TIP3    H136716   3.666   4.340  11.852 -0.7027  0.2525  0.6148
 5075TIP3    H236717   3.657   4.216  11.765  1.1819  0.3674  0.2114
 5076TIP3   OH236718   1.920   6.349  12.681 -0.3027 -0.0137  0.5069
 5076TIP3    H136719   2.002   6.375  12.640  0.1096 -1.0969  0.6169
 5076TIP3    H236720   1.942   6.272  12.733 -0.9348  0.9486  2.2908
 5077TIP3   OH236721   6.875   0.422  13.069  0.5432 -0.1247  0.1851
 5077TIP3    H136722   6.787   0.414  13.034  0.8698 -2.5438 -0.2690
 5077TIP3    H236723   6.912   0.499  13.027 -0.6847 -0.2474 -1.1607
 5078TIP3   OH236724   3.802   5.050  12.785 -0.3320 -0.3356 -0.8034
 5078TIP3    H136725   3.774   5.033  12.695  1.5058 -2.2993 -1.1027
 5078TIP3    H236726   3.893   5.079  12.777 -0.1978 -0.3444  0.4168
 5079TIP3   OH236727   6.229   6.015  10.059 -0.1158 -0.6912 -0.0494
 5079TIP3    H136728   6.237   6.076   9.986 -1.0619 -0.8873 -0.3292
 5079TIP3    H236729   6.299   5.951  10.045  0.3054 -0.1890 -0.2503
 5080TIP3   OH236730   4.954   6.841  12.147 -0.5907 -0.0138  0.7256
 5080TIP3    H136731   4.975   6.864  12.056 -0.9263 -1.2143  0.3250
 5080TIP3    H236732   4.972   6.921  12.196  1.4139  0.1016 -0.1024
 5081TIP3   OH236733   2.032   0.221   0.864  0.1832  0.6337  0.2226
 5081TIP3    H136734   2.034   0.316   0.878  1.3284  0.5966  0.4451
 5081TIP3    H236735   1.939   0.199   0.858 -0.1358  1.6163  1.2155
 5082TIP3   OH236736   0.585   5.788   9.582 -0.1670 -0.4885  0.0182
 5082TIP3    H136737   0.623   5.777   9.670  1.7096  0.0167 -0.6743
 5082TIP3    H236738   0.569   5.698   9.552 -1.2779 -0.6555  1.0283
 5083TIP3   OH236739   6.521   1.035   0.012  0.5670  0.1882  0.4230
 5083TIP3    H136740   6.585   0.967   0.035  1.2566  1.1396  1.3577
 5083TIP3    H236741   6.467   0.994  -0.056  1.0645 -1.2448  0.8565
 5084TIP3   OH236742   4.097   6.103  11.779 -0.2830 -0.0079 -0.0789
 5084TIP3    H136743   4.056   6.109  11.866  0.3293  0.1465  0.2078
 5084TIP3    H236744   4.148   6.022  11.782 -0.3885 -0.0839 -0.3510
 5085TIP3   OH236745   5.886   3.356  15.407  0.0222  0.3258  0.2281
 5085TIP3    H136746   5.888   3.326  15.316 -0.2295 -2.5754  1.0777
 5085TIP3    H236747   5.912   3.448  15.402  4.7895 -0.8394 -2.3082
 5086TIP3   OH236748   2.180   5.696   0.626  0.7258  0.5578  0.4226
 5086TIP3    H136749   2.272   5.682   0.605  0.1809 -0.6391 -1.4057
 5086TIP3    H236750   2.148   5.753   0.556 -0.3218 -0.5356 -0.0299
 5087TIP3   OH236751   5.399   5.610  12.798  0.6222  0.2878  0.1824
 5087TIP3    H136752   5.448   5.551  12.855  0.0905 -0.4688 -0.1275
 5087TIP3    H236753   5.357   5.553  12.734 -1.3562  0.8188  0.9318
 5088TIP3   OH236754   0.320   6.146  10.338  0.2890  0.3103  0.3034
 5088TIP3    H136755   0.360   6.226  10.372  1.7456 -0.3192  0.1363
 5088TIP3    H236756   0.280   6.173  10.255 -0.8702  1.2389  1.1170
 5089TIP3   OH236757   4.270   0.633   3.194  0.4117  0.5931  0.1991
 5089TIP3    H136758   4.241   0.579   3.267  2.6754 -2.3676 -0.8760
 5089TIP3    H236759   4.305   0.712   3.235 -0.8349  0.2393  2.0530
 5090TIP3   OH236760   3.917   2.171  12.555 -0.0508  0.2925  0.4389
 5090TIP3    H136761   3.824   2.147  12.546  0.1716 -0.6728  0.6415
 5090TIP3    H236762   3.934   2.167  12.649  0.4872 -0.7155  0.3157
 5091TIP3   OH236763   4.880   3.365  10.612  0.2911 -0.0063  0.2452
 5091TIP3    H136764   4.890   3.450  10.569 -0.7155 -0.7641 -1.5861
 5091TIP3    H236765   4.811   3.320  10.562 -1.8405 -0.5402  3.3715
 5092TIP3   OH236766   5.022   6.658  11.539 -0.0815 -0.0428 -0.1919
 5092TIP3    H136767   5.099   6.657  11.482 -1.0744  0.3782 -1.5979
 5092TIP3    H236768   5.000   6.566  11.550  0.1574 -0.1334 -0.4439
 5093TIP3   OH236769   6.741   3.399  14.018 -0.0676  0.2238  0.0050
 5093TIP3    H136770   6.702   3.412  13.931  1.5781  1.0050 -0.6623
 5093TIP3    H236771   6.813   3.338  14.003  0.1995  0.3281  0.8192
 5094TIP3   OH236772   2.655   2.188  10.194 -0.1584  0.3372  0.6939
 5094TIP3    H136773   2.666   2.113  10.135 -0.4391  1.6210 -1.0931
 5094TIP3    H236774   2.646   2.150  10.281  2.3250 -1.5676  0.2294
 5095TIP3   OH236775   2.420   1.003  11.471 -0.0177 -0.1241  0.2102
 5095TIP3    H136776   2.336   0.988  11.426 -0.3021 -0.1240  0.7339
 5095TIP3    H236777   2.429   1.098  11.474  0.5697 -0.1279 -0.8739
 5096TIP3   OH236778   1.060   1.799  10.332  0.3368 -0.2339  0.2934
 5096TIP3    H136779   1.146   1.828  10.361  0.8664 -0.0500 -1.3524
 5096TIP3    H236780   1.021   1.876  10.290 -0.9813 -0.0850  1.6993
 5097TIP3   OH236781   5.064   5.085   0.494 -0.2390 -0.5491  0.6746
 5097TIP3    H136782   5.129   5.075   0.563 -1.1174 -1.3669  1.4226
 5097TIP3    H236783   4.989   5.032   0.523 -0.3135 -1.6672 -1.3156
 5098TIP3   OH236784   2.236   4.573   9.626  0.4112  0.2854 -0.3089
 5098TIP3    H136785   2.174   4.501   9.629 -0.4166  0.9831 -0.1136
 5098TIP3    H236786   2.183   4.649   9.601  1.2055  0.8723 -0.2487
 5099TIP3   OH236787   6.670   2.441   9.461 -0.2623  0.2265 -0.1377
 5099TIP3    H136788   6.605   2.436   9.531 -0.7077  0.2068 -0.5449
 5099TIP3    H236789   6.668   2.354   9.421 -0.7648  0.5579 -0.8408
 5100TIP3   OH236790   4.815   4.563  11.700  0.3658  0.3337 -0.1281
 5100TIP3    H136791   4.793   4.470  11.696 -0.5816  0.5108  0.8321
 5100TIP3    H236792   4.903   4.565  11.739 -0.6247 -0.0494  2.2213
 5101TIP3   OH236793   1.877   6.668   1.520  0.3247  0.2641  0.5628
 5101TIP3    H136794   1.850   6.701   1.606 -0.5108 -1.6149  1.0855
 5101TIP3    H236795   1.795   6.641   1.478  0.9233 -0.9709  0.1376
 5102TIP3   OH236796   5.502   1.973  13.163  0.4093 -0.0024 -0.1652
 5102TIP3    H136797   5.567   1.981  13.233  0.8713  0.0918 -0.5990
 5102TIP3    H236798   5.422   2.010  13.201  1.0633  1.5593 -0.2065
 5103TIP3   OH236799   3.889   6.992  15.283 -0.2081  0.7445  0.1806
 5103TIP3    H136800   3.911   6.915  15.336  0.6272  1.1265  0.3966
 5103TIP3    H236801   3.911   7.066  15.339  1.4240  1.1780 -0.9684
 5104TIP3   OH236802   1.706   5.710  13.779 -0.3447 -0.0608  0.2185
 5104TIP3    H136803   1.705   5.800  13.811  0.4749 -0.6185  1.9520
 5104TIP3    H236804   1.787   5.673  13.815  0.9624 -0.6338 -2.9929
 5105TIP3   OH236805   2.416   4.339  12.588 -0.0917 -0.1813  0.0431
 5105TIP3    H136806   2.492   4.292  12.556 -0.3139 -0.8998  0.5441
 5105TIP3    H236807   2.359   4.271  12.624 -0.7416  0.3952  0.1290
 5106TIP3   OH236808   4.192   4.350  13.132 -0.4900 -0.4676  0.4262
 5106TIP3    H136809   4.220   4.281  13.192  2.5220  1.3266  1.2801
 5106TIP3    H236810   4.180   4.305  13.048 -0.0831 -2.2599  1.2695
 5107TIP3   OH236811   5.686   7.063  11.693  0.0747 -0.1606  0.0159
 5107TIP3    H136812   5.717   7.153  11.682 -0.8640  0.0217 -1.3965
 5107TIP3    H236813   5.764   7.009  11.684  0.4462  0.4499 -0.4721
 5108TIP3   OH236814   3.400   7.056   3.012  0.1888 -1.1863 -0.3172
 5108TIP3    H136815   3.397   6.987   2.945 -0.7130 -1.2164 -0.2529
 5108TIP3    H236816   3.349   7.128   2.976 -1.1940 -1.5782  0.7242
 5109TIP3   OH236817   1.800   3.066   5.147 -0.3465  0.1323  0.5328
 5109TIP3    H136818   1.720   3.089   5.193 -0.7397 -0.9358  0.4077
 5109TIP3    H236819   1.780   3.079   5.055  0.0735  1.1581  0.5667
 5110TIP3   OH236820   5.120   3.972  13.909  0.4764  0.1340 -0.2655
 5110TIP3    H136821   5.143   4.060  13.940  0.3623 -0.5932  2.0751
 5110TIP3    H236822   5.065   3.936  13.979  1.4897 -2.2239 -0.5982
 5111TIP3   OH236823   4.798   1.955   1.119 -0.1984  0.2509  0.3454
 5111TIP3    H136824   4.708   1.933   1.096 -1.0679  0.2709  3.3158
 5111TIP3    H236825   4.837   1.987   1.038 -2.5053 -0.8330 -1.2869
 5112TIP3   OH236826   4.970   3.878  12.609 -0.8672  0.3796  0.0594
 5112TIP3    H136827   4.982   3.787  12.638 -1.2092  0.5269  0.6800
 5112TIP3    H236828   4.992   3.876  12.516  0.1330 -0.1327  0.2891
 5113TIP3   OH236829   6.027   5.595  12.550  0.4972  0.4032 -0.1446
 5113TIP3    H136830   6.005   5.645  12.471 -1.9849 -0.3112  0.0149
 5113TIP3    H236831   5.975   5.515  12.543  0.1268  0.3612  2.2397
 5114TIP3   OH236832   7.180   1.466  14.075  0.4807  0.3443 -0.0244
 5114TIP3    H136833   7.227   1.527  14.130 -0.1866  0.7065  0.1567
 5114TIP3    H236834   7.137   1.521  14.009 -0.2826  0.1047  0.2567
 5115TIP3   OH236835   2.912   5.776  10.451 -0.1628 -0.1493  0.0405
 5115TIP3    H136836   2.856   5.853  10.464  0.2072 -0.0551  1.1380
 5115TIP3    H236837   2.917   5.734  10.537 -0.9788 -1.8604 -0.6959
 5116TIP3   OH236838   2.771   5.361  12.247 -0.3213  0.5748  0.6035
 5116TIP3    H136839   2.818   5.414  12.312 -0.8965 -0.0275  1.5297
 5116TIP3    H236840   2.722   5.424  12.195  0.4124  1.0944  0.5271
 5117TIP3   OH236841   0.117   3.337  13.246 -0.1431  0.5862 -0.1506
 5117TIP3    H136842   0.196   3.285  13.232 -1.0203 -0.6344 -0.6758
 5117TIP3    H236843   0.149   3.427  13.249  1.1993  0.1684 -0.9138
 5118TIP3   OH236844   2.267   1.529  12.415 -0.5981  0.1762  0.0012
 5118TIP3    H136845   2.294   1.438  12.404 -0.0446  0.4960 -1.6293
 5118TIP3    H236846   2.184   1.535  12.369 -0.6193  0.5009  0.0784
 5119TIP3   OH236847   0.751   2.517   1.845 -0.2949  0.5213 -0.0980
 5119TIP3    H136848   0.775   2.609   1.856 -1.1810  0.6510  0.8589
 5119TIP3    H236849   0.728   2.487   1.933  0.1177 -0.6607 -0.3687
 5120TIP3   OH236850   5.634   5.282  11.958 -0.4895 -0.2772  0.3464
 5120TIP3    H136851   5.564   5.255  11.898 -0.1396 -0.4881  0.0274
 5120TIP3    H236852   5.608   5.245  12.043 -1.3076  0.5638  0.4732
 5121TIP3   OH236853   0.731   0.631  11.634  0.5449 -0.1882 -0.3189
 5121TIP3    H136854   0.800   0.690  11.602 -1.1507  1.7189 -0.6053
 5121TIP3    H236855   0.779   0.563  11.682  2.5884  1.4822  0.1703
 5122TIP3   OH236856   6.126   1.890   0.528 -0.1457  0.0613 -0.2613
 5122TIP3    H136857   6.185   1.826   0.568 -0.6493  0.9491  2.1085
 5122TIP3    H236858   6.110   1.857   0.440  3.6706 -0.3605 -0.9954
 5123TIP3   OH236859   1.013   5.851  15.412  0.3839  0.1515 -0.0376
 5123TIP3    H136860   0.983   5.869  15.501 -1.0278  0.9713 -0.6361
 5123TIP3    H236861   1.083   5.914  15.397  0.0979  0.5399  0.2339
 5124TIP3   OH236862   6.881   5.973   9.508 -0.0969 -0.5514 -0.1556
 5124TIP3    H136863   6.952   5.910   9.502  1.2823  0.6864  1.9628
 5124TIP3    H236864   6.889   6.026   9.428 -0.1593 -1.8609 -1.0665
 5125TIP3   OH236865   1.983   6.315   4.827 -0.0510 -0.1056  0.0431
 5125TIP3    H136866   1.977   6.310   4.731 -0.3774  0.5637  0.0286
 5125TIP3    H236867   1.909   6.370   4.853 -0.2781 -0.7196  0.7253
 5126TIP3   OH236868   3.140   0.176  13.870 -0.6694  0.1447  0.0466
 5126TIP3    H136869   3.193   0.136  13.939 -0.4792  0.3205  0.0032
 5126TIP3    H236870   3.115   0.102  13.814 -3.0685 -0.4242  1.7386
 5127TIP3   OH236871   2.748   5.409   9.933  0.3141 -0.1330  0.2575
 5127TIP3    H136872   2.663   5.415   9.889  1.6049  0.5582 -2.2807
 5127TIP3    H236873   2.748   5.481   9.996 -0.8580  0.0141  0.1115
 5128TIP3   OH236874   1.227   5.379  10.453 -0.2422 -0.4648 -0.0036
 5128TIP3    H136875   1.198   5.460  10.411 -2.0121 -0.0378  1.8728
 5128TIP3    H236876   1.317   5.398  10.482 -0.1410  0.3246 -0.7964
 5129TIP3   OH236877   1.836   3.742  14.637  0.4056  0.2150  0.6919
 5129TIP3    H136878   1.872   3.795  14.566 -0.2368  0.9833  0.9267
 5129TIP3    H236879   1.814   3.659  14.596  1.1571  0.2268  0.2533
 5130TIP3   OH236880   6.290   5.753  11.048  0.3477 -0.0124 -0.6769
 5130TIP3    H136881   6.333   5.763  11.133  1.8818 -1.6797 -1.1963
 5130TIP3    H236882   6.279   5.843  11.016 -0.5507  0.6668  1.3833
 5131TIP3   OH236883   3.428   5.309  10.633  0.2104 -0.3841  0.0862
 5131TIP3    H136884   3.489   5.238  10.651 -2.5157 -3.2510 -0.9798
 5131TIP3    H236885   3.384   5.325  10.717  0.8570  0.1130  0.3372
 5132TIP3   OH236886   7.014   3.472  12.548 -0.3519  0.4344  0.3200
 5132TIP3    H136887   7.024   3.411  12.475  1.1772 -3.5597  3.4142
 5132TIP3    H236888   6.920   3.489  12.553 -0.6636 -0.4782 -1.6062
 5133TIP3   OH236889   5.379   6.747  14.931  0.0300  0.1941  0.1850
 5133TIP3    H136890   5.331   6.817  14.886  0.2946 -0.1464 -0.6569
 5133TIP3    H236891   5.343   6.745  15.019 -0.0661  1.3091  0.1795
 5134TIP3   OH236892   6.266   5.961  12.138  0.4305 -0.3137 -0.3794
 5134TIP3    H136893   6.205   6.031  12.164  0.7532 -0.1572 -0.0419
 5134TIP3    H236894   6.317   5.943  12.217  0.8241 -0.4478 -0.6618
 5135TIP3   OH236895   3.012   5.846  12.302  0.0741 -0.0433  0.1543
 5135TIP3    H136896   2.947   5.778  12.319  0.5123  0.1767  3.2389
 5135TIP3    H236897   3.087   5.798  12.267 -0.9126 -0.5958 -1.2760
 5136TIP3   OH236898   4.391   1.665  13.192 -0.5365  0.1570 -0.1630
 5136TIP3    H136899   4.471   1.715  13.173 -0.1913 -0.4829 -0.4605
 5136TIP3    H236900   4.348   1.657  13.107 -0.6286  0.0273 -0.1036
 5137TIP3   OH236901   6.795   3.331  11.479 -0.3088  0.6700  0.5073
 5137TIP3    H136902   6.862   3.379  11.430 -0.0545 -1.7683 -1.7621
 5137TIP3    H236903   6.844   3.284  11.546  0.0907  0.1203 -0.1498
 5138TIP3   OH236904   5.402   5.369  11.265  0.2207 -0.4634  0.0180
 5138TIP3    H136905   5.381   5.380  11.172  0.4318  0.8400  0.1047
 5138TIP3    H236906   5.347   5.296  11.293 -2.1811  1.0736 -0.4138
 5139TIP3   OH236907   0.419   5.401  12.031 -0.0267  0.2442 -0.0088
 5139TIP3    H136908   0.342   5.365  12.074 -0.5910  1.6103  0.1568
 5139TIP3    H236909   0.415   5.367  11.942  0.2775 -1.2952  0.5334
 5140TIP3   OH236910   1.262   1.635  11.116 -0.0756  0.6993 -0.1140
 5140TIP3    H136911   1.240   1.726  11.097  1.0200  0.9664 -0.1874
 5140TIP3    H236912   1.183   1.586  11.094 -0.1716  1.4456 -1.5703
 5141TIP3   OH236913   1.544   1.124  14.890  0.6113 -0.7790 -0.4008
 5141TIP3    H136914   1.559   1.170  14.972 -1.2268 -0.4275 -0.2258
 5141TIP3    H236915   1.451   1.138  14.871  0.4907 -2.6722 -1.4281
 5142TIP3   OH236916   6.422   4.673  12.177  0.5609 -0.2019  0.3703
 5142TIP3    H136917   6.441   4.684  12.270 -1.1289 -0.6017  0.7899
 5142TIP3    H236918   6.327   4.674  12.171  0.6197 -0.7984 -1.2800
 5143TIP3   OH236919   5.766   1.088  10.879 -0.2148 -0.4641 -0.5219
 5143TIP3    H136920   5.855   1.097  10.843 -0.7141  1.3262 -1.4412
 5143TIP3    H236921   5.747   0.995  10.874  1.1998 -0.7341 -1.3674
 5144TIP3   OH236922   5.328   3.872   9.330  0.4234 -0.4358  0.3711
 5144TIP3    H136923   5.409   3.822   9.317  1.4672  1.3683 -0.5245
 5144TIP3    H236924   5.346   3.927   9.407 -0.7107 -1.3838  1.3549
 5145TIP3   OH236925   1.227   2.396  13.146 -0.0051  0.0782  0.1288
 5145TIP3    H136926   1.186   2.388  13.060  1.1590 -0.9768 -0.3567
 5145TIP3    H236927   1.252   2.488  13.152  0.6200  0.0006 -1.0185
 5146TIP3   OH236928   3.163   5.304  14.895 -0.2448 -0.3140 -0.1784
 5146TIP3    H136929   3.240   5.323  14.949 -1.4864 -0.6337  1.7765
 5146TIP3    H236930   3.125   5.390  14.877 -1.1550 -0.3199  1.5379
 5147TIP3   OH236931   0.923   2.770  15.107  0.0838  0.1807  0.0217
 5147TIP3    H136932   0.888   2.682  15.113 -1.4047  0.7896  0.7582
 5147TIP3    H236933   0.899   2.800  15.020  1.5070 -0.4752 -0.6337
 5148TIP3   OH236934   3.660   2.118  10.907 -0.4527  0.2166  0.3438
 5148TIP3    H136935   3.617   2.174  10.971  1.4278  1.9801  0.2204
 5148TIP3    H236936   3.738   2.085  10.952  2.2164  3.3712 -1.4551
 5149TIP3   OH236937   4.588   6.359  12.008  0.1301  0.2904 -0.2612
 5149TIP3    H136938   4.532   6.435  11.993  1.4308  1.0292 -1.5762
 5149TIP3    H236939   4.572   6.336  12.100 -1.1143  1.4397 -0.1467
 5150TIP3   OH236940   1.246   6.951  12.359 -0.7637 -0.3269  0.5527
 5150TIP3    H136941   1.338   6.933  12.380 -0.8487 -0.8724  0.4896
 5150TIP3    H236942   1.205   6.864  12.356 -0.6228 -0.4112 -2.6125
 5151TIP3   OH236943   5.641   1.564   2.091 -0.0108 -0.8566 -0.2916
 5151TIP3    H136944   5.653   1.498   2.023  0.5780 -1.0790  0.0170
 5151TIP3    H236945   5.558   1.541   2.133 -0.9151 -0.1118 -1.5858
 5152TIP3   OH236946   3.948   5.169  11.333  0.9502 -0.3921  0.1973
 5152TIP3    H136947   4.004   5.243  11.313  0.5516 -0.2732 -0.5084
 5152TIP3    H236948   3.935   5.174  11.428 -0.4074  1.4265 -0.0333
 5153TIP3   OH236949   2.704   4.405  10.849 -0.0294  0.2190 -1.0589
 5153TIP3    H136950   2.708   4.437  10.939 -2.8202  0.6128 -0.9759
 5153TIP3    H236951   2.778   4.447  10.805  0.1927  1.6520  0.5878
 5154TIP3   OH236952   5.602   6.880  14.198  0.0165  0.2439  0.2958
 5154TIP3    H136953   5.584   6.952  14.258 -1.1986 -0.2715  0.5767
 5154TIP3    H236954   5.529   6.819  14.211 -0.7195  0.4626 -2.2268
 5155TIP3   OH236955   1.745   5.775  12.804 -0.1907 -0.0930  0.2792
 5155TIP3    H136956   1.822   5.832  12.811 -0.6294  0.7041 -0.9303
 5155TIP3    H236957   1.780   5.687  12.791  0.5015  0.0775  0.9435
 5156TIP3   OH236958   2.541   0.375  13.077  0.1403 -0.2200  0.1887
 5156TIP3    H136959   2.526   0.468  13.090  0.8937 -0.3347  2.2934
 5156TIP3    H236960   2.599   0.369  13.002 -1.1757  0.8703 -0.9680
 5157TIP3   OH236961   6.894   1.906  10.383  0.5136 -0.8791  0.8661
 5157TIP3    H136962   6.814   1.957  10.373  1.6967  1.3176  1.8561
 5157TIP3    H236963   6.944   1.924  10.304  1.0641 -0.1981  1.3523
 5158TIP3   OH236964   5.551   2.897  14.677  0.8442  0.0648  0.2141
 5158TIP3    H136965   5.462   2.874  14.651  1.2905 -0.2287 -1.1024
 5158TIP3    H236966   5.603   2.889  14.597  1.9572  0.7746  0.8369
 5159TIP3   OH236967   2.831   5.414  13.226  0.0582  0.2595  0.6801
 5159TIP3    H136968   2.868   5.479  13.167  1.5490 -2.4911 -1.6330
 5159TIP3    H236969   2.793   5.347  13.168 -0.0323 -1.7064  2.8558
 5160TIP3   OH236970   2.191   4.927   1.959 -0.6146 -0.0474  0.1973
 5160TIP3    H136971   2.287   4.920   1.960 -0.5862 -0.9142  3.1998
 5160TIP3    H236972   2.162   4.852   1.907  0.3423 -0.7192  0.5830
 5161TIP3   OH236973   1.247   0.719  13.276  0.1583 -0.4153 -0.6034
 5161TIP3    H136974   1.284   0.806  13.264  0.4695 -0.6219 -1.2041
 5161TIP3    H236975   1.196   0.725  13.357  0.0154  0.3749 -0.7445
 5162TIP3   OH236976   5.484   5.265   5.350 -0.0225  0.0098  0.6913
 5162TIP3    H136977   5.535   5.194   5.387 -1.1938 -1.4578 -0.3735
 5162TIP3    H236978   5.456   5.317   5.425 -0.2364 -1.4260  1.6356
 5163TIP3   OH236979   5.663   1.814  11.837  0.5947  0.1851  0.3038
 5163TIP3    H136980   5.581   1.768  11.858  0.8825 -0.7139 -0.4932
 5163TIP3    H236981   5.660   1.825  11.742  0.7502  1.4291  0.4261
 5164TIP3   OH236982   5.926   4.477   0.802 -0.5001  0.1906  0.0398
 5164TIP3    H136983   5.932   4.491   0.707  1.2464 -1.2380 -0.0928
 5164TIP3    H236984   5.955   4.387   0.815  1.0316  0.9113  2.1092
 5165TIP3   OH236985   5.314   1.897  10.303 -0.3222 -0.1365  0.3580
 5165TIP3    H136986   5.352   1.983  10.284  1.0191 -0.6947  0.4116
 5165TIP3    H236987   5.374   1.857  10.366 -0.1725 -1.6367 -0.6737
 5166TIP3   OH236988   0.409   4.557  11.800 -0.2819 -0.2198  0.2922
 5166TIP3    H136989   0.481   4.607  11.840 -0.7201  1.7952 -1.2207
 5166TIP3    H236990   0.412   4.472  11.843  4.1527 -0.9320 -0.8930
 5167TIP3   OH236991   3.526   1.470  14.931 -0.9278 -0.2183  0.1190
 5167TIP3    H136992   3.507   1.562  14.949 -0.6850  0.2917 -1.9916
 5167TIP3    H236993   3.523   1.463  14.836  0.4948 -2.0901  0.1632
 5168TIP3   OH236994   5.309   4.059   1.407 -0.0035  0.8658  0.9436
 5168TIP3    H136995   5.249   4.059   1.481 -0.4737 -0.0971  0.5741
 5168TIP3    H236996   5.260   4.019   1.335  1.3684 -0.9174  0.9003
 5169TIP3   OH236997   3.630   0.016  12.177  0.6937 -0.2241 -0.1461
 5169TIP3    H136998   3.561  -0.035  12.136  0.1862  1.6201 -1.7630
 5169TIP3    H236999   3.676   0.058  12.104  1.6720  0.8815  1.0346
 5170TIP3   OH237000   5.793   0.162  11.240  0.0884 -0.1021  0.5593
 5170TIP3    H137001   5.841   0.085  11.271 -0.5764 -0.3862  0.9077
 5170TIP3    H237002   5.811   0.165  11.146  0.0946 -0.7075  0.5368
 5171TIP3   OH237003   1.831   3.361  11.055  0.4803  0.3919 -0.2396
 5171TIP3    H137004   1.810   3.453  11.070 -0.1472  0.1137  0.7273
 5171TIP3    H237005   1.877   3.334  11.135 -1.6036 -0.7778  0.6345
 5172TIP3   OH237006   2.311   1.168  15.095 -0.4213  0.3615 -1.0437
 5172TIP3    H137007   2.328   1.076  15.075 -2.0642  0.1481 -1.5958
 5172TIP3    H237008   2.397   1.210  15.090  0.6184 -1.3932  0.7599
 5173TIP3   OH237009   2.865   3.531  12.779  0.2331 -0.0733 -0.1680
 5173TIP3    H137010   2.841   3.555  12.868 -1.1101  1.9047 -0.9846
 5173TIP3    H237011   2.784   3.496  12.741  1.0230 -1.7885 -0.3912
 5174TIP3   OH237012   1.884   3.386  11.352 -0.1561 -0.0478 -0.2225
 5174TIP3    H137013   1.807   3.424  11.395  0.3662  0.8661 -0.0721
 5174TIP3    H237014   1.906   3.310  11.406 -0.9913 -0.3563 -0.3046
 5175TIP3   OH237015   6.293   6.920   0.603  0.3411 -0.2141  0.3025
 5175TIP3    H137016   6.224   6.873   0.556 -0.4657  1.6048 -0.4036
 5175TIP3    H237017   6.349   6.850   0.639 -0.7793 -1.6945 -0.7050
 5176TIP3   OH237018   6.317   3.993  13.956 -0.4420 -0.4124  0.3861
 5176TIP3    H137019   6.232   3.969  13.994 -0.2535 -2.0527 -0.1460
 5176TIP3    H237020   6.300   4.004  13.863 -0.4592  1.3738  0.5687
 5177TIP3   OH237021   1.118   0.251  11.711  0.0568  0.0499 -0.7416
 5177TIP3    H137022   1.207   0.278  11.732 -0.4878  1.1307  0.3225
 5177TIP3    H237023   1.082   0.325  11.661  0.2547 -1.0808 -2.6897
 5178TIP3   OH237024   1.107   7.013   0.068 -0.7974  0.0783  0.5858
 5178TIP3    H137025   1.152   7.097   0.067 -0.7313  0.0634 -1.2534
 5178TIP3    H237026   1.058   7.011  -0.015  0.0711 -2.1400  0.0567
 5179TIP3   OH237027   3.158   1.860  11.926  0.4684 -0.1190 -0.1961
 5179TIP3    H137028   3.147   1.835  11.834  1.0245 -0.6731 -0.1134
 5179TIP3    H237029   3.206   1.787  11.966  2.0585  1.0186  0.0740
 5180TIP3   OH237030   1.162   3.300  12.383 -0.4474  0.2418  0.2372
 5180TIP3    H137031   1.172   3.226  12.442  1.2573  0.1414 -0.1254
 5180TIP3    H237032   1.158   3.376  12.441  1.1996  0.1435  0.5447
 5181TIP3   OH237033   0.738   3.078   1.121  0.0086 -0.8966 -0.2186
 5181TIP3    H137034   0.749   2.988   1.153 -0.4516 -0.5216  1.0445
 5181TIP3    H237035   0.827   3.108   1.105  0.3403 -0.8411  1.5121
 5182TIP3   OH237036   5.814   0.427   0.497  0.2814  0.3037 -0.4220
 5182TIP3    H137037   5.889   0.421   0.437 -0.4309  2.2686 -1.6185
 5182TIP3    H237038   5.755   0.489   0.454 -3.2470 -2.9449 -0.7914
 5183TIP3   OH237039   0.508   1.227  13.453 -0.3901  0.4072 -0.7245
 5183TIP3    H137040   0.538   1.215  13.543  0.3171  0.5606 -0.9337
 5183TIP3    H237041   0.418   1.193  13.453 -0.5339  0.7713  0.1264
 5184TIP3   OH237042   1.924   5.717  13.235  0.1528 -0.2517  0.0988
 5184TIP3    H137043   1.877   5.669  13.167 -0.6052  0.4099  0.1421
 5184TIP3    H237044   1.953   5.797  13.191 -1.3305  0.7197  0.8200
 5185TIP3   OH237045   5.313   0.336  13.234 -0.0036 -0.6063  0.0125
 5185TIP3    H137046   5.360   0.273  13.180 -1.3051 -2.1489  0.5820
 5185TIP3    H237047   5.283   0.285  13.310 -1.0592  0.7107  0.5337
 5186TIP3   OH237048   2.372   5.952  14.894  0.0032  0.1889  0.0344
 5186TIP3    H137049   2.398   5.915  14.978 -0.6609 -0.0714  0.1281
 5186TIP3    H237050   2.454   5.979  14.853  0.3131  0.4721  0.8360
 5187TIP3   OH237051   5.661   4.216  12.631 -0.4544  0.1460 -0.1502
 5187TIP3    H137052   5.757   4.220  12.636 -0.3842 -1.7409  1.5283
 5187TIP3    H237053   5.643   4.128  12.597 -1.6068  0.5247 -0.5626
 5188TIP3   OH237054   4.721   6.121  12.554 -0.2609  0.0204  0.1487
 5188TIP3    H137055   4.748   6.159  12.470 -2.0398  0.3940 -0.2944
 5188TIP3    H237056   4.777   6.044  12.564  0.1986  0.1381 -1.2245
 5189TIP3   OH237057   4.771   3.646  11.045  0.1485 -0.2571 -0.4720
 5189TIP3    H137058   4.734   3.733  11.028  3.2417  0.9927 -1.4526
 5189TIP3    H237059   4.780   3.606  10.959  2.8179  0.3435 -0.5655
 5190TIP3   OH237060   3.549   1.385  12.604  0.2456  0.2051 -0.3470
 5190TIP3    H137061   3.459   1.387  12.638 -0.3825 -1.0054 -1.8310
 5190TIP3    H237062   3.592   1.315  12.654 -0.1674 -0.4129 -0.8478
 5191TIP3   OH237063   3.882   1.362  10.717  0.4118 -0.6118 -0.5379
 5191TIP3    H137064   3.947   1.335  10.652  1.4725 -1.4003  0.7781
 5191TIP3    H237065   3.864   1.283  10.767 -1.3905 -0.3324 -0.7048
 5192TIP3   OH237066   4.763   0.849  10.646 -0.4533 -0.6256  0.8931
 5192TIP3    H137067   4.824   0.775  10.640 -1.1476 -1.2149  0.9900
 5192TIP3    H237068   4.706   0.827  10.720 -2.6674 -1.5196 -0.9860
 5193TIP3   OH237069   0.908   2.010  11.099  0.2628  0.0958  0.9724
 5193TIP3    H137070   0.941   2.089  11.141  1.8002 -0.0761  0.1932
 5193TIP3    H237071   0.835   2.039  11.045  0.7572  0.9849  0.7633
 5194TIP3   OH237072   3.269   2.905  14.667  0.2464  0.0665 -0.0523
 5194TIP3    H137073   3.321   2.948  14.734 -0.9755  3.3016 -0.9548
 5194TIP3    H237074   3.332   2.873  14.603  1.2950  1.9800 -0.0586
 5195TIP3   OH237075   2.004   1.825   9.629 -0.5947  0.8094 -0.4367
 5195TIP3    H137076   1.965   1.782   9.552 -0.0028 -1.4374  0.4469
 5195TIP3    H237077   2.072   1.882   9.592  0.2377 -0.8365 -1.5899
 5196TIP3   OH237078   2.331   2.878  12.402 -0.1744 -0.0067  0.0842
 5196TIP3    H137079   2.287   2.901  12.484  0.3148  1.5693 -0.0559
 5196TIP3    H237080   2.341   2.961  12.356  2.3902 -0.3469 -0.1529
 5197TIP3   OH237081   7.124   4.924   1.883 -0.4539 -0.0408 -0.7294
 5197TIP3    H137082   7.059   4.904   1.951  1.8188  0.3581  1.7161
 5197TIP3    H237083   7.183   4.849   1.884  0.6208  0.7750 -0.9555
 5198TIP3   OH237084   2.949   4.277  13.580 -0.2521  0.2091  0.4384
 5198TIP3    H137085   2.909   4.306  13.498 -1.1922  0.2283  0.8918
 5198TIP3    H237086   2.981   4.188  13.560  1.8053  1.1183 -0.6706
 5199TIP3   OH237087   7.201   6.230   1.317  0.3162 -0.0319 -0.0992
 5199TIP3    H137088   7.140   6.274   1.259 -0.6808 -1.7770 -0.4411
 5199TIP3    H237089   7.215   6.291   1.389 -1.4402  0.6012 -0.2703
 5200TIP3   OH237090   0.214   4.377   1.660  0.2893 -0.0629 -0.2371
 5200TIP3    H137091   0.213   4.352   1.567 -0.2932 -0.1515 -0.2090
 5200TIP3    H237092   0.173   4.304   1.705 -1.5676  0.9631 -0.1672
 5201TIP3   OH237093   0.529   6.824  12.618  0.0989 -0.0209 -0.2103
 5201TIP3    H137094   0.446   6.789  12.649  0.7972 -1.3313  0.2839
 5201TIP3    H237095   0.538   6.790  12.529  1.1194 -1.8437  0.5230
 5202TIP3   OH237096   5.455   5.222  12.977 -0.3820 -0.1913  0.2694
 5202TIP3    H137097   5.369   5.185  12.993 -0.6584  1.5449  3.8757
 5202TIP3    H237098   5.460   5.298  13.036  3.4649 -0.0222  0.0134
 5203TIP3   OH237099   1.013   4.108   3.297 -0.4574 -0.2316  0.2755
 5203TIP3    H137100   1.071   4.032   3.300 -0.0429  0.1142  1.4256
 5203TIP3    H237101   1.055   4.172   3.354 -1.7354  0.2039  0.7473
 5204TIP3   OH237102   0.982   4.015  11.777  0.8211 -0.2352 -0.4941
 5204TIP3    H137103   0.997   4.088  11.837  0.2739 -1.4806  1.2385
 5204TIP3    H237104   0.924   3.956  11.825 -2.4208  0.1945 -3.4961
 5205TIP3   OH237105   5.586   4.946  13.378 -0.5153  0.0750 -0.4936
 5205TIP3    H137106   5.526   4.931  13.451  0.0073 -1.2782 -0.3341
 5205TIP3    H237107   5.657   4.885  13.391  0.2152  0.6837 -1.4661
 5206TIP3   OH237108   1.011   4.270  12.746  0.0915  0.5352  0.4510
 5206TIP3    H137109   0.926   4.239  12.717  1.4371 -2.0931 -1.0269
 5206TIP3    H237110   1.004   4.366  12.744 -2.6525  0.4027  0.0411
 5207TIP3   OH237111   6.855   2.623   9.362 -0.3932 -0.0498  0.2350
 5207TIP3    H137112   6.809   2.653   9.283 -1.1133 -0.3574  0.5307
 5207TIP3    H237113   6.806   2.546   9.390  0.4716 -0.5469  0.4061
 5208TIP3   OH237114   0.384   2.598  10.515  0.3569  0.1761 -0.1234
 5208TIP3    H137115   0.338   2.534  10.461  0.9305  0.1085 -0.5399
 5208TIP3    H237116   0.333   2.603  10.596  0.4872 -1.0349  0.0446
 5209TIP3   OH237117   0.417   2.226  10.855 -0.1700 -0.1303 -0.3827
 5209TIP3    H137118   0.475   2.200  10.784 -0.0964 -0.0624 -0.3481
 5209TIP3    H237119   0.476   2.256  10.924 -0.1548 -2.0099  0.4530
 5210TIP3   OH237120   1.683   4.675  10.592  0.6575 -0.1115  0.4415
 5210TIP3    H137121   1.630   4.605  10.628 -0.2670 -0.7711 -2.0220
 5210TIP3    H237122   1.768   4.635  10.576  0.0351 -0.8086 -1.2617
 5211TIP3   OH237123   1.955   5.637   1.907 -0.0055 -0.3920  0.3797
 5211TIP3    H137124   1.911   5.710   1.864  0.1905  0.6705  1.8856
 5211TIP3    H237125   1.891   5.566   1.907 -0.8406  0.3429  0.3946
 5212TIP3   OH237126   0.883   5.079   9.954  0.3270  0.4850 -0.0382
 5212TIP3    H137127   0.947   5.069   9.884 -0.1520  0.6843 -0.5102
 5212TIP3    H237128   0.805   5.114   9.911 -1.0474 -2.2267  0.0395
 5213TIP3   OH237129   2.958   1.643  13.168  0.5610 -0.3336  0.0670
 5213TIP3    H137130   3.030   1.664  13.109 -0.2419  0.5126 -0.6431
 5213TIP3    H237131   2.879   1.651  13.114 -0.1565 -0.0682  1.1198
 5214TIP3   OH237132   0.487   5.023  12.647 -0.2668  0.0255  0.3622
 5214TIP3    H137133   0.396   5.034  12.622 -0.6085 -1.8731  0.6154
 5214TIP3    H237134   0.506   5.097  12.705 -1.0446  1.4939 -1.1857
 5215TIP3   OH237135   5.533   2.719  12.937  0.1229  0.0879  0.9481
 5215TIP3    H137136   5.533   2.794  12.997  1.0179  0.2916  0.7062
 5215TIP3    H237137   5.464   2.738  12.874  0.3891  0.7502  0.8468
 5216TIP3   OH237138   5.376   4.613  11.872  0.1661 -0.3903  0.0408
 5216TIP3    H137139   5.439   4.677  11.839 -1.4135  1.3312  0.1149
 5216TIP3    H237140   5.354   4.559  11.796  0.1171  0.4204 -0.5396
 5217TIP3   OH237141   2.254   3.846  10.221 -0.2016  0.1058 -0.1090
 5217TIP3    H137142   2.294   3.850  10.134 -1.7893  0.2604 -0.8642
 5217TIP3    H237143   2.306   3.907  10.274  0.1938  0.7617 -1.2058
 5218TIP3   OH237144   1.283   6.437  10.573  0.1140 -0.2504 -0.0582
 5218TIP3    H137145   1.335   6.357  10.576  0.6964  0.0821 -1.0250
 5218TIP3    H237146   1.296   6.472  10.485 -0.6208  0.5851  0.1465
 5219TIP3   OH237147   5.253   4.760  10.884  0.1626  0.2560  0.1139
 5219TIP3    H137148   5.263   4.846  10.924  2.4947 -0.8060  2.0600
 5219TIP3    H237149   5.290   4.770  10.796  0.7519  1.1553  0.4460
 5220TIP3   OH237150   6.352   7.150  13.219 -0.2267  0.5012 -0.4476
 5220TIP3    H137151   6.382   7.180  13.305  1.8576  0.0465 -0.9439
 5220TIP3    H237152   6.283   7.211  13.194 -0.1072  1.2885  1.0783
 5221TIP3   OH237153   7.175   2.722  13.135 -0.4164 -0.3652 -0.8786
 5221TIP3    H137154   7.223   2.640  13.148 -0.0168  0.0162  0.1242
 5221TIP3    H237155   7.095   2.711  13.187 -0.2550 -0.0271 -0.5603
 5222TIP3   OH237156   2.977   3.440  14.303 -0.7282  0.3033 -0.2339
 5222TIP3    H137157   3.002   3.348  14.316 -2.5644 -0.1435  0.3537
 5222TIP3    H237158   3.027   3.488  14.369 -2.5793 -0.7674  2.0698
 5223TIP3   OH237159   6.912   1.687  15.231 -0.2887  0.4553 -0.5964
 5223TIP3    H137160   6.868   1.772  15.239 -0.1341  0.3819  1.4759
 5223TIP3    H237161   6.913   1.670  15.137 -0.9625  2.4102 -1.0121
 5224TIP3   OH237162   0.035   4.974  15.220  0.0356  0.0196 -0.3582
 5224TIP3    H137163   0.106   5.008  15.275 -0.1154  0.2634 -0.3114
 5224TIP3    H237164   0.025   5.039  15.150 -0.0396 -0.0905 -0.4519
 5225TIP3   OH237165   0.902   5.467  11.556  0.1529 -0.2586  0.1651
 5225TIP3    H137166   0.964   5.536  11.580  1.4758 -1.6695  0.9391
 5225TIP3    H237167   0.834   5.472  11.623 -0.5029  1.1265 -0.5469
 5226TIP3   OH237168   2.716   0.364   0.507 -0.2739 -0.1420  0.1581
 5226TIP3    H137169   2.634   0.347   0.553 -0.8447  1.5539 -0.1505
 5226TIP3    H237170   2.691   0.381   0.417  0.3247  0.9813  0.1824
 5227TIP3   OH237171   2.610   6.179  13.157  0.0865  0.0462 -0.1688
 5227TIP3    H137172   2.524   6.219  13.170 -0.8796 -1.4319 -1.6614
 5227TIP3    H237173   2.626   6.129  13.236  0.8348  2.3729  1.2724
 5228TIP3   OH237174   6.923   4.726  12.239  0.3625 -0.0099  0.5180
 5228TIP3    H137175   6.936   4.634  12.217 -0.6453 -0.3046  1.1047
 5228TIP3    H237176   6.880   4.763  12.161 -1.4738 -0.6212  1.1839
 5229TIP3   OH237177   1.526   0.865  11.211  0.5510 -0.6517  0.5101
 5229TIP3    H137178   1.578   0.904  11.282 -0.0678 -0.0169  0.6229
 5229TIP3    H237179   1.440   0.850  11.250 -0.2196  0.9872 -0.4763
 5230TIP3   OH237180   0.328   6.421  12.862  0.3222  0.7461  0.5343
 5230TIP3    H137181   0.260   6.461  12.915 -1.1428 -0.5603 -0.2681
 5230TIP3    H237182   0.333   6.331  12.894 -0.7369 -0.1368 -1.5828
 5231TIP3   OH237183   2.756   2.197  13.627  0.2822  0.9171 -0.1341
 5231TIP3    H137184   2.844   2.187  13.589  0.0410 -0.6162 -0.3371
 5231TIP3    H237185   2.701   2.225  13.554  0.1306 -0.5113 -0.5846
 5232TIP3   OH237186   1.893   6.621  14.382 -0.4366  0.0156 -0.2978
 5232TIP3    H137187   1.939   6.700  14.353  1.3976 -0.4112  1.2831
 5232TIP3    H237188   1.832   6.602  14.311  0.3673  1.8076 -1.5435
 5233TIP3   OH237189   1.013   3.499  11.880  0.1710  0.0351  0.3588
 5233TIP3    H137190   1.093   3.460  11.847 -0.4433 -1.6218  0.7359
 5233TIP3    H237191   1.018   3.591  11.853  0.8184 -0.6643 -2.1710
 5234TIP3   OH237192   3.475   4.012  13.726 -0.0588  0.6585  0.4451
 5234TIP3    H137193   3.456   3.976  13.813  3.7442 -1.1964  0.6931
 5234TIP3    H237194   3.503   3.937  13.674  1.3606  2.2737 -1.2632
 5235TIP3   OH237195   0.415   5.997  13.435 -0.6985 -0.7298  0.2204
 5235TIP3    H137196   0.473   5.924  13.458  0.1903 -0.6036 -1.5027
 5235TIP3    H237197   0.375   6.022  13.519  1.9180 -0.6459  1.5636
 5236TIP3   OH237198   0.829   6.140  10.805 -0.5460 -0.4786  0.1343
 5236TIP3    H137199   0.838   6.083  10.881  2.2053 -0.5100 -0.0882
 5236TIP3    H237200   0.893   6.210  10.821 -1.1533  0.4521 -1.3512
 5237TIP3   OH237201   5.453   4.670  10.701  0.3621  0.3282  0.2587
 5237TIP3    H137202   5.497   4.586  10.713 -2.2073 -1.5564 -2.2453
 5237TIP3    H237203   5.515   4.735  10.736  2.6911 -2.4901  1.7957
 5238TIP3   OH237204   0.790   1.099  10.826  0.1707  0.2422 -0.2370
 5238TIP3    H137205   0.770   1.138  10.741  0.4069 -0.7514 -0.7591
 5238TIP3    H237206   0.795   1.174  10.886  0.1972  0.9738 -1.1286
 5239TIP3   OH237207   6.435   4.840  10.129 -0.1422  0.5768 -0.2712
 5239TIP3    H137208   6.523   4.866  10.157  0.6064 -2.4803  0.6769
 5239TIP3    H237209   6.450   4.769  10.066 -1.9250  0.2980 -0.4327
 5240TIP3   OH237210   3.889   0.472   0.254 -0.3957  0.3680  0.0451
 5240TIP3    H137211   3.963   0.421   0.288 -1.0022 -1.0879 -0.7282
 5240TIP3    H237212   3.832   0.486   0.330 -0.4704 -0.5816  0.1741
 5241TIP3   OH237213   6.447   5.211  10.053  0.1869 -0.3449  0.1028
 5241TIP3    H137214   6.524   5.261  10.026  0.4016  0.5484  2.1803
 5241TIP3    H237215   6.437   5.143   9.986  2.4451 -0.1508 -0.4907
 5242TIP3   OH237216   7.140   2.272   0.238  0.6939  0.3127  0.0493
 5242TIP3    H137217   7.065   2.251   0.182  0.8070 -0.7515  0.2681
 5242TIP3    H237218   7.123   2.224   0.319  1.3043  0.5720  0.3354
 5243TIP3   OH237219   2.222   1.198  12.188 -0.0677  0.4429 -0.1285
 5243TIP3    H137220   2.148   1.251  12.217 -0.5647  0.2006 -0.9140
 5243TIP3    H237221   2.194   1.108  12.203  0.6245  0.3681  0.8521
 5244TIP3   OH237222   4.151   4.169  10.888  0.4326 -0.6049  0.0206
 5244TIP3    H137223   4.169   4.214  10.805 -0.5636 -0.7862 -0.3043
 5244TIP3    H237224   4.105   4.089  10.862 -0.9332 -0.1033  0.8201
 5245TIP3   OH237225   6.266   1.837  10.854 -0.5775 -0.3019 -0.5108
 5245TIP3    H137226   6.222   1.916  10.824 -0.5159  0.3565  1.0673
 5245TIP3    H237227   6.266   1.779  10.777 -0.5624  1.2301 -1.7038
 5246TIP3   OH237228   1.169   5.747  10.677 -0.2943 -0.1484  0.3843
 5246TIP3    H137229   1.257   5.785  10.682 -0.9182  1.2291  1.8855
 5246TIP3    H237230   1.171   5.691  10.600  1.6616  0.4651 -0.0622
 5247TIP3   OH237231   0.191   1.990   0.119  0.4651 -0.3105  0.4209
 5247TIP3    H137232   0.259   1.988   0.186  0.8485 -0.3537  0.0340
 5247TIP3    H237233   0.124   1.929   0.151 -0.8066  1.9090  2.2727
 5248TIP3   OH237234   4.357   4.663  10.071 -0.0813  0.3959 -0.3712
 5248TIP3    H137235   4.299   4.701  10.137 -0.5320  2.4973 -1.8714
 5248TIP3    H237236   4.299   4.636  10.000  0.5620  0.0656 -0.7842
 5249TIP3   OH237237   6.799   2.671   2.126 -0.2831 -0.6606 -0.1733
 5249TIP3    H137238   6.752   2.713   2.198  0.1136 -0.9647  0.2706
 5249TIP3    H237239   6.871   2.625   2.169  1.6985  1.4819 -0.9556
 5250TIP3   OH237240   3.769   5.106  10.724 -0.0654 -0.5991  0.5256
 5250TIP3    H137241   3.696   5.052  10.693  1.3581 -1.9783 -0.5799
 5250TIP3    H237242   3.806   5.057  10.797  0.3556 -0.4047  0.4463
 5251TIP3   OH237243   3.937   5.805   0.137  0.0686 -0.0558  0.5467
 5251TIP3    H137244   3.855   5.769   0.170 -0.1536 -0.4894 -0.4535
 5251TIP3    H237245   3.927   5.806   0.042  0.2420  2.2096  0.4847
 5252TIP3   OH237246   0.937   5.365  14.013  0.3344 -0.4112  0.2704
 5252TIP3    H137247   0.990   5.369  13.933  0.3457  2.2316  0.3374
 5252TIP3    H237248   1.001   5.349  14.082  0.9724  1.6736  0.2206
 5253TIP3   OH237249   5.092   1.974  11.576  0.1794  0.3179  0.0960
 5253TIP3    H137250   5.114   1.950  11.486  0.4956  0.1820  0.2098
 5253TIP3    H237251   5.064   2.065  11.570  1.9877  0.9139  0.1282
 5254TIP3   OH237252   6.199   1.035  10.397  0.0765  0.2630 -0.8786
 5254TIP3    H137253   6.180   0.957  10.450 -1.2386  0.7300 -0.6355
 5254TIP3    H237254   6.282   1.015  10.355  0.1624 -0.9432 -0.1843
 5255TIP3   OH237255   4.301   6.581  12.618 -0.5267  0.1705 -0.0026
 5255TIP3    H137256   4.269   6.569  12.529  0.2635 -0.9270 -0.1570
 5255TIP3    H237257   4.230   6.629  12.662 -0.8499  0.8966 -1.2453
 5256TIP3   OH237258   2.331   4.209  12.823 -0.0790  0.1377 -1.1240
 5256TIP3    H137259   2.268   4.271  12.858 -1.2068 -0.5666 -1.8467
 5256TIP3    H237260   2.303   4.124  12.856  2.1433  0.0480  0.8526
 5257TIP3   OH237261   4.108   0.278  13.281 -0.0593 -0.1786 -0.5699
 5257TIP3    H137262   4.018   0.277  13.314 -0.8181  1.2406 -2.3996
 5257TIP3    H237263   4.155   0.335  13.343 -0.3603 -0.9989  0.4461
 5258TIP3   OH237264   1.995   4.454   0.949  0.3122  0.1582 -0.3980
 5258TIP3    H137265   1.913   4.460   0.998  1.1408 -1.0580  1.2315
 5258TIP3    H237266   2.032   4.542   0.953 -0.2206  0.3646  0.1567
 5259TIP3   OH237267   3.461   4.335  11.033 -0.5441  0.1639  0.3717
 5259TIP3    H137268   3.467   4.326  10.938  0.6994  1.3033  0.3216
 5259TIP3    H237269   3.536   4.285  11.066  0.4541  1.7644  0.6052
 5260TIP3   OH237270   4.949   4.938  12.566 -0.1567  0.2326  0.0846
 5260TIP3    H137271   4.933   4.950  12.472  0.5854  1.3367  0.0804
 5260TIP3    H237272   4.861   4.927  12.604 -0.5140  0.4507 -0.6552
 5261TIP3   OH237273   1.323   7.030  10.130  0.3834  0.0745 -0.4808
 5261TIP3    H137274   1.246   6.995  10.086 -0.3430 -0.0043  0.8150
 5261TIP3    H237275   1.378   7.064  10.059 -1.0148  0.4974 -1.3942
 5262TIP3   OH237276   0.984   6.347  10.874 -0.2619 -0.2757  0.5599
 5262TIP3    H137277   0.964   6.417  10.936 -0.4055  0.0851  0.1136
 5262TIP3    H237278   1.016   6.392  10.796  1.3094 -0.7863  0.8729
 5263TIP3   OH237279   0.004   0.328  11.435 -0.1321  0.1525  0.1825
 5263TIP3    H137280   0.037   0.238  11.430 -0.7374 -0.0847  0.3807
 5263TIP3    H237281   0.016   0.363  11.347  0.7896  0.1269  0.2866
 5264TIP3   OH237282   1.712   7.128  11.606  0.1005  0.1988  0.2958
 5264TIP3    H137283   1.618   7.112  11.598  0.2915 -2.2530  1.8493
 5264TIP3    H237284   1.741   7.147  11.517 -1.7242  0.2351 -0.3407
 5265TIP3   OH237285   4.248   5.365  10.852 -0.4809  1.1680 -0.4821
 5265TIP3    H137286   4.293   5.338  10.772  0.2506 -2.0286  0.8540
 5265TIP3    H237287   4.315   5.413  10.902 -0.2178  1.1292 -0.7923
 5266TIP3   OH237288   3.546   3.010   2.812 -0.1627 -0.6479  0.5149
 5266TIP3    H137289   3.546   3.101   2.841 -2.1364 -0.2293 -0.6378
 5266TIP3    H237290   3.476   2.968   2.863 -0.3244 -1.1155 -0.0759
 5267TIP3   OH237291   3.419   2.636  13.002 -0.0229 -0.0538 -0.2169
 5267TIP3    H137292   3.358   2.650  13.074  0.5821 -0.8129  0.4682
 5267TIP3    H237293   3.384   2.687  12.929 -1.1752 -0.0640  0.3227
 5268TIP3   OH237294   2.690   3.553  10.674 -0.8777  0.0883  0.2028
 5268TIP3    H137295   2.765   3.612  10.674  0.5359 -1.4978 -2.9029
 5268TIP3    H237296   2.617   3.607  10.705  1.0961  2.2507  1.3955
 5269TIP3   OH237297   2.372   4.386  10.983  0.0904  0.4766 -0.4095
 5269TIP3    H137298   2.458   4.405  11.019 -0.1679  0.6607  0.1196
 5269TIP3    H237299   2.386   4.380  10.889  0.7703  0.0076 -0.2837
 5270TIP3   OH237300   3.733   1.476  11.880  0.2409  0.2468  0.0076
 5270TIP3    H137301   3.723   1.476  11.975 -0.6811 -0.5011 -0.0782
 5270TIP3    H237302   3.704   1.389  11.853 -1.2332  1.0427 -1.1184
 5271TIP3   OH237303   4.846   6.235  12.318  0.3056 -0.3571  0.0332
 5271TIP3    H137304   4.826   6.294  12.245  0.7940  0.3754  0.4753
 5271TIP3    H237305   4.930   6.267  12.352  1.0123 -1.8271 -0.2440
 5272TIP3   OH237306   1.114   3.850  12.659 -0.0855 -0.1404 -0.5492
 5272TIP3    H137307   1.188   3.801  12.623  0.3649 -0.2281  0.4686
 5272TIP3    H237308   1.098   3.811  12.745 -0.2428  0.9530 -0.0618
 5273TIP3   OH237309   3.288   5.614  11.095  0.0364 -0.6594 -0.0725
 5273TIP3    H137310   3.364   5.616  11.037  0.4384 -1.2865  0.4302
 5273TIP3    H237311   3.213   5.627  11.036  0.5174 -0.1588 -0.5830
 5274TIP3   OH237312   3.754   6.902   2.424  0.4220  0.0653 -0.2039
 5274TIP3    H137313   3.832   6.896   2.478  1.1469  0.0274 -1.2354
 5274TIP3    H237314   3.690   6.846   2.469  1.1974 -0.4558  0.2795
 5275TIP3   OH237315   4.069   0.599  10.411 -0.1886 -0.6612 -0.1310
 5275TIP3    H137316   4.023   0.535  10.356  1.0414  0.9658 -3.3128
 5275TIP3    H237317   4.160   0.567  10.413  0.2393  0.4189 -0.9915
 5276TIP3   OH237318   2.377   1.179  13.830  0.2143 -0.2788  0.5926
 5276TIP3    H137319   2.297   1.185  13.882 -0.2814 -0.5926 -0.1091
 5276TIP3    H237320   2.399   1.270  13.808  0.3261 -0.1588  1.1849
 5277TIP3   OH237321   4.659   4.490  10.423 -0.6010 -0.3224 -0.6463
 5277TIP3    H137322   4.717   4.545  10.369  1.0043  0.0404  1.3355
 5277TIP3    H237323   4.669   4.402  10.386  0.8143 -0.1676 -0.6955
 5278TIP3   OH237324   6.617   2.073   2.105  0.1141 -0.1506  0.4977
 5278TIP3    H137325   6.582   2.066   2.016  2.3217 -2.0983 -0.3403
 5278TIP3    H237326   6.676   2.148   2.102  1.5434 -1.2507 -0.2786
 5279TIP3   OH237327   3.395   0.303  14.283 -0.2766 -0.1877  0.6622
 5279TIP3    H137328   3.373   0.369  14.348 -0.7476  0.6066 -0.2732
 5279TIP3    H237329   3.447   0.350  14.218  0.7988 -1.1276  0.8069
 5280TIP3   OH237330   0.452   2.510   0.944  0.0351  0.4280  0.3415
 5280TIP3    H137331   0.487   2.423   0.962 -1.9382 -0.6392 -0.6349
 5280TIP3    H237332   0.529   2.566   0.934  1.5614 -1.9167 -2.4984
 5281TIP3   OH237333   5.698   1.586  13.324 -0.3360  0.3579 -0.1894
 5281TIP3    H137334   5.787   1.581  13.291 -0.3125  1.4145 -0.3231
 5281TIP3    H237335   5.701   1.657  13.389 -1.3211  1.2078 -1.0368
 5282TIP3   OH237336   5.058   5.440  15.267 -0.6697 -0.0796  0.0037
 5282TIP3    H137337   5.146   5.402  15.272 -0.3528  0.6759  0.2304
 5282TIP3    H237338   5.002   5.375  15.310  0.1010  0.3961  1.8384
 5283TIP3   OH237339   4.383   2.557  11.148 -0.4445  0.3036  0.6211
 5283TIP3    H137340   4.364   2.464  11.164 -0.2071  0.2960  0.8540
 5283TIP3    H237341   4.437   2.584  11.222  0.9224  0.1807 -0.2921
 5284TIP3   OH237342   6.946   2.803  12.142 -0.3912 -0.2194 -0.5957
 5284TIP3    H137343   7.034   2.839  12.128 -1.3240  2.1547 -0.8077
 5284TIP3    H237344   6.893   2.879  12.165 -2.2819 -1.6934  0.1248
 5285TIP3   OH237345   6.929   1.115   0.082  0.4327 -0.2605  0.1889
 5285TIP3    H137346   6.902   1.064   0.158 -0.7141  0.7542  0.4979
 5285TIP3    H237347   6.961   1.050   0.019 -0.0618 -1.2562  0.9390
 5286TIP3   OH237348   4.545   6.802   9.819 -0.1927  1.0095  0.7023
 5286TIP3    H137349   4.550   6.886   9.866 -1.3155  1.4736  0.0431
 5286TIP3    H237350   4.529   6.827   9.728  0.4613  0.0825  0.3247
 5287TIP3   OH237351   5.806   3.209   2.399  0.7813 -0.0642 -0.1782
 5287TIP3    H137352   5.727   3.177   2.442 -0.3340 -2.4935 -3.5589
 5287TIP3    H237353   5.775   3.277   2.339  1.2076 -0.9242 -1.4125
 5288TIP3   OH237354   4.881   5.998  14.059  0.4877  0.5451 -0.0180
 5288TIP3    H137355   4.969   6.004  14.023  1.0717  0.4805  1.3346
 5288TIP3    H237356   4.823   6.025  13.987  1.7253  2.7092 -0.2734
 5289TIP3   OH237357   5.219   1.566  14.018 -0.0097 -0.4630  0.6885
 5289TIP3    H137358   5.217   1.655  14.054 -0.9815 -0.6443  1.1321
 5289TIP3    H237359   5.282   1.570  13.946  0.6279  0.3559  1.2778
 5290TIP3   OH237360   1.577   4.269  12.181 -0.2358 -0.0478  0.1291
 5290TIP3    H137361   1.646   4.209  12.153 -0.5298  0.0318 -0.8114
 5290TIP3    H237362   1.622   4.334  12.234  0.0667 -1.1705  1.3002
 5291TIP3   OH237363   7.066   2.247  15.290  0.6034 -0.2891  0.1100
 5291TIP3    H137364   7.004   2.252  15.363  2.3047 -0.1921  1.6548
 5291TIP3    H237365   7.110   2.163  15.303  1.6491  0.2015 -0.1696
 5292TIP3   OH237366   6.366   5.778   9.928 -0.5109 -0.8635  0.2613
 5292TIP3    H137367   6.318   5.753   9.850 -0.6008  0.7347 -0.2370
 5292TIP3    H237368   6.333   5.721   9.997 -0.4661 -2.2569 -0.8429
 5293TIP3   OH237369   2.988   0.543  11.838 -0.1407 -0.3915 -0.5038
 5293TIP3    H137370   2.904   0.567  11.799 -0.3240 -0.5743 -0.2262
 5293TIP3    H237371   2.992   0.448  11.831 -0.5892 -0.5220  0.7213
 5294TIP3   OH237372   2.228   6.878  12.321 -0.7151  0.1704  0.2656
 5294TIP3    H137373   2.314   6.920  12.315 -1.4206  1.4946 -3.5734
 5294TIP3    H237374   2.166   6.948  12.297 -2.4185 -1.7483 -1.2840
 5295TIP3   OH237375   2.403   5.565  12.810 -0.3384  0.2699 -0.4401
 5295TIP3    H137376   2.472   5.499  12.815 -1.1641 -0.6133 -0.2669
 5295TIP3    H237377   2.323   5.518  12.835 -1.2348  0.9248 -1.9045
 5296TIP3   OH237378   6.501   3.278   9.518 -0.1659 -0.3881  0.3924
 5296TIP3    H137379   6.431   3.249   9.459  0.5748 -1.8179  0.1665
 5296TIP3    H237380   6.459   3.282   9.604 -0.4677 -1.6305  0.3311
 5297TIP3   OH237381   7.202   4.449  11.191 -0.1554  0.0525  0.2183
 5297TIP3    H137382   7.247   4.531  11.172 -2.1763  1.0594 -0.4949
 5297TIP3    H237383   7.228   4.391  11.119  1.9080 -0.2732  1.1376
 5298TIP3   OH237384   0.438   5.125  11.356  0.2536 -0.1846 -0.1484
 5298TIP3    H137385   0.438   5.155  11.265  0.4705  0.5137  0.0761
 5298TIP3    H237386   0.486   5.193  11.404 -0.5673 -0.1202  0.6171
 5299TIP3   OH237387   5.091   2.585  11.043  0.0400 -0.1511  0.0201
 5299TIP3    H137388   4.998   2.581  11.021  0.1908  0.7780 -0.8580
 5299TIP3    H237389   5.097   2.655  11.108 -0.0115 -0.9580  0.9130
 5300TIP3   OH237390   3.965   6.440  11.335 -0.4278 -0.0802  0.1141
 5300TIP3    H137391   4.005   6.505  11.393  1.1939 -0.8098 -0.1105
 5300TIP3    H237392   3.871   6.447  11.351 -0.1248  0.7804  1.6897
 5301TIP3   OH237393   1.193   3.495   9.922 -0.3049  0.2374 -0.3382
 5301TIP3    H137394   1.287   3.485   9.940 -0.5489 -1.1383  0.2984
 5301TIP3    H237395   1.188   3.569   9.863  1.0375  1.5451  1.0845
 5302TIP3   OH237396   5.131   1.326  11.245 -0.4575  0.2319 -0.7674
 5302TIP3    H137397   5.044   1.306  11.280 -0.4908 -2.3626 -2.0238
 5302TIP3    H237398   5.114   1.375  11.165 -0.7932 -0.1224 -0.9194
 5303TIP3   OH237399   2.872   1.205  14.714 -0.4978 -0.3281 -0.1433
 5303TIP3    H137400   2.899   1.262  14.643 -1.2390 -1.6318 -1.5178
 5303TIP3    H237401   2.820   1.137  14.672 -2.2801 -0.2838  1.8395
 5304TIP3   OH237402   3.879   0.919  11.012 -0.0242  0.3167 -1.0224
 5304TIP3    H137403   3.954   0.873  10.974  0.3057 -1.9282  2.0208
 5304TIP3    H237404   3.913   0.960  11.091 -2.1867 -2.1382  1.3701
 5305TIP3   OH237405   1.527   2.999  13.483  0.3926  0.1157  0.5987
 5305TIP3    H137406   1.507   2.990  13.576  0.7775 -0.3313  0.6424
 5305TIP3    H237407   1.516   2.911  13.447  2.0858 -0.1441  0.6031
 5306TIP3   OH237408   2.569   3.082   1.988 -0.2440 -0.4223 -0.2122
 5306TIP3    H137409   2.580   2.995   2.027  0.3347 -0.0232  0.5378
 5306TIP3    H237410   2.500   3.122   2.041  0.4859  0.0913  0.3723
 5307TIP3   OH237411   5.970   0.893   9.530  0.2419  1.3225  0.1753
 5307TIP3    H137412   5.957   0.969   9.473  1.9353  0.3534 -1.6110
 5307TIP3    H237413   6.032   0.923   9.596  4.1294  0.6424 -2.7866
 5308TIP3   OH237414   2.845   6.565   9.959 -0.6437  0.0476 -0.0088
 5308TIP3    H137415   2.811   6.595   9.875 -1.0720  0.4449  0.2941
 5308TIP3    H237416   2.883   6.480   9.941 -0.6768  0.1577 -0.6171
 5309TIP3   OH237417   6.984   4.779  10.222  0.5178 -0.4364  0.1503
 5309TIP3    H137418   6.953   4.711  10.282  0.9392 -1.1208 -0.3890
 5309TIP3    H237419   7.059   4.739  10.177  0.8700  0.4440 -0.0643
 5310TIP3   OH237420   4.316   2.829  13.626 -0.4633  0.0511  0.0753
 5310TIP3    H137421   4.322   2.734  13.621 -0.0859  0.0703  0.1118
 5310TIP3    H237422   4.236   2.846  13.675 -0.3081 -0.2513  0.4344
 5311TIP3   OH237423   0.336   6.437  13.595  0.0271  0.1080 -0.0056
 5311TIP3    H137424   0.428   6.414  13.588  0.2365  0.9060  0.0021
 5311TIP3    H237425   0.311   6.411  13.684  0.1089 -0.5769 -0.1848
 5312TIP3   OH237426   3.783   0.525  10.862 -0.0682 -0.2730 -0.2499
 5312TIP3    H137427   3.803   0.509  10.770 -1.6814 -2.3751 -0.2969
 5312TIP3    H237428   3.713   0.591  10.861  2.9321  3.2584 -0.2407
 5313TIP3   OH237429   3.193   0.476  13.306 -0.4063 -0.2938 -0.5516
 5313TIP3    H137430   3.280   0.437  13.309  0.1479  0.8354 -1.2808
 5313TIP3    H237431   3.207   0.565  13.274 -1.7005  0.3209  0.4786
 5314TIP3   OH237432   6.949   7.009  11.326  0.1601  0.0605  0.4514
 5314TIP3    H137433   6.925   7.083  11.381  0.7004  0.9354 -0.4622
 5314TIP3    H237434   7.045   7.008  11.328  0.1780 -0.0238 -0.3084
 5315TIP3   OH237435   7.052   5.957  14.122 -0.6515  0.0280  0.0080
 5315TIP3    H137436   7.049   6.027  14.188  0.4209 -1.7082  1.9929
 5315TIP3    H237437   7.089   6.000  14.045  1.8676  1.2933  1.7652
 5316TIP3   OH237438   2.873   4.926  13.309 -0.3536  0.3589 -0.2716
 5316TIP3    H137439   2.815   4.879  13.369 -0.2962  0.1014 -0.4173
 5316TIP3    H237440   2.855   4.888  13.223  0.2106  0.0990 -0.2833
 5317TIP3   OH237441   1.436   4.403  12.005 -0.5259  0.4910  0.5515
 5317TIP3    H137442   1.490   4.421  11.927 -0.3486 -1.5563  0.1542
 5317TIP3    H237443   1.498   4.368  12.069 -1.1712 -0.8629  0.4666
 5318TIP3   OH237444   0.695   1.063  11.885  0.3679  0.2599  0.3615
 5318TIP3    H137445   0.785   1.035  11.900  0.8813  1.7368  0.1876
 5318TIP3    H237446   0.673   1.117  11.961  0.4853  1.8528 -0.6896
 5319TIP3   OH237447   2.405   3.169  12.616  0.1466 -0.1072  0.0630
 5319TIP3    H137448   2.327   3.123  12.645 -0.8411  0.4659 -1.5429
 5319TIP3    H237449   2.460   3.100  12.578 -0.5784 -0.2398 -0.7956
 5320TIP3   OH237450   0.366   0.498   3.587  1.0615  0.1676 -0.0026
 5320TIP3    H137451   0.401   0.586   3.574  0.3274  0.4712  0.0770
 5320TIP3    H237452   0.442   0.447   3.618  1.7937  0.4499 -1.2700
 5321TIP3   OH237453   3.544   0.690  10.892  0.7391  0.9321  0.5156
 5321TIP3    H137454   3.518   0.728  10.976  2.5761  3.0020  0.2503
 5321TIP3    H237455   3.507   0.749  10.826 -1.0349 -0.9003 -0.2192
 5322TIP3   OH237456   4.545   1.704  10.037  0.4889  0.3309  0.1315
 5322TIP3    H137457   4.609   1.772  10.058 -0.5476  0.9242  1.5437
 5322TIP3    H237458   4.494   1.741   9.965  0.8362  0.4410 -0.0610
 5323TIP3   OH237459   3.712   0.325  10.535 -0.2184  0.3677 -0.1445
 5323TIP3    H137460   3.623   0.316  10.501 -0.2984  3.0744 -0.9480
 5323TIP3    H237461   3.766   0.271  10.477 -1.1577 -0.0844 -0.6148
 5324TIP3   OH237462   4.608   4.487  12.645 -0.1043 -0.4745 -0.1660
 5324TIP3    H137463   4.649   4.409  12.684  2.7916  1.3410  0.7587
 5324TIP3    H237464   4.652   4.497  12.561 -3.0822 -1.7749 -2.0248
 5325TIP3   OH237465   3.220   3.314  14.888 -0.0191 -0.1436 -0.0593
 5325TIP3    H137466   3.314   3.323  14.877 -0.2378  3.0276 -0.0859
 5325TIP3    H237467   3.184   3.327  14.800 -0.5449 -0.6626  0.0699
 5326TIP3   OH237468   1.196   5.087  13.589 -0.1434  0.2313  0.0153
 5326TIP3    H137469   1.113   5.082  13.541 -1.2393 -0.5537  1.8738
 5326TIP3    H237470   1.171   5.080  13.681  2.2087 -3.2828  0.5569
 5327TIP3   OH237471   6.493   1.027  13.061 -0.0516 -0.1406  0.6969
 5327TIP3    H137472   6.495   1.098  13.125 -1.3998  0.9167 -0.3687
 5327TIP3    H237473   6.579   1.031  13.019  0.1111  0.4536  1.0685
 5328TIP3   OH237474   5.532   5.796  11.815  0.4030  0.2021  0.2026
 5328TIP3    H137475   5.590   5.786  11.740  0.7389  0.6941  0.3933
 5328TIP3    H237476   5.566   5.872  11.862 -0.3667  0.4678  0.3478
 5329TIP3   OH237477   0.090   1.594   2.530 -0.3063  0.3783  0.1184
 5329TIP3    H137478   0.155   1.528   2.506 -0.8757  0.2875 -1.2985
 5329TIP3    H237479   0.141   1.674   2.540  0.1728  0.0795  0.1251
 5330TIP3   OH237480   1.247   2.570  10.957 -0.1568  0.0053  0.1035
 5330TIP3    H137481   1.313   2.584  11.025 -0.5823  0.1866  0.4774
 5330TIP3    H237482   1.202   2.654  10.950 -0.2980 -0.0964 -0.2090
 5331TIP3   OH237483   6.241   3.623  14.532  0.3093  0.3727  0.6396
 5331TIP3    H137484   6.255   3.717  14.522  0.7101  0.2034 -0.5920
 5331TIP3    H237485   6.146   3.613  14.538  0.1353  0.7305 -1.0370
 5332TIP3   OH237486   2.489   1.392  15.250 -0.7527 -0.0953  0.3381
 5332TIP3    H137487   2.545   1.319  15.279 -0.4864 -0.2086 -0.4456
 5332TIP3    H237488   2.409   1.382  15.302 -0.4992 -0.6153  0.6460
 5333TIP3   OH237489   2.220   6.626   9.672 -0.0779  0.5224  0.5262
 5333TIP3    H137490   2.132   6.591   9.658 -0.3203  0.4699  2.0090
 5333TIP3    H237491   2.228   6.698   9.609 -0.2067 -1.0528 -1.3902
 5334TIP3   OH237492   3.862   6.537  12.398 -0.5879  0.1543 -0.5938
 5334TIP3    H137493   3.938   6.549  12.341  0.0203  3.1420  0.6748
 5334TIP3    H237494   3.846   6.442  12.397 -0.0083 -0.0665 -4.8156
 5335TIP3   OH237495   3.842   3.070  10.361 -0.1433  0.1547  0.0184
 5335TIP3    H137496   3.770   3.009  10.349  0.8677 -1.0520 -0.0990
 5335TIP3    H237497   3.827   3.107  10.448  0.4995 -2.0797  1.1654
 5336TIP3   OH237498   6.638   5.590  10.018  0.1151 -0.0218  0.0197
 5336TIP3    H137499   6.658   5.497  10.007 -2.6024 -0.4503 -2.5594
 5336TIP3    H237500   6.679   5.614  10.101  0.9668 -3.4938  0.7462
 5337TIP3   OH237501   6.064   0.701   2.148  0.4209  0.0127  0.0098
 5337TIP3    H137502   6.026   0.651   2.220 -0.6020  1.7239  0.7431
 5337TIP3    H237503   6.158   0.689   2.157  0.2165 -1.4303  0.3870
 5338TIP3   OH237504   5.863   4.136  13.960 -0.4692  0.7897 -0.3188
 5338TIP3    H137505   5.781   4.132  14.009  0.7525  0.9405  1.8544
 5338TIP3    H237506   5.881   4.230  13.951  0.0595  0.7527  0.2907
 5339TIP3   OH237507   0.563   1.703   1.641 -0.5111 -0.1824  0.1864
 5339TIP3    H137508   0.498   1.634   1.629 -0.7919 -0.2941  2.0619
 5339TIP3    H237509   0.643   1.669   1.600 -1.5732 -0.0387 -2.1691
 5340TIP3   OH237510   1.396   6.567  13.785  0.4638 -0.3506 -0.4274
 5340TIP3    H137511   1.422   6.584  13.694  0.5612  0.1420 -0.3100
 5340TIP3    H237512   1.334   6.637  13.806 -0.0629 -0.8497 -0.3273
 5341TIP3   OH237513   4.478   1.554   0.130  0.0806  0.7370  0.0396
 5341TIP3    H137514   4.429   1.540   0.050 -0.1623 -0.1420  0.3320
 5341TIP3    H237515   4.416   1.599   0.189 -0.1717  0.2088  0.1836
 5342TIP3   OH237516   1.157   6.616   1.753 -0.2701  0.1400  0.0726
 5342TIP3    H137517   1.133   6.617   1.846 -2.3507 -1.6912 -0.3567
 5342TIP3    H237518   1.240   6.567   1.751  0.1402  0.7514  0.9899
 5343TIP3   OH237519   4.341   4.503   9.486 -0.2124 -0.0293  0.3803
 5343TIP3    H137520   4.260   4.496   9.536 -1.2178  0.7209 -1.0527
 5343TIP3    H237521   4.376   4.414   9.483 -1.1679 -0.4311  0.7227
 5344TIP3   OH237522   5.537   1.529  12.428 -0.1434 -0.1455 -0.2344
 5344TIP3    H137523   5.544   1.589  12.502  0.8529  0.6075 -0.9133
 5344TIP3    H237524   5.458   1.556  12.382 -0.1913  0.0732 -0.0236
 5345TIP3   OH237525   3.730   0.135  11.483  0.1641 -0.5154 -0.9026
 5345TIP3    H137526   3.727   0.216  11.534  0.3455 -0.4839 -0.9400
 5345TIP3    H237527   3.698   0.068  11.543  0.9144 -0.5728 -0.5550
 5346TIP3   OH237528   6.874   5.555  13.749 -0.5097 -0.6231 -0.0906
 5346TIP3    H137529   6.801   5.514  13.702 -1.8534  1.2031  0.2671
 5346TIP3    H237530   6.948   5.548  13.689 -1.3380 -1.2991 -1.0693
 5347TIP3   OH237531   5.326   0.410   2.627  0.5131 -0.3329 -0.4579
 5347TIP3    H137532   5.389   0.338   2.633  0.8613  0.0836  4.3204
 5347TIP3    H237533   5.243   0.367   2.609  1.2455 -1.4611 -1.3402
 5348TIP3   OH237534   3.515   0.558  11.637  0.0384 -0.1806 -0.0838
 5348TIP3    H137535   3.470   0.514  11.565  0.9018 -1.1794 -0.0352
 5348TIP3    H237536   3.501   0.501  11.712 -1.7964  1.3952  0.8633
 5349TIP3   OH237537   2.703   3.878  12.262 -0.1835  0.1059  0.3198
 5349TIP3    H137538   2.710   3.961  12.215  3.5478 -0.3664 -0.2689
 5349TIP3    H237539   2.688   3.813  12.194  2.0289 -0.2023  0.0508
 5350TIP3   OH237540   5.317   3.616   1.402 -0.7525  0.0307 -0.3584
 5350TIP3    H137541   5.377   3.546   1.376 -0.9809 -0.0270 -0.7405
 5350TIP3    H237542   5.251   3.618   1.333 -1.1678  0.1256  0.0385
 5351TIP3   OH237543   4.014   4.504  12.872  0.1571 -0.6673  0.1078
 5351TIP3    H137544   4.050   4.530  12.957 -0.8892 -2.2946  1.1159
 5351TIP3    H237545   4.073   4.543  12.808  0.3339  1.5797  1.5228
 5352TIP3   OH237546   5.574   1.690  12.106  0.2041 -0.2336  0.5818
 5352TIP3    H137547   5.536   1.641  12.033 -0.3708 -0.3397  0.9469
 5352TIP3    H237548   5.668   1.685  12.091  0.0642  1.3643 -1.2158
 5353TIP3   OH237549   5.829   1.217  12.573 -0.2535 -0.0538 -0.5771
 5353TIP3    H137550   5.734   1.226  12.565 -0.7866 -1.8956  2.2551
 5353TIP3    H237551   5.855   1.165  12.497 -1.6334 -0.2513 -0.9330
 5354TIP3   OH237552   2.294   3.229   9.952  0.5495  0.2900  0.0756
 5354TIP3    H137553   2.334   3.289  10.015 -0.1591  2.0120 -1.0189
 5354TIP3    H237554   2.201   3.251   9.955 -0.2489 -2.7211  1.6305
 5355TIP3   OH237555   5.292   6.776  10.518 -0.4589  0.5342 -0.0994
 5355TIP3    H137556   5.370   6.767  10.574 -0.8546 -0.3763  0.3185
 5355TIP3    H237557   5.274   6.688  10.488 -0.0780  1.0559 -1.9562
 5356TIP3   OH237558   6.420   6.427  13.679 -0.5344  1.2083 -0.2125
 5356TIP3    H137559   6.361   6.472  13.618  0.9640  3.7228  0.0471
 5356TIP3    H237560   6.502   6.419  13.631 -0.2808  0.2022  0.3657
 5357TIP3   OH237561   5.077   4.382   2.527 -0.1542  0.0107  0.6262
 5357TIP3    H137562   5.038   4.469   2.520  0.8461  0.4358  0.1249
 5357TIP3    H237563   5.119   4.381   2.613  1.5907  0.8013 -0.1716
 5358TIP3   OH237564   4.077   6.314  12.654 -0.0713 -0.6366 -0.1686
 5358TIP3    H137565   4.103   6.230  12.692 -3.6001 -0.8236  2.3118
 5358TIP3    H237566   4.083   6.301  12.560 -0.5582 -3.7395  0.1299
 5359TIP3   OH237567   1.331   5.364  10.850 -0.5327  0.0385  0.3795
 5359TIP3    H137568   1.371   5.415  10.920 -1.2333  1.4879 -0.2455
 5359TIP3    H237569   1.357   5.407  10.769  0.5946 -1.8423 -0.3374
 5360TIP3   OH237570   0.105   4.236   0.006  0.2615 -0.1448 -0.6066
 5360TIP3    H137571   0.072   4.158   0.050  0.4382  0.5457  0.8062
 5360TIP3    H237572   0.094   4.306   0.070  0.1357  0.9955 -1.8338
 5361TIP3   OH237573   6.254   5.841  10.425  0.2639  0.0619 -0.2303
 5361TIP3    H137574   6.182   5.845  10.488  0.6781 -0.1528  0.2571
 5361TIP3    H237575   6.219   5.883  10.346 -0.9679 -1.5139 -0.5650
 5362TIP3   OH237576   2.403   2.630  12.334  0.1208 -0.1394 -0.1275
 5362TIP3    H137577   2.375   2.719  12.355 -0.0714  0.0174 -1.0164
 5362TIP3    H237578   2.417   2.589  12.419  0.5925  0.8567  0.2916
 5363TIP3   OH237579   4.982   5.253  12.024  0.5501 -0.4659 -0.0993
 5363TIP3    H137580   4.981   5.320  11.955 -0.3729 -0.0370  0.3158
 5363TIP3    H237581   4.934   5.179  11.986  0.1936 -0.2947  0.0119
 5364TIP3   OH237582   1.560   4.851  12.823  0.6390  0.1006  0.1874
 5364TIP3    H137583   1.488   4.791  12.803  0.3419  0.6829 -0.5636
 5364TIP3    H237584   1.521   4.919  12.879  0.2678  1.0887 -1.2109
 5365TIP3   OH237585   1.891   6.383  12.381  0.6387  1.0985  0.6420
 5365TIP3    H137586   1.832   6.371  12.456  0.1880  2.5430  0.5353
 5365TIP3    H237587   1.964   6.434  12.416  1.5055 -0.0628  0.5939
 5366TIP3   OH237588   3.183   6.303  10.447 -0.1535  0.3070 -0.3845
 5366TIP3    H137589   3.196   6.351  10.529  0.3587  0.2328 -0.4139
 5366TIP3    H237590   3.223   6.217  10.463 -0.3589  0.1697 -0.5955
 5367TIP3   OH237591   2.084   4.234  14.624  0.3368  0.1800  1.1513
 5367TIP3    H137592   2.121   4.322  14.614  1.0927 -0.1047  1.4200
 5367TIP3    H237593   2.020   4.243  14.694  0.1360  0.6001  0.9162
 5368TIP3   OH237594   5.538   1.577  10.355  0.6747  0.3358 -0.0394
 5368TIP3    H137595   5.497   1.514  10.296 -0.1191  0.3034  0.5161
 5368TIP3    H237596   5.629   1.583  10.326  0.3446  0.1947 -1.1399
 5369TIP3   OH237597   6.717   3.854  15.389  0.1546 -0.4916  0.1502
 5369TIP3    H137598   6.681   3.814  15.309  0.1005 -0.7935  0.3235
 5369TIP3    H237599   6.681   3.801  15.460  1.4177 -1.1819  0.3069
 5370TIP3   OH237600   2.830   1.511  15.196 -0.0106  0.4984  0.6039
 5370TIP3    H137601   2.919   1.491  15.227 -0.8105 -5.0074  0.3790
 5370TIP3    H237602   2.838   1.508  15.100 -0.3536  0.4950  0.5766
 5371TIP3   OH237603   0.377   2.671  15.001 -0.4656  0.1627 -0.3300
 5371TIP3    H137604   0.398   2.690  14.909  0.9012  0.8149  0.1080
 5371TIP3    H237605   0.295   2.717  15.016  0.4406  1.9364 -0.6046
 5372TIP3   OH237606   4.906   4.176  10.483  0.0251  0.4561 -0.5135
 5372TIP3    H137607   4.931   4.175  10.575 -0.5787  0.5160 -0.3436
 5372TIP3    H237608   4.900   4.084  10.458 -2.0459  0.3682  0.1446
 5373TIP3   OH237609   6.444   5.576  10.911  0.5847  0.6017 -0.3416
 5373TIP3    H137610   6.506   5.649  10.908 -0.3184  1.3437 -1.4364
 5373TIP3    H237611   6.361   5.615  10.937 -0.0836  0.1204 -1.6475
 5374TIP3   OH237612   5.947   0.670  11.360 -0.0141  0.1076 -0.0317
 5374TIP3    H137613   5.881   0.724  11.404  1.1210  1.3259  0.2365
 5374TIP3    H237614   5.898   0.595  11.327 -1.1616 -0.1239  2.0348
 5375TIP3   OH237615   1.616   4.791  12.269 -0.0333  0.2488 -0.0909
 5375TIP3    H137616   1.587   4.754  12.353  0.9085 -0.3347 -0.0077
 5375TIP3    H237617   1.563   4.746  12.203  1.7964 -2.0962 -0.0771
 5376TIP3   OH237618   5.052   4.798  14.284  1.1330 -0.2671 -0.1523
 5376TIP3    H137619   5.004   4.818  14.204  1.8292  1.1941 -0.2407
 5376TIP3    H237620   5.030   4.870  14.344  2.5933  0.0350  0.0625
 5377TIP3   OH237621   6.909   5.553  13.159  0.1891 -0.4653 -0.3487
 5377TIP3    H137622   6.909   5.533  13.065 -0.3194 -1.0211 -0.2348
 5377TIP3    H237623   6.842   5.495  13.196  0.2285 -0.0901  0.3243
 5378TIP3   OH237624   2.531   5.769  12.380  0.6203  0.0788 -0.1594
 5378TIP3    H137625   2.485   5.789  12.462  0.2249 -0.2436 -0.2998
 5378TIP3    H237626   2.469   5.716  12.330  0.5680  0.9230 -0.9981
 5379TIP3   OH237627   6.150   4.021   9.720  0.0892 -0.1768 -0.2511
 5379TIP3    H137628   6.123   4.113   9.711  1.8529  0.3745 -0.3171
 5379TIP3    H237629   6.230   4.025   9.773 -1.2238 -1.9338  2.0564
 5380TIP3   OH237630   2.936   2.848  10.424  0.1926  0.3312 -0.0714
 5380TIP3    H137631   2.931   2.935  10.463  1.2131  1.6091 -2.5735
 5380TIP3    H237632   3.020   2.848  10.377  0.1017 -1.9212 -0.3271
 5381TIP3   OH237633   4.565   1.880  13.079  0.2051  0.0691  0.2716
 5381TIP3    H137634   4.648   1.857  13.036 -0.3062 -0.3373 -0.5187
 5381TIP3    H237635   4.499   1.869  13.010 -0.6461 -0.6347  1.1736
 5382TIP3   OH237636   0.531   3.820  10.551 -0.2942  0.5355 -0.3450
 5382TIP3    H137637   0.592   3.879  10.595  0.0524  2.1856 -2.8054
 5382TIP3    H237638   0.587   3.755  10.507 -0.3786  0.9493 -1.0897
 5383TIP3   OH237639   1.542   1.155  14.528 -0.3718 -0.1323  0.0039
 5383TIP3    H137640   1.585   1.226  14.480  0.7226  0.0513  1.2052
 5383TIP3    H237641   1.461   1.194  14.560  0.9090  1.1063  1.9379
 5384TIP3   OH237642   6.983   2.403  12.093  0.0291 -0.0392 -0.1713
 5384TIP3    H137643   6.954   2.337  12.156 -1.3428 -0.2120 -0.9528
 5384TIP3    H237644   7.068   2.432  12.127 -0.6882 -0.0629  1.7880
 5385TIP3   OH237645   6.475   2.401   0.986 -0.4495 -0.2709  0.5413
 5385TIP3    H137646   6.382   2.392   1.007 -0.7610  0.1383 -0.5933
 5385TIP3    H237647   6.478   2.406   0.891  0.8703 -1.6109  0.4832
 5386TIP3   OH237648   6.400   1.266  10.287 -0.1767  0.6502  0.1318
 5386TIP3    H137649   6.305   1.265  10.271 -0.3907 -1.3218  1.1911
 5386TIP3    H237650   6.438   1.228  10.208 -0.4804 -0.6254  0.5770
 5387TIP3   OH237651   1.712   4.555  10.039 -0.3014 -0.1202  0.8438
 5387TIP3    H137652   1.767   4.617   9.990  1.1303  0.1506  2.6914
 5387TIP3    H237653   1.698   4.482   9.978  0.1451  0.8566 -0.4745
 5388TIP3   OH237654   5.722   0.456  10.116  0.5746 -0.5978  0.6145
 5388TIP3    H137655   5.781   0.429  10.187  1.8986 -3.1861 -1.3030
 5388TIP3    H237656   5.699   0.374  10.073 -3.0409  0.5126  0.1342
 5389TIP3   OH237657   7.185   6.009  11.242 -0.3261  0.1789  0.1355
 5389TIP3    H137658   7.184   6.006  11.146 -1.2448 -0.5639  0.1494
 5389TIP3    H237659   7.277   5.998  11.265  0.2327  2.5738 -0.6739
 5390TIP3   OH237660   5.164   2.741  12.069  0.0315  0.0199  0.0625
 5390TIP3    H137661   5.156   2.817  12.127 -2.0118  0.9928 -1.3660
 5390TIP3    H237662   5.108   2.674  12.108  0.9193 -0.3580  0.7070
 5391TIP3   OH237663   4.178   3.755  11.816  0.6845  0.6066 -0.1463
 5391TIP3    H137664   4.238   3.681  11.806 -0.0162  0.2488 -2.2464
 5391TIP3    H237665   4.192   3.809  11.738 -0.1536  1.6880  0.4123
 5392TIP3   OH237666   2.583   5.978  12.832  0.7973 -0.2702  0.2006
 5392TIP3    H137667   2.586   5.981  12.928  1.6229 -2.4338  0.3013
 5392TIP3    H237668   2.520   6.045  12.808  1.1601  0.8710  2.2099
 5393TIP3   OH237669   2.089   0.479  10.517 -0.5498  0.3500 -0.4280
 5393TIP3    H137670   1.999   0.484  10.550 -0.0760 -0.1325  1.0202
 5393TIP3    H237671   2.142   0.514  10.589  0.4800 -0.0918 -0.9597
 5394TIP3   OH237672   0.221   0.846  10.557  0.5806 -0.2364 -0.5400
 5394TIP3    H137673   0.256   0.757  10.559 -1.2117 -1.0153 -1.3108
 5394TIP3    H237674   0.291   0.899  10.518  1.4753 -1.3867 -0.5528
 5395TIP3   OH237675   0.432   1.633  10.264 -0.5385  0.6035  0.0554
 5395TIP3    H137676   0.488   1.695  10.218 -0.1240 -0.7260 -1.2990
 5395TIP3    H237677   0.378   1.593  10.196  0.0837 -1.4052  0.6452
 5396TIP3   OH237678   4.683   2.377   9.826 -0.1821 -0.6436 -0.5085
 5396TIP3    H137679   4.777   2.362   9.818  0.2835  1.1652  0.7977
 5396TIP3    H237680   4.643   2.310   9.770  1.8211 -2.0149 -0.4111
 5397TIP3   OH237681   6.909   0.672  10.374  0.2115  0.3117 -0.1047
 5397TIP3    H137682   6.919   0.593  10.321  1.5599  0.4744 -0.1388
 5397TIP3    H237683   6.966   0.658  10.450  0.9701  1.4974 -0.4282
 5398TIP3   OH237684   1.789   4.665  11.239  0.3503  0.1027  0.2551
 5398TIP3    H137685   1.883   4.682  11.239  0.8138 -2.1592  0.6280
 5398TIP3    H237686   1.781   4.574  11.209 -1.6582  0.0056  0.9394
 5399TIP3   OH237687   3.030   5.843   5.315  0.1010  0.6785  0.0614
 5399TIP3    H137688   2.991   5.860   5.401  1.4093  1.5214  0.5328
 5399TIP3    H237689   3.032   5.748   5.308 -0.3732  0.6036  0.7946
 5400TIP3   OH237690   4.461   5.993  12.082  0.4474 -0.3042  0.3496
 5400TIP3    H137691   4.380   5.943  12.089  0.7128 -0.8954 -0.6585
 5400TIP3    H237692   4.531   5.928  12.077  0.7663  0.1216 -1.3552
 5401TIP3   OH237693   4.597   5.874  11.722  0.0758 -0.2676  0.1248
 5401TIP3    H137694   4.530   5.933  11.687 -0.0562  0.5671  1.7061
 5401TIP3    H237695   4.552   5.791  11.736  0.2885 -0.8679 -2.2358
 5402TIP3   OH237696   0.525   6.769  10.214  0.4079  0.1904 -0.2593
 5402TIP3    H137697   0.455   6.721  10.170  1.7123 -1.1303 -0.9675
 5402TIP3    H237698   0.499   6.771  10.306 -0.7574  0.0976 -0.5723
 5403TIP3   OH237699   2.209   0.025   1.527  1.0035  0.2523 -0.5565
 5403TIP3    H137700   2.269   0.021   1.452  1.1354  0.9801 -0.5022
 5403TIP3    H237701   2.212  -0.062   1.565  1.1910 -0.0343 -1.2061
 5404TIP3   OH237702   4.101   4.539  11.408  0.2308  0.3136 -0.5494
 5404TIP3    H137703   4.106   4.543  11.313  0.3381  0.6957 -0.5324
 5404TIP3    H237704   4.009   4.523  11.427  0.2052  0.2617 -0.7189
 5405TIP3   OH237705   5.683   1.800  14.068  0.6472  0.3338  0.2839
 5405TIP3    H137706   5.709   1.825  13.979  0.0023 -2.5342 -0.8465
 5405TIP3    H237707   5.742   1.729  14.091 -1.6796 -1.7304  0.3983
 5406TIP3   OH237708   4.747   3.563  13.209  0.8397  0.5689 -0.1550
 5406TIP3    H137709   4.653   3.544  13.205  0.5721  1.7596  0.0375
 5406TIP3    H237710   4.767   3.564  13.302  1.0618  0.2410 -0.1997
 5407TIP3   OH237711   2.370   5.682  10.093 -0.6422 -0.8438  0.2211
 5407TIP3    H137712   2.311   5.735  10.039 -1.3908 -0.5053  1.3214
 5407TIP3    H237713   2.322   5.599  10.106 -1.1566 -0.3754  1.5466
 5408TIP3   OH237714   2.096   5.098  10.920  0.3765  0.6078  0.0661
 5408TIP3    H137715   2.104   5.178  10.868 -2.2977 -0.0337 -1.5849
 5408TIP3    H237716   2.138   5.031  10.866 -0.0912  0.4070 -0.0592
 5409TIP3   OH237717   3.190   1.388  13.347 -0.1853  0.3045 -0.2000
 5409TIP3    H137718   3.107   1.361  13.308 -1.5033  1.7514  1.4269
 5409TIP3    H237719   3.247   1.312  13.337 -1.7326 -0.8005 -1.2145
 5410TIP3   OH237720   5.289   2.398  11.934  0.1429  0.4578  0.2039
 5410TIP3    H137721   5.378   2.415  11.904  0.7168 -1.9197  0.3805
 5410TIP3    H237722   5.298   2.376  12.026 -0.4472 -1.0212 -0.0689
 5411TIP3   OH237723   4.343   0.458  12.754  0.1183  0.0925  0.0497
 5411TIP3    H137724   4.349   0.539  12.804  2.0772  0.1694 -0.2264
 5411TIP3    H237725   4.428   0.416  12.766 -0.3041 -1.1575 -1.0819
 5412TIP3   OH237726   3.521   2.851  13.263  0.5839  0.5892  0.3271
 5412TIP3    H137727   3.556   2.763  13.251 -0.5357 -0.0047  1.1730
 5412TIP3    H237728   3.482   2.873  13.179 -2.3057 -1.2377  1.0515
 5413TIP3   OH237729   1.311   6.508  15.072  0.4569  0.1468  0.1264
 5413TIP3    H137730   1.230   6.508  15.020  0.6427  3.4774 -0.3966
 5413TIP3    H237731   1.380   6.529  15.009  1.5537 -1.2072  0.8296
 5414TIP3   OH237732   7.175   3.675  12.969 -0.4734  0.2260  0.3610
 5414TIP3    H137733   7.126   3.693  12.889 -2.9682 -0.3168  1.6696
 5414TIP3    H237734   7.194   3.581  12.964 -0.7260  0.1701  0.4661
 5415TIP3   OH237735   1.195   0.670  10.282  0.3862 -0.2528  0.0574
 5415TIP3    H137736   1.257   0.684  10.353  2.8781  0.9693 -2.1461
 5415TIP3    H237737   1.119   0.725  10.304  0.7630 -0.4937  2.0532
 5416TIP3   OH237738   6.614   4.678   1.178 -0.1224 -0.0777  0.4240
 5416TIP3    H137739   6.688   4.626   1.212 -0.9522 -0.9876  0.8946
 5416TIP3    H237740   6.630   4.682   1.084 -0.6552 -2.2798  0.1861
 5417TIP3   OH237741   6.436   3.277   9.780 -0.6226 -0.0661  0.0411
 5417TIP3    H137742   6.346   3.243   9.778 -1.0545  1.0670 -1.1087
 5417TIP3    H237743   6.460   3.274   9.872 -1.3668 -1.5680  0.2191
 5418TIP3   OH237744   4.127   6.440  11.740  0.4034  0.4259  0.7147
 5418TIP3    H137745   4.171   6.358  11.759  1.9055  1.0948  0.3214
 5418TIP3    H237746   4.044   6.415  11.700  1.0702 -0.9032  0.1084
 5419TIP3   OH237747   6.104   7.146  12.981 -0.4558  0.4089  0.3354
 5419TIP3    H137748   6.129   7.180  13.067 -0.9891  1.6175  0.0304
 5419TIP3    H237749   6.020   7.188  12.962  1.0586  2.6430 -2.0959
 5420TIP3   OH237750   5.668   5.236  14.676  0.0841  0.3613  0.1569
 5420TIP3    H137751   5.574   5.232  14.658  0.0476  1.9368 -0.0831
 5420TIP3    H237752   5.702   5.154  14.639 -1.0912  0.0543 -0.3137
 5421TIP3   OH237753   1.930   1.261  12.752 -0.1163  0.1578  0.5453
 5421TIP3    H137754   1.938   1.169  12.727 -2.9145 -0.1001  0.3003
 5421TIP3    H237755   1.854   1.263  12.810 -1.6210  2.6350 -1.3491
 5422TIP3   OH237756   1.379   6.937   9.762 -0.2187  0.2091 -0.5647
 5422TIP3    H137757   1.303   6.971   9.716 -0.6274 -0.5736 -0.4828
 5422TIP3    H237758   1.451   6.946   9.699  0.1039  2.8440  0.0560
 5423TIP3   OH237759   3.239   4.426  15.338  0.3348 -0.8407 -0.7270
 5423TIP3    H137760   3.157   4.456  15.377  1.8721 -0.1330  2.3225
 5423TIP3    H237761   3.223   4.334  15.316 -1.2120 -0.7647 -0.0414
 5424TIP3   OH237762   2.128   6.009  11.250  0.0073 -0.1462  0.1957
 5424TIP3    H137763   2.146   5.915  11.253 -0.1230 -0.1659  0.3709
 5424TIP3    H237764   2.211   6.048  11.224 -0.3028 -0.4297 -1.3178
 5425TIP3   OH237765   5.354   0.608  14.160 -0.6974  0.3975  0.2546
 5425TIP3    H137766   5.315   0.691  14.190 -0.2060  0.3103  1.1561
 5425TIP3    H237767   5.447   0.616  14.181 -0.3903  0.1801 -0.9498
 5426TIP3   OH237768   2.631   0.664  14.340 -0.0187  0.2768  0.1719
 5426TIP3    H137769   2.604   0.756  14.337 -1.5674 -0.1829 -0.9116
 5426TIP3    H237770   2.696   0.656  14.271 -0.1655  0.4617  0.0126
 5427TIP3   OH237771   5.968   0.517  13.573 -0.4176 -0.1793 -0.0338
 5427TIP3    H137772   5.951   0.499  13.480  0.3499  1.4618 -0.5306
 5427TIP3    H237773   6.062   0.504  13.583 -0.6015 -1.0971  0.7362
 5428TIP3   OH237774   6.623   2.896  13.131 -0.8879 -0.3327 -0.5021
 5428TIP3    H137775   6.531   2.880  13.148 -0.0111 -2.8803  2.8156
 5428TIP3    H237776   6.643   2.975  13.182 -1.1011 -0.1083 -0.7631
 5429TIP3   OH237777   4.338   4.725  12.132 -0.1931  0.5684  0.9636
 5429TIP3    H137778   4.390   4.751  12.208 -1.4040 -2.1969  2.8863
 5429TIP3    H237779   4.274   4.796  12.123  2.0739  2.6671  0.2293
 5430TIP3   OH237780   0.838   6.781  11.231 -0.6889  0.0635 -0.7103
 5430TIP3    H137781   0.898   6.845  11.269 -2.2842  0.3526  1.4900
 5430TIP3    H237782   0.758   6.831  11.214 -1.5215 -1.0459 -0.1659
 5431TIP3   OH237783   0.312   3.062  11.573 -0.3627 -0.0415  0.6889
 5431TIP3    H137784   0.348   3.108  11.497 -1.1753  1.6049  1.2476
 5431TIP3    H237785   0.222   3.041  11.549  0.2527 -2.2707  0.0890
 5432TIP3   OH237786   6.601   3.972   9.677  0.1039  0.3738  0.3633
 5432TIP3    H137787   6.620   3.965   9.771  0.5545  1.3311  0.3474
 5432TIP3    H237788   6.556   3.890   9.656  1.2860 -0.4923  1.1063
 5433TIP3   OH237789   3.247   7.045  13.129 -0.3950 -1.3098 -0.2131
 5433TIP3    H137790   3.216   6.968  13.081  0.4622 -1.1392 -1.0712
 5433TIP3    H237791   3.169   7.099  13.139 -0.6870 -1.5474 -1.0444
 5434TIP3   OH237792   3.768   3.825  13.938  0.3276  0.2647  0.2050
 5434TIP3    H137793   3.834   3.758  13.917  1.2570  0.9606  0.8467
 5434TIP3    H237794   3.709   3.824  13.863  0.9808 -0.4775 -0.3194
 5435TIP3   OH237795   4.119   7.198  13.179 -0.3822 -0.6036  0.4873
 5435TIP3    H137796   4.037   7.247  13.185  0.3554  0.7852 -0.2377
 5435TIP3    H237797   4.105   7.122  13.236 -2.5262 -0.9647 -0.4085
 5436TIP3   OH237798   5.866   1.432  15.043  0.4911  0.3655  0.3631
 5436TIP3    H137799   5.898   1.454  15.130 -1.3874 -0.7264  1.4079
 5436TIP3    H237800   5.841   1.516  15.004  0.7433  0.8035  1.1245
 5437TIP3   OH237801   4.807   2.728  12.176 -0.1443 -0.7797 -0.7951
 5437TIP3    H137802   4.758   2.809  12.164 -0.7467 -0.6775  1.7878
 5437TIP3    H237803   4.740   2.660  12.184  0.1877 -0.9742  0.5569
 5438TIP3   OH237804   0.377   4.743  10.914 -0.5047  0.3994  0.3002
 5438TIP3    H137805   0.385   4.770  11.005  0.6032 -2.5240  1.1773
 5438TIP3    H237806   0.467   4.738  10.882 -0.8752  1.2325 -0.9245
 5439TIP3   OH237807   0.254   4.059  14.182  0.1767  0.4683 -0.6385
 5439TIP3    H137808   0.296   4.107  14.253  3.1099 -0.6960 -1.4140
 5439TIP3    H237809   0.258   3.967  14.209 -1.5155  0.2668 -0.9855
 5440TIP3   OH237810   0.578   4.739   3.228  0.0342  0.2829  0.6603
 5440TIP3    H137811   0.574   4.707   3.318  1.4864  0.9659  1.0055
 5440TIP3    H237812   0.672   4.744   3.209 -0.2621 -0.9776 -1.3241
 5441TIP3   OH237813   2.238   0.743  10.681  0.2719 -0.6636  0.6211
 5441TIP3    H137814   2.187   0.684  10.737 -1.1988 -0.3791 -0.3560
 5441TIP3    H237815   2.172   0.787  10.627  1.6483 -2.0339 -2.4004
 5442TIP3   OH237816   4.886   6.064   0.945 -0.4201  0.2233  0.5086
 5442TIP3    H137817   4.881   5.980   0.898  0.1601 -0.5139  1.7119
 5442TIP3    H237818   4.895   6.129   0.876 -1.8663 -0.5936 -0.5199
 5443TIP3   OH237819   2.803   5.121  12.287 -0.6674 -0.0006  0.0490
 5443TIP3    H137820   2.784   5.205  12.247 -0.5162  0.8226  1.6055
 5443TIP3    H237821   2.882   5.137  12.340  0.6052 -1.6690 -1.2260
 5444TIP3   OH237822   4.496   3.139  15.262 -0.0138 -0.6522  0.5093
 5444TIP3    H137823   4.508   3.051  15.226 -0.4036 -0.8475  0.8536
 5444TIP3    H237824   4.436   3.182  15.201 -0.6250 -0.9625  0.8872
 5445TIP3   OH237825   6.030   0.602  10.726 -0.4519 -0.1642  0.0604
 5445TIP3    H137826   6.084   0.661  10.779 -1.1474  0.2016  0.3779
 5445TIP3    H237827   6.093   0.550  10.677  0.1893  1.0269 -0.4286
 5446TIP3   OH237828   6.151   2.146  12.576 -0.2498 -0.0118 -0.1313
 5446TIP3    H137829   6.108   2.229  12.596 -0.4516 -0.1987  0.2214
 5446TIP3    H237830   6.231   2.147  12.630  1.6726  1.5411 -2.7502
 5447TIP3   OH237831   5.645   2.410  12.507  0.4466  0.5723  0.0572
 5447TIP3    H137832   5.674   2.319  12.506  0.6082  0.6178 -1.1425
 5447TIP3    H237833   5.724   2.460  12.489  0.2095  0.8975 -0.0813
 5448TIP3   OH237834   5.876   4.953  11.641 -0.3451  0.9246 -0.2670
 5448TIP3    H137835   5.919   4.878  11.681 -1.4857  0.3386 -0.0924
 5448TIP3    H237836   5.783   4.939  11.658 -0.6003  2.2347 -0.4809
 5449TIP3   OH237837   7.220   1.319   1.451  0.0248  0.3765  0.4768
 5449TIP3    H137838   7.227   1.405   1.411  2.2480  0.9376  1.9181
 5449TIP3    H237839   7.284   1.320   1.522  0.3688 -2.5784  0.3316
 5450TIP3   OH237840   0.438   0.399  12.070  0.4840 -0.2289 -0.0342
 5450TIP3    H137841   0.495   0.474  12.052  0.3034  0.0087  0.3662
 5450TIP3    H237842   0.367   0.407  12.006 -0.2368  0.7005  0.8503
 5451TIP3   OH237843   7.187   6.538   9.959 -0.0487 -0.3314  0.0652
 5451TIP3    H137844   7.138   6.568  10.036  1.2407  2.8645 -0.2035
 5451TIP3    H237845   7.267   6.591   9.960  1.8829 -2.9733 -1.3559
 5452TIP3   OH237846   1.022   6.752  12.628  0.2757 -0.3177  0.4672
 5452TIP3    H137847   1.095   6.697  12.601 -1.4886 -1.9743 -1.2644
 5452TIP3    H237848   1.015   6.819  12.560  2.0340  1.8274  2.2523
 5453TIP3   OH237849   0.917   3.811   1.875 -0.1847 -0.2756 -0.3454
 5453TIP3    H137850   0.822   3.814   1.873 -0.3402 -1.0706  2.1775
 5453TIP3    H237851   0.944   3.902   1.886 -0.7070 -0.1474 -0.1129
 5454TIP3   OH237852   2.936   1.530  10.664  0.6212  0.1108 -0.5403
 5454TIP3    H137853   2.883   1.608  10.650  0.7806  0.6124  1.3110
 5454TIP3    H237854   2.901   1.492  10.745  0.5724 -1.7358 -1.3896
 5455TIP3   OH237855   6.862   5.152  12.495 -0.6496  0.1667  0.1894
 5455TIP3    H137856   6.827   5.238  12.520  0.8694  1.2324 -1.0672
 5455TIP3    H237857   6.805   5.122  12.425 -0.8287  0.4348  0.2170
 5456TIP3   OH237858   6.915   3.230  11.142 -0.6008 -0.2250  0.6282
 5456TIP3    H137859   6.958   3.315  11.155  1.0311 -0.8569 -0.4156
 5456TIP3    H237860   6.833   3.252  11.098  1.0010  0.6740 -2.1254
 5457TIP3   OH237861   3.520   3.987  13.412  0.0536  0.0638 -0.2015
 5457TIP3    H137862   3.538   3.895  13.433 -2.0898  0.2355  3.0672
 5457TIP3    H237863   3.605   4.030  13.419  0.8458 -1.4192 -0.3406
 5458TIP3   OH237864   6.915   2.226  12.289 -0.0405  0.4914 -0.3385
 5458TIP3    H137865   6.895   2.288  12.360  0.2559  1.5961 -1.1862
 5458TIP3    H237866   6.875   2.144  12.317  1.4684  0.4278  1.8961
 5459TIP3   OH237867   6.385   2.263  11.266  0.4448  0.4976 -0.7777
 5459TIP3    H137868   6.361   2.176  11.234  1.2424 -0.6362  1.5038
 5459TIP3    H237869   6.476   2.255  11.292 -0.3931  0.9202  2.7666
 5460TIP3   OH237870   0.945   6.836  13.079  0.0186  0.0562  0.1312
 5460TIP3    H137871   0.938   6.862  12.987 -1.2254  1.6369  0.6282
 5460TIP3    H237872   0.943   6.740  13.076 -3.2555  0.0239 -1.3522
 5461TIP3   OH237873   3.479   4.532   1.266 -0.3274 -0.4583  0.3128
 5461TIP3    H137874   3.467   4.614   1.314 -3.1218 -0.0296 -0.9113
 5461TIP3    H237875   3.551   4.549   1.206  0.4975  0.3592  1.4954
 5462TIP3   OH237876   3.439   3.615  14.096  0.4683  0.1322  0.2423
 5462TIP3    H137877   3.436   3.694  14.043 -3.1103 -0.3126 -0.5076
 5462TIP3    H237878   3.445   3.647  14.186 -3.4053  1.5966  0.1687
 5463TIP3   OH237879   4.709   6.988  13.245 -0.5704  0.0213 -0.0880
 5463TIP3    H137880   4.672   7.010  13.160  2.3244 -0.5192 -1.6279
 5463TIP3    H237881   4.715   7.072  13.291 -3.3603  0.1457  0.2204
 5464TIP3   OH237882   2.350   2.051   1.442 -0.0063  0.3307  0.6137
 5464TIP3    H137883   2.420   1.993   1.411 -0.2843 -0.1444  0.8676
 5464TIP3    H237884   2.396   2.129   1.474  0.3956  0.0896  0.6274
 5465TIP3   OH237885   7.007   4.536  13.295  0.2087 -0.0654 -0.1240
 5465TIP3    H137886   6.958   4.484  13.359  0.1329 -1.6027 -1.3469
 5465TIP3    H237887   6.947   4.543  13.220  0.9808  0.0364 -0.7480
 5466TIP3   OH237888   0.568   6.719   0.537  0.3075  0.3206 -0.0169
 5466TIP3    H137889   0.483   6.760   0.524 -0.3284 -1.1190 -0.6530
 5466TIP3    H237890   0.617   6.780   0.592 -0.7357  1.6808 -0.5624
 5467TIP3   OH237891   3.743   2.629  10.423 -0.0182 -0.1556  0.4242
 5467TIP3    H137892   3.667   2.571  10.423 -1.2445  1.3920  1.2576
 5467TIP3    H237893   3.758   2.650  10.515  2.0376 -1.1602  0.3689
 5468TIP3   OH237894   1.013   2.380  12.535 -0.1933 -0.3842  0.0900
 5468TIP3    H137895   0.992   2.388  12.628  1.7752  0.4965  0.5281
 5468TIP3    H237896   1.086   2.442  12.522  1.8181 -2.8476 -1.2760
 5469TIP3   OH237897   0.304   0.768  11.151 -0.0014 -0.2403  0.2750
 5469TIP3    H137898   0.232   0.773  11.088 -0.9576 -0.2858  1.3433
 5469TIP3    H237899   0.313   0.857  11.184  0.4340 -0.2382  0.1549
 5470TIP3   OH237900   6.635   5.715  12.611  0.5408  0.0989  0.2501
 5470TIP3    H137901   6.576   5.782  12.643 -0.9548 -0.9950 -0.1041
 5470TIP3    H237902   6.607   5.699  12.520  0.7208 -1.1163  0.3903
 5471TIP3   OH237903   4.980   3.398   1.864 -0.4623  0.6131  0.2994
 5471TIP3    H137904   5.043   3.444   1.919 -0.0244 -0.2663  0.5615
 5471TIP3    H237905   4.991   3.306   1.888 -1.4504  0.3912 -0.0610
 5472TIP3   OH237906   2.100   1.942  13.057  0.5858  0.1854  0.3106
 5472TIP3    H137907   2.096   1.998  13.134  3.2877 -0.7767  1.2556
 5472TIP3    H237908   2.092   2.003  12.983 -1.8865  1.1375  1.2611
 5473TIP3   OH237909   5.004   5.904  14.715 -0.2588  0.3795 -0.1396
 5473TIP3    H137910   4.995   5.877  14.806  1.0951 -2.6714 -0.7864
 5473TIP3    H237911   4.932   5.861  14.670 -0.3040  1.0037 -0.6840
 5474TIP3   OH237912   0.564   0.708   0.149  0.1744  0.1245 -0.3898
 5474TIP3    H137913   0.556   0.614   0.160  2.3771 -0.2579 -1.4285
 5474TIP3    H237914   0.527   0.725   0.062 -0.3407  0.2295 -0.1479
 5475TIP3   OH237915   5.393   5.853  11.036 -0.6148 -0.0247  0.0308
 5475TIP3    H137916   5.360   5.931  10.993 -2.0167 -0.2541  0.6381
 5475TIP3    H237917   5.323   5.788  11.025  0.9917 -1.6109 -1.5330
 5476TIP3   OH237918   1.461   4.541   9.821 -0.4804  0.3592 -0.0608
 5476TIP3    H137919   1.542   4.491   9.807 -0.1247  0.4155  1.5669
 5476TIP3    H237920   1.489   4.632   9.823  0.2018  0.2773  4.3354
 5477TIP3   OH237921   3.517   4.620  12.962  0.3921 -0.2635  0.0494
 5477TIP3    H137922   3.538   4.607  12.869  2.8692  1.4739  0.2399
 5477TIP3    H237923   3.422   4.616  12.966  0.1846 -0.0912 -2.6365
 5478TIP3   OH237924   0.239   3.133  13.622  0.4080 -0.0095 -0.4534
 5478TIP3    H137925   0.303   3.204  13.617  1.1864 -0.5652  1.0189
 5478TIP3    H237926   0.212   3.131  13.713  0.2606 -1.4778 -0.4949
 5479TIP3   OH237927   6.222   4.123  12.366 -0.5884 -0.5521  0.7835
 5479TIP3    H137928   6.140   4.095  12.324 -0.6571 -0.5315  0.9035
 5479TIP3    H237929   6.197   4.145  12.456 -0.9287  1.8060  0.1761
 5480TIP3   OH237930   2.272   1.959  10.216 -0.6054 -0.2473 -0.1738
 5480TIP3    H137931   2.248   2.044  10.253 -1.2352 -0.8584  0.8824
 5480TIP3    H237932   2.361   1.944  10.249 -0.8395 -0.4036  0.3949
 5481TIP3   OH237933   5.669   3.329   0.796  0.5100 -0.1251  0.7539
 5481TIP3    H137934   5.580   3.350   0.768 -0.2041 -1.1412  2.1197
 5481TIP3    H237935   5.716   3.412   0.790  0.6061 -0.2821 -3.6719
 5482TIP3   OH237936   0.973   1.894  12.911 -0.1692 -0.1430 -0.2691
 5482TIP3    H137937   1.045   1.941  12.869  0.8355 -1.1488  0.2851
 5482TIP3    H237938   0.909   1.962  12.933  1.0633  0.9108  0.1642
 5483TIP3   OH237939   3.274   4.626  13.055  0.2980 -0.7742  0.6397
 5483TIP3    H137940   3.228   4.706  13.029 -1.3318 -1.1683  2.1163
 5483TIP3    H237941   3.321   4.651  13.135 -1.6336 -1.6528  2.1314
 5484TIP3   OH237942   7.080   2.164   0.797 -0.1317 -0.2148  0.4173
 5484TIP3    H137943   7.042   2.109   0.728 -1.8224  0.3466  0.8500
 5484TIP3    H237944   7.157   2.203   0.756 -0.1829 -1.1372 -0.6236
 5485TIP3   OH237945   3.316   0.772  11.702 -0.2116  0.4095  0.3677
 5485TIP3    H137946   3.388   0.724  11.661 -1.2244 -2.3616  1.5778
 5485TIP3    H237947   3.243   0.761  11.641 -0.0844  1.8542 -0.0894
 5486TIP3   OH237948   5.028   0.613   9.666  0.4289 -0.7678 -0.0427
 5486TIP3    H137949   4.948   0.608   9.718  0.6373 -1.6808  0.2088
 5486TIP3    H237950   5.009   0.561   9.588 -0.0855  1.0494 -1.1909
 5487TIP3   OH237951   1.193   4.708  11.920 -0.6799 -0.3603  0.2844
 5487TIP3    H137952   1.152   4.624  11.940 -1.5867  0.1951  0.8165
 5487TIP3    H237953   1.162   4.730  11.831  0.8916 -1.3564 -0.5570
 5488TIP3   OH237954   2.540   1.260  11.459 -0.1877  0.0865  0.2562
 5488TIP3    H137955   2.629   1.264  11.493  0.0526  1.4194 -0.4609
 5488TIP3    H237956   2.502   1.346  11.481 -1.9963 -1.1263  2.3204
 5489TIP3   OH237957   2.643   5.016  11.948  0.1291  0.8118  0.6079
 5489TIP3    H137958   2.736   5.000  11.958  0.4012 -0.0875 -2.5404
 5489TIP3    H237959   2.634   5.111  11.957  0.9973  0.7381  2.7920
 5490TIP3   OH237960   5.597   2.119  11.847 -0.0634  0.3085  0.5553
 5490TIP3    H137961   5.636   2.047  11.797 -0.2918  0.7467 -0.2638
 5490TIP3    H237962   5.594   2.086  11.937  0.2473 -0.5330  0.2697
 5491TIP3   OH237963   1.112   0.226   3.053  0.1356  0.3185 -0.0270
 5491TIP3    H137964   1.203   0.244   3.030  0.1524  0.8042  0.4020
 5491TIP3    H237965   1.093   0.142   3.011  1.3201 -0.6652  1.3098
 5492TIP3   OH237966   6.911   3.611  10.107  0.6348  0.0917  0.2770
 5492TIP3    H137967   6.952   3.696  10.126  1.9126 -0.2660 -0.7959
 5492TIP3    H237968   6.915   3.563  10.190  1.5118  0.4248  0.4314
 5493TIP3   OH237969   2.934   1.158  14.963  0.8724  0.7526 -0.4003
 5493TIP3    H137970   2.877   1.086  14.993  1.6032  0.1165 -0.5066
 5493TIP3    H237971   2.909   1.172  14.872  2.2362 -0.9340 -1.1081
 5494TIP3   OH237972   5.861   0.025  12.858  0.0443 -0.1387  0.8286
 5494TIP3    H137973   5.897   0.002  12.772  0.1956  1.0202  0.5685
 5494TIP3    H237974   5.792  -0.040  12.872 -0.8823  0.4416 -0.7697
 5495TIP3   OH237975   4.053   1.848  10.190 -0.5785  0.0271 -0.6594
 5495TIP3    H137976   4.116   1.840  10.119 -2.1275 -0.2550 -2.0778
 5495TIP3    H237977   4.020   1.938  10.183  1.1881  0.9284  1.4795
 5496TIP3   OH237978   6.468   6.329   9.970 -0.3021  0.1051  0.2521
 5496TIP3    H137979   6.399   6.273   9.935  0.6382 -1.0251  0.1510
 5496TIP3    H237980   6.423   6.387  10.032 -1.1957 -1.2366  0.8958
 5497TIP3   OH237981   1.422   1.882  11.224  0.6096 -0.5335  0.1500
 5497TIP3    H137982   1.372   1.870  11.142  0.7743 -0.2051 -0.0017
 5497TIP3    H237983   1.513   1.880  11.196  0.6567  1.7252 -0.0088
 5498TIP3   OH237984   3.189   4.880  12.972  0.9307 -0.0552  0.1531
 5498TIP3    H137985   3.250   4.857  12.902  0.6609 -0.8018  0.1575
 5498TIP3    H237986   3.242   4.929  13.036  1.1013  0.9480 -0.7284
 5499TIP3   OH237987   4.240   3.796   4.699 -0.2616 -0.1350  0.2990
 5499TIP3    H137988   4.176   3.803   4.771 -0.8476  2.4920 -0.3672
 5499TIP3    H237989   4.325   3.800   4.743 -0.5246 -1.5871  1.0278
 5500TIP3   OH237990   3.545   4.917   0.504  0.2022  0.0898  0.0133
 5500TIP3    H137991   3.484   4.926   0.578  2.1737  0.2176  1.7074
 5500TIP3    H237992   3.628   4.950   0.537  1.6300 -1.5843 -1.6683
 5501TIP3   OH237993   3.044   6.053  13.727 -0.1603  0.2431  0.1873
 5501TIP3    H137994   3.049   5.994  13.803  0.7330 -2.1609 -1.6165
 5501TIP3    H237995   3.002   6.001  13.659  2.4365  0.9240 -2.1155
 5502TIP3   OH237996   4.374   6.780  15.022 -0.2170  0.8852 -0.1687
 5502TIP3    H137997   4.291   6.759  15.064 -0.5023  0.7855 -0.7800
 5502TIP3    H237998   4.404   6.859  15.067  1.0801 -0.9360  2.4481
 5503TIP3   OH237999   2.994   0.647  11.278 -0.0203  0.4313  0.2206
 5503TIP3    H138000   3.014   0.558  11.309 -0.7781  0.2940  0.3233
 5503TIP3    H238001   2.950   0.634  11.194  0.0071  0.7169  0.1626
 5504TIP3   OH238002   5.869   4.967   2.330 -0.1015 -0.1164 -1.2423
 5504TIP3    H138003   5.813   4.911   2.276 -2.3988  0.6087  0.2639
 5504TIP3    H238004   5.813   4.997   2.401  2.3320  0.3086  0.6720
 5505TIP3   OH238005   0.446   0.078  11.015 -0.0729 -0.2239  0.3061
 5505TIP3    H138006   0.414   0.057  10.928  0.6543 -0.0741 -0.0052
 5505TIP3    H238007   0.422   0.170  11.029  1.0142  0.1659 -0.2992
 5506TIP3   OH238008   2.246   6.808   9.461  0.5522 -0.6291  0.5083
 5506TIP3    H138009   2.152   6.826   9.455  0.6007 -0.2236  0.9002
 5506TIP3    H238010   2.287   6.891   9.435  0.8400 -1.4162 -1.7693
 5507TIP3   OH238011   1.858   4.350  14.183  0.4186 -0.0921  0.4827
 5507TIP3    H138012   1.933   4.401  14.214  0.3982 -0.0907  0.5293
 5507TIP3    H238013   1.810   4.410  14.126  0.5026 -0.1214  0.3804
 5508TIP3   OH238014   2.076   3.743  14.084  0.3100  0.3291 -0.4419
 5508TIP3    H138015   2.078   3.834  14.052 -2.0742  0.7239  0.3877
 5508TIP3    H238016   2.097   3.750  14.177 -1.7786  0.2966  0.0609
 5509TIP3   OH238017   0.176   4.467  11.449 -0.4248 -0.2476  0.0479
 5509TIP3    H138018   0.271   4.460  11.460 -0.2044 -1.5889 -2.0434
 5509TIP3    H238019   0.162   4.552  11.409 -0.0161 -0.3128 -0.2402
 5510TIP3   OH238020   3.658   0.113  12.448 -0.0718 -0.0779  0.0665
 5510TIP3    H138021   3.698   0.200  12.446  1.8262 -0.8902  0.4993
 5510TIP3    H238022   3.637   0.094  12.356 -1.0582  1.0511  0.0400
 5511TIP3   OH238023   2.398   6.708  11.934  0.4111 -0.8200 -0.4069
 5511TIP3    H138024   2.405   6.635  11.873 -0.4863 -1.4515  0.2192
 5511TIP3    H238025   2.412   6.669  12.021 -0.3021 -0.3065 -0.0444
 5512TIP3   OH238026   5.231   4.784  10.605 -0.0356 -0.2083 -0.7351
 5512TIP3    H138027   5.160   4.724  10.584  0.2059 -0.4324 -0.9128
 5512TIP3    H238028   5.299   4.729  10.644  0.5339 -0.1932 -1.6768
 5513TIP3   OH238029   2.933   5.395  12.552 -0.5260  0.7006 -0.4321
 5513TIP3    H138030   2.884   5.450  12.613 -2.2959 -0.2664 -0.9224
 5513TIP3    H238031   2.925   5.307  12.587  2.2675  0.6476  0.3285
 5514TIP3   OH238032   6.336   6.626  10.926  0.3747 -0.1594 -0.0135
 5514TIP3    H138033   6.324   6.552  10.866 -0.4576 -0.2719  0.2853
 5514TIP3    H238034   6.327   6.703  10.870 -2.6225 -0.1969  0.2669
 5515TIP3   OH238035   5.302   4.224  11.319  0.0939  0.7329 -0.5767
 5515TIP3    H138036   5.294   4.170  11.241 -1.9368 -0.8692  0.6515
 5515TIP3    H238037   5.259   4.306  11.297  0.2603  0.6080 -1.3847
 5516TIP3   OH238038   3.258   6.722  12.074  0.1180  0.3375  0.2451
 5516TIP3    H138039   3.237   6.652  12.136 -0.0587 -0.7941 -1.0542
 5516TIP3    H238040   3.297   6.791  12.128 -0.2137 -0.5279  1.6354
 5517TIP3   OH238041   5.501   1.260  10.939  0.0876 -0.2993 -0.1746
 5517TIP3    H138042   5.592   1.229  10.939 -0.2077 -1.2473  1.0606
 5517TIP3    H238043   5.506   1.349  10.904  1.9396  0.8442  2.6804
 5518TIP3   OH238044   1.602   4.157  11.898 -0.2428 -0.6349  0.6189
 5518TIP3    H138045   1.539   4.092  11.931  0.5330 -0.8893  1.6875
 5518TIP3    H238046   1.646   4.188  11.977 -0.2484  0.8345  0.0610
 5519TIP3   OH238047   4.047   4.963  15.400 -0.0086  0.6392  0.0046
 5519TIP3    H138048   3.971   4.916  15.366  0.3232  0.9304 -1.2241
 5519TIP3    H238049   4.099   4.896  15.444 -0.7552  0.3565  0.4825
 5520TIP3   OH238050   0.345   7.142  10.800  0.4875 -0.0098  0.1327
 5520TIP3    H138051   0.321   7.083  10.872 -0.5308 -0.0341 -0.2172
 5520TIP3    H238052   0.422   7.102  10.761  2.3053  0.9928  2.3970
 5521TIP3   OH238053   6.837   4.181  11.526 -0.6994 -0.1208 -0.4265
 5521TIP3    H138054   6.781   4.226  11.462  0.4605 -0.3205 -1.6310
 5521TIP3    H238055   6.824   4.230  11.607 -2.6140 -0.1816 -0.6546
 5522TIP3   OH238056   6.826   5.896  12.095 -0.0781  0.2377  0.0183
 5522TIP3    H138057   6.735   5.893  12.066  0.2789 -0.9779 -1.0724
 5522TIP3    H238058   6.850   5.988  12.092 -0.6936  0.3788 -1.6186
 5523TIP3   OH238059   6.160   0.870  12.116 -0.1496 -0.2407 -0.0542
 5523TIP3    H138060   6.164   0.877  12.020  0.9076  0.5390  0.0337
 5523TIP3    H238061   6.216   0.940  12.148  1.9259 -2.2805  1.0970
 5524TIP3   OH238062   6.531   1.040  11.659  0.2793  0.2515  0.0204
 5524TIP3    H138063   6.470   1.036  11.585  0.6941 -0.9652 -0.2921
 5524TIP3    H238064   6.485   0.996  11.730  0.7360 -0.5952 -0.1920
 5525TIP3   OH238065   6.839   6.709  12.408  0.3074  0.3731  0.1258
 5525TIP3    H138066   6.826   6.640  12.473 -0.8122 -0.8861 -1.3621
 5525TIP3    H238067   6.851   6.789  12.460  2.3862 -0.9909  1.9258
 5526TIP3   OH238068   4.434   3.976   5.131 -0.1444  0.4475 -0.2947
 5526TIP3    H138069   4.451   3.997   5.223 -3.1327  1.1641  0.1985
 5526TIP3    H238070   4.486   4.039   5.081  0.8525  0.6067  0.9098
 5527TIP3   OH238071   0.746   6.127   9.942  0.0483  0.1824 -0.2195
 5527TIP3    H138072   0.671   6.110   9.998 -0.5122  1.7699 -0.4177
 5527TIP3    H238073   0.708   6.161   9.861  0.9688  2.2619  0.1445
 5528TIP3   OH238074   7.050   0.307  12.324  0.1382  0.3520 -0.2845
 5528TIP3    H138075   6.963   0.345  12.335  0.0878  0.5407 -1.2524
 5528TIP3    H238076   7.110   0.369  12.367 -0.1869  0.2620  0.3101
 5529TIP3   OH238077   4.460   0.819   0.886  0.0030 -0.2970  0.1022
 5529TIP3    H138078   4.538   0.839   0.939  0.0026 -1.4140  0.5413
 5529TIP3    H238079   4.485   0.844   0.797  0.6401 -0.0643  0.3397
 5530TIP3   OH238080   5.322   5.682  11.321  0.2042  0.4087 -0.6159
 5530TIP3    H138081   5.339   5.730  11.240  1.2921  1.4027  0.1776
 5530TIP3    H238082   5.401   5.629  11.334  0.2756  0.6746  0.0682
 5531TIP3   OH238083   7.084   1.262  13.802  0.3297 -0.5436 -0.0045
 5531TIP3    H138084   7.031   1.199  13.753 -1.5195  0.0947  1.0637
 5531TIP3    H238085   7.025   1.335  13.819  2.5964  1.9214 -1.8443
 5532TIP3   OH238086   3.901   4.813   1.373  0.4981  0.1271 -0.3997
 5532TIP3    H138087   3.879   4.720   1.376 -1.4264  0.5127 -0.9994
 5532TIP3    H238088   3.910   4.832   1.279 -0.4237  0.7915 -0.3679
 5533TIP3   OH238089   0.518   5.599  12.377  0.2111  0.4323 -0.2033
 5533TIP3    H138090   0.528   5.670  12.440 -0.1264  0.4403 -0.1539
 5533TIP3    H238091   0.495   5.523  12.431 -0.8051  0.6058 -0.3747
 5534TIP3   OH238092   3.972   3.810   9.946  0.1083  0.4799 -0.1910
 5534TIP3    H138093   3.980   3.889  10.000  1.2598  1.1752 -1.3275
 5534TIP3    H238094   4.012   3.834   9.862  1.2668 -1.5646 -0.2866
 5535TIP3   OH238095   2.332   0.597  12.480  0.9184 -0.5490 -0.1467
 5535TIP3    H138096   2.291   0.683  12.487  1.5904 -0.0107 -2.1572
 5535TIP3    H238097   2.392   0.592  12.555  0.3392  0.4083  0.3935
 5536TIP3   OH238098   2.269   6.519  13.262 -0.3489  0.0869  0.1628
 5536TIP3    H138099   2.198   6.561  13.213 -0.5812 -2.3938 -1.8409
 5536TIP3    H238100   2.251   6.541  13.354 -3.6431 -0.2906 -0.2657
 5537TIP3   OH238101   3.075   2.308   9.802  0.3288  0.1009  0.3443
 5537TIP3    H138102   3.020   2.309   9.724 -1.0255 -1.4619  1.2141
 5537TIP3    H238103   3.073   2.218   9.833 -0.4583  0.9212  3.0417
 5538TIP3   OH238104   3.686   0.421  11.903 -0.4010 -0.3490 -0.2564
 5538TIP3    H138105   3.747   0.475  11.953 -0.2508 -0.9749  0.2457
 5538TIP3    H238106   3.599   0.448  11.933 -0.2960 -1.1657  0.8253
 5539TIP3   OH238107   7.080   3.043  10.982 -0.5700 -0.2963  0.3802
 5539TIP3    H138108   7.040   3.121  11.020  1.3732  0.8952  0.0696
 5539TIP3    H238109   7.043   3.037  10.894 -1.2987 -0.1881  0.6728
 5540TIP3   OH238110   6.365   4.222  12.583 -0.3198 -0.5078 -0.4739
 5540TIP3    H138111   6.391   4.131  12.568  1.2183 -0.2256  0.2410
 5540TIP3    H238112   6.347   4.226  12.677  1.1184  0.2406 -0.2007
 5541TIP3   OH238113   1.010   2.790  14.205 -0.1073  0.1447  0.0544
 5541TIP3    H138114   1.072   2.733  14.252  1.7095  1.4759 -0.5959
 5541TIP3    H238115   1.065   2.860  14.169 -1.7369  0.3482 -2.2461
 5542TIP3   OH238116   5.880   5.079  11.356  0.2838 -0.3072  0.0168
 5542TIP3    H138117   5.916   5.078  11.445 -0.1929 -0.9437  0.2053
 5542TIP3    H238118   5.888   4.989  11.325 -2.3422 -0.8009  0.5560
 5543TIP3   OH238119   3.909   2.188  10.724  0.3848  0.0020  0.0378
 5543TIP3    H138120   3.969   2.259  10.746  0.6323  0.1818 -1.1527
 5543TIP3    H238121   3.822   2.227  10.732  0.2451 -0.6977  3.4030
 5544TIP3   OH238122   5.684   5.046   3.535  0.0634 -0.3457  0.3497
 5544TIP3    H138123   5.611   5.104   3.555  0.4733  0.9872 -1.7770
 5544TIP3    H238124   5.728   5.033   3.620 -1.0519  1.0212  1.1794
 5545TIP3   OH238125   3.028   4.819   9.809 -0.4222  0.4994  0.2713
 5545TIP3    H138126   2.950   4.772   9.838  0.1962 -1.2416 -0.7314
 5545TIP3    H238127   3.100   4.756   9.822  0.6597  1.6943  0.2189
 5546TIP3   OH238128   3.501   3.122  14.714  0.4326 -0.0728 -0.0291
 5546TIP3    H138129   3.485   3.161  14.628 -1.0463 -2.8996 -1.1503
 5546TIP3    H238130   3.480   3.193  14.776 -2.3459  0.9351 -1.9145
 5547TIP3   OH238131   6.217   2.763  11.226 -0.6498  0.2827 -0.7353
 5547TIP3    H138132   6.197   2.829  11.160 -0.3583  1.4571  0.3135
 5547TIP3    H238133   6.251   2.813  11.301 -0.5745 -1.0411  0.1524
 5548TIP3   OH238134   1.911   4.183  12.894 -0.5158  0.4081 -0.4419
 5548TIP3    H138135   1.888   4.220  12.808  2.1788  1.1441 -0.9255
 5548TIP3    H238136   1.919   4.258  12.952  1.7950  0.3838 -0.6342
 5549TIP3   OH238137   1.301   1.444  12.396 -0.5688 -0.4743 -0.1851
 5549TIP3    H138138   1.370   1.478  12.454 -1.9005  0.4000  0.9443
 5549TIP3    H238139   1.231   1.509  12.401 -1.3832 -1.2031 -1.5284
 5550TIP3   OH238140   4.162   1.336  14.453  0.0289  0.3945  0.2745
 5550TIP3    H138141   4.074   1.332  14.416 -0.5114 -2.4273  1.5932
 5550TIP3    H238142   4.150   1.366  14.543  0.3857 -0.0658  0.4838
 5551TIP3   OH238143   2.106   3.517  14.279  0.0684 -0.1015 -0.0367
 5551TIP3    H138144   2.142   3.593  14.325  0.0481  0.4118 -0.8507
 5551TIP3    H238145   2.061   3.468  14.347  0.1658  0.5625  0.5270
 5552TIP3   OH238146   7.165   1.912  12.536  0.8211 -0.6867  0.6379
 5552TIP3    H138147   7.232   1.845  12.547  1.5157  0.2625  2.6444
 5552TIP3    H238148   7.197   1.967  12.465  2.4141 -0.0107  1.8359
 5553TIP3   OH238149   0.604   2.483  12.716  0.1486  0.1438 -0.6425
 5553TIP3    H138150   0.565   2.397  12.732 -0.6106  0.4269 -0.9221
 5553TIP3    H238151   0.644   2.476  12.629 -0.5875  0.3079 -0.9970
 5554TIP3   OH238152   1.515   3.068  12.296  0.1411  0.1951  0.3019
 5554TIP3    H138153   1.551   3.153  12.272 -0.2593  0.4800  0.6998
 5554TIP3    H238154   1.475   3.082  12.381 -0.3366 -0.2775  0.1603
 5555TIP3   OH238155   3.852   6.505  10.011  0.7902 -0.2260  0.2185
 5555TIP3    H138156   3.770   6.460  10.034  0.4367  0.0407 -0.5116
 5555TIP3    H238157   3.899   6.442   9.957  1.7077 -0.9273  1.7606
 5556TIP3   OH238158   6.754   6.519  13.826 -0.0602  0.1953 -0.0799
 5556TIP3    H138159   6.739   6.604  13.786 -0.8831 -0.9141 -2.3195
 5556TIP3    H238160   6.835   6.487  13.786 -1.0872 -1.0876 -1.2641
 5557TIP3   OH238161   1.849   4.181  10.618 -0.0214 -0.5049 -0.1534
 5557TIP3    H138162   1.858   4.276  10.614 -1.6485 -0.2147  1.6500
 5557TIP3    H238163   1.918   4.152  10.677 -1.1880 -0.0897  1.4634
 5558TIP3   OH238164   7.114   6.763  12.433 -0.1480  0.2701  0.7177
 5558TIP3    H138165   7.019   6.766  12.424 -0.5911 -1.5430  3.5190
 5558TIP3    H238166   7.132   6.807  12.516  1.4016  0.2020  0.4521
 5559TIP3   OH238167   4.568   4.527  10.856 -0.3657  0.1104  0.0528
 5559TIP3    H138168   4.531   4.608  10.821  2.3392  0.9809 -1.0595
 5559TIP3    H238169   4.553   4.532  10.950 -1.1031  1.4171 -0.1126
 5560TIP3   OH238170   2.088   5.384  14.922 -1.0113 -0.3389  0.2889
 5560TIP3    H138171   2.082   5.448  14.994  1.1578  2.1437 -1.5506
 5560TIP3    H238172   2.019   5.411  14.862 -0.3499  0.0559 -0.3047
 5561TIP3   OH238173   6.030   1.707   2.213 -0.1661  0.0211 -0.0326
 5561TIP3    H138174   5.989   1.620   2.209 -1.7975  0.7606 -0.3620
 5561TIP3    H238175   5.973   1.757   2.271  0.8765  0.8299  0.3230
 5562TIP3   OH238176   2.422   4.739  10.499  0.5425  0.4463 -0.8784
 5562TIP3    H138177   2.390   4.649  10.496  0.9197  0.2675 -0.0073
 5562TIP3    H238178   2.494   4.742  10.436  0.1983  0.2811 -1.2848
 5563TIP3   OH238179   4.547   4.515   9.919  0.1373 -0.0874  0.6650
 5563TIP3    H138180   4.472   4.571   9.900  1.5013  2.1176  1.4110
 5563TIP3    H238181   4.603   4.524   9.841  1.0468  0.8643  1.3883
 5564TIP3   OH238182   4.034   4.617  15.047  0.2665 -0.8255  0.0170
 5564TIP3    H138183   4.121   4.655  15.035 -0.0144 -0.5921 -1.4784
 5564TIP3    H238184   4.045   4.524  15.028  0.3594 -0.9674  0.7363
 5565TIP3   OH238185   2.111   1.116  13.580  0.2614  0.0605  0.2471
 5565TIP3    H138186   2.170   1.113  13.656 -0.0717 -0.2667  0.4997
 5565TIP3    H238187   2.164   1.082  13.508  0.1251 -1.0561  0.6547
 5566TIP3   OH238188   1.693   7.127   0.908  0.1327 -0.0398 -0.4062
 5566TIP3    H138189   1.638   7.161   0.837 -2.8666 -2.0315  0.7695
 5566TIP3    H238190   1.727   7.205   0.952 -0.6190  1.2521 -1.9990
 5567TIP3   OH238191   3.070   2.665  14.013 -0.2950  0.1670  0.7193
 5567TIP3    H138192   3.032   2.589  14.056 -0.6457 -0.2877 -0.3610
 5567TIP3    H238193   3.121   2.709  14.081 -0.4388 -0.7936  1.4552
 5568TIP3   OH238194   6.140   2.998  11.413 -0.2690 -0.0294 -0.2845
 5568TIP3    H138195   6.231   2.993  11.445  0.1702  1.8040 -1.1059
 5568TIP3    H238196   6.087   2.992  11.493  0.7110  1.9044  0.5912
 5569TIP3   OH238197   6.037   5.225   0.756 -0.1319  0.3079 -0.2712
 5569TIP3    H138198   5.975   5.178   0.812 -1.2845  0.5820 -1.2739
 5569TIP3    H238199   6.055   5.306   0.802  2.6265 -1.3829  1.9622
 5570TIP3   OH238200   2.934   5.377  10.900  0.2160 -0.6264 -0.5490
 5570TIP3    H138201   2.991   5.446  10.933 -1.2008 -0.0402  0.7932
 5570TIP3    H238202   2.866   5.422  10.851 -0.2199 -1.1484 -0.4358
 5571TIP3   OH238203   6.074   6.604   9.595  0.6527  0.0208  0.0707
 5571TIP3    H138204   6.131   6.680   9.586  0.0122  0.6332  0.9849
 5571TIP3    H238205   6.116   6.551   9.663  2.1263 -1.4520 -1.8579
 5572TIP3   OH238206   3.389   2.668  12.258 -0.3681 -0.2121 -0.2240
 5572TIP3    H138207   3.476   2.637  12.232 -0.6614 -1.1903 -0.0643
 5572TIP3    H238208   3.343   2.684  12.175 -1.0253 -2.5488 -0.3744
 5573TIP3   OH238209   0.671   0.871   1.235  0.4133 -0.2614 -0.0751
 5573TIP3    H138210   0.730   0.796   1.247 -1.1250 -1.3390  1.1073
 5573TIP3    H238211   0.622   0.850   1.156  0.1859 -0.3558  0.0918
 5574TIP3   OH238212   0.173   1.290   1.055  0.0645  0.1858 -0.3255
 5574TIP3    H138213   0.213   1.265   1.138 -1.5324 -0.5961  0.2551
 5574TIP3    H238214   0.083   1.313   1.078 -1.1211 -2.2931 -2.1108
 5575TIP3   OH238215   5.143   1.236  13.669  0.5027 -0.2500  0.6560
 5575TIP3    H138216   5.221   1.287  13.690  0.8859 -0.5887  0.0910
 5575TIP3    H238217   5.146   1.225  13.574 -0.3886 -0.0242  0.5862
 5576TIP3   OH238218   6.006   6.244   9.492 -0.0346  0.3887 -0.0591
 5576TIP3    H138219   5.997   6.328   9.448  0.8482  1.2930  1.4199
 5576TIP3    H238220   5.924   6.232   9.540 -1.3561 -0.9933 -2.4627
 5577TIP3   OH238221   0.776   3.506  10.253  0.3756  0.0609 -0.1049
 5577TIP3    H138222   0.765   3.471  10.164 -0.5099  2.3321 -0.9699
 5577TIP3    H238223   0.835   3.581  10.242 -0.4586  0.9192  1.0717
 5578TIP3   OH238224   5.417   5.936  12.997 -0.0433 -0.2522 -0.1951
 5578TIP3    H138225   5.488   5.971  13.051 -0.3022  0.1008 -0.0800
 5578TIP3    H238226   5.425   5.841  13.006 -0.4476 -0.1831  0.9354
 5579TIP3   OH238227   4.430   2.358  15.071  0.2597 -0.5325 -0.0410
 5579TIP3    H138228   4.449   2.270  15.038  0.0793 -0.7127  0.3246
 5579TIP3    H238229   4.334   2.364  15.067  0.2997 -0.1520 -0.5624
 5580TIP3   OH238230   1.768   4.862   3.034  0.5954  0.0032  0.1116
 5580TIP3    H138231   1.718   4.800   2.980 -0.1519  1.4285 -0.8790
 5580TIP3    H238232   1.837   4.894   2.976  1.6980 -0.7090  0.9721
 5581TIP3   OH238233   4.973   3.533  13.088 -0.0886 -0.1532 -0.2171
 5581TIP3    H138234   4.961   3.448  13.045  1.5921 -0.5859  0.1156
 5581TIP3    H238235   4.887   3.553  13.125 -0.5735 -1.5955 -0.4904
 5582TIP3   OH238236   1.499   2.538  13.642 -0.3515 -0.1207  0.3757
 5582TIP3    H138237   1.404   2.533  13.632 -0.2092 -0.2816 -1.0680
 5582TIP3    H238238   1.522   2.460  13.692 -0.8493 -0.8066 -0.4409
 5583TIP3   OH238239   4.280   7.207   1.034  0.3566  0.3754 -0.7970
 5583TIP3    H138240   4.277   7.194   0.939  0.7539 -0.8000 -0.6720
 5583TIP3    H238241   4.217   7.144   1.068  1.7712 -0.7704 -0.1819
 5584TIP3   OH238242   0.711   6.397  13.360  0.2292  0.0638  0.0057
 5584TIP3    H138243   0.653   6.364  13.429  0.2272  0.2777  0.1068
 5584TIP3    H238244   0.654   6.411  13.285  0.1740  0.1413  0.0620
 5585TIP3   OH238245   0.278   3.159   1.036 -0.4821  0.6066  0.6288
 5585TIP3    H138246   0.228   3.085   1.002 -1.1790  1.1574  0.4025
 5585TIP3    H238247   0.318   3.198   0.958 -0.0303  0.4127  0.7593
 5586TIP3   OH238248   1.617   6.689  10.977  0.3998 -0.2780  0.1176
 5586TIP3    H138249   1.548   6.641  10.932 -1.3227  1.2746  0.9700
 5586TIP3    H238250   1.658   6.742  10.909 -0.8309  0.5348 -0.0109
 5587TIP3   OH238251   5.754   4.001  10.012 -0.1572  0.2708  0.1929
 5587TIP3    H138252   5.671   4.023   9.968  0.3925  0.6963 -0.6599
 5587TIP3    H238253   5.788   3.926   9.962 -0.3157 -0.3061  0.9247
 5588TIP3   OH238254   6.113   5.062  13.749 -0.0865  0.0283 -0.0950
 5588TIP3    H138255   6.174   4.988  13.750  0.3970  0.4154 -0.3833
 5588TIP3    H238256   6.038   5.031  13.698  0.0218 -0.3340 -0.0334
 5589TIP3   OH238257   2.678   0.003  10.278  0.7881  0.3795 -0.4366
 5589TIP3    H138258   2.739   0.066  10.316  1.7741 -0.1922 -1.0339
 5589TIP3    H238259   2.613  -0.011  10.346  1.6935  0.4865  0.4765
 5590TIP3   OH238260   0.342   1.631  11.093 -0.5993 -0.5566  0.4748
 5590TIP3    H138261   0.329   1.725  11.091  0.1160 -0.4510  0.5534
 5590TIP3    H238262   0.434   1.619  11.070 -0.6102 -1.2161  0.7618
 5591TIP3   OH238263   0.348   3.790   1.974 -0.2917 -0.3660 -0.6085
 5591TIP3    H138264   0.343   3.884   1.993 -1.7847 -0.3995 -0.6542
 5591TIP3    H238265   0.268   3.772   1.925  0.5650 -1.4519 -1.6415
 5592TIP3   OH238266   4.090   4.618  12.618 -0.5633 -0.8303  1.2706
 5592TIP3    H138267   4.058   4.707  12.636 -0.0996 -0.6109  1.0410
 5592TIP3    H238268   4.039   4.589  12.543  0.1504 -0.2614  0.5443
 5593TIP3   OH238269   4.066   6.267  14.123 -0.4818  0.6613 -0.4134
 5593TIP3    H138270   4.006   6.205  14.166  1.8474 -1.4344  0.0317
 5593TIP3    H238271   4.069   6.238  14.032 -1.1559  1.6416 -0.7665
 5594TIP3   OH238272   4.780   1.819  11.518  0.1966  0.0474  0.4484
 5594TIP3    H138273   4.823   1.756  11.575  0.5687  0.8197  1.0301
 5594TIP3    H238274   4.780   1.901  11.567 -0.9280  0.3374 -0.0052
 5595TIP3   OH238275   2.657   2.936   9.555 -0.1242  0.4948  0.0990
 5595TIP3    H138276   2.634   3.026   9.580  0.2276  0.8824 -0.9210
 5595TIP3    H238277   2.725   2.947   9.488  0.0970 -0.5416  0.1431
 5596TIP3   OH238278   3.471   5.511  12.243 -0.5051  0.0896  0.5198
 5596TIP3    H138279   3.547   5.550  12.199  0.8363 -1.7055  1.1306
 5596TIP3    H238280   3.486   5.417  12.237 -1.6300 -0.2576  2.4753
 5597TIP3   OH238281   1.534   2.949  12.568 -0.3904 -0.0793  0.3289
 5597TIP3    H138282   1.522   2.887  12.640  1.0069 -1.1701 -0.3147
 5597TIP3    H238283   1.624   2.979  12.577 -0.9281  1.6222  0.4045
 5598TIP3   OH238284   2.706   1.484  11.776 -0.0260 -0.3344 -0.6112
 5598TIP3    H138285   2.763   1.474  11.853 -0.0348  1.2549 -0.3719
 5598TIP3    H238286   2.617   1.479  11.812 -0.0819  2.6201 -0.0943
 5599TIP3   OH238287   7.200   5.076  11.100 -0.4887  0.1581  0.4189
 5599TIP3    H138288   7.218   5.126  11.020 -2.3270  0.1192 -0.0515
 5599TIP3    H238289   7.151   5.000  11.070 -1.2019  0.1449  1.5823
 5600TIP3   OH238290   2.606   2.268  12.045 -0.3572  0.3230  0.2750
 5600TIP3    H138291   2.698   2.257  12.070 -0.0232  0.8998 -0.6396
 5600TIP3    H238292   2.597   2.362  12.026 -0.7810  0.0595 -0.9437
 5601TIP3   OH238293   0.777   1.310  14.997 -0.1951 -0.1073 -0.2861
 5601TIP3    H138294   0.688   1.320  14.962 -0.0996 -0.2666 -0.5815
 5601TIP3    H238295   0.768   1.323  15.091 -0.4635  0.3082 -0.3682
 5602TIP3   OH238296   1.633   6.297  10.046 -0.2010  0.2007  0.2180
 5602TIP3    H138297   1.631   6.332   9.957 -0.4765 -0.2580  0.0369
 5602TIP3    H238298   1.679   6.363  10.098  1.0833 -0.0904 -0.5128
 5603TIP3   OH238299   2.297   2.764   0.951  0.2536  0.4981 -0.5788
 5603TIP3    H138300   2.279   2.671   0.941  0.3759  0.4824 -0.6499
 5603TIP3    H238301   2.255   2.788   1.034  0.6803  0.2619 -0.2931
 5604TIP3   OH238302   7.013   6.313   1.933  0.6140  0.2741 -0.0949
 5604TIP3    H138303   6.990   6.221   1.926  1.7746 -0.0910  0.5526
 5604TIP3    H238304   6.946   6.351   1.990 -0.0784 -0.0751 -0.6633
 5605TIP3   OH238305   4.647   0.516  13.628 -0.5399  0.1068 -0.0646
 5605TIP3    H138306   4.683   0.537  13.541 -0.8938 -1.0791 -0.5094
 5605TIP3    H238307   4.722   0.524  13.687  0.0312 -0.4460 -0.6953
 5606TIP3   OH238308   4.340   0.094   0.309 -0.5433 -0.0864 -0.4437
 5606TIP3    H138309   4.419   0.106   0.256 -0.3716  0.2537 -0.1220
 5606TIP3    H238310   4.292   0.176   0.300 -1.5294 -0.7744 -1.7033
 5607TIP3   OH238311   1.378   1.002  10.162 -0.0410  0.1853 -0.1104
 5607TIP3    H138312   1.348   1.017  10.251 -0.9339 -1.1706 -0.1405
 5607TIP3    H238313   1.454   1.059  10.151 -0.7789  1.4378  1.0264
 5608TIP3   OH238314   1.500   3.619  10.746  0.3609 -0.1034 -0.2727
 5608TIP3    H138315   1.507   3.696  10.689  0.8125  0.5730  0.6712
 5608TIP3    H238316   1.561   3.637  10.818 -0.2864 -0.8824  0.4890
 5609TIP3   OH238317   6.959   3.522  11.122  0.7921  0.3258 -0.1926
 5609TIP3    H138318   7.007   3.577  11.184  2.0944 -0.5586 -0.3635
 5609TIP3    H238319   6.884   3.575  11.095  1.0227  1.2976  0.9941
 5610TIP3   OH238320   1.205   2.260  11.141 -0.1676  0.1704 -0.5091
 5610TIP3    H138321   1.157   2.342  11.154 -1.5877 -0.6363 -0.4992
 5610TIP3    H238322   1.171   2.224  11.059  1.5955  0.3373 -1.3655
 5611TIP3   OH238323   3.314   0.403   0.251 -0.0923  0.1356  0.2979
 5611TIP3    H138324   3.359   0.468   0.196 -1.8814  0.6651 -0.6046
 5611TIP3    H238325   3.276   0.454   0.322 -0.5540 -0.0934  0.2141
 5612TIP3   OH238326   0.202   5.350   0.878  0.0558 -0.2077 -0.2016
 5612TIP3    H138327   0.196   5.264   0.836 -0.0691 -1.0089  1.3794
 5612TIP3    H238328   0.146   5.342   0.955  0.4843  1.1192  0.2604
 5613TIP3   OH238329   2.601   0.593   0.870 -0.0530  0.2820 -0.5579
 5613TIP3    H138330   2.606   0.499   0.888 -1.0419 -0.0415 -1.8449
 5613TIP3    H238331   2.580   0.632   0.954  1.0385 -0.5680  0.1429
 5614TIP3   OH238332   2.933   4.122  15.224  0.1443 -0.7816 -0.2600
 5614TIP3    H138333   2.975   4.204  15.199  2.7587 -2.4059 -1.5878
 5614TIP3    H238334   2.879   4.099  15.149  0.9989 -1.2405 -0.7476
 5615TIP3   OH238335   2.005   5.274  12.645 -0.8211 -0.6594  0.0016
 5615TIP3    H138336   2.091   5.234  12.639 -0.9424 -0.7729 -1.1951
 5615TIP3    H238337   1.958   5.244  12.567 -1.4187  0.6164 -0.1668
 5616TIP3   OH238338   5.530   4.915  10.104 -0.5316 -0.2458 -0.1714
 5616TIP3    H138339   5.618   4.952  10.097 -0.5966 -0.0402  0.0665
 5616TIP3    H238340   5.483   4.976  10.162 -0.3015 -1.2944  1.1838
 5617TIP3   OH238341   5.943   5.682  10.091  1.0320 -0.2924 -0.4119
 5617TIP3    H138342   5.967   5.642  10.174  0.0725 -2.0488 -0.9402
 5617TIP3    H238343   5.934   5.609  10.030 -2.8477  0.4121 -0.9509
 5618TIP3   OH238344   5.700   0.558  13.024  0.1166  0.0916  0.4410
 5618TIP3    H138345   5.737   0.626  12.966  1.2931 -1.0777 -0.2292
 5618TIP3    H238346   5.622   0.599  13.061  0.5535  1.6670 -0.2710
 5619TIP3   OH238347   7.130   4.806  11.969 -0.2785  0.2899  0.0697
 5619TIP3    H138348   7.219   4.834  11.949  0.6620 -2.7934 -0.5448
 5619TIP3    H238349   7.115   4.836  12.059  1.2825  1.0233  0.1186
 5620TIP3   OH238350   0.511   5.415   0.305 -0.1702  0.0984 -0.4687
 5620TIP3    H138351   0.488   5.360   0.230  1.0165 -2.0667  0.6621
 5620TIP3    H238352   0.601   5.441   0.289  0.3534 -1.0099  0.5028
 5621TIP3   OH238353   7.056   0.502  10.240 -0.3976 -0.5696 -0.1147
 5621TIP3    H138354   7.074   0.427  10.297 -2.4952  0.1513  1.6210
 5621TIP3    H238355   7.130   0.561  10.255 -0.0257 -1.1778  0.4872
 5622TIP3   OH238356   5.971   3.832  10.938  0.3799  0.2558 -0.2429
 5622TIP3    H138357   5.989   3.866  11.026  0.4938 -0.6924  0.1105
 5622TIP3    H238358   5.959   3.738  10.951 -0.0194  0.1704 -1.1862
 5623TIP3   OH238359   2.220   4.487  14.514 -0.6537  0.0780  0.5897
 5623TIP3    H138360   2.284   4.558  14.510 -0.3132 -0.1679  1.4848
 5623TIP3    H238361   2.230   4.441  14.430  1.2878 -0.7379  1.1923
 5624TIP3   OH238362   3.951   5.259  13.643 -0.0562  0.5569 -0.2576
 5624TIP3    H138363   3.991   5.210  13.571 -0.9940  0.8125 -0.9821
 5624TIP3    H238364   3.932   5.193  13.710  0.0202  0.1620 -0.6205
 5625TIP3   OH238365   5.723   2.243   9.596 -0.4296  0.0025 -0.3698
 5625TIP3    H138366   5.740   2.159   9.554 -1.1534 -0.1521 -0.3763
 5625TIP3    H238367   5.799   2.259   9.651 -0.0814 -0.4379 -0.7180
 5626TIP3   OH238368   1.713   3.597  11.120  0.6763  0.1706 -0.2301
 5626TIP3    H138369   1.681   3.650  11.047  1.3143  0.5161 -0.2693
 5626TIP3    H238370   1.751   3.660  11.181  2.6286 -0.3018 -0.8827
 5627TIP3   OH238371   3.061   4.334  14.278 -0.5638  0.5358 -0.1740
 5627TIP3    H138372   3.038   4.379  14.197  1.0434  1.2870 -0.2480
 5627TIP3    H238373   3.122   4.393  14.322  1.5292 -1.4567 -0.2048
 5628TIP3   OH238374   5.165   2.207  10.401  0.5782 -0.8807  0.4907
 5628TIP3    H138375   5.110   2.271  10.445  1.2032 -1.2332  1.8457
 5628TIP3    H238376   5.243   2.201  10.456  0.2213 -3.3396  0.8472
 5629TIP3   OH238377   3.631   6.617  12.539  0.3312  0.2154  0.0792
 5629TIP3    H138378   3.705   6.582  12.489 -0.5117 -1.1166 -0.2716
 5629TIP3    H238379   3.616   6.704  12.501 -0.0679 -0.6157 -1.8109
 5630TIP3   OH238380   5.269   5.809  10.263  0.2617 -0.2082  0.2284
 5630TIP3    H138381   5.283   5.756  10.185  0.4627  0.1097  0.0471
 5630TIP3    H238382   5.326   5.770  10.329 -0.0638 -0.6060  0.2790
 5631TIP3   OH238383   1.965   3.020  11.274 -0.2019 -0.1398  0.1189
 5631TIP3    H138384   2.018   2.948  11.239  0.3006 -0.6660  1.8146
 5631TIP3    H238385   2.021   3.097  11.267  0.1603 -0.3749  0.3845
 5632TIP3   OH238386   4.669   2.485  11.222 -0.2273 -0.4010  0.3626
 5632TIP3    H138387   4.648   2.470  11.314  1.0094 -2.2552  0.4031
 5632TIP3    H238388   4.752   2.534  11.224 -0.3764 -0.1417  0.2342
 5633TIP3   OH238389   4.871   0.282  13.468  0.0231  0.7099  0.5691
 5633TIP3    H138390   4.812   0.286  13.393  0.4385  0.6214  0.2328
 5633TIP3    H238391   4.914   0.368  13.470  3.2780 -0.6416 -2.0113
 5634TIP3   OH238392   6.129   2.201  10.177 -0.1751  0.2000 -0.1941
 5634TIP3    H138393   6.079   2.279  10.153 -1.7074 -0.0343  1.9327
 5634TIP3    H238394   6.063   2.131  10.183  0.7862 -0.6941  0.2835
 5635TIP3   OH238395   2.554   6.934  10.666 -0.0646  0.4904  0.0021
 5635TIP3    H138396   2.612   6.882  10.721 -0.1483 -0.1537 -0.5129
 5635TIP3    H238397   2.495   6.977  10.729 -0.9522 -1.1901  0.3793
 5636TIP3   OH238398   4.919   2.755   9.321 -0.3979  0.3177 -0.4001
 5636TIP3    H138399   4.852   2.746   9.254 -1.6607 -2.0292  1.0639
 5636TIP3    H238400   4.968   2.672   9.318  0.8745  1.0074  0.2059
 5637TIP3   OH238401   2.464   4.540  13.385 -0.0737  0.2375  0.4695
 5637TIP3    H138402   2.456   4.617  13.440 -2.2929 -0.8302  1.7577
 5637TIP3    H238403   2.541   4.494  13.419 -0.1660  0.6731  1.2840
 5638TIP3   OH238404   3.775   6.294  11.130  0.5808 -0.7378 -0.4694
 5638TIP3    H138405   3.799   6.205  11.157  0.6159 -0.0302  2.1440
 5638TIP3    H238406   3.829   6.351  11.186 -0.9294  0.9116 -0.6176
 5639TIP3   OH238407   6.434   0.456  12.130 -0.3310  0.5362  0.2133
 5639TIP3    H138408   6.417   0.362  12.117  0.9454  0.2367  0.5200
 5639TIP3    H238409   6.350   0.492  12.157 -0.4595 -0.8678  1.9015
 5640TIP3   OH238410   3.132   4.959  12.614  0.6881  0.7551  0.0765
 5640TIP3    H138411   3.180   4.887  12.654 -1.5848 -0.0154  1.6235
 5640TIP3    H238412   3.091   5.005  12.687 -0.4219  1.7428 -1.0957
 5641TIP3   OH238413   1.282   4.425  13.422 -0.1745  0.0383  0.2767
 5641TIP3    H138414   1.278   4.371  13.501  0.6455  0.8421  0.8987
 5641TIP3    H238415   1.196   4.466  13.416 -0.4478 -0.5101  0.3943
 5642TIP3   OH238416   2.104   1.385  13.577  0.2897  0.8071 -0.2141
 5642TIP3    H138417   2.150   1.431  13.507 -0.7493  0.0317 -1.4507
 5642TIP3    H238418   2.113   1.292  13.555 -0.5400  0.5791  0.3586
 5643TIP3   OH238419   6.292   3.805  12.190  0.0436 -0.0459  0.8484
 5643TIP3    H138420   6.265   3.801  12.098 -0.3683  3.2887  0.7211
 5643TIP3    H238421   6.226   3.753  12.237  0.4552 -2.0901 -0.6840
 5644TIP3   OH238422   5.363   2.399   2.469 -0.9111 -0.2118  0.4871
 5644TIP3    H138423   5.400   2.311   2.481 -0.3836  0.1630  1.7172
 5644TIP3    H238424   5.269   2.387   2.480 -0.8517 -0.6243  0.5751
 5645TIP3   OH238425   4.133   5.246  14.663 -0.1886 -0.1516  0.2276
 5645TIP3    H138426   4.197   5.317  14.672 -0.5302  0.3555 -1.0871
 5645TIP3    H238427   4.065   5.282  14.605 -0.5852 -1.3981 -0.1205
 5646TIP3   OH238428   6.376   6.413  13.302 -0.2049  0.2077 -0.7704
 5646TIP3    H138429   6.298   6.469  13.303  0.1534  0.7099 -0.7038
 5646TIP3    H238430   6.392   6.393  13.395 -3.0250 -3.8498 -0.8603
 5647TIP3   OH238431   4.339   7.083  12.404 -0.3759  0.1827  0.3591
 5647TIP3    H138432   4.421   7.131  12.408  0.8052 -1.7080 -0.0896
 5647TIP3    H238433   4.323   7.055  12.494 -0.1405 -0.0609  0.3256
 5648TIP3   OH238434   3.392   5.654  12.474  0.4561 -0.1746  0.1266
 5648TIP3    H138435   3.300   5.667  12.452  0.6012 -1.4074 -1.4153
 5648TIP3    H238436   3.425   5.597  12.405  2.8397  1.6493 -0.3787
 5649TIP3   OH238437   0.402   6.152  12.949 -0.1354 -0.0143 -0.5027
 5649TIP3    H138438   0.419   6.162  13.043 -2.0810  2.0261 -0.2829
 5649TIP3    H238439   0.488   6.139  12.910  1.0734  1.8751  1.3085
 5650TIP3   OH238440   1.737   1.818   2.575 -0.2719 -0.1601  0.0349
 5650TIP3    H138441   1.676   1.745   2.574 -0.8586  0.3208  0.5184
 5650TIP3    H238442   1.683   1.895   2.592  0.4443  0.2897  0.3254
 5651TIP3   OH238443   1.108   3.123  13.218  0.7028 -0.3785  0.3198
 5651TIP3    H138444   1.075   3.176  13.290  0.1828  0.9838 -0.8630
 5651TIP3    H238445   1.203   3.134  13.221  0.5505  1.9715 -0.8021
 5652TIP3   OH238446   5.002   1.891  15.182 -1.0151 -0.5957 -0.0971
 5652TIP3    H138447   5.081   1.915  15.230 -0.9729  0.1659 -0.5370
 5652TIP3    H238448   4.966   1.974  15.152 -1.8890 -0.9450 -0.0568
 5653TIP3   OH238449   4.764   0.428  10.042  0.2721 -0.4002 -0.1330
 5653TIP3    H138450   4.733   0.453   9.955 -1.2023 -0.3020  0.3845
 5653TIP3    H238451   4.713   0.350  10.065 -0.4891  0.4367  1.2189
 5654TIP3   OH238452   2.311   4.637  14.292 -0.0830  0.7116 -0.2406
 5654TIP3    H138453   2.340   4.715  14.339  0.5968  0.0566  0.4480
 5654TIP3    H238454   2.390   4.603  14.251 -0.5470  0.8958 -1.3297
 5655TIP3   OH238455   3.661   5.126  14.355  0.1000  0.6504  0.7861
 5655TIP3    H138456   3.661   5.210  14.310 -3.9689  0.3821 -0.1412
 5655TIP3    H238457   3.722   5.072  14.305 -0.6586  1.7891 -1.5481
 5656TIP3   OH238458   6.037   6.668   0.729  0.1265  0.3063 -0.2733
 5656TIP3    H138459   5.962   6.723   0.755 -0.3693 -0.3440 -0.2989
 5656TIP3    H238460   6.102   6.684   0.797 -0.7252 -0.4878  0.7760
 5657TIP3   OH238461   3.161   3.154  12.313  0.2061 -0.1557 -0.1410
 5657TIP3    H138462   3.189   3.063  12.310 -1.8683 -0.8076 -2.1145
 5657TIP3    H238463   3.202   3.195  12.237 -0.6794 -0.0467 -0.5743
 5658TIP3   OH238464   7.124   3.063   0.994 -0.6233 -0.1384 -0.0475
 5658TIP3    H138465   7.062   3.018   0.938 -2.2785  0.4929  1.2039
 5658TIP3    H238466   7.133   3.006   1.071 -0.9773  0.5501  0.5219
 5659TIP3   OH238467   5.590   6.635  12.057 -0.5434 -0.2996 -0.1934
 5659TIP3    H138468   5.527   6.564  12.043  0.6836 -1.1710 -1.5214
 5659TIP3    H238469   5.596   6.679  11.973 -1.7661  1.8439  0.7797
 5660TIP3   OH238470   3.340   6.785  10.686  0.0501  0.0401  0.4941
 5660TIP3    H138471   3.412   6.772  10.624 -0.9059 -0.2125 -0.6135
 5660TIP3    H238472   3.314   6.877  10.674 -0.8148 -0.2841 -0.2806
 5661TIP3   OH238473   1.793   3.714  14.149 -0.3507  0.2156  0.0960
 5661TIP3    H138474   1.887   3.703  14.133 -0.5752  0.2339 -1.3116
 5661TIP3    H238475   1.769   3.793  14.101 -1.3886 -0.6624 -0.8903
 5662TIP3   OH238476   2.862   1.583  14.870  0.2169 -0.6713  0.5572
 5662TIP3    H138477   2.924   1.530  14.820 -0.1349 -1.1618  0.6403
 5662TIP3    H238478   2.782   1.582  14.817 -0.2151 -1.3350  1.2111
 5663TIP3   OH238479   3.931   4.888  12.321 -0.3371 -0.9872  0.0454
 5663TIP3    H138480   3.988   4.946  12.270  0.4414 -0.6138  1.2812
 5663TIP3    H238481   3.910   4.816  12.262 -1.3063  0.5100 -1.5334
 5664TIP3   OH238482   1.092   5.707  12.672 -0.0199  0.1793 -0.6222
 5664TIP3    H138483   1.080   5.790  12.625  0.8956  0.6508 -0.0549
 5664TIP3    H238484   1.177   5.716  12.715  0.1780 -1.1412 -0.7039
 5665TIP3   OH238485   1.854   1.085   9.501  0.2141  0.4109  0.2587
 5665TIP3    H138486   1.805   1.003   9.501  0.9576 -0.1459 -2.5041
 5665TIP3    H238487   1.802   1.143   9.445  0.9630  0.9574  0.1181
 5666TIP3   OH238488   2.531   1.124   2.486 -0.0181  0.1793 -0.0187
 5666TIP3    H138489   2.519   1.157   2.575  0.6053  2.9735 -0.8816
 5666TIP3    H238490   2.443   1.121   2.449 -0.1248  0.6335  0.1880
 5667TIP3   OH238491   7.106   6.502  11.722  0.6104  0.1594  0.3585
 5667TIP3    H138492   7.200   6.519  11.730  1.1731 -2.2300 -0.2222
 5667TIP3    H238493   7.072   6.512  11.810  1.5399  0.4334  0.7027
 5668TIP3   OH238494   6.746   0.030  11.363  0.2610  0.2651 -0.8547
 5668TIP3    H138495   6.688  -0.009  11.298 -0.8898  2.1036 -1.0189
 5668TIP3    H238496   6.701   0.018  11.447  0.6135 -0.0686 -0.7143
 5669TIP3   OH238497   4.590   6.062  10.327  0.2721 -0.1122 -0.1632
 5669TIP3    H138498   4.513   6.091  10.279  0.1283  0.0209  0.1425
 5669TIP3    H238499   4.587   5.967  10.323  0.4847 -0.0991 -0.7642
 5670TIP3   OH238500   2.328   5.127  11.721 -0.3812 -0.3812  0.1134
 5670TIP3    H138501   2.347   5.145  11.813 -0.6810  1.6121 -0.1795
 5670TIP3    H238502   2.233   5.120  11.717 -0.4143  0.1674 -0.1364
 5671TIP3   OH238503   0.300   7.196  11.658  0.0864  0.1914 -0.4048
 5671TIP3    H138504   0.334   7.123  11.710  0.1373 -0.7326 -1.6927
 5671TIP3    H238505   0.305   7.272  11.717  2.9738 -0.1950 -0.0071
 5672TIP3   OH238506   4.880   4.335  12.011  0.0169 -0.5278  0.2624
 5672TIP3    H138507   4.845   4.295  11.932 -0.1072 -1.4939  0.7972
 5672TIP3    H238508   4.807   4.385  12.047 -0.2763 -1.0431  0.3917
 5673TIP3   OH238509   3.918   5.738  14.975 -0.2598 -0.1889 -0.7015
 5673TIP3    H138510   3.833   5.696  14.965  0.0325 -0.4153 -2.5886
 5673TIP3    H238511   3.980   5.679  14.932  0.7496  0.3519 -0.0571
 5674TIP3   OH238512   3.283   0.525   4.697  0.8504  0.1189  0.4038
 5674TIP3    H138513   3.350   0.473   4.742  0.7368  0.4782  1.0144
 5674TIP3    H238514   3.210   0.528   4.759  0.4773  0.1776 -0.0363
 5675TIP3   OH238515   5.567   1.539  10.858 -0.0698 -0.1860 -0.7667
 5675TIP3    H138516   5.572   1.520  10.764 -1.3290 -1.9755 -0.5169
 5675TIP3    H238517   5.511   1.616  10.864 -2.5127 -1.8203 -1.3690
 5676TIP3   OH238518   5.445   4.034  10.597  0.0291 -0.8219  0.1790
 5676TIP3    H138519   5.368   4.086  10.617  1.4604  1.4602  0.1412
 5676TIP3    H238520   5.511   4.063  10.661  1.0900 -2.1170 -0.2752
 5677TIP3   OH238521   0.826   4.458  13.117  0.0647 -0.5404 -0.0484
 5677TIP3    H138522   0.831   4.373  13.159 -0.0275 -1.2004 -1.3316
 5677TIP3    H238523   0.916   4.480  13.094  0.2855  0.4214  1.6056
 5678TIP3   OH238524   1.630   4.799  13.849  0.7435  0.1689 -0.1436
 5678TIP3    H138525   1.667   4.782  13.763  0.9796 -2.3440  0.3841
 5678TIP3    H238526   1.544   4.836  13.832  1.8430  2.3948 -1.3989
 5679TIP3   OH238527   3.583   5.129   0.101 -0.1561  0.1350  0.1308
 5679TIP3    H138528   3.496   5.103   0.070  0.1566  0.0021 -0.6636
 5679TIP3    H238529   3.636   5.132   0.022  0.5512  0.2714  0.6065
 5680TIP3   OH238530   6.503   6.626  11.843 -0.2082  0.2530 -0.5072
 5680TIP3    H138531   6.446   6.691  11.884  0.7745  0.0568  1.2624
 5680TIP3    H238532   6.577   6.677  11.811 -0.1082  0.1752 -0.3961
 5681TIP3   OH238533   5.801   7.154  12.158 -0.3499  0.0914 -0.0121
 5681TIP3    H138534   5.750   7.073  12.160  0.0034 -0.1179  1.0748
 5681TIP3    H238535   5.785   7.195  12.243  0.4227  0.5699 -0.0840
 5682TIP3   OH238536   7.109   2.489  10.772  0.5644 -0.1157 -0.3377
 5682TIP3    H138537   7.078   2.407  10.810 -1.0096  0.7804  0.3880
 5682TIP3    H238538   7.137   2.541  10.847  2.1731 -0.2033 -0.8467
 5683TIP3   OH238539   0.528   3.917  14.544 -0.3151  0.4923 -0.2327
 5683TIP3    H138540   0.571   3.987  14.593 -0.7029 -0.3248  1.3496
 5683TIP3    H238541   0.528   3.842  14.604  0.8763 -1.1650 -2.1806
 5684TIP3   OH238542   1.683   4.893  11.864 -0.4127  0.0078  0.0248
 5684TIP3    H138543   1.706   4.801  11.876 -0.7854 -0.2275 -0.9821
 5684TIP3    H238544   1.637   4.896  11.780 -1.7499  0.8665  0.7450
 5685TIP3   OH238545   4.228   6.600  11.037  0.1704 -0.7234 -0.1351
 5685TIP3    H138546   4.272   6.658  10.975 -2.4035  1.6636  0.0492
 5685TIP3    H238547   4.187   6.533  10.981 -1.8333  1.1977 -1.1656
 5686TIP3   OH238548   4.764   5.876  12.108  0.1334 -0.1854 -0.5083
 5686TIP3    H138549   4.855   5.859  12.132  0.2219 -1.3425 -1.5497
 5686TIP3    H238550   4.767   5.957  12.058  0.8550 -1.0282 -1.8971
 5687TIP3   OH238551   0.225   1.514  10.483 -0.1894 -0.1690  0.4417
 5687TIP3    H138552   0.269   1.599  10.476  2.1648 -1.2142  1.5239
 5687TIP3    H238553   0.182   1.516  10.568 -2.4016  0.8439 -0.6064
 5688TIP3   OH238554   4.938   0.067  13.241  0.0229  0.1644  0.0113
 5688TIP3    H138555   4.873   0.042  13.306  1.0151 -1.4962  0.4344
 5688TIP3    H238556   5.013   0.099  13.292  0.5310 -0.4519 -0.3296
 5689TIP3   OH238557   4.368   2.701   1.293  0.7863  0.2280 -0.1652
 5689TIP3    H138558   4.398   2.780   1.338  2.1119  0.0851 -0.7568
 5689TIP3    H238559   4.375   2.633   1.360  1.1907  0.3187 -0.1082
 5690TIP3   OH238560   5.445   3.587  10.972 -0.3804  1.1605 -0.0138
 5690TIP3    H138561   5.452   3.497  10.940  0.1021  1.6956 -1.4614
 5690TIP3    H238562   5.352   3.609  10.963 -0.4547  0.8987  0.1031
 5691TIP3   OH238563   0.488   2.221  13.595 -0.6815  0.8606  0.1985
 5691TIP3    H138564   0.418   2.199  13.656  0.1814  0.2893  1.0043
 5691TIP3    H238565   0.530   2.298  13.633  1.5794 -1.0627  1.8298
 5692TIP3   OH238566   2.987   2.605  11.114 -0.1079 -0.0271 -0.6936
 5692TIP3    H138567   2.893   2.617  11.099  0.1800  0.9813 -1.8144
 5692TIP3    H238568   3.024   2.598  11.026  0.9532  0.2336 -0.2752
 5693TIP3   OH238569   0.349   4.077   9.569 -0.1643  0.1650 -0.7526
 5693TIP3    H138570   0.405   4.153   9.554 -0.9379  0.8660 -0.1684
 5693TIP3    H238571   0.259   4.110   9.559 -0.5748 -0.3023  0.9985
 5694TIP3   OH238572   2.050   1.715  12.316 -0.2674 -0.3376 -0.6648
 5694TIP3    H138573   1.990   1.682  12.384 -0.6380 -1.0775 -1.3282
 5694TIP3    H238574   2.075   1.802  12.347 -0.3010 -0.7129  0.5008
 5695TIP3   OH238575   5.554   2.577  13.899 -1.6106 -0.4050 -0.1181
 5695TIP3    H138576   5.607   2.569  13.820 -1.5461 -1.1595 -0.0097
 5695TIP3    H238577   5.466   2.596  13.868 -1.3189  0.7409 -0.3058
 5696TIP3   OH238578   6.653   1.392  10.324 -0.4197 -0.3904  0.0897
 5696TIP3    H138579   6.702   1.379  10.406 -0.0185  1.7605  0.2500
 5696TIP3    H238580   6.599   1.314  10.316  0.0781 -0.9917  2.0336
 5697TIP3   OH238581   5.179   1.322  14.847 -0.0224 -0.3641 -0.0274
 5697TIP3    H138582   5.101   1.273  14.872  1.1434 -2.8593 -0.9466
 5697TIP3    H238583   5.202   1.287  14.761  0.8335  1.9687 -0.8187
 5698TIP3   OH238584   5.963   4.906  10.387  0.3699  0.2672 -0.1523
 5698TIP3    H138585   6.017   4.918  10.465 -0.6890 -1.3330  0.8935
 5698TIP3    H238586   5.919   4.990  10.375 -0.0058  0.3269  1.4298
 5699TIP3   OH238587   2.392   6.198  12.723 -0.1842  0.3541 -0.0494
 5699TIP3    H138588   2.300   6.175  12.711 -0.3497 -0.0536  1.7499
 5699TIP3    H238589   2.415   6.246  12.643 -2.5727  2.4144  0.3558
 5700TIP3   OH238590   3.003   4.288   1.884  0.3375 -0.1696  0.0977
 5700TIP3    H138591   3.073   4.294   1.820 -0.4067 -0.4790 -0.7590
 5700TIP3    H238592   3.009   4.198   1.917  0.4156 -0.1592  0.1138
 5701TIP3   OH238593   1.124   0.991  13.193  0.4590  0.3822 -0.0603
 5701TIP3    H138594   1.111   1.023  13.104 -0.0550  0.1707 -0.0620
 5701TIP3    H238595   1.216   1.012  13.212  0.4883  0.7043 -0.5242
 5702TIP3   OH238596   7.040   7.045  11.882  0.1579  0.8853 -0.2223
 5702TIP3    H138597   7.093   7.102  11.938  2.3729 -0.7904 -0.4886
 5702TIP3    H238598   7.087   6.962  11.880 -3.0307 -1.0912  0.2822
 5703TIP3   OH238599   5.549   4.777  11.783  0.0954 -0.2376  0.4816
 5703TIP3    H138600   5.610   4.837  11.827  0.2723  0.3677 -0.5516
 5703TIP3    H238601   5.503   4.832  11.720 -0.0593 -1.1090 -0.1790
 5704TIP3   OH238602   2.464   4.613  12.656 -0.5901 -0.3325  0.0267
 5704TIP3    H138603   2.445   4.532  12.607 -0.1111 -0.2472 -0.3068
 5704TIP3    H238604   2.437   4.594  12.745  0.0091 -1.0516  0.0674
 5705TIP3   OH238605   7.143   0.463  13.448  0.6681  0.2756 -0.4361
 5705TIP3    H138606   7.127   0.527  13.379 -2.5816 -0.7269 -0.7811
 5705TIP3    H238607   7.137   0.378  13.404 -0.0053 -0.3512  0.8090
 5706TIP3   OH238608   4.953   5.251  13.339 -0.1316 -0.5481 -0.1877
 5706TIP3    H138609   4.951   5.302  13.420 -0.2491 -0.1362 -0.4456
 5706TIP3    H238610   4.971   5.162  13.367 -2.1041 -0.7822  0.4987
 5707TIP3   OH238611   6.514   5.620   4.487 -0.0570 -0.4305  0.3431
 5707TIP3    H138612   6.505   5.681   4.414  2.7255 -1.3006 -0.8451
 5707TIP3    H238613   6.426   5.582   4.497 -1.3366  2.1344 -0.2684
 5708TIP3   OH238614   6.279   1.343  12.038  0.4392  0.4936  0.1749
 5708TIP3    H138615   6.335   1.339  12.116  2.2989 -0.6811 -1.1315
 5708TIP3    H238616   6.339   1.325  11.965 -1.3718  0.8321 -1.4663
 5709TIP3   OH238617   1.494   3.257   9.682 -0.1102  0.0489 -0.7503
 5709TIP3    H138618   1.455   3.241   9.767 -0.0517 -1.0981 -0.9205
 5709TIP3    H238619   1.588   3.242   9.695  0.1079  1.3690 -0.6770
 5710TIP3   OH238620   4.009   5.385  11.040  0.3030  0.0937  0.3339
 5710TIP3    H138621   4.030   5.423  10.955  1.8007 -0.4317  0.4427
 5710TIP3    H238622   3.914   5.372  11.038  0.3606 -0.2654 -1.3971
 5711TIP3   OH238623   5.460   4.084  10.048 -0.1936  0.1117  0.3786
 5711TIP3    H138624   5.467   4.171  10.088  2.0281 -0.5213  1.5549
 5711TIP3    H238625   5.464   4.023  10.122  0.8553 -1.0333 -0.5682
 5712TIP3   OH238626   5.643   3.393  10.649  0.0682  0.5744  0.0492
 5712TIP3    H138627   5.555   3.362  10.670  0.3290  1.4431  2.9503
 5712TIP3    H238628   5.632   3.447  10.571 -1.6924 -0.4882 -0.4934
 5713TIP3   OH238629   1.642   0.901  13.776  0.0158 -0.4526  0.3666
 5713TIP3    H138630   1.732   0.888  13.805  0.5135 -0.2414 -1.0139
 5713TIP3    H238631   1.638   0.862  13.689 -0.8200  0.8003 -0.2049
 5714TIP3   OH238632   1.041   2.110  11.592  0.2418  0.3037 -0.1135
 5714TIP3    H138633   1.113   2.055  11.563  0.4659  0.3289  0.3937
 5714TIP3    H238634   1.040   2.101  11.687 -3.0874 -3.1001 -0.2216
 5715TIP3   OH238635   5.413   6.402  15.023  0.6020  0.6588 -0.4312
 5715TIP3    H138636   5.334   6.365  15.063  0.6816  1.8444  0.9139
 5715TIP3    H238637   5.421   6.489  15.062  1.8689  1.0669 -1.5177
 5716TIP3   OH238638   2.391   1.642  12.163 -0.0685  0.3654 -0.0530
 5716TIP3    H138639   2.363   1.594  12.241  0.6112  0.0350 -0.0057
 5716TIP3    H238640   2.481   1.667  12.181 -1.0317  3.6301  0.8645
 5717TIP3   OH238641   1.742   0.258  10.758  0.0220  0.5690 -0.4279
 5717TIP3    H138642   1.734   0.170  10.795  1.8122  0.5152 -0.0849
 5717TIP3    H238643   1.658   0.274  10.715  0.2918 -2.1021 -2.2120
 5718TIP3   OH238644   4.760   0.699  12.123  0.3573 -0.6555 -0.5914
 5718TIP3    H138645   4.794   0.732  12.040  0.3518 -0.7566 -0.6336
 5718TIP3    H238646   4.829   0.641  12.156  2.0127  2.1102  1.2424
 5719TIP3   OH238647   1.125   3.764  10.513  0.2046 -0.3794 -0.3384
 5719TIP3    H138648   1.036   3.758  10.479  0.0893  0.7117 -0.2691
 5719TIP3    H238649   1.119   3.825  10.586  1.1017  0.1233 -0.6690
 5720TIP3   OH238650   1.705   0.512  12.562  0.0462  0.6046 -0.2299
 5720TIP3    H138651   1.787   0.484  12.520  0.2320  0.7399  0.0424
 5720TIP3    H238652   1.725   0.512  12.656 -0.5484 -0.2794 -0.0951
 5721TIP3   OH238653   1.080   5.330   0.145 -0.3221  0.4444 -0.4784
 5721TIP3    H138654   1.021   5.378   0.086 -0.3327  1.8713  0.6173
 5721TIP3    H238655   1.168   5.349   0.111 -0.2539  2.2039  0.5424
 5722TIP3   OH238656   2.121   1.988  15.117 -0.1876 -0.1479  0.2003
 5722TIP3    H138657   2.094   1.959  15.030  0.9124 -0.8960  0.0918
 5722TIP3    H238658   2.092   1.918  15.175  2.8192 -1.8175 -0.1070
 5723TIP3   OH238659   4.098   4.463   9.627  0.3511  0.0922  0.1595
 5723TIP3    H138660   4.079   4.369   9.624 -1.0802  0.3705 -0.2979
 5723TIP3    H238661   4.022   4.504   9.586  0.4638  1.5183  1.2864
 5724TIP3   OH238662   4.814   1.890  12.937 -0.2180  0.1022 -0.1685
 5724TIP3    H138663   4.758   1.967  12.927 -0.7650 -0.2025  0.4775
 5724TIP3    H238664   4.879   1.916  13.002  0.0260  0.2458 -0.4642
 5725TIP3   OH238665   6.406   3.210  14.072 -0.0058 -0.6925 -0.3003
 5725TIP3    H138666   6.478   3.149  14.053 -0.6965 -2.3416  1.9734
 5725TIP3    H238667   6.440   3.267  14.141 -1.1084 -2.1483  1.5355
 5726TIP3   OH238668   2.519   4.987  11.579 -0.4239  0.2601 -0.3531
 5726TIP3    H138669   2.455   5.037  11.629  0.3245 -1.6064  2.7616
 5726TIP3    H238670   2.469   4.914  11.542 -0.3510 -0.6725  1.2882
 5727TIP3   OH238671   5.296   3.194  11.822 -0.0451  0.3758  0.1365
 5727TIP3    H138672   5.295   3.223  11.731  0.8633  1.0149  0.3204
 5727TIP3    H238673   5.279   3.274  11.873  1.4843  0.4377  0.6036
 5728TIP3   OH238674   2.735   3.068   1.189  0.0587  0.1726  0.2284
 5728TIP3    H138675   2.718   3.026   1.273 -2.0132 -1.1698 -0.7766
 5728TIP3    H238676   2.669   3.031   1.130  0.8086  1.8074 -1.7530
 5729TIP3   OH238677   1.450   2.468  12.921 -0.1357  0.0404  0.2092
 5729TIP3    H138678   1.429   2.458  13.014  3.5808 -1.0419  1.0897
 5729TIP3    H238679   1.442   2.379  12.885  1.0719 -0.0703  0.1792
 5730TIP3   OH238680   3.431   0.627  15.230  0.1735  0.5244  0.1914
 5730TIP3    H138681   3.396   0.558  15.173  0.3706  0.2184  0.4350
 5730TIP3    H238682   3.405   0.708  15.188  1.0729  0.3163 -0.8311
 5731TIP3   OH238683   0.727   6.542   9.939 -0.1242  0.1335 -0.5932
 5731TIP3    H138684   0.672   6.504   9.870 -2.0399  0.8306  0.4702
 5731TIP3    H238685   0.700   6.634   9.943  0.2834  0.2185  0.7549
 5732TIP3   OH238686   1.672   4.912   0.119  0.3127 -0.4165 -0.4682
 5732TIP3    H138687   1.760   4.942   0.140 -1.0393  1.6797  3.0999
 5732TIP3    H238688   1.679   4.816   0.117  2.4210 -0.3575  1.1053
 5733TIP3   OH238689   2.508   5.346  12.586 -0.0434 -0.0041  0.0789
 5733TIP3    H138690   2.490   5.325  12.678  1.5367  1.5474  0.7900
 5733TIP3    H238691   2.553   5.268  12.552 -1.9885 -1.2253  0.1174
 5734TIP3   OH238692   0.269   2.206  10.009 -0.0489  0.5021  0.4003
 5734TIP3    H138693   0.275   2.260   9.930 -1.3902  0.8067  0.4888
 5734TIP3    H238694   0.353   2.159  10.012 -0.9421 -1.6302 -2.7291
 5735TIP3   OH238695   6.124   2.224  11.770 -0.5657  0.1331  0.1506
 5735TIP3    H138696   6.154   2.229  11.679  3.6023 -2.7131  1.0587
 5735TIP3    H238697   6.087   2.136  11.778 -0.5499  0.2110  1.2506
 5736TIP3   OH238698   3.046   6.600   4.654  0.1925 -0.2073 -0.2072
 5736TIP3    H138699   3.094   6.611   4.572  1.1635  0.8292  0.4739
 5736TIP3    H238700   2.967   6.552   4.629  1.3058 -1.4886 -1.4466
 5737TIP3   OH238701   1.414   5.472   9.610 -0.0951  0.1255 -0.2551
 5737TIP3    H138702   1.378   5.399   9.560 -0.3128 -0.5482  0.8429
 5737TIP3    H238703   1.400   5.447   9.702  3.9928 -0.6927  0.3719
 5738TIP3   OH238704   5.562   0.940  10.257  0.3487 -0.7189 -0.8923
 5738TIP3    H138705   5.524   0.871  10.311  0.6102 -0.6792 -0.6525
 5738TIP3    H238706   5.605   0.892  10.185 -1.1731 -0.7112 -1.8499
 5739TIP3   OH238707   5.668   4.616  14.748 -0.1776 -0.0015  0.6856
 5739TIP3    H138708   5.644   4.690  14.692 -0.2638 -0.9625 -0.5703
 5739TIP3    H238709   5.700   4.549  14.688 -3.5897 -2.4800  1.3515
 5740TIP3   OH238710   1.206   1.199  11.059 -0.3128  0.0867  0.1883
 5740TIP3    H138711   1.154   1.138  11.007 -2.1293  0.8935  0.9989
 5740TIP3    H238712   1.297   1.176  11.038 -0.9522 -0.5108 -2.2922
 5741TIP3   OH238713   1.160   0.866  12.601 -0.6553 -0.2565  0.2904
 5741TIP3    H138714   1.162   0.809  12.525 -3.1316 -1.4079  0.9777
 5741TIP3    H238715   1.124   0.949  12.569  1.4457  0.4731 -0.3796
 5742TIP3   OH238716   4.729   3.411  13.493  0.1652  0.0127  0.4293
 5742TIP3    H138717   4.822   3.413  13.471  0.1932  0.3964  0.5661
 5742TIP3    H238718   4.722   3.351  13.567  0.3387  0.1559  0.5625
 5743TIP3   OH238719   4.772   6.524  12.602 -0.1032  0.4667 -0.3887
 5743TIP3    H138720   4.813   6.478  12.529  2.7407  0.0630  1.3097
 5743TIP3    H238721   4.715   6.589  12.561 -0.2744 -1.1145 -2.8945
 5744TIP3   OH238722   0.520   6.998   1.551 -0.2525  0.0400  0.0795
 5744TIP3    H138723   0.546   6.964   1.466 -0.7896  1.2768 -0.6082
 5744TIP3    H238724   0.594   6.977   1.609 -0.3715 -1.8413 -0.3811
 5745TIP3   OH238725   1.000   0.150  11.328  0.3923 -0.1652 -0.3826
 5745TIP3    H138726   0.969   0.099  11.254 -1.8909 -1.8462  1.5790
 5745TIP3    H238727   0.921   0.187  11.367  1.3914 -0.0749  1.7037
 5746TIP3   OH238728   6.048   4.525  13.360 -0.2915  0.0445  0.4752
 5746TIP3    H138729   6.086   4.437  13.365 -2.3816 -0.8778  1.6529
 5746TIP3    H238730   6.071   4.566  13.443 -0.9240 -0.1064  0.7269
 5747TIP3   OH238731   5.723   5.588   4.575 -0.1881 -0.2722  0.2535
 5747TIP3    H138732   5.734   5.683   4.567 -1.8001 -0.0493  0.3506
 5747TIP3    H238733   5.777   5.552   4.505  0.8844  0.6792  0.5678
 5748TIP3   OH238734   0.513   2.019  11.359  0.3206 -0.3607 -0.5263
 5748TIP3    H138735   0.539   2.111  11.353  0.1257 -0.0725  1.8624
 5748TIP3    H238736   0.540   1.980  11.276  3.2036  1.1763 -0.4376
 5749TIP3   OH238737   5.089   1.346   1.887 -0.3984  0.2707  0.4477
 5749TIP3    H138738   5.002   1.377   1.912 -0.6573 -0.3631  0.3374
 5749TIP3    H238739   5.083   1.331   1.793  0.0016  0.7623  0.3347
 5750TIP3   OH238740   6.850   6.813   2.400  0.1795  0.1448  0.1678
 5750TIP3    H138741   6.887   6.737   2.445  0.4498  0.0409 -0.2291
 5750TIP3    H238742   6.756   6.809   2.418  0.1880 -0.3103  0.1015
 5751TIP3   OH238743   1.726   5.971  13.265  0.0370  0.1445 -1.0009
 5751TIP3    H138744   1.815   5.952  13.237  0.1591 -2.2948  0.6800
 5751TIP3    H238745   1.674   5.969  13.185  1.3162  0.4072 -1.8630
 5752TIP3   OH238746   1.815   5.482  14.831 -0.3123  0.8015 -0.1963
 5752TIP3    H138747   1.735   5.430  14.816  0.5552 -0.2154 -1.5699
 5752TIP3    H238748   1.816   5.545  14.759  0.1540  0.7599 -0.2292
 5753TIP3   OH238749   3.983   0.082   1.142 -0.4767 -0.6636 -0.0569
 5753TIP3    H138750   4.003   0.041   1.058 -0.3930  0.3162 -0.5347
 5753TIP3    H238751   3.892   0.112   1.133 -0.9238 -1.7422  0.7039
 5754TIP3   OH238752   0.137   2.411  10.316 -0.6792 -1.0894 -0.1237
 5754TIP3    H138753   0.064   2.445  10.368  0.4162  3.0194 -0.8667
 5754TIP3    H238754   0.098   2.386  10.233 -1.5730 -1.5338  0.4158
 5755TIP3   OH238755   5.394   5.493  11.029 -0.3202 -1.0067 -0.5559
 5755TIP3    H138756   5.465   5.515  11.089  0.2450 -3.1371 -0.3753
 5755TIP3    H238757   5.432   5.502  10.942 -0.0817 -1.3438 -0.4861
 5756TIP3   OH238758   6.926   3.901   1.743 -0.5173 -0.3987 -0.0689
 5756TIP3    H138759   6.995   3.854   1.697  0.9765 -0.6050  2.2309
 5756TIP3    H238760   6.915   3.982   1.693  0.1869 -1.0875 -1.4055
 5757TIP3   OH238761   2.181   3.679  11.980  0.2021 -0.4198  0.5839
 5757TIP3    H138762   2.213   3.735  11.910 -0.4060  0.1660  0.7676
 5757TIP3    H238763   2.239   3.603  11.978  1.5515  0.5654  0.8549
 5758TIP3   OH238764   5.371   2.460  14.134 -0.1964  0.1002 -0.0479
 5758TIP3    H138765   5.356   2.366  14.143 -1.0648  0.2576  0.2170
 5758TIP3    H238766   5.428   2.467  14.057  0.9507 -0.7189  0.7017
 5759TIP3   OH238767   2.171   7.133   9.945  0.1028 -0.0343 -0.5894
 5759TIP3    H138768   2.114   7.203   9.976  0.2856  0.3064 -1.0136
 5759TIP3    H238769   2.144   7.118   9.855 -0.9013 -1.5088 -0.0753
 5760TIP3   OH238770   5.513   0.096  13.503 -0.5067 -0.1823 -0.1415
 5760TIP3    H138771   5.601   0.101  13.541 -0.7608 -1.6754  0.7340
 5760TIP3    H238772   5.456   0.134  13.569 -0.4673  1.5228 -1.0438
 5761TIP3   OH238773   1.301   4.476   3.909  0.0618 -0.6051 -0.3595
 5761TIP3    H138774   1.343   4.469   3.995  1.1139 -0.3522 -0.8362
 5761TIP3    H238775   1.282   4.386   3.884  1.6063 -0.8588 -0.7288
 5762TIP3   OH238776   7.188   3.876  13.566 -0.3264  0.4573  0.1640
 5762TIP3    H138777   7.097   3.858  13.590 -0.3407 -0.5864 -0.6215
 5762TIP3    H238778   7.217   3.942  13.629 -1.1584 -0.3195  1.3918
 5763TIP3   OH238779   2.504   2.772  10.660 -0.2953 -0.2589  0.5172
 5763TIP3    H138780   2.502   2.778  10.565 -0.1188  0.3338  0.5431
 5763TIP3    H238781   2.477   2.683  10.680  2.0176 -1.1772 -0.1809
 5764TIP3   OH238782   0.048   7.220  11.562 -0.1091  0.4710  0.3144
 5764TIP3    H138783   0.024   7.165  11.488  0.1060  1.3644 -0.4434
 5764TIP3    H238784   0.132   7.186  11.591  0.5105  1.0115 -0.7903
 5765TIP3   OH238785   4.900   4.755   1.029  0.5373 -0.5497  0.3832
 5765TIP3    H138786   4.854   4.819   0.974 -0.0193 -0.8024  0.5421
 5765TIP3    H238787   4.909   4.677   0.973  0.5471 -0.5859  0.4349
 5766TIP3   OH238788   6.608   1.428  11.028  0.8131 -0.0265 -1.1080
 5766TIP3    H138789   6.578   1.339  11.008  2.2371 -0.6925 -0.4032
 5766TIP3    H238790   6.702   1.426  11.013  0.8399  1.4371 -1.2746
 5767TIP3   OH238791   0.786   6.757  13.720  0.1550 -0.4398  0.3387
 5767TIP3    H138792   0.771   6.704  13.798 -0.2471  1.6192  1.7426
 5767TIP3    H238793   0.869   6.726  13.685  0.2725 -1.4949  1.5021
 5768TIP3   OH238794   4.680   3.540  12.926 -0.0178  0.6143 -0.5116
 5768TIP3    H138795   4.727   3.614  12.966  0.7035  0.4832 -1.0930
 5768TIP3    H238796   4.713   3.537  12.836 -1.5074  0.8262 -1.1047
 5769TIP3   OH238797   4.826   2.842  12.585  0.3646 -0.7461 -0.7336
 5769TIP3    H138798   4.892   2.798  12.639  1.8585  2.1012 -0.0541
 5769TIP3    H238799   4.781   2.901  12.645 -1.7724 -1.4558 -1.5528
 5770TIP3   OH238800   0.812   5.840  10.857 -0.1342  0.0005  0.2139
 5770TIP3    H138801   0.811   5.803  10.769 -0.5025  1.1272 -0.2863
 5770TIP3    H238802   0.890   5.803  10.899 -0.4853 -1.2978 -0.2425
 5771TIP3   OH238803   2.146   5.472  10.947  0.0086  0.1386 -0.1490
 5771TIP3    H138804   2.127   5.419  10.870 -2.5491 -0.3675  0.7351
 5771TIP3    H238805   2.118   5.560  10.923  0.5662  0.2885 -0.2666
 5772TIP3   OH238806   3.187   6.092   1.276  0.2372  0.4199  0.1335
 5772TIP3    H138807   3.158   6.176   1.239  1.1207  1.6692  2.1069
 5772TIP3    H238808   3.177   6.030   1.204 -1.7447  1.9271 -1.0105
 5773TIP3   OH238809   3.910   2.167  12.279  0.3654  0.3000 -0.0706
 5773TIP3    H138810   3.828   2.211  12.258  0.3269  0.7321  0.9200
 5773TIP3    H238811   3.917   2.174  12.375  0.4572 -1.6804  0.1081
 5774TIP3   OH238812   4.899   0.405  10.769  0.7054  0.4735  0.8072
 5774TIP3    H138813   4.967   0.339  10.752  0.0152  0.2731 -1.4571
 5774TIP3    H238814   4.938   0.487  10.738  1.2044  1.0579  2.7760
 5775TIP3   OH238815   0.608   3.208  11.175 -0.1254  0.3159  0.4947
 5775TIP3    H138816   0.563   3.147  11.117  1.8802 -0.7028 -0.0995
 5775TIP3    H238817   0.578   3.186  11.263 -0.5907 -0.5039  0.1374
 5776TIP3   OH238818   0.895   3.911  10.418  0.4087  0.2309 -0.0916
 5776TIP3    H138819   0.981   3.953  10.422  0.8479 -0.1402 -3.0129
 5776TIP3    H238820   0.836   3.980  10.384  0.4276 -0.4979 -1.7158
 5777TIP3   OH238821   1.664   6.978   9.318 -0.3640 -0.3179  0.4924
 5777TIP3    H138822   1.657   6.883   9.306  0.5982 -0.4548  0.9121
 5777TIP3    H238823   1.616   6.996   9.398  0.6927 -0.6719  1.2218
 5778TIP3   OH238824   0.840   4.892   3.827  0.2328  0.2739 -0.3701
 5778TIP3    H138825   0.913   4.830   3.826 -0.3431 -0.4355  0.1062
 5778TIP3    H238826   0.763   4.839   3.804 -0.7173  0.1892  2.5675
 5779TIP3   OH238827   2.103   1.720  10.054  0.1988  0.0411 -0.7060
 5779TIP3    H138828   2.159   1.781  10.103  0.1215 -1.8003  1.8874
 5779TIP3    H238829   2.162   1.650  10.027 -0.7609 -2.3967  2.8592
 5780TIP3   OH238830   5.062   6.929  10.853 -0.1070 -0.5244 -0.0667
 5780TIP3    H138831   5.014   6.868  10.796  1.4422 -0.7212 -1.2421
 5780TIP3    H238832   4.994   6.978  10.899 -1.4299 -0.6904 -1.7558
 5781TIP3   OH238833   3.034   0.721  14.129 -0.2511 -0.3359  0.3593
 5781TIP3    H138834   3.006   0.793  14.186 -1.1351 -0.5129  0.1699
 5781TIP3    H238835   3.120   0.697  14.161  0.3639  1.2615 -0.0020
 5782TIP3   OH238836   6.000   6.268  14.556 -0.0885  0.4793  0.3308
 5782TIP3    H138837   5.915   6.249  14.596  0.0750  0.4374  0.6645
 5782TIP3    H238838   6.016   6.360  14.577  0.2618  0.3049  0.8703
 5783TIP3   OH238839   3.144   2.784  10.067 -0.3575  0.7529 -0.1554
 5783TIP3    H138840   3.133   2.822  10.154  1.1065  0.6451  0.1013
 5783TIP3    H238841   3.068   2.815  10.018 -2.0092 -0.3910  1.5415
 5784TIP3   OH238842   3.887   5.315  15.172  0.4625 -0.8803 -0.1223
 5784TIP3    H138843   3.903   5.347  15.083  0.1593 -2.1742 -0.6687
 5784TIP3    H238844   3.975   5.295  15.206  0.7683  1.4422  0.6380
 5785TIP3   OH238845   4.918   2.482  14.712  0.6207 -0.1687  0.1168
 5785TIP3    H138846   4.956   2.396  14.733 -1.0897 -1.3255 -1.1667
 5785TIP3    H238847   4.835   2.483  14.759 -1.0295 -0.7970 -2.5593
 5786TIP3   OH238848   7.097   1.300   0.508 -0.4048 -0.1927 -0.1349
 5786TIP3    H138849   7.154   1.324   0.581  0.0401 -0.7053 -0.3052
 5786TIP3    H238850   7.008   1.308   0.542 -0.2348  0.5395  0.1590
 5787TIP3   OH238851   2.930   1.285   2.836 -0.1219  0.6779  0.1831
 5787TIP3    H138852   3.004   1.321   2.787  0.9961 -0.2515  1.1280
 5787TIP3    H238853   2.900   1.211   2.784  0.3654  0.3491  0.3708
 5788TIP3   OH238854   2.340   2.493   2.524 -0.5168  0.1083 -0.0226
 5788TIP3    H138855   2.285   2.500   2.446  0.7515  0.3274 -0.9209
 5788TIP3    H238856   2.342   2.581   2.560 -2.0064 -0.2090  0.9271
 5789TIP3   OH238857   5.078   3.455  10.234  0.2396 -0.1479 -0.2710
 5789TIP3    H138858   5.171   3.475  10.247  0.0750  0.7458 -0.4264
 5789TIP3    H238859   5.069   3.448  10.139 -0.3612  2.4801 -0.4840
 5790TIP3   OH238860   0.834   4.493  11.542  0.4047  0.1981 -0.1375
 5790TIP3    H138861   0.903   4.430  11.565 -0.9678 -1.7877 -1.0930
 5790TIP3    H238862   0.770   4.441  11.493 -1.1997  2.2197 -0.3272
 5791TIP3   OH238863   6.584   3.820  11.882 -0.5018  0.0630 -0.1724
 5791TIP3    H138864   6.522   3.893  11.887 -0.4434  0.3538 -2.4479
 5791TIP3    H238865   6.666   3.862  11.855  0.2370 -0.5544  1.0302
 5792TIP3   OH238866   2.212   5.256  10.380  0.7602  0.9200  0.1651
 5792TIP3    H138867   2.240   5.172  10.343  0.6775  1.4511 -1.1516
 5792TIP3    H238868   2.140   5.284  10.324 -0.9040  0.6967  2.0949
 5793TIP3   OH238869   4.061   5.391  13.240  0.4289  0.1096  0.6078
 5793TIP3    H138870   4.005   5.453  13.287  0.3628  0.4100  0.1392
 5793TIP3    H238871   4.100   5.443  13.169 -0.0687 -0.5150 -0.1407
 5794TIP3   OH238872   5.298   2.138  14.136  0.2935 -0.0420  0.1664
 5794TIP3    H138873   5.359   2.074  14.100  2.4418  1.2826  1.2846
 5794TIP3    H238874   5.279   2.106  14.224 -1.0925 -0.7008 -0.3337
 5795TIP3   OH238875   3.908   4.497  10.569  0.4234  1.0794 -0.9690
 5795TIP3    H138876   3.864   4.563  10.623  2.3843 -0.3818  2.7785
 5795TIP3    H238877   3.999   4.528  10.564  1.5091 -1.3938  1.2963
 5796TIP3   OH238878   2.584   3.026  12.214 -0.1701 -0.3486 -0.4982
 5796TIP3    H138879   2.570   2.938  12.251 -0.5047 -1.0107 -2.1040
 5796TIP3    H238880   2.660   3.059  12.261 -1.0631 -0.7730  1.3529
 5797TIP3   OH238881   2.615   0.477  15.402  0.3768 -0.9666  0.4421
 5797TIP3    H138882   2.647   0.486  15.313 -2.0186 -1.2836 -0.5449
 5797TIP3    H238883   2.530   0.433  15.392 -0.3302 -0.2797  2.8008
 5798TIP3   OH238884   0.466   5.613  11.065  0.3003  0.3885  0.1053
 5798TIP3    H138885   0.371   5.625  11.065  0.3401  0.7578 -0.6502
 5798TIP3    H238886   0.498   5.681  11.006  0.8776 -0.9249 -1.1369
 5799TIP3   OH238887   1.586   0.747  12.217  0.1032 -0.0208  0.6684
 5799TIP3    H138888   1.532   0.825  12.224  0.3847  0.1738  0.6911
 5799TIP3    H238889   1.675   0.777  12.238  0.7710  0.2872 -2.2323
 5800TIP3   OH238890   6.456   6.914   9.789  0.1477  0.0589 -0.1186
 5800TIP3    H138891   6.410   6.895   9.870  0.0729  2.5168  0.5051
 5800TIP3    H238892   6.469   6.829   9.747 -0.5011 -1.1855  2.0800
 5801TIP3   OH238893   4.123   7.140  10.371 -0.4571  0.1312  0.0140
 5801TIP3    H138894   4.083   7.192  10.301  0.2815  0.2194 -0.3496
 5801TIP3    H238895   4.216   7.140  10.351 -0.4962 -1.8373 -0.3248
 5802TIP3   OH238896   2.363   6.137  14.487 -0.0349  0.0581 -0.2490
 5802TIP3    H138897   2.408   6.065  14.531 -0.3060 -0.1764 -0.3539
 5802TIP3    H238898   2.271   6.114  14.490 -0.2063  0.7934  0.4247
 5803TIP3   OH238899   2.627   0.407  10.416 -0.5637 -0.0301 -0.2382
 5803TIP3    H138900   2.675   0.327  10.436 -0.9109 -0.5889 -1.5626
 5803TIP3    H238901   2.598   0.440  10.501 -0.3312 -1.2567  0.3282
 5804TIP3   OH238902   6.082   3.945  12.616  0.2084 -0.0388 -0.0786
 5804TIP3    H138903   6.114   3.922  12.703 -1.2843 -0.7164  0.3366
 5804TIP3    H238904   5.994   3.980  12.632  0.1273  0.3281 -1.2693
 5805TIP3   OH238905   6.262   0.653  13.838  0.5485 -0.4218  0.3829
 5805TIP3    H138906   6.193   0.617  13.893  0.8056 -2.1279 -0.3735
 5805TIP3    H238907   6.341   0.649  13.892  0.3046  0.5026  0.8449
 5806TIP3   OH238908   4.139   7.215  15.053  0.1693 -0.0383  0.2035
 5806TIP3    H138909   4.234   7.227  15.059  0.0055  0.8113  1.5958
 5806TIP3    H238910   4.103   7.273  15.120 -1.3995  0.2490 -0.8419
 5807TIP3   OH238911   6.480   6.940   2.943 -0.1194 -0.3455  0.2685
 5807TIP3    H138912   6.490   6.936   3.038  1.6854 -0.4952  0.1055
 5807TIP3    H238913   6.560   6.982   2.912 -0.4226 -0.8048 -1.2325
 5808TIP3   OH238914   5.459   1.084   1.137  0.1173 -0.6703  0.4524
 5808TIP3    H138915   5.433   1.060   1.049  0.6636 -0.7445  0.3050
 5808TIP3    H238916   5.515   1.012   1.166  0.4206 -0.3684  0.6312
 5809TIP3   OH238917   1.921   0.483   9.763 -0.2238  0.2117 -0.4836
 5809TIP3    H138918   1.839   0.532   9.757 -0.1756  0.2302 -1.0527
 5809TIP3    H238919   1.972   0.511   9.686 -0.4219 -1.1432 -1.1358
 5810TIP3   OH238920   4.014   1.188   3.210 -0.0124 -0.0953 -0.3148
 5810TIP3    H138921   3.973   1.258   3.159 -0.3241  0.6671  0.9459
 5810TIP3    H238922   4.060   1.135   3.145  1.4119  2.0518 -1.2022
 5811TIP3   OH238923   3.044   0.518   1.992 -0.1586 -0.0680  0.0343
 5811TIP3    H138924   3.125   0.467   2.003 -0.2708 -0.1676  0.3998
 5811TIP3    H238925   3.072   0.610   1.999 -0.3839 -0.1221  2.4256
 5812TIP3   OH238926   1.074   3.955   1.547  0.1781 -0.0283  0.3150
 5812TIP3    H138927   1.023   3.985   1.472  0.2615  1.0149  0.6626
 5812TIP3    H238928   1.054   4.018   1.616  1.6142  0.1532  0.5847
 5813TIP3   OH238929   2.290   6.613  12.317 -0.6217  0.2103  0.0009
 5813TIP3    H138930   2.352   6.604  12.245 -1.0294 -0.3699 -0.2815
 5813TIP3    H238931   2.258   6.703  12.310 -0.5301  0.2119 -0.4311
 5814TIP3   OH238932   0.057   5.053   9.771  0.7166  0.0089 -0.2366
 5814TIP3    H138933   0.068   5.146   9.792  2.6064  0.2354 -1.9213
 5814TIP3    H238934  -0.014   5.052   9.707  0.2389  0.1988  0.2824
 5815TIP3   OH238935   7.145   0.827  12.357  0.1460  0.2974  0.5924
 5815TIP3    H138936   7.140   0.747  12.410 -1.3508 -0.8405 -1.1428
 5815TIP3    H238937   7.222   0.873  12.390  0.9848 -1.8026  1.7281
 5816TIP3   OH238938   3.108   1.790  11.377  0.0185  0.4649 -0.3259
 5816TIP3    H138939   3.169   1.728  11.418  0.9485  1.3166 -0.4069
 5816TIP3    H238940   3.163   1.850  11.329 -0.9638  0.6105 -1.3044
 5817TIP3   OH238941   5.699   6.504   2.198 -0.0050 -0.2432 -0.4041
 5817TIP3    H138942   5.676   6.517   2.106  1.1967  0.9414 -0.5558
 5817TIP3    H238943   5.770   6.440   2.197  4.4663  4.2021 -0.9559
 5818TIP3   OH238944   6.417   6.589  10.590 -0.0147  0.2747 -0.0663
 5818TIP3    H138945   6.388   6.499  10.600  0.0659  0.1839 -0.6488
 5818TIP3    H238946   6.367   6.623  10.516 -0.3415  0.8341  0.3973
 5819TIP3   OH238947   6.236   6.581  13.509  0.1803  0.6899  0.1629
 5819TIP3    H138948   6.206   6.642  13.576 -0.4177 -0.8686  1.3865
 5819TIP3    H238949   6.155   6.544  13.473  0.4945  1.4885 -1.4359
 5820TIP3   OH238950   6.916   5.183  14.674  0.3507  0.2299  0.5378
 5820TIP3    H138951   7.004   5.221  14.673  0.6292 -0.4041  0.7997
 5820TIP3    H238952   6.916   5.124  14.750 -1.0286  1.9351  1.9563
 5821TIP3   OH238953   1.027   6.242  15.141 -0.6301 -0.5159  0.2127
 5821TIP3    H138954   1.114   6.232  15.178 -0.2000  0.3247 -0.5344
 5821TIP3    H238955   0.969   6.242  15.218  0.2118  0.8846  0.9036
 5822TIP3   OH238956   5.020   1.865  10.205  0.1088  0.3213 -0.4183
 5822TIP3    H138957   4.978   1.949  10.188 -0.4478  0.1682  0.1533
 5822TIP3    H238958   5.101   1.887  10.251 -0.4864  0.5035  0.5635
 5823TIP3   OH238959   1.336   6.706  10.393 -0.5724  0.4927 -0.2320
 5823TIP3    H138960   1.423   6.665  10.397  0.3126  2.3222  0.4132
 5823TIP3    H238961   1.301   6.678  10.308  0.1845 -1.1278 -0.0509
 5824TIP3   OH238962   4.922   7.039  12.898  0.0369  0.1022 -0.5612
 5824TIP3    H138963   5.017   7.035  12.908 -0.0825 -0.1316  0.6408
 5824TIP3    H238964   4.889   6.980  12.965 -0.9885  0.9050 -0.3468
 5825TIP3   OH238965   0.353   4.168  14.799  0.4591 -0.5006 -0.0914
 5825TIP3    H138966   0.374   4.087  14.846  2.6233 -1.3408 -2.2786
 5825TIP3    H238967   0.292   4.141  14.731 -0.5966  0.1951  0.5517
 5826TIP3   OH238968   2.147   7.166   0.968  0.0841 -0.7832  0.2293
 5826TIP3    H138969   2.143   7.229   0.896  0.2274 -1.9822 -0.8799
 5826TIP3    H238970   2.200   7.209   1.035 -0.6465  0.6533 -0.0701
 5827TIP3   OH238971   4.310   1.568  10.091 -0.0524  0.2175 -0.3607
 5827TIP3    H138972   4.280   1.542  10.004  0.3157 -0.6978 -0.2240
 5827TIP3    H238973   4.405   1.578  10.081  0.1216 -0.8190  0.1496
 5828TIP3   OH238974   3.890   7.005  11.670  0.5701 -0.0916 -0.7208
 5828TIP3    H138975   3.891   6.924  11.619  0.8106  0.0098 -0.8755
 5828TIP3    H238976   3.817   6.993  11.732 -0.8683  0.5126 -2.2360
 5829TIP3   OH238977   0.374   6.863  11.819  0.1661 -0.3980  0.1603
 5829TIP3    H138978   0.432   6.794  11.787  2.4461  1.0193  0.9853
 5829TIP3    H238979   0.360   6.840  11.911  0.0624 -0.3196  0.1632
 5830TIP3   OH238980   4.185   1.654   1.087 -0.0965  0.0809 -0.4172
 5830TIP3    H138981   4.143   1.710   1.022 -0.3187 -0.7441 -0.9945
 5830TIP3    H238982   4.126   1.656   1.163 -0.3017  0.3090 -0.5829
 5831TIP3   OH238983   2.636   4.174  10.079 -0.4719 -0.2978  0.1876
 5831TIP3    H138984   2.659   4.083  10.061  0.8188 -0.1781  1.1454
 5831TIP3    H238985   2.606   4.208   9.994  2.2297 -0.6799 -1.0214
 5832TIP3   OH238986   0.243   3.904   2.835  0.5500 -0.2567  0.2574
 5832TIP3    H138987   0.160   3.859   2.822  0.5188  0.0637 -0.7676
 5832TIP3    H238988   0.222   3.997   2.825  0.6605 -0.0003  2.0846
 5833TIP3   OH238989   1.325   0.030   0.647  0.0124  0.0617  0.1071
 5833TIP3    H138990   1.251   0.080   0.681  0.6105  0.3356  1.0483
 5833TIP3    H238991   1.291  -0.015   0.570 -1.7250 -1.5671  1.7513
 5834TIP3   OH238992   4.092   4.182   9.653 -0.3783  0.1084  0.1682
 5834TIP3    H138993   4.137   4.099   9.667 -0.0953 -0.1068 -1.7209
 5834TIP3    H238994   4.014   4.177   9.708 -0.5345 -1.5409 -0.1518
 5835TIP3   OH238995   6.760   1.179  11.718 -0.3244 -0.5540  0.0670
 5835TIP3    H138996   6.733   1.247  11.780  2.5990 -1.2584  2.3604
 5835TIP3    H238997   6.679   1.133  11.696 -1.7550  0.8940  1.9451
 5836TIP3   OH238998   1.083   6.748   1.023 -0.0885  0.5840  0.0816
 5836TIP3    H138999   0.988   6.759   1.028 -0.2557  0.3260 -1.9302
 5836TIP3    H239000   1.118   6.832   1.052 -0.9458  0.9230  0.1749
 5837TIP3   OH239001   6.703   1.237  12.573  0.5227  0.1954 -0.1849
 5837TIP3    H139002   6.696   1.327  12.541  0.4968  0.1762 -0.2342
 5837TIP3    H239003   6.667   1.240  12.661 -2.4219 -0.3422 -1.2253
 5838TIP3   OH239004   6.824   0.998  13.475 -0.1731 -0.1667 -0.0488
 5838TIP3    H139005   6.828   1.071  13.537  2.2516 -1.0306  0.9540
 5838TIP3    H239006   6.750   0.945  13.504 -1.9002  1.7510 -0.7173
 5839TIP3   OH239007   5.630   0.046  13.997  0.3557  0.0576  0.3633
 5839TIP3    H139008   5.677   0.085  14.071 -0.0106  1.8177 -0.2852
 5839TIP3    H239009   5.543   0.025  14.032 -0.0803  1.5919  0.2823
 5840TIP3   OH239010   7.073   6.378  13.359  0.1491 -0.1873 -0.3004
 5840TIP3    H139011   7.055   6.307  13.421  1.2254 -0.3443 -0.1536
 5840TIP3    H239012   7.024   6.354  13.281 -1.9152  0.4340  0.7339
 5841TIP3   OH239013   6.661   5.787  14.638  0.8106  0.1990  0.1939
 5841TIP3    H139014   6.643   5.809  14.547  1.1720 -0.2235  0.0146
 5841TIP3    H239015   6.577   5.798  14.683  0.4300 -0.4145 -0.3565
 5842TIP3   OH239016   2.625   0.629  10.260 -0.5218 -0.4003  0.1358
 5842TIP3    H139017   2.541   0.673  10.249 -0.2414  0.3021  0.8077
 5842TIP3    H239018   2.603   0.544  10.298 -1.1430 -1.2549 -1.9477
 5843TIP3   OH239019   1.907   0.518   1.314 -0.2345  0.2154  0.1385
 5843TIP3    H139020   1.943   0.602   1.338 -1.0000  0.8585 -0.8557
 5843TIP3    H239021   1.837   0.502   1.378  1.2762 -0.7191  1.6489
 5844TIP3   OH239022   0.834   4.093  13.655 -0.2263 -0.4636 -0.1693
 5844TIP3    H139023   0.772   4.042  13.603 -0.9370  0.3148 -0.1062
 5844TIP3    H239024   0.898   4.126  13.591 -0.4364 -0.4640 -0.3805
 5845TIP3   OH239025   1.382   4.332   0.702 -0.7487  0.7598  0.0231
 5845TIP3    H139026   1.364   4.352   0.794 -0.0223  1.5964 -0.0059
 5845TIP3    H239027   1.405   4.239   0.702  0.4308  1.0210  0.8841
 5846TIP3   OH239028   3.901   5.705  13.591  0.2189 -0.5705 -0.2238
 5846TIP3    H139029   3.834   5.646  13.626  1.2202 -1.3280  0.4504
 5846TIP3    H239030   3.862   5.792  13.599 -0.9221 -1.0475 -0.3994
 5847TIP3   OH239031   1.960   1.002  12.741 -0.3615 -0.3020  0.5044
 5847TIP3    H139032   2.031   1.021  12.801 -0.6054 -0.0515  0.7171
 5847TIP3    H239033   1.902   0.943  12.790  0.4263 -1.6932 -0.1761
 5848TIP3   OH239034   2.409   2.347  11.488 -0.2424  0.1536  0.2669
 5848TIP3    H139035   2.370   2.261  11.478 -1.6958  0.9077 -0.8526
 5848TIP3    H239036   2.461   2.360  11.409 -0.6273  0.5893  0.0783
 5849TIP3   OH239037   1.685   4.757  10.932  0.4812  0.0042  0.0298
 5849TIP3    H139038   1.769   4.759  10.978  0.0851 -0.7689  0.8276
 5849TIP3    H239039   1.708   4.734  10.842  1.3583  2.4078 -0.4176
 5850TIP3   OH239040   4.967   6.496  13.222 -0.2879  0.1504 -0.2626
 5850TIP3    H139041   5.055   6.459  13.232  0.5464  2.2055  0.5980
 5850TIP3    H239042   4.908   6.421  13.228  1.4522 -1.5791 -2.7394
 5851TIP3   OH239043   0.987   6.608  14.522 -0.2265  0.1894 -0.7521
 5851TIP3    H139044   1.050   6.634  14.455  0.1522  2.5311  0.4065
 5851TIP3    H239045   0.902   6.630  14.484 -0.0098  1.5525 -0.5165
 5852TIP3   OH239046   3.058   4.999   1.554  0.0015 -0.0211  0.2714
 5852TIP3    H139047   2.966   5.017   1.537 -0.0382 -0.4125  0.0459
 5852TIP3    H239048   3.096   5.084   1.577  0.3011  0.8440 -2.8446
 5853TIP3   OH239049   3.034   5.271  13.739 -0.4810  0.2131 -0.8150
 5853TIP3    H139050   2.956   5.259  13.793 -0.2434  0.4976 -0.4074
 5853TIP3    H239051   3.042   5.188  13.691 -1.0153  0.1715 -0.8404
 5854TIP3   OH239052   2.419   5.088  12.432  0.3740  0.1749  0.5812
 5854TIP3    H139053   2.453   5.000  12.444 -0.5654 -0.0307  2.0795
 5854TIP3    H239054   2.370   5.106  12.513 -3.0450  0.4126 -1.3369
 5855TIP3   OH239055   6.955   1.204  12.417 -0.4708  0.3291  0.6676
 5855TIP3    H139056   6.887   1.193  12.484 -3.5491 -0.8898 -2.3316
 5855TIP3    H239057   6.976   1.297  12.420 -0.2447  0.2690  3.4358
 5856TIP3   OH239058   3.845   6.775  11.432  0.1896  0.1686  0.5171
 5856TIP3    H139059   3.910   6.812  11.373 -0.9906  0.1784 -0.8593
 5856TIP3    H239060   3.895   6.731  11.500  1.6135  0.5070 -0.2842
 5857TIP3   OH239061   1.685   4.620   1.436  0.3032 -0.2180  0.3147
 5857TIP3    H139062   1.637   4.573   1.504 -1.4436  1.2744  0.1950
 5857TIP3    H239063   1.634   4.606   1.356  0.3405  0.9237  0.0634
 5858TIP3   OH239064   1.324   0.936  15.097  0.5424 -0.2516  0.4482
 5858TIP3    H139065   1.401   0.886  15.069  1.1989 -0.0621  1.8442
 5858TIP3    H239066   1.359   1.006  15.151 -0.4673  1.0642 -0.5388
 5859TIP3   OH239067   3.865   6.027  11.188  0.6455  0.3200 -0.7210
 5859TIP3    H139068   3.910   6.016  11.104 -0.1466 -3.7308 -0.8103
 5859TIP3    H239069   3.932   6.009  11.254  1.0182  2.5051 -0.4323
 5860TIP3   OH239070   4.321   4.927  10.472  0.7776 -0.4687 -0.5018
 5860TIP3    H139071   4.401   4.956  10.427  0.4106  0.5732 -0.5050
 5860TIP3    H239072   4.262   5.001  10.466 -0.8106 -1.7511 -1.9097
 5861TIP3   OH239073   1.131   0.040   9.771  0.2974 -0.7686  0.4526
 5861TIP3    H139074   1.138  -0.038   9.716  0.8080 -0.8315  0.6006
 5861TIP3    H239075   1.220   0.055   9.803  0.3515  0.2976 -0.1428
 5862TIP3   OH239076   5.282   7.107   0.050  0.1213  0.1899 -0.2204
 5862TIP3    H139077   5.363   7.062   0.074 -0.4995  0.7128  3.3556
 5862TIP3    H239078   5.296   7.198   0.077 -0.6813  0.9790 -2.2349
 5863TIP3   OH239079   1.287   5.630   0.768 -0.2621  0.2536 -0.1801
 5863TIP3    H139080   1.224   5.684   0.721  0.9476  2.1588  0.2887
 5863TIP3    H239081   1.240   5.602   0.847 -1.8049 -1.7544 -1.7103
 5864TIP3   OH239082   4.570   2.825  13.524 -0.2215  0.1067 -0.0079
 5864TIP3    H139083   4.612   2.844  13.608  0.7410 -1.4183 -0.1166
 5864TIP3    H239084   4.481   2.858  13.534 -0.0970  0.0189  1.5767
 5865TIP3   OH239085   5.721   2.361  13.994  0.5344  0.6233 -0.2274
 5865TIP3    H139086   5.695   2.303  13.923  2.0701 -0.2521 -0.1334
 5865TIP3    H239087   5.675   2.443  13.977 -1.9410 -0.6801 -0.2038
 5866TIP3   OH239088   4.439   6.552   1.139 -0.2541 -0.7317  0.1094
 5866TIP3    H139089   4.528   6.537   1.108 -0.5846 -0.3687 -1.0526
 5866TIP3    H239090   4.404   6.464   1.153  0.4451 -0.8725  1.1000
 5867TIP3   OH239091   2.261   0.254   5.375  0.1630 -0.0291  0.0449
 5867TIP3    H139092   2.268   0.211   5.290 -0.6566  0.6478 -0.3855
 5867TIP3    H239093   2.167   0.257   5.393  0.3744 -1.1642  1.5118
 5868TIP3   OH239094   1.197   5.166  11.740 -0.3935  0.4098  0.0964
 5868TIP3    H139095   1.124   5.104  11.734  1.1475 -1.6782  1.6218
 5868TIP3    H239096   1.167   5.233  11.801 -0.5942 -1.1946  1.8405
 5869TIP3   OH239097   3.182   2.942  10.808  0.1288 -0.6620 -0.0733
 5869TIP3    H139098   3.139   2.867  10.768  3.6605 -1.7971 -2.2052
 5869TIP3    H239099   3.249   2.905  10.864  1.6331  0.8414 -0.7749
 5870TIP3   OH239100   3.017   6.818  11.251 -0.7645 -0.3538 -0.3643
 5870TIP3    H139101   2.929   6.781  11.247  0.0757 -2.7498  0.9659
 5870TIP3    H239102   3.052   6.807  11.163 -1.6671  0.3934 -0.8406
 5871TIP3   OH239103   0.298   3.741  10.629 -0.0094 -0.1460  0.0603
 5871TIP3    H139104   0.235   3.801  10.589 -1.0890 -2.2442 -1.6135
 5871TIP3    H239105   0.380   3.758  10.583 -0.5194 -0.5181 -1.0187
 5872TIP3   OH239106   5.900   5.177  12.501  0.1877 -0.0108 -0.1499
 5872TIP3    H139107   5.993   5.160  12.486 -0.0924 -0.8578 -1.0604
 5872TIP3    H239108   5.864   5.192  12.413 -1.0866 -2.7706 -0.2290
 5873TIP3   OH239109   3.469   0.090  10.468  0.2689  0.0663  0.3639
 5873TIP3    H139110   3.491   0.015  10.413 -2.4269  0.7914 -1.9304
 5873TIP3    H239111   3.477   0.166  10.411  0.6940  1.3061  1.9800
 5874TIP3   OH239112   4.360   1.879  12.230  0.0763  0.4601 -0.0321
 5874TIP3    H139113   4.421   1.947  12.202 -0.1735  1.0243  0.7485
 5874TIP3    H239114   4.311   1.919  12.302  0.1223 -0.6388  0.6407
 5875TIP3   OH239115   1.298   0.380  14.535  0.2589  0.2417  0.3781
 5875TIP3    H139116   1.362   0.317  14.502  0.4959  0.0906  1.1094
 5875TIP3    H239117   1.320   0.462  14.491  0.2330 -0.0751 -0.2377
 5876TIP3   OH239118   2.858   6.066  10.051 -0.4872  0.0569 -0.4579
 5876TIP3    H139119   2.931   6.112  10.008  0.2899 -2.3675 -1.9589
 5876TIP3    H239120   2.896   6.033  10.133 -0.6678  0.9129 -0.0158
 5877TIP3   OH239121   0.212   6.820  10.428  0.2337  0.3943  0.0881
 5877TIP3    H139122   0.170   6.812  10.514 -0.8142  0.4021 -0.4004
 5877TIP3    H239123   0.213   6.731  10.394 -2.5722  0.7646 -1.3125
 5878TIP3   OH239124   3.959   1.701  13.076  0.7285 -0.5756  0.2557
 5878TIP3    H139125   3.905   1.703  12.997  1.4325  1.7626 -0.2583
 5878TIP3    H239126   4.041   1.744  13.050  1.4989 -0.9575  1.9112
 5879TIP3   OH239127   1.761   6.462   0.412  0.3423  0.1339  0.0142
 5879TIP3    H139128   1.742   6.398   0.481 -1.8332  2.1328  1.4134
 5879TIP3    H239129   1.688   6.452   0.350  2.2538 -1.6224 -2.1358
 5880TIP3   OH239130   7.046   5.392  10.811  0.4848  0.0958 -0.3851
 5880TIP3    H139131   7.022   5.351  10.894  2.8495  1.8672  1.3280
 5880TIP3    H239132   7.117   5.338  10.776  1.6132  0.9944  0.4071
 5881TIP3   OH239133   2.382   4.170  11.903  0.4261  0.3574 -0.2313
 5881TIP3    H139134   2.320   4.108  11.866  0.4378  0.5050 -0.4968
 5881TIP3    H239135   2.330   4.248  11.921 -0.2766 -0.6636  2.8452
 5882TIP3   OH239136   5.084   2.369  11.218  0.2909 -0.4434 -0.1536
 5882TIP3    H139137   5.104   2.433  11.150  0.9813  0.7334  1.1005
 5882TIP3    H239138   5.018   2.413  11.273 -0.3022 -1.3911 -0.0918
 5883TIP3   OH239139   5.791   3.132   0.576  0.6660  0.1044 -0.1247
 5883TIP3    H139140   5.872   3.183   0.567  0.4129  0.9037  1.6313
 5883TIP3    H239141   5.726   3.196   0.606 -0.6593 -0.5114 -1.5562
 5884TIP3   OH239142   5.934   4.238   9.810 -0.0149  0.2139  0.2541
 5884TIP3    H139143   5.928   4.191   9.893 -0.1017  0.9587  0.6770
 5884TIP3    H239144   5.897   4.177   9.746  1.7947 -1.1266  0.4286
 5885TIP3   OH239145   2.156   0.399  13.091 -0.3234  0.6533 -0.0081
 5885TIP3    H139146   2.184   0.396  13.183  0.5567  1.0665 -0.2527
 5885TIP3    H239147   2.205   0.328  13.049 -0.9731  0.2516 -0.1030
 5886TIP3   OH239148   0.380   2.733  13.649  0.4135 -0.6669 -0.2453
 5886TIP3    H139149   0.310   2.765  13.706  0.0638 -2.8796  0.6478
 5886TIP3    H239150   0.341   2.657  13.604  1.5990 -0.6787 -1.2988
 5887TIP3   OH239151   5.682   5.598  14.924  0.0365 -0.0364  0.1597
 5887TIP3    H139152   5.599   5.643  14.941 -0.2648 -0.3034 -0.5509
 5887TIP3    H239153   5.667   5.508  14.952 -0.0901 -0.2078 -0.4464
 5888TIP3   OH239154   6.578   5.769  12.029  0.3879 -0.2980  0.6317
 5888TIP3    H139155   6.514   5.795  11.963  1.3936 -1.3611 -0.8479
 5888TIP3    H239156   6.569   5.673  12.034 -0.1917 -0.1925  2.6546
 5889TIP3   OH239157   2.238   2.555  10.566  0.0420 -0.1052  0.2238
 5889TIP3    H139158   2.215   2.469  10.602  0.0832 -0.1575  0.1252
 5889TIP3    H239159   2.185   2.617  10.617  0.2028 -0.1666  0.4682
 5890TIP3   OH239160   5.704   6.897  10.906 -0.4187  0.1561 -0.0966
 5890TIP3    H139161   5.634   6.962  10.902 -1.4797 -1.0103 -2.5385
 5890TIP3    H239162   5.671   6.828  10.964 -1.1004 -0.1222 -0.7980
 5891TIP3   OH239163   4.064   0.794  15.358  0.5417 -0.3630  0.2379
 5891TIP3    H139164   4.106   0.840  15.430  2.0843 -2.2720  0.6395
 5891TIP3    H239165   3.977   0.772  15.390  1.3381 -1.5163  1.7097
 5892TIP3   OH239166   2.768   0.684  11.737 -0.3016 -0.4211 -0.7595
 5892TIP3    H139167   2.765   0.770  11.695 -3.1287  0.0498  0.1685
 5892TIP3    H239168   2.733   0.624  11.671 -0.1812 -0.5264 -0.7275
 5893TIP3   OH239169   6.980   0.078  12.512 -0.6366  0.1811  0.3281
 5893TIP3    H139170   7.062   0.030  12.515 -1.3911 -1.1943 -0.2837
 5893TIP3    H239171   7.005   0.167  12.485  0.6254 -0.2197  0.1199
 5894TIP3   OH239172   1.921   5.976  12.507 -0.1396 -0.1406 -0.4785
 5894TIP3    H139173   1.868   6.037  12.456  0.2910  0.7588  0.1273
 5894TIP3    H239174   1.957   5.915  12.442 -1.3512 -0.3626 -0.9778
 5895TIP3   OH239175   1.041   1.511  11.279 -0.1347  0.0456 -0.2993
 5895TIP3    H139176   1.024   1.604  11.292  0.8408  0.1733  0.2228
 5895TIP3    H239177   1.014   1.494  11.189 -2.0567  0.3959  0.1641
 5896TIP3   OH239178   6.358   4.681  13.471  0.0243  0.0495  0.4563
 5896TIP3    H139179   6.413   4.607  13.494 -0.3958  0.1731  1.9701
 5896TIP3    H239180   6.329   4.717  13.555  0.8200  2.3892 -0.1672
 5897TIP3   OH239181   6.555   1.687  13.589 -0.5004 -0.1965  0.1791
 5897TIP3    H139182   6.647   1.687  13.615 -0.7788  3.0558  1.6626
 5897TIP3    H239183   6.519   1.605  13.624  1.4295 -0.6977  1.0744
 5898TIP3   OH239184   1.069   4.472   0.592  0.4052 -0.2110 -0.2717
 5898TIP3    H139185   1.013   4.428   0.528 -0.4744  0.2908  0.1390
 5898TIP3    H239186   1.134   4.405   0.617 -0.6106 -1.1273 -0.0140
 5899TIP3   OH239187   4.983   0.715   0.609  0.0217  0.2521  0.4158
 5899TIP3    H139188   4.964   0.757   0.525 -2.0092 -0.2010  0.5884
 5899TIP3    H239189   4.911   0.653   0.622 -0.2184  0.9208  2.8633
 5900TIP3   OH239190   7.146   0.889  13.516  0.3150 -0.3576  0.1128
 5900TIP3    H139191   7.127   0.981  13.500  2.9808 -0.2002 -3.5599
 5900TIP3    H239192   7.225   0.890  13.570  0.4196 -0.4386 -0.0365
 5901TIP3   OH239193   0.775   0.504   9.787  0.1258  0.3638 -0.1432
 5901TIP3    H139194   0.851   0.466   9.831 -0.4390 -0.1690  0.3786
 5901TIP3    H239195   0.796   0.597   9.779  2.0644 -0.1546 -2.4952
 5902TIP3   OH239196   6.568   6.195  14.231 -0.2431  0.2764 -0.2935
 5902TIP3    H139197   6.651   6.208  14.278  0.1080  0.4145 -0.9313
 5902TIP3    H239198   6.507   6.165  14.298  0.4870 -0.4235  0.0805
 5903TIP3   OH239199   0.373   1.565  13.283 -0.1358  0.4234 -0.7698
 5903TIP3    H139200   0.422   1.531  13.358  0.4824  2.2517 -0.2852
 5903TIP3    H239201   0.398   1.509  13.211  0.7023 -0.2537  0.0205
 5904TIP3   OH239202   0.708   1.576  12.297 -0.0069  0.5215  0.3999
 5904TIP3    H139203   0.726   1.632  12.222 -0.0965 -2.3559 -1.9401
 5904TIP3    H239204   0.787   1.522  12.306 -0.2336  0.4027  2.0629
 5905TIP3   OH239205   2.006   4.265  12.112  0.1358  0.6615  0.0663
 5905TIP3    H139206   1.981   4.220  12.031  0.3265  0.1443  0.2912
 5905TIP3    H239207   1.943   4.233  12.178 -0.5978  1.7742 -0.0714
 5906TIP3   OH239208   1.633   2.349  14.143  0.1044  0.6268 -0.0323
 5906TIP3    H139209   1.664   2.436  14.166 -0.5492  0.9866 -0.5028
 5906TIP3    H239210   1.557   2.364  14.087 -0.8670 -0.2453  1.0164
 5907TIP3   OH239211   0.993   3.888  13.952  0.1226 -0.2829 -0.0903
 5907TIP3    H139212   1.010   3.891  14.046 -0.9197 -1.0845  0.1405
 5907TIP3    H239213   0.899   3.903  13.944  0.3261  0.6068 -1.0786
 5908TIP3   OH239214   6.307   2.691  11.758  0.5805  0.4927  0.2735
 5908TIP3    H139215   6.342   2.709  11.671 -0.9464 -1.5830 -0.8640
 5908TIP3    H239216   6.305   2.595  11.764 -0.4751  0.5799  2.1110
 5909TIP3   OH239217   6.162   1.468  10.945 -0.1367 -0.1102 -0.0368
 5909TIP3    H139218   6.086   1.492  10.891 -0.8965 -0.7517  0.7082
 5909TIP3    H239219   6.155   1.373  10.954  1.6503 -0.4070 -1.2380
 5910TIP3   OH239220   6.532   0.691  13.959  0.2143 -0.4014 -0.4609
 5910TIP3    H139221   6.617   0.666  13.922  1.6762  2.2582  0.7470
 5910TIP3    H239222   6.533   0.654  14.048  0.7920  0.7630  0.0466
 5911TIP3   OH239223   3.080   1.415   1.622  0.7380 -0.4663  0.1592
 5911TIP3    H139224   3.108   1.474   1.691 -0.8077  0.8220 -0.2405
 5911TIP3    H239225   3.030   1.347   1.668  0.1542  0.1002  0.3847
 5912TIP3   OH239226   6.614   3.430  12.486 -0.0412 -0.6891  0.0096
 5912TIP3    H139227   6.565   3.459  12.409  2.7896  1.7702 -1.0746
 5912TIP3    H239228   6.629   3.337  12.472 -2.2443 -0.9750 -0.7894
 5913TIP3   OH239229   2.770   0.466  10.672 -0.1114 -0.4140  0.0885
 5913TIP3    H139230   2.715   0.497  10.744 -0.4925  0.4588 -0.5599
 5913TIP3    H239231   2.845   0.526  10.672  0.3023 -0.9158  0.2577
 5914TIP3   OH239232   1.350   3.739   0.601 -0.8712  0.2758  0.3817
 5914TIP3    H139233   1.367   3.678   0.530  0.1207  0.9786 -0.0004
 5914TIP3    H239234   1.281   3.697   0.652 -0.3483 -1.0733  0.0262
 5915TIP3   OH239235   3.453   4.188  12.715  0.2526  0.7604  0.1084
 5915TIP3    H139236   3.422   4.244  12.787  0.7680 -0.7542  1.5788
 5915TIP3    H239237   3.547   4.183  12.727  0.1020 -1.4189  0.8425
 5916TIP3   OH239238   6.738   2.901  13.537  0.3054  0.0520 -1.0153
 5916TIP3    H139239   6.712   2.988  13.506 -0.3310 -0.3304 -1.5900
 5916TIP3    H239240   6.828   2.890  13.507  1.9526  2.1109  2.4708
 5917TIP3   OH239241   6.148   1.704  11.284  0.2627 -0.5786  0.1197
 5917TIP3    H139242   6.182   1.788  11.316  0.3006  0.1983 -1.7758
 5917TIP3    H239243   6.197   1.688  11.203 -0.2674 -2.0739  0.0632
 5918TIP3   OH239244   6.125   7.101   0.721 -0.2766 -0.5821  0.0398
 5918TIP3    H139245   6.097   7.150   0.644 -1.9558 -3.1642 -1.0805
 5918TIP3    H239246   6.197   7.046   0.690  0.2726 -0.3118  0.7962
 5919TIP3   OH239247   2.997   2.240   3.333 -0.6451 -0.6195  0.0650
 5919TIP3    H139248   3.058   2.248   3.406 -0.7548 -0.9831  0.1970
 5919TIP3    H239249   2.928   2.182   3.365 -0.2997 -1.4130 -0.5771
 5920TIP3   OH239250   2.264   4.106   2.644  0.2872 -0.3425  0.2469
 5920TIP3    H139251   2.349   4.065   2.660  0.5828  0.4902  0.9051
 5920TIP3    H239252   2.204   4.061   2.703  0.7462  0.5739  1.4758
 5921TIP3   OH239253   1.859   3.781  15.070  0.0070 -0.2237  0.1682
 5921TIP3    H139254   1.823   3.764  15.157 -2.5709  2.6891 -0.1617
 5921TIP3    H239255   1.792   3.749  15.010  0.0060  1.1991 -0.6112
 5922TIP3   OH239256   6.679   1.271   0.074  0.4583  0.2621  0.1236
 5922TIP3    H139257   6.619   1.198   0.060 -0.1556  0.9409 -0.8882
 5922TIP3    H239258   6.764   1.230   0.091  0.1089 -0.6835 -0.3648
 5923TIP3   OH239259   0.642   2.205  12.333  0.4284  0.1178  0.6713
 5923TIP3    H139260   0.673   2.223  12.245  2.7941 -0.1990  1.3536
 5923TIP3    H239261   0.677   2.278  12.386 -3.0234  1.7134  1.0686
 5924TIP3   OH239262   0.153   5.875  10.642 -0.2509  0.1223  0.1547
 5924TIP3    H139263   0.119   5.860  10.730  0.0827 -2.1897 -0.0565
 5924TIP3    H239264   0.229   5.818  10.636 -0.5094 -0.0819 -1.7673
 5925TIP3   OH239265   2.579   1.030  12.196  0.3293 -0.8281  0.4753
 5925TIP3    H139266   2.620   1.093  12.255  0.1380 -0.1879 -0.0620
 5925TIP3    H239267   2.501   1.076  12.163  0.2142 -1.3301  0.0432
 5926TIP3   OH239268   5.805   4.906  10.110  0.1438 -0.6668 -0.3383
 5926TIP3    H139269   5.826   4.819  10.075  0.3921 -0.4215 -0.8162
 5926TIP3    H239270   5.880   4.927  10.166  0.9963 -0.0004 -1.6560
 5927TIP3   OH239271   4.249   5.724  11.518  0.1466  0.5221  0.2946
 5927TIP3    H139272   4.173   5.677  11.552  1.5049 -1.5221  0.6986
 5927TIP3    H239273   4.322   5.696  11.574  1.9437 -0.8278 -2.4450
 5928TIP3   OH239274   1.213   3.696   9.733 -0.3688  0.3481 -0.2835
 5928TIP3    H139275   1.214   3.758   9.660 -0.8458  0.3051 -0.3287
 5928TIP3    H239276   1.294   3.646   9.723 -0.9828 -0.4477 -1.4810
 5929TIP3   OH239277   1.360   5.216   9.545 -0.1319  0.0076  0.3139
 5929TIP3    H139278   1.304   5.167   9.606  0.5317 -0.7920  0.3094
 5929TIP3    H239279   1.436   5.159   9.533  2.7012  2.7218  3.4960
 5930TIP3   OH239280   6.749   4.090  14.099 -0.2384  0.3305 -0.2066
 5930TIP3    H139281   6.835   4.117  14.067 -0.3451  0.2440 -0.5628
 5930TIP3    H239282   6.704   4.056  14.022  0.1824 -1.6176  0.3597
 5931TIP3   OH239283   5.092   1.736  11.022 -0.0785 -0.0470  0.4185
 5931TIP3    H139284   5.011   1.717  11.070 -0.8972 -0.5205 -1.1034
 5931TIP3    H239285   5.156   1.676  11.059 -1.1383 -1.6636 -0.2687
 5932TIP3   OH239286   0.827   4.692  11.738 -0.9432 -0.0406  0.3145
 5932TIP3    H139287   0.918   4.713  11.759 -1.3855  0.6412  1.6422
 5932TIP3    H239288   0.833   4.628  11.667  0.5697 -0.1165  0.4810
 5933TIP3   OH239289   5.063   5.773  12.496 -0.0236 -0.0467 -0.0023
 5933TIP3    H139290   5.026   5.713  12.561  0.5146  0.8990  1.2394
 5933TIP3    H239291   5.158   5.764  12.506  0.1077 -0.9924 -1.7507
 5934TIP3   OH239292   6.279   0.891  11.399  0.6552  0.4718  0.4157
 5934TIP3    H139293   6.288   0.799  11.424 -0.3944 -0.6524 -2.7915
 5934TIP3    H239294   6.187   0.912  11.415  0.7401  0.7487  0.5412
 5935TIP3   OH239295   4.769   6.101  11.739 -0.3674  0.2438 -0.2317
 5935TIP3    H139296   4.735   6.114  11.651  0.4675 -2.8066 -1.1057
 5935TIP3    H239297   4.711   6.035  11.778 -0.3591  1.0963  1.3452
 5936TIP3   OH239298   2.643   4.174  11.880 -0.0054  0.7949 -0.8071
 5936TIP3    H139299   2.551   4.152  11.893  0.4024 -1.4614 -1.2999
 5936TIP3    H239300   2.662   4.240  11.947 -1.6713  0.4383  0.0651
 5937TIP3   OH239301   5.028   2.542  13.101  0.1084 -0.5744 -0.1281
 5937TIP3    H139302   5.084   2.603  13.052  0.7287  0.1251  1.3790
 5937TIP3    H239303   5.057   2.551  13.191 -2.6865  0.0632  0.7950
 5938TIP3   OH239304   3.403   2.339  11.601 -0.1384 -0.1414 -0.0553
 5938TIP3    H139305   3.308   2.330  11.609 -0.0059 -0.2266  1.6944
 5938TIP3    H239306   3.437   2.250  11.608  0.1919  0.0890  1.6405
 5939TIP3   OH239307   1.758   2.549  11.408  0.1045  0.0245  0.0439
 5939TIP3    H139308   1.807   2.536  11.489 -0.5565 -1.1987  0.2731
 5939TIP3    H239309   1.729   2.461  11.383  1.2077  0.1936 -2.1175
 5940TIP3   OH239310   2.293   5.521  11.759  0.1341  0.3683 -0.1155
 5940TIP3    H139311   2.277   5.585  11.828 -0.3583  0.3036 -0.1634
 5940TIP3    H239312   2.319   5.441  11.805 -3.0406 -0.6205  0.2732
 5941TIP3   OH239313   2.824   6.652  10.439  0.2816 -0.3751  0.7318
 5941TIP3    H139314   2.784   6.717  10.381 -0.2939 -0.3296  1.1796
 5941TIP3    H239315   2.845   6.579  10.381 -1.5851 -0.9155  0.6805
 5942TIP3   OH239316   0.819   5.166  13.191 -0.3578 -0.2641  0.1677
 5942TIP3    H139317   0.809   5.115  13.111  0.0529 -1.6040  0.9346
 5942TIP3    H239318   0.830   5.257  13.161  0.7599 -0.8613 -1.3259
 5943TIP3   OH239319   2.408   1.264   9.587  0.1172  1.3561  0.5475
 5943TIP3    H139320   2.500   1.290   9.594  0.6996 -0.4800  0.2851
 5943TIP3    H239321   2.405   1.206   9.510 -0.8154 -0.2884  1.7507
 5944TIP3   OH239322   5.284   6.798  10.981 -0.5827  0.1572  0.1704
 5944TIP3    H139323   5.229   6.857  10.930 -0.1688  0.9486  0.6263
 5944TIP3    H239324   5.275   6.827  11.071  0.5346  0.2859  0.2607
 5945TIP3   OH239325   1.035   5.920  14.052 -0.1443  0.0789  0.1780
 5945TIP3    H139326   1.071   5.870  14.125 -2.5351 -2.3882 -0.1768
 5945TIP3    H239327   0.942   5.930  14.072 -0.9923 -1.0662 -2.6115
 5946TIP3   OH239328   0.303   6.855  12.880  0.0297 -0.0210 -0.1442
 5946TIP3    H139329   0.278   6.816  12.796 -1.3581  0.5145  0.0004
 5946TIP3    H239330   0.368   6.921  12.856 -0.6340  0.3961 -0.8547
 5947TIP3   OH239331   2.656   6.028   0.827  0.0250  0.2441  0.9316
 5947TIP3    H139332   2.705   5.954   0.792  0.8986  0.8208  0.9003
 5947TIP3    H239333   2.589   6.045   0.762  0.5358  0.1984  0.3853
 5948TIP3   OH239334   5.462   2.519   1.006  0.7044  0.1134 -0.5331
 5948TIP3    H139335   5.387   2.557   1.052  1.1806  0.6069 -0.1535
 5948TIP3    H239336   5.498   2.591   0.954  2.2238  0.4948  0.9616
 5949TIP3   OH239337   4.702   2.020   0.175  0.0025 -0.1055  0.2462
 5949TIP3    H139338   4.703   1.998   0.268 -0.1609 -2.3693 -0.2402
 5949TIP3    H239339   4.628   1.971   0.139 -0.4985  1.4315 -0.9685
 5950TIP3   OH239340   1.197   1.255  15.167 -0.4630 -0.0438 -0.3789
 5950TIP3    H139341   1.119   1.202  15.183 -0.1757 -0.5494 -0.6339
 5950TIP3    H239342   1.186   1.332  15.224 -1.1781 -0.0739 -0.4736
 5951TIP3   OH239343   4.896   4.376   1.252 -0.5512  0.8760 -0.0683
 5951TIP3    H139344   4.842   4.453   1.234 -0.7861  0.6442 -0.3604
 5951TIP3    H239345   4.883   4.318   1.177 -0.1637  0.6675  0.0204
 5952TIP3   OH239346   6.577   6.216  10.502 -0.1038 -0.0482  0.0926
 5952TIP3    H139347   6.486   6.189  10.498 -0.1645 -0.1614  1.5494
 5952TIP3    H239348   6.601   6.238  10.412 -2.1894  2.0943 -0.0192
 5953TIP3   OH239349   0.766   1.864  10.615 -0.2069  0.4455 -0.7723
 5953TIP3    H139350   0.713   1.785  10.623 -1.1518  1.1980  0.8447
 5953TIP3    H239351   0.851   1.840  10.652 -1.3496  0.8838  2.5026
 5954TIP3   OH239352   0.215   0.602  10.057 -0.0931 -0.2426  0.3392
 5954TIP3    H139353   0.160   0.577  10.132  0.6811 -1.9555  0.3631
 5954TIP3    H239354   0.304   0.585  10.086  0.3334  0.6231 -0.4203
 5955TIP3   OH239355   3.529   1.684  10.516  0.3580 -0.2794 -0.4310
 5955TIP3    H139356   3.613   1.707  10.477  1.8246 -3.6681  0.3462
 5955TIP3    H239357   3.493   1.615  10.460 -0.4336 -0.9396  0.8169
 5956TIP3   OH239358   5.109   4.483   0.153 -0.2179  0.0910 -0.0567
 5956TIP3    H139359   5.079   4.449   0.068 -0.8274  1.9914 -0.6695
 5956TIP3    H239360   5.152   4.566   0.131  1.5570 -0.4192  1.3073
 5957TIP3   OH239361   7.038   2.122  11.975 -0.5720  0.1776  0.8890
 5957TIP3    H139362   7.083   2.193  12.021 -2.3992  0.7970  1.8233
 5957TIP3    H239363   7.057   2.044  12.028  0.5148  0.1578  0.4896
 5958TIP3   OH239364   6.521   1.667  14.190  0.3019  0.0816  0.5913
 5958TIP3    H139365   6.506   1.573  14.179  1.0871  0.0205 -0.0988
 5958TIP3    H239366   6.547   1.696  14.102 -1.0891  1.1698  0.5110
 5959TIP3   OH239367   1.852   5.730  11.288 -0.5646  0.2180 -0.4337
 5959TIP3    H139368   1.917   5.661  11.269  0.7068  1.1610  0.3430
 5959TIP3    H239369   1.835   5.721  11.382 -1.1111  0.3802 -0.5143
 5960TIP3   OH239370   1.885   4.692   9.760  0.1829  0.3665 -0.0082
 5960TIP3    H139371   1.923   4.778   9.782  1.0495  0.6119 -2.1562
 5960TIP3    H239372   1.962   4.636   9.745 -0.1540  0.5936 -3.4406
 5961TIP3   OH239373   5.909   2.609  11.648 -0.2173 -0.1843 -0.5897
 5961TIP3    H139374   5.972   2.574  11.711 -0.3698  2.7907  1.4016
 5961TIP3    H239375   5.828   2.618  11.697 -0.3665  2.1582 -1.1469
 5962TIP3   OH239376   6.103   6.285  13.047 -0.3491 -0.7806  0.1189
 5962TIP3    H139377   6.065   6.337  12.976  0.9736 -1.2875 -1.0217
 5962TIP3    H239378   6.039   6.290  13.118 -0.6013  1.7742 -0.2110
 5963TIP3   OH239379   6.267   0.700   4.402 -0.1519 -0.5131 -0.2223
 5963TIP3    H139380   6.263   0.792   4.428 -0.9949 -0.7003  0.3580
 5963TIP3    H239381   6.353   0.671   4.432  0.8024  0.4983 -1.8912
 5964TIP3   OH239382   4.073   2.010  13.776 -0.5810  1.1417 -0.2106
 5964TIP3    H139383   4.155   1.986  13.731 -0.9957 -2.1459  0.5471
 5964TIP3    H239384   4.096   2.012  13.868 -1.4260 -0.4173  0.0638
 5965TIP3   OH239385   5.102   4.545   9.836 -0.1111  0.4615  0.0194
 5965TIP3    H139386   5.087   4.492   9.757 -1.3731 -1.7251  1.6281
 5965TIP3    H239387   5.038   4.616   9.828 -0.1613  0.3256 -0.9766
 5966TIP3   OH239388   6.565   4.324   0.603 -0.4578  0.4577 -0.3095
 5966TIP3    H139389   6.582   4.232   0.585 -1.3256  0.4805 -1.2800
 5966TIP3    H239390   6.528   4.325   0.691  2.1226  0.1783  0.8915
 5967TIP3   OH239391   7.073   4.946  12.215  0.1094 -0.4782  0.4366
 5967TIP3    H139392   7.037   4.872  12.265  1.7392 -0.7201  1.2967
 5967TIP3    H239393   7.145   4.979  12.269  0.6079  0.5621 -0.8213
 5968TIP3   OH239394   7.053   2.843  13.695  0.2343 -0.3497  0.3123
 5968TIP3    H139395   7.134   2.793  13.704 -0.8365 -2.0212  1.2327
 5968TIP3    H239396   7.053   2.874  13.604  1.7798 -0.5024  0.2444
 5969TIP3   OH239397   2.677   1.723  11.581  0.3393 -0.4336  0.1378
 5969TIP3    H139398   2.618   1.656  11.546 -1.4983  0.9919  0.3001
 5969TIP3    H239399   2.670   1.714  11.676  0.3700 -0.2450  0.1577
 5970TIP3   OH239400   7.035   5.917  13.142  0.5668  0.1044 -0.2542
 5970TIP3    H139401   7.084   5.893  13.063 -1.8561 -0.9567 -1.5484
 5970TIP3    H239402   7.008   6.008  13.126 -1.2145 -0.5730 -1.4657
 5971TIP3   OH239403   3.345   7.208  15.278 -0.5739  0.1751 -0.4531
 5971TIP3    H139404   3.290   7.166  15.345  0.0075 -0.6127 -0.4528
 5971TIP3    H239405   3.357   7.297  15.310  2.3758 -0.9770  2.2993
 5972TIP3   OH239406   6.176   6.032  13.003 -0.4982  0.0804 -0.4711
 5972TIP3    H139407   6.155   6.125  12.993 -0.6194  0.0428 -0.5754
 5972TIP3    H239408   6.113   6.000  13.068 -1.7709 -0.3668 -1.8684
 5973TIP3   OH239409   3.554   5.444   1.290  0.7528 -0.5795  0.0958
 5973TIP3    H139410   3.612   5.370   1.308  1.7709 -0.1763 -1.4117
 5973TIP3    H239411   3.468   5.414   1.320  1.3768 -1.8984  0.6497
 5974TIP3   OH239412   4.455   4.107  10.500  0.6562 -0.5488  0.1279
 5974TIP3    H139413   4.421   4.018  10.513  2.5992 -1.1944  1.3089
 5974TIP3    H239414   4.445   4.149  10.585 -1.7569  1.0099 -0.8244
 5975TIP3   OH239415   3.079   7.218  12.014  0.3754  0.1919  0.2185
 5975TIP3    H139416   2.988   7.190  12.019  0.2745  0.3558 -0.6524
 5975TIP3    H239417   3.126   7.157  12.071 -0.1052 -0.6006 -0.2167
 5976TIP3   OH239418   6.188   7.174  10.190  0.0661  0.2383 -0.0088
 5976TIP3    H139419   6.184   7.238  10.261  1.6969  1.3341 -0.8569
 5976TIP3    H239420   6.245   7.213  10.124 -0.7933 -1.0653 -1.6269
 5977TIP3   OH239421   3.985   1.402   2.226  0.1267  0.3246 -0.0621
 5977TIP3    H139422   3.998   1.402   2.321 -0.4648 -2.6818  0.0963
 5977TIP3    H239423   3.952   1.490   2.207  1.2607  1.3688  2.3195
 5978TIP3   OH239424   2.057   5.391   2.186  0.3126  0.4758 -0.1074
 5978TIP3    H139425   2.146   5.417   2.209  0.0311 -0.0974  1.8424
 5978TIP3    H239426   2.068   5.312   2.133  0.9844  1.4235 -1.4419
 5979TIP3   OH239427   4.850   3.529   0.927 -0.2428  0.3182  0.8313
 5979TIP3    H139428   4.800   3.587   0.984 -1.0273  0.3302  0.1326
 5979TIP3    H239429   4.802   3.527   0.845 -0.7025 -1.9747  1.0814
 5980TIP3   OH239430   0.257   6.551  12.305 -0.3971 -0.1069  0.3469
 5980TIP3    H139431   0.174   6.505  12.318  0.2778 -1.2630  0.7396
 5980TIP3    H239432   0.311   6.489  12.256  0.8539 -0.1075  1.6599
 5981TIP3   OH239433   6.504   5.661   1.638  0.4365  0.6115 -0.2435
 5981TIP3    H139434   6.411   5.683   1.632  0.2600  0.3627  1.3198
 5981TIP3    H239435   6.538   5.719   1.706  1.0724 -0.3803  0.3075
 5982TIP3   OH239436   4.522   6.527  11.101 -0.2235  0.3028  0.2428
 5982TIP3    H139437   4.497   6.488  11.017 -0.9169  1.9434 -0.3480
 5982TIP3    H239438   4.486   6.468  11.167 -1.4880  0.0760 -0.6148
 5983TIP3   OH239439   1.890   6.611  10.379 -0.4264  0.6351  0.4589
 5983TIP3    H139440   1.860   6.702  10.379 -2.7230 -0.0461  0.1220
 5983TIP3    H239441   1.882   6.583  10.471  0.2510  0.7509  0.5578
 5984TIP3   OH239442   1.942   2.125  12.508  0.1079  0.6511 -0.2249
 5984TIP3    H139443   1.882   2.159  12.442 -1.1454  0.0937  0.6005
 5984TIP3    H239444   2.019   2.097  12.458 -0.6225  0.6624 -1.3863
 5985TIP3   OH239445   6.949   6.574  15.298  0.5895  0.1728 -0.2357
 5985TIP3    H139446   6.924   6.486  15.270  0.0580 -0.3938  1.8346
 5985TIP3    H239447   6.897   6.589  15.378  0.9996  2.1893 -0.3004
 5986TIP3   OH239448   7.028   2.193  13.704  0.0327  0.1972 -0.0596
 5986TIP3    H139449   7.078   2.112  13.714 -0.5327 -0.0253  1.1051
 5986TIP3    H239450   6.938   2.164  13.690 -0.1445  0.6253  0.1852
 5987TIP3   OH239451   1.445   1.010  10.983  0.1645  0.6995 -0.2240
 5987TIP3    H139452   1.528   1.036  10.944  0.3458  1.6345  0.7255
 5987TIP3    H239453   1.469   0.960  11.061 -0.1829 -0.0750 -0.5984
 5988TIP3   OH239454   7.095   4.043  12.546  0.1530 -0.6611  0.0285
 5988TIP3    H139455   7.160   4.009  12.484  1.0591 -0.5773  0.8955
 5988TIP3    H239456   7.022   3.981  12.541  0.3947 -0.8874 -0.8019
 5989TIP3   OH239457   1.428   6.539  10.800  0.3144  0.5046  0.2526
 5989TIP3    H139458   1.361   6.517  10.865  0.3350  1.1440  0.4971
 5989TIP3    H239459   1.395   6.501  10.718  1.0528 -1.6855  0.9051
 5990TIP3   OH239460   6.699   5.944  11.507  0.2489  0.1372 -0.5341
 5990TIP3    H139461   6.608   5.935  11.533  0.4656  1.0655  0.6420
 5990TIP3    H239462   6.747   5.956  11.589  1.0189  2.8067 -1.2567
 5991TIP3   OH239463   1.261   3.505  10.824 -0.2696 -0.5459 -0.7803
 5991TIP3    H139464   1.352   3.535  10.829 -0.3952 -0.1055 -1.1028
 5991TIP3    H239465   1.254   3.459  10.741 -0.2196 -1.0092 -0.5340
 5992TIP3   OH239466   1.281   0.439   9.750  0.3276  0.9074 -0.4920
 5992TIP3    H139467   1.339   0.406   9.681  0.1513  0.8310 -0.6028
 5992TIP3    H239468   1.266   0.530   9.726  1.2917  1.2484  0.1318
 5993TIP3   OH239469   4.884   5.348  13.803  0.1388  0.0439 -0.2262
 5993TIP3    H139470   4.842   5.308  13.879 -1.9745 -0.8684 -1.7921
 5993TIP3    H239471   4.952   5.404  13.840  0.0880 -1.4087  2.2552
 5994TIP3   OH239472   4.982   6.230  10.378  0.8802  0.5224 -0.0213
 5994TIP3    H139473   4.963   6.297  10.445  0.2677 -0.1609  0.5013
 5994TIP3    H239474   4.998   6.150  10.428  1.9349  0.3406 -0.6266
 5995TIP3   OH239475   0.273   4.158  11.623  0.0403 -0.0670 -0.0531
 5995TIP3    H139476   0.223   4.153  11.541 -0.0103  2.1294 -0.2198
 5995TIP3    H239477   0.355   4.199  11.598 -0.1335  1.0044  1.0377
 5996TIP3   OH239478   0.314   2.467  15.414 -0.0102  0.1159 -0.1948
 5996TIP3    H139479   0.271   2.537  15.462 -1.1029 -0.4750 -0.2955
 5996TIP3    H239480   0.257   2.391  15.426  1.6871 -1.0739  0.8294
 5997TIP3   OH239481   3.506   6.692  13.303  0.7177 -0.4200 -0.3747
 5997TIP3    H139482   3.455   6.709  13.224 -0.0987  0.2310  0.2698
 5997TIP3    H239483   3.548   6.607  13.288  0.4997 -0.3444 -1.4564
 5998TIP3   OH239484   0.539   6.493  15.295  0.6881 -0.5499  0.5012
 5998TIP3    H139485   0.568   6.418  15.346 -0.1738 -0.8479  0.5703
 5998TIP3    H239486   0.467   6.530  15.346  1.0305  0.2594  0.4162
 5999TIP3   OH239487   3.878   5.538   3.411  0.2990 -0.0194 -0.2471
 5999TIP3    H139488   3.912   5.544   3.321 -1.1881 -0.5651 -0.8790
 5999TIP3    H239489   3.855   5.627   3.434  0.9069  0.1600 -0.3048
 6000TIP3   OH239490   6.073   5.541  14.212 -0.6061  0.2623 -0.1645
 6000TIP3    H139491   6.048   5.453  14.239  0.1929  0.5209  1.5357
 6000TIP3    H239492   6.167   5.535  14.194 -0.8145  0.4708 -1.3991
 6001TIP3   OH239493   4.990   5.210   2.800  0.2898  0.9631 -0.2703
 6001TIP3    H139494   5.037   5.129   2.780 -1.1066  0.5037 -1.8578
 6001TIP3    H239495   5.060   5.272   2.823  1.9755  0.7266 -3.8974
 6002TIP3   OH239496   6.155   0.040  10.782 -0.3628  0.5274 -0.2512
 6002TIP3    H139497   6.168  -0.050  10.811 -0.2318  0.6016 -0.0732
 6002TIP3    H239498   6.062   0.058  10.801 -1.2002 -0.4964 -2.9272
 6003TIP3   OH239499   3.037   0.870   0.614 -0.3301  0.7462  0.0033
 6003TIP3    H139500   2.977   0.795   0.610 -0.3792  0.8086 -0.6494
 6003TIP3    H239501   3.076   0.865   0.701 -1.3289  0.7390  0.4639
 6004TIP3   OH239502   2.359   2.805   9.530 -0.6343 -0.3135  0.1315
 6004TIP3    H139503   2.289   2.829   9.591  1.2165  1.3180  1.7283
 6004TIP3    H239504   2.431   2.863   9.552  1.0411 -1.5070 -1.8840
 6005TIP3   OH239505   5.760   3.679  10.590 -0.0051  0.0427  0.0532
 6005TIP3    H139506   5.803   3.759  10.618  0.4026  0.6770 -2.2121
 6005TIP3    H239507   5.831   3.616  10.580 -0.2180 -0.3533  0.9423
 6006TIP3   OH239508   6.046   2.237  13.270  0.8534  0.6050  0.0307
 6006TIP3    H139509   6.118   2.258  13.211  0.5414 -0.2902 -0.6863
 6006TIP3    H239510   6.079   2.260  13.357  3.0212 -2.2199  0.0838
 6007TIP3   OH239511   5.146   4.087   4.149  0.0820 -0.7227 -0.0014
 6007TIP3    H139512   5.084   4.095   4.222  1.1149 -1.7440  1.0206
 6007TIP3    H239513   5.093   4.104   4.071 -0.9087  1.0773  0.9984
 6008TIP3   OH239514   5.099   6.555   1.725 -0.3534 -0.0556 -0.6038
 6008TIP3    H139515   5.017   6.531   1.682 -0.7600  1.2766 -0.6134
 6008TIP3    H239516   5.165   6.553   1.655 -0.6234  0.0839 -0.8638
 6009TIP3   OH239517   2.246   2.954  13.631 -0.0429 -0.4392 -0.2423
 6009TIP3    H139518   2.189   2.884  13.599  0.9244 -1.1647 -0.4445
 6009TIP3    H239519   2.331   2.911  13.643  1.4332  1.2773 -3.2795
 6010TIP3   OH239520   6.156   5.722  12.919 -0.3790 -0.2895  0.5284
 6010TIP3    H139521   6.118   5.648  12.966 -1.6273 -0.6860 -1.0126
 6010TIP3    H239522   6.095   5.738  12.847  0.2123  1.8282  0.4314
 6011TIP3   OH239523   5.754   0.205  10.035  0.0731  0.3417  0.7051
 6011TIP3    H139524   5.679   0.169   9.987  0.2163  1.8639 -0.7403
 6011TIP3    H239525   5.826   0.203   9.972  0.6043  1.2190  1.2645
 6012TIP3   OH239526   4.715   5.557  12.566  0.5510  0.4225  0.1563
 6012TIP3    H139527   4.675   5.479  12.605  1.2868 -0.6206 -1.0907
 6012TIP3    H239528   4.806   5.553  12.594  0.7582  0.4319 -0.5066
 6013TIP3   OH239529   1.145   4.685  12.226  0.3940 -0.5096  0.0517
 6013TIP3    H139530   1.106   4.597  12.233 -1.3193  0.1075 -1.0687
 6013TIP3    H239531   1.149   4.716  12.316  0.7037 -1.5924  0.4336
 6014TIP3   OH239532   6.923   2.956  10.035 -0.7829  0.7887 -0.2506
 6014TIP3    H139533   6.910   3.001   9.951  0.9044 -0.0136 -0.9759
 6014TIP3    H239534   6.993   3.004  10.078 -0.3340  0.0671 -0.1525
 6015TIP3   OH239535   2.787   4.096  13.237  0.0711  0.1898 -0.0793
 6015TIP3    H139536   2.719   4.075  13.173 -1.4046  2.4250  0.6569
 6015TIP3    H239537   2.850   4.150  13.188 -1.1044  1.9775  0.2818
 6016TIP3   OH239538   6.640   6.656   9.645 -0.3093 -0.6017  0.4530
 6016TIP3    H139539   6.731   6.679   9.626 -0.9667  1.6293 -0.3110
 6016TIP3    H239540   6.638   6.561   9.641  2.0932 -0.7440  1.0359
 6017TIP3   OH239541   5.755   1.270  11.957  0.2213 -0.2031 -0.4041
 6017TIP3    H139542   5.850   1.269  11.969  0.4106  1.4627 -1.5225
 6017TIP3    H239543   5.738   1.348  11.905 -1.2439 -2.8771 -4.4551
 6018TIP3   OH239544   4.132   2.059  14.367  0.4912 -0.1138 -0.5613
 6018TIP3    H139545   4.206   2.015  14.324 -0.2059 -1.3241 -0.5611
 6018TIP3    H239546   4.130   2.022  14.455  1.4813  1.8499  0.3602
 6019TIP3   OH239547   3.552   6.447  10.520 -0.1735  0.1379  0.5209
 6019TIP3    H139548   3.616   6.509  10.484 -1.2019 -0.0390 -1.7626
 6019TIP3    H239549   3.572   6.364  10.476 -1.4528 -0.1126  0.3976
 6020TIP3   OH239550   2.083   4.851  13.777 -0.6124 -1.1173 -0.1952
 6020TIP3    H139551   2.096   4.945  13.766 -0.4963 -0.9474  1.1804
 6020TIP3    H239552   2.020   4.844  13.849 -0.1048 -2.0847  0.1804
 6021TIP3   OH239553   3.324   5.118  15.349 -0.0542 -0.2175 -0.1066
 6021TIP3    H139554   3.274   5.170  15.410  0.0163 -0.6843  0.3529
 6021TIP3    H239555   3.276   5.035  15.342  0.5356 -0.5969  0.1959
 6022TIP3   OH239556   7.028   6.986  15.099  0.4235  0.5405 -0.1467
 6022TIP3    H139557   7.094   7.008  15.033  0.4215  1.0523  0.0193
 6022TIP3    H239558   6.999   7.070  15.134  0.4022  0.2737  0.4950
 6023TIP3   OH239559   4.778   0.357  12.629 -0.1115  0.2361 -0.1900
 6023TIP3    H139560   4.806   0.439  12.589 -0.2066 -0.3073 -1.4282
 6023TIP3    H239561   4.858   0.321  12.669  0.2901  0.1618 -1.0430
 6024TIP3   OH239562   4.305   4.858  12.576 -0.3820 -0.0249 -0.7458
 6024TIP3    H139563   4.306   4.805  12.655  0.0531  0.1504 -0.6282
 6024TIP3    H239564   4.219   4.900  12.575 -0.2740  0.2116 -0.2067
 6025TIP3   OH239565   6.835   4.397  14.587 -1.0179 -0.6424 -0.5817
 6025TIP3    H139566   6.873   4.423  14.671  0.5062 -0.2020 -1.3665
 6025TIP3    H239567   6.845   4.302  14.585 -1.2322 -0.6780 -0.1994
 6026TIP3   OH239568   3.304   6.386  13.849  0.4119  0.2857  0.4798
 6026TIP3    H139569   3.238   6.348  13.790  1.4641  0.5460 -0.9047
 6026TIP3    H239570   3.344   6.456  13.798  0.4931  1.3784  1.9784
 6027TIP3   OH239571   0.329   1.845  14.806 -0.7914 -0.2724 -0.2537
 6027TIP3    H139572   0.271   1.908  14.847  0.0964  0.7408 -0.5062
 6027TIP3    H239573   0.322   1.767  14.860  1.0310  1.2816  2.4790
 6028TIP3   OH239574   6.585   6.091  10.222 -0.3099  0.1305 -0.3034
 6028TIP3    H139575   6.503   6.074  10.176 -0.2366 -0.9826 -0.0385
 6028TIP3    H239576   6.612   6.177  10.190 -2.4450  1.3285  0.9079
 6029TIP3   OH239577   5.893   1.534  10.347  0.0575 -0.4682  0.4891
 6029TIP3    H139578   5.898   1.556  10.254  2.0738 -1.6545  0.2586
 6029TIP3    H239579   5.982   1.546  10.380 -0.9001  1.4488  2.6973
 6030TIP3   OH239580   3.090   0.949  12.338  0.4064 -0.3182 -0.0023
 6030TIP3    H139581   3.053   0.898  12.409 -0.1484  1.3671  0.9618
 6030TIP3    H239582   3.136   1.021  12.381 -0.2909  0.9767 -1.3191
 6031TIP3   OH239583   3.883   3.694  12.599 -0.3994  0.0414 -0.2014
 6031TIP3    H139584   3.805   3.717  12.550 -0.4941 -0.1597 -0.1471
 6031TIP3    H239585   3.850   3.653  12.680 -0.2543  0.6412  0.1653
 6032TIP3   OH239586   4.644   1.169   0.849 -0.5012 -0.4321  0.2003
 6032TIP3    H139587   4.552   1.169   0.823 -0.1855 -2.0861 -1.0878
 6032TIP3    H239588   4.685   1.104   0.792  1.1505 -0.9288  1.8677
 6033TIP3   OH239589   5.088   2.364  11.767  0.2680 -0.5279  0.1264
 6033TIP3    H139590   5.158   2.396  11.824 -0.1275  0.2937  0.1713
 6033TIP3    H239591   5.019   2.431  11.775 -0.5039 -1.3014  0.0615
 6034TIP3   OH239592   5.147   6.988  15.248 -0.7976 -0.3037  0.8532
 6034TIP3    H139593   5.058   7.024  15.248 -0.5966  0.1999  0.7999
 6034TIP3    H239594   5.175   6.991  15.339  0.7083  3.4637  0.4418
 6035TIP3   OH239595   5.194   6.824  13.185 -0.8495 -0.2317 -0.4375
 6035TIP3    H139596   5.135   6.798  13.255  1.0477 -1.4348  0.8283
 6035TIP3    H239597   5.141   6.821  13.106 -2.3009 -2.0029  0.5194
 6036TIP3   OH239598   2.969   0.665  10.721 -0.2859  0.3555  0.2182
 6036TIP3    H139599   2.974   0.652  10.815 -1.1480 -1.2700  0.0712
 6036TIP3    H239600   3.057   0.696  10.696  0.4891 -0.8786  1.3103
 6037TIP3   OH239601   5.524   4.827  12.233 -0.4307 -0.1405 -0.3201
 6037TIP3    H139602   5.440   4.782  12.240  0.0273 -0.7698  1.6210
 6037TIP3    H239603   5.574   4.798  12.309  2.3511 -1.3859 -2.4250
 6038TIP3   OH239604   1.690   2.851  14.828  0.0032 -0.3552  0.3633
 6038TIP3    H139605   1.718   2.770  14.785 -0.1498 -0.1573 -0.1101
 6038TIP3    H239606   1.754   2.916  14.803 -0.6558  0.0090 -0.4220
 6039TIP3   OH239607   1.181   1.868  11.454 -0.0859 -0.1077 -0.0041
 6039TIP3    H139608   1.218   1.841  11.538  0.6686 -2.9451 -1.1210
 6039TIP3    H239609   1.254   1.862  11.392 -1.2946 -1.1293 -1.3932
 6040TIP3   OH239610   1.269   5.801  13.201 -0.3435  0.3574  0.7407
 6040TIP3    H139611   1.270   5.884  13.153  0.3016  0.6337  1.2271
 6040TIP3    H239612   1.307   5.738  13.140 -0.6652  0.4549  0.4371
 6041TIP3   OH239613   1.342   6.906   0.211  0.1401  0.0640  0.0637
 6041TIP3    H139614   1.312   6.946   0.293  1.0040  0.8241  0.0248
 6041TIP3    H239615   1.276   6.931   0.146 -0.6857 -0.7589  0.5725
 6042TIP3   OH239616   2.594   1.579   9.451  0.2422  0.0526 -0.1548
 6042TIP3    H139617   2.511   1.625   9.440  0.4272  0.5328  0.4598
 6042TIP3    H239618   2.660   1.648   9.455  0.4378 -0.1819  1.5995
 6043TIP3   OH239619   0.005   1.964  14.331 -0.9590 -0.3371  0.1830
 6043TIP3    H139620  -0.053   2.024  14.283  0.1612  0.3787 -0.3058
 6043TIP3    H239621   0.058   2.022  14.387 -1.3831 -1.0629  1.3790
 6044TIP3   OH239622   1.983   1.891  12.704 -0.2593  0.0169 -0.0445
 6044TIP3    H139623   2.005   1.984  12.694  2.4465 -0.3594  1.5122
 6044TIP3    H239624   1.935   1.888  12.787 -0.1466 -0.0071  0.0191
 6045TIP3   OH239625   0.289   1.988  11.711  0.3294  0.3478  0.0711
 6045TIP3    H139626   0.324   2.072  11.740 -0.1229  0.5038  0.1684
 6045TIP3    H239627   0.228   1.962  11.780 -0.2577  0.4014 -0.4173
 6046TIP3   OH239628   3.807   1.156  10.902  0.1371 -0.3309  0.2330
 6046TIP3    H139629   3.823   1.083  10.962  0.0123  0.2248  0.9637
 6046TIP3    H239630   3.741   1.209  10.947  0.5434  0.4578 -0.0879
 6047TIP3   OH239631   3.619   0.712  13.339  0.0101  0.5521 -0.3588
 6047TIP3    H139632   3.527   0.688  13.333 -0.5924  1.1082  3.8740
 6047TIP3    H239633   3.660   0.639  13.384  1.6294  0.5341 -1.7508
 6048TIP3   OH239634   5.255   4.486  11.649  0.3213  0.5654 -0.1907
 6048TIP3    H139635   5.305   4.522  11.576 -1.0694  0.0509 -1.4296
 6048TIP3    H239636   5.273   4.392  11.646  1.5392  0.7077  1.1774
 6049TIP3   OH239637   3.613   5.744   0.730 -0.0732  0.2156  0.0692
 6049TIP3    H139638   3.686   5.802   0.709 -0.0432 -0.4470 -1.8316
 6049TIP3    H239639   3.639   5.658   0.697 -0.2210 -0.8982  2.6262
 6050TIP3   OH239640   6.102   0.120  15.162 -0.4736 -0.0675  0.1080
 6050TIP3    H139641   6.180   0.135  15.217 -1.2518 -1.2643  1.6345
 6050TIP3    H239642   6.030   0.154  15.215 -0.9989  1.1450 -1.3498
 6051TIP3   OH239643   1.325   3.976  11.773 -0.1267  0.2546 -0.1066
 6051TIP3    H139644   1.417   3.960  11.795 -0.0161 -1.1045 -1.3657
 6051TIP3    H239645   1.276   3.939  11.846  0.3040  0.2760  0.1981
 6052TIP3   OH239646   2.640   6.717   2.897  0.4059  0.5773  0.1990
 6052TIP3    H139647   2.617   6.647   2.958 -1.0463  1.2586  0.4944
 6052TIP3    H239648   2.705   6.678   2.839  0.4163 -0.6741  1.0109
 6053TIP3   OH239649   3.239   0.196   3.573 -0.0685 -0.3484  0.1664
 6053TIP3    H139650   3.219   0.104   3.593 -0.2392 -0.9947 -2.6321
 6053TIP3    H239651   3.202   0.211   3.487 -0.7604  2.6481  0.8621
 6054TIP3   OH239652   1.577   1.119  12.024  0.3302 -0.2986 -0.0663
 6054TIP3    H139653   1.636   1.044  12.025 -0.6238 -1.0846  1.2667
 6054TIP3    H239654   1.498   1.088  11.978 -0.5039 -0.5237  1.4379
 6055TIP3   OH239655   5.150   5.216  10.695  0.6559  0.5047 -0.4698
 6055TIP3    H139656   5.112   5.143  10.648  0.3557  0.1318  0.3265
 6055TIP3    H239657   5.122   5.203  10.786  0.8615  1.4288 -0.2615
 6056TIP3   OH239658   5.026   0.836  11.811  0.0823 -0.3632  0.3880
 6056TIP3    H139659   4.936   0.803  11.817 -0.0673 -0.0039  0.1369
 6056TIP3    H239660   5.031   0.878  11.725 -0.3586  2.0867  1.4770
 6057TIP3   OH239661   6.104   4.751   0.057  0.1685  0.4091 -0.3143
 6057TIP3    H139662   6.138   4.830   0.014 -1.5815  0.8248 -1.0146
 6057TIP3    H239663   6.101   4.685  -0.012  0.9880 -0.0837  0.1097
 6058TIP3   OH239664   6.759   2.362  13.488  0.1310  0.2556  0.3831
 6058TIP3    H139665   6.681   2.410  13.515 -0.2767 -0.0835 -0.1624
 6058TIP3    H239666   6.813   2.356  13.567 -0.6511  0.0148  0.9061
 6059TIP3   OH239667   6.651   3.325  13.775  0.3036 -0.0578  0.3869
 6059TIP3    H139668   6.582   3.295  13.834 -1.9263  2.7876 -0.5802
 6059TIP3    H239669   6.646   3.267  13.700 -0.5657 -0.3023  0.6232
 6060TIP3   OH239670   5.343   5.021  10.954 -0.2221 -0.1478 -0.1299
 6060TIP3    H139671   5.416   5.041  10.895 -0.9610  0.9116 -0.7291
 6060TIP3    H239672   5.384   4.995  11.036  0.8261 -0.4146 -0.7236
 6061TIP3   OH239673   6.745   3.298  10.524  0.7324 -0.2946 -0.0261
 6061TIP3    H139674   6.680   3.261  10.584 -0.2615 -1.0747 -1.5140
 6061TIP3    H239675   6.728   3.253  10.441  2.2104  0.5870 -0.8312
 6062TIP3   OH239676   3.907   1.564  15.051  0.1940 -0.5921  0.6798
 6062TIP3    H139677   3.818   1.555  15.084 -0.3007  0.6437 -0.2522
 6062TIP3    H239678   3.951   1.483  15.079 -0.6375 -0.3655  2.8364
 6063TIP3   OH239679   0.065   5.530  13.917  0.4407  0.4597  0.1410
 6063TIP3    H139680   0.046   5.592  13.846 -0.0809 -0.0518 -0.1712
 6063TIP3    H239681   0.015   5.563  13.992 -0.6590 -0.1394 -0.3092
 6064TIP3   OH239682   5.613   0.984  12.416 -0.4682  0.1389 -0.0034
 6064TIP3    H139683   5.548   0.946  12.356 -0.6498 -0.2952  0.4593
 6064TIP3    H239684   5.605   1.078  12.403 -3.3050  0.3241  2.1469
 6065TIP3   OH239685   4.525   0.329  10.323  0.5586  0.4510 -0.5271
 6065TIP3    H139686   4.576   0.298  10.398 -3.2468 -1.3186  1.6131
 6065TIP3    H239687   4.534   0.259  10.258  2.8844  1.4276 -1.3667
 6066TIP3   OH239688   4.452   2.961  12.892 -0.5553 -0.0028 -0.0797
 6066TIP3    H139689   4.472   2.868  12.878  0.0663 -0.1302  1.4556
 6066TIP3    H239690   4.471   2.975  12.985 -1.9637  1.3385  0.0269
 6067TIP3   OH239691   6.037   2.926  10.240  0.0142 -0.1983  0.2380
 6067TIP3    H139692   6.103   2.970  10.295  0.5217 -0.8950  0.1996
 6067TIP3    H239693   5.956   2.975  10.256 -0.0076 -0.7629  2.0987
 6068TIP3   OH239694   6.969   0.672   1.721 -0.5186 -0.1092  0.1711
 6068TIP3    H139695   7.036   0.703   1.659 -1.2834 -0.2063 -0.7145
 6068TIP3    H239696   7.013   0.675   1.806  1.1537 -1.6720 -0.5632
 6069TIP3   OH239697   1.032   2.031   1.824  0.5482 -0.0301  0.6190
 6069TIP3    H139698   1.125   2.052   1.825  0.7817 -1.0444  0.8075
 6069TIP3    H239699   0.989   2.116   1.816  1.4565  0.5214  1.3922
 6070TIP3   OH239700   6.435   0.177  13.897  0.1780 -0.4038  0.1574
 6070TIP3    H139701   6.516   0.136  13.867 -0.6634 -1.0998 -1.2557
 6070TIP3    H239702   6.429   0.259  13.847  0.0402 -0.3320  0.2900
 6071TIP3   OH239703   1.161   5.015  12.896  0.0582 -0.0901 -0.0613
 6071TIP3    H139704   1.178   4.996  12.989 -0.6466 -0.0246  0.0888
 6071TIP3    H239705   1.081   4.966  12.876 -0.8813  1.4146 -0.0999
 6072TIP3   OH239706   7.219   1.095   3.674 -0.2213 -0.0707  0.3472
 6072TIP3    H139707   7.203   1.056   3.760 -0.3675  0.9512  0.8033
 6072TIP3    H239708   7.155   1.165   3.667  0.8764  0.9436  0.1309
 6073TIP3   OH239709   1.901   5.306  10.527  0.2101  0.3377  0.3732
 6073TIP3    H139710   1.811   5.274  10.535 -0.7723  3.0839  1.7827
 6073TIP3    H239711   1.909   5.332  10.436 -0.0765 -0.7396  0.0188
 6074TIP3   OH239712   5.373   1.200  13.142  0.0186  0.1243 -0.2377
 6074TIP3    H139713   5.311   1.208  13.215  1.3689  1.3244  0.8592
 6074TIP3    H239714   5.444   1.260  13.165  1.9160 -1.6779 -1.0835
 6075TIP3   OH239715   6.793   5.149  10.408 -0.7053  0.0372 -0.0747
 6075TIP3    H139716   6.874   5.110  10.373 -1.4817 -2.0232  0.3035
 6075TIP3    H239717   6.822   5.198  10.485  0.1390 -1.1565  0.4073
 6076TIP3   OH239718   6.067   3.626  12.047  0.2867 -0.1478  0.0662
 6076TIP3    H139719   6.036   3.671  12.126  0.0549  0.2714 -0.2548
 6076TIP3    H239720   5.986   3.601  12.001  0.4182 -0.7388  0.1558
 6077TIP3   OH239721   4.369   6.658   9.982  0.0012  0.3731  0.4418
 6077TIP3    H139722   4.430   6.697   9.920 -0.9479  0.0190 -0.7713
 6077TIP3    H239723   4.328   6.586   9.933 -0.3162 -0.3399  1.6983
 6078TIP3   OH239724   4.456   7.109  13.904 -0.8500  0.0252  0.0042
 6078TIP3    H139725   4.445   7.200  13.933  2.1881  0.3744  0.4085
 6078TIP3    H239726   4.368   7.073  13.905 -2.0657  2.7370  0.6051
 6079TIP3   OH239727   5.579   3.552  11.234 -0.3825  0.1974  0.3403
 6079TIP3    H139728   5.553   3.540  11.143 -0.5165  0.4899  0.3380
 6079TIP3    H239729   5.502   3.524  11.285 -0.2390 -0.1451  0.3682
 6080TIP3   OH239730   1.729   4.346   2.805  0.0045  0.5489 -0.1074
 6080TIP3    H139731   1.691   4.294   2.876  0.6514  2.5404  1.8290
 6080TIP3    H239732   1.820   4.316   2.800  0.1856  0.9796  0.5122
 6081TIP3   OH239733   0.861   7.206  11.166 -0.3056 -0.1015  0.4056
 6081TIP3    H139734   0.766   7.217  11.171 -0.3074  1.1961 -1.3589
 6081TIP3    H239735   0.875   7.156  11.085  0.5328  0.2206  0.3456
 6082TIP3   OH239736   5.593   0.617  11.918 -0.3129  0.0394  0.9905
 6082TIP3    H139737   5.526   0.574  11.972 -1.7199  0.8890 -0.0165
 6082TIP3    H239738   5.664   0.553  11.913 -0.1186 -0.1070  3.7778
 6083TIP3   OH239739   1.919   0.855  11.244  0.3378 -0.2480 -0.2240
 6083TIP3    H139740   1.885   0.799  11.314  0.6862 -1.2810 -0.8680
 6083TIP3    H239741   1.850   0.855  11.178 -0.3732  1.4470  0.4732
 6084TIP3   OH239742   2.426   0.087  13.857 -0.1096  0.5246 -0.3800
 6084TIP3    H139743   2.377   0.170  13.861 -3.5503 -1.3152  3.9594
 6084TIP3    H239744   2.363   0.024  13.824  2.0276 -0.7188 -2.3225
 6085TIP3   OH239745   0.590   0.708  11.026 -0.2183 -0.1083 -0.4393
 6085TIP3    H139746   0.504   0.728  10.988 -0.4104  1.0044  0.5085
 6085TIP3    H239747   0.640   0.789  11.014  0.7788 -0.8206 -1.1671
 6086TIP3   OH239748   5.581   1.247  12.469  0.6269  0.2172 -0.7505
 6086TIP3    H139749   5.495   1.226  12.504  1.1407 -1.3400 -0.3276
 6086TIP3    H239750   5.573   1.337  12.437 -1.5376 -0.3417 -1.9888
 6087TIP3   OH239751   4.738   1.662  12.797 -0.2733 -0.0755  0.0252
 6087TIP3    H139752   4.754   1.714  12.876  2.3657  0.0834 -0.5071
 6087TIP3    H239753   4.754   1.722  12.724  1.6688 -1.2147 -0.5926
 6088TIP3   OH239754   0.804   2.539  13.089 -0.0631 -0.0625 -0.5749
 6088TIP3    H139755   0.843   2.506  13.170  2.3379 -1.2577 -2.0782
 6088TIP3    H239756   0.747   2.468  13.060 -1.9705  0.8974  0.6472
 6089TIP3   OH239757   2.368   3.083  15.103 -0.1332  0.0657  0.0475
 6089TIP3    H139758   2.450   3.099  15.149  1.0727 -1.2974 -1.5254
 6089TIP3    H239759   2.373   3.137  15.024 -0.8393  0.1144  0.0261
 6090TIP3   OH239760   1.478   4.607  15.309 -0.2012 -0.1557 -0.1123
 6090TIP3    H139761   1.477   4.553  15.388  1.6505 -1.1370 -0.6979
 6090TIP3    H239762   1.548   4.570  15.256  1.5991  3.1647 -0.3078
 6091TIP3   OH239763   6.194   3.245  11.639  0.2328  0.0260  0.8242
 6091TIP3    H139764   6.198   3.325  11.587  0.2750  0.4277  1.4388
 6091TIP3    H239765   6.284   3.213  11.640  0.2310  0.0108  0.6533
 6092TIP3   OH239766   4.811   1.294  11.110  0.4302  0.3433 -0.5520
 6092TIP3    H139767   4.875   1.313  11.042  0.5409  1.9263 -0.0375
 6092TIP3    H239768   4.774   1.379  11.133 -1.1770 -0.4191 -0.1534
 6093TIP3   OH239769   1.001   6.658  10.404  0.0060  0.3365 -0.3696
 6093TIP3    H139770   1.006   6.571  10.443 -1.2844  0.3423 -0.1394
 6093TIP3    H239771   0.937   6.649  10.333 -1.2106  1.4048  0.5532
 6094TIP3   OH239772   0.284   4.957   9.940 -0.7985 -0.2259  0.1310
 6094TIP3    H139773   0.331   4.980   9.860 -1.7267  2.1399  0.1947
 6094TIP3    H239774   0.193   4.978   9.921 -1.1435 -0.3781  1.5334
 6095TIP3   OH239775   0.163   4.399  12.786 -1.2234 -0.2386  0.3529
 6095TIP3    H139776   0.215   4.324  12.817 -1.8216 -0.4462  0.8690
 6095TIP3    H239777   0.103   4.418  12.858 -0.3397  1.4728  0.6847
 6096TIP3   OH239778   1.541   5.833   9.849 -0.3630  0.3151 -0.2130
 6096TIP3    H139779   1.634   5.858   9.843 -0.0437 -0.7508  0.0387
 6096TIP3    H239780   1.511   5.872   9.930  0.8197 -2.1261  1.5398
 6097TIP3   OH239781   3.549   6.206  13.380  0.0770  0.6331 -0.1866
 6097TIP3    H139782   3.471   6.186  13.329  0.3432  1.4694 -0.9569
 6097TIP3    H239783   3.619   6.157  13.338 -0.3506 -1.9451  1.8531
 6098TIP3   OH239784   2.408   2.204  10.781  0.6412  0.4942 -0.1878
 6098TIP3    H139785   2.433   2.292  10.809  0.2043  0.9880 -1.3016
 6098TIP3    H239786   2.326   2.216  10.734  1.3103 -0.2857 -1.6257
 6099TIP3   OH239787   2.276   5.077  12.677  0.3699  0.9344 -0.8211
 6099TIP3    H139788   2.247   4.990  12.650  0.2762  0.7017 -0.0008
 6099TIP3    H239789   2.261   5.079  12.772  0.6313  1.7436 -0.7880
 6100TIP3   OH239790   1.116   5.129  15.209  0.5791 -0.0819 -0.1268
 6100TIP3    H139791   1.087   5.092  15.293  0.8076  2.8039  1.3380
 6100TIP3    H239792   1.200   5.085  15.191 -0.7982 -2.7828 -0.3799
 6101TIP3   OH239793   0.537   5.474  13.199 -0.0224 -0.3813  0.0138
 6101TIP3    H139794   0.530   5.443  13.109  0.2436  0.5506 -0.3454
 6101TIP3    H239795   0.495   5.560  13.198 -0.3622 -0.5298  0.8698
 6102TIP3   OH239796   1.924   0.267   9.234 -0.0316  0.1626  0.7929
 6102TIP3    H139797   1.904   0.335   9.298  1.9873 -1.1111  2.9589
 6102TIP3    H239798   2.018   0.279   9.215 -0.3251 -0.1848 -1.1681
 6103TIP3   OH239799   4.043   4.825   3.095  0.5133  0.0114 -0.6708
 6103TIP3    H139800   3.981   4.759   3.065  0.1993  0.5063 -1.1234
 6103TIP3    H239801   4.099   4.778   3.158 -0.1956 -0.4762 -0.3945
 6104TIP3   OH239802   1.149   2.916   9.720  0.4912  0.8440 -0.1733
 6104TIP3    H139803   1.175   2.967   9.797  0.6572  2.1934 -1.0949
 6104TIP3    H239804   1.191   2.960   9.646 -0.6642  0.3002 -1.1925
 6105TIP3   OH239805   0.004   1.647  13.578  0.4316  0.9538  0.2383
 6105TIP3    H139806   0.093   1.656  13.610  0.6292 -1.1383  0.3792
 6105TIP3    H239807  -0.051   1.656  13.657  0.5563  1.3937  0.2773
 6106TIP3   OH239808   5.232   4.927  10.084  0.1550 -0.5132 -0.2126
 6106TIP3    H139809   5.188   5.011  10.070 -1.7783 -1.0768  1.7718
 6106TIP3    H239810   5.324   4.945  10.069 -0.3539  1.6431 -1.0956
 6107TIP3   OH239811   4.652   7.059  12.948  0.8353 -0.1206  0.1008
 6107TIP3    H139812   4.633   7.009  12.869  1.7097  0.3881 -0.4420
 6107TIP3    H239813   4.738   7.097  12.933  0.6263  0.7260  0.9239
 6108TIP3   OH239814   5.300   3.570  10.510 -0.1979  0.2621 -0.2586
 6108TIP3    H139815   5.294   3.580  10.415  0.5665 -1.3113 -0.5077
 6108TIP3    H239816   5.375   3.623  10.536  0.3000 -0.2094 -0.7133
 6109TIP3   OH239817   5.277   3.892   0.779  0.3316 -0.4806 -0.1578
 6109TIP3    H139818   5.367   3.865   0.757  0.4448  1.0700 -1.7644
 6109TIP3    H239819   5.237   3.913   0.695 -0.8344  0.9993  0.7240
 6110TIP3   OH239820   2.729   1.959   1.797  0.2627 -0.5103 -0.5707
 6110TIP3    H139821   2.815   1.917   1.801 -1.2575 -3.7725  0.6561
 6110TIP3    H239822   2.702   1.969   1.888 -0.4956  0.9764 -0.9167
 6111TIP3   OH239823   3.362   1.473  10.917 -0.1955  0.3830  0.1923
 6111TIP3    H139824   3.361   1.551  10.861  0.9386  0.5258  0.3381
 6111TIP3    H239825   3.353   1.400  10.857 -2.1092  0.6298  0.1216
 6112TIP3   OH239826   6.318   4.891  15.339 -0.0232 -0.4093  0.0717
 6112TIP3    H139827   6.386   4.824  15.337 -0.6754 -1.1899  1.6667
 6112TIP3    H239828   6.302   4.913  15.247  1.4343 -1.1591 -0.3842
 6113TIP3   OH239829   2.876   3.724  11.295  0.2549 -0.3437 -0.3858
 6113TIP3    H139830   2.942   3.789  11.268 -0.4223  1.2396  1.5419
 6113TIP3    H239831   2.847   3.753  11.381 -2.0371 -1.7457 -0.5946
 6114TIP3   OH239832   1.044   6.404  12.353  0.1133  0.5794  0.2315
 6114TIP3    H139833   1.135   6.423  12.329 -0.1414  1.6239  0.0492
 6114TIP3    H239834   1.012   6.346  12.284  0.8068 -0.2829  0.6094
 6115TIP3   OH239835   5.258   3.057  13.301  0.1567 -0.2824  0.1776
 6115TIP3    H139836   5.264   2.965  13.329  0.5953 -0.5590 -0.7921
 6115TIP3    H239837   5.213   3.101  13.374  1.3026 -0.9583  1.3330
 6116TIP3   OH239838   3.549   3.729  13.385 -0.2283  0.6734 -0.1918
 6116TIP3    H139839   3.488   3.750  13.314 -0.3304  1.0235 -0.0046
 6116TIP3    H239840   3.624   3.688  13.341 -0.6545  0.1130 -0.4054
 6117TIP3   OH239841   1.254   1.870  12.537  0.1176 -0.4920 -0.4569
 6117TIP3    H139842   1.209   1.808  12.480 -0.1063 -0.1486 -0.6533
 6117TIP3    H239843   1.187   1.897  12.601  0.0080  0.1059 -0.8179
 6118TIP3   OH239844   4.724   4.538   9.685 -0.0960  0.7943 -0.4024
 6118TIP3    H139845   4.742   4.565   9.595  0.5437  2.4986  0.1861
 6118TIP3    H239846   4.781   4.462   9.699  1.5082  1.8861 -0.7671
 6119TIP3   OH239847   6.565   4.894  11.891  0.2786 -0.3572 -0.4867
 6119TIP3    H139848   6.605   4.913  11.806 -0.8983  1.2837 -0.7389
 6119TIP3    H239849   6.474   4.872  11.870  0.1643 -0.6688  0.3054
 6120TIP3   OH239850   3.497   4.823  12.218  0.1848  0.0495  0.5484
 6120TIP3    H139851   3.444   4.743  12.210  1.1472 -0.8065  2.0109
 6120TIP3    H239852   3.442   4.883  12.268 -0.1630 -0.0722  0.3167
 6121TIP3   OH239853   1.969   0.179  10.598  0.7337  0.2513 -0.0098
 6121TIP3    H139854   1.948   0.174  10.505  0.3280 -2.8083  0.1446
 6121TIP3    H239855   1.885   0.198  10.641  0.1009 -2.0525 -0.0894
 6122TIP3   OH239856   2.887   1.651  12.827  0.2295  0.2927  0.8478
 6122TIP3    H139857   2.908   1.574  12.774  1.9352  1.5213 -0.3756
 6122TIP3    H239858   2.792   1.654  12.828  0.1069 -1.9222  1.0929
 6123TIP3   OH239859   2.378   4.715  11.034 -0.8008  0.0158 -0.3980
 6123TIP3    H139860   2.424   4.799  11.030  0.9076 -0.9109 -2.0867
 6123TIP3    H239861   2.397   4.674  10.950 -1.5336 -2.0968  0.4140
 6124TIP3   OH239862   3.676   5.443   3.168  0.6366 -0.0506 -0.4692
 6124TIP3    H139863   3.734   5.412   3.099  0.6316  0.1530 -0.5659
 6124TIP3    H239864   3.680   5.375   3.236 -1.4950 -1.6506 -1.8181
 6125TIP3   OH239865   5.789   1.833  13.762  0.0894 -0.1119  0.0985
 6125TIP3    H139866   5.811   1.868  13.675 -1.6633  0.6678 -0.0666
 6125TIP3    H239867   5.704   1.792  13.750  0.3988 -1.1261  1.1958
 6126TIP3   OH239868   2.162   5.668  12.978 -0.2182  0.3986 -0.2540
 6126TIP3    H139869   2.146   5.647  13.070 -0.8192 -0.6246 -0.5867
 6126TIP3    H239870   2.161   5.584  12.933  0.5979  0.8338 -1.1294
 6127TIP3   OH239871   2.362   4.740  13.828  0.0323 -0.3206 -0.2187
 6127TIP3    H139872   2.271   4.769  13.836  0.0189 -0.4250  0.0105
 6127TIP3    H239873   2.413   4.814  13.862  0.0193 -0.3711 -0.0868
 6128TIP3   OH239874   6.860   6.269  12.700  0.3577  0.0649  0.0718
 6128TIP3    H139875   6.799   6.196  12.710 -1.6759  1.5912 -0.7214
 6128TIP3    H239876   6.848   6.321  12.779 -1.2524  1.6727 -1.1657
 6129TIP3   OH239877   6.241   4.007   9.275  0.1705 -0.1410  0.3212
 6129TIP3    H139878   6.240   4.083   9.332 -0.8910 -0.7812  1.1921
 6129TIP3    H239879   6.278   3.937   9.328 -0.5261 -0.6647  0.1317
 6130TIP3   OH239880   2.130   2.883  12.160 -0.5634  0.1740 -0.3665
 6130TIP3    H139881   2.073   2.836  12.221 -1.0683  0.6835 -0.4403
 6130TIP3    H239882   2.207   2.905  12.212 -1.3078  1.2668  0.3207
 6131TIP3   OH239883   3.953   3.061  11.327 -0.1081 -0.1627  0.4350
 6131TIP3    H139884   3.962   3.156  11.341 -1.3641  0.1506 -0.6988
 6131TIP3    H239885   3.901   3.031  11.402 -0.6617  0.2474  0.2247
 6132TIP3   OH239886   3.655   4.506  14.276 -0.9619 -0.2462  0.0121
 6132TIP3    H139887   3.630   4.437  14.337  0.4833 -2.2871 -1.5287
 6132TIP3    H239888   3.578   4.519  14.221 -1.7193  0.4520  1.1899
 6133TIP3   OH239889   1.814   0.534   0.676 -0.4363 -0.0623  0.1557
 6133TIP3    H139890   1.876   0.607   0.669 -1.5772  0.9093 -0.2247
 6133TIP3    H239891   1.766   0.551   0.757  0.6077 -1.4988  1.1234
 6134TIP3   OH239892   5.750   3.889  13.423  0.6459 -0.1351  0.7705
 6134TIP3    H139893   5.666   3.936  13.423 -0.1577 -1.4552 -0.6896
 6134TIP3    H239894   5.816   3.957  13.412 -0.4966  0.7140 -1.5557
 6135TIP3   OH239895   3.269   1.318  11.430 -0.2587  0.5465  0.2432
 6135TIP3    H139896   3.236   1.374  11.360  0.6723  0.7580 -0.0361
 6135TIP3    H239897   3.364   1.319  11.420 -0.2237 -2.4068 -0.8439
 6136TIP3   OH239898   5.404   2.937  11.872  0.0743  0.1633 -0.0361
 6136TIP3    H139899   5.442   2.957  11.958 -1.5084  0.3860  0.6497
 6136TIP3    H239900   5.372   3.021  11.840 -0.4748 -0.1340 -0.2757
 6137TIP3   OH239901   5.776   0.599  10.574  0.0062 -0.2480 -0.4795
 6137TIP3    H139902   5.806   0.568  10.489 -1.5889 -0.7642 -0.8970
 6137TIP3    H239903   5.854   0.602  10.628  1.1406  0.5591 -2.0954
 6138TIP3   OH239904   0.626   2.328  13.126 -0.6112 -0.3180  0.1209
 6138TIP3    H139905   0.659   2.308  13.213  0.2012 -0.9323 -0.3159
 6138TIP3    H239906   0.539   2.366  13.141 -0.6024 -0.6946  1.1757
 6139TIP3   OH239907   5.029   4.619  10.560 -0.1580 -0.2102  0.2884
 6139TIP3    H139908   5.080   4.583  10.632 -0.8321 -3.0866 -0.5497
 6139TIP3    H239909   4.940   4.588  10.575 -0.4809 -0.1643 -1.3066
 6140TIP3   OH239910   5.314   2.161  12.794 -0.3593 -0.1375 -0.3191
 6140TIP3    H139911   5.371   2.208  12.854  0.4694  0.6321 -1.6500
 6140TIP3    H239912   5.290   2.081  12.841  1.4108 -0.2436  0.4769
 6141TIP3   OH239913   0.351   2.818  15.271 -0.3558 -0.0911  0.2298
 6141TIP3    H139914   0.416   2.825  15.342 -1.0337  0.5834  0.8031
 6141TIP3    H239915   0.275   2.867  15.303 -0.9230 -0.3368 -0.6958
 6142TIP3   OH239916   3.762   3.832   2.819  0.1603  0.2860 -0.3868
 6142TIP3    H139917   3.722   3.779   2.750  0.1481 -0.2687  0.0412
 6142TIP3    H239918   3.770   3.919   2.781 -0.4147  0.1321 -0.8754
 6143TIP3   OH239919   6.203   0.035  13.713  0.3500 -0.7447  0.2479
 6143TIP3    H139920   6.285   0.023  13.761  0.8179 -0.3700 -0.4246
 6143TIP3    H239921   6.136   0.042  13.780  1.0555  0.3021  0.8663
 6144TIP3   OH239922   3.095   6.267  11.485  0.0371  0.1630 -0.3764
 6144TIP3    H139923   3.083   6.191  11.428  2.2205 -2.0714  1.8822
 6144TIP3    H239924   3.181   6.302  11.460  0.4602 -0.0991  0.6676
 6145TIP3   OH239925   0.826   1.105   3.434  0.2159  0.0855 -0.5233
 6145TIP3    H139926   0.802   1.038   3.498  2.2735  1.1256  1.4629
 6145TIP3    H239927   0.742   1.144   3.408 -0.8694 -2.0497 -0.4121
 6146TIP3   OH239928   4.727   2.243  12.088 -0.6650 -0.0524 -0.0362
 6146TIP3    H139929   4.794   2.206  12.031  0.4572  0.8666  0.6403
 6146TIP3    H239930   4.651   2.186  12.077 -0.2821 -0.2509 -1.9718
 6147TIP3   OH239931   3.471   6.310  14.062  0.1567 -0.1900  0.4503
 6147TIP3    H139932   3.519   6.380  14.106 -0.7040 -0.0125  1.1397
 6147TIP3    H239933   3.421   6.354  13.994  1.7893 -0.5136 -1.0130
 6148TIP3   OH239934   3.111   2.980  11.739 -0.0656  0.2274  0.2096
 6148TIP3    H139935   3.148   2.911  11.684 -0.3195  0.6313 -0.4737
 6148TIP3    H239936   3.025   2.946  11.765 -0.4479  0.5439 -0.6311
 6149TIP3   OH239937   1.151   3.198   9.868 -0.0729 -0.1144  0.2713
 6149TIP3    H139938   1.203   3.268   9.906 -0.5168  0.8342 -0.8037
 6149TIP3    H239939   1.061   3.227   9.877 -0.2638 -0.5461 -0.1857
 6150TIP3   OH239940   7.153   5.342  10.233 -0.0124 -0.2829  0.5824
 6150TIP3    H139941   7.188   5.342  10.322  0.5329  0.4294  0.3840
 6150TIP3    H239942   7.193   5.265  10.192  0.1036 -0.3530  0.8229
 6151TIP3   OH239943   2.022   2.450   9.948 -0.1312 -0.3680 -0.4312
 6151TIP3    H139944   2.111   2.422   9.926 -0.2428 -0.1854 -1.1348
 6151TIP3    H239945   2.006   2.525   9.891 -0.5243 -0.0272  0.1113
 6152TIP3   OH239946   1.102   7.182  11.711  0.1807  0.2463  0.1615
 6152TIP3    H139947   1.109   7.272  11.678 -0.8744  0.6049  0.8490
 6152TIP3    H239948   1.063   7.192  11.798 -1.3270 -0.9546 -0.3304
 6153TIP3   OH239949   4.002   0.438   1.267  0.0208 -0.6538 -0.4758
 6153TIP3    H139950   4.084   0.410   1.309 -0.1294 -0.6348 -0.1702
 6153TIP3    H239951   3.987   0.372   1.198 -1.2978 -2.4263  1.4065
 6154TIP3   OH239952   0.003   7.097   1.289  0.0415  0.1179 -0.3841
 6154TIP3    H139953   0.032   7.161   1.355  0.4498 -1.8572  1.4884
 6154TIP3    H239954  -0.002   7.147   1.208  2.1982  2.0998  0.5705
 6155TIP3   OH239955   7.182   0.410  10.762  0.2587 -0.1969  0.5730
 6155TIP3    H139956   7.231   0.435  10.841  2.2682  0.1681 -0.7278
 6155TIP3    H239957   7.114   0.352  10.795  0.1536  1.0331  2.7544
 6156TIP3   OH239958   2.448   3.650  10.719  0.2770 -0.5468  0.0818
 6156TIP3    H139959   2.448   3.570  10.772  0.1439 -0.5132  0.1325
 6156TIP3    H239960   2.359   3.655  10.683  0.2890 -0.4271  0.0694
 6157TIP3   OH239961   6.236   4.011  13.716  0.5253 -0.5773  0.4865
 6157TIP3    H139962   6.218   4.105  13.708  0.7688 -0.4624  1.1874
 6157TIP3    H239963   6.151   3.971  13.732  0.6918 -0.1436  2.8945
 6158TIP3   OH239964   1.758   0.915   0.031  0.0489  0.0356 -0.1300
 6158TIP3    H139965   1.693   0.865   0.080 -1.6108  0.7309 -1.5349
 6158TIP3    H239966   1.772   0.994   0.083  1.2741 -0.9684  1.1443
 6159TIP3   OH239967   3.388   3.343   1.035  0.0053 -0.2126 -0.1956
 6159TIP3    H139968   3.372   3.436   1.050 -1.9594 -0.2656 -1.5047
 6159TIP3    H239969   3.311   3.300   1.072  0.6950 -1.3001  0.0133
 6160TIP3   OH239970   1.193   3.562  14.555  0.3804  0.2597 -0.2269
 6160TIP3    H139971   1.130   3.615  14.606 -0.2589 -1.0464  0.4103
 6160TIP3    H239972   1.237   3.625  14.498 -0.8227  1.3705  0.0142
 6161TIP3   OH239973   4.765   1.474  12.391  0.5193 -0.4072  0.2011
 6161TIP3    H139974   4.700   1.419  12.434  0.4799 -0.2154  0.3952
 6161TIP3    H239975   4.747   1.562  12.425  0.3588 -0.2157 -0.3662
 6162TIP3   OH239976   3.845   7.124  10.596 -0.0888 -0.0489  0.7608
 6162TIP3    H139977   3.903   7.049  10.609 -0.9468 -0.7884  0.4571
 6162TIP3    H239978   3.812   7.144  10.684  0.2130  0.0338  0.8563
 6163TIP3   OH239979   5.071   3.722  11.374 -0.1315 -0.2919 -0.7689
 6163TIP3    H139980   5.162   3.747  11.390 -0.4567  1.0143 -0.8543
 6163TIP3    H239981   5.025   3.805  11.363 -1.3013 -0.9426 -0.9350
 6164TIP3   OH239982   4.040   5.930  13.874  0.9253 -0.2265  0.5020
 6164TIP3    H139983   4.070   5.842  13.851  0.1197 -0.2980 -0.3586
 6164TIP3    H239984   4.022   5.926  13.968 -0.2839 -1.3500  0.2462
 6165TIP3   OH239985   1.117   3.345  13.945 -0.0947 -0.7788  0.2891
 6165TIP3    H139986   1.146   3.435  13.935 -2.4727 -0.0049 -0.1435
 6165TIP3    H239987   1.092   3.338  14.037  2.3416 -1.7897  0.9645
 6166TIP3   OH239988   4.963   1.137  11.898  0.2553 -0.0215 -0.2318
 6166TIP3    H139989   4.904   1.211  11.912 -0.4823 -0.3516 -1.4695
 6166TIP3    H239990   4.912   1.076  11.845  1.1028 -1.1065  0.1722
 6167TIP3   OH239991   1.523   2.043   1.251  0.6460  0.4336 -1.1002
 6167TIP3    H139992   1.554   2.078   1.167 -1.4263 -0.1697 -2.1956
 6167TIP3    H239993   1.472   2.114   1.289 -1.1332 -0.3158 -1.9532
 6168TIP3   OH239994   0.481   5.117  11.987  0.3616 -0.2784  0.6111
 6168TIP3    H139995   0.482   5.024  11.964 -3.0827 -0.3997  0.3314
 6168TIP3    H239996   0.525   5.161  11.915 -1.3874 -1.4427 -1.2628
 6169TIP3   OH239997   4.279   3.151  12.947 -0.0290 -0.0452 -0.0354
 6169TIP3    H139998   4.352   3.195  12.990  0.5201 -0.3128 -0.6726
 6169TIP3    H239999   4.317   3.070  12.912 -0.5264  0.0198 -0.7372
 6170TIP3   OH240000   5.655   6.775  11.752  0.0197  0.0068  0.0400
 6170TIP3    H140001   5.663   6.857  11.704 -0.8293 -0.2010 -0.4892
 6170TIP3    H240002   5.642   6.709  11.684 -0.9151 -0.3362  0.5348
 6171TIP3   OH240003   1.175   5.995   9.926 -0.5859 -0.1388 -0.1870
 6171TIP3    H140004   1.113   5.953   9.866 -0.8069 -0.1208  0.0265
 6171TIP3    H240005   1.225   5.923   9.963  0.7795 -0.0241 -1.7307
 6172TIP3   OH240006   6.658   6.107   0.349  0.3978 -0.1710 -0.3317
 6172TIP3    H140007   6.624   6.161   0.420  0.9979  0.0699 -0.2201
 6172TIP3    H240008   6.609   6.025   0.357  0.3245 -0.0822  0.2452
 6173TIP3   OH240009   5.880   5.210  10.070 -0.7167  0.4459  0.0389
 6173TIP3    H140010   5.971   5.183  10.061 -0.2414  2.1952 -1.0770
 6173TIP3    H240011   5.857   5.189  10.160  0.5625 -0.6544  0.1405
 6174TIP3   OH240012   7.008   1.655   0.403 -0.1300 -0.3665  0.0412
 6174TIP3    H140013   7.077   1.603   0.444  0.7476 -0.5660 -1.5979
 6174TIP3    H240014   7.052   1.735   0.375 -0.8966  0.1317  0.2122
 6175TIP3   OH240015   3.514   4.392  10.132 -0.2659 -0.5329 -0.6839
 6175TIP3    H140016   3.569   4.417  10.206 -1.0863  0.6814 -0.4431
 6175TIP3    H240017   3.509   4.297  10.136  0.6473 -0.5598  0.1263
 6176TIP3   OH240018   1.162   6.877  10.596  0.3851  0.0757 -0.1000
 6176TIP3    H140019   1.247   6.873  10.554  0.8984 -0.1201  0.9290
 6176TIP3    H240020   1.111   6.807  10.555  0.4073  0.7428 -1.3348
 6177TIP3   OH240021   4.810   0.174  13.723  0.1927 -0.3156 -0.3745
 6177TIP3    H140022   4.782   0.257  13.761  0.6222 -0.9839  1.5091
 6177TIP3    H240023   4.837   0.196  13.634 -0.5897  1.3786 -0.2293
 6178TIP3   OH240024   0.091   0.650  10.335  0.6826  0.3049  0.0493
 6178TIP3    H140025   0.132   0.653  10.422 -1.2645  0.3214  1.0028
 6178TIP3    H240026   0.068   0.741  10.316 -0.9340  0.0314  0.5616
 6179TIP3   OH240027   2.105   1.478  13.290 -0.1043 -0.2241 -0.8291
 6179TIP3    H140028   2.110   1.431  13.206 -0.1029 -0.2467 -0.8163
 6179TIP3    H240029   2.042   1.549  13.274 -2.5372 -2.0493  0.0303
 6180TIP3   OH240030   4.345   2.254  12.272  0.3243 -0.4098  0.1202
 6180TIP3    H140031   4.350   2.339  12.229 -1.0887 -0.3982 -0.0800
 6180TIP3    H240032   4.276   2.207  12.224  0.4371 -1.3229  0.8103
 6181TIP3   OH240033   0.336   2.053   0.775 -0.3566  0.0028 -0.2663
 6181TIP3    H140034   0.417   2.065   0.726  0.0965 -0.3452  0.3728
 6181TIP3    H240035   0.365   2.040   0.866 -1.0666 -1.0878 -0.1778
 6182TIP3   OH240036   3.087   6.075  14.695  0.3471 -0.4397 -0.3239
 6182TIP3    H140037   3.152   6.094  14.627  0.9584 -0.8563  0.1333
 6182TIP3    H240038   3.066   6.161  14.733  1.1522 -0.3710 -0.0114
 6183TIP3   OH240039   1.508   5.403   3.864 -0.3726 -0.3578  0.5204
 6183TIP3    H140040   1.413   5.396   3.849 -0.6011  3.3792 -0.7639
 6183TIP3    H240041   1.545   5.413   3.777  0.8117  1.1804  1.1615
 6184TIP3   OH240042   6.689   3.691  14.166 -0.1185 -0.0774  0.4642
 6184TIP3    H140043   6.673   3.598  14.150  1.5421 -0.2472 -0.5173
 6184TIP3    H240044   6.653   3.735  14.089 -2.3069  0.3026  1.6313
 6185TIP3   OH240045   2.070   5.541  11.227  0.0281  0.1993  0.0221
 6185TIP3    H140046   2.151   5.577  11.262  0.5738 -2.1388  1.3497
 6185TIP3    H240047   2.090   5.519  11.136  0.5455  0.5533  0.0487
 6186TIP3   OH240048   2.882   0.264   3.788 -0.0485 -0.3480  0.3253
 6186TIP3    H140049   2.862   0.181   3.744 -1.2471 -0.7067  1.4688
 6186TIP3    H240050   2.947   0.240   3.854 -1.8110 -0.8213  1.9663
 6187TIP3   OH240051   1.108   5.790  14.802  0.1993  0.1105  0.1731
 6187TIP3    H140052   1.051   5.860  14.768  2.4952  2.8538  1.5456
 6187TIP3    H240053   1.154   5.757  14.725 -0.6025  0.4076 -0.4464
 6188TIP3   OH240054   3.110   4.518  13.499  0.4109  0.0004  0.8176
 6188TIP3    H140055   3.145   4.433  13.473  1.4572  0.2407  1.3739
 6188TIP3    H240056   3.141   4.578  13.432  0.0673  0.0242  0.6791
 6189TIP3   OH240057   0.347   3.234  10.157  0.3526  0.3359  0.1262
 6189TIP3    H140058   0.405   3.267  10.088 -0.0509 -0.3609 -0.5633
 6189TIP3    H240059   0.263   3.223  10.113  0.2060 -0.5447  0.6167
 6190TIP3   OH240060   1.091   4.959   1.511  0.3069  0.2302 -0.4438
 6190TIP3    H140061   1.150   4.972   1.586  0.4421  1.2111 -0.7152
 6190TIP3    H240062   1.050   4.874   1.528  1.2202 -0.1098  0.1465
 6191TIP3   OH240063   2.053   5.887  11.813  0.1785 -0.4952  0.4276
 6191TIP3    H140064   2.075   5.870  11.722  0.4320  0.5980  0.2734
 6191TIP3    H240065   2.115   5.832  11.863  0.5325 -0.5331 -0.0434
 6192TIP3   OH240066   4.634   3.421  11.210 -0.5338 -0.3262  0.0476
 6192TIP3    H140067   4.565   3.443  11.272  0.1334  1.5285  0.1891
 6192TIP3    H240068   4.696   3.493  11.216  1.0738 -1.5776 -0.5975
 6193TIP3   OH240069   3.759   7.065   9.622  0.4253 -0.3345  0.2031
 6193TIP3    H140070   3.813   7.131   9.577  0.0815  1.0692  1.7335
 6193TIP3    H240071   3.792   6.981   9.591  1.5151  0.5480 -1.1220
 6194TIP3   OH240072   0.043   1.423  12.246  0.6216 -0.1144  0.0851
 6194TIP3    H140073  -0.039   1.375  12.232  0.3463 -0.0841  1.4684
 6194TIP3    H240074   0.069   1.451  12.158 -1.0593  0.2086 -0.3564
 6195TIP3   OH240075   2.558   3.503   1.990  0.7064 -0.7991 -0.2210
 6195TIP3    H140076   2.643   3.501   1.947  0.2720 -0.9749 -1.0882
 6195TIP3    H240077   2.501   3.549   1.929 -0.3771 -2.6575 -0.6796
 6196TIP3   OH240078   6.034   6.833  10.419 -0.0021  0.1274 -0.1640
 6196TIP3    H140079   6.090   6.872  10.352  2.4461 -2.5101  0.1670
 6196TIP3    H240080   5.975   6.775  10.370  0.5533 -0.4067 -0.2182
 6197TIP3   OH240081   2.345   5.803  11.755  0.2507 -0.1644 -0.5739
 6197TIP3    H140082   2.403   5.878  11.769 -0.0119 -0.0597 -0.0165
 6197TIP3    H240083   2.388   5.752  11.687  0.6798  0.2381 -0.6110
 6198TIP3   OH240084   1.644   3.179   1.182 -0.1134 -0.4845 -0.2003
 6198TIP3    H140085   1.577   3.232   1.138 -0.5116  0.1564  1.1352
 6198TIP3    H240086   1.696   3.143   1.110 -0.3920  0.9727 -1.1893
 6199TIP3   OH240087   2.696   5.182  13.092  0.2235 -0.1066 -0.4100
 6199TIP3    H140088   2.673   5.130  13.169  0.0127 -1.0035 -1.0625
 6199TIP3    H240089   2.631   5.157  13.026 -0.6855  1.9271 -0.3612
 6200TIP3   OH240090   1.945   4.667   0.678  0.2901  0.0661 -0.2530
 6200TIP3    H140091   2.021   4.722   0.659  0.6800 -0.0310  0.9160
 6200TIP3    H240092   1.877   4.729   0.705  0.4150  0.0573  0.0913
 6201TIP3   OH240093   3.042   6.239   2.251  0.6916 -0.0823  0.7730
 6201TIP3    H140094   2.980   6.186   2.202  0.2611 -0.4376  1.6745
 6201TIP3    H240095   2.989   6.289   2.313  0.8903  2.7853 -1.1878
 6202TIP3   OH240096   4.513   2.800   9.713 -0.6354  0.2903  0.5258
 6202TIP3    H140097   4.427   2.841   9.703 -0.6259  0.0226 -0.8732
 6202TIP3    H240098   4.506   2.746   9.792 -1.6166  0.5665  0.6346
 6203TIP3   OH240099   1.050   0.550  14.518  0.1354  0.2212 -0.4058
 6203TIP3    H140100   1.133   0.501  14.520 -0.0394 -0.0515  0.5034
 6203TIP3    H240101   1.073   0.637  14.549 -0.1124 -0.1795  0.9616
 6204TIP3   OH240102   2.612   1.406   0.539  0.0264  0.2638 -0.3660
 6204TIP3    H140103   2.618   1.311   0.529 -0.6930 -0.2450  2.9493
 6204TIP3    H240104   2.539   1.432   0.482 -1.2778 -1.5409  0.3918
 6205TIP3   OH240105   3.861   4.743  10.670  0.0077 -0.4343  0.5075
 6205TIP3    H140106   3.946   4.766  10.708 -0.2319 -0.7473  1.2423
 6205TIP3    H240107   3.816   4.827  10.662  0.9601 -0.0587 -1.3485
 6206TIP3   OH240108   6.364   0.267  10.207  0.1211 -0.6264  0.0502
 6206TIP3    H140109   6.277   0.286  10.174  0.0763 -0.0202  0.5040
 6206TIP3    H240110   6.381   0.176  10.181  0.2969 -0.0337 -2.0672
 6207TIP3   OH240111   2.777   5.360  13.486 -0.1839 -0.3553 -0.3342
 6207TIP3    H140112   2.851   5.374  13.546 -0.7630 -1.2205  0.6097
 6207TIP3    H240113   2.809   5.391  13.401  0.1916  2.1964  0.6425
 6208TIP3   OH240114   6.904   6.284  11.540 -0.3475 -0.4228  0.0680
 6208TIP3    H140115   6.902   6.375  11.509  0.0791 -0.3267  0.3137
 6208TIP3    H240116   6.873   6.289  11.630  0.5215 -0.3913  0.3770
 6209TIP3   OH240117   1.013   3.998   1.106  0.2452  0.3615  0.3330
 6209TIP3    H140118   0.943   4.019   1.045  0.1129  0.4218  0.5059
 6209TIP3    H240119   0.973   4.004   1.193  0.0121 -1.2876  0.3664
 6210TIP3   OH240120   5.910   4.413  13.967  0.0154  0.8448  0.4568
 6210TIP3    H140121   5.969   4.486  13.986  0.5730  0.2563  0.9890
 6210TIP3    H240122   5.822   4.449  13.981  0.3429  0.8262  2.8360
 6211TIP3   OH240123   3.807   7.186  12.660 -0.2947  0.1202 -0.3369
 6211TIP3    H140124   3.769   7.206  12.746 -0.3977 -2.0427  0.1703
 6211TIP3    H240125   3.782   7.261  12.606 -1.2078  1.0081  1.2095
 6212TIP3   OH240126   7.216   3.408  12.999  0.2753 -0.1662  0.2243
 6212TIP3    H140127   7.168   3.351  12.939  0.6398 -1.3260  0.9965
 6212TIP3    H240128   7.276   3.349  13.046  2.0695  1.1490 -0.3156
 6213TIP3   OH240129   5.386   0.263   9.313 -0.0791 -0.2221 -0.1390
 6213TIP3    H140130   5.352   0.234   9.397 -0.0354 -0.2960 -0.1471
 6213TIP3    H240131   5.456   0.325   9.335  0.4748 -0.8485 -0.1150
 6214TIP3   OH240132   6.076   4.516  14.782 -0.1442  0.2781 -0.3663
 6214TIP3    H140133   6.159   4.468  14.776 -0.0242  0.6539 -2.2357
 6214TIP3    H240134   6.100   4.607  14.767 -0.8228  0.4747 -0.2767
 6215TIP3   OH240135   2.423   2.032  12.345 -0.0598 -0.5323 -0.0855
 6215TIP3    H140136   2.416   2.126  12.331 -1.8394 -0.7673 -1.0768
 6215TIP3    H240137   2.435   1.995  12.257  3.7750 -1.1137  0.4877
 6216TIP3   OH240138   5.164   4.243   9.973 -0.2198 -0.0834  0.1454
 6216TIP3    H140139   5.179   4.327  10.015 -1.0919 -0.7365  1.8378
 6216TIP3    H240140   5.201   4.253   9.885 -0.9175  2.2807  0.0615
 6217TIP3   OH240141   5.672   2.211  13.761  0.0864  0.0868  0.2546
 6217TIP3    H140142   5.640   2.127  13.728  0.1533  0.5719 -1.1245
 6217TIP3    H240143   5.599   2.272  13.749 -0.1142  0.1640  1.6447
 6218TIP3   OH240144   0.663   5.287  14.494  0.1883 -0.2802 -0.0610
 6218TIP3    H140145   0.627   5.357  14.440  2.5685  1.1172  0.0309
 6218TIP3    H240146   0.600   5.277  14.566 -2.2490 -1.1267 -2.1872
 6219TIP3   OH240147   5.516   3.526  13.284  0.1985  0.1777 -0.2155
 6219TIP3    H140148   5.601   3.490  13.258 -0.8813 -1.4382 -1.8178
 6219TIP3    H240149   5.460   3.512  13.207 -1.7401  0.3885  1.0832
 6220TIP3   OH240150   1.282   5.774  11.670 -0.2879  0.2777 -0.3804
 6220TIP3    H140151   1.360   5.822  11.697  0.3892 -0.8411 -0.2614
 6220TIP3    H240152   1.214   5.840  11.663  0.2354  1.0275  1.2209
 6221TIP3   OH240153   6.138   5.122  14.003  0.0705 -0.4073 -0.3213
 6221TIP3    H140154   6.058   5.098  14.048 -0.4698  1.5823 -0.1262
 6221TIP3    H240155   6.119   5.109  13.910 -1.0786  1.5256 -0.4046
 6222TIP3   OH240156   5.495   4.644  15.172  0.3448  0.2981 -0.5111
 6222TIP3    H140157   5.577   4.667  15.128  0.2525  1.2123 -0.2241
 6222TIP3    H240158   5.498   4.691  15.255  0.6756 -1.6681  0.6601
 6223TIP3   OH240159   6.150   5.864  15.032  0.3279  0.2118  0.4031
 6223TIP3    H140160   6.140   5.784  15.084  0.2558  1.3541  2.2522
 6223TIP3    H240161   6.245   5.878  15.028  0.3214  0.3010  0.5372
 6224TIP3   OH240162   0.180   2.318  10.756 -0.2362  0.0596 -0.2833
 6224TIP3    H140163   0.268   2.294  10.786 -0.1190  0.2559 -0.4763
 6224TIP3    H240164   0.150   2.242  10.706  0.2505  0.4214 -1.1427
 6225TIP3   OH240165   4.119   0.250   1.727  0.1056 -0.7750 -0.0705
 6225TIP3    H140166   4.173   0.290   1.795  0.6876 -1.1483 -0.2991
 6225TIP3    H240167   4.170   0.175   1.697  0.3986  0.0003 -1.6770
 6226TIP3   OH240168   3.763   1.893  10.137 -0.3798  0.0040 -0.1997
 6226TIP3    H140169   3.775   1.860  10.048 -0.4396  0.3013 -0.3208
 6226TIP3    H240170   3.760   1.988  10.127 -0.4647  0.0361  0.1114
 6227TIP3   OH240171   3.351   5.012  12.409 -0.3032 -0.0280  0.4055
 6227TIP3    H140172   3.261   5.011  12.442 -0.5402  1.9757 -0.0488
 6227TIP3    H240173   3.368   5.104  12.389  1.9370 -0.3377  0.6858
 6228TIP3   OH240174   5.904   5.461   9.733  0.2486  0.0843 -0.5745
 6228TIP3    H140175   6.000   5.454   9.735  0.4017  1.8581  0.3571
 6228TIP3    H240176   5.888   5.554   9.719 -1.3239  0.2551  1.8685
 6229TIP3   OH240177   6.236   4.210   9.458 -0.1126 -0.2689 -0.4666
 6229TIP3    H140178   6.294   4.219   9.534  0.7240  2.2146 -1.3118
 6229TIP3    H240179   6.194   4.295   9.450  0.5780 -0.1049 -3.3232
 6230TIP3   OH240180   0.953   4.807  10.944 -0.1378  0.2363 -0.0917
 6230TIP3    H140181   0.972   4.717  10.919  0.0527 -0.7860  3.2480
 6230TIP3    H240182   0.880   4.800  11.005  1.9812  1.8393  2.9024
 6231TIP3   OH240183   3.121   1.661  12.947 -0.4877 -0.2660 -0.0803
 6231TIP3    H140184   3.036   1.651  12.905 -0.2746 -1.9930 -0.1688
 6231TIP3    H240185   3.171   1.585  12.918  1.0392  0.6342  0.1001
 6232TIP3   OH240186   2.293   2.007   0.227  0.4711  0.3098 -0.2781
 6232TIP3    H140187   2.288   2.075   0.295 -2.4107 -0.8330  0.7988
 6232TIP3    H240188   2.336   1.933   0.271 -0.4959 -0.0876  0.0195
 6233TIP3   OH240189   0.847   6.986  13.566 -0.1341  0.0619  0.4158
 6233TIP3    H140190   0.918   6.963  13.506 -0.5586  1.0012 -0.4786
 6233TIP3    H240191   0.815   6.902  13.599  0.7745 -0.4162  0.1040
 6234TIP3   OH240192   3.669   2.319  10.604  0.3810 -0.5608 -0.1170
 6234TIP3    H140193   3.628   2.353  10.524  0.9290  0.1919 -0.0914
 6234TIP3    H240194   3.611   2.248  10.633 -0.2057 -0.3635 -0.7808
 6235TIP3   OH240195   6.237   2.942  15.121 -0.3857  0.4102  0.7246
 6235TIP3    H140196   6.247   2.912  15.030 -2.1444  1.4809  0.1230
 6235TIP3    H240197   6.299   2.889  15.171 -0.6991 -1.5465 -0.8253
 6236TIP3   OH240198   6.362   0.768  15.220 -0.3524 -0.3773 -0.3102
 6236TIP3    H140199   6.280   0.783  15.267  0.3663 -0.6681  1.0820
 6236TIP3    H240200   6.360   0.830  15.147 -1.1367  0.6523  0.5574
 6237TIP3   OH240201   5.573   5.935  10.051  0.0749 -0.2190 -0.2863
 6237TIP3    H140202   5.660   5.899  10.032 -0.5985 -0.7226 -2.7099
 6237TIP3    H240203   5.522   5.917   9.972 -1.8827  1.1990  0.5889
 6238TIP3   OH240204   2.612   0.886  10.412  0.1618 -0.2596 -0.1779
 6238TIP3    H140205   2.693   0.934  10.430  1.6029 -2.2547 -0.9939
 6238TIP3    H240206   2.635   0.794  10.426 -2.4343 -0.8129  1.1334
 6239TIP3   OH240207   5.700   7.204  13.321 -0.0619 -0.1928 -0.0937
 6239TIP3    H140208   5.612   7.238  13.335  0.5976  1.2653  0.8621
 6239TIP3    H240209   5.752   7.244  13.391  1.2579 -1.4245 -0.3233
 6240TIP3   OH240210   4.636   1.641   1.244 -0.6614 -0.1533  0.2872
 6240TIP3    H140211   4.567   1.584   1.277  0.7789 -2.5500 -0.6296
 6240TIP3    H240212   4.591   1.724   1.226 -2.9217 -1.0709  1.2781
 6241TIP3   OH240213   4.523   3.760   9.755  0.7295  0.1724 -0.0581
 6241TIP3    H140214   4.502   3.685   9.699  1.6300 -0.2578  0.1618
 6241TIP3    H240215   4.588   3.726   9.817 -0.0125  0.7122  1.0556
 6242TIP3   OH240216   5.042   4.610  12.526  0.3346  0.3514 -0.0140
 6242TIP3    H140217   5.002   4.605  12.613  0.4655 -1.2997 -0.0119
 6242TIP3    H240218   5.132   4.578  12.539  0.3027 -0.0785 -0.7613
 6243TIP3   OH240219   2.985   1.944  12.834 -0.0549  0.5394  0.0029
 6243TIP3    H140220   2.975   1.850  12.821  0.4472  0.3969  0.6155
 6243TIP3    H240221   3.071   1.965  12.799 -0.3207  0.8499 -0.4890
 6244TIP3   OH240222   1.410   4.985  11.967  0.1148  0.0308  0.2830
 6244TIP3    H140223   1.427   5.079  11.959 -1.0322  0.4000  1.7184
 6244TIP3    H240224   1.495   4.944  11.954  0.7649  1.3112  0.2902
 6245TIP3   OH240225   5.815   0.567  12.675  0.5046  0.0918  0.1667
 6245TIP3    H140226   5.873   0.522  12.737  1.1901 -1.6251 -1.6114
 6245TIP3    H240227   5.873   0.626  12.627  0.1627  0.6974  0.4920
 6246TIP3   OH240228   5.543   0.189  12.005 -0.5830  0.5517 -0.1637
 6246TIP3    H140229   5.558   0.130  12.079  1.9541 -0.8419 -1.6774
 6246TIP3    H240230   5.608   0.258  12.016 -0.4109  0.5144 -0.8920
 6247TIP3   OH240231   3.733   3.131  10.610  0.3319 -0.0869  0.1715
 6247TIP3    H140232   3.714   3.183  10.688  0.3759 -0.2501  0.2911
 6247TIP3    H240233   3.647   3.110  10.573  0.2794  2.7275 -1.6662
 6248TIP3   OH240234   1.218   5.497  13.375  0.0488 -0.1499 -0.1818
 6248TIP3    H140235   1.173   5.432  13.430 -0.1416 -0.9273 -1.2207
 6248TIP3    H240236   1.148   5.548  13.336  0.1403 -0.1943 -0.4067
 6249TIP3   OH240237   3.565   5.230  10.292 -0.4414  0.3265 -0.2669
 6249TIP3    H140238   3.630   5.161  10.308  0.0961  0.7015 -0.7790
 6249TIP3    H240239   3.497   5.186  10.240 -1.0989 -0.3117  1.0660
 6250TIP3   OH240240   3.537   6.261  13.648  0.7668  0.2233 -0.0982
 6250TIP3    H140241   3.547   6.253  13.553 -0.1303  0.3198 -0.2073
 6250TIP3    H240242   3.493   6.180  13.674 -0.7041  1.0071 -0.0415
 6251TIP3   OH240243   2.578   1.216   4.416 -0.2038  0.7574  0.2934
 6251TIP3    H140244   2.598   1.264   4.496  2.4138 -2.7142  2.0288
 6251TIP3    H240245   2.502   1.162   4.438 -0.8049  1.3482 -0.3171
 6252TIP3   OH240246   4.815   0.570   0.244  0.4533  0.1295  0.0772
 6252TIP3    H140247   4.760   0.606   0.174 -0.7151  1.7893  1.7661
 6252TIP3    H240248   4.872   0.643   0.268 -0.8050  0.4261  2.4367
 6253TIP3   OH240249   1.414   5.880  11.185  0.0523  0.6853  0.5199
 6253TIP3    H140250   1.457   5.934  11.119 -0.6150  0.1493 -0.3736
 6253TIP3    H240251   1.456   5.794  11.177 -1.0662  0.1855 -0.2886
 6254TIP3   OH240252   2.055   7.177  13.069 -0.1040  0.2132 -0.2071
 6254TIP3    H140253   2.050   7.082  13.070  1.1459  0.1342  0.7758
 6254TIP3    H240254   2.083   7.199  12.980 -1.6212 -0.2259 -0.8310
 6255TIP3   OH240255   1.821   3.923   4.294 -0.3047 -0.5304 -0.4782
 6255TIP3    H140256   1.810   4.007   4.250  1.8362  1.3878  2.3271
 6255TIP3    H240257   1.854   3.945   4.380 -4.1645 -3.9912  2.2762
 6256TIP3   OH240258   6.489   4.802   0.389  0.2093 -0.1046  0.2354
 6256TIP3    H140259   6.506   4.746   0.312  0.2136  1.0582 -0.6319
 6256TIP3    H240260   6.394   4.814   0.389 -0.0611 -1.8469  1.6949
 6257TIP3   OH240261   5.626   3.321  10.294 -0.0143 -0.1845 -0.0919
 6257TIP3    H140262   5.625   3.356  10.205 -1.9136  1.5825  0.5544
 6257TIP3    H240263   5.708   3.355  10.332  1.3714 -1.8546 -1.4192
 6258TIP3   OH240264   0.091   0.536  12.237 -0.0202 -0.2519 -0.2401
 6258TIP3    H140265   0.003   0.569  12.218  0.7451  1.1674 -1.5008
 6258TIP3    H240266   0.133   0.606  12.286  1.1634  0.1062 -1.6957
 6259TIP3   OH240267   4.349   6.809  10.207 -0.6858 -0.3654  0.1020
 6259TIP3    H140268   4.381   6.755  10.134  1.2760  0.5879  0.1852
 6259TIP3    H240269   4.356   6.899  10.175 -2.2810 -0.0434  0.5778
 6260TIP3   OH240270   0.033   5.521  12.103 -0.1353 -0.2988  0.7576
 6260TIP3    H140271   0.049   5.491  12.013 -1.5680 -1.2734  0.7840
 6260TIP3    H240272  -0.053   5.561  12.100 -0.2453 -0.4315  1.7138
 6261TIP3   OH240273   2.660   2.493  12.368 -0.2462 -0.2167  0.5295
 6261TIP3    H140274   2.581   2.542  12.345 -0.7067 -1.0832  0.2085
 6261TIP3    H240275   2.725   2.560  12.387 -1.5181  0.5380  2.5228
 6262TIP3   OH240276   0.378   4.678  13.898  0.0958  0.2418 -0.5690
 6262TIP3    H140277   0.284   4.692  13.884 -0.0940 -0.7998 -0.4771
 6262TIP3    H240278   0.407   4.635  13.817  0.9220  2.2912 -1.4118
 6263TIP3   OH240279   6.607   5.770  12.320 -0.1636 -0.1727 -0.1271
 6263TIP3    H140280   6.616   5.766  12.225 -1.9311  1.2755 -0.4177
 6263TIP3    H240281   6.628   5.860  12.343 -0.5415 -0.2958  0.7554
 6264TIP3   OH240282   6.720   5.846  10.344  0.3978 -0.1328 -0.1399
 6264TIP3    H140283   6.702   5.940  10.350  0.2597 -0.1958  0.5861
 6264TIP3    H240284   6.636   5.805  10.368  1.0195 -0.4358  1.6528
 6265TIP3   OH240285   2.571   2.543  12.831 -0.0846 -0.4149  0.3077
 6265TIP3    H140286   2.533   2.610  12.889 -2.0585 -1.5339  0.3943
 6265TIP3    H240287   2.660   2.573  12.816 -0.3045  1.2387  1.8838
 6266TIP3   OH240288   3.868   6.915  12.619  0.3831 -0.7365 -0.2019
 6266TIP3    H140289   3.838   6.859  12.691  0.0001 -0.8778 -0.4709
 6266TIP3    H240290   3.834   7.002  12.641  1.7989 -0.3735  0.7272
 6267TIP3   OH240291   0.119   2.307   1.714  0.4692  0.4027  0.1844
 6267TIP3    H140292   0.157   2.273   1.633 -0.0715  0.1814  0.0189
 6267TIP3    H240293   0.150   2.397   1.720  1.1487  0.1795  0.1391
 6268TIP3   OH240294   6.488   7.145   4.210 -0.1545  0.0415  0.4890
 6268TIP3    H140295   6.402   7.106   4.199  0.5657 -1.5000  0.0915
 6268TIP3    H240296   6.524   7.151   4.121  0.2813  0.3426  0.6800
 6269TIP3   OH240297   5.814   0.993  14.383  0.0557  0.1334  0.3714
 6269TIP3    H140298   5.808   0.912  14.332 -0.8540 -0.2535  1.0851
 6269TIP3    H240299   5.848   1.058  14.321  2.4316 -1.1636  0.2109
 6270TIP3   OH240300   4.848   7.114  12.593  0.3568  0.0380  0.0292
 6270TIP3    H140301   4.871   7.044  12.532 -0.0218 -0.2583  0.2175
 6270TIP3    H240302   4.826   7.068  12.674  2.8450  0.5119  1.0692
 6271TIP3   OH240303   0.271   6.036   0.194 -0.1955  0.4172  0.3589
 6271TIP3    H140304   0.193   6.037   0.250  0.0706 -2.1257  0.9002
 6271TIP3    H240305   0.345   6.033   0.254  0.0725 -3.2611  0.0735
 6272TIP3   OH240306   5.346   2.389  12.978 -0.1144 -0.2774  0.4054
 6272TIP3    H140307   5.438   2.404  12.960 -0.3509 -1.0141 -1.6269
 6272TIP3    H240308   5.301   2.409  12.896 -1.5381 -1.8113  0.7400
 6273TIP3   OH240309   3.153   2.754  11.583  0.5264  0.4443 -0.2585
 6273TIP3    H140310   3.173   2.744  11.490  0.1257  1.1742 -0.4274
 6273TIP3    H240311   3.221   2.703  11.628 -1.0391 -2.6007 -1.0283
 6274TIP3   OH240312   0.912   5.577  10.742 -0.2639 -0.4737  0.0378
 6274TIP3    H140313   0.944   5.535  10.822 -0.0653 -0.7870 -0.2046
 6274TIP3    H240314   0.992   5.597  10.692 -0.3643  0.0548  0.0837
 6275TIP3   OH240315   7.102   3.273  12.796 -0.3922  0.0655 -0.3230
 6275TIP3    H140316   7.070   3.363  12.789  2.0530  1.6689  4.1858
 6275TIP3    H240317   7.051   3.235  12.867  1.3270 -0.4994  0.6923
 6276TIP3   OH240318   5.563   1.987  12.101  0.2462  0.0909  0.0968
 6276TIP3    H140319   5.587   1.895  12.097  0.1501  0.0779 -0.1905
 6276TIP3    H240320   5.469   1.987  12.119  0.5414  0.1440  1.7607
 6277TIP3   OH240321   2.520   0.105  14.664  0.2154  0.1496  0.1876
 6277TIP3    H140322   2.613   0.105  14.641 -0.4434 -0.7231 -2.8483
 6277TIP3    H240323   2.474   0.104  14.581 -2.5373 -0.5000  1.5874
 6278TIP3   OH240324   0.787   5.651   0.664 -0.3304  0.3497  0.4633
 6278TIP3    H140325   0.869   5.647   0.712  1.0526 -0.3631 -1.8088
 6278TIP3    H240326   0.740   5.572   0.690  0.6157 -0.2902  0.2837
 6279TIP3   OH240327   3.676   5.426  11.520  0.5021  0.1591  0.8043
 6279TIP3    H140328   3.683   5.354  11.582 -0.9789  0.7418  1.6987
 6279TIP3    H240329   3.622   5.491  11.564 -0.1304  0.8383 -0.8779
 6280TIP3   OH240330   4.859   5.537   2.856 -0.1438 -0.2900  0.5282
 6280TIP3    H140331   4.862   5.479   2.932 -1.4793 -1.5913 -0.3721
 6280TIP3    H240332   4.779   5.589   2.868 -0.4147 -0.5725 -0.0349
 6281TIP3   OH240333   1.501   0.892  14.516 -0.0520 -0.3764 -0.0638
 6281TIP3    H140334   1.504   0.875  14.610  0.3870 -0.1881 -0.0424
 6281TIP3    H240335   1.521   0.985  14.508 -0.5893 -0.2778 -0.3095
 6282TIP3   OH240336   6.955   6.595  11.511  0.4412  0.6851 -0.3104
 6282TIP3    H140337   7.003   6.619  11.432 -0.3262 -0.1438 -1.0483
 6282TIP3    H240338   7.022   6.585  11.579  1.1938  0.5506 -1.0694
 6283TIP3   OH240339   1.695   4.063  10.398 -0.1330  0.0844 -0.2314
 6283TIP3    H140340   1.726   4.100  10.481 -1.4211 -0.4384  0.5057
 6283TIP3    H240341   1.756   4.098  10.333 -0.3326  2.1909  0.6353
 6284TIP3   OH240342   1.074   0.295  15.398 -0.4493  0.1898 -0.4033
 6284TIP3    H140343   1.031   0.229  15.344  0.1591 -0.7013  0.1780
 6284TIP3    H240344   1.079   0.372  15.342 -2.6724  0.2963 -0.5380
 6285TIP3   OH240345   5.771   3.141  11.535  0.3425  0.5548  0.6304
 6285TIP3    H140346   5.693   3.138  11.590 -0.1317  2.9267  0.2397
 6285TIP3    H240347   5.747   3.093  11.456  0.1981 -0.8597  1.5070
 6286TIP3   OH240348   4.476   2.864  10.387  0.2099 -0.3957  0.1650
 6286TIP3    H140349   4.475   2.857  10.483 -2.2016 -0.2453  0.2307
 6286TIP3    H240350   4.451   2.955  10.370 -0.4155 -0.6937 -0.5874
 6287TIP3   OH240351   3.659   6.246  11.629 -0.0890 -0.3454  0.5070
 6287TIP3    H140352   3.628   6.287  11.710  1.0226 -0.7033  1.1384
 6287TIP3    H240353   3.727   6.185  11.658  0.0405 -0.7714 -0.6659
 6288TIP3   OH240354   2.439   4.765   1.904 -0.0318  0.1568  0.6560
 6288TIP3    H140355   2.401   4.680   1.928 -0.6524 -0.0581 -0.9598
 6288TIP3    H240356   2.492   4.790   1.979 -1.6063 -0.6110  2.0879
 6289TIP3   OH240357   3.799   7.142   9.886  0.4488  0.1082 -0.1641
 6289TIP3    H140358   3.784   7.112   9.796 -0.4342 -1.1157  0.3531
 6289TIP3    H240359   3.878   7.195   9.881 -0.1709  0.9468 -1.8436
 6290TIP3   OH240360   4.229   3.272  12.698  0.3928 -0.3569 -0.5378
 6290TIP3    H140361   4.247   3.232  12.783 -1.2519 -1.7158 -0.7777
 6290TIP3    H240362   4.138   3.301  12.704 -0.1615 -1.6017 -2.2324
 6291TIP3   OH240363   6.694   3.693  10.350 -0.5667 -0.0015 -0.4818
 6291TIP3    H140364   6.769   3.744  10.378 -0.8620 -0.5238  1.3899
 6291TIP3    H240365   6.664   3.736  10.269  1.7828  0.1190 -1.3674
 6292TIP3   OH240366   0.041   2.416  12.147  0.2320 -0.3818 -0.3996
 6292TIP3    H140367   0.082   2.354  12.208 -0.0628 -0.7580 -0.5790
 6292TIP3    H240368   0.087   2.499  12.162  2.9498 -1.3712 -2.4315
 6293TIP3   OH240369   5.637   5.521  13.614  0.5903  0.4120 -0.3562
 6293TIP3    H140370   5.587   5.463  13.672  0.5262  0.0697 -0.7467
 6293TIP3    H240371   5.703   5.465  13.575  0.6121  0.6314 -0.6383
 6294TIP3   OH240372   0.510   2.234  12.709 -0.0211 -0.0728  0.7853
 6294TIP3    H140373   0.510   2.218  12.615  1.4741  0.1423  0.7186
 6294TIP3    H240374   0.506   2.147  12.748  2.6344 -0.4455  0.4572
 6295TIP3   OH240375   0.087   3.953   1.346  0.3251 -0.1468  0.1148
 6295TIP3    H140376   0.057   3.971   1.257  0.9120 -1.1326 -0.2969
 6295TIP3    H240377   0.090   4.039   1.388 -1.3699  0.1659 -0.3549
 6296TIP3   OH240378   2.366   5.408  11.073 -0.1666  0.3513 -0.1407
 6296TIP3    H140379   2.350   5.315  11.090 -0.0080  0.2385 -0.5919
 6296TIP3    H240380   2.284   5.440  11.036 -0.5845  0.6479  1.0057
 6297TIP3   OH240381   3.491   5.229  11.094  0.2270 -0.4125  0.4042
 6297TIP3    H140382   3.416   5.170  11.089  0.3176 -0.5396  0.5422
 6297TIP3    H240383   3.539   5.200  11.171  0.6347 -0.5877  0.0866
 6298TIP3   OH240384   4.513   7.139   4.869  0.7482  0.1554  0.1561
 6298TIP3    H140385   4.562   7.063   4.838  2.2197  0.8355  0.7377
 6298TIP3    H240386   4.445   7.102   4.926  1.6261 -0.7137  0.6733
 6299TIP3   OH240387   0.535   6.718   0.892 -0.5305 -0.3522 -0.2337
 6299TIP3    H140388   0.584   6.798   0.872 -0.3187 -0.5001 -0.3079
 6299TIP3    H240389   0.470   6.712   0.823 -1.6505  0.6507  0.6871
 6300TIP3   OH240390   2.404   0.860   0.344  0.3457 -0.7467 -0.1638
 6300TIP3    H140391   2.412   0.790   0.409  0.8511 -0.2913  0.2738
 6300TIP3    H240392   2.400   0.815   0.260 -4.4381 -1.6661  0.2940
 6301TIP3   OH240393   3.684   2.039  12.478  0.8038  0.9300  0.3137
 6301TIP3    H140394   3.671   2.026  12.384  1.1357 -1.3498  0.5264
 6301TIP3    H240395   3.608   2.091  12.505 -2.7201 -3.2502 -0.2892
 6302TIP3   OH240396   5.602   2.946  13.186 -0.2883 -0.0132 -0.3748
 6302TIP3    H140397   5.568   2.945  13.275  0.4192  0.2531 -0.0912
 6302TIP3    H240398   5.559   3.021  13.145  1.0029  1.2106  0.4188
 6303TIP3   OH240399   4.389   6.523  10.392  0.2440 -0.0512  0.3285
 6303TIP3    H140400   4.460   6.465  10.367  1.0519  0.3790  1.5283
 6303TIP3    H240401   4.414   6.609  10.359 -0.1514 -0.0546  0.0017
 6304TIP3   OH240402   0.061   2.207  12.922  0.5162  0.1352 -0.3558
 6304TIP3    H140403   0.064   2.219  12.827  0.1175 -0.9118 -0.5190
 6304TIP3    H240404   0.004   2.131  12.935 -0.8189  1.2625  0.8223
 6305TIP3   OH240405   2.843   5.012  15.332 -0.5101  0.4550 -0.8287
 6305TIP3    H140406   2.768   5.071  15.319 -1.0023 -0.5593 -2.8633
 6305TIP3    H240407   2.820   4.961  15.410 -1.0382  1.4412 -0.3098
 6306TIP3   OH240408   1.356   3.836  14.126  0.3144 -0.0600  0.1646
 6306TIP3    H140409   1.300   3.913  14.124  0.2054 -0.1502 -0.2655
 6306TIP3    H240410   1.405   3.839  14.044 -0.4427 -1.0077 -0.3432
 6307TIP3   OH240411   1.360   5.686  14.048 -0.5110 -0.0392  0.0746
 6307TIP3    H140412   1.308   5.713  13.972 -1.4239  1.1369  1.0801
 6307TIP3    H240413   1.424   5.756  14.061  0.4272 -0.8034 -0.2981
 6308TIP3   OH240414   6.722   5.383  10.240  0.1443 -0.1001 -0.5097
 6308TIP3    H140415   6.783   5.311  10.255  0.4400 -0.4135 -2.7633
 6308TIP3    H240416   6.778   5.460  10.231  0.0735 -0.0745 -0.7512
 6309TIP3   OH240417   4.963   1.590  13.948 -0.2471  0.0873 -0.0426
 6309TIP3    H140418   5.041   1.555  13.992 -1.0234 -0.3412  1.0380
 6309TIP3    H240419   4.978   1.573  13.855  0.6690 -0.5575  0.2079
 6310TIP3   OH240420   6.912   1.659   1.675  0.0435  0.4281  0.1733
 6310TIP3    H140421   7.005   1.639   1.666  0.4745  2.8310 -1.7164
 6310TIP3    H240422   6.908   1.724   1.745 -0.1541  0.5983  0.0065
 6311TIP3   OH240423   3.420   0.686   2.114 -0.6573 -0.0837 -0.0775
 6311TIP3    H140424   3.455   0.611   2.162 -0.2663  0.6039  0.7312
 6311TIP3    H240425   3.494   0.745   2.104 -1.1517  0.5655  0.0188
 6312TIP3   OH240426   2.529   0.694   1.111 -0.0254 -0.4305 -0.0719
 6312TIP3    H140427   2.493   0.671   1.197 -0.0520 -1.7160 -0.4104
 6312TIP3    H240428   2.555   0.786   1.120  0.9493 -0.8401  1.6371
 6313TIP3   OH240429   0.853   4.617  11.300  0.0943  0.2635  0.1848
 6313TIP3    H140430   0.859   4.610  11.395  1.0023 -0.3812  0.0970
 6313TIP3    H240431   0.906   4.544  11.267  1.1622  1.4218 -0.8073
 6314TIP3   OH240432   4.795   3.128  12.420  0.3785 -0.2678  0.1990
 6314TIP3    H140433   4.754   3.041  12.423  1.2226 -0.6647  1.1719
 6314TIP3    H240434   4.845   3.128  12.338  0.3700 -0.7122  0.1888
 6315TIP3   OH240435   5.169   7.083   0.807 -0.0412  0.3962  0.0178
 6315TIP3    H140436   5.171   7.102   0.900  3.8996  0.3156  0.1087
 6315TIP3    H240437   5.134   6.994   0.801  0.6583  0.0008  1.5464
 6316TIP3   OH240438   0.322   4.770  11.606  0.2858  0.6535 -0.4858
 6316TIP3    H140439   0.367   4.797  11.526  1.0164 -0.2492 -0.3974
 6316TIP3    H240440   0.345   4.677  11.617 -2.9513 -0.3844 -1.3660
 6317TIP3   OH240441   5.383   4.111  13.162  0.5990 -1.0643 -0.3668
 6317TIP3    H140442   5.376   4.140  13.071 -0.2301  0.0526  0.0326
 6317TIP3    H240443   5.294   4.117  13.196  1.1974  0.3782  1.0429
 6318TIP3   OH240444   6.154   6.458   9.380  0.2593  0.2748  0.8180
 6318TIP3    H140445   6.236   6.502   9.357  0.7226  0.0671  1.9990
 6318TIP3    H240446   6.124   6.503   9.459  0.0431 -0.6419  1.2672
 6319TIP3   OH240447   2.968   6.154  13.333 -0.5072 -0.0791  0.0446
 6319TIP3    H140448   2.916   6.220  13.377  0.2029  0.8495 -0.4735
 6319TIP3    H240449   3.038   6.203  13.289 -0.7284 -1.0408 -1.4485
 6320TIP3   OH240450   1.317   0.713  10.794 -0.8322 -0.1666  0.1613
 6320TIP3    H140451   1.288   0.751  10.877  1.3271  0.6343  0.6239
 6320TIP3    H240452   1.403   0.676  10.814 -1.2564 -2.0111 -1.2101
 6321TIP3   OH240453   5.916   0.825  14.932 -0.5401  0.3503 -0.4662
 6321TIP3    H140454   5.899   0.863  14.846  0.2066  1.3028 -0.2105
 6321TIP3    H240455   5.999   0.865  14.960 -0.2130 -0.7696  0.2253
 6322TIP3   OH240456   1.901   4.346   3.285 -0.1406 -0.2223  0.0573
 6322TIP3    H140457   1.896   4.422   3.226 -1.5440 -0.4591 -0.1575
 6322TIP3    H240458   1.859   4.376   3.366  1.3167 -0.0692  0.7991
 6323TIP3   OH240459   4.701   6.571  11.698  0.1347  0.3941 -0.3240
 6323TIP3    H140460   4.644   6.575  11.775 -0.4718  1.7129 -0.8276
 6323TIP3    H240461   4.780   6.617  11.725  0.4305 -0.2292 -0.0934
 6324TIP3   OH240462   5.191   6.059  13.500 -0.1238 -0.2864  0.7512
 6324TIP3    H140463   5.250   5.991  13.468 -1.5917 -2.2752  2.0110
 6324TIP3    H240464   5.112   6.049  13.448 -1.4732 -1.6614  2.8997
 6325TIP3   OH240465   0.700   0.846  13.633  0.3465  0.0448  0.2883
 6325TIP3    H140466   0.647   0.834  13.712  0.0923 -0.6801  0.0162
 6325TIP3    H240467   0.675   0.933  13.601  0.2027  0.2015  0.8161
 6326TIP3   OH240468   6.360   0.884  12.874 -0.3275  0.1467 -0.1519
 6326TIP3    H140469   6.422   0.812  12.887  0.8656  1.0995 -0.3347
 6326TIP3    H240470   6.353   0.927  12.959  2.3111  2.3498 -0.9000
 6327TIP3   OH240471   1.972   1.950  10.004 -0.2872 -0.0624 -0.3270
 6327TIP3    H140472   1.995   1.859   9.983 -1.8654 -0.7628  0.8081
 6327TIP3    H240473   1.949   1.988   9.919 -1.3997 -1.2880 -0.6126
 6328TIP3   OH240474   5.460   6.949  13.871  0.1768 -0.2883 -0.2948
 6328TIP3    H140475   5.409   7.018  13.913 -1.9553 -2.5306  1.1140
 6328TIP3    H240476   5.478   6.982  13.784 -1.1785  1.8347  0.1561
 6329TIP3   OH240477   3.485   2.691  10.700  0.2159 -0.0961 -0.5555
 6329TIP3    H140478   3.426   2.622  10.731  0.2719  0.1122  0.0325
 6329TIP3    H240479   3.541   2.710  10.775  3.4846 -2.7640 -2.0588
 6330TIP3   OH240480   6.303   6.656  14.144  0.8861 -0.3161  0.0600
 6330TIP3    H140481   6.254   6.580  14.177 -0.9116  0.6612 -0.2105
 6330TIP3    H240482   6.363   6.619  14.079  0.1062 -1.5238 -0.0113
 6331TIP3   OH240483   5.764   5.535  10.905  0.2059 -0.2578  0.2713
 6331TIP3    H140484   5.845   5.486  10.900  0.6911  0.5206  0.3200
 6331TIP3    H240485   5.699   5.480  10.861  0.6019 -1.1901  0.8303
 6332TIP3   OH240486   4.963   5.560  12.668 -0.0366  0.7434  0.1685
 6332TIP3    H140487   5.030   5.492  12.669 -0.3364  0.3440 -1.9406
 6332TIP3    H240488   4.929   5.562  12.757 -0.9964 -2.9307  0.0401
 6333TIP3   OH240489   0.407   2.040  14.144  0.2446  0.5024 -0.1749
 6333TIP3    H140490   0.364   2.108  14.197  0.3244 -0.3501  1.0388
 6333TIP3    H240491   0.342   1.971  14.136  1.6212 -1.3491  2.7269
 6334TIP3   OH240492   6.231   6.219  11.723 -0.0411 -0.2109  0.3587
 6334TIP3    H140493   6.161   6.189  11.781 -0.9276 -0.2566 -0.7072
 6334TIP3    H240494   6.287   6.142  11.710  0.3891 -0.0970  1.4400
 6335TIP3   OH240495   5.083   1.987   1.978  0.4042 -0.2954  0.1734
 6335TIP3    H140496   5.156   1.971   2.038  0.9073  1.2180  0.0058
 6335TIP3    H240497   5.124   1.994   1.892 -0.2640 -1.9870 -0.3323
 6336TIP3   OH240498   5.339   4.499   9.504  0.2709  0.5606  0.9953
 6336TIP3    H140499   5.348   4.572   9.442  0.5037  0.5790  1.0511
 6336TIP3    H240500   5.362   4.422   9.452  1.4690  0.6791  1.3230
 6337TIP3   OH240501   3.017   4.780  14.166 -0.1841  0.0190  0.2670
 6337TIP3    H140502   3.055   4.792  14.080 -1.4094 -0.3487 -0.3572
 6337TIP3    H240503   3.088   4.745  14.220  0.3798 -0.5330 -0.8095
 6338TIP3   OH240504   6.155   3.624  10.155 -0.0089 -0.0481 -0.1988
 6338TIP3    H140505   6.061   3.608  10.161 -0.0591  0.1454 -0.4287
 6338TIP3    H240506   6.186   3.622  10.245  0.1557 -2.4125 -0.2682
 6339TIP3   OH240507   2.202   2.431   9.661  0.0901 -0.0909  0.0220
 6339TIP3    H140508   2.152   2.512   9.665 -1.0445 -0.7312 -0.5610
 6339TIP3    H240509   2.157   2.378   9.595  2.4230 -0.1267 -1.6925
 6340TIP3   OH240510   6.535   5.703  11.291 -0.3674 -0.2975  0.0798
 6340TIP3    H140511   6.614   5.712  11.238 -0.1007 -1.4295  0.2551
 6340TIP3    H240512   6.497   5.790  11.293  1.4049  0.5149  0.8130
 6341TIP3   OH240513   2.428   6.350   2.134 -0.0314  0.0697  0.0307
 6341TIP3    H140514   2.466   6.271   2.172  0.1366 -0.5977 -1.4351
 6341TIP3    H240515   2.411   6.407   2.208 -0.4724 -1.4758  1.1800
 6342TIP3   OH240516   6.208   5.621  13.312 -0.1131 -0.1011 -0.1484
 6342TIP3    H140517   6.263   5.600  13.387  0.0955  1.8241  0.3080
 6342TIP3    H240518   6.179   5.711  13.328  0.6931  0.7561 -2.7938
 6343TIP3   OH240519   0.749   4.525   1.216 -0.2181 -0.0366 -0.1721
 6343TIP3    H140520   0.751   4.479   1.300 -1.2962 -2.4497 -1.3815
 6343TIP3    H240521   0.659   4.558   1.209 -0.1715  0.0314 -0.4629
 6344TIP3   OH240522   5.759   2.147  13.423 -0.3015  0.8175  0.7099
 6344TIP3    H140523   5.709   2.072  13.454 -0.5165  1.3671  1.7163
 6344TIP3    H240524   5.800   2.116  13.342  0.1641 -0.6048  1.4507
 6345TIP3   OH240525   6.567   0.532   3.068 -0.1602  0.1621 -0.0738
 6345TIP3    H140526   6.568   0.459   3.130 -1.6823  0.0816 -0.1206
 6345TIP3    H240527   6.632   0.508   3.002 -0.5218 -1.0687  0.0003
 6346TIP3   OH240528   4.984   3.623  12.737  0.3881  0.4587  0.8931
 6346TIP3    H140529   4.909   3.580  12.698  0.8846  0.6606 -0.3294
 6346TIP3    H240530   5.035   3.552  12.776  0.6332  0.0588 -0.1310
 6347TIP3   OH240531   4.419   2.761  14.522  0.3458  0.4723  0.0271
 6347TIP3    H140532   4.438   2.830  14.586  0.2596 -0.8827  1.5650
 6347TIP3    H240533   4.387   2.688  14.574  0.1474 -0.6429 -1.5944
 6348TIP3   OH240534   2.471   1.520  11.504 -0.3205 -0.1211  0.2391
 6348TIP3    H140535   2.425   1.579  11.564 -0.9407 -1.1868  0.8347
 6348TIP3    H240536   2.424   1.529  11.421 -0.0213  0.6736  0.1424
 6349TIP3   OH240537   0.330   6.661  14.352 -0.1352 -0.6425 -0.0237
 6349TIP3    H140538   0.293   6.574  14.354  1.4056 -1.3379 -0.0959
 6349TIP3    H240539   0.386   6.665  14.430 -1.2574  0.8040  0.7678
 6350TIP3   OH240540   4.221   3.776  10.644 -0.2309  0.1970 -0.2740
 6350TIP3    H140541   4.282   3.703  10.637  1.1426  1.3074 -0.4298
 6350TIP3    H240542   4.143   3.748  10.596 -0.3597 -1.7326  0.9432
 6351TIP3   OH240543   0.555   3.367   1.131  0.0187  0.9312  0.1448
 6351TIP3    H140544   0.465   3.359   1.164 -0.6275  1.1232 -1.4790
 6351TIP3    H240545   0.586   3.277   1.123 -1.0658  0.6720 -1.8833
 6352TIP3   OH240546   3.590   0.868  10.257  0.6937 -0.5232  0.4073
 6352TIP3    H140547   3.672   0.885  10.303  0.4107  0.3249  0.6242
 6352TIP3    H240548   3.596   0.919  10.176  0.6331 -0.9511  0.1258
 6353TIP3   OH240549   6.348   4.479   1.464 -0.7428  1.0940 -0.7128
 6353TIP3    H140550   6.430   4.487   1.414 -0.9508 -1.2334 -1.5872
 6353TIP3    H240551   6.374   4.432   1.543 -1.4209 -1.4909 -1.8956
 6354TIP3   OH240552   0.798   6.214  12.806 -0.3052 -0.3073 -0.2602
 6354TIP3    H140553   0.816   6.242  12.716  0.9019 -0.9301 -0.2359
 6354TIP3    H240554   0.739   6.281  12.841  0.4850  0.8219 -1.0064
 6355TIP3   OH240555   5.539   4.500  12.290  0.2233  0.2518  0.2775
 6355TIP3    H140556   5.609   4.521  12.228 -0.8262  0.5637 -0.8368
 6355TIP3    H240557   5.572   4.528  12.375  0.1135  3.6793 -0.6767
 6356TIP3   OH240558   2.177   2.759  14.844 -0.5460 -0.1586 -0.1497
 6356TIP3    H140559   2.170   2.825  14.914 -2.8371  0.4362 -0.8562
 6356TIP3    H240560   2.140   2.679  14.882 -0.2168 -0.3092 -0.1425
 6357TIP3   OH240561   3.558   3.585  11.332  1.4039 -0.0559  0.0184
 6357TIP3    H140562   3.551   3.526  11.257  0.1617  1.5890 -1.2258
 6357TIP3    H240563   3.537   3.530  11.407  2.4597 -1.6904 -0.8328
 6358TIP3   OH240564   2.677   1.637  14.190  0.1138  0.5901  0.3739
 6358TIP3    H140565   2.593   1.621  14.148  0.0499 -0.2601  0.8031
 6358TIP3    H240566   2.655   1.665  14.279  0.2840 -0.5181  0.7792
 6359TIP3   OH240567   3.072   0.063  13.101 -0.3488 -0.2825  0.0423
 6359TIP3    H140568   3.139   0.100  13.043  1.4182  0.2618  2.2468
 6359TIP3    H240569   2.989   0.084  13.059  0.7189  2.6166 -0.8732
 6360TIP3   OH240570   3.397   1.212  10.756 -0.3215  0.1490 -0.2628
 6360TIP3    H140571   3.347   1.185  10.832 -0.5073 -0.6270 -0.6565
 6360TIP3    H240572   3.487   1.221  10.788 -0.5186  0.5128  0.1980
 6361TIP3   OH240573   0.882   5.950  14.710 -0.1499 -0.0766  0.2037
 6361TIP3    H140574   0.860   5.992  14.627  1.8794 -1.7700 -1.3009
 6361TIP3    H240575   0.877   6.020  14.775  0.9974  1.9975 -1.8039
 6362TIP3   OH240576   6.223   4.419  12.906  0.4097  0.0334 -0.2546
 6362TIP3    H140577   6.205   4.329  12.879 -0.1663 -0.3187  1.2204
 6362TIP3    H240578   6.311   4.416  12.943  0.4560  0.1134 -0.3586
 6363TIP3   OH240579   5.926   5.545  11.542 -0.5749 -0.6194 -0.0767
 6363TIP3    H140580   5.880   5.517  11.463  0.8064 -1.2179 -0.7076
 6363TIP3    H240581   6.012   5.573  11.511 -0.4013  0.2389  1.0916
 6364TIP3   OH240582   3.618   2.783  14.164  0.1031  0.6899 -0.0945
 6364TIP3    H140583   3.677   2.761  14.092 -0.6480 -2.0206 -0.0138
 6364TIP3    H240584   3.533   2.747  14.138 -0.7296  1.6185  1.1990
 6365TIP3   OH240585   2.218   3.977  11.783 -0.1195 -0.0769 -0.1999
 6365TIP3    H140586   2.169   3.903  11.747  1.2168 -0.5228 -1.1633
 6365TIP3    H240587   2.152   4.043  11.802 -1.9476 -2.6546  3.9871
 6366TIP3   OH240588   2.407   6.284  13.291 -0.0561 -0.6716 -0.5277
 6366TIP3    H140589   2.384   6.375  13.268  1.2061 -0.6512 -1.8225
 6366TIP3    H240590   2.447   6.291  13.378  0.5646  0.1221 -0.8583
 6367TIP3   OH240591   1.571   6.091   9.748 -0.6630  0.2970  0.4532
 6367TIP3    H140592   1.566   6.186   9.745  0.2184  0.3378 -0.0261
 6367TIP3    H240593   1.580   6.071   9.842 -0.1625  0.7336  0.5058
 6368TIP3   OH240594   1.760   1.399  10.272 -0.3695  0.3017 -0.1893
 6368TIP3    H140595   1.698   1.337  10.235  0.2637 -0.3735 -0.1430
 6368TIP3    H240596   1.796   1.445  10.196  1.6052 -1.7168 -0.5766
 6369TIP3   OH240597   4.591   5.333  11.211  0.1424 -0.0461 -0.2471
 6369TIP3    H140598   4.594   5.350  11.117 -1.7989 -0.3217 -0.4131
 6369TIP3    H240599   4.535   5.255  11.219  1.6793 -1.0664  1.0359
 6370TIP3   OH240600   5.315   3.631  13.653  0.4314  0.1129 -0.3639
 6370TIP3    H140601   5.358   3.673  13.579  1.3198  0.5636  0.3818
 6370TIP3    H240602   5.356   3.670  13.730  0.0198 -0.8404  0.3640
 6371TIP3   OH240603   2.741   3.313  14.927 -0.2800 -0.3774 -0.4420
 6371TIP3    H140604   2.799   3.272  14.991  0.0256 -1.2435 -1.2512
 6371TIP3    H240605   2.725   3.401  14.962 -0.7874 -1.0992  1.2306
 6372TIP3   OH240606   2.230   7.003  15.398  0.1511 -0.4712 -0.1628
 6372TIP3    H140607   2.265   7.004  15.487  1.5138 -0.8474 -0.6635
 6372TIP3    H240608   2.208   6.911  15.382  2.0339 -0.8341 -0.9607
 6373TIP3   OH240609   1.685   0.673  11.077 -0.0129 -0.3669  0.2439
 6373TIP3    H140610   1.639   0.613  11.019  0.0765 -0.7664  0.5858
 6373TIP3    H240611   1.623   0.745  11.092  0.0708 -0.1058 -0.5849
 6374TIP3   OH240612   3.299   1.387  12.693  0.3008  0.7547  0.6704
 6374TIP3    H140613   3.205   1.405  12.683 -0.0036 -1.0965 -0.1716
 6374TIP3    H240614   3.316   1.399  12.787 -0.8914  0.6446  0.9202
 6375TIP3   OH240615   2.863   1.517  12.280 -0.4205  0.5819  1.0209
 6375TIP3    H140616   2.817   1.498  12.361 -0.3425 -1.6347  0.5997
 6375TIP3    H240617   2.953   1.537  12.307 -0.6478  0.9072  1.5400
 6376TIP3   OH240618   1.397   0.190  14.094  0.0839 -0.7135  0.0870
 6376TIP3    H140619   1.407   0.120  14.030 -1.6381  0.7358 -1.9330
 6376TIP3    H240620   1.470   0.249  14.075 -0.7851  0.0407 -1.0894
 6377TIP3   OH240621   3.385   1.764  11.300  0.8167  0.5143 -0.0857
 6377TIP3    H140622   3.379   1.739  11.392  2.0431 -0.1122 -0.1614
 6377TIP3    H240623   3.471   1.734  11.272 -0.3597 -1.3671 -2.0326
 6378TIP3   OH240624   4.568   6.220  13.793 -0.6151  0.0480 -0.7147
 6378TIP3    H140625   4.589   6.246  13.703 -1.6383 -1.0925 -1.3161
 6378TIP3    H240626   4.640   6.255  13.845  0.3776  0.1269 -2.0738
 6379TIP3   OH240627   2.084   6.274  14.205  0.1212 -0.1380 -0.2778
 6379TIP3    H140628   2.152   6.215  14.238 -0.3048 -0.8099 -0.5731
 6379TIP3    H240629   2.130   6.335  14.147  0.4800 -0.5847 -0.4670
 6380TIP3   OH240630   4.820   2.408   0.730  0.2058  0.1182 -0.3555
 6380TIP3    H140631   4.835   2.368   0.816  1.4255  1.8693  0.2996
 6380TIP3    H240632   4.904   2.403   0.686 -0.8676 -2.6356 -2.3856
 6381TIP3   OH240633   1.209   0.361  11.356 -0.2070 -0.3519  0.1245
 6381TIP3    H140634   1.136   0.299  11.356 -0.2058 -0.3543 -0.0171
 6381TIP3    H240635   1.230   0.373  11.448  0.0477 -0.8710  0.1413
 6382TIP3   OH240636   5.072   3.127   2.128  0.5262  0.6832 -0.4717
 6382TIP3    H140637   4.998   3.068   2.133  1.1956 -0.1416 -0.0889
 6382TIP3    H240638   5.093   3.132   2.035 -0.2834  1.2851 -0.6331
 6383TIP3   OH240639   4.706   6.854   9.353 -0.0757  0.4033  0.4401
 6383TIP3    H140640   4.777   6.794   9.373 -0.5992  0.3356  2.2138
 6383TIP3    H240641   4.736   6.939   9.387 -0.0082  0.8374 -0.6379
 6384TIP3   OH240642   2.702   0.014  13.147 -0.3315 -0.5120  0.5887
 6384TIP3    H140643   2.741   0.045  13.065 -1.2005  0.1905  0.4222
 6384TIP3    H240644   2.757  -0.059  13.174  1.1515  0.4972  0.4065
 6385TIP3   OH240645   2.911   3.845  12.912 -0.3884  0.1843 -0.7856
 6385TIP3    H140646   2.980   3.903  12.879 -0.0067  0.6190  0.6745
 6385TIP3    H240647   2.834   3.867  12.859  1.0924 -2.0310 -4.1247
 6386TIP3   OH240648   4.493   5.803  10.978 -0.5441 -0.1593  0.0460
 6386TIP3    H140649   4.476   5.733  11.042 -0.5166 -0.7417 -0.5686
 6386TIP3    H240650   4.429   5.871  10.999  1.6362  1.2309  2.9213
 6387TIP3   OH240651   2.902   6.910  10.892 -0.7306  0.3115 -0.4197
 6387TIP3    H140652   2.841   6.868  10.831 -1.0158  1.2356 -0.7758
 6387TIP3    H240653   2.968   6.843  10.910  1.2890  0.9874 -4.2868
 6388TIP3   OH240654   1.582   2.415  10.720 -0.2741  0.7751  0.2746
 6388TIP3    H140655   1.599   2.345  10.783 -1.6827  0.2711  0.1433
 6388TIP3    H240656   1.649   2.404  10.653 -0.3513 -0.3626  0.3495
 6389TIP3   OH240657   4.629   4.827  14.963  0.2576 -0.2273  0.4202
 6389TIP3    H140658   4.566   4.808  14.894 -0.0386 -0.4682  0.7522
 6389TIP3    H240659   4.710   4.850  14.917  0.9493 -3.2391 -0.0534
 6390TIP3   OH240660   4.577   3.367  10.812  0.5839  0.4672 -0.2766
 6390TIP3    H140661   4.659   3.344  10.855  0.2496 -3.2607 -1.2859
 6390TIP3    H240662   4.563   3.297  10.748 -1.9397  2.5367 -2.2253
 6391TIP3   OH240663   3.347   0.097  12.055 -0.1821  0.2094  0.3832
 6391TIP3    H140664   3.256   0.068  12.052 -0.2982  0.5453 -2.1095
 6391TIP3    H240665   3.343   0.187  12.088 -0.8982  0.5764 -0.6663
 6392TIP3   OH240666   2.546   4.009  15.321  0.2429 -0.4347 -0.1473
 6392TIP3    H140667   2.596   3.967  15.250  1.0564 -0.6340  0.5294
 6392TIP3    H240668   2.487   3.940  15.352  1.6758 -1.1783  1.0590
 6393TIP3   OH240669   6.003   2.676  10.155 -0.3330  0.5354 -0.4181
 6393TIP3    H140670   6.005   2.767  10.186  1.5811  0.7633 -1.0804
 6393TIP3    H240671   6.054   2.628  10.219  0.3845  0.3145 -1.1429
 6394TIP3   OH240672   6.310   0.590   9.768  0.7260  0.0436  0.0913
 6394TIP3    H140673   6.387   0.643   9.750  1.1951 -0.0007  1.7943
 6394TIP3    H240674   6.344   0.502   9.783  0.3581  0.0066  0.7761
 6395TIP3   OH240675   2.781   1.493  14.496 -0.5826  0.3027  0.2256
 6395TIP3    H140676   2.874   1.487  14.516 -0.3370 -0.8069 -1.1399
 6395TIP3    H240677   2.738   1.491  14.581  0.5114 -1.8888  0.7756
 6396TIP3   OH240678   0.265   0.620  13.874  0.5145 -0.0472 -0.2109
 6396TIP3    H140679   0.175   0.628  13.907  0.4403  0.4036 -0.5179
 6396TIP3    H240680   0.314   0.685  13.925  0.2156  1.3373 -1.6356
 6397TIP3   OH240681   1.680   2.225   3.104 -0.1079 -0.1616  0.0952
 6397TIP3    H140682   1.753   2.163   3.091  0.9430  0.7406  1.3772
 6397TIP3    H240683   1.695   2.261   3.192 -2.6415 -0.6088  0.7893
 6398TIP3   OH240684   5.713   4.977  11.899  0.5059 -0.3654  0.4095
 6398TIP3    H140685   5.796   5.009  11.934  0.3492 -0.5350  0.9481
 6398TIP3    H240686   5.648   5.003  11.965  0.0756  0.1016 -0.1927
 6399TIP3   OH240687   6.588   4.183   3.689  0.0100 -0.5269 -0.0028
 6399TIP3    H140688   6.520   4.136   3.641  0.5972 -0.6718 -0.7065
 6399TIP3    H240689   6.628   4.117   3.746  0.0753 -0.6185 -0.1548
 6400TIP3   OH240690   4.932   6.719   9.479 -0.0879  0.0033  0.6794
 6400TIP3    H140691   4.959   6.809   9.461  0.5487 -0.4306 -0.6595
 6400TIP3    H240692   5.012   6.674   9.507 -0.2332 -0.3383  0.5595
 6401TIP3   OH240693   0.367   5.925  13.902 -0.0215 -0.7218 -0.2972
 6401TIP3    H140694   0.454   5.902  13.868 -0.6894 -1.1848 -1.7504
 6401TIP3    H240695   0.349   5.858  13.968  1.3278  0.2326  1.1184
 6402TIP3   OH240696   5.813   3.490  11.311 -0.3044  0.1741 -0.3252
 6402TIP3    H140697   5.810   3.409  11.260 -2.9721 -0.3905  0.5824
 6402TIP3    H240698   5.731   3.534  11.290 -1.2018  0.2307  2.8761
 6403TIP3   OH240699   5.480   0.498  13.941 -0.3811 -0.6012 -0.5769
 6403TIP3    H140700   5.564   0.467  13.974  0.7131 -0.1265 -2.6855
 6403TIP3    H240701   5.435   0.534  14.017  2.3990  1.4186  0.2433
 6404TIP3   OH240702   6.166   2.054  10.471 -0.1568 -0.3364  0.2267
 6404TIP3    H140703   6.079   2.095  10.464 -0.6432 -1.0870  1.5112
 6404TIP3    H240704   6.179   2.012  10.386 -0.1237  1.5037 -0.7249
 6405TIP3   OH240705   1.457   5.346  13.883  0.1299  0.1072  0.4722
 6405TIP3    H140706   1.470   5.378  13.972 -0.2932 -0.3650  0.7078
 6405TIP3    H240707   1.461   5.424  13.828 -0.7001  0.5396  1.0164
 6406TIP3   OH240708   6.232   3.522  10.772 -0.3370 -1.0745 -0.7363
 6406TIP3    H140709   6.243   3.616  10.787 -1.5836 -0.9261 -0.6297
 6406TIP3    H240710   6.213   3.487  10.859  0.2569 -1.4556 -0.7563
 6407TIP3   OH240711   4.113   6.646  13.085  0.3765  0.7837  0.1425
 6407TIP3    H140712   4.032   6.598  13.104  0.1617  0.2703 -1.8989
 6407TIP3    H240713   4.172   6.622  13.157 -0.3059 -1.1943  0.0995
 6408TIP3   OH240714   4.491   6.231   9.618 -0.5806 -0.7392  0.0409
 6408TIP3    H140715   4.522   6.173   9.548 -1.4819  0.1267 -1.1252
 6408TIP3    H240716   4.399   6.248   9.595 -0.1439  1.7786 -0.1228
 6409TIP3   OH240717   4.719   0.327  14.345 -0.7455  0.0996 -0.9501
 6409TIP3    H140718   4.798   0.369  14.311  0.2810 -0.4888  0.5835
 6409TIP3    H240719   4.745   0.294  14.432 -3.0927  1.1540  0.2280
 6410TIP3   OH240720   6.668   1.497  14.901  0.3217  0.3220  0.5458
 6410TIP3    H140721   6.653   1.514  14.994  0.9012  0.3013  0.6507
 6410TIP3    H240722   6.628   1.571  14.856 -1.0961 -0.3045  0.7321
 6411TIP3   OH240723   4.326   0.369  14.264  0.0909  0.0501  0.3838
 6411TIP3    H140724   4.247   0.356  14.211  0.0794  0.3846  0.3145
 6411TIP3    H240725   4.391   0.311  14.225  0.2646  0.7448 -0.3931
 6412TIP3   OH240726   5.817   7.000  11.215 -0.4487  0.6186 -0.2371
 6412TIP3    H140727   5.813   6.980  11.122  0.5231  1.8756 -0.5798
 6412TIP3    H240728   5.891   7.060  11.224 -0.4226  0.4134  1.3730
 6413TIP3   OH240729   5.369   1.584  12.726  0.0345  0.1814 -0.3413
 6413TIP3    H140730   5.459   1.604  12.701 -0.4079  0.0001 -2.2416
 6413TIP3    H240731   5.317   1.656  12.690 -0.7198 -0.4331 -0.5206
 6414TIP3   OH240732   4.254   2.685   2.274 -0.4072 -0.0226  0.1997
 6414TIP3    H140733   4.323   2.664   2.337 -0.7954 -1.4299  0.2048
 6414TIP3    H240734   4.288   2.759   2.224  0.7783 -0.2035  0.7164
 6415TIP3   OH240735   0.584   1.794   9.847  0.0185 -0.7376 -0.0669
 6415TIP3    H140736   0.563   1.701   9.859  0.9951 -1.0140 -0.4323
 6415TIP3    H240737   0.593   1.805   9.752  1.2043 -0.5693  0.0534
 6416TIP3   OH240738   0.554   2.885  14.826  0.0851 -0.0675  0.2611
 6416TIP3    H140739   0.535   2.912  14.916 -0.3506  1.4341 -0.2553
 6416TIP3    H240740   0.587   2.796  14.835  0.4793  0.2030  1.9518
 6417TIP3   OH240741   1.606   5.193  12.493  0.0110  0.5412  0.2430
 6417TIP3    H140742   1.626   5.284  12.516  0.1659  0.3713  0.7876
 6417TIP3    H240743   1.577   5.153  12.575 -1.8740  0.5732 -0.3575
 6418TIP3   OH240744   2.436   1.912  11.433  0.1824  0.2585 -0.0496
 6418TIP3    H140745   2.474   1.862  11.505 -2.0542  0.8006  1.6059
 6418TIP3    H240746   2.354   1.867  11.413  0.6625  0.2173 -2.2259
 6419TIP3   OH240747   2.413   0.390  14.528  0.4968  0.1070 -0.0682
 6419TIP3    H140748   2.323   0.409  14.553  0.2883  0.8563 -1.3462
 6419TIP3    H240749   2.410   0.373  14.434  1.7084  0.3143 -0.1676
 6420TIP3   OH240750   1.000   6.864  13.370  0.0460  0.2285  0.1195
 6420TIP3    H140751   1.094   6.873  13.387 -0.0931  0.7767  0.6531
 6420TIP3    H240752   0.988   6.772  13.348  0.6914  0.1289  0.1570
 6421TIP3   OH240753   2.035   5.418  11.712 -0.4459  0.5680  0.6063
 6421TIP3    H140754   2.117   5.465  11.726 -1.4241  1.9031  2.2796
 6421TIP3    H240755   2.060   5.325  11.709  1.3951  1.0412 -1.6937
 6422TIP3   OH240756   6.134   2.947  12.653 -0.0306 -0.0683  0.8348
 6422TIP3    H140757   6.225   2.924  12.633 -0.7410 -1.0540 -1.5189
 6422TIP3    H240758   6.141   3.031  12.698  2.1124 -0.7640  1.9697
 6423TIP3   OH240759   1.321   2.219  12.616 -0.4502 -0.1002  0.1867
 6423TIP3    H140760   1.391   2.161  12.585 -0.8535 -0.3873 -0.2013
 6423TIP3    H240761   1.318   2.289  12.551  0.4310  0.6921  0.9626
 6424TIP3   OH240762   6.299   2.074  13.532  0.0903  0.0329  0.1584
 6424TIP3    H140763   6.217   2.059  13.579 -1.0193  1.1994 -1.2906
 6424TIP3    H240764   6.364   2.022  13.579 -1.1609  0.2433  2.2608
 6425TIP3   OH240765   3.815   1.246   5.276  0.1623 -0.2941  0.2471
 6425TIP3    H140766   3.804   1.340   5.265 -0.2852 -0.5646 -1.9238
 6425TIP3    H240767   3.904   1.229   5.244 -0.2548 -0.7929 -0.6538
 6426TIP3   OH240768   2.011   4.274  15.136 -0.2055 -0.4512 -0.4943
 6426TIP3    H140769   1.968   4.191  15.157  0.5205 -0.6114  0.4197
 6426TIP3    H240770   2.098   4.249  15.104  0.4250 -0.0254  0.8212
 6427TIP3   OH240771   2.094   0.096  10.855 -0.1448 -0.2012  0.3922
 6427TIP3    H140772   2.035   0.097  10.780 -0.4255 -2.8760  0.4878
 6427TIP3    H240773   2.041   0.063  10.928  1.2740 -2.3315  0.5558
 6428TIP3   OH240774   4.352   5.202  10.150  0.0323  0.0756 -0.0987
 6428TIP3    H140775   4.398   5.137  10.204 -0.9681 -0.2519  0.3805
 6428TIP3    H240776   4.302   5.150  10.087  1.2931  0.4568 -1.4667
 6429TIP3   OH240777   4.803   5.387  12.248  0.5696  0.3462 -0.2734
 6429TIP3    H140778   4.885   5.340  12.236  0.2849  0.1750 -1.7918
 6429TIP3    H240779   4.809   5.461  12.187 -1.1000 -0.6923 -1.8192
 6430TIP3   OH240780   2.774   2.042  11.426  0.0635 -0.3111  0.2113
 6430TIP3    H140781   2.740   1.988  11.497  1.0591 -0.6743  0.4258
 6430TIP3    H240782   2.803   1.979  11.360  1.8516 -0.1028  0.7438
 6431TIP3   OH240783   5.266   3.043  14.486 -0.1356 -0.0512  0.2245
 6431TIP3    H140784   5.279   2.961  14.439 -1.0141  0.5763 -1.1941
 6431TIP3    H240785   5.172   3.049  14.499  0.0410  0.0928  1.5442
 6432TIP3   OH240786   3.818   6.451  14.364  0.3642  0.2428  0.2534
 6432TIP3    H140787   3.855   6.388  14.302 -0.2463  0.8351 -0.7425
 6432TIP3    H240788   3.819   6.406  14.448  1.0499 -0.6441 -0.2192
 6433TIP3   OH240789   5.334   0.124   1.847 -0.4945 -0.1379  0.1434
 6433TIP3    H140790   5.322   0.065   1.921  3.9554  0.3553  1.5496
 6433TIP3    H240791   5.354   0.209   1.886 -0.6803  0.8057 -1.6991
 6434TIP3   OH240792   1.651   5.278  11.369 -0.4764 -0.7964  0.0107
 6434TIP3    H140793   1.745   5.297  11.362 -0.7084 -0.1606 -1.6870
 6434TIP3    H240794   1.626   5.246  11.283 -2.2364  0.9571 -0.1955
 6435TIP3   OH240795   0.478   6.241   2.007  0.1453  0.5819 -0.4609
 6435TIP3    H140796   0.565   6.254   2.046 -1.0247  1.2852  2.1224
 6435TIP3    H240797   0.459   6.149   2.020 -0.1745  0.7821  0.5773
 6436TIP3   OH240798   0.443   6.845   4.392 -0.2552  0.3311 -0.2903
 6436TIP3    H140799   0.530   6.847   4.432  0.0526  0.0129 -0.9287
 6436TIP3    H240800   0.399   6.923   4.426 -0.2705 -0.3100  1.2275
 6437TIP3   OH240801   5.376   2.908  12.445  0.3651  0.0997 -0.3598
 6437TIP3    H140802   5.416   2.985  12.485  1.7047 -1.2454  1.0212
 6437TIP3    H240803   5.393   2.837  12.507  0.9592 -1.7332 -2.4935
 6438TIP3   OH240804   6.305   7.006  12.808 -0.4846 -0.3694 -0.4754
 6438TIP3    H140805   6.243   7.050  12.866 -0.4398 -1.7507  0.6889
 6438TIP3    H240806   6.250   6.969  12.738 -0.3878  2.5402 -2.2490
 6439TIP3   OH240807   5.265   0.188  10.312 -0.3405 -0.2367 -1.2400
 6439TIP3    H140808   5.198   0.250  10.283 -1.7127 -0.7062  0.7364
 6439TIP3    H240809   5.339   0.243  10.336 -0.4903  0.3998 -2.1826
 6440TIP3   OH240810   4.967   7.220  14.795  0.2583 -0.1930 -0.3099
 6440TIP3    H140811   4.980   7.142  14.849  1.3266  0.3671  0.2603
 6440TIP3    H240812   4.951   7.185  14.707 -0.1442 -1.0696  0.0978
 6441TIP3   OH240813   5.597   5.235  11.017  0.4936 -0.0422  0.5530
 6441TIP3    H140814   5.667   5.264  10.960 -0.4332 -2.1665 -1.8733
 6441TIP3    H240815   5.521   5.287  10.990 -0.1312 -1.5650 -0.8364
 6442TIP3   OH240816   3.294   5.940  13.464 -0.1828 -0.3908 -0.1592
 6442TIP3    H140817   3.353   5.968  13.533 -0.3255  1.2921 -0.6786
 6442TIP3    H240818   3.217   5.996  13.473  0.3799  0.8916 -2.5339
 6443TIP3   OH240819   6.329   1.924   0.297  0.2745 -1.1280  0.1765
 6443TIP3    H140820   6.313   2.006   0.250 -2.8710 -2.3040 -1.0948
 6443TIP3    H240821   6.303   1.944   0.387  1.2909 -0.2783  0.3010
 6444TIP3   OH240822   2.266   4.119   1.379  0.1837  0.0725  0.1917
 6444TIP3    H140823   2.314   4.173   1.442  1.0378 -1.1375  0.6226
 6444TIP3    H240824   2.265   4.032   1.418 -0.8135 -0.3220 -0.6686
 6445TIP3   OH240825   4.120   5.781  10.357  0.3644 -0.2966 -0.2770
 6445TIP3    H140826   4.027   5.758  10.352  0.9699 -3.2200 -0.1152
 6445TIP3    H240827   4.134   5.804  10.449 -0.2323  0.3700 -0.3491
 6446TIP3   OH240828   3.830   5.716  14.208  0.0496 -0.5524  0.0785
 6446TIP3    H140829   3.789   5.799  14.234  0.6563  0.5619 -2.2194
 6446TIP3    H240830   3.875   5.685  14.287  1.4129  2.3250  0.5654
 6447TIP3   OH240831   4.396   2.817  15.286 -0.7543  0.3210 -0.1670
 6447TIP3    H140832   4.391   2.839  15.380 -0.4125 -1.3024  0.2613
 6447TIP3    H240833   4.316   2.769  15.269 -1.0259  1.0029 -0.8344
 6448TIP3   OH240834   2.762   1.113   2.684  0.7185 -0.1576 -0.3634
 6448TIP3    H140835   2.715   1.107   2.767 -0.0295  1.6338 -0.6087
 6448TIP3    H240836   2.694   1.134   2.620  1.4462 -0.4244 -1.2466
 6449TIP3   OH240837   4.679   1.745  12.430 -0.6682 -0.5127 -0.4239
 6449TIP3    H140838   4.681   1.817  12.493 -1.1567 -1.4921  0.7199
 6449TIP3    H240839   4.708   1.786  12.348  2.1131  0.3280  0.8582
 6450TIP3   OH240840   6.123   2.984   1.435  0.6769  0.0757  0.3611
 6450TIP3    H140841   6.061   2.951   1.500  0.8489 -0.7253  0.1318
 6450TIP3    H240842   6.132   2.912   1.372  1.3945  0.4037  0.0771
 6451TIP3   OH240843   0.505   3.292  13.984 -0.1214  0.2733  0.1843
 6451TIP3    H140844   0.597   3.306  13.963 -0.2629  0.5770 -0.2378
 6451TIP3    H240845   0.501   3.298  14.079  0.3629 -0.1520  0.2366
 6452TIP3   OH240846   5.582   0.025   0.209  0.2555 -0.1248 -0.3335
 6452TIP3    H140847   5.576   0.098   0.147  0.9099 -0.0323 -0.2927
 6452TIP3    H240848   5.666  -0.017   0.190 -0.1030 -0.8620 -0.3449
 6453TIP3   OH240849   1.737   2.173  12.342  0.3529  0.3839  0.4883
 6453TIP3    H140850   1.736   2.102  12.278  2.2252  1.6214 -1.0526
 6453TIP3    H240851   1.645   2.186  12.366 -0.4889  0.0889 -2.2759
 6454TIP3   OH240852   0.908   6.347  11.753 -0.0448 -0.4228 -0.8828
 6454TIP3    H140853   0.933   6.379  11.839  0.7935 -0.4724 -1.1045
 6454TIP3    H240854   0.971   6.387  11.693  0.8174 -2.1816 -1.2044
 6455TIP3   OH240855   4.263   2.072  12.768 -0.4113  0.5140 -0.4194
 6455TIP3    H140856   4.229   2.161  12.770 -2.0584 -0.0779  1.4554
 6455TIP3    H240857   4.220   2.028  12.842  0.4400 -1.8076 -1.2045
 6456TIP3   OH240858   0.696   0.995   9.956 -0.3084  0.1268 -0.1916
 6456TIP3    H140859   0.604   0.983   9.979  0.0015 -1.3034  0.3710
 6456TIP3    H240860   0.700   1.085   9.922 -1.7745  0.4510  0.4006
 6457TIP3   OH240861   5.911   5.924  11.930 -0.7376  0.2292  0.3736
 6457TIP3    H140862   5.879   5.861  11.865  0.0300  0.0259  0.1709
 6457TIP3    H240863   5.846   5.922  12.000  0.3006 -2.4618  1.4087
 6458TIP3   OH240864   0.143   4.909  14.476  0.2689  0.6384  0.3289
 6458TIP3    H140865   0.205   4.838  14.492 -0.1201  0.2060 -0.0350
 6458TIP3    H240866   0.142   4.920  14.381 -0.1276  0.7118  0.3367
 6459TIP3   OH240867   2.104   4.623  15.333 -0.3679  0.2322  0.3178
 6459TIP3    H140868   2.156   4.549  15.364 -0.9681 -0.2590  0.1636
 6459TIP3    H240869   2.037   4.635  15.400 -0.5617  0.3371  0.1061
 6460TIP3   OH240870   5.722   0.394  12.022 -0.2258  0.1514 -0.4793
 6460TIP3    H140871   5.713   0.416  12.114 -1.5022 -2.0083  0.0023
 6460TIP3    H240872   5.806   0.348  12.016  0.1100  0.7574 -0.5259
 6461TIP3   OH240873   2.674   4.708  13.145 -1.0138  0.4026 -0.0498
 6461TIP3    H140874   2.688   4.615  13.129 -0.2355  0.5464 -0.2415
 6461TIP3    H240875   2.692   4.721  13.238 -0.3955  0.4873 -0.1775
 6462TIP3   OH240876   1.026   5.872  12.340  0.3292 -0.5982 -0.3656
 6462TIP3    H140877   1.044   5.928  12.264  2.0756  0.0072  0.4641
 6462TIP3    H240878   1.048   5.784  12.310  1.7078 -0.2734 -0.3763
 6463TIP3   OH240879   0.230   5.029  10.585 -0.2671 -0.0268  0.1880
 6463TIP3    H140880   0.247   5.035  10.679  0.7824 -0.7330  0.0610
 6463TIP3    H240881   0.162   4.961  10.577  0.8813 -1.2502  0.3464
 6464TIP3   OH240882   0.539   1.231   9.771  0.5415 -1.0293 -0.1882
 6464TIP3    H140883   0.464   1.225   9.712  0.8099 -0.1532 -0.6344
 6464TIP3    H240884   0.500   1.244   9.857  0.1754 -0.4573 -0.4331
 6465TIP3   OH240885   0.583   6.061  12.594  0.1162 -0.3806  0.1181
 6465TIP3    H140886   0.523   6.002  12.548 -0.1984 -0.2595  0.3656
 6465TIP3    H240887   0.622   6.007  12.663 -0.6967 -0.1344  0.7912
 6466TIP3   OH240888   0.539   4.262  12.846 -0.4081  0.1243  0.0495
 6466TIP3    H140889   0.476   4.206  12.890  0.0839  2.2805  3.9708
 6466TIP3    H240890   0.500   4.281  12.761 -3.0233 -1.8323  0.7095
 6467TIP3   OH240891   4.915   3.887   9.817  0.0899 -0.6353 -0.1204
 6467TIP3    H140892   4.978   3.864   9.884  0.9173  1.3775 -0.1344
 6467TIP3    H240893   4.836   3.910   9.865 -0.1688 -1.6798 -0.0176
 6468TIP3   OH240894   3.893   0.785  12.983  0.2431  0.2579  0.7098
 6468TIP3    H140895   3.934   0.869  13.002  0.3938  1.1480 -2.8176
 6468TIP3    H240896   3.962   0.720  12.997  1.1836  1.1241  0.1882
 6469TIP3   OH240897   5.409   2.197   9.966  0.1210  0.1322 -0.3168
 6469TIP3    H140898   5.384   2.273   9.913 -1.1066 -0.7849 -1.1161
 6469TIP3    H240899   5.325   2.158   9.992  0.7335 -0.9162  0.1258
 6470TIP3   OH240900   0.186   1.443  10.210 -0.0818 -0.0448  0.5458
 6470TIP3    H140901   0.165   1.482  10.295 -1.5423 -0.7820  0.5586
 6470TIP3    H240902   0.213   1.353  10.231 -2.1302 -0.8068  0.1633
 6471TIP3   OH240903   2.026   4.255  13.462 -0.4295 -0.2096 -0.1627
 6471TIP3    H140904   2.120   4.263  13.477 -0.7789  3.1131  1.1096
 6471TIP3    H240905   2.015   4.279  13.370 -0.0742 -0.2946 -0.2287
 6472TIP3   OH240906   1.053   5.592  13.139  0.0439  0.1001  0.8343
 6472TIP3    H140907   1.021   5.677  13.109  0.1525 -0.9659 -2.7935
 6472TIP3    H240908   1.148   5.598  13.130 -0.0332 -0.8243 -0.9057
 6473TIP3   OH240909   1.162   5.286  12.905 -0.0380 -0.0912 -0.4635
 6473TIP3    H140910   1.198   5.201  12.879  1.0664  0.4309 -0.6962
 6473TIP3    H240911   1.210   5.310  12.983 -0.8594 -0.0012  0.0298
 6474TIP3   OH240912   3.424   3.334  14.529  0.0283  0.2342 -0.3488
 6474TIP3    H140913   3.336   3.333  14.566 -0.3560 -0.8505 -1.2331
 6474TIP3    H240914   3.466   3.411  14.567 -0.5922 -0.3945  1.7307
 6475TIP3   OH240915   5.367   2.226  10.581  0.0397 -0.2219 -0.3105
 6475TIP3    H140916   5.401   2.282  10.650  0.2958 -0.6143 -0.1174
 6475TIP3    H240917   5.403   2.139  10.600  0.3287 -0.2793 -1.0812
 6476TIP3   OH240918   1.558   0.461  10.042  0.0494 -0.3528  0.4754
 6476TIP3    H140919   1.536   0.418  10.125  2.3427 -0.2628  1.1746
 6476TIP3    H240920   1.547   0.554  10.060  0.1454 -0.3550  0.5448
 6477TIP3   OH240921   3.968   2.267   4.251  0.6264 -0.3327  0.5493
 6477TIP3    H140922   3.903   2.326   4.289  0.6740 -0.0157  0.1498
 6477TIP3    H240923   3.918   2.211   4.191  1.0999  1.9542 -2.1716
 6478TIP3   OH240924   6.219   4.060   0.570 -0.0022 -0.2363 -0.6908
 6478TIP3    H140925   6.220   4.151   0.601 -1.6408 -0.2083 -0.6785
 6478TIP3    H240926   6.185   4.065   0.481 -2.2066 -1.0270  0.0568
 6479TIP3   OH240927   3.680   6.135  15.348 -0.0326  0.2121  0.5442
 6479TIP3    H140928   3.648   6.051  15.381 -1.6232  0.5351 -0.0405
 6479TIP3    H240929   3.765   6.115  15.308  0.0247 -0.9346  1.2112
 6480TIP3   OH240930   1.618   7.146  11.905 -0.3722 -0.1561 -0.3214
 6480TIP3    H140931   1.608   7.234  11.870  0.3480 -0.2315 -0.7492
 6480TIP3    H240932   1.541   7.132  11.960 -0.5406  0.6972 -0.3342
 6481TIP3   OH240933   7.220   1.431   4.016 -0.0193 -0.4832  0.5936
 6481TIP3    H140934   7.298   1.389   3.979  2.1865  2.0426  1.9317
 6481TIP3    H240935   7.186   1.485   3.944 -0.5273 -1.5439  0.0209
 6482TIP3   OH240936   4.889   6.785   1.559  0.0323  0.2501 -0.0146
 6482TIP3    H140937   4.863   6.694   1.545  0.1974 -0.1099  1.7948
 6482TIP3    H240938   4.979   6.789   1.527  0.2521 -0.4181  0.4954
 6483TIP3   OH240939   2.481   2.453  10.543  0.1027  0.1452  0.3354
 6483TIP3    H140940   2.520   2.486  10.463  1.2197  0.5758  1.0292
 6483TIP3    H240941   2.387   2.467  10.532  0.3788  1.7802 -0.2022
 6484TIP3   OH240942   0.953   1.778   0.210  0.0597  0.7122  0.8730
 6484TIP3    H140943   0.913   1.795   0.295 -0.7777  1.1678  0.3981
 6484TIP3    H240944   0.961   1.682   0.206  1.5730  0.7521  2.1039
 6485TIP3   OH240945   2.467   1.196   0.796 -0.4522 -0.2347  0.0494
 6485TIP3    H140946   2.416   1.163   0.722 -1.1927 -1.3863  1.0392
 6485TIP3    H240947   2.550   1.148   0.792 -1.1577 -1.5925  0.9287
 6486TIP3   OH240948   3.618   1.374  12.120 -0.2095 -0.1368 -0.0173
 6486TIP3    H140949   3.599   1.439  12.187 -0.4175  0.3115 -0.4995
 6486TIP3    H240950   3.606   1.290  12.164  0.3523  0.1488  0.6882
 6487TIP3   OH240951   0.211   4.996  11.361  0.6594 -0.1145  0.4565
 6487TIP3    H140952   0.290   5.047  11.381  1.1367 -0.3962 -0.6404
 6487TIP3    H240953   0.141   5.062  11.359  0.5419 -0.0444  2.9088
 6488TIP3   OH240954   1.046   0.304   2.249 -0.5740  0.3514 -0.2954
 6488TIP3    H140955   1.073   0.383   2.201 -0.2579 -1.2598 -2.9713
 6488TIP3    H240956   0.977   0.265   2.196  0.3801 -2.0046  0.0378
 6489TIP3   OH240957   0.394   6.447   1.822 -0.1109  0.5798  0.5101
 6489TIP3    H140958   0.384   6.376   1.886 -1.9097  0.6441  0.3410
 6489TIP3    H240959   0.472   6.494   1.851 -0.5330  0.2510  2.3201
 6490TIP3   OH240960   6.172   3.987   0.231 -0.0845 -0.4589  0.4460
 6490TIP3    H140961   6.242   3.923   0.225  1.5931  1.3649 -0.8052
 6490TIP3    H240962   6.150   4.007   0.140 -0.8770  0.3914  0.8039
 6491TIP3   OH240963   0.329   1.225  12.230 -0.1961 -0.3535  0.1397
 6491TIP3    H140964   0.345   1.316  12.207  1.9809 -0.8515 -0.5902
 6491TIP3    H240965   0.246   1.203  12.186 -1.5928  1.6389  1.6207
 6492TIP3   OH240966   5.801   4.627  14.336 -0.0536 -0.1320 -0.9231
 6492TIP3    H140967   5.879   4.635  14.391 -0.0681 -1.2398 -0.7095
 6492TIP3    H240968   5.728   4.622  14.398 -0.4669  2.0926 -1.1359
 6493TIP3   OH240969   4.140   5.735  14.753  1.0217 -1.4207  0.5513
 6493TIP3    H140970   4.224   5.723  14.708  1.8697  0.6735  1.4418
 6493TIP3    H240971   4.076   5.743  14.682  2.1794  0.8798 -0.3298
 6494TIP3   OH240972   3.486   1.501  13.205 -0.5258 -0.0813  0.0069
 6494TIP3    H140973   3.546   1.480  13.278 -2.2124 -1.5569  1.0674
 6494TIP3    H240974   3.405   1.527  13.248 -1.9713 -2.1678 -1.2762
 6495TIP3   OH240975   0.956   6.716  10.927  0.4561  0.6646  0.1283
 6495TIP3    H140976   0.965   6.726  10.833  1.0086 -0.3207  0.0582
 6495TIP3    H240977   0.962   6.805  10.962 -0.7419  1.1436 -0.8305
 6496TIP3   OH240978   2.696   5.142   1.048 -0.4523 -0.3599 -0.3130
 6496TIP3    H140979   2.722   5.123   1.138 -0.7241  0.6173 -0.0070
 6496TIP3    H240980   2.738   5.074   0.996  2.6194  0.9932  0.1500
 6497TIP3   OH240981   1.986   0.896   1.671 -0.4404  0.0804  0.0522
 6497TIP3    H140982   1.942   0.956   1.731  0.5086  0.6143  0.2323
 6497TIP3    H240983   1.970   0.809   1.707 -1.9567  0.1830 -0.2887
 6498TIP3   OH240984   3.148   6.667   2.593 -0.5296  0.0655  0.2748
 6498TIP3    H140985   3.137   6.572   2.593 -0.0350  0.0049  0.0063
 6498TIP3    H240986   3.237   6.681   2.561 -0.0543  0.5522  1.7040
 6499TIP3   OH240987   3.403   0.351  13.446  0.3721  0.1680  0.2915
 6499TIP3    H140988   3.456   0.288  13.397  1.0812  0.5224  0.5950
 6499TIP3    H240989   3.337   0.297  13.491 -1.1701 -0.0650 -2.0687
 6500TIP3   OH240990   4.967   4.069  11.555 -0.0162 -0.3474  0.2029
 6500TIP3    H140991   4.893   4.130  11.559 -0.5882 -0.9592 -0.6237
 6500TIP3    H240992   5.044   4.123  11.570 -0.5644  0.4658  0.1411
 6501TIP3   OH240993   5.416   1.345   1.147 -0.6677 -0.4472  0.4658
 6501TIP3    H140994   5.464   1.376   1.223  1.0557 -0.6288 -0.5110
 6501TIP3    H240995   5.429   1.251   1.146 -1.9972 -0.6590  0.7905
 6502TIP3   OH240996   2.634   6.086   1.379 -0.8335 -0.3290  0.3538
 6502TIP3    H140997   2.580   6.131   1.315 -0.2782 -1.4095 -0.9095
 6502TIP3    H240998   2.722   6.120   1.365 -0.5808 -1.0955  0.0321
 6503TIP3   OH240999   1.825   0.079  14.334  0.3033 -0.1629  0.3341
 6503TIP3    H141000   1.805   0.156  14.388 -0.5067  1.1059 -1.6489
 6503TIP3    H241001   1.739   0.047  14.306  0.6791 -1.2072  0.3151
 6504TIP3   OH241002   0.237   0.978   5.055  0.1230  0.2950 -0.2175
 6504TIP3    H141003   0.251   0.959   4.962 -0.0651 -0.7967 -0.0406
 6504TIP3    H241004   0.185   1.058   5.055 -0.4112 -0.0280 -1.0857
 6505TIP3   OH241005   1.138   3.105  12.617 -0.4119  0.1231  0.7689
 6505TIP3    H141006   1.160   3.016  12.589  1.8105  0.2262  1.9697
 6505TIP3    H241007   1.055   3.095  12.665 -0.9307 -1.0354 -0.3225
 6506TIP3   OH241008   0.964   5.617  15.016 -0.0391  0.3220  0.3156
 6506TIP3    H141009   1.001   5.529  15.026 -0.2608 -0.0725 -1.7545
 6506TIP3    H241010   1.027   5.662  14.959  0.0995  1.5380  1.4054
 6507TIP3   OH241011   6.429   6.825   2.200 -0.0890 -0.1482  0.5977
 6507TIP3    H141012   6.337   6.846   2.219  0.3186  1.4466  0.8941
 6507TIP3    H241013   6.479   6.873   2.265  1.0167  0.0057 -0.3313
 6508TIP3   OH241014   6.137   3.038  12.321  0.0071  0.1062  0.0221
 6508TIP3    H141015   6.064   3.087  12.358 -1.1527 -2.7130  1.7796
 6508TIP3    H241016   6.213   3.065  12.372 -0.5982  0.0477  0.9639
 6509TIP3   OH241017   1.671   2.059   4.023 -0.0749  0.1291  0.4303
 6509TIP3    H141018   1.616   2.035   3.948  0.0756 -0.1404  0.4050
 6509TIP3    H241019   1.663   1.986   4.083  2.0745 -1.0121 -0.5712
 6510TIP3   OH241020   0.886   0.550  12.422 -0.4281 -0.6275  0.1314
 6510TIP3    H141021   0.810   0.491  12.419 -0.4095 -0.6182 -0.9750
 6510TIP3    H241022   0.934   0.523  12.500 -1.0669 -1.2711  0.3170
 6511TIP3   OH241023   1.497   5.738   3.053 -0.4607 -0.1240 -0.1943
 6511TIP3    H141024   1.420   5.710   3.004 -0.1553 -1.0991 -0.1439
 6511TIP3    H241025   1.535   5.809   3.000  0.7778 -2.2126 -2.2979
 6512TIP3   OH241026   2.677   7.122  14.412  0.2170 -0.4496  0.1378
 6512TIP3    H141027   2.610   7.151  14.351  1.3336 -0.3717 -1.0978
 6512TIP3    H241028   2.681   7.191  14.479 -1.0662 -0.5748  0.3566
 6513TIP3   OH241029   6.447   5.006   9.860  0.0853 -0.4057  0.2204
 6513TIP3    H141030   6.394   4.931   9.888  0.8023 -1.4896 -1.2096
 6513TIP3    H241031   6.468   4.988   9.769  1.0985  1.0823  0.1211
 6514TIP3   OH241032   2.215   5.399  12.948 -0.1112  0.9299  0.2033
 6514TIP3    H141033   2.126   5.364  12.956 -0.0770  1.0246  1.0827
 6514TIP3    H241034   2.266   5.351  13.013  0.0196  2.3382  1.1801
 6515TIP3   OH241035   4.559   2.165   0.827 -0.0003  1.0628 -0.7778
 6515TIP3    H141036   4.490   2.227   0.851 -0.5251 -0.3293  1.6257
 6515TIP3    H241037   4.617   2.163   0.903  1.2036  0.1896 -1.6779
 6516TIP3   OH241038   5.305   4.418  12.910 -0.6715  0.1593  0.5019
 6516TIP3    H141039   5.260   4.384  12.987 -1.2463 -1.7354 -0.6017
 6516TIP3    H241040   5.389   4.371  12.909 -0.3019  0.8171  0.4524
 6517TIP3   OH241041   1.981   1.402  13.836 -0.2794  0.3347  0.2415
 6517TIP3    H141042   1.905   1.346  13.850  0.2098  0.1922  2.6761
 6517TIP3    H241043   2.007   1.383  13.746 -2.3426 -0.5451 -0.2408
 6518TIP3   OH241044   6.906   2.509  15.173  0.0321  0.1530 -0.0728
 6518TIP3    H141045   6.962   2.435  15.195 -1.1306 -1.2076 -1.4044
 6518TIP3    H241046   6.964   2.585  15.174  1.2783 -0.7677  1.2763
 6519TIP3   OH241047   4.497   2.904   3.374 -0.0865 -0.1915  0.2339
 6519TIP3    H141048   4.413   2.912   3.419  0.1702 -0.7524  0.8393
 6519TIP3    H241049   4.481   2.940   3.286 -1.0396 -0.5703  0.2357
 6520TIP3   OH241050   2.803   0.658  13.288  0.2131  0.2153  0.0154
 6520TIP3    H141051   2.839   0.571  13.271 -1.4830 -0.3949 -0.6124
 6520TIP3    H241052   2.774   0.690  13.203 -0.4254  0.8107  0.4368
 6521TIP3   OH241053   1.015   6.285   0.395 -0.3822  0.1314 -0.0611
 6521TIP3    H141054   1.071   6.356   0.427 -1.4142  1.0007 -0.1459
 6521TIP3    H241055   1.047   6.268   0.307  0.2848  0.0327  0.1873
 6522TIP3   OH241056   4.402   5.884  15.220 -0.4489  0.3519 -0.1339
 6522TIP3    H141057   4.444   5.885  15.306  0.0842 -0.1649 -0.3780
 6522TIP3    H241058   4.340   5.811  15.225  1.2237 -1.2042 -0.9185
 6523TIP3   OH241059   0.222   5.220  11.100  0.8720  0.3634  0.1431
 6523TIP3    H141060   0.148   5.167  11.130  1.1982  0.9841  2.2736
 6523TIP3    H241061   0.203   5.238  11.008 -0.5081 -1.3019  0.0514
 6524TIP3   OH241062   3.361   3.432  15.372  0.6698 -0.0055  0.2998
 6524TIP3    H141063   3.279   3.412  15.417 -1.2344  1.0174 -2.3987
 6524TIP3    H241064   3.365   3.528  15.370  2.3960 -0.0189  1.0626
 6525TIP3   OH241065   2.406   1.162  14.720 -0.2292  0.3723 -0.3475
 6525TIP3    H141066   2.418   1.074  14.683  0.6465  0.8143 -1.1609
 6525TIP3    H241067   2.426   1.152  14.813  2.1294  0.1205 -0.8190
 6526TIP3   OH241068   3.115   0.045   4.321  0.6198 -0.0332 -0.0157
 6526TIP3    H141069   3.145   0.118   4.374 -1.2963  1.0900 -0.3620
 6526TIP3    H241070   3.024   0.032   4.347  0.7356 -1.9522 -0.3750
 6527TIP3   OH241071   4.273   0.997   0.542 -0.1055  0.0768 -0.1575
 6527TIP3    H141072   4.335   1.013   0.471 -0.0210 -0.6979 -0.2683
 6527TIP3    H241073   4.310   0.923   0.590 -1.4627 -1.1072 -0.8547
 6528TIP3   OH241074   0.455   0.121   3.545 -0.2849 -1.3547  0.4978
 6528TIP3    H141075   0.365   0.133   3.577  0.2728  1.4319  1.3168
 6528TIP3    H241076   0.506   0.106   3.624  0.1269 -1.8469  0.1387
 6529TIP3   OH241077   5.112   5.327  11.552  0.1452  0.4490 -0.2300
 6529TIP3    H141078   5.018   5.312  11.553  0.2477 -0.2383 -0.4827
 6529TIP3    H241079   5.148   5.261  11.612  0.1586  3.0660  2.9129
 6530TIP3   OH241080   2.113   1.814  14.391  0.4199 -0.2318  0.2710
 6530TIP3    H141081   2.027   1.792  14.355 -1.3645  0.0962  3.8634
 6530TIP3    H241082   2.118   1.909  14.384  1.1623 -0.3573 -1.1817
 6531TIP3   OH241083   5.239   4.171  11.597  0.1928 -0.6969 -0.1608
 6531TIP3    H141084   5.276   4.196  11.512 -0.9798 -0.0928 -0.5099
 6531TIP3    H241085   5.315   4.149  11.651  0.9665 -0.8294 -1.2835
 6532TIP3   OH241086   6.869   1.294  15.184 -0.0997  0.1597 -0.4384
 6532TIP3    H141087   6.834   1.206  15.191 -1.1477  0.4635 -1.5914
 6532TIP3    H241088   6.964   1.282  15.172  0.0357 -0.7127  1.3439
 6533TIP3   OH241089   2.013   3.985   2.141 -0.5159  0.0482 -0.0338
 6533TIP3    H141090   1.998   3.998   2.235 -0.1275 -0.6921  0.1391
 6533TIP3    H241091   2.089   3.926   2.137 -0.8615 -0.3565 -0.8021
 6534TIP3   OH241092   3.670   7.134   3.074  0.0885  0.7186  0.3447
 6534TIP3    H141093   3.585   7.104   3.042  0.6363  0.0568 -0.5483
 6534TIP3    H241094   3.714   7.053   3.101  0.5778  1.0119  0.4256
 6535TIP3   OH241095   1.911   6.390   0.176 -0.4446 -0.3591 -0.6528
 6535TIP3    H141096   1.854   6.438   0.236  0.3275 -1.0253  0.6774
 6535TIP3    H241097   1.999   6.400   0.212 -0.0446 -1.3527 -1.2814
 6536TIP3   OH241098   6.760   4.734  10.587 -0.1469  0.4732 -0.6067
 6536TIP3    H141099   6.706   4.731  10.508 -0.8439  0.3139 -0.1219
 6536TIP3    H241100   6.848   4.710  10.556 -0.6801 -0.9553 -1.1003
 6537TIP3   OH241101   5.901   0.672  14.662 -0.2831 -0.2490  0.3178
 6537TIP3    H141102   5.851   0.600  14.698 -1.4101 -0.4736 -1.5432
 6537TIP3    H241103   5.836   0.740  14.645 -0.2810 -0.9101 -3.0874
 6538TIP3   OH241104   6.850   5.126   9.776 -0.4489  0.2945 -0.1095
 6538TIP3    H141105   6.823   5.034   9.776 -1.3246  0.4593  2.3078
 6538TIP3    H241106   6.851   5.152   9.684 -0.8797 -1.9331 -0.7909
 6539TIP3   OH241107   4.888   3.516  12.160 -0.1247  0.4337 -0.5267
 6539TIP3    H141108   4.933   3.520  12.075  0.0055  2.7167 -0.4194
 6539TIP3    H241109   4.953   3.545  12.223 -0.4190 -0.6220  0.2766
 6540TIP3   OH241110   5.027   6.201   0.275 -0.0926 -0.3397 -0.7425
 6540TIP3    H141111   5.073   6.119   0.255  0.3228 -0.3551  0.2049
 6540TIP3    H241112   4.934   6.179   0.270  0.0173 -0.9391 -0.2382
 6541TIP3   OH241113   5.067   2.625   0.840  0.0326 -0.2656 -0.4944
 6541TIP3    H141114   5.142   2.653   0.787 -0.5306  1.2251 -0.5279
 6541TIP3    H241115   5.091   2.537   0.869  1.0034 -0.5373 -1.9880
 6542TIP3   OH241116   1.608   0.271  11.038  0.4338  0.3785  0.2105
 6542TIP3    H141117   1.584   0.284  11.129  1.2224  2.7772  0.1418
 6542TIP3    H241118   1.697   0.236  11.041 -0.3337 -1.7082  0.3373
 6543TIP3   OH241119   4.818   5.854  10.223 -0.5585  0.6026  0.2282
 6543TIP3    H141120   4.735   5.812  10.197  0.1775  0.8270 -2.8596
 6543TIP3    H241121   4.857   5.793  10.285 -2.4361 -0.1179  0.7796
 6544TIP3   OH241122   6.631   5.480  13.270 -0.2235  0.2468 -0.3724
 6544TIP3    H141123   6.592   5.566  13.255  1.7251  1.1163 -0.7941
 6544TIP3    H241124   6.605   5.428  13.194 -1.4074  0.4399 -0.1163
 6545TIP3   OH241125   0.157   0.472   0.177 -0.2462  0.1485 -0.4751
 6545TIP3    H141126   0.237   0.494   0.130  0.2345 -2.8450 -1.2358
 6545TIP3    H241127   0.087   0.502   0.119  0.3545 -1.5941 -2.2191
 6546TIP3   OH241128   6.023   1.841  13.939 -0.3838 -0.1307  0.2038
 6546TIP3    H141129   6.006   1.874  14.027 -0.0961 -2.1718  1.0766
 6546TIP3    H241130   5.940   1.851  13.893 -1.7949 -2.6649  1.9724
 6547TIP3   OH241131   6.069   5.447   3.469 -0.1959  0.1535  0.2820
 6547TIP3    H141132   6.024   5.528   3.491 -1.3869 -0.2409 -0.6345
 6547TIP3    H241133   6.127   5.470   3.396  0.7522  0.5393  1.1241
 6548TIP3   OH241134   3.524   1.393   4.037  0.2888 -0.1254  0.1095
 6548TIP3    H141135   3.432   1.416   4.026  0.5386  1.8289  1.4882
 6548TIP3    H241136   3.567   1.424   3.957  0.1229  1.5326  0.6240
 6549TIP3   OH241137   0.913   5.571  12.493 -0.2578  0.3744 -0.2396
 6549TIP3    H141138   0.865   5.500  12.537  0.0812  0.8961  1.0374
 6549TIP3    H241139   0.953   5.620  12.565  3.4477 -0.8505 -1.2646
 6550TIP3   OH241140   5.777   2.425  13.420  0.3693 -0.3451  0.5285
 6550TIP3    H141141   5.767   2.451  13.329  0.2853  0.2131  0.6918
 6550TIP3    H241142   5.803   2.333  13.416 -1.3710 -0.8519 -0.0022
 6551TIP3   OH241143   2.337   2.627  13.760  0.0428 -0.6203 -0.4066
 6551TIP3    H141144   2.282   2.627  13.838  1.2804 -0.2210  0.5023
 6551TIP3    H241145   2.404   2.561  13.778 -0.0428 -1.0172 -1.4402
 6552TIP3   OH241146   5.033   0.821  10.956 -0.0731 -0.6968 -0.2644
 6552TIP3    H141147   4.944   0.855  10.944  1.3506  2.8893 -2.1381
 6552TIP3    H241148   5.020   0.730  10.982 -4.2709 -0.3226 -0.3229
 6553TIP3   OH241149   5.957   6.383  13.710  0.1379  0.3613 -0.4213
 6553TIP3    H141150   5.936   6.459  13.764 -1.0467 -0.2717  0.0268
 6553TIP3    H241151   5.986   6.317  13.772  2.0577  0.6959 -0.8862
 6554TIP3   OH241152   3.842   1.885   0.561 -0.2223 -0.7010  0.0420
 6554TIP3    H141153   3.776   1.845   0.503  1.2390 -0.9851 -1.4990
 6554TIP3    H241154   3.790   1.939   0.621 -1.8106  0.7213 -2.3845
 6555TIP3   OH241155   4.003   6.034  14.494  0.5557  0.1562  0.2081
 6555TIP3    H141156   4.092   6.025  14.462  0.5970  0.8512  0.1038
 6555TIP3    H241157   3.961   6.094  14.431 -0.4355 -1.3565 -0.6421
 6556TIP3   OH241158   0.229   0.780  14.354  0.1909  0.5577  0.0609
 6556TIP3    H141159   0.202   0.818  14.438 -0.1136  0.2448  0.1060
 6556TIP3    H241160   0.158   0.721  14.331 -0.7340  2.1818 -1.4497
 6557TIP3   OH241161   1.163   4.613   0.983  0.1307  0.1862 -0.0434
 6557TIP3    H141162   1.082   4.564   0.972  0.5261 -0.1432 -1.9023
 6557TIP3    H241163   1.232   4.546   0.982  0.6678  0.6894 -2.4905
 6558TIP3   OH241164   6.668   0.413   2.613  0.0465 -0.3489 -0.1912
 6558TIP3    H141165   6.602   0.397   2.681 -0.4251  0.0287 -0.5611
 6558TIP3    H241166   6.724   0.482   2.650  0.3157 -0.7511  0.1713
 6559TIP3   OH241167   6.859   0.267  12.053 -1.0276 -0.0460 -0.5695
 6559TIP3    H141168   6.809   0.229  12.125 -0.9548 -0.8803 -0.9530
 6559TIP3    H241169   6.927   0.203  12.034  0.1469  1.0327 -0.1207
 6560TIP3   OH241170   5.526   5.548  14.220  0.1349  0.3061 -0.2722
 6560TIP3    H141171   5.527   5.594  14.304 -1.3512  1.1908 -0.6961
 6560TIP3    H241172   5.436   5.560  14.187  0.0646 -1.8509 -1.0010
 6561TIP3   OH241173   1.346   2.664   1.642 -0.0334 -0.2114 -0.0902
 6561TIP3    H141174   1.432   2.700   1.621  0.7350 -1.6593  0.5107
 6561TIP3    H241175   1.285   2.721   1.594  1.2293  0.8527 -0.5049
 6562TIP3   OH241176   2.911   7.210   6.190 -0.3576 -0.3665 -0.5305
 6562TIP3    H141177   2.992   7.241   6.231 -0.4289 -0.3890 -0.3718
 6562TIP3    H241178   2.848   7.281   6.207 -0.5123 -0.5801 -0.1966
 6563TIP3   OH241179   2.153   5.245   0.950 -0.0229  0.3953 -0.2758
 6563TIP3    H141180   2.104   5.257   1.031 -0.5821 -2.3169 -0.0943
 6563TIP3    H241181   2.243   5.226   0.979 -0.4799 -1.8554 -0.1011
 6564TIP3   OH241182   4.346   6.791   1.998 -0.5425 -0.1711 -0.4399
 6564TIP3    H141183   4.262   6.745   1.989 -1.3370  1.0578  0.3121
 6564TIP3    H241184   4.407   6.724   2.026 -1.1134 -1.2335 -1.6268
 6565TIP3   OH241185   5.638   4.588   0.161 -0.0558 -0.3697 -0.1201
 6565TIP3    H141186   5.582   4.578   0.239  0.5114  1.5254  0.5829
 6565TIP3    H241187   5.651   4.498   0.130 -3.1300 -0.9557 -0.0957
 6566TIP3   OH241188   4.160   5.103   2.317 -0.1877 -0.3948  0.0324
 6566TIP3    H141189   4.070   5.093   2.285  0.0632 -0.3289 -0.7092
 6566TIP3    H241190   4.153   5.168   2.386 -1.0891 -2.0977  1.6445
 6567TIP3   OH241191   6.552   5.741   0.617  0.3063 -0.0960 -1.0444
 6567TIP3    H141192   6.493   5.666   0.610 -1.3475  0.9762  0.4136
 6567TIP3    H241193   6.604   5.723   0.696 -0.7762  0.6789 -0.1176
 6568TIP3   OH241194   1.886   1.497   9.695 -0.1273  0.3370  0.4686
 6568TIP3    H141195   1.813   1.515   9.636  0.0185 -1.4368 -0.3315
 6568TIP3    H241196   1.900   1.578   9.742 -1.5607  1.2024 -0.5291
 6569TIP3   OH241197   3.469   3.305  10.318  0.0208  0.7230 -0.0003
 6569TIP3    H141198   3.553   3.305  10.272 -0.4706 -0.0003 -0.9450
 6569TIP3    H241199   3.425   3.384  10.286 -0.5430 -0.0637 -1.2491
 6570TIP3   OH241200   1.890   0.004   1.464 -0.1612 -0.7655  0.2739
 6570TIP3    H141201   1.938   0.031   1.387 -0.5836 -0.5662  0.0779
 6570TIP3    H241202   1.958  -0.021   1.527  0.1768 -1.6174 -0.4024
 6571TIP3   OH241203   6.360   3.356  13.206 -0.7485 -0.1144  0.4691
 6571TIP3    H141204   6.322   3.296  13.270 -0.9906  1.0774  1.4704
 6571TIP3    H241205   6.438   3.390  13.247 -1.2625  1.1698  0.4209
 6572TIP3   OH241206   3.382   2.176   4.524 -0.1785 -0.4922 -0.1559
 6572TIP3    H141207   3.451   2.166   4.459 -0.6269 -2.4647 -0.3929
 6572TIP3    H241208   3.319   2.235   4.483  0.6272  0.1165 -0.5450
 6573TIP3   OH241209   2.591   1.824   3.298 -0.0723 -0.0932 -0.2908
 6573TIP3    H141210   2.588   1.900   3.357  1.9449  0.4456 -0.8175
 6573TIP3    H241211   2.661   1.769   3.333 -2.1172 -2.2827  0.6533
 6574TIP3   OH241212   1.340   4.145  12.252  0.1354  0.6123 -0.0988
 6574TIP3    H141213   1.375   4.224  12.211 -0.8279  0.8252 -0.5440
 6574TIP3    H241214   1.262   4.125  12.201 -0.2989  0.0602  0.7692
 6575TIP3   OH241215   3.952   2.277  14.378 -0.5069  0.5840 -0.2028
 6575TIP3    H141216   3.898   2.269  14.300  0.8417 -1.4949 -1.0117
 6575TIP3    H241217   4.013   2.203  14.373  0.8582  1.4634  1.8634
 6576TIP3   OH241218   2.464   4.667  14.565  0.1992  0.3036  0.0546
 6576TIP3    H141219   2.508   4.598  14.516 -1.4586 -1.8003  1.3732
 6576TIP3    H241220   2.519   4.681  14.642  0.6032  0.5597 -0.2776
 6577TIP3   OH241221   2.606   2.309  12.641  0.0841 -0.2284 -0.7969
 6577TIP3    H141222   2.650   2.257  12.708 -1.0350 -1.1189 -0.7195
 6577TIP3    H241223   2.669   2.376  12.617  0.0463  1.0114  2.1449
 6578TIP3   OH241224   3.482   0.715   9.919 -0.3136  0.1796 -0.6640
 6578TIP3    H141225   3.396   0.678   9.898 -1.4920  3.0693 -1.4855
 6578TIP3    H241226   3.528   0.720   9.835  0.0047  0.1961 -0.4908
 6579TIP3   OH241227   5.093   5.439  12.357  0.0728  0.0158  0.0673
 6579TIP3    H141228   5.056   5.373  12.415 -0.2668  0.5030  0.4115
 6579TIP3    H241229   5.100   5.518  12.410  0.3146  0.3087 -0.3865
 6580TIP3   OH241230   3.382   2.699  14.058  0.1848  0.1845  0.2638
 6580TIP3    H141231   3.332   2.656  13.989  1.1868 -0.0474 -0.3408
 6580TIP3    H241232   3.442   2.632  14.089  1.5997  1.0280 -0.5260
 6581TIP3   OH241233   0.877   6.153   4.807 -0.8466 -0.0066 -0.9881
 6581TIP3    H141234   0.933   6.166   4.884  0.1382 -1.9853 -1.3087
 6581TIP3    H241235   0.917   6.206   4.739 -0.8841  0.6263 -0.5289
 6582TIP3   OH241236   3.099   1.517   2.195 -0.6288 -0.3720 -0.1352
 6582TIP3    H141237   3.080   1.551   2.107 -0.2126 -0.4953 -0.2774
 6582TIP3    H241238   3.031   1.555   2.250 -1.6892 -1.3305 -0.7390
 6583TIP3   OH241239   5.888   1.163  14.184 -0.5353  0.5542  0.5432
 6583TIP3    H141240   5.911   1.244  14.139 -1.5192 -0.0727 -1.1800
 6583TIP3    H241241   5.947   1.098  14.146 -1.3230  0.0268  0.2172
 6584TIP3   OH241242   4.862   1.597  11.669 -0.0413 -0.4958 -0.1079
 6584TIP3    H141243   4.956   1.580  11.671 -0.2032 -1.4124  0.1890
 6584TIP3    H241244   4.822   1.511  11.671 -0.8905 -0.2414 -2.7454
 6585TIP3   OH241245   4.889   5.867   0.756 -0.1710  0.2765  0.5311
 6585TIP3    H141246   4.866   5.774   0.761 -0.4214  0.3651  1.0287
 6585TIP3    H241247   4.984   5.868   0.766 -0.3705  0.2345  2.8925
 6586TIP3   OH241248   5.982   3.467  14.268  0.5343  0.0565 -0.2454
 6586TIP3    H141249   5.904   3.417  14.292  1.7277 -1.3126  0.9176
 6586TIP3    H241250   6.055   3.410  14.290  1.9407  1.9408  0.1986
 6587TIP3   OH241251   3.056   6.454  11.030 -0.0541  0.2583 -0.5797
 6587TIP3    H141252   2.974   6.424  10.992 -0.2127 -1.4496  0.9725
 6587TIP3    H241253   3.117   6.382  11.016  0.6033  0.6700  0.0537
 6588TIP3   OH241254   0.680   2.854  13.239  0.3613  0.3921 -0.1800
 6588TIP3    H141255   0.635   2.777  13.272  1.0241 -0.2558 -0.7551
 6588TIP3    H241256   0.760   2.860  13.292  0.5570  0.3851 -0.4696
 6589TIP3   OH241257   1.352   4.885  11.458  0.2136 -0.0521 -0.4232
 6589TIP3    H141258   1.314   4.823  11.395  1.2314  1.2024 -2.3532
 6589TIP3    H241259   1.365   4.965  11.408 -1.3733  1.9007  2.0951
 6590TIP3   OH241260   2.696   2.955   0.635  0.2003 -0.1113 -0.1317
 6590TIP3    H141261   2.687   2.940   0.541 -0.8371  2.2181 -0.4918
 6590TIP3    H241262   2.621   2.910   0.674  0.5711 -0.9910 -0.4331
 6591TIP3   OH241263   1.893   7.017  14.037 -0.6055 -0.1657 -0.4949
 6591TIP3    H141264   1.854   7.043  14.121 -0.5267  0.3987 -0.6276
 6591TIP3    H241265   1.953   6.946  14.060 -0.6726 -0.0995 -0.0911
 6592TIP3   OH241266   2.559   4.922   0.755  0.3070 -0.7402 -0.5390
 6592TIP3    H141267   2.607   4.895   0.834 -0.2675 -0.1574  0.0211
 6592TIP3    H241268   2.592   5.009   0.735 -1.2970  0.1805  0.5463
 6593TIP3   OH241269   3.121   2.881   2.340  0.6373 -0.3156  0.3054
 6593TIP3    H141270   3.066   2.852   2.268  0.8502 -1.1139  0.4572
 6593TIP3    H241271   3.210   2.875   2.307  0.7729 -1.2090  0.8039
 6594TIP3   OH241272   2.109   4.599  13.679 -0.6608 -0.2640  0.8788
 6594TIP3    H141273   2.098   4.689  13.708  3.1356  1.1639 -1.3907
 6594TIP3    H241274   2.176   4.563  13.738 -0.2529 -0.7107  0.1530
 6595TIP3   OH241275   6.894   6.707  10.997  0.5009 -0.0548 -0.0511
 6595TIP3    H141276   6.920   6.710  10.905 -1.9291  0.1241 -0.8012
 6595TIP3    H241277   6.843   6.626  11.005  0.2072  0.2152  0.9930
 6596TIP3   OH241278   5.693   0.015   1.302 -0.3703 -0.0248  0.1649
 6596TIP3    H141279   5.661   0.027   1.212 -1.0603  0.1463  0.4321
 6596TIP3    H241280   5.620  -0.027   1.348  0.3858 -1.1532  0.3670
 6597TIP3   OH241281   2.401   2.146  13.173 -0.0906 -0.0167 -0.1674
 6597TIP3    H141282   2.469   2.171  13.111  0.9445 -0.6047  0.6983
 6597TIP3    H241283   2.381   2.055  13.151  0.6995 -0.4141  0.7192
 6598TIP3   OH241284   0.401   6.387   3.960 -0.0077 -0.2159  0.3233
 6598TIP3    H141285   0.400   6.318   3.894  2.6584 -0.9108  0.9187
 6598TIP3    H241286   0.354   6.348   4.035 -0.8734 -0.3427 -0.2687
 6599TIP3   OH241287   0.406   5.029  11.698 -0.7833  0.3060 -0.3795
 6599TIP3    H141288   0.348   4.977  11.643 -0.4721  0.6080 -0.9965
 6599TIP3    H241289   0.492   5.023  11.655 -0.2252 -0.5380  0.7747
 6600TIP3   OH241290   6.215   1.691   5.052  0.3167 -0.2739 -0.0193
 6600TIP3    H141291   6.252   1.695   5.140 -0.5834 -0.8851  0.4112
 6600TIP3    H241292   6.289   1.702   4.993  1.2245 -1.7442  0.7976
 6601TIP3   OH241293   3.297   5.881  11.219  0.3531 -0.4955  0.3328
 6601TIP3    H141294   3.287   5.936  11.142  0.2658  0.2684  0.8751
 6601TIP3    H241295   3.321   5.795  11.185  1.4457  0.1172 -0.4810
 6602TIP3   OH241296   1.955   5.374  13.601 -0.1712 -0.2496 -0.3592
 6602TIP3    H141297   1.870   5.417  13.594  0.2823  0.9394  0.9107
 6602TIP3    H241298   1.997   5.417  13.676  0.9973 -1.7568 -0.1049
 6603TIP3   OH241299   4.397   0.360  15.384 -0.3176 -0.5525  0.5584
 6603TIP3    H141300   4.321   0.396  15.430 -0.5536 -0.7540  0.3250
 6603TIP3    H241301   4.453   0.436  15.367 -0.2343 -0.4700  1.1620
 6604TIP3   OH241302   3.683   4.554  10.294 -0.5143  0.5555  0.7488
 6604TIP3    H141303   3.777   4.573  10.300 -0.3381  0.6491 -1.4850
 6604TIP3    H241304   3.641   4.639  10.281 -0.6633  0.3288 -0.3466
 6605TIP3   OH241305   1.192   5.592  11.124  0.3713 -0.4050 -0.1937
 6605TIP3    H141306   1.269   5.538  11.109  1.4248  0.6422  1.1913
 6605TIP3    H241307   1.198   5.619  11.216 -0.2508  1.7811 -0.7168
 6606TIP3   OH241308   5.655   2.149  10.320  0.0023 -0.1629  0.1940
 6606TIP3    H141309   5.674   2.206  10.246  2.8795 -0.3968  0.6277
 6606TIP3    H241310   5.561   2.130  10.313 -0.1307  1.0549 -2.4488
 6607TIP3   OH241311   2.098   0.085  14.290 -0.4180 -0.0421 -0.1177
 6607TIP3    H141312   2.003   0.081  14.298 -0.4995 -2.1496 -1.4320
 6607TIP3    H241313   2.114   0.095  14.196  0.6811  0.4184  0.1001
 6608TIP3   OH241314   3.989   0.745   1.998  0.3317  0.6317  0.3845
 6608TIP3    H141315   3.986   0.841   1.997  1.7101  0.7019 -0.2950
 6608TIP3    H241316   4.015   0.722   2.087 -1.8745  0.7591  1.1225
 6609TIP3   OH241317   6.233   4.674   2.182 -0.0084  0.2468  0.2009
 6609TIP3    H141318   6.202   4.740   2.244 -0.4415 -0.9287  1.2951
 6609TIP3    H241319   6.326   4.693   2.172 -0.2150  1.2904  0.1329
 6610TIP3   OH241320   3.266   3.530  11.706  0.7983 -0.2723 -0.5657
 6610TIP3    H141321   3.175   3.504  11.722  0.5930  1.1479  0.8909
 6610TIP3    H241322   3.270   3.545  11.612 -0.7407  0.4140 -0.5641
 6611TIP3   OH241323   3.301   2.920  14.960 -0.2323 -0.0521 -0.0582
 6611TIP3    H141324   3.362   2.940  15.031  1.9371 -0.7081 -1.6109
 6611TIP3    H241325   3.302   2.824  14.955  0.3117  0.0121 -1.4730
 6612TIP3   OH241326   1.237   5.696  11.398  0.3214  0.2602 -0.1737
 6612TIP3    H141327   1.221   5.618  11.452  0.3437 -0.0963 -0.6784
 6612TIP3    H241328   1.253   5.766  11.462 -1.3132  0.2199  0.3214
 6613TIP3   OH241329   0.845   7.148  13.025 -0.1360 -0.1206  0.0100
 6613TIP3    H141330   0.924   7.118  13.071  0.2328 -0.6652 -0.9528
 6613TIP3    H241331   0.775   7.093  13.059  0.1311 -0.5202 -0.0762
 6614TIP3   OH241332   3.497   5.437  14.941 -0.1253 -0.2258 -0.0514
 6614TIP3    H141333   3.488   5.355  14.990  0.3465 -0.1940  0.0881
 6614TIP3    H241334   3.551   5.493  14.996 -0.2091  0.0809 -0.2751
 6615TIP3   OH241335   2.779   4.923  12.978  0.4228  0.1161 -0.1354
 6615TIP3    H141336   2.787   4.830  12.998  2.8825 -0.1062 -1.6804
 6615TIP3    H241337   2.742   4.925  12.890  1.0258  0.5275 -0.3926
 6616TIP3   OH241338   2.673   4.184   0.996 -0.6408  0.0285 -0.0005
 6616TIP3    H141339   2.638   4.156   1.081 -1.5192  1.0730  0.0097
 6616TIP3    H241340   2.643   4.118   0.934  0.9003 -1.3386  0.6189
 6617TIP3   OH241341   5.129   7.001   2.791  0.3621  0.0762  0.0579
 6617TIP3    H141342   5.043   7.038   2.770  0.1225 -1.3373 -1.6358
 6617TIP3    H241343   5.123   6.979   2.884 -0.3996  1.7604  0.4550
 6618TIP3   OH241344   0.042   1.084  14.955  0.7840 -0.0662 -0.4469
 6618TIP3    H141345   0.070   1.141  14.883 -1.5557 -0.0362 -1.4053
 6618TIP3    H241346  -0.001   1.010  14.912  1.8183 -1.4963  0.8700
 6619TIP3   OH241347   0.746   2.427  12.478  0.0340 -0.0584 -0.0505
 6619TIP3    H141348   0.836   2.403  12.502 -0.4914 -0.9516  1.0938
 6619TIP3    H241349   0.757   2.494  12.411  1.5637  0.2042  0.4150
 6620TIP3   OH241350   1.490   2.481   3.280 -0.2115 -0.3449 -0.5191
 6620TIP3    H141351   1.508   2.523   3.196 -0.3124 -1.5127 -1.1369
 6620TIP3    H241352   1.508   2.550   3.345  0.5572  0.3546 -1.4436
 6621TIP3   OH241353   6.121   4.258  14.982  0.1436  0.0862 -0.4682
 6621TIP3    H141354   6.193   4.313  14.953  1.1790 -0.4393  0.9960
 6621TIP3    H241355   6.127   4.259  15.078 -0.7562 -1.3288 -0.3674
 6622TIP3   OH241356   6.065   5.217   0.309 -0.0277  0.2211  0.6794
 6622TIP3    H141357   5.998   5.280   0.282  1.0016  0.6641 -0.9846
 6622TIP3    H241358   6.147   5.266   0.300  0.6263 -0.7039  1.4772
 6623TIP3   OH241359   0.714   6.858  14.774 -0.1338 -1.0560  0.1755
 6623TIP3    H141360   0.809   6.850  14.784  0.0715  0.7972  0.0906
 6623TIP3    H241361   0.681   6.855  14.864  0.1242 -0.6350  0.2893
 6624TIP3   OH241362   0.287   3.815   9.600 -0.6124  0.1500  0.0231
 6624TIP3    H141363   0.310   3.908   9.591 -0.8222  0.1243 -0.7851
 6624TIP3    H241364   0.194   3.816   9.623 -0.5496  0.1444  0.2848
 6625TIP3   OH241365   0.996   5.040  13.377  0.2059 -0.2738  0.0722
 6625TIP3    H141366   0.935   5.094  13.327  1.1267  0.2160 -0.5523
 6625TIP3    H241367   0.947   4.960  13.396 -0.2877 -0.3374 -1.3479
 6626TIP3   OH241368   4.608   1.040   2.798 -0.5101  0.6953  0.3648
 6626TIP3    H141369   4.650   1.070   2.879  2.1612 -0.6907 -0.3784
 6626TIP3    H241370   4.618   1.114   2.738  2.2899 -0.0104 -0.1982
 6627TIP3   OH241371   4.507   2.499   0.117 -0.0352  1.3714 -0.0395
 6627TIP3    H141372   4.584   2.462   0.160 -1.1235 -1.1845 -0.1169
 6627TIP3    H241373   4.434   2.475   0.175 -1.0112  1.7510 -1.0829
 6628TIP3   OH241374   3.741   2.945  14.846  0.1738 -0.5012 -0.3631
 6628TIP3    H141375   3.651   2.917  14.834  0.3201 -0.3132 -2.2158
 6628TIP3    H241376   3.766   2.981  14.761  2.0802 -0.7948  0.0308
 6629TIP3   OH241377   4.158   4.472  10.935  0.2899  0.0615 -0.5616
 6629TIP3    H141378   4.229   4.444  10.993  1.0450  1.3501 -0.8216
 6629TIP3    H241379   4.132   4.558  10.968  1.3425  1.2414 -2.5984
 6630TIP3   OH241380   0.305   3.997   1.069  0.5891 -0.3286  0.1845
 6630TIP3    H141381   0.264   3.933   1.011  0.2438 -0.2977  0.3980
 6630TIP3    H241382   0.398   3.972   1.070  0.6129 -0.2775 -0.4524
 6631TIP3   OH241383   2.969   5.257  11.431 -0.1907  0.3697  0.3705
 6631TIP3    H141384   3.009   5.262  11.518 -1.1045  0.9240  0.7657
 6631TIP3    H241385   3.032   5.206  11.380 -0.4964 -1.6181  1.8455
 6632TIP3   OH241386   3.119   3.043   2.839 -0.1278 -0.3232 -0.1347
 6632TIP3    H141387   3.194   2.989   2.864  0.7504  0.6015 -0.7009
 6632TIP3    H241388   3.060   3.037   2.914  1.7584  1.1451  1.5933
 6633TIP3   OH241389   5.920   5.534   3.173  0.1416 -0.0963 -0.7703
 6633TIP3    H141390   5.941   5.443   3.192 -0.1009  0.2682  1.6966
 6633TIP3    H241391   5.828   5.543   3.199  0.9869  1.4851  2.2276
 6634TIP3   OH241392   5.688   4.042  11.435  0.0577 -0.5293 -0.2219
 6634TIP3    H141393   5.752   3.992  11.485 -0.1856  0.8278  1.5331
 6634TIP3    H241394   5.728   4.128  11.423 -0.8845 -0.0737 -0.2245
 6635TIP3   OH241395   6.848   2.202  11.224  0.2490 -0.3768  0.2404
 6635TIP3    H141396   6.903   2.272  11.258  0.6882 -1.6473  2.3257
 6635TIP3    H241397   6.775   2.198  11.286  0.0932 -1.5827 -0.0093
 6636TIP3   OH241398   0.459   3.934  12.979  0.1688 -0.1247  0.2239
 6636TIP3    H141399   0.551   3.954  12.963  0.0529  0.6760  0.5183
 6636TIP3    H241400   0.439   3.863  12.918  0.6796  0.4609 -0.6562
 6637TIP3   OH241401   7.147   3.875   2.739 -0.5250  0.4132 -0.1400
 6637TIP3    H141402   7.080   3.814   2.769 -0.3391  1.6267  3.2248
 6637TIP3    H241403   7.122   3.959   2.779  0.5863  1.9971 -2.5140
 6638TIP3   OH241404   3.925   1.400  12.911 -0.3211  0.3973  0.1376
 6638TIP3    H141405   3.856   1.449  12.955 -0.1755  1.1435 -0.4458
 6638TIP3    H241406   3.880   1.348  12.845 -0.2091  2.1661 -1.4091
 6639TIP3   OH241407   7.071   1.714   0.716  0.2221  0.1230 -0.0423
 6639TIP3    H141408   7.017   1.646   0.756 -0.4762 -0.4732 -1.8990
 6639TIP3    H241409   7.112   1.758   0.790 -3.6226  1.3468  1.6223
 6640TIP3   OH241410   4.268   1.837  10.009  0.0737  0.4090 -0.4801
 6640TIP3    H141411   4.284   1.760  10.064  0.0175  0.1146 -0.8660
 6640TIP3    H241412   4.292   1.912  10.064  1.9954  0.0349 -0.7428
 6641TIP3   OH241413   1.857   1.034  13.608  0.1853 -0.0584 -0.3444
 6641TIP3    H141414   1.869   0.946  13.572  2.0811  0.1182 -0.2240
 6641TIP3    H241415   1.945   1.063  13.633 -0.6669  1.0146  1.6722
 6642TIP3   OH241416   1.128   0.512  13.500  0.0472  0.1879 -0.0140
 6642TIP3    H141417   1.053   0.566  13.526  0.9780  1.6225 -0.1964
 6642TIP3    H241418   1.091   0.445  13.442 -1.3440 -0.2421  1.2989
 6643TIP3   OH241419   3.340   2.820  13.470  0.2867 -0.0348  0.0909
 6643TIP3    H141420   3.382   2.882  13.530  1.4616  0.7367 -1.4342
 6643TIP3    H241421   3.401   2.814  13.396 -0.7807 -1.4646 -0.7230
 6644TIP3   OH241422   7.075   0.429  14.283  0.4381  0.2800  0.0957
 6644TIP3    H141423   7.036   0.351  14.243  0.1304  0.0559  0.8163
 6644TIP3    H241424   7.085   0.405  14.375  2.5118  0.2259 -0.0945
 6645TIP3   OH241425   3.792   1.733  11.504  0.0168  0.2950  0.0522
 6645TIP3    H141426   3.877   1.689  11.496  0.0583  0.3028  0.4437
 6645TIP3    H241427   3.728   1.662  11.498  0.0898  0.1497  0.8648
 6646TIP3   OH241428   2.374   0.340  14.808  0.4870 -0.6414 -0.1617
 6646TIP3    H141429   2.360   0.258  14.855  1.7677 -1.2567 -0.7848
 6646TIP3    H241430   2.417   0.314  14.727 -0.6727  0.5015 -1.1866
 6647TIP3   OH241431   2.244   0.935   0.890  0.1547 -0.2022 -0.2535
 6647TIP3    H141432   2.220   0.977   0.973  3.1368  0.1482  0.5701
 6647TIP3    H241433   2.201   0.850   0.893  0.3310 -0.2804  1.7961
 6648TIP3   OH241434   6.923   5.833  12.376 -0.3328  0.3744 -0.5128
 6648TIP3    H141435   6.854   5.897  12.394 -1.3789 -0.8820  0.1529
 6648TIP3    H241436   6.927   5.828  12.281 -0.7550  0.8906 -0.5595
 6649TIP3   OH241437   0.922   0.750   9.723  0.6046  0.0878  0.3073
 6649TIP3    H141438   0.914   0.686   9.652 -1.4745 -0.6850  1.1577
 6649TIP3    H241439   0.996   0.806   9.697 -0.1457 -0.0812 -2.5066
 6650TIP3   OH241440   5.308   0.364  12.041 -0.3272  0.2388  0.5520
 6650TIP3    H141441   5.378   0.307  12.011 -1.1915 -1.6335  1.8632
 6650TIP3    H241442   5.353   0.442  12.073  1.0101 -0.1779 -0.2272
 6651TIP3   OH241443   5.894   6.949  14.936  0.1124  0.1397  0.6184
 6651TIP3    H141444   5.804   6.917  14.941  0.3935 -0.6191  0.9332
 6651TIP3    H241445   5.937   6.914  15.014  0.6194  0.7008  0.5989
 6652TIP3   OH241446   0.507   1.633   1.342  0.8013 -0.0068  0.6070
 6652TIP3    H141447   0.589   1.660   1.384  1.0893  2.5778 -1.3205
 6652TIP3    H241448   0.438   1.662   1.402  1.2542  0.1386  1.0637
 6653TIP3   OH241449   2.233   3.564   0.233  0.3145  0.3227 -0.1759
 6653TIP3    H141450   2.313   3.610   0.259  0.4844  1.2397 -2.1994
 6653TIP3    H241451   2.222   3.497   0.301  2.4239  0.5847  0.5126
 6654TIP3   OH241452   6.006   6.908  12.381  0.1838  0.0092  0.0083
 6654TIP3    H141453   5.941   6.976  12.360  1.5776  1.0225 -1.2779
 6654TIP3    H241454   5.963   6.826  12.356 -0.4029  0.7060 -1.4269
 6655TIP3   OH241455   0.602   4.617   2.312 -0.2834 -0.0264  0.4822
 6655TIP3    H141456   0.525   4.639   2.260 -0.8418 -0.6717  1.0245
 6655TIP3    H241457   0.567   4.583   2.394  0.5833 -0.1646  0.8074
 6656TIP3   OH241458   1.372   6.181   1.381  0.3160 -0.4210  0.4345
 6656TIP3    H141459   1.339   6.270   1.393 -0.1756 -0.5809  0.2801
 6656TIP3    H241460   1.315   6.143   1.314 -0.2916 -1.2832  1.4149
 6657TIP3   OH241461   6.262   4.860  11.854  0.0694  0.2859 -0.4687
 6657TIP3    H141462   6.311   4.935  11.821 -0.7290  1.0241 -0.0351
 6657TIP3    H241463   6.182   4.859  11.802 -1.1127  1.3462  1.2302
 6658TIP3   OH241464   3.291   4.754  13.603 -0.0662  0.5872  0.6916
 6658TIP3    H141465   3.222   4.711  13.553  1.6082  1.0442 -2.2443
 6658TIP3    H241466   3.245   4.798  13.674 -2.5812 -0.4341 -0.1898
 6659TIP3   OH241467   3.805   0.468  13.099  0.6634  0.5399 -0.1652
 6659TIP3    H141468   3.803   0.485  13.194 -0.6473 -0.6043  0.0313
 6659TIP3    H241469   3.725   0.509  13.066 -0.5359 -1.7156 -0.2618
 6660TIP3   OH241470   2.700   2.578   0.682  0.6372  0.2329 -0.0626
 6660TIP3    H141471   2.788   2.613   0.663  0.7543 -0.8910 -1.8921
 6660TIP3    H241472   2.713   2.518   0.754  1.3267  0.3025 -0.1216
 6661TIP3   OH241473   5.025   0.323  14.053 -0.0195 -0.4533 -0.2164
 6661TIP3    H141474   4.998   0.242  14.096  1.3944 -1.1222 -0.5512
 6661TIP3    H241475   5.088   0.296  13.987 -1.2542  0.6928 -1.9432
 6662TIP3   OH241476   3.578   3.533   9.940 -0.1516 -0.3652  0.0812
 6662TIP3    H141477   3.537   3.464   9.991 -0.2689 -0.1123  0.3261
 6662TIP3    H241478   3.538   3.526   9.853 -1.5728  0.6207  0.6198
 6663TIP3   OH241479   1.763   2.643   2.125  0.9477  0.2713 -0.1060
 6663TIP3    H141480   1.856   2.622   2.132  1.9066  3.4239 -1.5876
 6663TIP3    H241481   1.755   2.690   2.042 -1.6052  1.7050  0.8474
 6664TIP3   OH241482   6.392   5.008  11.670  0.5076 -0.0365  0.0985
 6664TIP3    H141483   6.486   4.997  11.650  0.2035 -1.4121 -0.7731
 6664TIP3    H241484   6.371   5.096  11.639  1.1832 -0.2874 -1.1630
 6665TIP3   OH241485   4.662   0.289  15.153  0.1221 -0.1366 -0.1429
 6665TIP3    H141486   4.742   0.324  15.116 -0.2434  0.8634 -0.0267
 6665TIP3    H241487   4.691   0.231  15.223  0.7432  0.3908  0.0457
 6666TIP3   OH241488   3.069   4.595  14.513 -0.6592 -0.0171  0.2728
 6666TIP3    H141489   2.986   4.602  14.466 -0.6005 -0.1842  0.1441
 6666TIP3    H241490   3.134   4.580  14.445 -0.6535 -0.8702  0.4636
 6667TIP3   OH241491   6.552   0.865   2.433 -0.4650  0.0860 -0.3066
 6667TIP3    H141492   6.512   0.863   2.520  0.0624  1.3327 -0.0275
 6667TIP3    H241493   6.500   0.802   2.382 -1.7223  0.4403  0.4999
 6668TIP3   OH241494   0.726   4.450  12.092 -0.7643 -0.1928 -0.1284
 6668TIP3    H141495   0.704   4.388  12.023 -1.0986 -0.1053 -0.1055
 6668TIP3    H241496   0.751   4.395  12.167 -1.0805 -0.3022 -0.1013
 6669TIP3   OH241497   6.546   4.579  14.203 -0.6489  0.0115 -0.4580
 6669TIP3    H141498   6.495   4.521  14.147 -1.0391  0.5296 -0.6486
 6669TIP3    H241499   6.630   4.587  14.158 -0.3799 -0.8573 -0.1351
 6670TIP3   OH241500   6.816   3.580   0.848  0.1482  0.1096 -0.2780
 6670TIP3    H141501   6.907   3.551   0.844  0.1859 -0.0241  1.1168
 6670TIP3    H241502   6.818   3.667   0.807  0.6204 -0.4810 -1.5590
 6671TIP3   OH241503   2.647   0.858  12.846 -0.1548 -0.0370 -0.1465
 6671TIP3    H141504   2.590   0.877  12.772  0.1061  0.2457 -0.2813
 6671TIP3    H241505   2.724   0.914  12.832 -1.2049  2.0233  1.6988
 6672TIP3   OH241506   2.880   4.833   0.480 -0.2038 -0.1270 -0.1322
 6672TIP3    H141507   2.858   4.901   0.544 -0.8994  1.5348 -2.0094
 6672TIP3    H241508   2.957   4.867   0.435 -0.5033 -0.6164 -1.0367
 6673TIP3   OH241509   6.653   2.989  15.307  0.1209 -0.0420 -0.6672
 6673TIP3    H141510   6.578   3.045  15.284 -0.1396 -0.7740 -1.7069
 6673TIP3    H241511   6.718   3.049  15.343 -0.6484  0.7324 -0.5345
 6674TIP3   OH241512   0.225   1.894  11.129  0.2342  0.2866 -0.0097
 6674TIP3    H141513   0.208   1.910  11.222 -0.4642 -0.8621  0.0855
 6674TIP3    H241514   0.224   1.981  11.089  0.4083  0.7881  1.0322
 6675TIP3   OH241515   3.858   1.206   0.844 -0.3568 -0.0889 -0.1291
 6675TIP3    H141516   3.940   1.202   0.796 -0.0810  1.1008  0.2088
 6675TIP3    H241517   3.795   1.161   0.788 -0.2857  2.1326 -2.1435
 6676TIP3   OH241518   3.444   2.519   2.220  0.1941  0.0311 -0.3467
 6676TIP3    H141519   3.355   2.551   2.207 -0.2716 -0.6659  0.9623
 6676TIP3    H241520   3.456   2.454   2.151 -1.0417 -1.2802  0.6252
 6677TIP3   OH241521   0.391   5.138  14.306  0.2717 -0.0965  0.3995
 6677TIP3    H141522   0.322   5.169  14.365 -0.8151 -1.3140 -0.1714
 6677TIP3    H241523   0.371   5.179  14.222 -0.5961 -1.4778 -0.1100
 6678TIP3   OH241524   5.331   6.445  11.130 -0.0140 -0.5183  0.4152
 6678TIP3    H141525   5.408   6.442  11.186 -0.4323  2.0583  1.2156
 6678TIP3    H241526   5.365   6.468  11.043  0.0910  1.2842  0.9132
 6679TIP3   OH241527   6.388   0.567  14.451  0.2851  0.5600 -0.6880
 6679TIP3    H141528   6.379   0.482  14.492 -1.8525  1.5352  1.0631
 6679TIP3    H241529   6.308   0.614  14.475  1.2780  2.9826 -1.7846
 6680TIP3   OH241530   2.679   4.157  10.761 -0.2308 -0.4022  0.1853
 6680TIP3    H141531   2.709   4.188  10.676 -0.1652 -2.2565 -0.5100
 6680TIP3    H241532   2.659   4.237  10.810 -0.6501  0.7008 -1.6860
 6681TIP3   OH241533   6.159   6.542  14.556 -0.1496  0.1153 -0.1942
 6681TIP3    H141534   6.129   6.524  14.466  2.9669 -0.3171 -1.2768
 6681TIP3    H241535   6.125   6.629  14.575 -1.5259 -0.0890 -1.4666
 6682TIP3   OH241536   2.533   0.718   1.732 -0.0937  0.3939  0.0978
 6682TIP3    H141537   2.467   0.651   1.743 -0.6150  0.9475  0.4007
 6682TIP3    H241538   2.592   0.707   1.807 -0.3361  0.4494  0.2983
 6683TIP3   OH241539   4.347   5.868  10.648  0.1495 -0.5441  0.3633
 6683TIP3    H141540   4.268   5.886  10.597  0.7767 -1.4859 -1.0087
 6683TIP3    H241541   4.321   5.796  10.706 -0.7911  1.0361  2.0236
 6684TIP3   OH241542   1.241   4.770  14.306  0.3689 -0.4805  0.0687
 6684TIP3    H141543   1.216   4.705  14.373  2.4662 -0.5744  0.8394
 6684TIP3    H241544   1.196   4.850  14.333  1.7172 -0.3261  2.0828
 6685TIP3   OH241545   1.715   5.196  10.004  0.1984  0.2566 -0.2761
 6685TIP3    H141546   1.737   5.271  10.059  0.2872 -0.7394  1.1166
 6685TIP3    H241547   1.789   5.136  10.014  0.4751  0.2706 -1.9528
 6686TIP3   OH241548   3.804   1.558   2.615 -0.0401  0.6715  0.0376
 6686TIP3    H141549   3.752   1.514   2.683  0.4496  0.5346  0.3278
 6686TIP3    H241550   3.739   1.588   2.552 -0.8114  3.2517  1.9065
 6687TIP3   OH241551   6.655   1.698  12.041  0.4298  0.6489  0.1615
 6687TIP3    H141552   6.610   1.747  11.973  0.9050  0.5098 -0.2550
 6687TIP3    H241553   6.585   1.675  12.104 -0.2236 -0.1827 -0.8282
 6688TIP3   OH241554   3.217   4.232   2.884  0.7786  0.0247 -0.3145
 6688TIP3    H141555   3.181   4.283   2.811 -0.6428 -1.3540 -0.6432
 6688TIP3    H241556   3.221   4.142   2.850 -0.8860 -0.8405  1.5962
 6689TIP3   OH241557   2.344   6.989  14.287  0.0830 -0.2852  0.4165
 6689TIP3    H141558   2.256   6.992  14.327  0.5048 -1.0615  1.4668
 6689TIP3    H241559   2.328   7.003  14.194 -1.2397 -1.0249  0.4955
 6690TIP3   OH241560   4.823   5.666  13.830  0.0962 -0.1535  0.3311
 6690TIP3    H141561   4.745   5.611  13.834  0.0995 -0.1389  0.6596
 6690TIP3    H241562   4.885   5.625  13.890  0.5849 -0.5308 -0.4156
 6691TIP3   OH241563   0.400   5.946  12.388 -0.2020  0.3725  0.1822
 6691TIP3    H141564   0.420   5.869  12.442  1.4535  1.1789  0.8165
 6691TIP3    H241565   0.314   5.928  12.351  0.6031 -2.2950 -0.6032
 6692TIP3   OH241566   3.041   2.118  11.511 -0.5551 -0.3168 -0.1263
 6692TIP3    H141567   2.950   2.128  11.483 -0.3141 -0.9557 -1.1770
 6692TIP3    H241568   3.036   2.099  11.605 -1.6444 -2.3486 -0.5372
 6693TIP3   OH241569   3.128   2.798  12.807  1.0481  0.0261  0.5471
 6693TIP3    H141570   3.186   2.722  12.805  1.1637  0.1363 -0.6303
 6693TIP3    H241571   3.098   2.809  12.717 -1.1303 -0.2563  1.1595
 6694TIP3   OH241572   7.075   4.715   9.666 -0.2850  0.2968 -0.7441
 6694TIP3    H141573   7.059   4.808   9.651  2.1265  1.0049  0.7448
 6694TIP3    H241574   7.169   4.703   9.653 -0.6443 -2.1402 -1.7660
 6695TIP3   OH241575   2.563   6.025  14.146 -0.3469  0.0483  0.0748
 6695TIP3    H141576   2.590   6.033  14.055  0.7108  0.4978  0.4233
 6695TIP3    H241577   2.523   5.938  14.151 -1.6065  0.5205 -1.1040
 6696TIP3   OH241578   6.555   6.168  13.954 -0.1007  0.3400 -0.4881
 6696TIP3    H141579   6.582   6.144  14.043 -2.0140 -2.0134 -0.4450
 6696TIP3    H241580   6.571   6.262  13.949  1.3804  0.3002  1.8396
 6697TIP3   OH241581   3.693   5.532  12.546  0.1755 -0.0899  0.0329
 6697TIP3    H141582   3.604   5.566  12.548  0.3071  0.2259  1.9225
 6697TIP3    H241583   3.718   5.523  12.638  1.4678 -1.8383 -0.4280
 6698TIP3   OH241584   3.230   0.736  12.235 -0.0967 -0.4559  0.1452
 6698TIP3    H141585   3.218   0.731  12.140 -1.3171  2.6883  0.0418
 6698TIP3    H241586   3.184   0.815  12.262  1.0962 -0.6601  3.2456
 6699TIP3   OH241587   0.302   4.939   1.151  0.3030  0.7408 -0.0055
 6699TIP3    H141588   0.375   4.883   1.178  0.1787 -0.4290 -1.9150
 6699TIP3    H241589   0.336   4.988   1.076 -0.2248  1.7703  0.4093
 6700TIP3   OH241590   4.594   2.155  13.787  0.0323  0.0594  0.3912
 6700TIP3    H141591   4.640   2.129  13.867 -0.1693 -1.1951  0.1201
 6700TIP3    H241592   4.643   2.230  13.754  1.7612 -1.0720  0.2534
 6701TIP3   OH241593   6.063   2.896  13.612 -0.5007  0.0351  0.1863
 6701TIP3    H141594   6.004   2.899  13.687 -0.9048  2.5882 -0.1533
 6701TIP3    H241595   6.022   2.832  13.553 -2.4752  1.0688  0.3504
 6702TIP3   OH241596   1.028   3.153   0.333  0.1300  0.3015  0.1766
 6702TIP3    H141597   0.997   3.095   0.264 -0.6389 -0.5998  1.2471
 6702TIP3    H241598   1.121   3.167   0.313 -0.3480  1.0221 -1.6758
 6703TIP3   OH241599   5.109   0.965   1.634 -0.2791  0.0630 -0.1817
 6703TIP3    H141600   5.125   1.031   1.702  1.0465 -1.6011  1.2085
 6703TIP3    H241601   5.014   0.958   1.629 -0.4123  1.0402  0.6864
 6704TIP3   OH241602   2.950   5.191   2.849  0.1532  1.3930 -0.3863
 6704TIP3    H141603   2.972   5.229   2.764  3.0601  1.2528  0.2081
 6704TIP3    H241604   2.947   5.096   2.832 -0.8310  1.4502 -0.6047
 6705TIP3   OH241605   0.209   0.546   3.945  0.1558 -0.4247 -0.6222
 6705TIP3    H141606   0.287   0.492   3.933 -0.5971 -1.2817 -1.9905
 6705TIP3    H241607   0.137   0.491   3.915 -0.9733  0.4068  0.4642
 6706TIP3   OH241608   1.244   4.897   1.056 -0.2826 -0.0067 -0.1172
 6706TIP3    H141609   1.222   4.944   0.975  1.9241  0.0731 -0.7238
 6706TIP3    H241610   1.255   4.806   1.028 -1.4588 -0.3688  0.5019
 6707TIP3   OH241611   0.391   2.171  12.452 -0.4945 -0.1253  0.1881
 6707TIP3    H141612   0.377   2.077  12.464 -1.3611  0.0378  0.5007
 6707TIP3    H241613   0.444   2.177  12.372 -1.3207 -0.8295 -0.4234
 6708TIP3   OH241614   3.777   3.531   0.740 -0.1226  0.4720 -0.1400
 6708TIP3    H141615   3.828   3.542   0.820 -0.3368 -1.3615  0.2919
 6708TIP3    H241616   3.843   3.520   0.671  0.0553  0.8906 -0.0413
 6709TIP3   OH241617   4.948   6.010   4.566  0.3115  0.1880  0.2942
 6709TIP3    H141618   5.008   6.078   4.598  3.2403 -1.4828 -1.2552
 6709TIP3    H241619   4.895   6.054   4.500  1.8230  1.1330 -0.3473
 6710TIP3   OH241620   4.442   3.761  13.369  0.6669 -0.7094 -0.5411
 6710TIP3    H141621   4.526   3.799  13.341  0.5057 -0.4927 -0.7297
 6710TIP3    H241622   4.409   3.823  13.434 -0.2250  0.1627 -1.7996
 6711TIP3   OH241623   1.155   5.798  13.835 -0.5207 -0.2759 -0.3576
 6711TIP3    H141624   1.169   5.868  13.771  0.1322 -0.5950 -0.5651
 6711TIP3    H241625   1.101   5.839  13.903 -0.0109  0.4767 -0.3988
 6712TIP3   OH241626   4.983   0.347  10.294  0.5182 -0.1666 -0.0640
 6712TIP3    H141627   4.943   0.388  10.218  0.2304  0.8792  0.6272
 6712TIP3    H241628   4.912   0.336  10.356  0.9512  0.0279  0.4770
 6713TIP3   OH241629   3.579   3.574   3.257 -0.3694 -0.0734 -0.5099
 6713TIP3    H141630   3.608   3.646   3.312 -0.7343  0.5706 -1.1326
 6713TIP3    H241631   3.486   3.564   3.278 -0.4597  0.0373 -0.8437
 6714TIP3   OH241632   3.116   5.956   1.033 -0.6069  0.5208 -0.1012
 6714TIP3    H141633   3.034   6.002   1.014 -1.7167 -0.3770  2.1637
 6714TIP3    H241634   3.099   5.866   1.006  0.3845  0.7028 -1.4364
 6715TIP3   OH241635   0.416   5.055  13.128  0.4111  0.2209 -0.5826
 6715TIP3    H141636   0.453   5.020  13.209 -0.5707 -0.3092 -0.3496
 6715TIP3    H241637   0.461   5.008  13.059 -2.6333 -3.6218 -0.3001
 6716TIP3   OH241638   6.638   0.436  15.264 -0.1183 -0.4032  0.0673
 6716TIP3    H141639   6.699   0.509  15.262  1.3368 -1.5867 -1.7587
 6716TIP3    H241640   6.661   0.387  15.344  1.0883 -0.6036 -0.3814
 6717TIP3   OH241641   4.320   3.985  11.009 -0.0741  0.0910  0.3400
 6717TIP3    H141642   4.300   3.912  10.950 -1.4476  1.0892 -0.5164
 6717TIP3    H241643   4.251   4.049  10.990  1.8133  2.1622  0.0955
 6718TIP3   OH241644   5.411   3.551  14.454 -0.0759  0.6044 -0.3199
 6718TIP3    H141645   5.335   3.507  14.494  1.1887  0.2701  1.8891
 6718TIP3    H241646   5.442   3.489  14.388 -1.7083  0.7776 -1.3256
 6719TIP3   OH241647   6.026   1.509   1.928 -0.3347 -0.9051  0.0383
 6719TIP3    H141648   6.007   1.602   1.938 -0.4432 -0.7346 -1.5102
 6719TIP3    H241649   5.970   1.466   1.993  0.5969  0.1497  1.6207
 6720TIP3   OH241650   1.523   1.303   0.810  0.3974  0.4396 -0.3858
 6720TIP3    H141651   1.523   1.302   0.906 -0.8694 -0.0145 -0.3691
 6720TIP3    H241652   1.539   1.212   0.785 -1.6748  0.0761 -0.5455
 6721TIP3   OH241653   6.899   1.880  14.601  0.0348 -0.4119  0.7703
 6721TIP3    H141654   6.902   1.944  14.529 -0.3636 -1.9434 -0.6831
 6721TIP3    H241655   6.815   1.897  14.644 -2.1920 -2.5745 -2.2884
 6722TIP3   OH241656   0.307   2.483   3.049 -0.1749 -0.2005 -0.6465
 6722TIP3    H141657   0.240   2.525   2.995 -2.1097 -0.9072  1.0696
 6722TIP3    H241658   0.344   2.554   3.101 -2.2824 -0.2762  1.0695
 6723TIP3   OH241659   3.277   0.096  10.652 -0.1275 -0.2957 -0.1594
 6723TIP3    H141660   3.361   0.124  10.618  0.8726 -1.9482  0.8263
 6723TIP3    H241661   3.233   0.177  10.677  1.4870  0.5557  0.0501
 6724TIP3   OH241662   0.364   0.466  14.878 -0.1647  0.1453 -0.0086
 6724TIP3    H141663   0.339   0.380  14.844  3.8005 -2.0521  1.8649
 6724TIP3    H241664   0.434   0.495  14.820  0.0731  0.9882  0.6817
 6725TIP3   OH241665   1.641   6.207  12.132 -0.5833 -0.3528  0.6285
 6725TIP3    H141666   1.646   6.187  12.225  1.1529 -0.3391  0.5757
 6725TIP3    H241667   1.584   6.140  12.095 -2.3322  0.3787  1.8557
 6726TIP3   OH241668   0.058   2.325  13.636  0.6130  0.2246  0.1432
 6726TIP3    H141669   0.116   2.290  13.568  0.5508 -0.6444  0.5258
 6726TIP3    H241670  -0.030   2.302  13.605  0.6023 -0.5241  0.6909
 6727TIP3   OH241671   1.638   1.053  12.896  0.4918  0.1558 -0.0879
 6727TIP3    H141672   1.678   1.061  12.982  2.0959  1.2793 -0.9019
 6727TIP3    H241673   1.632   1.143  12.863  1.1827 -0.3472 -1.6980
 6728TIP3   OH241674   4.435   5.581   0.798  0.0262 -0.3052  0.2145
 6728TIP3    H141675   4.395   5.631   0.869 -1.7047 -0.4199 -0.6440
 6728TIP3    H241676   4.390   5.496   0.800 -0.1868 -0.2459 -1.1178
 6729TIP3   OH241677   6.242   7.127  12.500  0.3352  0.2364  0.0402
 6729TIP3    H141678   6.237   7.221  12.481 -1.4663  0.6782  2.3016
 6729TIP3    H241679   6.312   7.119  12.565 -1.3587  0.4881  1.9760
 6730TIP3   OH241680   2.845   2.520  10.295 -0.3607 -0.5164 -0.3848
 6730TIP3    H141681   2.817   2.463  10.224 -2.8729 -0.3697  0.3868
 6730TIP3    H241682   2.787   2.596  10.289 -0.7954 -0.5799  1.8878
 6731TIP3   OH241683   1.706   2.190  11.708 -0.7015  0.8313 -0.2126
 6731TIP3    H141684   1.716   2.203  11.802 -0.6065  0.5032 -0.1763
 6731TIP3    H241685   1.683   2.276  11.674 -0.0893  1.1003  0.0259
 6732TIP3   OH241686   4.300   6.120  15.089  0.4921 -0.0867 -0.2425
 6732TIP3    H141687   4.359   6.076  15.151 -0.0593  2.3049  2.1907
 6732TIP3    H241688   4.257   6.048  15.043  1.1531 -2.0493  1.9637
 6733TIP3   OH241689   4.571   5.967  14.559  0.1311 -0.2069  0.0940
 6733TIP3    H141690   4.563   6.009  14.474  3.0992  2.1382  0.8329
 6733TIP3    H241691   4.648   5.911  14.551 -0.0536 -0.6142  1.0224
 6734TIP3   OH241692   0.446   3.348  13.612 -1.0906  0.1926  0.1231
 6734TIP3    H141693   0.447   3.423  13.553 -0.3532  0.4770  0.4930
 6734TIP3    H241694   0.417   3.384  13.696  0.5153  0.3443  0.6490
 6735TIP3   OH241695   3.908   2.302  15.403  0.8066 -0.0010 -0.6129
 6735TIP3    H141696   3.869   2.356  15.335 -0.1899 -0.1834 -0.2020
 6735TIP3    H241697   3.989   2.348  15.427 -0.4235  1.7925  0.3272
 6736TIP3   OH241698   4.144   6.249  13.208 -0.1963  0.2364  0.0835
 6736TIP3    H141699   4.228   6.271  13.168 -0.1776  0.1918  0.0974
 6736TIP3    H241700   4.088   6.325  13.191 -0.0707  0.3801  0.3073
 6737TIP3   OH241701   4.979   1.679   3.053 -0.9969 -0.2849 -0.2439
 6737TIP3    H141702   4.969   1.723   2.968 -2.3498 -0.0264  0.0183
 6737TIP3    H241703   4.976   1.586   3.031 -1.2226 -0.2181 -0.5089
 6738TIP3   OH241704   7.026   2.877   2.101  0.1147 -0.3001 -0.5163
 6738TIP3    H141705   7.087   2.838   2.164  0.3234  0.0955 -0.4697
 6738TIP3    H241706   6.948   2.821   2.105 -0.3811  0.4316  1.0497
 6739TIP3   OH241707   3.730   6.634  10.236 -0.5122 -0.1663  0.1079
 6739TIP3    H141708   3.788   6.612  10.309  0.6900  1.9819 -0.0881
 6739TIP3    H241709   3.750   6.571  10.168  0.7398 -0.1950  0.4917
 6740TIP3   OH241710   3.225   1.838  13.504  0.0883  0.5292  0.2690
 6740TIP3    H141711   3.243   1.916  13.452  0.9657  0.1911  0.0371
 6740TIP3    H241712   3.309   1.818  13.546 -0.0904 -0.3401  0.2358
 6741TIP3   OH241713   2.437   3.035  13.114 -0.2556  0.2788 -0.0171
 6741TIP3    H141714   2.503   3.047  13.046  0.2369 -0.4447  0.3195
 6741TIP3    H241715   2.431   2.940  13.124 -2.0736  0.2753 -0.7418
 6742TIP3   OH241716   5.735   3.621   0.593  0.0875 -0.5622 -0.2304
 6742TIP3    H141717   5.645   3.654   0.596  0.4281  0.3708  0.2550
 6742TIP3    H241718   5.759   3.625   0.500  0.5822  1.9837 -0.0844
 6743TIP3   OH241719   5.499   0.288  12.362  0.2175  0.9148  0.3856
 6743TIP3    H141720   5.527   0.371  12.322 -2.1454  1.3651 -0.5198
 6743TIP3    H241721   5.547   0.284  12.445  1.8834  2.1883 -0.4620
 6744TIP3   OH241722   0.733   6.263   2.622 -0.4222  0.1697  0.0009
 6744TIP3    H141723   0.703   6.252   2.532  1.9260 -1.2841 -0.6869
 6744TIP3    H241724   0.809   6.321   2.616  0.2522 -0.5826  0.9191
 6745TIP3   OH241725   1.742   0.372   1.791  0.5056  0.1014  0.4849
 6745TIP3    H141726   1.781   0.285   1.786 -0.7308 -0.5851  1.9732
 6745TIP3    H241727   1.673   0.363   1.856 -1.0953  1.6515 -0.8957
 6746TIP3   OH241728   7.134   6.381   2.566 -0.0532  0.1325  0.0563
 6746TIP3    H141729   7.102   6.409   2.480  0.2856  0.1730 -0.0589
 6746TIP3    H241730   7.064   6.404   2.626 -0.3898 -0.1099 -0.2449
 6747TIP3   OH241731   7.017   6.273  15.426 -0.2961  0.3729  0.0558
 6747TIP3    H141732   6.950   6.236  15.483 -2.3719  0.3899 -2.1897
 6747TIP3    H241733   6.969   6.300  15.348  2.4581 -0.5161 -2.1118
 6748TIP3   OH241734   3.806   3.551  11.077  0.0508  0.0433 -0.1931
 6748TIP3    H141735   3.799   3.473  11.132  1.4025  1.3339  1.9446
 6748TIP3    H241736   3.721   3.557  11.033 -1.5756 -0.4382  2.6721
 6749TIP3   OH241737   0.871   3.058  12.753  0.5740 -0.3899 -0.2609
 6749TIP3    H141738   0.880   3.060  12.849  0.3646 -0.5299 -0.2379
 6749TIP3    H241739   0.842   2.969  12.733 -3.8396  0.7534 -0.0524
 6750TIP3   OH241740   0.847   5.668  12.881  0.5695  0.1711 -0.6059
 6750TIP3    H141741   0.897   5.746  12.907 -0.1344  0.3822  0.1523
 6750TIP3    H241742   0.914   5.605  12.852  1.1560  1.0032 -1.1122
 6751TIP3   OH241743   5.038   0.490  14.696  0.1334  0.4121  0.6475
 6751TIP3    H141744   4.988   0.415  14.728  2.7476 -1.7222  0.0559
 6751TIP3    H241745   5.024   0.558  14.762 -1.1782 -1.0550  1.9580
 6752TIP3   OH241746   0.848   2.147  13.003 -0.4695 -0.1259  0.0064
 6752TIP3    H141747   0.803   2.205  13.066 -1.4377  0.5611 -1.2582
 6752TIP3    H241748   0.932   2.128  13.044 -1.5699 -0.7860  2.1042
 6753TIP3   OH241749   1.885   6.977  12.435  0.4798  0.5262 -0.1729
 6753TIP3    H141750   1.799   7.017  12.425  0.0717 -0.3979 -0.5126
 6753TIP3    H241751   1.930   6.995  12.353  1.2270  2.3821  0.5998
 6754TIP3   OH241752   2.773   3.657  12.407  0.7437  0.2651 -0.4912
 6754TIP3    H141753   2.710   3.625  12.472  2.0065  0.3265  0.8217
 6754TIP3    H241754   2.728   3.730  12.364  0.4139  1.2377  1.4043
 6755TIP3   OH241755   3.709   0.317   3.171  0.0929  0.1217  0.3675
 6755TIP3    H141756   3.749   0.233   3.192 -0.4412 -0.2855 -0.1853
 6755TIP3    H241757   3.620   0.295   3.142  0.2140  0.7921 -0.5845
 6756TIP3   OH241758   5.067   0.045   1.769 -0.2379  0.4038 -0.0703
 6756TIP3    H141759   5.105   0.132   1.780 -1.1869  0.6596  1.4150
 6756TIP3    H241760   4.977   0.061   1.743 -0.4750 -0.1248  0.3948
 6757TIP3   OH241761   5.024   4.165   0.023  0.4961 -0.4428 -0.0309
 6757TIP3    H141762   4.983   4.133   0.103 -1.0280 -1.0583 -1.0239
 6757TIP3    H241763   5.077   4.092  -0.008  1.1320 -0.1853  0.4101
 6758TIP3   OH241764   2.185   4.134  11.100  0.6865  0.3553  0.0862
 6758TIP3    H141765   2.272   4.173  11.102  0.7555  0.2202 -0.2060
 6758TIP3    H241766   2.191   4.058  11.157  0.6275  0.6182  0.4431
 6759TIP3   OH241767   0.265   6.262   2.395 -0.6986  0.4574 -0.0971
 6759TIP3    H141768   0.221   6.254   2.310 -1.5098 -0.4730  0.3935
 6759TIP3    H241769   0.357   6.244   2.376 -0.8378  0.4395 -0.8040
 6760TIP3   OH241770   3.635   3.084  13.804 -0.0104  0.0115 -0.3892
 6760TIP3    H141771   3.598   3.172  13.797 -0.5199 -0.1231  0.4352
 6760TIP3    H241772   3.691   3.088  13.881 -1.8469 -0.9699  1.0873
 6761TIP3   OH241773   3.781   3.772  10.191  0.7102  0.4759 -0.2057
 6761TIP3    H141774   3.756   3.743  10.279  1.6175  0.3348  0.0187
 6761TIP3    H241775   3.806   3.864  10.203  1.0264  0.3992 -0.2758
 6762TIP3   OH241776   4.250   1.827  13.960 -0.5707 -0.0479  0.4057
 6762TIP3    H141777   4.317   1.762  13.981  1.3706  1.5582 -0.4434
 6762TIP3    H241778   4.288   1.910  13.988 -1.9172  1.0201 -0.7600
 6763TIP3   OH241779   1.520   6.017   2.612 -0.3170 -0.1646  0.2165
 6763TIP3    H141780   1.458   5.945   2.597 -0.1786  0.1235 -2.2426
 6763TIP3    H241781   1.464   6.095   2.622 -0.4628 -0.5462  2.7844
 6764TIP3   OH241782   6.699   6.890  12.983 -0.9062  0.8217 -0.0670
 6764TIP3    H141783   6.638   6.847  12.922 -0.8812  2.1351 -1.0743
 6764TIP3    H241784   6.645   6.912  13.059 -0.7972 -1.4220  0.7460
 6765TIP3   OH241785   1.713   6.220  13.033  0.0673 -0.2549  0.2016
 6765TIP3    H141786   1.651   6.159  13.072  0.2180  0.5654  1.8092
 6765TIP3    H241787   1.798   6.194  13.068  0.2650  0.2639  0.1170
 6766TIP3   OH241788   7.027   3.657  11.946  0.2116  0.0406  0.0310
 6766TIP3    H141789   7.054   3.642  11.856  0.4699  2.3986 -0.3518
 6766TIP3    H241790   7.044   3.750  11.961  0.7416 -0.4130  2.7138
 6767TIP3   OH241791   5.494   4.973  11.571  0.1390 -0.4086  0.1115
 6767TIP3    H141792   5.534   5.023  11.500 -1.4196 -0.0057 -0.5117
 6767TIP3    H241793   5.465   5.040  11.633 -0.4203 -0.6342  0.0969
 6768TIP3   OH241794   5.870   5.568  12.895  0.0016 -0.5840  0.4119
 6768TIP3    H141795   5.836   5.513  12.965 -2.2386  1.1303  0.8219
 6768TIP3    H241796   5.838   5.528  12.815  0.1283 -0.9828  0.5600
 6769TIP3   OH241797   0.318   5.025   4.380 -0.0004 -0.4665  0.0992
 6769TIP3    H141798   0.255   5.081   4.424 -1.3411  0.3800 -2.6505
 6769TIP3    H241799   0.286   4.936   4.394 -0.1370 -0.2642  1.1319
 6770TIP3   OH241800   4.656   7.183   0.318  0.1920 -0.4848 -0.4995
 6770TIP3    H141801   4.601   7.230   0.255  1.3473  2.4843  0.5087
 6770TIP3    H241802   4.742   7.180   0.275  0.1772 -1.5413 -0.4605
 6771TIP3   OH241803   1.695   0.472  12.823  0.3125 -0.0113 -0.4200
 6771TIP3    H141804   1.777   0.429  12.849  0.4576  0.4640 -0.0767
 6771TIP3    H241805   1.629   0.434  12.880  0.1262 -1.0420 -1.2905
 6772TIP3   OH241806   6.633   2.617  11.328 -0.3917 -0.1787  0.5114
 6772TIP3    H141807   6.700   2.553  11.354 -0.7174  0.0721  2.0851
 6772TIP3    H241808   6.617   2.598  11.236 -0.0766 -2.0066  0.7793
 6773TIP3   OH241809   5.933   3.454  12.553 -0.1052  0.3395  0.7406
 6773TIP3    H141810   5.852   3.404  12.562 -0.3274  0.7044  0.7844
 6773TIP3    H241811   5.921   3.530  12.610 -0.3739  1.2277 -0.4729
 6774TIP3   OH241812   5.364   5.101   2.266 -0.1284 -0.0178 -0.0857
 6774TIP3    H141813   5.321   5.047   2.332 -0.9778  0.1719 -0.4717
 6774TIP3    H241814   5.307   5.177   2.257  0.9477  0.8612  0.3068
 6775TIP3   OH241815   2.025   6.818  14.697 -0.3598 -0.4704  0.4676
 6775TIP3    H141816   2.059   6.803  14.609  0.8032  1.5196  0.5101
 6775TIP3    H241817   1.940   6.858  14.684  0.0946  0.4435  0.1905
 6776TIP3   OH241818   3.989   3.928   1.058  0.5347  0.4754 -0.3481
 6776TIP3    H141819   3.971   4.018   1.086  3.9412  1.3548 -0.5588
 6776TIP3    H241820   4.041   3.890   1.129  0.3565 -0.8795 -0.9024
 6777TIP3   OH241821   1.458   3.942  13.865  0.0005 -0.1691 -0.0286
 6777TIP3    H141822   1.505   4.013  13.821 -0.1781  1.9228  2.8651
 6777TIP3    H241823   1.527   3.884  13.898  0.4526  1.2008  1.5240
 6778TIP3   OH241824   1.393   2.041  15.157 -0.1599 -0.3305 -0.0823
 6778TIP3    H141825   1.424   1.980  15.223 -1.5499 -2.2076 -1.0550
 6778TIP3    H241826   1.338   1.988  15.099  0.6190  1.3130 -2.4779
 6779TIP3   OH241827   5.062   3.116   0.211  0.1778 -0.0214  0.4161
 6779TIP3    H141828   5.002   3.064   0.158  1.1918 -0.3053 -0.4997
 6779TIP3    H241829   5.051   3.084   0.300 -0.9725 -0.1021  0.2534
 6780TIP3   OH241830   3.069   1.307   9.887  0.3673 -0.5072 -0.3043
 6780TIP3    H141831   3.152   1.260   9.881  0.2696 -0.7139 -0.0200
 6780TIP3    H241832   3.036   1.308   9.797 -0.5499 -2.6600 -0.0586
 6781TIP3   OH241833   7.217   4.035   1.096  0.1934 -0.5384  0.0999
 6781TIP3    H141834   7.202   3.964   1.034  0.2550 -0.2666 -0.2309
 6781TIP3    H241835   7.235   4.112   1.041 -1.6770  0.1610  0.3914
 6782TIP3   OH241836   6.803   7.174  11.985  0.3652 -0.2926  0.4036
 6782TIP3    H141837   6.845   7.205  12.065  1.0785 -0.4309  0.0894
 6782TIP3    H241838   6.868   7.189  11.916 -0.7830  1.1474 -0.3967
 6783TIP3   OH241839   1.670   4.702   4.727  0.3753  0.4282  0.2081
 6783TIP3    H141840   1.576   4.716   4.712  0.2841 -2.1974 -2.7956
 6783TIP3    H241841   1.673   4.634   4.794  0.2085  1.4312  1.2514
 6784TIP3   OH241842   6.569   0.098  10.977  0.2735  0.6826 -0.0602
 6784TIP3    H141843   6.515   0.170  11.009  1.2345  1.0348  0.8394
 6784TIP3    H241844   6.575   0.038  11.052 -0.1461 -0.1241 -0.6568
 6785TIP3   OH241845   1.146   0.704  12.840  0.0804  0.1272  0.4552
 6785TIP3    H141846   1.058   0.738  12.855 -0.2212 -0.2250 -0.4897
 6785TIP3    H241847   1.191   0.773  12.791  0.0954 -0.0027  0.2848
 6786TIP3   OH241848   3.085   0.441   3.615 -0.1557 -0.4408 -0.3456
 6786TIP3    H141849   3.106   0.498   3.689  1.1528 -0.9044 -0.3277
 6786TIP3    H241850   3.059   0.358   3.655 -4.0552  0.6108 -0.2887
 6787TIP3   OH241851   6.883   4.325  11.828 -0.2748  0.6826  0.0148
 6787TIP3    H141852   6.927   4.407  11.807 -1.3546  0.8457 -1.8203
 6787TIP3    H241853   6.828   4.344  11.904  1.1328  1.0317  0.9854
 6788TIP3   OH241854   1.313   5.347  14.451  0.2846 -0.6517  0.0109
 6788TIP3    H141855   1.370   5.414  14.413 -0.1214 -0.2531  0.0977
 6788TIP3    H241856   1.372   5.288  14.498  0.6112 -0.2028  0.1619
 6789TIP3   OH241857   6.777   1.978  14.246  0.3925 -0.0547  0.2983
 6789TIP3    H141858   6.786   2.001  14.153  0.1690 -0.5969  0.1428
 6789TIP3    H241859   6.828   1.898  14.256  0.2703 -0.0947  0.6051
 6790TIP3   OH241860   1.528   0.732  13.974  0.0766 -0.3228 -0.1058
 6790TIP3    H141861   1.545   0.798  14.041  0.6590 -0.7231  0.1491
 6790TIP3    H241862   1.558   0.773  13.892 -2.5356  0.9958 -0.5154
 6791TIP3   OH241863   1.481   1.641  10.317 -0.4826  0.4519  0.0418
 6791TIP3    H141864   1.493   1.620  10.224  1.3625 -0.6122  0.4640
 6791TIP3    H241865   1.387   1.637  10.330 -0.8225  1.0856 -1.8721
 6792TIP3   OH241866   3.310   2.004   9.855 -0.0613 -0.7198 -0.1778
 6792TIP3    H141867   3.217   1.995   9.876 -0.0497  0.6069  0.5400
 6792TIP3    H241868   3.311   2.052   9.772 -0.0329  1.6150  1.0966
 6793TIP3   OH241869   4.948   3.763  13.280  0.2685  0.5488 -0.3547
 6793TIP3    H141870   4.940   3.779  13.186  1.0560 -0.7845 -0.6758
 6793TIP3    H241871   5.022   3.817  13.307 -0.0797  1.0840 -0.4467
 6794TIP3   OH241872   4.490   0.825  15.082  0.7444  0.4584  0.1553
 6794TIP3    H141873   4.523   0.861  15.000  1.1437 -0.2263  0.0015
 6794TIP3    H241874   4.395   0.823  15.072  0.7281  1.3368  0.1235
 6795TIP3   OH241875   4.194   0.222  11.600 -0.0944  0.2236 -0.3131
 6795TIP3    H141876   4.175   0.233  11.507 -2.2540 -0.0373  0.0623
 6795TIP3    H241877   4.144   0.145  11.626  1.0685 -0.1633  0.9363
 6796TIP3   OH241878   6.945   4.284   0.286  0.4314  0.0782 -0.5727
 6796TIP3    H141879   6.991   4.291   0.202  0.8250  1.2646 -0.2786
 6796TIP3    H241880   6.956   4.370   0.326 -1.4058  0.1573 -0.1560
 6797TIP3   OH241881   6.374   4.951  14.084  0.7179  0.0797  0.0436
 6797TIP3    H141882   6.288   4.990  14.074  0.2580 -0.8506  0.2904
 6797TIP3    H241883   6.390   4.906  14.001  1.7395  1.6986 -0.6867
 6798TIP3   OH241884   0.396   6.455   9.791 -0.0222  0.4538 -0.3644
 6798TIP3    H141885   0.326   6.405   9.749  0.2702  0.3056 -0.6790
 6798TIP3    H241886   0.435   6.505   9.720 -2.2674  3.5524  0.3822
 6799TIP3   OH241887   2.878   5.209   3.304 -0.0007 -0.7639 -0.2811
 6799TIP3    H141888   2.882   5.294   3.346  0.5924 -0.2694 -1.3064
 6799TIP3    H241889   2.932   5.218   3.226 -1.1790 -1.5989 -1.2456
 6800TIP3   OH241890   6.846   5.566  11.240  0.3046  0.2934 -0.4921
 6800TIP3    H141891   6.928   5.576  11.288 -0.0110 -0.9511  0.3623
 6800TIP3    H241892   6.816   5.656  11.226  2.1845  0.8198 -1.5256
 6801TIP3   OH241893   0.471   3.690   0.626  0.2679 -0.4595  0.2029
 6801TIP3    H141894   0.407   3.657   0.689  0.1472 -0.5928  0.0112
 6801TIP3    H241895   0.547   3.713   0.679  1.0664 -2.7925  0.1836
 6802TIP3   OH241896   0.747   7.047  12.441 -0.7773 -0.8318 -0.4540
 6802TIP3    H141897   0.814   7.101  12.483 -2.3988 -0.3294  1.6404
 6802TIP3    H241898   0.790   6.963  12.426  0.7588 -0.0496 -0.5815
 6803TIP3   OH241899   3.823   3.052   3.050  0.2684  0.1528 -0.0898
 6803TIP3    H141900   3.740   3.097   3.033 -0.6523 -1.2926  0.3445
 6803TIP3    H241901   3.807   2.961   3.024  1.6858 -0.1879  0.1196
 6804TIP3   OH241902   0.316   3.495  14.268  0.3394 -0.6189  0.2549
 6804TIP3    H141903   0.399   3.522  14.309  1.1678  0.4451 -1.9232
 6804TIP3    H241904   0.332   3.407  14.235 -0.0738 -1.1791  1.5300
 6805TIP3   OH241905   6.379   5.383  12.305 -0.0507 -0.0344  0.6030
 6805TIP3    H141906   6.377   5.327  12.227 -0.2028  1.1573 -0.2677
 6805TIP3    H241907   6.316   5.452  12.286 -0.1121  0.2538  1.8133
 6806TIP3   OH241908   1.788   0.489  11.599  0.6729 -0.5524 -0.4731
 6806TIP3    H141909   1.757   0.401  11.576  0.9826 -1.0202  0.8115
 6806TIP3    H241910   1.861   0.474  11.658  0.9937  0.5796 -0.5505
 6807TIP3   OH241911   3.555   1.304   1.389  0.2929  0.5709  0.1719
 6807TIP3    H141912   3.642   1.283   1.422  0.6174  3.4222  1.4250
 6807TIP3    H241913   3.502   1.312   1.469 -0.7229  0.5242 -0.4865
 6808TIP3   OH241914   1.022   0.121   2.570  0.4544  0.6162  0.0513
 6808TIP3    H141915   1.081   0.082   2.505  1.0375  0.4611  0.6668
 6808TIP3    H241916   1.041   0.074   2.651 -1.3523 -0.2548  0.0167
 6809TIP3   OH241917   3.100   1.503   1.326  0.5295  0.1018 -0.0591
 6809TIP3    H141918   3.178   1.472   1.280  2.0067  4.0710 -0.6234
 6809TIP3    H241919   3.093   1.447   1.403  1.4317 -2.9770 -2.0529
 6810TIP3   OH241920   2.812   4.029   2.954  0.4502 -0.2270 -0.7020
 6810TIP3    H141921   2.764   3.996   3.030  1.6995 -1.1019 -0.2674
 6810TIP3    H241922   2.823   3.953   2.898  3.6257 -0.7329  0.4447
 6811TIP3   OH241923   0.563   1.369  12.433  0.1479 -0.1756 -0.3973
 6811TIP3    H141924   0.629   1.426  12.393  0.4593  0.8901  1.4983
 6811TIP3    H241925   0.482   1.392  12.387  0.8672 -0.7045 -1.9931
 6812TIP3   OH241926   3.331   5.270   4.883  0.6941  0.2749  0.4114
 6812TIP3    H141927   3.374   5.354   4.871 -0.6066  1.0392  0.8442
 6812TIP3    H241928   3.259   5.288   4.944  0.3323 -1.1291  0.4447
 6813TIP3   OH241929   6.090   0.578  14.067 -0.0992  0.0404 -0.3879
 6813TIP3    H141930   6.014   0.623  14.103  1.2311  2.7556 -0.7484
 6813TIP3    H241931   6.074   0.485  14.086 -2.3255  0.7482  1.6531
 6814TIP3   OH241932   1.284   0.107  14.337  0.0261  0.4201  0.4564
 6814TIP3    H141933   1.337   0.123  14.260  0.2603 -1.3334  0.2059
 6814TIP3    H241934   1.346   0.070  14.401 -0.2716  1.3497  1.3077
 6815TIP3   OH241935   0.963   0.914  10.005 -0.8743 -0.1099 -0.0041
 6815TIP3    H141936   0.875   0.949  10.017 -1.7311 -1.3432 -2.0967
 6815TIP3    H241937   0.954   0.853   9.932  1.7872 -0.0716 -0.4438
 6816TIP3   OH241938   5.925   6.350   3.317 -0.1005  0.4574  0.1808
 6816TIP3    H141939   5.870   6.323   3.243  0.4462 -0.0213 -0.0589
 6816TIP3    H241940   5.914   6.445   3.321 -1.2926  0.3185  0.4201
 6817TIP3   OH241941   6.096   7.123   0.313  0.5260 -0.1743 -0.2931
 6817TIP3    H141942   6.189   7.133   0.333  0.4869  0.5867 -0.4777
 6817TIP3    H241943   6.085   7.165   0.227 -0.2741  1.1669  0.4268
 6818TIP3   OH241944   5.114   0.093  14.211 -0.1098  0.1734 -0.1159
 6818TIP3    H141945   5.030   0.047  14.207 -0.6197  1.0649 -0.0094
 6818TIP3    H241946   5.094   0.174  14.258 -0.0517  2.1508 -3.1743
 6819TIP3   OH241947   3.219   1.862   1.039 -0.0455  0.3679  0.0375
 6819TIP3    H141948   3.145   1.815   1.077  1.3086 -1.2954  0.7722
 6819TIP3    H241949   3.278   1.878   1.113  0.7717  0.7816 -0.6861
 6820TIP3   OH241950   2.712   5.480  14.557 -0.1109 -0.5849  0.6135
 6820TIP3    H141951   2.635   5.525  14.524 -0.6238 -1.1113  1.0745
 6820TIP3    H241952   2.685   5.389  14.567  0.4217 -0.6906  1.2010
 6821TIP3   OH241953   2.526   2.264   3.501 -0.0469 -0.0664  0.0745
 6821TIP3    H141954   2.596   2.263   3.436 -0.6571 -2.1371 -0.6451
 6821TIP3    H241955   2.570   2.261   3.585  0.7329  0.4725 -0.3033
 6822TIP3   OH241956   6.510   0.152   9.686 -0.7665  0.4038 -0.0586
 6822TIP3    H141957   6.565   0.159   9.608 -0.8728 -1.2124 -0.3298
 6822TIP3    H241958   6.567   0.112   9.752 -1.1410  0.2449  0.1736
 6823TIP3   OH241959   4.059   3.911   1.482 -0.1588 -0.2082 -0.2232
 6823TIP3    H141960   4.004   3.978   1.443  1.7588  1.6855  0.1585
 6823TIP3    H241961   4.132   3.900   1.421  1.3525  0.6762  1.3235
 6824TIP3   OH241962   2.148   0.980  10.312  0.1946  0.2413  0.0124
 6824TIP3    H141963   2.243   0.992  10.305  0.2525 -0.1027  0.1520
 6824TIP3    H241964   2.135   0.885  10.304 -0.1656  0.3136 -0.2947
 6825TIP3   OH241965   4.002   4.817   4.158 -0.3500  0.4093 -0.3651
 6825TIP3    H141966   4.050   4.895   4.184 -1.4740  0.4396  1.8494
 6825TIP3    H241967   4.051   4.744   4.197 -1.0260  0.2991  0.3087
 6826TIP3   OH241968   6.722   5.729   9.673 -0.9791 -0.8237  0.7741
 6826TIP3    H141969   6.698   5.754   9.762 -0.0151  2.1645  0.2941
 6826TIP3    H241970   6.651   5.764   9.619 -2.2682 -3.7665  0.3223
 6827TIP3   OH241971   5.260   6.983   2.567 -0.2639 -0.0625 -0.5479
 6827TIP3    H141972   5.339   6.935   2.592 -0.8067 -0.8303 -0.2646
 6827TIP3    H241973   5.216   7.002   2.649 -0.6661 -0.1584 -0.7374
 6828TIP3   OH241974   2.112   6.380  12.111 -0.0320  0.3754  0.1203
 6828TIP3    H141975   2.024   6.411  12.134 -0.2439  0.3689 -0.6458
 6828TIP3    H241976   2.171   6.430  12.167 -0.2540  3.1201 -1.8722
 6829TIP3   OH241977   0.779   5.376  12.612 -0.1106 -0.1305  0.2886
 6829TIP3    H141978   0.816   5.328  12.687 -0.0384 -0.7673 -0.1465
 6829TIP3    H241979   0.722   5.313  12.569  0.9193 -0.2302 -0.9966
 6830TIP3   OH241980   4.825   0.172  11.128 -0.2982  0.4452  0.3171
 6830TIP3    H141981   4.892   0.103  11.126 -0.3328  0.4146  0.1915
 6830TIP3    H241982   4.743   0.124  11.137 -0.2842  0.4953  0.7175
 6831TIP3   OH241983   1.850   3.455   0.998  0.5581  0.3150 -0.0612
 6831TIP3    H141984   1.847   3.384   0.933  1.2786  0.9298 -0.7962
 6831TIP3    H241985   1.785   3.518   0.967 -2.1439 -1.1800  2.0888
 6832TIP3   OH241986   5.780   4.766   1.684 -0.1385  0.4666 -0.3887
 6832TIP3    H141987   5.758   4.796   1.596  0.6184 -0.6206 -0.9653
 6832TIP3    H241988   5.786   4.671   1.677 -0.0721  0.3601  0.8409
 6833TIP3   OH241989   4.001   2.287   2.222 -0.3426  0.6386 -0.6111
 6833TIP3    H141990   3.965   2.375   2.217  0.4778  1.5740  4.4981
 6833TIP3    H241991   4.084   2.298   2.269 -0.1573 -2.8166  0.1225
 6834TIP3   OH241992   2.464   5.826   0.816  0.4511 -0.4581 -0.0539
 6834TIP3    H141993   2.393   5.778   0.860  1.0490 -1.8462 -0.5532
 6834TIP3    H241994   2.423   5.908   0.788 -0.5053 -0.4882  1.1660
 6835TIP3   OH241995   1.635   4.503  14.278  0.3463  0.3679  0.4907
 6835TIP3    H141996   1.565   4.509  14.213  0.9849 -1.6237 -0.4330
 6835TIP3    H241997   1.648   4.410  14.291  1.9650  0.7172  1.6197
 6836TIP3   OH241998   5.809   0.240   0.992 -1.0032  0.0140  0.0651
 6836TIP3    H141999   5.789   0.306   0.925 -1.8714  0.5328  0.8070
 6836TIP3    H242000   5.864   0.176   0.947 -1.9892  0.0694 -1.3071
 6837TIP3   OH242001   1.249   4.951   1.769  0.0222 -0.3465  0.0271
 6837TIP3    H142002   1.190   5.001   1.826  0.4710 -0.0883  0.2655
 6837TIP3    H242003   1.310   5.016   1.734  0.3710 -0.6656  0.0392
 6838TIP3   OH242004   4.978   0.842   4.721 -0.2116  0.2641 -0.2331
 6838TIP3    H142005   4.917   0.914   4.705 -0.5645 -0.2543 -1.2869
 6838TIP3    H242006   4.923   0.766   4.740 -0.1061 -0.8322 -3.6116
 6839TIP3   OH242007   5.414   2.221  14.466  0.6810 -0.1813  0.5063
 6839TIP3    H142008   5.504   2.225  14.435 -0.0067 -0.8681 -1.7839
 6839TIP3    H242009   5.408   2.136  14.511  0.4815 -1.6350 -2.0458
 6840TIP3   OH242010   2.932   4.138  12.991 -0.4131  0.5170  0.1026
 6840TIP3    H142011   2.986   4.194  12.934  0.9465 -1.3976 -0.6198
 6840TIP3    H242012   2.870   4.096  12.931  0.1052 -0.4629  0.2380
 6841TIP3   OH242013   6.006   3.629  15.332 -0.0243 -0.1595  0.0341
 6841TIP3    H142014   5.952   3.704  15.359  2.2666  2.8274 -2.9786
 6841TIP3    H242015   5.985   3.616  15.240  2.7838 -0.2869 -0.6581
 6842TIP3   OH242016   1.388   4.404   0.305  0.3206  0.4684  0.3181
 6842TIP3    H142017   1.359   4.481   0.355 -0.6431 -0.2576  0.9343
 6842TIP3    H242018   1.316   4.341   0.316  0.4755 -0.0191 -1.3157
 6843TIP3   OH242019   0.245   3.533  12.804 -0.4002 -0.7810 -0.2594
 6843TIP3    H142020   0.329   3.571  12.830 -1.4815  0.6970  1.2349
 6843TIP3    H242021   0.249   3.443  12.835  0.3553 -0.5239  0.4241
 6844TIP3   OH242022   0.663   0.624  12.917 -0.4405  0.3022 -0.2080
 6844TIP3    H142023   0.730   0.663  12.860 -2.0831 -0.0461 -2.5190
 6844TIP3    H242024   0.666   0.676  12.997  3.5805 -0.6257  0.4848
 6845TIP3   OH242025   2.755   0.991   4.943  0.7744  0.4917 -0.1124
 6845TIP3    H142026   2.811   0.933   4.892  0.3214 -0.6100  0.5878
 6845TIP3    H242027   2.812   1.029   5.009  0.7724 -0.3843  0.4033
 6846TIP3   OH242028   3.335   2.834   1.389  0.1782  0.1344 -0.4419
 6846TIP3    H142029   3.245   2.858   1.410 -0.1736 -0.4944 -1.1628
 6846TIP3    H242030   3.374   2.915   1.355  0.3193  0.7682  1.1639
 6847TIP3   OH242031   3.563   4.588  11.479  0.1707  0.1215  0.2078
 6847TIP3    H142032   3.629   4.520  11.483  0.6461  0.4597 -1.2345
 6847TIP3    H242033   3.605   4.666  11.515  1.0718  0.6822 -1.9160
 6848TIP3   OH242034   2.689   3.611  15.339 -0.1441  0.0082 -0.0193
 6848TIP3    H142035   2.640   3.545  15.291 -0.7830  0.6916 -0.3196
 6848TIP3    H242036   2.662   3.599  15.430  1.0798 -1.2980  0.2155
 6849TIP3   OH242037   3.420   0.419   3.698 -0.3685 -0.2075  0.5195
 6849TIP3    H142038   3.351   0.439   3.635 -0.5956  0.4564  0.9660
 6849TIP3    H242039   3.469   0.348   3.658  0.8818  1.6503 -1.4550
 6850TIP3   OH242040   5.923   0.505  13.296 -0.8856 -0.2067  0.4894
 6850TIP3    H142041   5.920   0.594  13.260  0.0491 -0.2031  0.4034
 6850TIP3    H242042   5.913   0.448  13.219  0.7569 -0.1936  0.2311
 6851TIP3   OH242043   6.849   4.816   5.263  0.3204  0.0633 -0.4092
 6851TIP3    H142044   6.892   4.762   5.329 -0.1288  0.8859  0.5797
 6851TIP3    H242045   6.916   4.879   5.237 -0.0433  0.9278  0.6552
 6852TIP3   OH242046   3.456   1.797  13.166 -0.1935 -0.1506 -0.0812
 6852TIP3    H142047   3.408   1.734  13.220 -0.4433 -0.4671 -0.6564
 6852TIP3    H242048   3.534   1.818  13.217 -0.3476 -0.5579  0.3325
 6853TIP3   OH242049   4.178   6.188  15.342 -0.7500 -0.2385  0.8483
 6853TIP3    H142050   4.098   6.221  15.302 -0.0237  0.1070 -0.3888
 6853TIP3    H242051   4.218   6.133  15.273  0.8030  0.7872  0.8760
 6854TIP3   OH242052   1.567   6.308  11.410 -0.5983  0.0436 -0.4863
 6854TIP3    H142053   1.580   6.215  11.423 -0.4696 -0.0744 -1.3890
 6854TIP3    H242054   1.476   6.324  11.435  0.1824  0.2616  2.6180
 6855TIP3   OH242055   5.907   5.753   0.295 -0.3012  0.0416  0.0221
 6855TIP3    H142056   5.970   5.824   0.284 -0.1017 -0.2694 -0.9292
 6855TIP3    H242057   5.838   5.771   0.232 -1.0496  0.2354  0.8768
 6856TIP3   OH242058   0.621   3.432  12.137 -0.0757 -0.0356 -0.3087
 6856TIP3    H142059   0.625   3.471  12.225  1.3761 -0.5794 -0.1049
 6856TIP3    H242060   0.549   3.369  12.142  0.1697 -0.2565  0.5758
 6857TIP3   OH242061   5.613   5.066  11.332  0.3899  0.2656 -0.3636
 6857TIP3    H142062   5.617   5.086  11.239  1.3800  0.1270 -0.3677
 6857TIP3    H242063   5.704   5.074  11.362 -0.0518  1.2998  0.8052
 6858TIP3   OH242064   2.754   0.700  13.029  0.4165 -0.3580  0.4334
 6858TIP3    H142065   2.718   0.764  12.968 -1.6154  1.8697  3.6557
 6858TIP3    H242066   2.848   0.719  13.031  0.5076 -0.4163 -1.8199
 6859TIP3   OH242067   1.632   4.643   5.450  0.2628  0.4394 -0.1345
 6859TIP3    H142068   1.588   4.724   5.426 -0.0107  0.7948  1.4752
 6859TIP3    H242069   1.564   4.590   5.491  0.4323 -0.6478 -1.1900
 6860TIP3   OH242070   4.324   3.884   1.746  0.0843  0.2217  0.7755
 6860TIP3    H142071   4.288   3.954   1.800  0.4311  0.1524  1.1031
 6860TIP3    H242072   4.413   3.871   1.779  0.7721  1.0668 -0.6693
 6861TIP3   OH242073   3.713   2.256   3.527 -0.1387 -0.4601 -0.5413
 6861TIP3    H142074   3.679   2.174   3.564 -0.3177 -1.1698 -2.1728
 6861TIP3    H242075   3.807   2.253   3.543 -0.4674  0.4596  2.0250
 6862TIP3   OH242076   5.049   6.007   1.728  1.1444 -0.2557  0.1280
 6862TIP3    H142077   5.058   5.984   1.636 -2.5451 -1.4489 -0.0570
 6862TIP3    H242078   5.025   6.099   1.728 -0.0374 -0.5524 -0.2213
 6863TIP3   OH242079   0.682   1.410  11.467 -0.3493  0.3493 -0.3595
 6863TIP3    H142080   0.762   1.360  11.451 -1.0268 -0.3726 -1.5633
 6863TIP3    H242081   0.642   1.367  11.543 -0.0519  0.1617 -0.3069
 6864TIP3   OH242082   1.425   1.065  13.668  0.1280  0.3459 -0.0709
 6864TIP3    H142083   1.485   1.008  13.715 -0.4631 -0.6013 -0.4441
 6864TIP3    H242084   1.340   1.020  13.673 -0.2841  1.0384 -0.6295
 6865TIP3   OH242085   2.184   1.625  13.834  0.0510  0.2138  0.0901
 6865TIP3    H142086   2.128   1.569  13.887  0.3240 -0.1149  0.0363
 6865TIP3    H242087   2.140   1.629  13.749  1.0802 -1.6483 -0.5792
 6866TIP3   OH242088   5.580   1.931  15.226  0.4392 -0.0516  0.3446
 6866TIP3    H142089   5.651   1.892  15.175  0.8178  2.0420 -0.8646
 6866TIP3    H242090   5.512   1.951  15.161 -1.2279 -1.7963  1.4448
 6867TIP3   OH242091   1.314   1.642  14.762  0.1246  0.5721 -0.0881
 6867TIP3    H142092   1.236   1.667  14.714 -0.0748 -1.5646 -1.0253
 6867TIP3    H242093   1.309   1.546  14.768  2.0088  0.4778  0.9688
 6868TIP3   OH242094   6.640   6.575   3.077  0.2286  0.2603  0.0348
 6868TIP3    H142095   6.700   6.620   3.137 -0.9350  1.3623  0.4162
 6868TIP3    H242096   6.655   6.616   2.993 -2.8771  3.6698  0.9010
 6869TIP3   OH242097   6.221   5.037   1.565  0.0101  0.1375 -0.1410
 6869TIP3    H142098   6.241   5.126   1.595  0.0191  0.4078 -0.9099
 6869TIP3    H242099   6.270   4.980   1.624 -1.5374  0.5394  1.6141
 6870TIP3   OH242100   4.655   4.222  10.344 -0.5162  0.6267 -0.0391
 6870TIP3    H142101   4.742   4.195  10.374 -0.1407  2.4245  0.6125
 6870TIP3    H242102   4.595   4.174  10.401  0.0145 -0.5662 -0.4338
 6871TIP3   OH242103   2.782   3.193  14.489  0.3972 -0.7508 -0.7870
 6871TIP3    H142104   2.836   3.271  14.482  0.0155 -0.5529 -1.8025
 6871TIP3    H242105   2.766   3.167  14.398 -2.0692 -0.1770 -0.5922
 6872TIP3   OH242106   5.897   3.397   1.288 -0.4234  0.6743 -0.3185
 6872TIP3    H142107   5.887   3.386   1.194 -1.6887  2.9197 -0.5136
 6872TIP3    H242108   5.890   3.491   1.302  0.7706  0.4919  1.9295
 6873TIP3   OH242109   2.298   5.892   1.889 -0.1451  0.4808 -0.8058
 6873TIP3    H142110   2.259   5.970   1.930  2.2367  1.1798  0.3186
 6873TIP3    H242111   2.265   5.819   1.941 -1.0044  0.8812 -0.7561
 6874TIP3   OH242112   2.186   2.003  14.172 -0.4653  0.3470  0.2894
 6874TIP3    H142113   2.166   2.036  14.260 -2.3478  1.3939 -0.4715
 6874TIP3    H242114   2.155   2.071  14.113 -0.7932 -1.0542 -1.2365
 6875TIP3   OH242115   0.370   3.279   0.183 -0.4365 -0.2377 -1.0913
 6875TIP3    H142116   0.414   3.234   0.110  0.9177 -1.6769  0.5063
 6875TIP3    H242117   0.438   3.285   0.250 -1.0360  2.9460 -0.6615
 6876TIP3   OH242118   3.207   1.028  14.381  0.0380 -0.5018 -0.0420
 6876TIP3    H142119   3.253   1.107  14.411 -1.5811 -0.2210  1.9141
 6876TIP3    H242120   3.275   0.977  14.337  1.0318  2.2117 -1.9646
 6877TIP3   OH242121   5.406   0.187   4.399 -0.6263 -0.1191  0.5030
 6877TIP3    H142122   5.493   0.225   4.382 -1.0661  0.9975  0.6572
 6877TIP3    H242123   5.410   0.159   4.491 -0.8920  1.3255  0.9919
 6878TIP3   OH242124   3.435   7.187  11.401  0.2302  0.6220 -0.3555
 6878TIP3    H142125   3.468   7.107  11.441  1.5287  0.3752 -1.8134
 6878TIP3    H242126   3.366   7.217  11.460  0.2355 -1.1499  0.6172
 6879TIP3   OH242127   5.276   7.086  14.086  0.1132 -0.3128 -0.2440
 6879TIP3    H142128   5.343   7.155  14.079  1.3128 -1.5554 -1.7346
 6879TIP3    H242129   5.292   7.046  14.171  0.7071 -0.0441 -0.2222
 6880TIP3   OH242130   3.939   5.536   2.477 -0.2812  0.4009 -0.4392
 6880TIP3    H142131   3.908   5.624   2.498  1.2149  1.3138 -1.8051
 6880TIP3    H242132   3.966   5.541   2.385  0.6179 -1.2447 -0.3137
 6881TIP3   OH242133   5.309   3.016   0.302 -0.2455 -0.0463  0.1547
 6881TIP3    H142134   5.307   2.974   0.216 -0.1903  1.5603 -0.6640
 6881TIP3    H242135   5.263   3.098   0.290 -1.6813 -0.4957  2.0968
 6882TIP3   OH242136   4.930   5.947  14.996 -0.2852  0.5462 -0.5229
 6882TIP3    H142137   4.913   5.994  15.078 -0.1493  2.2866 -1.4499
 6882TIP3    H242138   4.844   5.931  14.959 -0.2897  1.3155 -0.8628
 6883TIP3   OH242139   1.437   6.659   1.491  0.6788 -0.0625 -0.2561
 6883TIP3    H142140   1.368   6.721   1.466  1.3408 -0.1765 -2.6023
 6883TIP3    H242141   1.391   6.592   1.542 -0.8547  0.1543 -1.2715
 6884TIP3   OH242142   0.835   6.170   0.122 -0.3827  0.4091 -0.2877
 6884TIP3    H142143   0.901   6.128   0.177 -1.5991 -2.4225 -0.8061
 6884TIP3    H242144   0.768   6.199   0.184 -0.3371 -0.0322 -0.0236
 6885TIP3   OH242145   7.078   1.357  11.690 -0.1445 -0.2259 -0.1758
 6885TIP3    H142146   7.070   1.354  11.786 -0.1901 -0.6897 -0.1898
 6885TIP3    H242147   6.992   1.386  11.660 -0.1737 -0.2141 -0.0807
 6886TIP3   OH242148   1.766   6.429   3.514  0.0562 -0.7714 -0.0881
 6886TIP3    H142149   1.673   6.453   3.507  0.3079  0.4078  0.3402
 6886TIP3    H242150   1.813   6.510   3.496  0.9931 -1.1708  0.4832
 6887TIP3   OH242151   6.679   3.123  12.019 -0.0808  0.3800 -0.1196
 6887TIP3    H142152   6.758   3.107  11.968 -1.2460  0.5454 -2.1188
 6887TIP3    H242153   6.617   3.158  11.955 -1.9454 -0.2588  1.2468
 6888TIP3   OH242154   0.208   2.651  12.139 -0.1304  0.0778  0.0840
 6888TIP3    H142155   0.182   2.621  12.051  0.4313 -1.0966  0.3014
 6888TIP3    H242156   0.270   2.721  12.123 -1.5766  1.2935 -0.4432
 6889TIP3   OH242157   0.435   1.424  13.071 -0.3764 -0.0239  0.1039
 6889TIP3    H142158   0.489   1.356  13.030 -2.0758 -2.2212  1.2494
 6889TIP3    H242159   0.400   1.475  12.998  1.7295  0.2802 -0.7384
 6890TIP3   OH242160   0.685   3.924  15.102  0.3988 -0.0172 -0.4954
 6890TIP3    H142161   0.767   3.974  15.103  1.4704 -1.6913 -0.2895
 6890TIP3    H242162   0.636   3.957  15.178  0.5988  1.4072 -0.9616
 6891TIP3   OH242163   0.894   2.302  10.797  0.2170 -0.1048  0.3971
 6891TIP3    H142164   0.911   2.352  10.717 -0.0486  0.3122  0.5975
 6891TIP3    H242165   0.893   2.367  10.867 -1.8797 -0.1160  0.4330
 6892TIP3   OH242166   3.351   4.218  13.198  0.0131 -0.0377  0.0291
 6892TIP3    H142167   3.417   4.183  13.259  0.1399 -0.3926 -0.3061
 6892TIP3    H242168   3.331   4.144  13.140  0.1781  0.4024 -0.6015
 6893TIP3   OH242169   4.246   5.898  14.392  0.5735 -0.3305  0.0127
 6893TIP3    H142170   4.273   5.807  14.383  0.3555 -0.7847  2.8707
 6893TIP3    H242171   4.323   5.943  14.427 -0.4358 -0.3518  2.4578
 6894TIP3   OH242172   2.057   2.736   4.942  0.0316 -0.0217  0.0931
 6894TIP3    H142173   2.052   2.747   4.847  0.9377  1.3456  0.1821
 6894TIP3    H242174   2.089   2.820   4.975 -0.1341 -0.5156  1.6042
 6895TIP3   OH242175   1.956   2.360  14.488 -0.4472 -0.1367  0.7279
 6895TIP3    H142176   1.940   2.449  14.457 -1.5458 -0.3300  0.7019
 6895TIP3    H242177   2.009   2.371  14.566  0.5181  0.4685  0.0044
 6896TIP3   OH242178   6.385   4.587   1.832 -0.3598  0.0383  0.3350
 6896TIP3    H142179   6.355   4.667   1.789  0.2188  1.3156  2.2089
 6896TIP3    H242180   6.412   4.615   1.919  1.2734 -1.9588  0.5442
 6897TIP3   OH242181   0.408   4.334  12.616  0.0575 -0.6025 -0.4034
 6897TIP3    H142182   0.370   4.267  12.559 -0.5081  0.1350 -0.9128
 6897TIP3    H242183   0.333   4.370  12.664  0.4509 -0.8155  0.3955
 6898TIP3   OH242184   1.058   5.778  10.966 -0.0187  0.0796  0.5439
 6898TIP3    H142185   1.113   5.722  11.019  0.7279  0.5810  0.3092
 6898TIP3    H242186   1.118   5.838  10.922 -0.7671  0.8836  0.5730
 6899TIP3   OH242187   0.655   1.949  11.584 -0.3802 -0.2449  0.3421
 6899TIP3    H142188   0.737   1.981  11.547 -0.6750  1.8311  1.3097
 6899TIP3    H242189   0.588   1.973  11.520 -0.3882 -0.7328  0.1637
 6900TIP3   OH242190   4.836   0.957   1.652 -0.4548  0.5740 -0.1146
 6900TIP3    H142191   4.812   0.867   1.672  0.5157  0.4451  0.5851
 6900TIP3    H242192   4.803   1.008   1.725  1.2546  0.3960  0.8504
 6901TIP3   OH242193   0.691   6.228   9.268 -0.0731 -0.6988 -0.1569
 6901TIP3    H142194   0.688   6.315   9.228  0.8662 -0.1855  0.8413
 6901TIP3    H242195   0.776   6.225   9.313  0.5303 -2.6391 -1.2927
 6902TIP3   OH242196   5.949   2.017   0.226  0.3050  0.4480 -0.0857
 6902TIP3    H142197   5.870   2.022   0.173  1.6526 -0.8111 -2.3392
 6902TIP3    H242198   5.963   1.924   0.240  0.5237  0.7189  1.7332
 6903TIP3   OH242199   4.382   2.226   1.119  0.5909  0.2690 -0.2343
 6903TIP3    H142200   4.444   2.299   1.112  1.0157  0.4334  3.2394
 6903TIP3    H242201   4.361   2.222   1.212 -0.4441 -3.2439 -0.4817
 6904TIP3   OH242202   3.330   2.358   2.433  0.2111  0.2272 -0.6591
 6904TIP3    H142203   3.401   2.378   2.494 -2.0349  2.5949  1.4844
 6904TIP3    H242204   3.359   2.393   2.349  1.9193  0.2573 -0.0935
 6905TIP3   OH242205   7.171   1.474  15.088  0.3692  0.2880  0.0333
 6905TIP3    H142206   7.235   1.519  15.144  0.3124  1.6137 -0.9188
 6905TIP3    H242207   7.150   1.394  15.136  0.9849  0.9485  1.4830
 6906TIP3   OH242208   0.515   2.654   0.230 -0.5475 -0.2406  0.4343
 6906TIP3    H142209   0.544   2.737   0.192  4.1369 -2.1268 -0.7881
 6906TIP3    H242210   0.464   2.612   0.161  0.0754  0.2142 -0.3178
 6907TIP3   OH242211   4.779   2.462  12.791  0.6674 -0.1872  0.7438
 6907TIP3    H142212   4.783   2.384  12.735  0.3455  0.8536 -0.7592
 6907TIP3    H242213   4.690   2.495  12.779  1.5705  1.8796 -0.6880
 6908TIP3   OH242214   2.045   2.907   1.556  0.2198 -0.5040  0.1230
 6908TIP3    H142215   2.040   2.971   1.485  0.9378  0.1844  0.6744
 6908TIP3    H242216   1.955   2.879   1.570 -0.1206  0.4568 -0.0672
 6909TIP3   OH242217   4.354   6.411  11.309 -0.2069 -0.3725 -0.0027
 6909TIP3    H142218   4.363   6.388  11.402  0.2456 -1.0044 -0.2011
 6909TIP3    H242219   4.372   6.505  11.306  1.8311 -0.7186  0.2629
 6910TIP3   OH242220   4.252   6.933  13.434  0.2040  0.5151 -0.3847
 6910TIP3    H142221   4.319   7.001  13.434 -1.4537  2.2417  1.1025
 6910TIP3    H242222   4.297   6.856  13.469  1.5372  1.4709  0.1034
 6911TIP3   OH242223   3.845   1.954  11.360  0.4267  0.5511  0.5997
 6911TIP3    H142224   3.750   1.970  11.352 -0.0019 -0.5151  2.8976
 6911TIP3    H242225   3.851   1.875  11.414  2.6098 -1.2092 -1.9702
 6912TIP3   OH242226   1.294   5.872   2.677 -0.0567 -0.4459  0.2309
 6912TIP3    H142227   1.305   5.808   2.747  0.9896 -0.0626  0.4335
 6912TIP3    H242228   1.209   5.851   2.638 -0.6416 -0.6810  1.5904
 6913TIP3   OH242229   1.760   0.313   3.108  0.6010  0.6948  0.4759
 6913TIP3    H142230   1.795   0.266   3.184 -1.2411 -0.5149  0.6489
 6913TIP3    H242231   1.824   0.298   3.039  1.4178  0.2787  1.3012
 6914TIP3   OH242232   0.115   5.335   0.559  0.1477  0.4213  0.1437
 6914TIP3    H142233   0.124   5.427   0.582  0.3137  0.4574 -0.0630
 6914TIP3    H242234   0.066   5.296   0.632 -1.4918  1.0314 -0.5906
 6915TIP3   OH242235   4.021   6.771  13.805 -0.5708  0.2464  0.2618
 6915TIP3    H142236   4.021   6.820  13.723 -0.4163  2.0852  1.3082
 6915TIP3    H242237   4.023   6.679  13.778 -1.6416  0.7618 -1.7878
 6916TIP3   OH242238   1.750   6.580  10.627 -0.4575 -0.1616  0.4794
 6916TIP3    H142239   1.719   6.670  10.634 -0.2606  0.2034 -2.2977
 6916TIP3    H242240   1.823   6.575  10.689 -0.4200  1.6008  0.6182
 6917TIP3   OH242241   4.351   0.579   0.886 -0.7119  0.2668 -0.0785
 6917TIP3    H142242   4.417   0.648   0.895  0.2911 -0.7491  0.5237
 6917TIP3    H242243   4.388   0.503   0.931 -1.2283 -1.0810 -1.8286
 6918TIP3   OH242244   4.188   2.526  14.118 -0.4899 -0.0773  0.3514
 6918TIP3    H142245   4.227   2.482  14.043  0.4966  1.6654 -0.2108
 6918TIP3    H242246   4.263   2.551  14.173 -1.1031 -0.0984  1.2242
 6919TIP3   OH242247   4.285   5.330  12.660  0.1131 -0.0984  0.2413
 6919TIP3    H142248   4.227   5.255  12.672 -1.9992  1.3193 -0.5014
 6919TIP3    H242249   4.288   5.343  12.565  2.9979 -1.0740  0.1182
 6920TIP3   OH242250   0.869   0.652  13.948 -1.1710 -0.6573  0.6418
 6920TIP3    H142251   0.813   0.577  13.927 -0.5561 -1.4278  1.6826
 6920TIP3    H242252   0.907   0.631  14.033  0.4411  0.0043  0.1256
 6921TIP3   OH242253   2.577   3.896  14.851  0.3485  0.2233  0.0953
 6921TIP3    H142254   2.606   3.978  14.891  3.3251 -1.6421  2.1884
 6921TIP3    H242255   2.639   3.882  14.779 -0.2728 -0.0977 -0.3832
 6922TIP3   OH242256   4.391   6.302   9.974  0.4015  0.2931  0.0232
 6922TIP3    H142257   4.420   6.223  10.019  0.3886  0.4016  0.2251
 6922TIP3    H242258   4.458   6.319   9.908 -0.2702 -0.6459 -0.9350
 6923TIP3   OH242259   5.780   3.600  12.137 -0.4553 -0.2226  0.4766
 6923TIP3    H142260   5.734   3.526  12.175 -1.1645  0.3152  0.6868
 6923TIP3    H242261   5.720   3.633  12.069 -0.1870  0.2083  0.4434
 6924TIP3   OH242262   6.155   3.099  12.060 -0.7131 -0.1557 -0.1790
 6924TIP3    H142263   6.229   3.043  12.035  0.4701  0.9460  0.7282
 6924TIP3    H242264   6.147   3.087  12.154 -1.0120  0.5456 -0.1143
 6925TIP3   OH242265   6.960   4.169  13.944 -0.9990  0.2410 -0.4509
 6925TIP3    H142266   7.040   4.218  13.926 -0.7279 -0.5220 -1.4551
 6925TIP3    H242267   6.942   4.121  13.862 -1.5859 -0.8422  0.2818
 6926TIP3   OH242268   0.646   4.988  13.269  0.0013  0.8452 -0.2676
 6926TIP3    H142269   0.708   5.054  13.239  0.4611  1.1050  1.1709
 6926TIP3    H242270   0.634   5.007  13.362 -0.6515 -0.4697 -0.0624
 6927TIP3   OH242271   5.547   5.896  14.914  0.1627  0.3423 -0.2543
 6927TIP3    H142272   5.529   5.990  14.905 -1.4994  0.0347 -0.5042
 6927TIP3    H242273   5.479   5.864  14.973 -0.4301 -1.0279 -1.6239
 6928TIP3   OH242274   4.509   5.082  11.503 -0.6020  0.3424  0.8827
 6928TIP3    H142275   4.471   5.126  11.427 -1.4567 -0.8180  0.6093
 6928TIP3    H242276   4.539   4.998  11.469  1.0800  0.7163  1.3752
 6929TIP3   OH242277   1.719   0.901  12.520 -0.2769 -0.1616 -0.2059
 6929TIP3    H142278   1.630   0.932  12.532 -0.1726 -0.0539  0.3248
 6929TIP3    H242279   1.750   0.880  12.608 -0.4036 -1.9642 -0.5503
 6930TIP3   OH242280   4.977   4.116  14.137  0.0782 -0.1112  0.1417
 6930TIP3    H142281   4.980   4.137  14.231 -0.8833 -1.0542  0.4060
 6930TIP3    H242282   5.068   4.123  14.108  0.7752 -1.8745  1.6506
 6931TIP3   OH242283   4.935   2.255   0.355  0.1369 -0.1051 -0.1422
 6931TIP3    H142284   4.897   2.226   0.438  2.0081 -0.8444  0.5091
 6931TIP3    H242285   4.968   2.343   0.374 -0.3453  0.1357 -0.4105
 6932TIP3   OH242286   5.053   6.220  13.980 -0.3678 -0.3886  0.3411
 6932TIP3    H142287   5.093   6.268  13.908  0.2409 -2.2565 -0.6229
 6932TIP3    H242288   5.104   6.140  13.986 -1.3915 -0.9643  1.8502
 6933TIP3   OH242289   6.482   0.393   0.504  0.0851  0.1460 -0.4528
 6933TIP3    H142290   6.539   0.325   0.468  1.1092  1.7777 -2.0959
 6933TIP3    H242291   6.493   0.385   0.599 -0.5077 -2.4822 -0.5131
 6934TIP3   OH242292   4.637   6.407  13.210 -0.9936 -0.1205 -0.0615
 6934TIP3    H142293   4.670   6.370  13.128 -1.6635  2.7474 -1.7655
 6934TIP3    H242294   4.716   6.430  13.259 -0.2531  2.8631 -2.2893
 6935TIP3   OH242295   4.708   4.001   9.996 -0.0524 -0.2857  0.1692
 6935TIP3    H142296   4.616   4.025  10.002 -0.0178  0.1437 -0.8760
 6935TIP3    H242297   4.754   4.071  10.042 -0.3717 -1.7905  3.0019
 6936TIP3   OH242298   0.898   5.656  14.509 -0.2852  0.4990 -0.5391
 6936TIP3    H142299   0.914   5.691  14.421  0.5978 -1.1224 -1.0638
 6936TIP3    H242300   0.982   5.619  14.536 -1.1775 -1.3463 -0.1189
 6937TIP3   OH242301   0.420   0.341  13.805  0.0628  0.6689 -0.6266
 6937TIP3    H142302   0.354   0.410  13.795 -0.5861  0.6454  2.4293
 6937TIP3    H242303   0.403   0.305  13.892  1.4410 -2.2583 -1.4589
 6938TIP3   OH242304   5.834   3.572   2.796  0.6331 -0.6832  0.3445
 6938TIP3    H142305   5.796   3.532   2.718 -1.0467  0.9144  0.2742
 6938TIP3    H242306   5.902   3.631   2.762 -0.2283  0.1586  0.0393
 6939TIP3   OH242307   0.024   3.383  12.047 -0.5211 -0.0305  0.0583
 6939TIP3    H142308  -0.018   3.443  12.109 -1.8234 -0.8769  0.0264
 6939TIP3    H242309   0.075   3.440  11.989  1.2574  0.7682  2.2196
 6940TIP3   OH242310   3.313   5.408   5.304  0.2330 -0.4458 -0.3002
 6940TIP3    H142311   3.320   5.418   5.210  0.1226  1.4734 -0.1459
 6940TIP3    H242312   3.400   5.431   5.338  0.2543 -1.0485  0.0772
 6941TIP3   OH242313   3.522   6.744  10.115  0.5295  0.1456 -0.1181
 6941TIP3    H142314   3.594   6.709  10.167  0.9064 -0.9222 -1.3186
 6941TIP3    H242315   3.471   6.796  10.177  1.0319 -0.9700  1.2779
 6942TIP3   OH242316   0.885   6.707   2.982 -0.2394  0.3197 -0.2239
 6942TIP3    H142317   0.818   6.676   3.042 -1.7255  1.8401 -1.0195
 6942TIP3    H242318   0.954   6.742   3.038 -1.1040  0.7057  0.6173
 6943TIP3   OH242319   4.865   0.123  11.855  0.3910 -0.5230 -0.6462
 6943TIP3    H142320   4.830   0.037  11.878 -3.1934  1.2348  1.3171
 6943TIP3    H242321   4.916   0.150  11.931 -1.6908  0.5383  0.4447
 6944TIP3   OH242322   0.812   1.492   4.553  0.2285  0.3848  0.9039
 6944TIP3    H142323   0.780   1.435   4.623  0.6184 -1.4927 -0.3608
 6944TIP3    H242324   0.732   1.528   4.514  0.0139  1.6053  2.3743
 6945TIP3   OH242325   5.266   6.138   1.602  0.0824 -0.2665 -0.0051
 6945TIP3    H142326   5.187   6.158   1.551  1.0854  1.6932 -0.9104
 6945TIP3    H242327   5.233   6.111   1.688 -1.5768 -0.4041 -0.6456
 6946TIP3   OH242328   6.641   0.814  15.266 -0.4825  0.4505 -0.7187
 6946TIP3    H142329   6.551   0.784  15.263 -0.6617  0.9290 -3.9672
 6946TIP3    H242330   6.693   0.734  15.277 -1.2152  0.2950  2.5963
 6947TIP3   OH242331   1.865   2.847  12.865  0.5898  0.1072 -0.1344
 6947TIP3    H142332   1.838   2.905  12.793  2.5001 -0.5867 -1.4993
 6947TIP3    H242333   1.790   2.790  12.880 -1.0007  2.2484  0.6008
 6948TIP3   OH242334   5.978   1.921  14.752 -0.3138 -0.3302  0.3905
 6948TIP3    H142335   6.040   1.849  14.743 -0.2691 -0.0439 -2.4695
 6948TIP3    H242336   5.998   1.960  14.837  2.3824 -1.1767  0.2187
 6949TIP3   OH242337   0.264   6.013  11.314  0.4432 -0.2661 -0.1998
 6949TIP3    H142338   0.316   6.046  11.388 -0.5076 -2.1939  1.4570
 6949TIP3    H242339   0.302   6.055  11.237 -0.7759  4.7236  1.5801
 6950TIP3   OH242340   3.118   2.381   1.931 -0.5929 -0.1658 -0.2199
 6950TIP3    H142341   3.149   2.329   2.005 -1.0593  0.5215  0.4753
 6950TIP3    H242342   3.109   2.318   1.860 -0.2756 -0.8666  0.3430
 6951TIP3   OH242343   4.095   0.201   0.183  0.2092  0.1722  0.2783
 6951TIP3    H142344   4.007   0.176   0.157  0.3839  0.1884 -0.3420
 6951TIP3    H242345   4.152   0.135   0.144  0.6789  1.4569 -1.3673
 6952TIP3   OH242346   3.809   1.218  13.731  0.1072  1.0275 -0.1704
 6952TIP3    H142347   3.866   1.240  13.805 -1.0555  0.6099  0.8790
 6952TIP3    H242348   3.759   1.298  13.714 -0.1693  0.8913 -0.0018
 6953TIP3   OH242349   4.549   2.050  15.278 -0.2908 -0.3539 -0.0806
 6953TIP3    H142350   4.534   2.069  15.185 -1.0177 -1.6757 -0.2616
 6953TIP3    H242351   4.632   2.093  15.298  0.1555 -0.4969 -1.4971
 6954TIP3   OH242352   3.398   1.127   1.237 -0.0151 -0.0995  0.3203
 6954TIP3    H142353   3.462   1.058   1.220  1.2012  1.2214 -0.7363
 6954TIP3    H242354   3.443   1.190   1.293  0.1792  1.5380 -1.5500
 6955TIP3   OH242355   5.717   3.504  14.894 -0.3235 -0.3258  0.0298
 6955TIP3    H142356   5.750   3.425  14.851  0.4306  0.0472 -0.0957
 6955TIP3    H242357   5.663   3.547  14.827 -0.1978 -0.3967 -0.1160
 6956TIP3   OH242358   2.896   5.215  14.004  0.1915  0.2151 -0.6413
 6956TIP3    H142359   2.800   5.220  14.010  0.1431 -0.0116 -1.1554
 6956TIP3    H242360   2.922   5.162  14.079 -0.2785 -1.5144 -1.6340
 6957TIP3   OH242361   4.939   1.626  15.183 -0.1453 -0.1585  0.2165
 6957TIP3    H142362   5.020   1.576  15.172  0.1609 -0.5546  3.2649
 6957TIP3    H242363   4.967   1.717  15.183  0.1175 -0.2381 -0.0087
 6958TIP3   OH242364   3.434   6.662  12.871 -0.3059 -0.2808 -0.1396
 6958TIP3    H142365   3.405   6.753  12.880 -0.0734 -0.2761  0.6861
 6958TIP3    H242366   3.415   6.623  12.956  0.5905 -0.7128 -0.1274
 6959TIP3   OH242367   3.679   0.772   5.208 -0.1119  0.2356 -0.2663
 6959TIP3    H142368   3.654   0.728   5.290  0.4425 -0.3659 -0.4079
 6959TIP3    H242369   3.701   0.861   5.235 -2.1961  0.7457 -0.1180
 6960TIP3   OH242370   1.642   6.298   2.215 -0.5824  0.0003 -0.1589
 6960TIP3    H142371   1.598   6.376   2.182  0.1473  0.1974 -0.7162
 6960TIP3    H242372   1.735   6.314   2.197 -0.2215 -0.2055  1.3806
 6961TIP3   OH242373   0.114   3.134  12.192  0.1000 -0.3083  0.4132
 6961TIP3    H142374   0.114   3.215  12.142  0.3521 -0.8545 -0.5036
 6961TIP3    H242375   0.156   3.156  12.275  1.7421  0.1192 -0.4875
 6962TIP3   OH242376   3.820   2.725  10.671 -0.6488 -0.5804  0.1085
 6962TIP3    H142377   3.811   2.808  10.718 -1.2343 -0.8159  0.4231
 6962TIP3    H242378   3.912   2.723  10.644 -0.6930  0.2988 -0.1494
 6963TIP3   OH242379   1.596   0.696   0.126  0.2344  0.4248 -0.2155
 6963TIP3    H142380   1.614   0.662   0.039  0.8270 -0.9857  0.4427
 6963TIP3    H242381   1.500   0.693   0.134  0.2043  0.2007 -0.6608
 6964TIP3   OH242382   5.462   1.786  10.844  0.4730  0.2496  0.4613
 6964TIP3    H142383   5.476   1.801  10.750  0.7504 -0.0954  0.4466
 6964TIP3    H242384   5.388   1.844  10.866  0.7159  0.6925  0.1387
 6965TIP3   OH242385   4.634   3.131   2.000 -0.2755  0.5017  0.0489
 6965TIP3    H142386   4.594   3.046   1.984  0.2914  0.4898 -1.4747
 6965TIP3    H242387   4.653   3.131   2.094  0.6195 -1.4744 -0.0742
 6966TIP3   OH242388   0.917   5.197  11.511  0.1128 -0.3293 -0.0265
 6966TIP3    H142389   0.831   5.162  11.531 -0.9731  0.8505 -2.2958
 6966TIP3    H242390   0.913   5.288  11.541  0.2876 -0.0610 -0.7920
 6967TIP3   OH242391   0.739   0.694  14.727  0.0469  0.0831 -0.0701
 6967TIP3    H142392   0.669   0.648  14.681 -1.3692 -0.2459  2.2988
 6967TIP3    H242393   0.807   0.628  14.739 -1.0086 -0.8066  1.2581
 6968TIP3   OH242394   2.987   3.048   3.060  0.1948 -0.3642  0.2073
 6968TIP3    H142395   3.036   3.017   3.137  1.2660  0.0484 -0.2836
 6968TIP3    H242396   2.962   3.138   3.083 -0.2634 -0.5385  0.4144
 6969TIP3   OH242397   4.031   2.531  10.484  0.1999 -0.1041  0.0153
 6969TIP3    H142398   3.970   2.479  10.433  0.7718 -1.1215  0.3417
 6969TIP3    H242399   4.016   2.621  10.456 -3.0054  0.0140  1.6364
 6970TIP3   OH242400   0.026   1.217  12.503 -0.2280  0.2464  0.5900
 6970TIP3    H142401  -0.013   1.270  12.433  0.0269 -0.9593 -0.5039
 6970TIP3    H242402   0.065   1.281  12.562  1.1193  1.2910 -1.3013
 6971TIP3   OH242403   0.888   4.963   1.758 -0.1727  0.3358 -0.1339
 6971TIP3    H142404   0.955   4.951   1.690  0.0057  0.8920 -0.0603
 6971TIP3    H242405   0.851   5.049   1.740 -0.4105  0.3088  0.2253
 6972TIP3   OH242406   6.891   2.034  10.888 -0.0912  0.2935  0.6903
 6972TIP3    H142407   6.803   2.050  10.920 -0.7358  0.0673 -0.8843
 6972TIP3    H242408   6.889   2.060  10.796  1.3052 -0.3240  0.4510
 6973TIP3   OH242409   5.668   1.969   3.226  0.3183  0.2662 -0.1947
 6973TIP3    H142410   5.702   2.049   3.266  1.1129 -0.4905  0.7023
 6973TIP3    H242411   5.668   1.904   3.297 -1.7089 -0.1650 -0.5024
 6974TIP3   OH242412   3.049   1.876  13.719 -0.2649 -0.1877 -0.0524
 6974TIP3    H142413   3.056   1.966  13.751 -1.3893 -0.0253 -0.2285
 6974TIP3    H242414   3.107   1.873  13.643  0.4986  0.1141  0.5001
 6975TIP3   OH242415   5.604   3.839   1.771  0.4019 -0.3126 -0.2656
 6975TIP3    H142416   5.576   3.803   1.686  0.0206  1.4691 -0.9542
 6975TIP3    H242417   5.606   3.934   1.757 -0.5382  0.1041  1.9800
 6976TIP3   OH242418   1.725   5.940  14.821 -0.0381  0.1433  0.0555
 6976TIP3    H142419   1.638   5.924  14.785 -0.6388  1.7311  0.7114
 6976TIP3    H242420   1.721   5.902  14.909 -0.0219  0.1022  0.0388
 6977TIP3   OH242421   5.319   5.336  14.860  0.0810 -0.0183 -0.6374
 6977TIP3    H142422   5.343   5.425  14.882 -1.5142  0.0936  0.8288
 6977TIP3    H242423   5.342   5.285  14.938 -0.3904 -0.6339 -0.8969
 6978TIP3   OH242424   6.017   1.229  13.667  0.2861 -0.0946 -0.1438
 6978TIP3    H142425   6.010   1.321  13.644 -0.6653 -0.0814  0.1474
 6978TIP3    H242426   5.993   1.182  13.587 -0.3884 -0.0736  0.0420
 6979TIP3   OH242427   1.596   0.505   9.761 -0.0734 -0.0012 -0.0995
 6979TIP3    H142428   1.587   0.493   9.855  0.5965  0.3525  0.0104
 6979TIP3    H242429   1.559   0.425   9.723  1.0366 -0.8171  0.5036
 6980TIP3   OH242430   0.529   1.218   0.487 -0.3896 -0.4451 -0.6013
 6980TIP3    H142431   0.592   1.207   0.416 -0.7577  1.0433 -1.2032
 6980TIP3    H242432   0.550   1.304   0.524 -0.5174 -0.9889  0.7938
 6981TIP3   OH242433   2.881   4.714  11.744 -0.2717 -0.5149 -0.0419
 6981TIP3    H142434   2.839   4.756  11.669 -3.3606 -0.0698  1.7536
 6981TIP3    H242435   2.945   4.778  11.775  1.6814 -1.0346 -2.6202
 6982TIP3   OH242436   6.843   0.904   0.226  0.0346  0.2271  0.5356
 6982TIP3    H142437   6.816   0.812   0.226 -0.2171  0.2517  2.4314
 6982TIP3    H242438   6.762   0.952   0.247  0.2093  0.8793 -0.2320
 6983TIP3   OH242439   6.927   4.841  14.749 -0.0286  0.7293 -0.1500
 6983TIP3    H142440   6.925   4.872  14.840  1.7373 -1.3653  0.6948
 6983TIP3    H242441   6.988   4.899  14.705  0.9328  0.3463  0.6371
 6984TIP3   OH242442   5.542   5.394   3.243 -0.1793  0.1099 -0.0236
 6984TIP3    H142443   5.569   5.302   3.240 -3.4394 -0.9651 -0.4735
 6984TIP3    H242444   5.502   5.405   3.329 -0.0156  1.0342 -0.0581
 6985TIP3   OH242445   4.452   5.519  10.959 -0.4136 -0.0766  0.0596
 6985TIP3    H142446   4.460   5.572  10.879  0.4327  1.5287  1.1680
 6985TIP3    H242447   4.526   5.458  10.955  0.7742  1.2991  0.5372
 6986TIP3   OH242448   1.867   1.346   2.401 -0.5002  0.1016 -0.2832
 6986TIP3    H142449   1.872   1.441   2.389  0.5938  0.1808  0.6453
 6986TIP3    H242450   1.853   1.311   2.313 -0.8924  1.1214 -0.6333
 6987TIP3   OH242451   5.453   2.318   3.035 -0.0392 -0.2084  0.0075
 6987TIP3    H142452   5.448   2.229   3.000 -2.2934  0.1855 -0.8689
 6987TIP3    H242453   5.410   2.313   3.120 -1.0828  0.1910 -0.4742
 6988TIP3   OH242454   1.199   1.896  11.030 -0.3935 -0.2081 -0.4992
 6988TIP3    H142455   1.110   1.930  11.035  0.1387  1.0659  2.6522
 6988TIP3    H242456   1.242   1.951  10.965 -1.4786  0.3101 -0.8042
 6989TIP3   OH242457   4.956   1.156  13.061  0.0592  0.1755  0.2933
 6989TIP3    H142458   4.907   1.121  12.987 -0.1542 -1.3116  1.1148
 6989TIP3    H242459   4.984   1.243  13.031 -1.0704  0.1150 -1.0577
 6990TIP3   OH242460   4.094   4.439  14.706  0.0042  0.4165 -0.2005
 6990TIP3    H142461   4.005   4.460  14.735  0.0293  1.5125 -0.8243
 6990TIP3    H242462   4.082   4.374  14.638 -0.3139  0.4213 -0.1511
 6991TIP3   OH242463   2.013   6.271   0.580  0.4805  0.6195 -0.1206
 6991TIP3    H142464   1.941   6.313   0.625  0.0157  0.3053 -0.5580
 6991TIP3    H242465   2.062   6.343   0.540  0.9493  0.9060  0.9311
 6992TIP3   OH242466   5.657   2.857  10.213  0.2877  0.1301 -0.0829
 6992TIP3    H142467   5.739   2.905  10.219 -0.0232  0.5885  0.6863
 6992TIP3    H242468   5.597   2.917  10.169 -0.0060  0.3320  0.5738
 6993TIP3   OH242469   1.097   2.460  13.418 -0.2339  0.3016 -0.1673
 6993TIP3    H142470   1.167   2.484  13.478  0.5503  0.0318 -0.9563
 6993TIP3    H242471   1.093   2.364  13.422  0.0738  0.2556 -0.8082
 6994TIP3   OH242472   6.610   1.974  14.693  0.1661 -0.2356 -0.0692
 6994TIP3    H142473   6.619   2.068  14.673  1.9202 -0.7802 -2.2438
 6994TIP3    H242474   6.516   1.958  14.685  0.1485  0.7366 -3.1538
 6995TIP3   OH242475   2.119   0.724  11.077  0.1491 -0.3685  0.0088
 6995TIP3    H142476   2.078   0.768  11.151  1.4933  0.0023  0.5639
 6995TIP3    H242477   2.164   0.649  11.116  1.2527  0.0897 -0.3449
 6996TIP3   OH242478   6.210   1.893   2.110  0.0067 -0.4242  0.3779
 6996TIP3    H142479   6.152   1.819   2.129  0.7848 -1.6129 -1.5798
 6996TIP3    H242480   6.232   1.929   2.196  0.2879 -3.0116  1.4775
 6997TIP3   OH242481   5.489   1.933   0.394  0.1504 -0.7521 -0.0376
 6997TIP3    H142482   5.477   1.860   0.333 -1.9560 -0.3242 -0.2195
 6997TIP3    H242483   5.400   1.959   0.418  0.8623  1.1453  0.7690
 6998TIP3   OH242484   6.767   1.841  11.633 -0.4418 -0.2621  0.1811
 6998TIP3    H142485   6.838   1.851  11.697  1.2309 -2.9442 -1.0752
 6998TIP3    H242486   6.797   1.892  11.557  0.5710 -1.8920 -0.5820
 6999TIP3   OH242487   1.951   1.518  14.549 -0.2798  0.1453 -0.3079
 6999TIP3    H142488   2.010   1.444  14.538  3.0528  2.5068  0.2893
 6999TIP3    H242489   1.907   1.501  14.632  1.5565 -0.4751  0.5942
 7000TIP3   OH242490   1.953   5.875  13.649  0.4247  0.3724 -0.5037
 7000TIP3    H142491   2.021   5.940  13.632  1.7130 -0.9683 -0.7906
 7000TIP3    H242492   1.913   5.859  13.564  1.3876 -0.5140 -0.8221
 7001TIP3   OH242493   6.262   5.332  14.877 -0.5206 -0.1774  0.4211
 7001TIP3    H142494   6.256   5.427  14.881  1.8147 -0.0127  1.9249
 7001TIP3    H242495   6.316   5.315  14.799 -4.0613 -0.5939 -2.1601
 7002TIP3   OH242496   3.760   2.481  15.230 -0.5771  0.0833 -0.0857
 7002TIP3    H142497   3.767   2.546  15.159 -0.9712  1.3929  1.0305
 7002TIP3    H242498   3.765   2.533  15.310  1.4377 -1.5062  0.9104
 7003TIP3   OH242499   5.023   1.369  10.934 -0.4641  0.1910 -0.1706
 7003TIP3    H142500   5.046   1.459  10.910 -1.7602 -0.0334 -2.5189
 7003TIP3    H242501   5.106   1.322  10.933  0.1426  1.2144  0.4294
 7004TIP3   OH242502   7.080   2.987  14.402 -0.1629  0.1860 -0.0405
 7004TIP3    H142503   7.157   2.984  14.345 -0.3198  1.3087 -0.3367
 7004TIP3    H242504   7.014   2.936  14.356  0.2978 -0.4997  0.0534
 7005TIP3   OH242505   1.516   3.191  10.163 -0.1266 -0.0307 -0.1964
 7005TIP3    H142506   1.534   3.230  10.249  1.0923  0.7052 -0.7531
 7005TIP3    H242507   1.501   3.098  10.181 -0.0281  0.1379  0.8165
 7006TIP3   OH242508   7.082   5.562   0.895 -0.0345 -0.1519  0.0826
 7006TIP3    H142509   7.084   5.581   0.801 -2.1681  1.0597  0.2119
 7006TIP3    H242510   7.068   5.647   0.937  1.6661 -0.5522  1.5996
 7007TIP3   OH242511   7.069   0.099   1.182 -0.6106  0.2490 -0.7238
 7007TIP3    H142512   7.014   0.142   1.247 -0.6181  0.3193 -0.7768
 7007TIP3    H242513   7.119   0.170   1.141  1.7186 -0.0483  1.3553
 7008TIP3   OH242514   3.587   4.435   1.784  0.3606  0.7496  0.0261
 7008TIP3    H142515   3.639   4.462   1.860 -0.1722  2.4735 -0.1586
 7008TIP3    H242516   3.651   4.404   1.721  0.8657 -0.1095  0.9363
 7009TIP3   OH242517   4.501   5.548  12.003 -0.3007  0.1829 -0.1171
 7009TIP3    H142518   4.474   5.456  12.006 -2.0223  0.6442 -0.1315
 7009TIP3    H242519   4.592   5.548  12.032 -0.9189 -1.2835  2.0530
 7010TIP3   OH242520   4.029   3.134   0.146  0.0561  0.2218  0.4470
 7010TIP3    H142521   4.092   3.081   0.194  1.4622 -0.9381 -2.4075
 7010TIP3    H242522   3.953   3.076   0.135 -0.5320  0.7208  1.7523
 7011TIP3   OH242523   5.650   4.876  13.902 -0.2395  0.2304 -0.4845
 7011TIP3    H142524   5.683   4.935  13.970 -1.4975  0.6058 -0.1827
 7011TIP3    H242525   5.659   4.789  13.941  0.8856  0.2676 -0.6254
 7012TIP3   OH242526   3.567   6.246   0.359  0.1028  0.2725  0.6309
 7012TIP3    H142527   3.564   6.326   0.412 -0.5695 -0.0341  1.0777
 7012TIP3    H242528   3.658   6.240   0.329  0.3040  0.8743  1.1005
 7013TIP3   OH242529   3.351   0.072  14.422  0.5674  0.4804 -0.8169
 7013TIP3    H142530   3.395   0.139  14.369  0.0894  0.2472 -1.5097
 7013TIP3    H242531   3.258   0.082  14.402  0.1054  1.7963  1.5782
 7014TIP3   OH242532   0.326   4.972  15.316  0.2770 -0.1870 -0.0318
 7014TIP3    H142533   0.357   5.062  15.319  0.5148 -0.0726 -2.9193
 7014TIP3    H242534   0.401   4.921  15.286 -0.9648 -0.5793 -2.8072
 7015TIP3   OH242535   1.644   2.440  13.399  0.3814 -0.5764  0.0134
 7015TIP3    H142536   1.644   2.455  13.305  1.1993 -1.5294 -0.1495
 7015TIP3    H242537   1.551   2.441  13.423  0.2176  1.0040 -0.5512
 7016TIP3   OH242538   0.580   4.125  13.245  0.1512 -0.4095  0.2245
 7016TIP3    H142539   0.492   4.105  13.214 -0.8152  3.5117 -0.1223
 7016TIP3    H242540   0.632   4.135  13.165 -1.1410  4.7083 -0.3578
 7017TIP3   OH242541   1.069   6.841  15.231  1.0703  0.2160 -0.0132
 7017TIP3    H142542   1.007   6.899  15.187  0.3660  1.9073  2.9230
 7017TIP3    H242543   1.040   6.753  15.207 -1.1567  1.0006 -0.4893
 7018TIP3   OH242544   2.871   1.970  10.455  0.0714  0.2482  0.1376
 7018TIP3    H142545   2.826   2.002  10.533  1.2811 -1.0630  1.4313
 7018TIP3    H242546   2.945   2.029  10.444  0.5205 -0.2023  0.6603
 7019TIP3   OH242547   6.473   5.188  12.523  0.1121  0.6199 -0.0024
 7019TIP3    H142548   6.428   5.233  12.451 -0.4100 -0.3370 -0.2939
 7019TIP3    H242549   6.511   5.110  12.482  0.7961  0.6568  0.5399
 7020TIP3   OH242550   0.331   6.679  10.026 -0.3905 -0.1671  0.2671
 7020TIP3    H142551   0.247   6.724  10.028 -1.3123 -1.8228  0.8115
 7020TIP3    H242552   0.309   6.586  10.035  1.5599 -0.5702  1.6593
 7021TIP3   OH242553   1.193   2.612  14.291 -0.1232  0.6957 -0.2291
 7021TIP3    H142554   1.199   2.638  14.383  1.1164 -1.8606  0.4925
 7021TIP3    H242555   1.275   2.642  14.252  0.8449 -1.0891  0.3531
 7022TIP3   OH242556   1.561   6.521  14.912  0.4234  0.0528 -0.0766
 7022TIP3    H142557   1.548   6.552  14.822 -2.0470  0.1523  0.2389
 7022TIP3    H242558   1.623   6.449  14.904  0.1302 -0.0458 -1.8854
 7023TIP3   OH242559   4.044   1.625  10.350 -0.2237  0.2860 -0.1434
 7023TIP3    H142560   4.032   1.651  10.442 -0.8553  2.0301 -0.6766
 7023TIP3    H242561   4.045   1.708  10.302 -0.3550 -0.6211 -1.7658
 7024TIP3   OH242562   6.208   5.904   0.915  0.0305  0.3275 -0.2684
 7024TIP3    H142563   6.193   5.876   1.005  0.8120 -0.3196 -0.3246
 7024TIP3    H242564   6.276   5.972   0.922  1.9137 -1.4340 -0.5346
 7025TIP3   OH242565   1.161   0.974   1.588 -0.0957  0.2877 -0.0171
 7025TIP3    H142566   1.077   0.973   1.542  0.9636  0.8413 -2.0963
 7025TIP3    H242567   1.176   1.066   1.609  1.4458  0.7447 -2.6680
 7026TIP3   OH242568   2.715   4.732  13.419 -0.6418 -0.2065 -0.5965
 7026TIP3    H142569   2.659   4.779  13.480 -1.1991 -0.2269 -1.0896
 7026TIP3    H242570   2.758   4.665  13.473  0.5998  1.1904  0.2424
 7027TIP3   OH242571   6.302   4.805  10.363  0.6668  0.6110 -0.3004
 7027TIP3    H142572   6.319   4.824  10.271 -0.6435  1.1060 -0.4465
 7027TIP3    H242573   6.301   4.709  10.368  2.8211  0.5278 -0.3804
 7028TIP3   OH242574   4.316   3.650  11.333  0.0848 -0.2176 -0.2237
 7028TIP3    H142575   4.304   3.564  11.292 -1.3044  0.4924 -1.3879
 7028TIP3    H242576   4.228   3.676  11.360  0.4937  0.8424  0.1225
 7029TIP3   OH242577   6.855   0.352   0.849  0.0750 -0.0996 -0.1371
 7029TIP3    H142578   6.830   0.338   0.758 -0.1610 -1.7102  0.1427
 7029TIP3    H242579   6.790   0.303   0.899  0.1411  0.8579  0.9042
 7030TIP3   OH242580   0.441   3.653  13.143  0.1772 -0.5559  0.3094
 7030TIP3    H142581   0.515   3.714  13.152 -0.7450  1.0726 -1.9355
 7030TIP3    H242582   0.464   3.599  13.068 -0.0848 -1.3560  0.7976
 7031TIP3   OH242583   6.855   1.742  10.816  0.4225 -0.2044 -0.1057
 7031TIP3    H142584   6.889   1.829  10.832  0.1112  0.0625 -0.8089
 7031TIP3    H242585   6.865   1.730  10.721 -0.0563 -0.7014 -0.0987
 7032TIP3   OH242586   4.298   1.135   3.898 -0.2100 -0.1190 -0.4339
 7032TIP3    H142587   4.246   1.157   3.821  1.3792 -0.5526 -1.6704
 7032TIP3    H242588   4.288   1.212   3.955 -0.5063  0.7079 -1.5483
 7033TIP3   OH242589   4.202   2.336  10.327  0.1844 -0.5866  0.5841
 7033TIP3    H142590   4.106   2.328  10.321  0.0108  1.5633 -0.1838
 7033TIP3    H242591   4.216   2.408  10.389  1.1978  0.9957 -1.3873
 7034TIP3   OH242592   3.928   5.187   4.971  0.1455 -0.6406 -0.7978
 7034TIP3    H142593   3.859   5.252   4.986 -0.5489 -0.7927 -2.9314
 7034TIP3    H242594   3.941   5.144   5.055  0.0502  1.6963  0.4765
 7035TIP3   OH242595   1.888   7.144  12.022  0.3454 -0.4221 -0.4273
 7035TIP3    H142596   1.860   7.056  11.998 -0.6049  0.4525 -2.8242
 7035TIP3    H242597   1.806   7.192  12.036  0.8081  0.4080 -0.4711
 7036TIP3   OH242598   4.848   3.194  10.392  0.0249  0.6934 -0.2148
 7036TIP3    H142599   4.938   3.207  10.422  0.3708 -1.8287  0.0704
 7036TIP3    H242600   4.856   3.181  10.298  0.1818 -0.9406 -0.0003
 7037TIP3   OH242601   5.859   3.286   1.032  0.1387  0.0232  0.2878
 7037TIP3    H142602   5.816   3.318   0.953 -0.8804  0.3638  0.9610
 7037TIP3    H242603   5.943   3.252   1.001 -0.3568 -0.1162 -0.9764
 7038TIP3   OH242604   0.773   2.392  12.137  0.3550  0.2261 -0.0927
 7038TIP3    H142605   0.835   2.323  12.114  0.5207 -0.0826  1.1873
 7038TIP3    H242606   0.827   2.470  12.148  0.2063  0.5087 -1.2338
 7039TIP3   OH242607   0.871   4.770   1.252 -0.1585  0.2321 -0.4884
 7039TIP3    H142608   0.884   4.748   1.345 -0.3145  0.7347 -0.3429
 7039TIP3    H242609   0.855   4.686   1.210  1.7738 -0.2291 -0.3822
 7040TIP3   OH242610   6.934   3.803  11.320  0.2330  0.4207  0.3290
 7040TIP3    H142611   7.011   3.755  11.290 -0.4913 -0.9080  0.5157
 7040TIP3    H242612   6.894   3.838  11.241  0.8570  0.8697  0.2059
 7041TIP3   OH242613   1.887   5.944  11.140  0.5831  0.5853  0.0055
 7041TIP3    H142614   1.887   5.876  11.207 -0.1728  1.4432  0.9022
 7041TIP3    H242615   1.964   5.998  11.159  1.0150  0.1684 -0.5241
 7042TIP3   OH242616   4.905   4.286   9.740 -0.0374 -0.0961 -0.3538
 7042TIP3    H142617   4.989   4.311   9.701 -0.5801  0.4684 -1.1995
 7042TIP3    H242618   4.876   4.211   9.689 -0.3514  0.1206 -0.5014
 7043TIP3   OH242619   7.205   5.381  11.535 -0.3134 -0.1836  0.3582
 7043TIP3    H142620   7.233   5.307  11.480 -1.8827  0.0042 -0.7614
 7043TIP3    H242621   7.111   5.388  11.520 -0.2736  1.8249  0.7009
 7044TIP3   OH242622   5.832   7.212  10.717  0.1884  0.7537 -0.4663
 7044TIP3    H142623   5.797   7.268  10.648  2.1545  1.1865 -1.1738
 7044TIP3    H242624   5.889   7.150  10.671  0.5311  0.2142  0.6453
 7045TIP3   OH242625   0.256   5.069   2.176  0.7495 -0.7407 -0.6248
 7045TIP3    H142626   0.284   5.024   2.096  3.2632  2.3201 -1.6942
 7045TIP3    H242627   0.334   5.115   2.205 -1.1703  1.5521  1.2561
 7046TIP3   OH242628   3.575   2.497  14.044  0.4200 -0.4117 -0.2985
 7046TIP3    H142629   3.636   2.448  14.099  1.5478 -0.1469 -1.2720
 7046TIP3    H242630   3.620   2.507  13.960 -1.0511 -0.3826 -1.1303
 7047TIP3   OH242631   1.935   1.758   0.422 -0.3536  0.1181 -0.9111
 7047TIP3    H142632   1.990   1.776   0.346  0.6570  0.0967 -0.2072
 7047TIP3    H242633   1.905   1.668   0.410  0.5359 -0.1893 -0.8386
 7048TIP3   OH242634   3.219   1.167   1.789  0.3382  0.6895 -0.1238
 7048TIP3    H142635   3.153   1.107   1.756  0.3309  0.9855 -0.6590
 7048TIP3    H242636   3.179   1.207   1.867  1.2785 -1.8268  1.7887
 7049TIP3   OH242637   5.222   5.248  13.904 -0.2985 -0.5161 -0.4196
 7049TIP3    H142638   5.137   5.229  13.864 -0.8461  0.3019  0.3249
 7049TIP3    H242639   5.206   5.244  13.998 -0.0090  1.5934 -0.2281
 7050TIP3   OH242640   6.904   4.976  13.338 -0.0068  0.1866  0.0399
 7050TIP3    H142641   6.841   4.910  13.367 -0.4616  1.5955  2.6782
 7050TIP3    H242642   6.852   5.056  13.328  0.7713  0.5268 -1.5246
 7051TIP3   OH242643   3.168   3.653  11.452  0.5937  0.9633  0.7001
 7051TIP3    H142644   3.214   3.725  11.409  1.0952  0.6868  0.7624
 7051TIP3    H242645   3.165   3.584  11.386  1.2211  0.5963  1.0438
 7052TIP3   OH242646   2.285   7.039  10.245 -0.4839  0.5835 -0.5805
 7052TIP3    H142647   2.368   7.006  10.211 -0.9161  0.0177 -1.0997
 7052TIP3    H242648   2.300   7.133  10.258 -0.1025  0.6880 -1.7023
 7053TIP3   OH242649   3.684   1.632  15.236 -0.1552 -0.0400  0.3506
 7053TIP3    H142650   3.687   1.693  15.309  1.7943  3.0747 -2.0589
 7053TIP3    H242651   3.600   1.649  15.193  0.1990  0.6936 -0.0696
 7054TIP3   OH242652   3.938   5.730  15.275 -0.4564  0.7560  0.6133
 7054TIP3    H142653   3.917   5.711  15.183  0.0634 -0.0415  0.6494
 7054TIP3    H242654   3.879   5.673  15.325  1.9509 -1.8634  0.7127
 7055TIP3   OH242655   1.252   5.956  14.352  0.1457  0.1858 -0.1355
 7055TIP3    H142656   1.192   5.984  14.421  0.2703 -1.3588  0.6645
 7055TIP3    H242657   1.269   5.864  14.372  3.3862  0.7056  0.1782
 7056TIP3   OH242658   4.293   2.541  13.489 -0.5555 -0.1702  0.0494
 7056TIP3    H142659   4.358   2.517  13.424 -0.9110  1.6873 -1.0725
 7056TIP3    H242660   4.308   2.481  13.562  2.3597  0.1159 -0.1937
 7057TIP3   OH242661   6.927   2.348   5.316 -0.2240  0.0293 -0.4452
 7057TIP3    H142662   6.944   2.436   5.351  0.2145 -0.3089  0.2210
 7057TIP3    H242663   7.013   2.318   5.286 -0.0626 -0.7846  0.7801
 7058TIP3   OH242664   3.798   3.648  11.491  0.5507 -0.1273 -0.5095
 7058TIP3    H142665   3.774   3.720  11.549  0.5527 -1.5457  1.3289
 7058TIP3    H242666   3.724   3.640  11.431 -0.9176 -0.5738  1.2548
 7059TIP3   OH242667   6.214   1.396  13.590 -0.1914  0.0289 -0.5150
 7059TIP3    H142668   6.249   1.307  13.586 -1.6263 -0.5866 -0.0238
 7059TIP3    H242669   6.269   1.440  13.654 -1.1139 -1.3227  1.3119
 7060TIP3   OH242670   4.591   5.492   1.982  0.4467  0.0541 -0.0072
 7060TIP3    H142671   4.552   5.566   1.935 -0.2820  1.7354  2.9681
 7060TIP3    H242672   4.671   5.527   2.020  1.7642 -1.6539 -1.0768
 7061TIP3   OH242673   5.460   5.431   2.293 -0.1903 -0.9403 -0.0256
 7061TIP3    H142674   5.467   5.353   2.238 -1.1833 -1.4069  0.4813
 7061TIP3    H242675   5.366   5.445   2.301 -0.0190  0.2973 -0.0843
 7062TIP3   OH242676   5.115   2.176   1.733  0.1814 -0.0648 -0.5172
 7062TIP3    H142677   5.124   2.209   1.822 -0.8039 -0.2038 -0.3573
 7062TIP3    H242678   5.205   2.165   1.702  0.5427  1.7124 -0.1911
 7063TIP3   OH242679   0.609   0.756  15.089 -0.0447  0.3049  0.2880
 7063TIP3    H142680   0.695   0.790  15.112  0.1322  0.6011 -0.7476
 7063TIP3    H242681   0.623   0.662  15.078  0.7079  0.6195 -2.1069
 7064TIP3   OH242682   3.807   3.448  11.711  0.4327 -0.5653 -0.3390
 7064TIP3    H142683   3.770   3.509  11.649  1.6675 -1.2333 -1.8077
 7064TIP3    H242684   3.733   3.398  11.745 -0.3775  0.5868 -0.3931
 7065TIP3   OH242685   4.739   6.543  14.338  0.1167  0.2985 -0.1289
 7065TIP3    H142686   4.683   6.581  14.406 -0.6292  1.4854 -1.3514
 7065TIP3    H242687   4.692   6.465  14.309 -0.2374  0.5260 -0.1809
 7066TIP3   OH242688   0.423   4.334  11.969 -0.3563 -0.1291 -0.4412
 7066TIP3    H142689   0.514   4.308  11.955  0.0897 -1.1071  3.3817
 7066TIP3    H242690   0.377   4.251  11.983 -1.6026  0.4469 -1.0014
 7067TIP3   OH242691   5.285   1.626   1.012  0.3944 -0.4533  0.2840
 7067TIP3    H142692   5.211   1.659   0.962  1.0854 -0.1609 -0.5625
 7067TIP3    H242693   5.279   1.531   1.004 -0.9606 -0.5481  1.8101
 7068TIP3   OH242694   6.062   5.658  12.217  0.0909  0.3740 -0.3638
 7068TIP3    H142695   6.144   5.673  12.264 -0.8230 -1.0267  1.8651
 7068TIP3    H242696   6.087   5.601  12.144  1.0441 -0.7144  0.7510
 7069TIP3   OH242697   5.634   0.283  10.825  0.2140 -0.2770  0.4725
 7069TIP3    H142698   5.681   0.338  10.888  1.7057 -1.7162  0.6572
 7069TIP3    H242699   5.553   0.259  10.871  0.4237  0.1999  1.1176
 7070TIP3   OH242700   5.011   0.766   2.098 -0.9317  0.1761 -0.4104
 7070TIP3    H142701   4.955   0.689   2.103  0.0536 -0.4686  3.0985
 7070TIP3    H242702   4.950   0.840   2.101 -1.8134 -0.4046 -2.5075
 7071TIP3   OH242703   6.217   4.488   2.558 -0.2929  0.2655  0.3162
 7071TIP3    H142704   6.149   4.552   2.575 -0.6774 -0.2303  0.6668
 7071TIP3    H242705   6.257   4.471   2.643  0.7155  1.0289  0.0209
 7072TIP3   OH242706   5.847   0.536   2.037 -0.3042 -0.3976 -0.0737
 7072TIP3    H142707   5.874   0.627   2.048 -1.0969 -0.0162 -1.0892
 7072TIP3    H242708   5.778   0.523   2.102  1.4797 -1.0668  1.8107
 7073TIP3   OH242709   2.191   2.489  13.530  0.4370 -0.2008 -0.0738
 7073TIP3    H142710   2.168   2.582  13.536 -0.4887 -0.3314 -1.1381
 7073TIP3    H242711   2.206   2.462  13.620  0.2770  0.8789  0.2893
 7074TIP3   OH242712   3.475   3.063   1.971 -0.0530 -0.1610 -0.0092
 7074TIP3    H142713   3.548   3.041   2.029 -0.0420 -1.4134 -0.4708
 7074TIP3    H242714   3.488   3.007   1.894 -1.1971  0.0067 -0.3377
 7075TIP3   OH242715   4.091   1.458  12.456  0.0073 -0.2544 -0.2229
 7075TIP3    H142716   4.055   1.541  12.424 -0.2467  0.3448  1.5348
 7075TIP3    H242717   4.015   1.408  12.485  0.3681  0.1568  1.5330
 7076TIP3   OH242718   2.767   6.684  11.280 -0.0242 -0.4182  0.0371
 7076TIP3    H142719   2.778   6.590  11.268  0.3677 -0.1010 -2.7441
 7076TIP3    H242720   2.673   6.696  11.294 -0.1588 -1.1838 -0.1748
 7077TIP3   OH242721   2.438   4.079  13.386 -0.1113 -0.0578 -0.0196
 7077TIP3    H142722   2.379   4.140  13.431 -0.6574  1.1816 -2.2273
 7077TIP3    H242723   2.526   4.108  13.411 -0.3298 -1.6169  2.9179
 7078TIP3   OH242724   2.923   6.529   3.551  0.3747 -0.2369  0.5793
 7078TIP3    H142725   2.854   6.575   3.599 -2.1608 -1.2734 -1.7686
 7078TIP3    H242726   2.969   6.598   3.504 -0.2587  0.3401  0.7822
 7079TIP3   OH242727   6.969   6.043  10.377 -0.2130  0.5122 -0.0666
 7079TIP3    H142728   7.057   6.067  10.346 -0.4064 -0.6535 -1.6125
 7079TIP3    H242729   6.973   5.948  10.387 -0.5807  0.6783  2.3238
 7080TIP3   OH242730   4.640   5.752  14.067 -0.5125 -0.3368 -0.2301
 7080TIP3    H142731   4.648   5.821  14.134  0.3870 -0.8269  0.1867
 7080TIP3    H242732   4.572   5.694  14.101 -0.2619 -0.4256  0.1413
 7081TIP3   OH242733   0.802   4.485   2.471 -0.1474 -0.2986  0.4720
 7081TIP3    H142734   0.716   4.522   2.452 -0.2098 -0.7767 -0.2203
 7081TIP3    H242735   0.797   4.457   2.563 -0.2267  1.0319  0.8900
 7082TIP3   OH242736   2.185   4.731   4.312 -0.2220 -0.6499  0.5079
 7082TIP3    H142737   2.194   4.799   4.379 -2.7577 -0.2228  0.4988
 7082TIP3    H242738   2.220   4.771   4.233 -2.5834  1.1594  0.2487
 7083TIP3   OH242739   2.234   3.741  12.569 -0.0432 -0.0096 -0.4560
 7083TIP3    H142740   2.193   3.758  12.484 -1.3284  0.4054  0.2160
 7083TIP3    H242741   2.260   3.828  12.601 -1.3368  0.0805  0.4158
 7084TIP3   OH242742   7.010   5.298   2.406 -0.3134  1.7479  0.0988
 7084TIP3    H142743   6.978   5.348   2.481  0.3433  2.0018  0.2177
 7084TIP3    H242744   7.095   5.265   2.434 -1.7217 -1.5874  1.0031
 7085TIP3   OH242745   5.226   1.049   1.390 -0.0338  0.6315  0.2564
 7085TIP3    H142746   5.306   1.090   1.424  1.3905 -1.7203  0.0315
 7085TIP3    H242747   5.179   1.018   1.467 -0.8107  2.0748  0.3930
 7086TIP3   OH242748   5.607   5.241   4.396 -0.2582 -0.3027  0.5628
 7086TIP3    H142749   5.643   5.172   4.340 -1.0648 -0.4528  0.2178
 7086TIP3    H242750   5.522   5.262   4.357 -0.1623  0.6607  0.8527
 7087TIP3   OH242751   6.872   0.703   4.972  0.1623 -0.1652 -0.6572
 7087TIP3    H142752   6.918   0.776   4.931 -1.9186  1.4305 -0.3199
 7087TIP3    H242753   6.783   0.736   4.988  0.3064 -1.2140  3.5324
 7088TIP3   OH242754   0.092   5.607  14.235 -0.0413 -0.1824 -0.2887
 7088TIP3    H142755   0.001   5.605  14.264  0.0884  1.5965  0.3982
 7088TIP3    H242756   0.131   5.528  14.272 -0.5671  0.6019  2.1409
 7089TIP3   OH242757   2.018   5.452  15.407 -0.1215  0.2708  0.0828
 7089TIP3    H142758   2.049   5.542  15.405  0.8832 -0.0570 -1.6211
 7089TIP3    H242759   1.937   5.453  15.356  0.0152  0.1737 -0.1379
 7090TIP3   OH242760   4.462   2.811   3.006 -0.0607 -0.0360 -0.5772
 7090TIP3    H142761   4.446   2.887   3.061  1.0359  0.6120 -1.1156
 7090TIP3    H242762   4.386   2.755   3.020 -2.7487  2.6764 -2.8183
 7091TIP3   OH242763   2.290   1.536   9.648 -0.3607  0.7138 -0.7007
 7091TIP3    H142764   2.351   1.467   9.621 -1.9672 -1.1481  0.2002
 7091TIP3    H242765   2.310   1.610   9.590  1.0714 -0.6734 -2.0706
 7092TIP3   OH242766   4.158   4.266  11.242  0.5967  0.3372  0.7786
 7092TIP3    H142767   4.206   4.319  11.179 -0.0903 -1.1140 -1.0694
 7092TIP3    H242768   4.075   4.246  11.199  0.6419 -1.8241  1.5591
 7093TIP3   OH242769   1.148   6.359  14.119  0.0305 -0.4084 -0.3418
 7093TIP3    H142770   1.115   6.388  14.034  0.4105  1.7061  0.1772
 7093TIP3    H242771   1.082   6.299  14.152 -1.8144  1.3407 -0.6831
 7094TIP3   OH242772   1.921   1.359  14.145 -0.1206 -0.2156 -0.2495
 7094TIP3    H142773   1.987   1.327  14.083 -0.6928 -1.5153 -0.2201
 7094TIP3    H242774   1.958   1.340  14.231 -0.6204 -1.2072 -0.2331
 7095TIP3   OH242775   4.271   1.432  10.332 -0.0019 -0.2412 -0.3842
 7095TIP3    H142776   4.292   1.480  10.412 -1.0732 -1.3432  0.5882
 7095TIP3    H242777   4.256   1.501  10.267  1.8128  0.6637  0.0666
 7096TIP3   OH242778   6.740   4.758  13.445  0.2645  0.1518  0.1644
 7096TIP3    H142779   6.659   4.735  13.399  0.3870 -1.0787  0.5307
 7096TIP3    H242780   6.782   4.674  13.464  1.8398  0.7654 -0.3697
 7097TIP3   OH242781   3.415   4.944  13.141  0.1748  0.0871 -0.1079
 7097TIP3    H142782   3.483   4.893  13.184  0.7556  1.8762  1.2211
 7097TIP3    H242783   3.453   4.968  13.056  1.3479  1.2612  0.7158
 7098TIP3   OH242784   4.126   2.940  14.767  0.0725 -0.2522  0.4221
 7098TIP3    H142785   4.126   3.028  14.730 -1.2960 -0.0657  0.8252
 7098TIP3    H242786   4.057   2.894  14.719  0.3471 -0.9202  0.6534
 7099TIP3   OH242787   5.734   1.322  10.357 -0.4359  0.0973 -0.3263
 7099TIP3    H142788   5.802   1.387  10.337 -0.4919 -0.1763 -1.4479
 7099TIP3    H242789   5.778   1.260  10.416 -0.2657  0.9150  0.4300
 7100TIP3   OH242790   5.003   5.828  12.219 -0.4349  0.1509  0.5156
 7100TIP3    H142791   5.026   5.811  12.311  0.1008 -1.4448  0.1247
 7100TIP3    H242792   5.025   5.747  12.174 -1.0343  0.7845 -0.9776
 7101TIP3   OH242793   3.810   5.803  12.449 -0.3942 -0.3625  0.2816
 7101TIP3    H142794   3.856   5.725  12.479  1.5049  1.1873  1.7023
 7101TIP3    H242795   3.722   5.794  12.486 -0.1880 -1.7597  0.5019
 7102TIP3   OH242796   1.615   0.298  13.004 -0.4662 -0.2263  0.7137
 7102TIP3    H142797   1.555   0.315  13.077 -1.4316  2.0234 -0.5191
 7102TIP3    H242798   1.699   0.282  13.046 -1.0495  0.7086  2.3301
 7103TIP3   OH242799   6.422   3.405  10.610  0.0414 -0.7214 -0.2807
 7103TIP3    H142800   6.361   3.432  10.679 -0.4602 -1.9288 -0.2286
 7103TIP3    H242801   6.469   3.331  10.647 -0.2191 -1.3692 -1.2197
 7104TIP3   OH242802   0.278   7.002   4.564  0.7838  0.4063  0.5952
 7104TIP3    H142803   0.270   7.070   4.631 -3.5584 -0.3379  1.1362
 7104TIP3    H242804   0.203   7.016   4.507  0.7652 -2.7984 -0.3372
 7105TIP3   OH242805   5.280   0.047  11.910 -0.0091 -0.1233  0.1647
 7105TIP3    H142806   5.260   0.126  11.860 -0.3553 -0.2627  0.0747
 7105TIP3    H242807   5.370   0.058  11.939 -0.5152  1.0096  1.4479
 7106TIP3   OH242808   3.024   1.659   4.537 -0.3991 -0.8011  0.1834
 7106TIP3    H142809   3.118   1.649   4.555  0.0696  1.4372 -0.7234
 7106TIP3    H242810   2.992   1.716   4.607 -0.7176 -0.2194 -0.4276
 7107TIP3   OH242811   0.556   2.739   2.238  0.7421 -0.1793  0.2459
 7107TIP3    H142812   0.618   2.732   2.166 -2.4693  0.0834 -2.8474
 7107TIP3    H242813   0.509   2.656   2.238  0.7693 -0.2479  2.2418
 7108TIP3   OH242814   3.442   6.827   1.876  0.2611  0.0133  0.0130
 7108TIP3    H142815   3.449   6.762   1.946  0.7564  0.4663  0.3945
 7108TIP3    H242816   3.348   6.837   1.862  0.1446  0.1291  0.8180
 7109TIP3   OH242817   4.117   6.316  10.116 -0.0149  0.1978  0.9532
 7109TIP3    H142818   4.145   6.351  10.032  0.4312  0.4369  1.1979
 7109TIP3    H242819   4.056   6.245  10.094  1.4191 -0.8933  0.3749
 7110TIP3   OH242820   1.571   3.914  12.937 -0.2660 -0.0346 -0.1339
 7110TIP3    H142821   1.555   3.823  12.959 -0.1352  0.0515  0.3386
 7110TIP3    H242822   1.657   3.933  12.973  0.0588  0.0523 -0.9418
 7111TIP3   OH242823   4.835   5.038   1.779 -0.3222  0.1298  0.3875
 7111TIP3    H142824   4.751   5.007   1.811  0.3522 -1.4768  0.6957
 7111TIP3    H242825   4.866   5.099   1.846 -0.4346 -0.6423  1.1478
 7112TIP3   OH242826   5.601   1.852  12.397 -0.1277  0.5780 -0.7503
 7112TIP3    H142827   5.594   1.941  12.430  0.2300  0.6093 -0.7495
 7112TIP3    H242828   5.578   1.858  12.305 -2.5294  0.2575 -0.2373
 7113TIP3   OH242829   4.867   4.277   3.206  0.0794 -0.2502 -0.2242
 7113TIP3    H142830   4.915   4.228   3.139 -0.4195 -0.0679 -0.7228
 7113TIP3    H242831   4.871   4.221   3.284  0.2751 -0.6728 -0.5329
 7114TIP3   OH242832   1.099   4.123  13.839  0.6070  0.4626  0.1184
 7114TIP3    H142833   1.093   4.066  13.916  0.6228  1.1262  0.6172
 7114TIP3    H242834   1.031   4.090  13.780  0.7818 -0.2289  0.2984
 7115TIP3   OH242835   3.738   1.440   0.974 -0.1959 -0.3148 -0.1150
 7115TIP3    H142836   3.796   1.515   0.960 -1.7485  0.8105 -0.8680
 7115TIP3    H242837   3.789   1.364   0.946  1.0509  0.5710 -0.3298
 7116TIP3   OH242838   6.803   4.128  14.578  0.3518  0.4346  0.4845
 7116TIP3    H142839   6.878   4.072  14.598 -0.4373 -0.3891  1.2291
 7116TIP3    H242840   6.755   4.079  14.510  0.9808  1.4143 -0.7061
 7117TIP3   OH242841   0.346   0.549   1.006  0.8451 -0.4679 -0.1054
 7117TIP3    H142842   0.250   0.559   1.010  0.9964  1.0975  0.4280
 7117TIP3    H242843   0.360   0.454   1.005 -0.7741 -0.7787 -2.7826
 7118TIP3   OH242844   6.876   2.613  11.136  0.1145 -0.4079 -0.2466
 7118TIP3    H142845   6.902   2.557  11.210 -2.4798 -0.2272  0.8889
 7118TIP3    H242846   6.799   2.661  11.167  0.5502  1.7208 -2.1724
 7119TIP3   OH242847   5.778   1.169  14.991  0.0124  0.2486  0.3519
 7119TIP3    H142848   5.816   1.255  14.975  0.9593  0.1272  1.7706
 7119TIP3    H242849   5.828   1.109  14.937  0.2545  0.4121  0.3954
 7120TIP3   OH242850   1.284   1.115   3.002 -0.0528 -0.2054 -0.1299
 7120TIP3    H142851   1.309   1.034   2.957 -0.8121  1.1125 -3.1779
 7120TIP3    H242852   1.367   1.157   3.022  0.3399 -1.4656  1.1070
 7121TIP3   OH242853   3.649   0.526   2.114 -0.2745 -0.7016 -0.5034
 7121TIP3    H142854   3.662   0.621   2.120 -0.6532 -0.6011 -1.1593
 7121TIP3    H242855   3.712   0.489   2.176 -1.3005  0.0557  1.0649
 7122TIP3   OH242856   5.014   6.119   1.470  0.0697  0.1283  0.2876
 7122TIP3    H142857   4.926   6.081   1.475  0.5483 -0.8467  2.0081
 7122TIP3    H242858   5.001   6.202   1.424 -1.5989 -0.4077 -0.2888
 7123TIP3   OH242859   0.358   0.029  12.188 -0.7325  0.5911 -0.7864
 7123TIP3    H142860   0.406  -0.036  12.239 -1.6894 -0.8426 -1.6661
 7123TIP3    H242861   0.363   0.109  12.241 -0.0191 -0.3262  0.5904
 7124TIP3   OH242862   5.034   2.508  12.163 -0.9160  0.2497 -0.1424
 7124TIP3    H142863   4.984   2.435  12.198  0.3546 -0.0265  1.2326
 7124TIP3    H242864   5.116   2.468  12.133 -0.2686  1.0680  0.4897
 7125TIP3   OH242865   4.822   2.776   0.867  0.0898 -0.3611 -0.1526
 7125TIP3    H142866   4.874   2.840   0.819  0.4568 -0.9678 -0.5928
 7125TIP3    H242867   4.886   2.710   0.896 -0.1691 -0.1787  0.8964
 7126TIP3   OH242868   3.105   0.314  13.547  0.3915 -0.0355  0.0094
 7126TIP3    H142869   3.115   0.370  13.470 -0.3214 -0.3734 -0.3395
 7126TIP3    H242870   3.085   0.376  13.618 -0.3664  0.1742 -0.3688
 7127TIP3   OH242871   5.393   0.480   2.142  0.1308  0.3401  0.3753
 7127TIP3    H142872   5.321   0.417   2.144  1.5874 -1.4003  1.5650
 7127TIP3    H242873   5.414   0.490   2.050 -2.4732  2.0011 -0.1482
 7128TIP3   OH242874   2.449   5.762  14.167  0.6760  0.1637  0.6121
 7128TIP3    H142875   2.419   5.753  14.257  1.2112 -2.3297  0.6260
 7128TIP3    H242876   2.369   5.756  14.114  0.4653  0.6222  0.8731
 7129TIP3   OH242877   0.736   6.686  15.347 -0.6779 -0.2990  0.3709
 7129TIP3    H142878   0.733   6.775  15.310  2.5019 -1.0546 -2.1574
 7129TIP3    H242879   0.665   6.640  15.302  0.6372 -0.1602 -2.0249
 7130TIP3   OH242880   6.230   5.774   1.646 -0.3075  0.8718  0.1140
 7130TIP3    H142881   6.184   5.818   1.717 -0.7596  0.6599 -0.0468
 7130TIP3    H242882   6.165   5.765   1.577 -0.6985 -1.4090  0.6922
 7131TIP3   OH242883   2.998   1.778  11.645  0.0577  0.2816 -0.4629
 7131TIP3    H142884   2.924   1.726  11.613  0.3810 -0.7178  0.3624
 7131TIP3    H242885   3.017   1.839  11.573 -0.7794 -0.2574 -1.1676
 7132TIP3   OH242886   0.296   1.798  10.851 -0.1850  0.2635 -0.3307
 7132TIP3    H142887   0.240   1.808  10.928  0.5307  0.7347  0.1491
 7132TIP3    H242888   0.239   1.813  10.776 -0.4434  2.0663  0.1758
 7133TIP3   OH242889   6.103   0.975  14.202 -0.1932  0.6206 -0.1371
 7133TIP3    H142890   6.086   0.981  14.296  0.8696  0.5343  0.0728
 7133TIP3    H242891   6.150   0.892  14.192 -1.0957  0.1750 -0.8846
 7134TIP3   OH242892   2.920   0.922  14.300 -0.0453 -0.2547 -0.3004
 7134TIP3    H142893   2.896   1.001  14.253 -1.9643 -0.7388 -0.2108
 7134TIP3    H242894   3.002   0.945  14.345 -0.7444  1.7879  0.0378
 7135TIP3   OH242895   1.658   3.848  12.627  0.1860 -0.2266 -0.7339
 7135TIP3    H142896   1.611   3.898  12.694  2.1706 -0.5574  1.0198
 7135TIP3    H242897   1.654   3.757  12.657  1.8187 -0.2710 -0.5638
 7136TIP3   OH242898   1.511   2.310   2.602 -0.0573  0.2156  0.6825
 7136TIP3    H142899   1.427   2.273   2.628  0.7889 -2.5127 -0.1095
 7136TIP3    H242900   1.489   2.388   2.552 -2.0165  0.4752  1.8670
 7137TIP3   OH242901   0.840   6.495   1.033 -0.2097 -0.0469 -0.1405
 7137TIP3    H142902   0.801   6.562   1.089  1.0167  0.5611  0.0154
 7137TIP3    H242903   0.894   6.443   1.091  0.0027 -0.2597 -0.5235
 7138TIP3   OH242904   7.076   2.321  14.258  0.7704 -0.0432  0.1361
 7138TIP3    H142905   7.142   2.375  14.213  0.0379 -0.6872 -1.7870
 7138TIP3    H242906   7.059   2.249  14.198 -1.7491  0.1296  0.5438
 7139TIP3   OH242907   4.228   3.869  11.566  0.5573 -0.3079  0.1917
 7139TIP3    H142908   4.152   3.878  11.508 -0.1294  1.0054  1.2464
 7139TIP3    H242909   4.304   3.876  11.507 -0.1243 -0.6808 -0.7476
 7140TIP3   OH242910   5.731   5.452  14.398  0.5025 -0.4535 -0.0634
 7140TIP3    H142911   5.727   5.547  14.390 -2.5637 -0.4453  0.1843
 7140TIP3    H242912   5.728   5.420  14.307  1.2704 -0.3349 -0.1355
 7141TIP3   OH242913   2.303   6.511   3.743  0.3204  0.3722 -0.8935
 7141TIP3    H142914   2.380   6.455   3.750 -0.2024 -0.2901 -0.2715
 7141TIP3    H242915   2.250   6.471   3.674  0.8413  1.2284 -1.8182
 7142TIP3   OH242916   6.831   1.958  15.241  0.6204  0.7858  0.4211
 7142TIP3    H142917   6.845   1.987  15.151  0.3717  3.9912  1.2851
 7142TIP3    H242918   6.736   1.945  15.248  0.8506 -1.9796 -0.3431
 7143TIP3   OH242919   4.900   4.478  14.971 -0.5717  0.3025 -0.2594
 7143TIP3    H142920   4.816   4.515  14.947 -0.3004 -0.3372 -2.3418
 7143TIP3    H242921   4.959   4.502  14.899  0.3734 -1.4577 -0.1188
 7144TIP3   OH242922   2.684   4.153  12.176  0.7673  0.5714 -0.1501
 7144TIP3    H142923   2.678   4.245  12.149 -0.4342  1.3381  2.4624
 7144TIP3    H242924   2.634   4.148  12.257  1.0944 -2.3515 -0.0181
 7145TIP3   OH242925   6.973   3.057  11.331  0.5472  0.0560  0.1567
 7145TIP3    H142926   7.026   2.995  11.281 -0.1559 -0.5652  0.1622
 7145TIP3    H242927   6.938   3.117  11.266  1.1052  0.3536  0.1311
 7146TIP3   OH242928   4.235   6.389   1.280  0.0106  0.3897  0.2111
 7146TIP3    H142929   4.170   6.357   1.218 -0.1752  2.3672 -0.7036
 7146TIP3    H242930   4.186   6.446   1.339  0.7448  1.2643  0.0066
 7147TIP3   OH242931   5.231   4.285  12.506  0.5155  0.2763  0.1660
 7147TIP3    H142932   5.285   4.251  12.435 -1.3034  0.8213 -1.5800
 7147TIP3    H242933   5.278   4.362  12.538  1.0026  0.4705 -0.9691
 7148TIP3   OH242934   5.592   5.547   0.929  0.0988  0.3336 -0.2055
 7148TIP3    H142935   5.547   5.551   1.013  1.6066 -1.8617  0.8009
 7148TIP3    H242936   5.550   5.474   0.883 -1.3280  2.0761 -1.8125
 7149TIP3   OH242937   6.942   2.588   0.074 -0.0149  0.3462  0.4580
 7149TIP3    H142938   6.918   2.675   0.042  1.1347  1.1838  1.7356
 7149TIP3    H242939   6.946   2.598   0.169  2.2391 -0.4931  0.5237
 7150TIP3   OH242940   2.235   6.621  13.992  0.1605 -0.3265 -0.7547
 7150TIP3    H142941   2.192   6.569  13.925 -0.5446  0.3598 -0.8440
 7150TIP3    H242942   2.274   6.556  14.051  1.0907 -0.9317 -1.9923
 7151TIP3   OH242943   6.557   2.803   0.429  0.0752 -0.0096 -0.2717
 7151TIP3    H142944   6.571   2.816   0.523  0.5345 -0.8795 -0.2104
 7151TIP3    H242945   6.462   2.812   0.417 -0.2438 -1.7733  0.5959
 7152TIP3   OH242946   4.264   4.940   4.617 -0.0471 -0.1784 -0.1741
 7152TIP3    H142947   4.252   4.993   4.695 -1.7167  0.3100 -0.7199
 7152TIP3    H242948   4.252   4.850   4.646  0.5034 -0.0928  0.3311
 7153TIP3   OH242949   3.183   4.776   1.030 -0.1097  0.5551  0.3963
 7153TIP3    H142950   3.186   4.838   1.102  0.6508  1.7484 -0.6186
 7153TIP3    H242951   3.170   4.691   1.072 -0.2769  1.2838  1.8805
 7154TIP3   OH242952   3.803   5.392  11.818  0.0787 -1.3333 -0.3140
 7154TIP3    H142953   3.735   5.459  11.808 -0.5142 -1.6118  1.4516
 7154TIP3    H242954   3.870   5.434  11.873  0.8636 -1.4108 -1.1822
 7155TIP3   OH242955   1.128   0.540   1.404 -0.7885  0.1893 -0.3320
 7155TIP3    H142956   1.190   0.609   1.428 -2.5450  1.0314  2.3135
 7155TIP3    H242957   1.138   0.474   1.473 -1.1856 -0.7727 -1.1820
 7156TIP3   OH242958   6.388   3.141  14.509  0.3237 -0.6125 -0.0870
 7156TIP3    H142959   6.379   3.235  14.495 -1.3432 -0.4916  1.4089
 7156TIP3    H242960   6.447   3.111  14.440  0.2794  1.3955 -1.0455
 7157TIP3   OH242961   1.230   7.081  11.133  0.1087  0.1658  0.0116
 7157TIP3    H142962   1.302   7.091  11.070 -0.1827 -0.7807 -0.4998
 7157TIP3    H242963   1.185   7.165  11.132  1.1785  0.7553  0.3057
 7158TIP3   OH242964   5.979   3.098  14.895 -0.3973 -0.1926 -0.6267
 7158TIP3    H142965   6.028   3.128  14.972  0.4812 -2.4534 -0.2178
 7158TIP3    H242966   6.020   3.144  14.822 -0.1162  0.7281  0.0798
 7159TIP3   OH242967   1.977   6.150  12.257 -0.5986  0.1192 -0.2011
 7159TIP3    H142968   2.066   6.181  12.239  0.2401 -2.2774 -0.5677
 7159TIP3    H242969   1.928   6.229  12.278  1.0047  1.8416 -2.4175
 7160TIP3   OH242970   1.196   5.048  12.587 -0.0617 -0.4204 -0.5936
 7160TIP3    H142971   1.236   5.023  12.670  0.7038  1.7146 -0.2571
 7160TIP3    H242972   1.107   5.073  12.610  0.6078  1.6993 -0.0647
 7161TIP3   OH242973   5.426   2.865   0.775 -0.0629  0.3657  0.5624
 7161TIP3    H142974   5.461   2.896   0.859  0.4937  2.7468 -0.4683
 7161TIP3    H242975   5.401   2.945   0.729  0.5490 -0.7988 -1.9425
 7162TIP3   OH242976   2.610   0.536  13.927  0.1349  0.2614  0.0839
 7162TIP3    H142977   2.662   0.505  14.002 -0.4808  1.4012  1.0159
 7162TIP3    H242978   2.636   0.627  13.916  1.0564 -0.1887 -1.8675
 7163TIP3   OH242979   2.895   5.235   1.711  0.8286 -0.4571 -0.3647
 7163TIP3    H142980   2.850   5.308   1.669  0.5171 -0.5738 -0.2355
 7163TIP3    H242981   2.826   5.170   1.727  0.7181  0.0331  1.3460
 7164TIP3   OH242982   2.853   4.954   0.883 -0.3574  0.4402  0.1801
 7164TIP3    H142983   2.900   5.011   0.944  2.3939  1.0407 -2.2649
 7164TIP3    H242984   2.922   4.902   0.840 -2.4406 -2.2483 -0.1997
 7165TIP3   OH242985   6.014   0.994   0.190  0.1116  0.4009 -0.2929
 7165TIP3    H142986   5.924   0.998   0.224  0.2835 -1.2664  0.4624
 7165TIP3    H242987   6.023   0.904   0.157  0.8674  1.1443 -2.2453
 7166TIP3   OH242988   2.522   5.083  13.463  0.0800 -0.1137 -0.0238
 7166TIP3    H142989   2.524   5.054  13.372  0.8645  0.1168 -0.0871
 7166TIP3    H242990   2.435   5.059  13.493 -0.2272 -0.0927 -0.8637
 7167TIP3   OH242991   5.445   5.686  12.290  0.0842  0.1673  0.1324
 7167TIP3    H142992   5.474   5.595  12.282 -0.8940 -0.1119 -0.3652
 7167TIP3    H242993   5.388   5.686  12.367  1.2501  0.6856  1.0251
 7168TIP3   OH242994   3.799   1.761  12.868 -0.4130 -0.0987 -0.0411
 7168TIP3    H142995   3.783   1.850  12.899 -0.1921 -1.0590  3.2955
 7168TIP3    H242996   3.790   1.766  12.773 -1.2606  3.2684  0.0890
 7169TIP3   OH242997   5.790   3.117   9.912 -0.2512  0.3419  0.0905
 7169TIP3    H142998   5.816   3.164   9.992 -1.7107  2.6142 -0.6651
 7169TIP3    H242999   5.854   3.143   9.847 -0.9750  1.2221 -0.2917
 7170TIP3   OH243000   6.394   6.279  12.196 -0.3436 -0.2578 -0.0856
 7170TIP3    H143001   6.411   6.334  12.120 -0.1012  0.8252  0.7245
 7170TIP3    H243002   6.299   6.262  12.193 -0.4118  0.1694 -0.3636
 7171TIP3   OH243003   3.666   4.124   1.090 -0.2837 -0.0922 -0.0910
 7171TIP3    H143004   3.722   4.164   1.156 -0.8537  2.9152 -1.2261
 7171TIP3    H243005   3.577   4.153   1.114 -0.8703 -1.4103 -0.5667
 7172TIP3   OH243006   2.727   3.403  12.061 -0.6221 -0.0460 -0.6003
 7172TIP3    H143007   2.783   3.334  12.097  0.4719 -1.0995 -3.8582
 7172TIP3    H243008   2.783   3.481  12.060 -0.8862  0.1608  0.5337
 7173TIP3   OH243009   3.611   1.523   1.675 -0.6972  0.4083 -0.9395
 7173TIP3    H143010   3.649   1.445   1.716  1.3124  1.8943  0.1812
 7173TIP3    H243011   3.588   1.580   1.748 -1.0174  1.3683 -1.7731
 7174TIP3   OH243012   0.198   1.176  10.344  0.1126 -0.1822  0.9346
 7174TIP3    H143013   0.185   1.115  10.271  0.3096  0.9036 -0.0365
 7174TIP3    H243014   0.239   1.122  10.412  2.5915 -0.6790 -0.7693
 7175TIP3   OH243015   7.155   0.479   0.595 -0.2760  0.1248 -0.4468
 7175TIP3    H143016   7.146   0.574   0.601  1.7281  0.3355 -0.0652
 7175TIP3    H243017   7.232   0.466   0.539 -1.3856 -1.3216 -1.7129
 7176TIP3   OH243018   3.121   3.282  13.818 -0.0442  0.2537  0.1048
 7176TIP3    H143019   3.047   3.224  13.835 -0.6765  0.8369 -0.6122
 7176TIP3    H243020   3.181   3.266  13.891  0.1518 -1.8568 -0.4520
 7177TIP3   OH243021   2.118   0.380   1.400 -0.0527 -0.6513  0.1175
 7177TIP3    H143022   2.031   0.420   1.405  1.8341  3.8673  1.1805
 7177TIP3    H243023   2.130   0.338   1.485 -0.3874  0.7466  0.8899
 7178TIP3   OH243024   0.718   3.308  10.912  0.1615 -0.1625 -0.0021
 7178TIP3    H143025   0.711   3.244  10.983 -0.9720 -1.4457 -1.2224
 7178TIP3    H243026   0.812   3.314  10.893  0.4380 -0.1196  1.2893
 7179TIP3   OH243027   5.075   5.778  13.760  0.5664  0.1425 -0.1474
 7179TIP3    H143028   5.145   5.765  13.695  0.6353 -0.5297  0.0542
 7179TIP3    H243029   5.045   5.690  13.781  0.5744  0.3495  0.7689
 7180TIP3   OH243030   2.298   1.479  14.789  0.2473 -0.3479  0.3553
 7180TIP3    H143031   2.212   1.444  14.808  0.2210 -0.4892 -0.0196
 7180TIP3    H243032   2.340   1.489  14.875  0.7576 -2.5638  0.4241
 7181TIP3   OH243033   4.250   4.640  12.945  0.1860 -0.0329  0.0030
 7181TIP3    H143034   4.331   4.652  12.895 -0.1028 -0.7040 -0.6397
 7181TIP3    H243035   4.190   4.705  12.909  0.5983  0.8666  0.8762
 7182TIP3   OH243036   3.534   1.988  14.310 -0.2346  0.0942 -0.4799
 7182TIP3    H143037   3.472   1.916  14.312  0.5770 -0.6231 -0.6120
 7182TIP3    H243038   3.535   2.016  14.218  1.6996 -1.7692 -1.1153
 7183TIP3   OH243039   7.152   3.681  11.219 -0.0192  0.2124 -0.2512
 7183TIP3    H143040   7.202   3.753  11.180  1.0586  0.0979  0.8682
 7183TIP3    H243041   7.210   3.644  11.285  0.1647 -2.8263 -1.9388
 7184TIP3   OH243042   2.993   4.890  10.307  0.0045  0.0750 -0.1295
 7184TIP3    H143043   3.081   4.903  10.271 -0.4780  0.0422 -1.3709
 7184TIP3    H243044   2.969   4.975  10.342 -0.5115  0.8542 -2.2229
 7185TIP3   OH243045   1.925   1.344   0.720 -0.3781 -0.5264 -0.5678
 7185TIP3    H143046   1.902   1.255   0.744 -1.0150 -0.0071  0.8618
 7185TIP3    H243047   1.942   1.388   0.803 -2.6097  1.3496 -0.9783
 7186TIP3   OH243048   4.336   1.420  15.312  0.1040 -0.0868  0.1423
 7186TIP3    H143049   4.389   1.345  15.286  0.6005 -0.5469  2.3217
 7186TIP3    H243050   4.250   1.383  15.332 -0.3033  0.2755 -0.8789
 7187TIP3   OH243051   5.347   3.377  12.808 -0.1175 -0.2981 -0.3828
 7187TIP3    H143052   5.299   3.406  12.730  0.4511 -0.5837 -0.8455
 7187TIP3    H243053   5.390   3.456  12.841 -1.7934  0.2179  0.7051
 7188TIP3   OH243054   3.130   6.013   9.810 -0.0237 -0.5679 -0.1286
 7188TIP3    H143055   3.043   6.041   9.783  0.3355  0.7587  0.0225
 7188TIP3    H243056   3.158   6.078   9.874  1.1371 -0.8883 -0.2745
 7189TIP3   OH243057   5.438   0.112  11.024  0.5881 -0.0431  0.0580
 7189TIP3    H143058   5.489   0.060  11.085 -0.5687 -1.9979 -0.5389
 7189TIP3    H243059   5.351   0.117  11.063  0.5286  0.9830 -0.1744
 7190TIP3   OH243060   0.860   4.832  13.520 -0.0369 -0.1337  0.1283
 7190TIP3    H143061   0.800   4.773  13.475 -0.3765  0.0317  0.3580
 7190TIP3    H243062   0.916   4.775  13.572  1.8192 -0.5185 -2.1472
 7191TIP3   OH243063   0.284   6.552  10.296  0.7719  0.1668 -0.6739
 7191TIP3    H143064   0.259   6.515  10.211  1.4070  0.6912 -1.0946
 7191TIP3    H243065   0.324   6.478  10.343 -0.1291 -0.2833 -0.5737
 7192TIP3   OH243066   3.094   6.474  13.418  0.1460 -0.3226 -0.1973
 7192TIP3    H143067   3.132   6.537  13.357 -0.5856  0.7244  0.4007
 7192TIP3    H243068   3.001   6.476  13.400 -0.0885  0.0149  0.9506
 7193TIP3   OH243069   0.989   1.354  10.066  0.0018  0.5880 -0.6713
 7193TIP3    H143070   0.907   1.326  10.108  1.1685 -0.7073  0.8405
 7193TIP3    H243071   0.978   1.448  10.054 -1.5601  0.5081 -0.1914
 7194TIP3   OH243072   4.552   7.118   2.244 -0.2029 -0.5539 -0.2701
 7194TIP3    H143073   4.511   7.193   2.201 -0.2569 -0.7278 -0.5218
 7194TIP3    H243074   4.478   7.059   2.262 -0.2491 -0.2789  0.4784
 7195TIP3   OH243075   1.214   1.220  11.545 -0.1252 -0.3554  0.9315
 7195TIP3    H143076   1.196   1.230  11.638  1.1310  0.2605  1.1204
 7195TIP3    H243077   1.271   1.293  11.523  0.2163 -0.9170 -0.1483
 7196TIP3   OH243078   0.792   1.112   1.052 -0.7724  0.0623 -0.2608
 7196TIP3    H143079   0.697   1.112   1.066 -0.8385 -0.5345 -0.6402
 7196TIP3    H243080   0.829   1.075   1.132 -1.0243 -1.7253 -0.9205
 7197TIP3   OH243081   2.716   5.949  10.471 -0.3305  0.3239 -0.3602
 7197TIP3    H143082   2.649   5.977  10.408 -1.4893  0.7709  0.9883
 7197TIP3    H243083   2.737   6.028  10.520  1.1628  0.1660 -0.6985
 7198TIP3   OH243084   4.076   4.370   0.177  0.1941  0.0532 -0.2730
 7198TIP3    H143085   4.102   4.373   0.085 -0.5188 -1.4837 -0.5607
 7198TIP3    H243086   4.052   4.279   0.192 -0.1930  0.3835  1.3070
 7199TIP3   OH243087   1.674   6.355   0.705  0.6910 -0.8315 -0.0436
 7199TIP3    H143088   1.581   6.351   0.727  1.0077 -0.1215  1.6304
 7199TIP3    H243089   1.709   6.269   0.729  0.5516 -0.9504 -0.2645
 7200TIP3   OH243090   1.101   4.260  14.986  0.3658  0.0067 -0.3166
 7200TIP3    H143091   1.150   4.252  14.904 -1.8945 -1.2385 -1.6684
 7200TIP3    H243092   1.166   4.283  15.052  2.8381 -2.1598 -1.8312
 7201TIP3   OH243093   0.468   0.927  10.798  0.4362  0.5208 -0.3734
 7201TIP3    H143094   0.439   0.838  10.819 -0.6556  0.7373 -0.8575
 7201TIP3    H243095   0.430   0.981  10.867  0.9684  0.6360 -0.1672
 7202TIP3   OH243096   1.154   0.124  11.076 -0.3572 -0.1458 -0.1945
 7202TIP3    H143097   1.226   0.174  11.115  1.0200  0.4012 -3.1877
 7202TIP3    H243098   1.095   0.190  11.040 -0.2363 -0.6074 -1.2818
 7203TIP3   OH243099   0.977   1.695  13.759 -0.3514  0.4280  0.3639
 7203TIP3    H143100   1.048   1.632  13.748 -0.1169  0.5382  1.2028
 7203TIP3    H243101   0.926   1.687  13.679  0.7530  0.5361 -0.3839
 7204TIP3   OH243102   1.641   2.607  13.152  0.3878  0.3417  0.0785
 7204TIP3    H143103   1.615   2.670  13.219  1.5559 -0.1584  1.0457
 7204TIP3    H243104   1.615   2.647  13.069 -1.6497  0.7010  0.8383
 7205TIP3   OH243105   5.985   1.063   4.491 -0.0415 -0.3236 -0.0729
 7205TIP3    H143106   5.897   1.095   4.508 -0.0034 -0.3957  0.2673
 7205TIP3    H243107   5.974   0.998   4.422 -0.2563 -0.3423 -0.0221
 7206TIP3   OH243108   4.544   4.179  14.220 -0.2850  0.4290  0.1174
 7206TIP3    H143109   4.484   4.110  14.194 -0.9481  1.2803 -0.6396
 7206TIP3    H243110   4.623   4.163  14.168  0.0570 -0.4858  0.8715
 7207TIP3   OH243111   5.109   1.639  11.922 -0.3807  0.5578  0.1903
 7207TIP3    H143112   5.046   1.620  11.991  1.2160 -0.0775  1.5438
 7207TIP3    H243113   5.092   1.729  11.897 -2.6029  0.0430 -0.3741
 7208TIP3   OH243114   6.102   2.638   0.843 -0.3559 -0.5928  0.3842
 7208TIP3    H143115   6.034   2.630   0.910 -1.4780  0.5248 -0.5506
 7208TIP3    H243116   6.162   2.566   0.860 -1.6114 -1.4346  1.4424
 7209TIP3   OH243117   2.480   4.907  14.896  0.2410  0.0884  0.4010
 7209TIP3    H143118   2.426   4.828  14.904  0.5955 -0.3452 -1.1551
 7209TIP3    H243119   2.518   4.919  14.983 -1.5447 -0.1747  1.2694
 7210TIP3   OH243120   5.575   1.966  13.471 -0.1137 -0.0102  0.8364
 7210TIP3    H143121   5.502   2.028  13.478 -0.8536 -0.8021  0.3174
 7210TIP3    H243122   5.543   1.887  13.515  0.7459 -0.0985  1.3226
 7211TIP3   OH243123   5.758   2.677   1.999 -0.3921 -0.1150 -0.5957
 7211TIP3    H143124   5.797   2.750   1.950 -1.5337  0.9897  0.0850
 7211TIP3    H243125   5.735   2.613   1.931  2.5102 -0.8429 -1.0354
 7212TIP3   OH243126   2.158   0.833   0.049  0.6184 -0.1157 -0.8109
 7212TIP3    H143127   2.242   0.792   0.072  0.7388  0.0676 -0.9213
 7212TIP3    H243128   2.112   0.766  -0.001  0.8939 -0.0506 -1.1564
 7213TIP3   OH243129   2.112   4.943   5.159 -0.0824 -0.1367 -0.7889
 7213TIP3    H143130   2.161   5.023   5.175 -0.3953 -0.2173  0.7047
 7213TIP3    H243131   2.034   4.972   5.111  0.5076  0.2381 -1.5399
 7214TIP3   OH243132   6.741   3.249   4.754  0.0630  0.0943 -0.1002
 7214TIP3    H143133   6.678   3.189   4.794  0.5145 -0.5089 -0.2768
 7214TIP3    H243134   6.766   3.308   4.825  0.1495 -0.3749  0.2647
 7215TIP3   OH243135   6.970   5.017  11.442 -0.3403  0.1863  0.2377
 7215TIP3    H143136   6.918   4.999  11.364 -0.3754 -1.1952  0.5411
 7215TIP3    H243137   6.951   5.108  11.464 -0.5382  0.5058 -1.1945
 7216TIP3   OH243138   4.477   3.704  14.014 -0.0155  0.7670  0.2443
 7216TIP3    H143139   4.423   3.693  13.936 -0.5247  2.8426  0.2318
 7216TIP3    H243140   4.567   3.697  13.983 -0.2277 -0.6273 -0.1075
 7217TIP3   OH243141   4.718   1.649   2.129 -0.0114  0.0162 -0.0079
 7217TIP3    H143142   4.801   1.623   2.088  0.4325 -0.1381  0.9577
 7217TIP3    H243143   4.697   1.733   2.087 -0.2210 -0.7083 -1.4261
 7218TIP3   OH243144   5.158   4.412  11.213  0.2994 -0.4337 -0.0418
 7218TIP3    H143145   5.117   4.490  11.250  0.2132  0.9114 -2.6948
 7218TIP3    H243146   5.098   4.384  11.144  0.7330 -2.4029  0.3340
 7219TIP3   OH243147   4.551   3.700   1.293  0.2398 -0.1969  0.0769
 7219TIP3    H143148   4.541   3.795   1.303  0.8461 -0.0240 -0.7658
 7219TIP3    H243149   4.556   3.666   1.382 -0.3602  0.5178  0.3906
 7220TIP3   OH243150   2.882   2.822  13.884 -0.4202 -0.1357 -0.2451
 7220TIP3    H143151   2.937   2.749  13.912  0.1184 -0.0376 -0.9893
 7220TIP3    H243152   2.833   2.788  13.809 -0.8743 -0.0200 -0.0024
 7221TIP3   OH243153   0.472   1.131   9.349  0.4660 -0.6854  0.2675
 7221TIP3    H143154   0.556   1.145   9.393  0.0307  0.0830  0.8818
 7221TIP3    H243155   0.470   1.037   9.331  1.1852 -0.8147  0.8055
 7222TIP3   OH243156   6.798   4.697  15.084 -0.1682 -0.7574 -0.4400
 7222TIP3    H143157   6.823   4.718  15.174 -0.7245  0.0172 -0.4517
 7222TIP3    H243158   6.881   4.680  15.039  0.2037  0.0000 -0.0614
 7223TIP3   OH243159   0.979   6.657  12.268  0.2479 -0.4950 -0.0718
 7223TIP3    H143160   0.920   6.639  12.195 -1.9242  1.1038  1.1700
 7223TIP3    H243161   1.003   6.570  12.301  1.0797 -1.2409 -2.4579
 7224TIP3   OH243162   2.859   0.310  11.430 -0.2415  0.6564 -0.5650
 7224TIP3    H143163   2.924   0.343  11.368  0.0156  2.2690  0.4804
 7224TIP3    H243164   2.905   0.245  11.481  0.0572  0.5853 -0.9217
 7225TIP3   OH243165   6.048   4.206  11.572  0.3749 -0.3358 -0.0030
 7225TIP3    H143166   6.020   4.117  11.548 -0.9886  0.0910 -0.0764
 7225TIP3    H243167   6.050   4.205  11.668 -3.5128  0.5908  0.2303
 7226TIP3   OH243168   6.576   3.904  14.961  0.1312 -0.2908  0.1001
 7226TIP3    H143169   6.607   3.995  14.967  2.4168 -1.0152  0.2629
 7226TIP3    H243170   6.629   3.865  14.892 -2.8956 -0.8006 -2.1461
 7227TIP3   OH243171   7.026   4.092  14.294  0.2482  0.1556 -0.4252
 7227TIP3    H143172   6.932   4.072  14.288 -0.1122  0.2365  2.7965
 7227TIP3    H243173   7.066   4.040  14.224 -2.0468 -1.1032 -0.9266
 7228TIP3   OH243174   3.234   4.718   3.225  0.2598 -0.1359 -0.1242
 7228TIP3    H143175   3.202   4.631   3.200 -0.6784  0.0375  0.4565
 7228TIP3    H243176   3.176   4.779   3.181  1.2554  0.2310 -0.9818
 7229TIP3   OH243177   3.065   5.158  10.402  0.0391 -0.0732  0.0869
 7229TIP3    H143178   2.972   5.136  10.396 -0.1235  0.3895  0.8148
 7229TIP3    H243179   3.091   5.134  10.491  0.7872 -0.8092 -0.3133
 7230TIP3   OH243180   3.157   7.139  10.988 -0.0155  0.4191 -0.0704
 7230TIP3    H143181   3.063   7.156  10.993 -0.0106  0.4095  0.0545
 7230TIP3    H243182   3.199   7.224  10.999 -0.0404  0.6034 -1.3252
 7231TIP3   OH243183   5.715   0.978   0.363 -0.3821 -0.3104  0.0129
 7231TIP3    H143184   5.775   1.015   0.427  0.2012 -1.4327  0.1402
 7231TIP3    H243185   5.631   1.019   0.383 -0.6939 -2.0332  2.8336
 7232TIP3   OH243186   3.184   0.215   5.485  0.0702  0.1121  0.3606
 7232TIP3    H143187   3.196   0.120   5.496  1.6722  0.3225  0.6557
 7232TIP3    H243188   3.102   0.234   5.531 -0.3878 -1.1510  0.1142
 7233TIP3   OH243189   3.335   2.225   9.624  0.3422  0.0253  0.0131
 7233TIP3    H143190   3.383   2.294   9.670  1.7660 -0.7268 -0.2945
 7233TIP3    H243191   3.265   2.271   9.579 -0.5601  0.8966  2.1672
 7234TIP3   OH243192   2.847   6.319  10.952 -0.1201 -0.2239  0.4164
 7234TIP3    H143193   2.781   6.362  11.006  1.1590 -0.4439  2.2469
 7234TIP3    H243194   2.798   6.264  10.891 -1.6164 -1.3538  2.5384
 7235TIP3   OH243195   6.578   7.104  15.327  0.2971 -0.0600 -0.3855
 7235TIP3    H143196   6.604   7.041  15.394 -0.7267  0.6907  0.7688
 7235TIP3    H243197   6.660   7.133  15.288  0.9083 -0.6593  0.4104
 7236TIP3   OH243198   0.643   0.846   9.636 -0.8584  0.1581 -0.1990
 7236TIP3    H143199   0.632   0.928   9.588  1.9561  0.7288 -0.0450
 7236TIP3    H243200   0.722   0.860   9.688 -1.1287 -2.1658  0.9523
 7237TIP3   OH243201   2.328   6.160  11.108 -0.2470  0.3759  0.9700
 7237TIP3    H143202   2.395   6.153  11.040 -0.3993  0.2230  0.8335
 7237TIP3    H243203   2.246   6.175  11.059 -0.1101  2.0300  1.1937
 7238TIP3   OH243204   3.141   3.264   0.389 -0.4038  0.3349  0.8841
 7238TIP3    H143205   3.181   3.179   0.407  0.5164  0.5266 -0.1557
 7238TIP3    H243206   3.074   3.274   0.457 -1.9270 -2.1011 -0.1411
 7239TIP3   OH243207   4.820   5.286  14.689  0.3666 -0.1565 -0.2439
 7239TIP3    H143208   4.880   5.252  14.622  0.9878 -0.3620  0.3967
 7239TIP3    H243209   4.856   5.372  14.711 -1.0039  0.8223 -1.6119
 7240TIP3   OH243210   6.280   3.307   0.845 -0.2179 -0.6900  0.6973
 7240TIP3    H143211   6.230   3.240   0.893  0.8541 -0.8087  1.6939
 7240TIP3    H243212   6.254   3.390   0.886 -0.5327 -0.6234  0.3686
 7241TIP3   OH243213   0.366   1.458   0.575  0.1547  0.2206  0.1260
 7241TIP3    H143214   0.297   1.397   0.601  1.2199 -1.1493 -0.1583
 7241TIP3    H243215   0.339   1.542   0.612 -1.0850 -0.5244  0.9842
 7242TIP3   OH243216   4.955   6.547   2.101  0.0974  0.2890  0.6394
 7242TIP3    H143217   4.965   6.453   2.116  1.8808  0.5104  0.9545
 7242TIP3    H243218   5.042   6.577   2.075 -0.5785  1.7661 -0.0488
 7243TIP3   OH243219   1.038   0.697  11.407 -0.2039 -0.5390  0.3666
 7243TIP3    H143220   0.978   0.711  11.333 -0.6408  0.4357  0.8896
 7243TIP3    H243221   0.998   0.744  11.480  0.9020 -0.3547  0.8830
 7244TIP3   OH243222   2.826   1.481  12.017 -1.0487  0.4741  0.3823
 7244TIP3    H143223   2.821   1.385  12.019  0.8069  0.3054 -1.1595
 7244TIP3    H243224   2.840   1.506  12.109 -0.0505 -0.8396  0.6082
 7245TIP3   OH243225   2.487   5.963   1.669  0.4162 -0.3785 -0.3972
 7245TIP3    H143226   2.439   5.922   1.741 -0.1487 -1.3878 -1.3133
 7245TIP3    H243227   2.440   5.935   1.590  1.4778  0.0614 -1.2100
 7246TIP3   OH243228   3.738   2.008  15.205  0.0819  0.0923 -0.4867
 7246TIP3    H143229   3.700   1.965  15.281 -0.5933  1.2618 -0.1540
 7246TIP3    H243230   3.831   1.984  15.209  0.4529  1.6338  1.7754
 7247TIP3   OH243231   5.017   6.612  13.870  0.3811  0.0241  0.4345
 7247TIP3    H143232   4.931   6.649  13.892  1.3506  1.8256  1.3494
 7247TIP3    H243233   5.080   6.673  13.906  2.0897 -1.2243 -0.2916
 7248TIP3   OH243234   3.327   5.358  13.621  0.3986 -0.0801  0.6593
 7248TIP3    H143235   3.327   5.383  13.714 -2.7632 -0.0278  0.7568
 7248TIP3    H243236   3.311   5.440  13.574 -2.2250 -0.6005  0.4594
 7249TIP3   OH243237   4.051   7.018   2.509 -0.5847  0.4321 -0.3766
 7249TIP3    H143238   3.986   7.084   2.534 -0.6575 -0.1529  1.0772
 7249TIP3    H243239   4.105   7.006   2.587 -0.3216 -0.9359 -0.7340
 7250TIP3   OH243240   7.196   2.718  14.876  0.7801  0.7985 -0.5046
 7250TIP3    H143241   7.236   2.723  14.790 -2.2856  1.0189 -2.0704
 7250TIP3    H243242   7.133   2.646  14.870  2.1603 -0.8467  2.4172
 7251TIP3   OH243243   3.118   2.805  14.246  0.0040  0.1562 -0.2137
 7251TIP3    H143244   3.146   2.725  14.291 -0.0735 -0.6326 -1.4950
 7251TIP3    H243245   3.045   2.838  14.297  0.6206 -0.0900  0.8442
 7252TIP3   OH243246   2.356   5.250  12.182 -0.3079 -0.0264  0.0814
 7252TIP3    H143247   2.261   5.258  12.193 -0.2874 -0.6631  0.8134
 7252TIP3    H243248   2.385   5.202  12.260  0.6195  0.1825 -0.1267
 7253TIP3   OH243249   5.357   3.843   2.772 -0.6110 -0.1728 -0.1834
 7253TIP3    H143250   5.435   3.789   2.782 -0.3125 -0.2919 -2.4701
 7253TIP3    H243251   5.291   3.784   2.735 -0.8496  0.5865 -1.0236
 7254TIP3   OH243252   3.270   5.444   1.833  0.3860 -0.2695  0.3954
 7254TIP3    H143253   3.263   5.453   1.927 -3.1642  2.4945  0.0442
 7254TIP3    H243254   3.340   5.504   1.808  0.2878  0.1624  1.1447
 7255TIP3   OH243255   3.496   0.365  10.375 -0.4939  0.0375 -0.5316
 7255TIP3    H143256   3.539   0.419  10.309 -0.0630 -0.8937 -1.0321
 7255TIP3    H243257   3.424   0.419  10.407 -0.2172  0.8140 -1.1832
 7256TIP3   OH243258   2.720   1.283   1.071 -0.0445  0.0231 -0.7095
 7256TIP3    H143259   2.654   1.347   1.044  1.1472  1.5626 -0.1891
 7256TIP3    H243260   2.670   1.207   1.099 -1.5274  0.6278 -1.6030
 7257TIP3   OH243261   1.611   6.083   1.470  0.1948 -0.7806  0.6808
 7257TIP3    H143262   1.634   5.990   1.474  0.2557 -0.7799  0.3866
 7257TIP3    H243263   1.521   6.083   1.437  0.4050 -0.7154  0.0867
 7258TIP3   OH243264   0.460   1.680  12.405  0.0926  0.2751 -0.3012
 7258TIP3    H143265   0.539   1.630  12.384 -0.1517  0.0599 -0.7208
 7258TIP3    H243266   0.388   1.618  12.393 -0.1608  0.5440 -0.1911
 7259TIP3   OH243267   3.233   5.293  12.372  0.1669  0.4563  0.1593
 7259TIP3    H143268   3.184   5.374  12.362 -1.4139 -0.6101 -1.4598
 7259TIP3    H243269   3.322   5.315  12.343  0.6794  2.3512  2.8563
 7260TIP3   OH243270   6.871   3.166   1.792  0.5110  0.4216  0.6730
 7260TIP3    H143271   6.858   3.088   1.739 -1.8371  0.7828  0.6278
 7260TIP3    H243272   6.938   3.141   1.856  2.9686 -0.2362 -1.9464
 7261TIP3   OH243273   0.815   1.804  12.500  0.0640 -0.0351 -0.0689
 7261TIP3    H143274   0.757   1.848  12.562  0.8558 -0.3097  0.8857
 7261TIP3    H243275   0.802   1.852  12.418 -2.4357 -0.8520 -0.2531
 7262TIP3   OH243276   5.616   4.131   1.796  0.4789  0.3332  0.4918
 7262TIP3    H143277   5.692   4.188   1.789  0.7347  0.0714  1.0675
 7262TIP3    H243278   5.544   4.182   1.760  1.2594 -0.1108 -1.8661
 7263TIP3   OH243279   5.042   5.124  14.932  0.1387 -0.0726  0.4939
 7263TIP3    H143280   5.026   5.218  14.930 -0.4682 -0.1604  0.9662
 7263TIP3    H243281   5.055   5.104  15.025  1.1993 -0.3110  0.3152
 7264TIP3   OH243282   2.665   3.090  10.405 -0.1683 -0.6038 -0.4654
 7264TIP3    H143283   2.757   3.096  10.379 -0.0810 -1.5195 -0.3845
 7264TIP3    H243284   2.667   3.094  10.501 -0.1523 -1.2707 -0.4338
 7265TIP3   OH243285   3.999   3.362  11.387  0.1034 -0.1445 -0.3226
 7265TIP3    H143286   3.932   3.385  11.323  0.2929  0.9997 -0.1313
 7265TIP3    H243287   3.973   3.407  11.467 -0.5741 -2.2252  0.6964
 7266TIP3   OH243288   3.847   5.564  12.215  0.4447  0.1556  0.0490
 7266TIP3    H143289   3.908   5.620  12.264  1.2657  0.4183 -1.2145
 7266TIP3    H243290   3.777   5.624  12.187  0.4630  0.2042  0.1071
 7267TIP3   OH243291   2.593   5.805   0.223  0.4056  0.4721 -0.3229
 7267TIP3    H143292   2.575   5.745   0.297 -1.2316 -0.6860 -1.5675
 7267TIP3    H243293   2.556   5.888   0.251 -0.6860 -0.0925 -0.0135
 7268TIP3   OH243294   0.187   6.501  14.909 -0.0463  0.0601 -0.4629
 7268TIP3    H143295   0.235   6.583  14.906  0.0851  0.0200  0.2230
 7268TIP3    H243296   0.149   6.500  14.997 -1.8970  0.4241 -1.2116
 7269TIP3   OH243297   0.320   5.853  12.876 -0.0551 -0.2746 -0.6697
 7269TIP3    H143298   0.378   5.927  12.888 -0.1954 -0.2377 -0.2015
 7269TIP3    H243299   0.335   5.798  12.953 -0.7499 -0.1859 -0.4636
 7270TIP3   OH243300   2.191   3.978  13.984  0.5727  0.1607 -0.0218
 7270TIP3    H143301   2.221   3.977  13.893  0.3169  0.1115 -0.1065
 7270TIP3    H243302   2.125   4.048  13.987  0.0377 -0.3351 -0.0528
 7271TIP3   OH243303   5.063   1.470  13.406 -0.1527  0.0270  0.6335
 7271TIP3    H143304   5.026   1.541  13.355  0.9198  0.4512  0.4245
 7271TIP3    H243305   4.994   1.404  13.409 -1.1842  1.0808  0.8643
 7272TIP3   OH243306   1.430   4.053  14.751  0.4546 -0.6447 -0.1168
 7272TIP3    H143307   1.470   3.986  14.695  1.3057 -1.8146  1.8050
 7272TIP3    H243308   1.362   4.005  14.799 -0.1875  0.3190 -0.0400
 7273TIP3   OH243309   4.339   3.945  14.531 -0.0917  0.4386 -0.1948
 7273TIP3    H143310   4.357   4.006  14.603  0.0341  0.4681 -0.2512
 7273TIP3    H243311   4.409   3.880  14.536 -0.0229  0.5011 -0.3581
 7274TIP3   OH243312   5.591   0.212  10.356  0.1797  0.8944  0.0969
 7274TIP3    H143313   5.649   0.234  10.429 -0.0882  1.2627  0.2023
 7274TIP3    H243314   5.584   0.117  10.359 -2.6869  1.0352  2.8044
 7275TIP3   OH243315   1.390   0.674   9.418 -0.0133  0.2382  0.0078
 7275TIP3    H143316   1.460   0.626   9.373  1.0661 -0.0123  1.8391
 7275TIP3    H243317   1.432   0.710   9.496 -1.6935  1.0248  0.6012
 7276TIP3   OH243318   4.143   1.138  10.957 -0.0196 -0.0473  0.3428
 7276TIP3    H143319   4.179   1.091  11.032  0.2202 -0.4550 -0.0197
 7276TIP3    H243320   4.175   1.089  10.881 -0.2065  0.3964 -0.0260
 7277TIP3   OH243321   1.920   6.122  11.817 -0.2683  0.3234  0.1307
 7277TIP3    H143322   1.918   6.146  11.909 -0.1184  1.4734 -0.1541
 7277TIP3    H243323   1.958   6.034  11.816  1.1274  0.8764  1.0482
 7278TIP3   OH243324   3.986   0.677  14.856 -0.0059  0.6393 -0.1172
 7278TIP3    H143325   4.073   0.641  14.839 -0.2099  0.3726 -0.6001
 7278TIP3    H243326   3.999   0.771  14.856  0.5238  0.5968  1.0882
 7279TIP3   OH243327   0.530   2.878   2.779  0.6096  0.3841 -0.3998
 7279TIP3    H143328   0.523   2.882   2.684 -1.7315  0.4167 -0.2839
 7279TIP3    H243329   0.499   2.790   2.803  2.1072  0.0085  0.3064
 7280TIP3   OH243330   0.457   3.716   3.904  0.0449 -0.0621 -0.1014
 7280TIP3    H143331   0.499   3.677   3.827 -0.3296  0.4197 -0.5498
 7280TIP3    H243332   0.531   3.748   3.957  0.4342 -2.2004  0.7526
 7281TIP3   OH243333   0.444   5.380  12.482  0.1326  0.6517 -0.2590
 7281TIP3    H143334   0.378   5.330  12.531 -0.7439  1.4661 -0.5846
 7281TIP3    H243335   0.457   5.329  12.402  0.6183 -0.0104  0.2256
 7282TIP3   OH243336   1.832   0.695  11.968  0.3944  0.0639 -0.2998
 7282TIP3    H143337   1.802   0.604  11.966  0.5958  0.0109 -1.4617
 7282TIP3    H243338   1.816   0.723  12.058 -1.0558 -0.6506 -0.3068
 7283TIP3   OH243339   6.594   2.868  15.030 -0.6677 -0.1658 -0.0179
 7283TIP3    H143340   6.538   2.807  14.982 -1.5096 -0.1083  0.8635
 7283TIP3    H243341   6.561   2.866  15.119  0.6555 -0.0117  0.4986
 7284TIP3   OH243342   4.578   1.295   0.175  0.0871  0.6676  0.2181
 7284TIP3    H143343   4.492   1.254   0.172 -0.0681  0.9764  0.4271
 7284TIP3    H243344   4.566   1.380   0.133 -0.0244  1.2739  1.4281
 7285TIP3   OH243345   1.787   3.021  11.756 -0.0192 -0.4867  0.0234
 7285TIP3    H143346   1.734   2.946  11.784 -0.1641 -1.4304 -2.4311
 7285TIP3    H243347   1.877   2.988  11.757 -0.0729 -0.7183 -0.9515
 7286TIP3   OH243348   2.475   6.972  12.549  0.0962 -0.2691 -0.5216
 7286TIP3    H143349   2.469   7.012  12.462 -0.2584 -0.6212 -0.6642
 7286TIP3    H243350   2.561   6.998  12.582  0.0901  0.1598 -0.8307
 7287TIP3   OH243351   6.439   2.456   4.508 -0.1020 -0.7098 -0.1307
 7287TIP3    H143352   6.473   2.463   4.598 -0.9294  2.1929  0.0533
 7287TIP3    H243353   6.359   2.508   4.509  0.1870 -0.1034 -2.7056
 7288TIP3   OH243354   3.714   7.008  13.242 -0.1291  0.5224  0.1820
 7288TIP3    H143355   3.767   7.008  13.162 -0.2082 -0.1781  0.1172
 7288TIP3    H243356   3.745   6.932  13.292 -3.3125 -2.1367 -1.4330
 7289TIP3   OH243357   1.247   4.763  14.723 -0.2052  0.1511  0.5411
 7289TIP3    H143358   1.342   4.776  14.721 -0.3265  1.0789  0.2354
 7289TIP3    H243359   1.229   4.702  14.651 -0.0293  1.4290 -0.6323
 7290TIP3   OH243360   2.854   4.555  13.593  0.1786 -0.7471  0.2630
 7290TIP3    H143361   2.942   4.535  13.561  0.1085  0.3598 -0.6900
 7290TIP3    H243362   2.796   4.500  13.540  0.0873  0.8569 -1.4038
 7291TIP3   OH243363   4.028   6.394   5.367  0.3830 -0.0088  0.5624
 7291TIP3    H143364   4.045   6.466   5.428 -0.2264 -0.1176  0.8629
 7291TIP3    H243365   4.044   6.433   5.281  0.2691  0.4296  0.7330
 7292TIP3   OH243366   6.638   5.230  14.772 -0.6519  0.1679  0.8915
 7292TIP3    H143367   6.585   5.288  14.716 -0.4150  0.4588  0.9664
 7292TIP3    H243368   6.728   5.252  14.750 -0.5583 -0.1642  0.9347
 7293TIP3   OH243369   1.013   5.848   9.767 -0.3622 -0.2089  0.2650
 7293TIP3    H143370   1.046   5.857   9.677 -2.1026  0.3028 -0.3582
 7293TIP3    H243371   0.937   5.906   9.771  0.4745  0.8271  2.5065
 7294TIP3   OH243372   2.982   0.424  12.970 -0.3172 -0.9639 -0.2128
 7294TIP3    H143373   2.939   0.462  13.047  0.2295  0.8556 -0.7711
 7294TIP3    H243374   2.948   0.334  12.966 -2.6837 -0.1758  0.4169
 7295TIP3   OH243375   5.491   5.135   0.299  0.8708 -0.0768 -0.2831
 7295TIP3    H143376   5.563   5.168   0.246  0.4464  2.1285  0.4397
 7295TIP3    H243377   5.505   5.172   0.386 -0.0806 -1.1969  0.3894
 7296TIP3   OH243378   3.419   4.705   1.729 -0.0375  0.3540  0.3180
 7296TIP3    H143379   3.491   4.768   1.729  0.2399  0.0392  0.8933
 7296TIP3    H243380   3.345   4.753   1.767 -0.0255  0.5541  0.0910
 7297TIP3   OH243381   5.149   3.704  10.944 -0.2222  0.2014  0.6570
 7297TIP3    H143382   5.132   3.636  10.878  0.2860  0.6000  0.1139
 7297TIP3    H243383   5.111   3.668  11.024 -1.9208  0.2292 -0.0962
 7298TIP3   OH243384   5.529   1.838   9.398  0.1070  0.1905 -0.2967
 7298TIP3    H143385   5.553   1.752   9.362 -1.5797 -1.9386  3.1639
 7298TIP3    H243386   5.433   1.838   9.398  0.0772  1.8692  0.2893
 7299TIP3   OH243387   5.514   1.363   2.676 -0.1042  0.5202  0.1143
 7299TIP3    H143388   5.472   1.322   2.752  0.4007  1.5839  0.9839
 7299TIP3    H243389   5.459   1.439   2.656 -0.1956  0.2865 -0.5551
 7300TIP3   OH243390   0.182   5.706  12.633  0.3467  0.1081 -0.1662
 7300TIP3    H143391   0.186   5.756  12.715 -0.7213 -1.8395  1.1324
 7300TIP3    H243392   0.100   5.733  12.592  0.4861  0.4712 -0.2135
 7301TIP3   OH243393   2.001   2.583  12.800  0.1204 -0.3665 -0.7952
 7301TIP3    H143394   2.034   2.494  12.783  0.8473 -0.8864  2.6092
 7301TIP3    H243395   1.907   2.570  12.814  0.2951 -0.7140  0.1365
 7302TIP3   OH243396   7.150   5.507   1.447  0.3678  0.2803  0.0697
 7302TIP3    H143397   7.230   5.464   1.475  1.3134  1.4602 -0.6983
 7302TIP3    H243398   7.180   5.577   1.389 -1.2565  0.4263 -0.6413
 7303TIP3   OH243399   5.992   1.156  10.721  0.1846 -0.8546  0.1181
 7303TIP3    H143400   5.932   1.156  10.646 -1.8172  1.4573  1.5750
 7303TIP3    H243401   6.056   1.224  10.702  0.9158 -1.6459 -0.3353
 7304TIP3   OH243402   5.669   5.371   9.805 -0.0697 -0.2293  0.7501
 7304TIP3    H143403   5.764   5.388   9.811 -0.1516 -0.1938  2.7232
 7304TIP3    H243404   5.632   5.453   9.773  0.4076  0.4083  1.7706
 7305TIP3   OH243405   1.855   2.678   1.056  0.0416  0.1096  0.0625
 7305TIP3    H143406   1.940   2.650   1.092  0.2374 -0.3008 -0.6849
 7305TIP3    H243407   1.816   2.597   1.022  0.8345  0.7479 -2.6175
 7306TIP3   OH243408   4.482   5.679   1.786 -0.0989  0.1795 -0.2111
 7306TIP3    H143409   4.402   5.731   1.785 -0.3797  0.0343  3.3761
 7306TIP3    H243410   4.482   5.634   1.701 -2.9474  1.4076 -0.9766
 7307TIP3   OH243411   6.828   6.973  13.452  0.1776 -0.0971  0.5028
 7307TIP3    H143412   6.742   6.933  13.464  0.6757 -1.4225 -0.1187
 7307TIP3    H243413   6.858   6.991  13.541 -0.4271 -0.3155  0.7590
 7308TIP3   OH243414   5.949   0.226   5.380 -0.5092  0.4920 -0.3387
 7308TIP3    H143415   6.009   0.264   5.317  0.4090  0.9386  0.7575
 7308TIP3    H243416   5.929   0.297   5.440  0.0885 -0.3396  0.9051
 7309TIP3   OH243417   6.442   4.372  11.922 -0.3639  0.2082 -0.1706
 7309TIP3    H143418   6.501   4.441  11.954 -0.4300 -0.3065  1.0935
 7309TIP3    H243419   6.392   4.345  11.999 -0.0828 -1.5080 -0.5416
 7310TIP3   OH243420   5.275   2.185   0.069 -0.4248  0.6374  0.2190
 7310TIP3    H143421   5.332   2.119   0.030 -1.6329  0.9950 -2.3781
 7310TIP3    H243422   5.196   2.137   0.094  0.3603  0.3999  2.4511
 7311TIP3   OH243423   3.114   5.023  13.234  0.1724  0.0658 -0.0799
 7311TIP3    H143424   3.057   5.057  13.166 -1.8439  0.6688  1.7868
 7311TIP3    H243425   3.054   4.977  13.294  1.9080 -0.7862  1.0777
 7312TIP3   OH243426   0.399   6.414  11.778  0.0203  0.3693 -0.3076
 7312TIP3    H143427   0.343   6.337  11.782 -2.4123  2.0028 -0.7435
 7312TIP3    H243428   0.481   6.382  11.740 -0.4093 -2.2024  0.7072
 7313TIP3   OH243429   5.733   6.379  14.422 -0.4178  0.1585 -0.0838
 7313TIP3    H143430   5.752   6.339  14.337  1.0146  1.0507 -0.2341
 7313TIP3    H243431   5.785   6.460  14.421 -1.4888  0.8819  1.0795
 7314TIP3   OH243432   4.545   6.525  12.299 -0.2549  0.9253 -0.0725
 7314TIP3    H143433   4.526   6.443  12.344 -0.5857  1.2733  0.4343
 7314TIP3    H243434   4.465   6.545  12.250 -0.2364  1.0336 -0.0593
 7315TIP3   OH243435   2.567   5.872  13.086 -0.0961  0.3515  0.1880
 7315TIP3    H143436   2.506   5.875  13.160  0.6379 -0.8159  0.8783
 7315TIP3    H243437   2.525   5.815  13.023  1.3332 -2.6848  1.7633
 7316TIP3   OH243438   0.840   0.547   3.770  0.5447 -0.0847 -0.1350
 7316TIP3    H143439   0.874   0.511   3.689  0.4471  1.4083 -0.8719
 7316TIP3    H243440   0.917   0.575   3.819  0.5080  1.4429 -0.9090
 7317TIP3   OH243441   6.897   3.706   1.987 -0.1259  0.1876  0.0907
 7317TIP3    H143442   6.917   3.614   1.972  0.4466  0.3802 -0.3765
 7317TIP3    H243443   6.946   3.728   2.066 -0.8442 -0.0889  0.6220
 7318TIP3   OH243444   6.026   1.224  12.016  0.3809 -0.4771  0.0920
 7318TIP3    H143445   6.060   1.202  11.930  0.1362  1.6923 -0.6214
 7318TIP3    H243446   6.099   1.266  12.061 -0.0372  0.1837  0.1817
 7319TIP3   OH243447   2.334   1.880  15.377  0.1512 -0.4975 -0.1065
 7319TIP3    H143448   2.266   1.856  15.315 -0.6093  2.5016 -0.5673
 7319TIP3    H243449   2.289   1.885  15.461 -0.1025  0.8662 -0.3047
 7320TIP3   OH243450   4.694   0.500  14.652  0.1186  0.4659 -0.1511
 7320TIP3    H143451   4.646   0.546  14.720 -0.5116  0.0899 -0.3306
 7320TIP3    H243452   4.714   0.567  14.587 -0.1420  0.6270 -0.0653
 7321TIP3   OH243453   7.148   5.099  14.315  1.0456 -0.2300  0.0231
 7321TIP3    H143454   7.189   5.013  14.307  1.6435 -0.3150  2.7717
 7321TIP3    H243455   7.055   5.080  14.330  0.4218 -0.1563 -3.1433
 7322TIP3   OH243456   3.654   1.999   1.194 -0.2127 -0.5321  0.3023
 7322TIP3    H143457   3.621   2.086   1.173  2.3353  0.9167  1.7611
 7322TIP3    H243458   3.699   1.970   1.115 -1.8001 -0.9661 -0.4801
 7323TIP3   OH243459   0.338   3.184  13.188  0.6069 -0.2604 -0.1300
 7323TIP3    H143460   0.415   3.205  13.241 -0.2724 -1.5235  1.7789
 7323TIP3    H243461   0.348   3.092  13.166  0.6898  0.1179 -1.8073
 7324TIP3   OH243462   2.469   5.384   9.855  0.1503 -0.4855 -0.3355
 7324TIP3    H143463   2.427   5.469   9.845 -1.0247 -1.0434 -0.3085
 7324TIP3    H243464   2.531   5.380   9.782 -0.9846 -0.2880 -1.3480
 7325TIP3   OH243465   1.099   5.020   9.786  0.2351 -0.2332 -0.1196
 7325TIP3    H143466   1.085   5.083   9.716  1.1910  3.5112  2.7133
 7325TIP3    H243467   1.194   5.020   9.800 -0.0075 -0.1753  1.7232
 7326TIP3   OH243468   0.503   2.340   4.025 -0.2599 -0.2533 -0.2706
 7326TIP3    H143469   0.592   2.370   4.045 -0.2010  0.7709 -1.9039
 7326TIP3    H243470   0.513   2.245   4.013  0.3994 -0.3112  0.6447
 7327TIP3   OH243471   5.705   0.643  15.337 -0.3046 -0.1060  0.7687
 7327TIP3    H143472   5.615   0.658  15.311 -0.3011 -2.2980 -0.8099
 7327TIP3    H243473   5.754   0.718  15.302 -1.6078  1.8184  2.8212
 7328TIP3   OH243474   5.332   4.372   2.139 -0.5108  0.3396  0.1993
 7328TIP3    H143475   5.349   4.370   2.233  0.6483 -0.4681 -0.0019
 7328TIP3    H243476   5.379   4.448   2.107  0.1654 -0.1141  0.0976
 7329TIP3   OH243477   2.420   5.095   1.979 -0.0324  0.6050 -0.0881
 7329TIP3    H143478   2.379   5.064   2.060 -0.0255 -0.5290 -0.5006
 7329TIP3    H243479   2.513   5.079   1.991 -0.0066  0.6366 -0.2352
 7330TIP3   OH243480   3.869   2.042   3.316  0.2497  0.2579 -0.1365
 7330TIP3    H143481   3.774   2.041   3.311  0.1336 -0.0308  1.5031
 7330TIP3    H243482   3.889   2.094   3.395  1.3951 -0.4758  0.0903
 7331TIP3   OH243483   1.120   1.530  14.507 -0.0178 -0.1827 -1.4007
 7331TIP3    H143484   1.075   1.484  14.436 -0.1341  0.9706 -2.1085
 7331TIP3    H243485   1.149   1.612  14.467  1.4893 -0.2813 -0.5727
 7332TIP3   OH243486   2.693   4.058  14.592  0.1957 -0.2473  0.4688
 7332TIP3    H143487   2.704   4.146  14.630 -0.7197 -1.1218  2.9798
 7332TIP3    H243488   2.605   4.032  14.619 -0.1430 -1.3580 -1.5802
 7333TIP3   OH243489   2.886   6.113   0.944  0.0827  0.0162  0.0781
 7333TIP3    H143490   2.917   6.171   0.874  1.8885 -1.1054 -0.1356
 7333TIP3    H243491   2.809   6.070   0.907  1.4152 -1.0936 -1.5675
 7334TIP3   OH243492   0.114   2.882  10.299  0.7750  0.3206 -0.2420
 7334TIP3    H143493   0.198   2.925  10.313 -0.4803  2.5818  0.9201
 7334TIP3    H243494   0.095   2.839  10.383 -0.4116  2.1669  0.5139
 7335TIP3   OH243495   4.948   3.928  11.033  0.5577 -0.1994  0.3195
 7335TIP3    H143496   5.023   3.883  10.994  0.2859  0.4499 -1.0258
 7335TIP3    H243497   4.966   4.021  11.016 -0.2596 -0.0054  0.5001
 7336TIP3   OH243498   3.240   6.974  11.629  0.0960 -0.0774 -0.0375
 7336TIP3    H143499   3.262   6.906  11.693 -0.3483  2.0313  2.5346
 7336TIP3    H243500   3.308   6.968  11.562  0.1260 -2.9090  0.1500
 7337TIP3   OH243501   5.367   0.907  14.560  0.3764  0.7525 -0.1605
 7337TIP3    H143502   5.419   0.831  14.587 -0.6490  0.3096  0.6446
 7337TIP3    H243503   5.283   0.894  14.603 -0.3022  1.6058 -1.1905
 7338TIP3   OH243504   6.720   6.763  11.713  0.4481 -0.1800  0.2434
 7338TIP3    H143505   6.706   6.702  11.640 -1.2287  0.1190  0.2912
 7338TIP3    H243506   6.744   6.846  11.671 -0.8945  0.0980 -0.0225
 7339TIP3   OH243507   3.774   5.999  13.813 -0.1278 -0.1559 -0.7149
 7339TIP3    H143508   3.865   5.981  13.839 -0.9573 -2.2593  1.0853
 7339TIP3    H243509   3.773   5.981  13.719  1.1452 -0.9878 -0.6059
 7340TIP3   OH243510   3.298   4.684   0.600 -0.3828 -0.1514  0.0986
 7340TIP3    H143511   3.323   4.766   0.643  1.6576 -0.9689  0.5858
 7340TIP3    H243512   3.360   4.676   0.527 -0.9274 -0.9942 -0.2796
 7341TIP3   OH243513   0.514   1.070  13.959 -0.3182  0.2657 -0.0008
 7341TIP3    H143514   0.561   1.151  13.980 -1.9043  1.2572 -0.1011
 7341TIP3    H243515   0.583   1.006  13.942  0.9868  1.7024 -0.3527
 7342TIP3   OH243516   1.750   3.266  12.266 -0.1462 -0.0394  0.1155
 7342TIP3    H143517   1.735   3.351  12.223 -1.8964 -0.5732 -0.3958
 7342TIP3    H243518   1.779   3.208  12.196  2.8520  0.5064  0.7697
 7343TIP3   OH243519   3.471   3.578  12.626  0.5610 -0.0744  0.4102
 7343TIP3    H143520   3.546   3.588  12.686 -0.1614  1.9236  1.0781
 7343TIP3    H243521   3.395   3.600  12.679 -0.4206 -1.1156 -0.5195
 7344TIP3   OH243522   6.084   4.668   1.495 -0.4387  0.2886  0.4480
 7344TIP3    H143523   6.075   4.674   1.400 -3.0333 -0.5225  0.5694
 7344TIP3    H243524   6.050   4.581   1.517 -1.9973  1.3086  2.2990
 7345TIP3   OH243525   2.025   0.093  11.881 -0.1209  0.1381  0.4517
 7345TIP3    H143526   1.977   0.049  11.811 -0.9529  1.4796  0.1349
 7345TIP3    H243527   1.993   0.052  11.961  2.0400 -2.5728  0.0812
 7346TIP3   OH243528   1.499   0.667   2.664  0.2052 -0.0507  0.0959
 7346TIP3    H143529   1.412   0.700   2.687  0.9718  1.6264  0.7588
 7346TIP3    H243530   1.545   0.743   2.627  1.6112 -0.6960  0.4230
 7347TIP3   OH243531   6.214   3.087   2.199  0.5214  0.2922 -0.8048
 7347TIP3    H143532   6.202   3.152   2.130  0.0094  0.9666 -0.0940
 7347TIP3    H243533   6.176   3.127   2.277  0.4732 -0.7363 -0.2817
 7348TIP3   OH243534   2.134   1.779  11.162 -0.0030  0.4635 -0.4697
 7348TIP3    H143535   2.060   1.721  11.146  0.5831 -0.3277 -0.3416
 7348TIP3    H243536   2.210   1.731  11.129  0.4270  1.3751 -0.8398
 7349TIP3   OH243537   5.317   6.358   0.603 -0.0142  0.4209 -0.4319
 7349TIP3    H143538   5.401   6.397   0.629  0.7802  0.8041 -3.1822
 7349TIP3    H243539   5.314   6.274   0.649  2.2475  0.1041 -0.7242
 7350TIP3   OH243540   5.548   3.872   3.856 -0.3980  0.0091 -0.5090
 7350TIP3    H143541   5.540   3.877   3.951 -1.0415 -0.6513 -0.5166
 7350TIP3    H243542   5.552   3.778   3.837 -1.1971  0.0993 -1.1912
 7351TIP3   OH243543   6.174   4.454  11.455  0.0916 -0.4381 -0.2028
 7351TIP3    H143544   6.229   4.382  11.424 -1.3972 -0.7371 -2.3523
 7351TIP3    H243545   6.123   4.415  11.527 -0.5548 -1.5239 -1.2085
 7352TIP3   OH243546   6.972   6.963   2.160  0.3931  0.5063 -0.2596
 7352TIP3    H143547   6.913   6.966   2.235 -0.8582  1.6098 -1.2375
 7352TIP3    H243548   6.963   7.049   2.118  0.0483 -0.4972 -2.4053
 7353TIP3   OH243549   1.006   6.418  12.006 -0.0176 -0.8849  0.1677
 7353TIP3    H143550   0.971   6.335  12.040 -0.3338 -0.0189  2.0452
 7353TIP3    H243551   0.951   6.485  12.045  1.0565  0.2960 -0.2911
 7354TIP3   OH243552   2.511   6.183   1.008  0.1291 -0.0157  0.1240
 7354TIP3    H143553   2.566   6.117   0.966  0.1976  0.4215 -0.4955
 7354TIP3    H243554   2.446   6.133   1.058  0.2719 -0.5476 -0.2183
 7355TIP3   OH243555   0.343   4.069  12.069 -0.9733  0.0662 -0.1361
 7355TIP3    H143556   0.320   3.999  12.130 -0.6591 -0.7101 -0.8987
 7355TIP3    H243557   0.281   4.060  11.997 -0.2616 -0.0955 -0.7385
 7356TIP3   OH243558   4.988   5.123  11.209 -0.1290 -0.0046  0.5858
 7356TIP3    H143559   4.947   5.038  11.225  2.2720 -1.1088  1.2272
 7356TIP3    H243560   4.952   5.181  11.276 -3.7192  0.3221 -1.3437
 7357TIP3   OH243561   5.612   2.228  12.244  0.0930  0.1574 -0.1887
 7357TIP3    H143562   5.622   2.160  12.178 -0.5169  0.9667 -1.1551
 7357TIP3    H243563   5.696   2.230  12.291  0.1224 -1.2242 -0.1408
 7358TIP3   OH243564   3.338   0.947   2.460  0.1286  0.4199  0.2683
 7358TIP3    H143565   3.286   0.897   2.523  0.3664 -0.0996  0.0541
 7358TIP3    H243566   3.402   0.885   2.426  1.8301  1.4063  1.5571
 7359TIP3   OH243567   4.167   5.479  11.883 -0.0055 -0.2646 -0.1798
 7359TIP3    H143568   4.114   5.506  11.808  1.1313  0.7005 -0.6766
 7359TIP3    H243569   4.238   5.427  11.845  0.3937 -0.0456  0.2498
 7360TIP3   OH243570   1.186   6.893   2.213  0.8441  0.2079  0.3164
 7360TIP3    H143571   1.127   6.945   2.268 -1.0101 -2.5244  1.0694
 7360TIP3    H243572   1.165   6.920   2.124 -1.9019 -0.9287  0.5265
 7361TIP3   OH243573   5.462   4.921  13.666  0.1813  0.3910  0.1096
 7361TIP3    H143574   5.514   4.903  13.745 -2.6455  1.4227  2.4141
 7361TIP3    H243575   5.474   5.015  13.651  0.2060  0.3207 -0.3028
 7362TIP3   OH243576   5.139   3.178   4.259  0.2276 -0.1346 -0.1015
 7362TIP3    H143577   5.115   3.113   4.326  0.4550 -1.7463 -1.4986
 7362TIP3    H243578   5.221   3.216   4.291  0.7817 -1.4899  0.1905
 7363TIP3   OH243579   4.069   7.101  12.878  0.1216 -0.0819 -0.0497
 7363TIP3    H143580   3.979   7.071  12.889 -0.6462  1.8066 -0.8732
 7363TIP3    H243581   4.094   7.134  12.965 -0.6860  1.1779 -0.2770
 7364TIP3   OH243582   6.590   4.153  11.725  0.3347  0.4578  0.2113
 7364TIP3    H143583   6.517   4.168  11.784  1.0189  1.0762  0.9186
 7364TIP3    H243584   6.610   4.239  11.688  0.4395  0.2188 -0.3050
 7365TIP3   OH243585   0.810   2.698  15.402 -0.1702 -0.3257 -0.0428
 7365TIP3    H143586   0.883   2.652  15.360  0.7430 -0.8037  1.9785
 7365TIP3    H243587   0.783   2.641  15.474 -1.3626  0.6883  0.3549
 7366TIP3   OH243588   5.918   1.586  14.075 -0.2983  0.8285 -0.3897
 7366TIP3    H143589   6.011   1.593  14.095 -0.0024 -1.6693 -0.6274
 7366TIP3    H243590   5.915   1.561  13.983 -1.2994  2.2719 -0.7937
 7367TIP3   OH243591   3.274   2.596   1.275 -0.0477  0.1540 -0.4593
 7367TIP3    H143592   3.314   2.678   1.245 -0.7646 -0.1356 -2.3434
 7367TIP3    H243593   3.221   2.622   1.351  0.8499  1.1637 -0.1539
 7368TIP3   OH243594   6.540   6.817   0.657 -0.2345  0.3999  0.3718
 7368TIP3    H143595   6.567   6.730   0.687  0.7185  1.1862  1.9863
 7368TIP3    H243596   6.578   6.877   0.722 -2.1454  1.9249  0.1780
 7369TIP3   OH243597   2.612   5.232  14.871  0.0150  0.1017 -0.2395
 7369TIP3    H143598   2.581   5.283  14.797 -0.2575  0.0801 -0.1404
 7369TIP3    H243599   2.539   5.175  14.894  0.6534 -1.0678 -0.9952
 7370TIP3   OH243600   5.682   1.128   2.644 -0.2739 -0.0248  0.1306
 7370TIP3    H143601   5.677   1.088   2.557  0.6631 -0.6095  0.3293
 7370TIP3    H243602   5.634   1.210   2.635 -0.0686 -0.0028 -0.9778
 7371TIP3   OH243603   4.704   4.798  12.788  0.1143 -0.2436 -0.2086
 7371TIP3    H143604   4.744   4.886  12.791  0.9594 -0.6343  0.7254
 7371TIP3    H243605   4.745   4.756  12.712  1.7460 -0.7286  0.8904
 7372TIP3   OH243606   3.426   2.769   2.007 -0.3539  0.4378  0.4894
 7372TIP3    H143607   3.377   2.693   1.975 -0.8466  1.2230 -0.6732
 7372TIP3    H243608   3.508   2.767   1.957 -0.3296  0.6189  0.5221
 7373TIP3   OH243609   6.071   0.185   0.796  0.6862  0.5384 -0.0150
 7373TIP3    H143610   6.038   0.197   0.707 -0.8508  2.1790  0.7175
 7373TIP3    H243611   6.125   0.262   0.812  1.1981  0.1048  0.3726
 7374TIP3   OH243612   2.603   3.017   1.463 -0.2057  0.4903 -0.4657
 7374TIP3    H143613   2.520   3.066   1.464  0.2879  1.3582 -0.7787
 7374TIP3    H243614   2.605   2.971   1.547 -0.8189  0.7761 -0.2882
 7375TIP3   OH243615   0.236   6.403   1.252  0.1937 -0.3158 -0.0003
 7375TIP3    H143616   0.207   6.460   1.181  0.1167  1.7086  1.5499
 7375TIP3    H243617   0.159   6.393   1.307  0.7994 -0.0021  0.9281
 7376TIP3   OH243618   5.545   6.941   2.478 -0.3106 -0.4574  0.2865
 7376TIP3    H143619   5.608   6.884   2.521  0.6195  0.9376  0.8460
 7376TIP3    H243620   5.509   6.888   2.407  1.7096 -1.2222 -0.2304
 7377TIP3   OH243621   0.855   2.350  10.187 -0.0361 -0.3797  0.2270
 7377TIP3    H143622   0.945   2.342  10.154  0.1597  1.0558  0.3413
 7377TIP3    H243623   0.804   2.377  10.110 -0.2663 -0.6532  0.2838
 7378TIP3   OH243624   3.230   5.578  15.032  0.0181 -0.5835  0.2615
 7378TIP3    H143625   3.210   5.585  14.938  0.2938 -0.5679  0.2046
 7378TIP3    H243626   3.320   5.608  15.039  0.8434 -2.8886  0.1951
 7379TIP3   OH243627   2.817   2.475  11.473 -0.1089  0.2586  0.4595
 7379TIP3    H143628   2.800   2.411  11.543 -0.3496  0.5025  0.6272
 7379TIP3    H243629   2.912   2.479  11.466 -0.0827 -1.0553 -0.4155
 7380TIP3   OH243630   3.672   1.324   1.813  0.2457 -0.2392  0.9609
 7380TIP3    H143631   3.595   1.296   1.862  0.5670 -1.5373  0.7657
 7380TIP3    H243632   3.741   1.333   1.879  0.0897  0.3153  1.0520
 7381TIP3   OH243633   4.228   2.129   0.308  0.0504  0.2414 -0.3559
 7381TIP3    H143634   4.269   2.047   0.335 -0.6625 -0.2700 -0.8015
 7381TIP3    H243635   4.137   2.121   0.337  0.2993  1.4928  0.9020
 7382TIP3   OH243636   3.846   7.008  10.855  0.0929  0.0209 -0.3232
 7382TIP3    H143637   3.750   7.015  10.853  0.0449 -0.7380 -1.7301
 7382TIP3    H243638   3.873   7.078  10.914 -1.2754  0.8026 -0.5656
 7383TIP3   OH243639   6.217   2.491   3.261 -0.3670  0.1496 -0.4155
 7383TIP3    H143640   6.279   2.559   3.232 -3.7383  2.8427 -2.1663
 7383TIP3    H243641   6.185   2.523   3.345 -1.2579  0.2229 -0.7794
 7384TIP3   OH243642   6.668   2.830  10.135  0.1634  0.0268 -0.3074
 7384TIP3    H143643   6.629   2.781  10.207 -2.2891 -0.0788 -1.5948
 7384TIP3    H243644   6.759   2.801  10.132 -0.5594 -2.5753  0.5506
 7385TIP3   OH243645   4.761   6.295   0.792 -0.0272  0.6654 -0.0396
 7385TIP3    H143646   4.796   6.236   0.726 -0.8920  0.4329 -0.3077
 7385TIP3    H243647   4.812   6.375   0.782  0.3951  0.3512 -0.4371
 7386TIP3   OH243648   6.662   6.331  10.746 -0.5860 -0.0266 -0.4445
 7386TIP3    H143649   6.647   6.320  10.652 -0.2748 -0.1467 -0.4819
 7386TIP3    H243650   6.696   6.247  10.775 -2.1675 -0.4975  0.0932
 7387TIP3   OH243651   0.657   4.056  10.324  0.7809 -0.4195  0.3428
 7387TIP3    H143652   0.625   3.967  10.306  0.7501 -0.3267 -0.0688
 7387TIP3    H243653   0.694   4.085  10.240 -1.3917  0.8853 -0.2481
 7388TIP3   OH243654   3.159   4.521   0.757 -0.2919  0.3422  0.3384
 7388TIP3    H143655   3.220   4.558   0.693 -0.7359  0.3771 -0.0711
 7388TIP3    H243656   3.120   4.598   0.799 -2.2687  0.4476 -1.4979
 7389TIP3   OH243657   2.237   5.728  14.832  0.5535  0.2549 -0.9995
 7389TIP3    H143658   2.270   5.814  14.857  0.6694 -0.5794  2.1257
 7389TIP3    H243659   2.306   5.667  14.859 -0.7288 -1.0137 -0.4467
 7390TIP3   OH243660   5.699   0.532  14.774  0.2454 -0.4886 -0.5560
 7390TIP3    H143661   5.733   0.487  14.851 -0.8516 -0.5163 -0.0676
 7390TIP3    H243662   5.647   0.604  14.810  0.4170  0.0054 -1.2878
 7391TIP3   OH243663   0.312   0.719  14.682 -0.0976  0.0395  0.1100
 7391TIP3    H143664   0.270   0.635  14.665  0.0922  0.2873 -1.7600
 7391TIP3    H243665   0.257   0.761  14.748  0.1554 -1.7837  1.5502
 7392TIP3   OH243666   6.141   0.670  14.522  0.0651  0.9776 -0.2754
 7392TIP3    H143667   6.161   0.763  14.521 -0.8416  1.1817 -1.0034
 7392TIP3    H243668   6.063   0.662  14.578  0.9209  0.4664  0.8883
 7393TIP3   OH243669   0.211   2.663  11.790  0.0070 -0.0440 -0.4443
 7393TIP3    H143670   0.270   2.732  11.759  0.0054 -0.4289 -1.3523
 7393TIP3    H243671   0.267   2.601  11.836  0.1255  0.1709 -0.2970
 7394TIP3   OH243672   5.136   0.834  14.656  0.6609  0.0506 -0.2632
 7394TIP3    H143673   5.072   0.884  14.708  1.4279 -1.0972  1.9395
 7394TIP3    H243674   5.188   0.788  14.722  1.0799 -2.3005 -2.1232
 7395TIP3   OH243675   3.933   6.672  14.529  0.8947  0.1832 -0.0902
 7395TIP3    H143676   3.896   6.630  14.452  1.5497 -2.0454  0.7505
 7395TIP3    H243677   3.868   6.740  14.552  0.3949  0.4919 -2.1788
 7396TIP3   OH243678   6.922   0.261  13.272 -0.4022 -0.2002  0.1403
 7396TIP3    H143679   6.926   0.333  13.208 -1.0647  2.1050  2.5112
 7396TIP3    H243680   6.833   0.226  13.262 -1.4414  1.8587  1.3998
 7397TIP3   OH243681   5.098   7.154   2.041 -0.7228 -0.1270  0.7445
 7397TIP3    H143682   5.028   7.093   2.066 -1.3350  0.9121  1.6209
 7397TIP3    H243683   5.082   7.172   1.948 -0.9757 -0.7266  0.6668
 7398TIP3   OH243684   5.097   1.039   0.326  0.2327 -0.3753 -0.5851
 7398TIP3    H143685   5.192   1.047   0.322  0.4368 -1.0184  1.6683
 7398TIP3    H243686   5.066   1.072   0.242  2.3095  1.8295 -0.5706
 7399TIP3   OH243687   0.910   2.315  13.730 -0.0816 -0.5015 -0.7008
 7399TIP3    H143688   0.867   2.306  13.815  1.1534  0.2350  0.0223
 7399TIP3    H243689   0.953   2.231  13.715 -0.2425 -0.6076 -0.5639
 7400TIP3   OH243690   6.981   6.768   1.030  0.3144 -0.0221  0.1102
 7400TIP3    H143691   6.997   6.857   1.060  1.6121 -0.2768  0.2528
 7400TIP3    H243692   7.047   6.753   0.962 -1.1208 -0.2411 -1.2888
 7401TIP3   OH243693   0.664   5.841  13.882  0.0909  0.4569 -0.3173
 7401TIP3    H143694   0.738   5.826  13.823  1.3666 -0.0515  1.3322
 7401TIP3    H243695   0.637   5.753  13.908 -1.4234  0.6211 -1.2507
 7402TIP3   OH243696   2.503   3.527  11.706  0.5061  0.0859  0.4812
 7402TIP3    H143697   2.509   3.456  11.770  2.0872  0.0332  0.2956
 7402TIP3    H243698   2.409   3.545  11.700 -0.0352 -2.4644  0.0174
 7403TIP3   OH243699   5.941   6.902  13.356 -0.6313  0.8272 -0.4225
 7403TIP3    H143700   6.004   6.902  13.284  1.0442 -0.4913  0.9642
 7403TIP3    H243701   5.856   6.912  13.313  0.4373  2.1180 -2.4038
 7404TIP3   OH243702   0.018   2.352   3.074  0.4620 -0.1577  0.3260
 7404TIP3    H143703   0.029   2.444   3.099 -1.0871  0.4343 -1.0565
 7404TIP3    H243704  -0.061   2.324   3.119 -0.3457 -0.1213 -1.0228
 7405TIP3   OH243705   2.006   4.059  10.048  0.3281  0.1322 -0.7044
 7405TIP3    H143706   1.994   4.147  10.010  1.4106  0.3696 -0.5189
 7405TIP3    H243707   2.009   4.074  10.142 -2.1391 -0.4331 -0.4566
 7406TIP3   OH243708   3.538   6.926   9.777  0.2552  0.2962  0.5887
 7406TIP3    H143709   3.605   6.946   9.711  0.7171  2.4555  1.6211
 7406TIP3    H243710   3.564   6.841   9.812  0.2904 -0.6652 -1.6131
 7407TIP3   OH243711   3.965   3.198   3.878 -0.0015 -0.2101  0.6532
 7407TIP3    H143712   3.927   3.127   3.827  0.4071 -0.1033  0.1849
 7407TIP3    H243713   4.018   3.155   3.945  0.0138 -0.3503  0.5512
 7408TIP3   OH243714   6.791   6.726   1.251  0.0216 -0.1122  0.7444
 7408TIP3    H143715   6.822   6.808   1.211 -1.1596  0.1352  0.3069
 7408TIP3    H243716   6.728   6.691   1.188  1.9925 -2.4568 -0.0943
 7409TIP3   OH243717   4.091   1.953  14.638 -0.2316 -0.3721 -0.2589
 7409TIP3    H143718   4.125   2.028  14.688  1.5152 -1.5207  0.3693
 7409TIP3    H243719   4.026   1.913  14.696 -2.3140  1.4591 -1.1985
 7410TIP3   OH243720   4.617   0.842   5.028 -0.1860 -0.1433  0.0015
 7410TIP3    H143721   4.650   0.797   4.950 -0.0199  1.3091 -0.8064
 7410TIP3    H243722   4.523   0.828   5.026 -0.2371  0.2650 -0.7187
 7411TIP3   OH243723   4.806   7.046  11.807 -0.2629  0.2898  0.5302
 7411TIP3    H143724   4.817   6.955  11.779 -0.2060 -0.5139  2.8916
 7411TIP3    H243725   4.717   7.051  11.840 -0.6260  1.4206 -0.5365
 7412TIP3   OH243726   0.400   0.936   2.154  0.1078  0.3845  0.0593
 7412TIP3    H143727   0.347   0.987   2.215  0.0064  1.1802 -0.6747
 7412TIP3    H243728   0.336   0.885   2.104  0.1429  0.2208  0.1814
 7413TIP3   OH243729   4.318   3.069   1.795  0.2734  0.4894 -0.2537
 7413TIP3    H143730   4.244   3.128   1.813 -1.0642 -0.5981 -1.8583
 7413TIP3    H243731   4.330   3.021   1.877 -1.7999 -0.3067 -0.3350
 7414TIP3   OH243732   6.947   4.858  14.361  0.3249 -0.5753  0.2650
 7414TIP3    H143733   6.974   4.920  14.429  1.4847 -0.8583  0.0833
 7414TIP3    H243734   6.926   4.778  14.409  0.0499 -0.4260  0.3914
 7415TIP3   OH243735   6.081   0.281  11.504 -0.0031  0.3139  0.3107
 7415TIP3    H143736   6.173   0.257  11.513 -0.0465  0.8289  2.6402
 7415TIP3    H243737   6.035   0.197  11.498  0.4805  0.0110  0.7891
 7416TIP3   OH243738   3.662   7.102   1.755  1.0428 -0.2655 -0.1617
 7416TIP3    H143739   3.740   7.157   1.755  0.7210  0.2048 -0.6460
 7416TIP3    H243740   3.591   7.160   1.725  0.4690 -0.6303  0.4543
 7417TIP3   OH243741   2.131   6.117  13.601  0.1962  0.4669  0.1629
 7417TIP3    H143742   2.134   6.149  13.691  0.5407  1.5355 -0.2154
 7417TIP3    H243743   2.077   6.181  13.554 -0.2237 -0.2343 -0.3308
 7418TIP3   OH243744   6.945   6.899   1.736 -0.2859  0.4421  0.0856
 7418TIP3    H143745   6.983   6.858   1.658 -0.3947 -1.4719  0.9692
 7418TIP3    H243746   6.870   6.843   1.759 -1.1454  1.7889  0.7492
 7419TIP3   OH243747   5.706   4.559   0.965 -0.0207  0.1641  1.0677
 7419TIP3    H143748   5.663   4.613   0.898 -1.7007 -1.2165  0.9629
 7419TIP3    H243749   5.784   4.524   0.922 -0.3072  0.4464  0.3041
 7420TIP3   OH243750   4.751   1.836  11.019  0.3174 -0.5089  0.0364
 7420TIP3    H143751   4.808   1.910  11.039  0.6294 -1.3374  2.5102
 7420TIP3    H243752   4.665   1.863  11.052 -0.1391 -0.3261 -1.2515
 7421TIP3   OH243753   2.644   6.788  12.221 -0.2936 -0.8050  0.4292
 7421TIP3    H143754   2.598   6.712  12.187 -0.0007 -1.2868  1.0887
 7421TIP3    H243755   2.700   6.753  12.290  1.1400 -0.2498 -0.4177
 7422TIP3   OH243756   6.865   7.026  12.799 -0.3797  0.2570 -0.2147
 7422TIP3    H143757   6.867   7.086  12.873  3.3137  0.1322 -0.0278
 7422TIP3    H243758   6.844   6.941  12.836 -0.1933  0.4907  0.4329
 7423TIP3   OH243759   1.702   2.498   2.371 -0.3771 -0.3953  0.1720
 7423TIP3    H143760   1.674   2.487   2.462 -1.2929 -0.2429 -0.0723
 7423TIP3    H243761   1.687   2.591   2.352 -1.0232 -0.5995 -0.3835
 7424TIP3   OH243762   1.091   4.463  12.446 -0.7886 -0.8185  0.0251
 7424TIP3    H143763   1.158   4.407  12.485 -0.3048  0.8541  1.7198
 7424TIP3    H243764   1.055   4.513  12.519 -0.3971  1.9089 -1.4982
 7425TIP3   OH243765   3.168   3.122  13.312 -0.3459 -0.3503 -0.0623
 7425TIP3    H143766   3.234   3.188  13.332 -1.7713  1.0262  0.3349
 7425TIP3    H243767   3.125   3.105  13.396  0.5679 -2.5089  0.0432
 7426TIP3   OH243768   7.059   5.933  11.865  0.3810 -0.2856  0.6196
 7426TIP3    H143769   6.980   5.947  11.814  0.4202  0.5762  0.7865
 7426TIP3    H243770   7.060   6.005  11.929  2.3457  0.9312 -0.6799
 7427TIP3   OH243771   2.385   3.113   0.900  0.0596 -0.4615  0.3653
 7427TIP3    H143772   2.359   3.103   0.808  1.3567  3.2316 -0.5699
 7427TIP3    H243773   2.460   3.055   0.909  1.9991  1.4261 -2.0165
 7428TIP3   OH243774   2.256   6.268  12.379  0.0845 -0.3423  0.2880
 7428TIP3    H143775   2.334   6.296  12.332  0.3938 -1.9283 -0.1974
 7428TIP3    H243776   2.279   6.183  12.416 -0.3985  0.5109  2.7595
 7429TIP3   OH243777   2.837   3.867  11.945 -0.2872 -0.3423 -0.3624
 7429TIP3    H143778   2.844   3.782  11.989 -0.1787  0.4627  1.2664
 7429TIP3    H243779   2.760   3.859  11.889  0.0339 -1.6721 -0.6595
 7430TIP3   OH243780   6.079   0.008  14.639  0.2114 -0.5393  0.0932
 7430TIP3    H143781   6.104   0.032  14.728 -0.6280  0.4373  0.0857
 7430TIP3    H243782   6.092  -0.087  14.635  3.0754 -0.2296  0.3099
 7431TIP3   OH243783   2.136   6.277   3.934  0.1009  0.4337 -0.2313
 7431TIP3    H143784   2.206   6.260   3.872  0.0274  0.6199 -0.3658
 7431TIP3    H243785   2.176   6.330   4.003  0.3241 -0.2386  0.1745
 7432TIP3   OH243786   6.659   2.172   1.672 -0.6400 -0.1409 -0.0679
 7432TIP3    H143787   6.727   2.204   1.612  0.7094  0.8020  1.8451
 7432TIP3    H243788   6.645   2.081   1.646  1.8291 -0.5572 -0.1955
 7433TIP3   OH243789   4.967   2.932  11.658  0.3251  0.3082 -0.2743
 7433TIP3    H143790   4.875   2.909  11.643  0.5502 -0.0069 -1.2229
 7433TIP3    H243791   4.971   2.954  11.751 -0.7789  0.6424 -0.2890
 7434TIP3   OH243792   6.274   0.766  14.144 -0.4564 -0.2178  0.5689
 7434TIP3    H143793   6.355   0.718  14.128 -0.2959  0.1768  0.1970
 7434TIP3    H243794   6.205   0.703  14.125 -0.2394 -0.5609  0.9004
 7435TIP3   OH243795   1.439   2.776  15.379 -0.2518  0.2217  0.4130
 7435TIP3    H143796   1.479   2.788  15.465 -1.9904  0.8092  1.1681
 7435TIP3    H243797   1.439   2.682  15.365 -0.4851  0.0774  1.3252
 7436TIP3   OH243798   7.165   6.723   0.849 -0.0916 -0.3144  0.2515
 7436TIP3    H143799   7.160   6.808   0.804  1.7385 -0.4800 -0.3280
 7436TIP3    H243800   7.207   6.665   0.786 -1.9858 -1.9015  0.3543
 7437TIP3   OH243801   1.310   2.215   1.071  0.1793 -0.4122  0.1081
 7437TIP3    H143802   1.272   2.202   1.158  0.5861 -1.3384  0.1551
 7437TIP3    H243803   1.248   2.175   1.011 -0.2614  0.5114 -0.0726
 7438TIP3   OH243804   5.218   1.705  10.098 -0.1187 -0.1187 -0.4676
 7438TIP3    H143805   5.254   1.735  10.181 -0.0663 -0.7818 -0.2409
 7438TIP3    H243806   5.151   1.769  10.076 -0.4657 -0.1976  0.3295
 7439TIP3   OH243807   6.185   3.921  14.397 -0.3171  0.1592  0.2055
 7439TIP3    H143808   6.149   4.010  14.391  0.4092  0.3616 -2.1305
 7439TIP3    H243809   6.174   3.885  14.309  1.2527 -1.3473  0.5795
 7440TIP3   OH243810   6.145   2.100   3.466 -0.1713 -0.3104  0.0090
 7440TIP3    H143811   6.111   2.067   3.382 -1.0439  0.7906 -0.0976
 7440TIP3    H243812   6.073   2.086   3.527  0.1097 -0.2216  0.3589
 7441TIP3   OH243813   4.491   0.176  13.874  0.0311 -0.6863  0.7499
 7441TIP3    H143814   4.506   0.240  13.943 -1.7001 -1.3743  1.8210
 7441TIP3    H243815   4.400   0.188  13.849  0.5846 -0.5300 -1.3888
 7442TIP3   OH243816   6.960   3.230  13.961 -0.0220 -0.4379  0.0795
 7442TIP3    H143817   7.023   3.170  13.920  1.0998  0.5577  0.2772
 7442TIP3    H243818   6.938   3.189  14.044  0.9080 -0.4714  0.3181
 7443TIP3   OH243819   2.533   1.762  13.510  0.3968  0.4350  0.1669
 7443TIP3    H143820   2.605   1.792  13.565  1.0655  0.4653 -0.6937
 7443TIP3    H243821   2.575   1.740  13.427 -0.6908  1.1070 -0.5825
 7444TIP3   OH243822   0.161   6.531   1.733  0.4531 -0.0996 -0.3114
 7444TIP3    H143823   0.167   6.619   1.771 -2.0981  0.9301 -1.9989
 7444TIP3    H243824   0.244   6.489   1.757 -0.2686  0.8135  5.0149
 7445TIP3   OH243825   6.176   5.665  15.208 -0.0038 -0.1989  0.1968
 7445TIP3    H143826   6.270   5.666  15.191 -0.0215 -1.5723 -0.1106
 7445TIP3    H243827   6.168   5.632  15.297 -0.2258 -1.0718 -0.1427
 7446TIP3   OH243828   5.970   7.013  11.896 -0.1989  0.3235  0.0067
 7446TIP3    H143829   5.948   6.954  11.824  3.7110 -2.5542  0.8343
 7446TIP3    H243830   5.887   7.026  11.943 -1.6704 -2.9636 -1.3862
 7447TIP3   OH243831   2.433   7.167   4.281  0.0552 -0.1421 -0.5785
 7447TIP3    H143832   2.484   7.245   4.303 -1.1613 -0.0554  2.3964
 7447TIP3    H243833   2.342   7.195   4.292 -0.4106 -1.8484  0.0875
 7448TIP3   OH243834   5.062   2.606  13.357  0.0233  0.2953 -0.5063
 7448TIP3    H143835   5.123   2.649  13.418 -0.1925 -1.3170  0.9182
 7448TIP3    H243836   4.978   2.607  13.403 -0.3601 -0.1124 -1.1944
 7449TIP3   OH243837   7.058   1.862   2.130  0.1958 -0.4128 -0.2715
 7449TIP3    H143838   7.138   1.900   2.165 -1.2029  1.6094  0.8969
 7449TIP3    H243839   7.006   1.839   2.207 -0.5899 -1.1667 -1.0019
 7450TIP3   OH243840   5.132   0.796  15.152 -0.2293 -0.1035  0.3910
 7450TIP3    H143841   5.044   0.770  15.180 -1.1783  1.1907 -1.1694
 7450TIP3    H243842   5.134   0.776  15.058  0.9099  0.4785  0.2714
 7451TIP3   OH243843   7.034   6.082   2.152 -0.4597 -0.2470  0.2755
 7451TIP3    H143844   7.057   6.069   2.060 -1.1628 -2.3105  0.3447
 7451TIP3    H243845   6.967   6.150   2.151  0.5997  0.8405 -0.5555
 7452TIP3   OH243846   1.155   3.176  11.383  0.0632  0.1078  0.1133
 7452TIP3    H143847   1.248   3.167  11.367  0.0180  0.5513 -0.4347
 7452TIP3    H243848   1.135   3.109  11.449  0.8015  0.1584  0.3993
 7453TIP3   OH243849   0.065   2.462  13.088  0.1127  0.0088  0.1296
 7453TIP3    H143850   0.129   2.488  13.021 -0.0897 -1.9481 -0.9060
 7453TIP3    H243851   0.034   2.376  13.059 -0.5482 -0.5716  2.3606
 7454TIP3   OH243852   2.550   3.171  14.635  0.4793  0.4095  0.2039
 7454TIP3    H143853   2.633   3.158  14.588  0.3579  1.4548 -0.3279
 7454TIP3    H243854   2.501   3.232  14.580  0.0160  1.0590  1.3086
 7455TIP3   OH243855   4.485   2.155   3.739 -0.1034 -0.7238  0.3968
 7455TIP3    H143856   4.579   2.166   3.750 -0.2104  1.9348 -0.5269
 7455TIP3    H243857   4.446   2.217   3.800 -1.2097 -0.8320 -0.1671
 7456TIP3   OH243858   1.253   2.426   0.641 -0.2395  0.2751 -0.4650
 7456TIP3    H143859   1.254   2.353   0.580 -0.9655  0.0589 -0.2302
 7456TIP3    H243860   1.324   2.408   0.703  0.6984  0.6503 -1.4064
 7457TIP3   OH243861   5.510   5.917  13.474 -0.4283 -0.4998 -0.1242
 7457TIP3    H143862   5.584   5.972  13.499 -0.3068  0.0963 -1.6659
 7457TIP3    H243863   5.546   5.858  13.407 -1.1602 -0.7640 -0.2942
 7458TIP3   OH243864   2.293   0.282  10.109  0.6406  0.0355  0.2937
 7458TIP3    H143865   2.222   0.293  10.047  0.1082  0.0903  0.9003
 7458TIP3    H243866   2.331   0.370  10.118  1.5382 -0.2081 -0.8953
 7459TIP3   OH243867   3.763   0.234  14.900  0.5095 -0.0738 -0.0161
 7459TIP3    H143868   3.823   0.261  14.969 -0.3200  1.4188  0.1534
 7459TIP3    H243869   3.792   0.283  14.822 -1.1079  1.5668  0.3352
 7460TIP3   OH243870   1.738   7.189   1.899  0.0984 -0.1248 -0.2054
 7460TIP3    H143871   1.696   7.222   1.820 -2.4120 -0.3199  0.9471
 7460TIP3    H243872   1.819   7.240   1.906 -0.9711  1.8873 -1.4133
 7461TIP3   OH243873   5.846   2.555  12.327  0.0911  0.3545 -0.2704
 7461TIP3    H143874   5.757   2.588  12.319 -0.6704 -1.5632 -0.2851
 7461TIP3    H243875   5.895   2.628  12.365 -1.2512  1.7725 -1.1514
 7462TIP3   OH243876   3.088   2.642   5.446 -0.0180 -0.3588 -0.7457
 7462TIP3    H143877   3.134   2.559   5.432  2.9581  0.9996  0.1808
 7462TIP3    H243878   3.146   2.708   5.408 -1.5084  1.4622 -0.0034
 7463TIP3   OH243879   5.575   5.833  14.006 -0.0297  0.5013  0.2080
 7463TIP3    H143880   5.602   5.921  13.979 -0.8980  0.3989 -1.0501
 7463TIP3    H243881   5.619   5.775  13.944  0.0530  0.0706  0.6632
 7464TIP3   OH243882   0.827   5.015   4.825  0.1435 -0.5738  0.0546
 7464TIP3    H143883   0.778   4.933   4.825 -0.5751 -0.1559  0.3605
 7464TIP3    H243884   0.836   5.037   4.918 -0.0230 -0.0993 -0.0404
 7465TIP3   OH243885   1.218   3.494   5.133  0.3132 -0.1705  0.4506
 7465TIP3    H143886   1.170   3.519   5.212 -0.0663  0.0729  0.1480
 7465TIP3    H243887   1.271   3.419   5.159 -0.2289 -0.4382  0.7937
 7466TIP3   OH243888   1.711   1.762   9.400  0.3876  0.2037  0.0731
 7466TIP3    H143889   1.685   1.676   9.434  1.4538  0.4934  1.7022
 7466TIP3    H243890   1.803   1.752   9.377  0.5195  0.9149  0.2820
 7467TIP3   OH243891   0.857   5.596  12.048  0.5477  0.1729 -0.0142
 7467TIP3    H143892   0.811   5.521  12.086  0.7177 -0.4188 -0.9546
 7467TIP3    H243893   0.789   5.662  12.033  0.2666 -0.1042  0.0451
 7468TIP3   OH243894   3.187   3.894  11.964  0.3832 -0.2890  0.0170
 7468TIP3    H143895   3.165   3.973  12.014  1.7963  0.1644 -0.0314
 7468TIP3    H243896   3.128   3.896  11.888 -0.0131  0.3814  0.3340
 7469TIP3   OH243897   0.950   1.921   4.323  0.3125  0.3231 -0.6115
 7469TIP3    H143898   0.990   1.857   4.265 -2.9015 -1.2633 -1.2931
 7469TIP3    H243899   0.964   1.886   4.411 -0.3822 -0.6968 -0.8999
 7470TIP3   OH243900   6.127   3.148  12.826 -0.2813 -0.0992  0.1867
 7470TIP3    H143901   6.116   3.240  12.847  0.5175 -0.4477  2.3869
 7470TIP3    H243902   6.100   3.102  12.906  1.3047 -1.6563 -0.1155
 7471TIP3   OH243903   0.142   4.472  13.739  0.2949  0.1016  0.5228
 7471TIP3    H143904   0.166   4.551  13.692  0.9919  0.1810  0.9886
 7471TIP3    H243905   0.148   4.402  13.674  0.9713  0.2488  0.4167
 7472TIP3   OH243906   1.722   3.528   0.766 -0.4106  0.3084  0.1310
 7472TIP3    H143907   1.713   3.623   0.758 -2.1463  0.0673 -1.5342
 7472TIP3    H243908   1.741   3.498   0.677 -0.5829 -0.9632  0.5063
 7473TIP3   OH243909   0.043   2.261   1.979  0.5042  0.2919 -0.0530
 7473TIP3    H143910   0.121   2.249   2.033  1.4081 -1.4086 -1.6169
 7473TIP3    H243911   0.078   2.287   1.893 -0.8087  1.7744 -0.1832
 7474TIP3   OH243912   6.220   4.652  14.564 -0.1700 -0.2721  0.1756
 7474TIP3    H143913   6.265   4.650  14.479  3.3993 -0.1319  1.8825
 7474TIP3    H243914   6.287   4.628  14.627 -2.1066  1.6306  3.2166
 7475TIP3   OH243915   7.014   5.895   2.482  0.0743 -0.0652 -0.0073
 7475TIP3    H143916   6.946   5.863   2.424 -0.2484 -0.1773  0.4262
 7475TIP3    H243917   7.082   5.929   2.424 -1.4065  2.3200 -0.4416
 7476TIP3   OH243918   3.317   4.581   2.853  0.3661  0.5082  0.5162
 7476TIP3    H143919   3.335   4.673   2.874 -0.1268  0.6828  0.1990
 7476TIP3    H243920   3.234   4.563   2.896  0.0467  0.4602 -0.1074
 7477TIP3   OH243921   6.692   1.540   0.085  0.0790  0.4756  0.0877
 7477TIP3    H143922   6.624   1.560   0.149  0.2023  0.3985  0.2428
 7477TIP3    H243923   6.687   1.445   0.073  0.4057  0.4195  0.3782
 7478TIP3   OH243924   5.363   6.281  13.455 -0.3568  0.0536 -0.3445
 7478TIP3    H143925   5.388   6.334  13.530 -1.3133  0.0756 -0.0389
 7478TIP3    H243926   5.305   6.214  13.490 -0.9090  0.1368 -1.0799
 7479TIP3   OH243927   0.416   0.181  15.378  0.4131 -0.2559  0.1177
 7479TIP3    H143928   0.457   0.151  15.460 -2.5523 -0.0140  1.8200
 7479TIP3    H243929   0.446   0.271  15.368  0.4447 -0.1347  1.2017
 7480TIP3   OH243930   0.645   4.530  10.650  0.2124 -0.0929 -0.4606
 7480TIP3    H143931   0.596   4.450  10.634 -1.7251  0.8042  0.5571
 7480TIP3    H243932   0.593   4.599  10.607  0.8028  0.8472  0.2812
 7481TIP3   OH243933   6.262   5.888  13.847  0.4462 -0.0865  0.3323
 7481TIP3    H143934   6.231   5.967  13.802  0.3155 -0.8943 -1.0564
 7481TIP3    H243935   6.339   5.917  13.896 -0.8922  1.3755  1.6984
 7482TIP3   OH243936   1.735   1.903  12.854  0.4396 -0.4028  0.1391
 7482TIP3    H143937   1.706   1.981  12.899 -1.5341 -0.9247 -0.1332
 7482TIP3    H243938   1.689   1.831  12.897  1.2734 -1.2847 -0.3888
 7483TIP3   OH243939   6.762   2.294   2.132  0.2785  0.1678 -0.1231
 7483TIP3    H143940   6.751   2.323   2.223  0.3428 -1.2828  0.3661
 7483TIP3    H243941   6.831   2.351   2.098 -0.9968  1.9745  0.1383
 7484TIP3   OH243942   3.023   7.192  14.905  0.6177 -0.2012 -0.4249
 7484TIP3    H143943   3.114   7.198  14.932  0.9561 -0.7135 -1.4056
 7484TIP3    H243944   3.026   7.148  14.820 -0.6057 -0.9833 -0.0864
 7485TIP3   OH243945   3.509   6.228  12.560 -0.2844 -0.6423  0.3276
 7485TIP3    H143946   3.444   6.183  12.614  1.3336 -2.3024  0.9513
 7485TIP3    H243947   3.526   6.310  12.606 -0.8283 -0.8623  0.9331
 7486TIP3   OH243948   1.343   2.510   1.387  0.5126 -0.3538 -0.6025
 7486TIP3    H143949   1.269   2.522   1.446  0.7722 -0.7668 -0.1932
 7486TIP3    H243950   1.302   2.497   1.301  0.1654  1.9314 -0.8600
 7487TIP3   OH243951   2.885   3.234   4.330 -0.4205  0.0969  0.0181
 7487TIP3    H143952   2.944   3.306   4.305  1.1859 -1.1017  0.1964
 7487TIP3    H243953   2.803   3.278   4.354 -0.2446  1.6817 -2.0244
 7488TIP3   OH243954   1.530   5.066   4.605  0.1682  0.0139  0.1786
 7488TIP3    H143955   1.531   5.121   4.526 -0.7113 -1.5303 -0.9748
 7488TIP3    H243956   1.622   5.056   4.628  0.3382  2.1381  0.5843
 7489TIP3   OH243957   2.392   3.817  15.411 -0.3118 -0.4133  0.0849
 7489TIP3    H143958   2.376   3.798  15.503 -0.5112  0.9254  0.3435
 7489TIP3    H243959   2.304   3.827  15.373 -0.2166  0.2849  0.0364
 7490TIP3   OH243960   2.216   5.022  12.083  0.3083  0.2128  0.5533
 7490TIP3    H143961   2.124   5.033  12.059  0.6382 -0.2713 -1.0769
 7490TIP3    H243962   2.252   5.111  12.083  0.0006  0.3382  0.5244
 7491TIP3   OH243963   4.091   3.420  11.727  0.1957  0.4362 -0.4660
 7491TIP3    H143964   4.072   3.326  11.733 -0.1014  0.3156 -2.7163
 7491TIP3    H243965   4.007   3.461  11.710  0.4850  1.0032 -0.5538
 7492TIP3   OH243966   2.236   5.110  13.801 -0.1247 -0.5835  0.7222
 7492TIP3    H143967   2.295   5.137  13.871 -0.0406 -0.2165  0.5082
 7492TIP3    H243968   2.163   5.172  13.806  0.3477  0.0619 -0.1463
 7493TIP3   OH243969   2.433   1.752  13.797  0.3176  0.0719  0.0474
 7493TIP3    H143970   2.436   1.747  13.701 -1.8497  2.6968 -0.2702
 7493TIP3    H243971   2.348   1.716  13.820 -0.1967  1.6527  0.7226
 7494TIP3   OH243972   1.002   1.126  14.843  0.1472  0.0696  0.4886
 7494TIP3    H143973   0.938   1.176  14.793  0.2906  0.4039  0.6406
 7494TIP3    H243974   0.962   1.039  14.851  0.4342 -0.2128 -0.8240
 7495TIP3   OH243975   0.691   2.433  13.618 -0.0961  0.2986  0.5809
 7495TIP3    H143976   0.764   2.379  13.647 -1.1313 -0.9145  1.0044
 7495TIP3    H243977   0.683   2.500  13.686  2.1153  1.9830 -0.6608
 7496TIP3   OH243978   0.350   5.314  15.158 -0.0159  0.8064 -0.0782
 7496TIP3    H143979   0.378   5.257  15.230 -1.1664 -1.1041 -1.0553
 7496TIP3    H243980   0.274   5.361  15.193 -0.2964  0.2182  0.1170
 7497TIP3   OH243981   2.893   5.781   0.608 -0.6611 -0.3860  0.2251
 7497TIP3    H143982   2.905   5.818   0.695  1.2682  0.9964 -0.5523
 7497TIP3    H243983   2.830   5.840   0.565 -1.7045 -1.1363  0.6847
 7498TIP3   OH243984   2.623   1.139  14.448 -0.2518 -0.0375 -0.5252
 7498TIP3    H143985   2.535   1.101  14.454  0.0983 -0.7180  0.8358
 7498TIP3    H243986   2.612   1.215  14.391 -1.4346 -0.8750 -1.4841
 7499TIP3   OH243987   3.319   3.194   4.625  0.2291 -0.7634 -0.3665
 7499TIP3    H143988   3.312   3.288   4.609  0.4678 -0.8469 -1.0014
 7499TIP3    H243989   3.236   3.157   4.594 -0.3945 -0.6257  1.0621
 7500TIP3   OH243990   0.646   6.902   0.223 -0.1129  0.4075  0.0265
 7500TIP3    H143991   0.554   6.920   0.242 -0.0299  0.6543  0.2011
 7500TIP3    H243992   0.694   6.958   0.284  0.1525  1.0537 -0.7557
 7501TIP3   OH243993   3.615   5.573   1.527  0.1440  0.1132 -0.2852
 7501TIP3    H143994   3.548   5.640   1.512 -0.9242 -0.8901 -0.0796
 7501TIP3    H243995   3.627   5.532   1.442 -0.8655 -0.9455  0.0711
 7502TIP3   OH243996   3.458   0.953  13.540 -0.1987  0.0227 -0.5996
 7502TIP3    H143997   3.409   0.933  13.620  0.6514  1.1751  0.2449
 7502TIP3    H243998   3.549   0.957  13.568  0.0963  0.6559 -1.5958
 7503TIP3   OH243999   0.232   5.861  13.150 -0.0016 -0.2821  0.4593
 7503TIP3    H144000   0.147   5.886  13.114  0.0785 -1.2052 -0.4222
 7503TIP3    H244001   0.241   5.914  13.230 -0.9543  0.5448  0.0429
 7504TIP3   OH244002   0.558   6.358  13.923  0.3077  0.0925 -0.3014
 7504TIP3    H144003   0.534   6.385  14.012  1.7777  1.0241 -0.1604
 7504TIP3    H244004   0.593   6.269  13.934 -2.9813 -1.3967 -0.5401
 7505TIP3   OH244005   2.782   0.506   3.892 -0.4373  0.1668 -0.3719
 7505TIP3    H144006   2.841   0.535   3.962 -0.0727 -0.7183 -0.3092
 7505TIP3    H244007   2.819   0.423   3.862  0.5526  1.4383 -2.9564
 7506TIP3   OH244008   1.505   6.820  12.416  0.0813  0.5047 -0.5787
 7506TIP3    H144009   1.503   6.832  12.511 -0.9556  0.4514 -0.5732
 7506TIP3    H244010   1.559   6.742  12.403  0.7530  0.8757 -0.0839
 7507TIP3   OH244011   6.145   4.895  14.728  0.4653  0.2401  0.7698
 7507TIP3    H144012   6.212   4.955  14.694 -0.8311  0.9974 -0.5399
 7507TIP3    H244013   6.128   4.834  14.657 -1.4148  1.0846  0.4432
 7508TIP3   OH244014   6.679   5.560  10.599  0.6080  0.3634  0.3304
 7508TIP3    H144015   6.612   5.578  10.533 -1.2369  0.2612  2.1140
 7508TIP3    H244016   6.738   5.497  10.556  0.2211  1.2779 -1.6477
 7509TIP3   OH244017   0.695   5.912   0.123 -0.5191 -0.0769 -0.3083
 7509TIP3    H144018   0.742   5.991   0.098 -1.7824  0.3595 -1.4313
 7509TIP3    H244019   0.614   5.915   0.072 -1.1269 -1.5033  0.5056
 7510TIP3   OH244020   0.977   0.629   0.247 -0.2767 -0.3363 -0.2635
 7510TIP3    H144021   0.947   0.714   0.280  2.8374  1.5728 -1.8386
 7510TIP3    H244022   0.926   0.616   0.166 -0.1223  0.5352 -0.5140
 7511TIP3   OH244023   3.140   0.499   0.442 -0.3675  0.2151  0.0327
 7511TIP3    H144024   3.205   0.567   0.454 -0.0029  0.0342 -0.8580
 7511TIP3    H244025   3.059   0.537   0.475  0.2432  0.3078  1.4926
 7512TIP3   OH244026   1.418   1.650  13.870  0.5368  0.3126 -0.8486
 7512TIP3    H144027   1.372   1.643  13.954 -0.5472  0.7521 -1.3969
 7512TIP3    H244028   1.511   1.657  13.895  0.2681  0.0992  0.2950
 7513TIP3   OH244029   2.814   2.934  12.620 -0.8489  0.3628 -0.2771
 7513TIP3    H144030   2.824   3.029  12.628  1.0540  0.1331  0.4141
 7513TIP3    H244031   2.902   2.902  12.599 -0.5093 -1.6305  3.4500
 7514TIP3   OH244032   2.117   2.962  15.073  0.1368  0.4200 -0.0037
 7514TIP3    H144033   2.207   2.993  15.086 -0.2534  1.5015  0.2520
 7514TIP3    H244034   2.102   2.903  15.147  1.3818 -1.6092 -1.2887
 7515TIP3   OH244035   6.462   4.116  12.219 -0.0415 -0.3883  0.3753
 7515TIP3    H144036   6.393   4.101  12.284 -0.5038 -0.5216 -0.1312
 7515TIP3    H244037   6.443   4.204  12.185  1.1529  0.3435  1.5479
 7516TIP3   OH244038   4.536   0.120  11.136 -0.0043 -0.4738 -0.3482
 7516TIP3    H144039   4.457   0.161  11.101 -1.0339 -0.8009  1.4685
 7516TIP3    H244040   4.512   0.028  11.146 -0.0504 -0.2662  1.8683
 7517TIP3   OH244041   4.178   3.306   4.828  0.0556  0.4131  0.0038
 7517TIP3    H144042   4.191   3.219   4.866  2.5236  0.8456  0.3134
 7517TIP3    H244043   4.133   3.290   4.745 -0.9306 -0.9817  0.7664
 7518TIP3   OH244044   5.995   2.624  13.511  0.2893 -0.2254  0.2777
 7518TIP3    H144045   6.043   2.581  13.440  0.8136 -0.1684  0.5849
 7518TIP3    H244046   5.938   2.687  13.468  1.3756  0.5757 -0.0500
 7519TIP3   OH244047   1.074   0.970  11.008  0.3565 -0.0136  0.0079
 7519TIP3    H144048   1.023   0.964  11.089 -0.3971 -0.2186 -0.4658
 7519TIP3    H244049   1.128   0.891  11.008 -0.0322 -0.2834  0.0542
 7520TIP3   OH244050   5.938   1.268   2.041  0.5704  0.0024  0.2527
 7520TIP3    H144051   6.022   1.257   2.087  0.2139  0.2482  0.9829
 7520TIP3    H244052   5.876   1.217   2.093  0.2590 -0.1711 -0.2829
 7521TIP3   OH244053   4.309   5.451  14.735  0.0220  0.0375 -0.2959
 7521TIP3    H144054   4.382   5.498  14.776 -1.2475  1.0361  0.9124
 7521TIP3    H244055   4.340   5.432  14.647  1.3813  1.3103 -0.1351
 7522TIP3   OH244056   0.027   7.165  14.029 -0.1623 -0.8763  0.0360
 7522TIP3    H144057   0.111   7.168  13.982  1.0610  0.3941  2.1411
 7522TIP3    H244058   0.052   7.151  14.121 -2.2059  0.1187  0.7980
 7523TIP3   OH244059   6.468   0.897   2.689  0.6060 -0.3146  0.0431
 7523TIP3    H144060   6.490   0.986   2.716 -3.8327  1.4305 -1.1094
 7523TIP3    H244061   6.452   0.849   2.771 -0.0105  0.9497  0.6874
 7524TIP3   OH244062   1.155   5.633  10.406  0.3665  0.3514  0.0083
 7524TIP3    H144063   1.208   5.692  10.352 -0.6133  0.1723 -1.2038
 7524TIP3    H244064   1.065   5.656  10.386 -0.0329 -1.0059  0.1214
 7525TIP3   OH244065   2.239   6.643  10.200 -0.1024  0.4970  0.0519
 7525TIP3    H144066   2.324   6.628  10.157  0.2372  2.6537 -0.1291
 7525TIP3    H244067   2.188   6.690  10.135 -1.4166 -0.6154  0.2389
 7526TIP3   OH244068   6.024   6.541  10.276 -0.4156  0.0894 -0.0762
 7526TIP3    H144069   6.109   6.573  10.306 -0.2449  0.0313 -0.4822
 7526TIP3    H244070   6.014   6.580  10.189 -0.8236  0.1293 -0.0111
 7527TIP3   OH244071   6.771   2.408  14.962 -0.0062  0.4694  0.2947
 7527TIP3    H144072   6.734   2.324  14.990  0.7049  0.0297 -0.0677
 7527TIP3    H244073   6.817   2.441  15.039 -0.8664  0.8641  0.6484
 7528TIP3   OH244074   4.710   5.375  10.338  0.0252  0.0564  0.4489
 7528TIP3    H144075   4.651   5.413  10.273  0.5196 -1.6145 -1.0429
 7528TIP3    H244076   4.653   5.353  10.412 -1.1359 -0.8692 -0.6738
 7529TIP3   OH244077   6.870   5.790   0.441  0.7073  0.4663  0.1717
 7529TIP3    H144078   6.792   5.821   0.396  1.0011  2.1215  0.7439
 7529TIP3    H244079   6.836   5.741   0.516  0.2189 -2.1900 -1.6168
 7530TIP3   OH244080   1.257   5.746  14.546 -0.2969  0.0623 -0.1684
 7530TIP3    H144081   1.351   5.749  14.563 -0.4871  1.0669  0.8448
 7530TIP3    H244082   1.232   5.656  14.564  0.5381 -0.3104 -0.8454
 7531TIP3   OH244083   2.805   6.428   1.030 -0.6835 -0.0749  0.5790
 7531TIP3    H144084   2.855   6.350   1.004  1.9169  1.3894  0.8918
 7531TIP3    H244085   2.804   6.483   0.951 -0.4462  0.5846  1.0320
 7532TIP3   OH244086   6.234   5.677  10.157 -0.6967 -0.5468  0.3474
 7532TIP3    H144087   6.183   5.693  10.237 -0.9350 -1.1418  0.3251
 7532TIP3    H244088   6.176   5.623  10.103 -0.6420  0.0963 -0.3518
 7533TIP3   OH244089   4.046   4.132  12.126  0.3372 -0.1992 -0.0643
 7533TIP3    H144090   4.109   4.144  12.197 -1.2848  1.9812  1.1241
 7533TIP3    H244091   4.071   4.049  12.085  1.8516 -1.1057  2.4949
 7534TIP3   OH244092   0.142   4.973   3.324 -0.1593 -0.3234 -0.1848
 7534TIP3    H144093   0.057   5.013   3.342 -0.9005 -1.9472  0.0484
 7534TIP3    H244094   0.122   4.887   3.287  1.3578  0.7095 -3.7879
 7535TIP3   OH244095   3.487   1.410  14.162  0.0441  0.4516 -0.1048
 7535TIP3    H144096   3.562   1.375  14.114  0.5322  0.7794  0.4038
 7535TIP3    H244097   3.432   1.451  14.095 -0.1460 -0.5698 -0.6047
 7536TIP3   OH244098   2.505   4.102  13.679 -0.0202  0.1080  0.1056
 7536TIP3    H144099   2.522   4.046  13.755  1.1369  1.4309  0.8669
 7536TIP3    H244100   2.569   4.073  13.613 -1.1943 -1.2129 -0.5084
 7537TIP3   OH244101   2.093   1.307   1.137  0.2556  0.7066  0.1466
 7537TIP3    H144102   2.161   1.339   1.196  2.7861  2.5893 -3.4188
 7537TIP3    H244103   2.128   1.322   1.050 -2.2204 -3.9096 -1.9983
 7538TIP3   OH244104   2.270   5.313  13.544 -0.2565 -0.0325 -0.2625
 7538TIP3    H144105   2.291   5.224  13.570  0.2726 -0.1116 -0.9220
 7538TIP3    H244106   2.177   5.310  13.519 -0.0097 -0.6047 -1.1275
 7539TIP3   OH244107   0.370   5.693   4.610 -0.1261  0.0820  0.8270
 7539TIP3    H144108   0.351   5.695   4.704 -1.9457 -2.0427  0.6040
 7539TIP3    H244109   0.404   5.605   4.594 -0.6577  0.0973 -0.6054
 7540TIP3   OH244110   6.438   0.895  11.143  0.1889  0.3396 -0.4478
 7540TIP3    H144111   6.420   0.980  11.104 -0.2314  1.7697  2.5585
 7540TIP3    H244112   6.379   0.891  11.219  1.2048 -2.0305  0.3130
 7541TIP3   OH244113   4.832   2.228   2.505 -0.1116 -0.1392  0.1448
 7541TIP3    H144114   4.840   2.193   2.417 -1.9128 -0.0444 -0.0984
 7541TIP3    H244115   4.778   2.165   2.552 -0.0366  0.3206  0.8757
 7542TIP3   OH244116   3.955   6.771   0.864 -0.2708 -0.0081  0.0258
 7542TIP3    H144117   3.923   6.742   0.949 -1.2914  0.7406 -0.0830
 7542TIP3    H244118   4.050   6.769   0.872 -0.3202 -1.4946  0.6371
 7543TIP3   OH244119   2.928   5.505  11.277  0.3111  0.3579  0.1047
 7543TIP3    H144120   2.843   5.467  11.256  0.3114  0.8042 -0.7402
 7543TIP3    H244121   2.969   5.441  11.335 -0.3468 -0.1569  0.0144
 7544TIP3   OH244122   1.643   5.259  10.755 -0.6094 -0.1049  0.5860
 7544TIP3    H144123   1.728   5.244  10.795 -0.2773  0.4863  0.1150
 7544TIP3    H244124   1.589   5.186  10.785  0.6061 -1.5912 -0.7010
 7545TIP3   OH244125   6.699   6.388  10.292  0.2914 -0.5468 -0.4873
 7545TIP3    H144126   6.748   6.412  10.213 -0.6349 -0.9067 -1.1962
 7545TIP3    H244127   6.764   6.390  10.362  1.0620  0.1261 -1.1949
 7546TIP3   OH244128   6.297   2.236  12.344  0.1867 -0.3419 -0.2458
 7546TIP3    H144129   6.288   2.327  12.374 -0.3131 -0.4380 -0.0923
 7546TIP3    H244130   6.248   2.185  12.409  1.0144 -0.7917  0.0307
 7547TIP3   OH244131   3.180   0.904   0.378 -0.0220 -0.2622 -0.4567
 7547TIP3    H144132   3.127   0.895   0.458 -2.5886 -0.5135 -2.0581
 7547TIP3    H244133   3.246   0.969   0.400 -1.9735  1.2887  1.2474
 7548TIP3   OH244134   3.064   3.184  14.329 -0.5064  0.3930 -0.3297
 7548TIP3    H144135   3.000   3.179  14.259  0.9086 -0.7550 -1.6199
 7548TIP3    H244136   3.034   3.121  14.394 -1.0779  0.4115 -0.5734
 7549TIP3   OH244137   3.254   3.333  10.763  0.3533  0.7695  0.0698
 7549TIP3    H144138   3.233   3.355  10.854 -1.6099  0.2481 -0.1973
 7549TIP3    H244139   3.261   3.417  10.718  3.8428  1.1866  1.0968
 7550TIP3   OH244140   5.998   7.163  12.631  0.0941  0.0593 -0.2859
 7550TIP3    H144141   6.003   7.247  12.585 -0.7785 -0.8593 -2.1847
 7550TIP3    H244142   6.072   7.113  12.597 -0.3142 -0.4828 -0.3887
 7551TIP3   OH244143   5.017   2.454  12.533 -0.0974  0.1770  0.2030
 7551TIP3    H144144   5.025   2.543  12.498 -0.8395 -0.3066 -1.2500
 7551TIP3    H244145   5.021   2.397  12.457  0.2512 -1.0558  1.1031
 7552TIP3   OH244146   3.690   3.651  14.508 -0.2979  0.1846 -0.0234
 7552TIP3    H144147   3.750   3.596  14.457  0.0026 -0.2481  0.7718
 7552TIP3    H244148   3.746   3.692  14.574 -0.6137  1.0417 -0.2803
 7553TIP3   OH244149   1.105   2.378   2.088 -0.0345 -0.2258 -0.1484
 7553TIP3    H144150   1.200   2.392   2.092 -0.2867  2.1878 -0.7803
 7553TIP3    H244151   1.084   2.330   2.168  1.6836 -0.5855  0.1150
 7554TIP3   OH244152   6.769   4.489  10.100  0.4992 -0.3211  0.1649
 7554TIP3    H144153   6.724   4.552  10.045 -0.2694 -0.6800  0.3753
 7554TIP3    H244154   6.726   4.405  10.082  1.5459 -0.8066 -0.1583
 7555TIP3   OH244155   5.132   5.504   0.921 -0.0383  0.0289 -0.8020
 7555TIP3    H144156   5.160   5.554   0.998  0.4348 -0.9710 -0.3000
 7555TIP3    H244157   5.070   5.440   0.956 -0.6721  0.2884 -1.4368
 7556TIP3   OH244158   1.324   0.056  11.962 -0.2809 -0.0110  0.3177
 7556TIP3    H144159   1.327   0.116  12.037  2.0059  1.1182 -0.5995
 7556TIP3    H244160   1.254   0.091  11.907 -0.0418  0.8758  0.5569
 7557TIP3   OH244161   3.744   0.160   0.735 -0.2960  0.3775 -0.2608
 7557TIP3    H144162   3.670   0.158   0.795 -1.6709  1.4293 -1.8447
 7557TIP3    H244163   3.713   0.210   0.659  1.7861  0.2031 -1.3088
 7558TIP3   OH244164   3.584   3.999   1.674 -0.3536 -0.3826  0.2840
 7558TIP3    H144165   3.509   4.004   1.615 -1.0941  0.4632  1.2619
 7558TIP3    H244166   3.565   4.062   1.743  0.9571 -0.6272  0.9086
 7559TIP3   OH244167   2.150   2.837   0.448  0.3578 -0.2074 -0.1255
 7559TIP3    H144168   2.239   2.859   0.419  0.4952 -1.8117 -1.0407
 7559TIP3    H244169   2.097   2.913   0.422  1.8475  2.0969  2.9618
 7560TIP3   OH244170   7.205   3.902  10.269 -0.0472  0.4144 -0.5971
 7560TIP3    H144171   7.139   3.897  10.200 -0.1423  1.1091 -0.5554
 7560TIP3    H244172   7.285   3.869  10.227 -0.0301  1.1255 -1.1444
 7561TIP3   OH244173   5.257   6.788  14.571 -0.2605  0.8144 -0.5145
 7561TIP3    H144174   5.180   6.840  14.546  1.6630  3.5888 -1.2393
 7561TIP3    H244175   5.279   6.819  14.659 -0.6881 -0.9411  0.2419
 7562TIP3   OH244176   2.600   1.097  13.158 -0.4343 -0.2389  0.4383
 7562TIP3    H144177   2.679   1.152  13.148 -0.3184 -0.3996  0.4667
 7562TIP3    H244178   2.622   1.038  13.230  0.1518 -1.5591 -0.7893
 7563TIP3   OH244179   1.689   4.374   1.823  0.1073  0.7053  0.0976
 7563TIP3    H144180   1.614   4.378   1.883  0.2872  0.4836  0.3375
 7563TIP3    H244181   1.756   4.326   1.871 -0.0695 -0.2894 -0.6247
 7564TIP3   OH244182   3.791   0.892  10.447  0.5698 -0.4946  0.2128
 7564TIP3    H144183   3.759   0.921  10.532  0.4722 -0.8972  0.3146
 7564TIP3    H244184   3.880   0.860  10.465  0.3867 -0.9968  0.2499
 7565TIP3   OH244185   3.728   7.112   3.495 -0.1618  0.2329 -0.0048
 7565TIP3    H144186   3.653   7.157   3.535  0.2829  1.3787 -0.4487
 7565TIP3    H244187   3.700   7.020   3.491 -1.9984  0.7714 -1.1198
 7566TIP3   OH244188   3.315   1.629  11.530  0.2153 -0.7293  0.0567
 7566TIP3    H144189   3.404   1.596  11.545  0.3520  0.2627  1.6553
 7566TIP3    H244190   3.263   1.590  11.600 -0.1440  0.3706  0.4292
 7567TIP3   OH244191   2.366   3.127   2.179  0.3156 -0.5972  0.1224
 7567TIP3    H144192   2.282   3.109   2.137 -0.0356 -2.3857  1.4470
 7567TIP3    H244193   2.344   3.179   2.256  0.5666 -0.1436 -0.1080
 7568TIP3   OH244194   5.965   3.957  10.536  0.0375  0.2777 -0.1585
 7568TIP3    H144195   5.904   3.970  10.608  0.0250  0.1503 -0.1464
 7568TIP3    H244196   5.912   3.919  10.466  0.0558  0.3744 -0.2253
 7569TIP3   OH244197   4.959   5.306  13.054 -0.0759 -0.3540  0.5507
 7569TIP3    H144198   4.949   5.286  13.147 -1.3531 -1.6779  0.1731
 7569TIP3    H244199   5.042   5.264  13.029  0.2430 -0.0405  1.0834
 7570TIP3   OH244200   1.000   5.866   1.464  0.2353 -0.2765 -0.0158
 7570TIP3    H144201   0.910   5.852   1.433 -0.3370  1.4439  0.7376
 7570TIP3    H244202   1.000   5.956   1.497  2.2309 -0.2780  0.0810
 7571TIP3   OH244203   2.403   3.832  13.293  0.8878  0.2258  0.4250
 7571TIP3    H144204   2.418   3.923  13.317  0.5243  0.6776 -0.9416
 7571TIP3    H244205   2.312   3.815  13.317  1.3893 -0.2784  2.0898
 7572TIP3   OH244206   2.388   2.056  11.037  0.0545 -0.2386  0.1381
 7572TIP3    H144207   2.437   2.100  10.967 -0.8199 -1.3557 -1.2377
 7572TIP3    H244208   2.298   2.057  11.007 -1.0608  2.6193  3.0441
 7573TIP3   OH244209   0.724   1.229  10.584  0.3762 -0.1042  0.1315
 7573TIP3    H144210   0.689   1.318  10.571 -1.7415 -1.0153 -1.0306
 7573TIP3    H244211   0.758   1.205  10.497  2.5280  0.1299  0.8488
 7574TIP3   OH244212   5.934   0.478   1.391 -0.0128  0.6734  0.2611
 7574TIP3    H144213   6.019   0.508   1.422  0.2415 -0.0593  0.2897
 7574TIP3    H244214   5.893   0.439   1.468 -0.1369  0.5123  0.1145
 7575TIP3   OH244215   5.907   2.065   9.894  0.4933 -0.9762  0.1810
 7575TIP3    H144216   5.915   2.016   9.812 -0.5812 -1.1978  0.1920
 7575TIP3    H244217   5.885   2.154   9.866  0.5312 -0.9569  0.2129
 7576TIP3   OH244218   5.069   2.745  10.340  0.1786 -0.6810  0.1711
 7576TIP3    H144219   5.129   2.788  10.278 -1.2150  0.1599 -0.6511
 7576TIP3    H244220   5.116   2.746  10.423  1.2948 -0.0264 -0.4412
 7577TIP3   OH244221   2.226   1.722  12.630  0.0677  0.4791 -0.2531
 7577TIP3    H144222   2.144   1.771  12.624 -0.1967 -0.0372 -1.0219
 7577TIP3    H244223   2.218   1.654  12.563  1.7099  1.2763 -1.3205
 7578TIP3   OH244224   3.623   2.300  11.950 -0.1092 -0.2661  0.4102
 7578TIP3    H144225   3.553   2.365  11.943  1.8084  1.8716 -0.7898
 7578TIP3    H244226   3.696   2.349  11.990  0.6270 -2.4759  1.9469
 7579TIP3   OH244227   1.096   1.746   9.679 -0.3789  0.0243  0.0713
 7579TIP3    H144228   1.089   1.651   9.694  0.2306 -0.1115 -0.4216
 7579TIP3    H244229   1.125   1.781   9.763  1.6976 -0.5507 -0.3292
 7580TIP3   OH244230   6.117   3.367   9.531  0.0338  0.3282  0.5020
 7580TIP3    H144231   6.161   3.317   9.600 -2.6056 -0.7165  1.5824
 7580TIP3    H244232   6.123   3.458   9.560 -0.9872 -0.0826  2.1983
 7581TIP3   OH244233   0.695   3.867   3.023  0.1004 -0.1630 -0.5212
 7581TIP3    H144234   0.682   3.794   2.963  0.9092 -1.5650  0.9354
 7581TIP3    H244235   0.608   3.908   3.030 -0.7359 -1.8835 -0.2706
 7582TIP3   OH244236   3.564   6.534  12.120 -0.5771 -0.2992  0.3172
 7582TIP3    H144237   3.589   6.611  12.171  2.0436 -0.1993 -0.9332
 7582TIP3    H244238   3.560   6.566  12.030  1.1184 -1.6568 -0.3018
 7583TIP3   OH244239   5.239   1.189  11.022  0.0465  0.2981  0.3837
 7583TIP3    H144240   5.332   1.204  11.010  0.3722 -1.6460  0.1299
 7583TIP3    H244241   5.222   1.214  11.113  1.1773 -0.8241  0.9272
 7584TIP3   OH244242   3.333   4.254  11.823  0.9053  0.0534 -1.4256
 7584TIP3    H144243   3.420   4.275  11.790  2.0755  1.6103  2.1282
 7584TIP3    H244244   3.348   4.187  11.890 -0.1658  2.0436  0.9531
 7585TIP3   OH244245   5.195   6.233   2.010  0.1953 -0.4529  0.4374
 7585TIP3    H144246   5.170   6.256   2.099 -0.0825 -1.8063  0.7256
 7585TIP3    H244247   5.273   6.179   2.020 -0.4306 -1.4825 -0.0583
 7586TIP3   OH244248   6.729   5.771  13.456  0.2311  0.0388  0.2452
 7586TIP3    H144249   6.679   5.834  13.404 -1.1622 -1.0031  0.2980
 7586TIP3    H244250   6.811   5.761  13.408 -0.8702 -0.6287 -1.6115
 7587TIP3   OH244251   2.659   2.891   2.832  0.7003  0.3970 -0.1284
 7587TIP3    H144252   2.564   2.897   2.842  0.7309  0.1059  0.3518
 7587TIP3    H244253   2.675   2.801   2.805  0.6697  0.9898 -2.3052
 7588TIP3   OH244254   0.988   2.168  14.245 -0.1285 -0.0046 -0.0142
 7588TIP3    H144255   0.944   2.084  14.233 -0.5383 -0.1039  1.9245
 7588TIP3    H244256   1.063   2.149  14.302  0.1305  0.8426 -0.0450
 7589TIP3   OH244257   0.176   2.786   5.334 -0.2305  0.7213 -0.2598
 7589TIP3    H144258   0.168   2.807   5.426 -0.0659  0.8251 -0.2691
 7589TIP3    H244259   0.121   2.709   5.322  1.0277 -0.3111  0.2789
 7590TIP3   OH244260   4.227   2.559  12.235 -0.2304  0.4101 -0.5076
 7590TIP3    H144261   4.160   2.626  12.220 -1.1418 -0.5189 -0.7560
 7590TIP3    H244262   4.290   2.572  12.165  0.1218  1.6199  0.0206
 7591TIP3   OH244263   3.899   1.222  13.477 -0.3068  0.3273 -0.7376
 7591TIP3    H144264   3.873   1.139  13.437  0.7981 -0.0240 -0.7543
 7591TIP3    H244265   3.877   1.212  13.569  0.4903 -0.2658 -0.6099
 7592TIP3   OH244266   7.101   4.969  14.575  0.0010 -0.1545  0.0344
 7592TIP3    H144267   7.137   5.048  14.616 -0.3214 -0.9879  2.0472
 7592TIP3    H244268   7.174   4.908  14.571 -0.0509 -0.1933 -0.3496
 7593TIP3   OH244269   2.876   0.629   0.257 -0.3164 -0.2593 -0.2855
 7593TIP3    H144270   2.852   0.539   0.240 -0.5681 -0.4723  1.0727
 7593TIP3    H244271   2.965   0.637   0.223 -0.0890 -1.1799  0.0582
 7594TIP3   OH244272   1.025   1.275   0.596  0.1341 -0.1321  0.3630
 7594TIP3    H144273   0.978   1.266   0.680  0.5779  1.4689  0.8089
 7594TIP3    H244274   0.965   1.326   0.541  0.0845 -0.7008 -0.1180
 7595TIP3   OH244275   4.899   4.588  12.760  0.2476  0.1152 -0.7465
 7595TIP3    H144276   4.968   4.603  12.824 -0.4798  0.5307 -0.0385
 7595TIP3    H244277   4.820   4.620  12.802 -0.3677 -0.2635 -1.5804
 7596TIP3   OH244278   2.812   1.823  15.082  0.4254  0.3330  0.1547
 7596TIP3    H144279   2.790   1.898  15.026  0.6903  0.3925  0.1254
 7596TIP3    H244280   2.908   1.826  15.088  0.6690 -1.3608 -1.7463
 7597TIP3   OH244281   4.370   3.321   1.392  0.1088 -0.2120 -0.1472
 7597TIP3    H144282   4.325   3.237   1.392 -1.0101  0.3690  0.1740
 7597TIP3    H244283   4.412   3.326   1.478 -1.8045  0.5539  0.7994
 7598TIP3   OH244284   7.140   6.278  12.872 -0.2339  0.3448  0.1369
 7598TIP3    H144285   7.156   6.199  12.924 -0.6349 -0.1443 -0.4636
 7598TIP3    H244286   7.092   6.336  12.931  2.6464  1.4182  1.6030
 7599TIP3   OH244287   0.142   3.602  13.236  0.2325 -0.2607 -0.2813
 7599TIP3    H144288   0.211   3.654  13.193  0.3872 -0.8117 -0.7056
 7599TIP3    H244289   0.083   3.577  13.165 -1.5744  1.9118  0.3275
 7600TIP3   OH244290   2.905   7.051  12.379  0.1852 -0.0219 -0.1425
 7600TIP3    H144291   2.895   7.108  12.303  0.9306  0.8536  0.3965
 7600TIP3    H244292   2.958   6.977  12.347  3.3002  1.8806  0.2223
 7601TIP3   OH244293   5.164   6.099  14.967 -0.1867  0.3366 -0.4794
 7601TIP3    H144294   5.143   6.182  14.925 -0.5302 -0.3238 -1.6652
 7601TIP3    H244295   5.080   6.054  14.975  0.0757 -0.1482 -0.3971
 7602TIP3   OH244296   4.047   1.411   4.884 -0.2260  0.0370  0.3679
 7602TIP3    H144297   4.105   1.339   4.861  0.2270  0.3828  0.4003
 7602TIP3    H244298   3.959   1.374   4.882  0.0050 -0.5127  0.3906
 7603TIP3   OH244299   6.544   0.237  10.527  0.3396 -0.6966  0.0827
 7603TIP3    H144300   6.519   0.188  10.605  0.6625 -1.2342 -0.1504
 7603TIP3    H244301   6.477   0.305  10.519  2.5812  2.2198  3.3321
 7604TIP3   OH244302   2.099   0.086   4.129  0.0144  0.0356  0.3718
 7604TIP3    H144303   2.117   0.063   4.220 -1.5549  0.8925  0.9427
 7604TIP3    H244304   2.098   0.182   4.129 -0.0053  0.0395 -0.5524
 7605TIP3   OH244305   1.923   3.147  15.006  0.2453 -0.2544 -0.0709
 7605TIP3    H144306   1.960   3.235  15.016  1.4408 -0.7028 -0.4111
 7605TIP3    H244307   1.977   3.092  15.063 -1.0581 -0.6455  0.8458
 7606TIP3   OH244308   5.111   6.163  14.264 -0.0956 -0.0409  0.1792
 7606TIP3    H144309   5.193   6.145  14.218 -0.4836 -0.1071 -0.5093
 7606TIP3    H244310   5.048   6.182  14.194 -0.7603 -0.3601  0.6741
 7607TIP3   OH244311   5.740   4.241  13.123 -0.3606 -0.2741 -0.1531
 7607TIP3    H144312   5.689   4.160  13.111 -1.7311  0.5583 -0.1570
 7607TIP3    H244313   5.700   4.303  13.062  0.5056  0.4915  0.0468
 7608TIP3   OH244314   6.344   3.592   2.809  0.3002 -0.5118  0.2330
 7608TIP3    H144315   6.249   3.602   2.810  0.3352 -0.0540 -0.6284
 7608TIP3    H244316   6.358   3.499   2.828 -0.3397 -0.6875 -0.1267
 7609TIP3   OH244317   7.003   4.594  11.816  0.1237  0.3461 -0.5889
 7609TIP3    H144318   7.071   4.620  11.754  0.6168  0.5072  0.0064
 7609TIP3    H244319   7.016   4.652  11.891  1.8156 -2.1124  1.1846
 7610TIP3   OH244320   6.308   3.191   9.345  0.0925 -0.7932  0.5977
 7610TIP3    H144321   6.259   3.127   9.396 -2.4734  1.3354  1.0598
 7610TIP3    H244322   6.259   3.199   9.263 -0.3042  1.2256  0.9656
 7611TIP3   OH244323   6.376   5.220  11.146  0.2368  0.0338  0.8149
 7611TIP3    H144324   6.346   5.208  11.237 -1.9956  2.7892  0.5782
 7611TIP3    H244325   6.402   5.312  11.141 -0.7205  0.2499 -1.5638
 7612TIP3   OH244326   0.641   0.521  13.811  0.3265 -0.6629  0.0928
 7612TIP3    H144327   0.587   0.451  13.776 -0.4279 -0.7641  1.3901
 7612TIP3    H244328   0.581   0.595  13.819 -0.0007 -1.1158  2.6624
 7613TIP3   OH244329   0.100   4.260  13.539 -0.0782 -0.4319  0.3095
 7613TIP3    H144330   0.183   4.239  13.583  0.2093 -2.1822 -0.9341
 7613TIP3    H244331   0.097   4.199  13.465 -1.4674  1.0846 -0.9369
 7614TIP3   OH244332   3.698   7.155  14.356  0.4490  0.8593 -0.4999
 7614TIP3    H144333   3.714   7.204  14.437 -0.9289  0.8512 -0.2024
 7614TIP3    H244334   3.646   7.215  14.302  0.3154  0.4013 -0.8796
 7615TIP3   OH244335   2.818   1.256   2.068 -0.0698  0.1464 -0.2013
 7615TIP3    H144336   2.886   1.323   2.055  0.2829  0.2144  1.7101
 7615TIP3    H244337   2.816   1.242   2.162 -2.1451 -0.4819 -0.2934
 7616TIP3   OH244338   6.054   6.357  14.034  0.5326  0.3177  0.4556
 7616TIP3    H144339   6.005   6.427  13.990 -0.6921 -0.6882  0.1692
 7616TIP3    H244340   6.136   6.352  13.985 -0.3975 -0.1236 -1.1610
 7617TIP3   OH244341   4.367   2.490  13.835 -0.2676 -0.2148 -0.0794
 7617TIP3    H144342   4.415   2.479  13.753 -0.0445 -2.0124  0.2501
 7617TIP3    H244343   4.414   2.559  13.881 -0.5050  0.9449 -1.5164
 7618TIP3   OH244344   6.624   6.051   2.212  0.3447 -1.0829 -0.2031
 7618TIP3    H144345   6.598   6.044   2.120  0.9504  1.5388 -0.6381
 7618TIP3    H244346   6.570   6.121   2.247  2.5259  0.3662  0.4583
 7619TIP3   OH244347   0.928   6.569  15.097  0.1805 -0.2302  0.2299
 7619TIP3    H144348   0.926   6.496  15.158  2.0958 -1.6447 -1.2932
 7619TIP3    H244349   0.840   6.571  15.060 -0.8084  0.2105  2.4048
 7620TIP3   OH244350   3.344   2.254  10.426 -0.5010 -0.0627  0.4466
 7620TIP3    H144351   3.272   2.308  10.396  0.8296  1.6589  0.2177
 7620TIP3    H244352   3.360   2.192  10.354 -0.0981  1.2454 -0.6344
 7621TIP3   OH244353   5.683   0.254   2.892 -0.1041  0.3236  0.1647
 7621TIP3    H144354   5.610   0.224   2.946  0.6825  0.4706  1.3452
 7621TIP3    H244355   5.650   0.249   2.802 -1.1196 -0.8579  0.5770
 7622TIP3   OH244356   3.621   6.073   4.606 -0.2430  0.8503 -0.2478
 7622TIP3    H144357   3.705   6.027   4.602 -0.8277 -1.0355  3.9012
 7622TIP3    H244358   3.638   6.150   4.661 -1.4175 -0.6252  2.4048
 7623TIP3   OH244359   3.585   2.094  13.582  0.3343  0.7745  0.9224
 7623TIP3    H144360   3.593   2.169  13.641 -1.4387  1.6325  0.1132
 7623TIP3    H244361   3.655   2.107  13.518  0.9217  0.9686  1.5808
 7624TIP3   OH244362   3.350   4.897   9.887  0.3530  0.2802  0.3310
 7624TIP3    H144363   3.353   4.835   9.814  2.5313  0.6546  0.0397
 7624TIP3    H244364   3.264   4.938   9.880  0.2409 -0.1913 -1.6128
 7625TIP3   OH244365   3.642   1.022  10.692  0.1748 -0.3655  0.6223
 7625TIP3    H144366   3.703   1.033  10.765  1.2204  0.1104 -0.3006
 7625TIP3    H244367   3.625   1.111  10.661 -0.5425 -0.5395  0.4850
 7626TIP3   OH244368   2.425   1.560  10.085  0.4904  0.3016 -0.0993
 7626TIP3    H144369   2.383   1.508  10.153  1.0307  0.8752  0.6873
 7626TIP3    H244370   2.383   1.532  10.004  0.0769 -0.6372  0.4244
 7627TIP3   OH244371   7.180   0.195  14.820 -0.3896  0.0400 -0.4299
 7627TIP3    H144372   7.139   0.197  14.733  0.4690  0.7446 -0.8392
 7627TIP3    H244373   7.133   0.261  14.870 -0.5636 -0.0181 -0.5161
 7628TIP3   OH244374   3.210   6.697  14.478 -0.4133 -0.4247 -0.0673
 7628TIP3    H144375   3.245   6.773  14.524 -0.5112  0.4479 -1.3953
 7628TIP3    H244376   3.140   6.665  14.536 -1.0351  1.0843  0.0661
 7629TIP3   OH244377   6.644   3.287  10.052 -0.6297 -0.0358 -0.1452
 7629TIP3    H144378   6.700   3.286  10.129 -1.6962 -1.4691  0.6731
 7629TIP3    H244379   6.666   3.369  10.007  2.1657 -0.5907  0.0391
 7630TIP3   OH244380   0.601   5.210   1.975 -0.0976  0.0486 -0.1852
 7630TIP3    H144381   0.548   5.263   2.034  1.0220 -0.4740  1.3398
 7630TIP3    H244382   0.580   5.120   1.999 -0.8975 -0.2256 -1.7745
 7631TIP3   OH244383   4.478   4.704  11.125 -0.5612 -0.8448 -0.2535
 7631TIP3    H144384   4.462   4.732  11.216 -1.8388 -0.3744 -0.5958
 7631TIP3    H244385   4.567   4.733  11.106 -0.7160  0.1518  0.4535
 7632TIP3   OH244386   3.812   3.474  12.141 -0.1810  0.4878  0.0013
 7632TIP3    H144387   3.851   3.544  12.089 -0.3690  0.6230  0.0422
 7632TIP3    H244388   3.727   3.457  12.099  1.7728 -3.1572 -3.1862
 7633TIP3   OH244389   5.522   2.680  11.557  0.3751 -0.4238 -0.3573
 7633TIP3    H144390   5.506   2.774  11.561  1.2007 -0.3291  1.7278
 7633TIP3    H244391   5.481   2.652  11.475  0.5154  1.8136 -1.2581
 7634TIP3   OH244392   1.169   3.848  12.921 -0.0365  0.9205  0.4760
 7634TIP3    H144393   1.169   3.776  12.984  4.0828 -1.5236 -1.8394
 7634TIP3    H244394   1.253   3.892  12.935 -0.3214  2.1569 -1.3769
 7635TIP3   OH244395   7.120   4.453  12.995 -0.3823 -0.0765 -0.2812
 7635TIP3    H144396   7.177   4.525  13.021 -0.2605 -0.9022  2.0114
 7635TIP3    H244397   7.041   4.496  12.962  0.5361  1.0758 -1.0553
 7636TIP3   OH244398   1.355   0.278   0.893 -0.1196 -0.2823  0.5576
 7636TIP3    H144399   1.303   0.354   0.920 -0.9887 -0.4483 -0.5365
 7636TIP3    H244400   1.303   0.202   0.920 -0.3780 -0.4532 -0.3766
 7637TIP3   OH244401   0.005   6.828  12.688 -0.2127 -1.0397 -0.2227
 7637TIP3    H144402  -0.045   6.836  12.769  0.3233 -0.4462  0.0567
 7637TIP3    H244403   0.043   6.740  12.692  3.1117  0.2937  2.1408
 7638TIP3   OH244404   0.870   4.121   9.669 -0.1340  0.6144  0.2908
 7638TIP3    H144405   0.959   4.115   9.633  0.0092 -0.0213  0.7146
 7638TIP3    H244406   0.862   4.042   9.723 -1.8272 -0.6269 -1.6441
 7639TIP3   OH244407   4.787   3.983   9.551 -0.3428  0.0336  0.1826
 7639TIP3    H144408   4.713   4.010   9.606 -1.4524 -1.0735 -0.7012
 7639TIP3    H244409   4.801   4.057   9.491  0.5702  1.0498  1.5940
 7640TIP3   OH244410   6.165   4.724   9.734 -0.5324 -0.1373  0.0683
 7640TIP3    H144411   6.117   4.644   9.755 -0.6007  0.1759  1.1477
 7640TIP3    H244412   6.240   4.724   9.793 -0.2591  0.3483 -0.2727
 7641TIP3   OH244413   5.561   5.610   1.600 -0.5979 -0.3370  0.0130
 7641TIP3    H144414   5.518   5.661   1.531 -1.3993  0.3740  0.9968
 7641TIP3    H244415   5.493   5.549   1.629  0.5948 -2.6172 -1.7115
 7642TIP3   OH244416   2.393   3.131  11.137 -0.5304  0.1346 -0.5103
 7642TIP3    H144417   2.439   3.135  11.054 -0.0417  0.4484 -0.2345
 7642TIP3    H244418   2.451   3.081  11.194 -0.8526 -0.0638 -0.3543
 7643TIP3   OH244419   1.982   1.426  11.846  0.3188 -0.3644  0.1393
 7643TIP3    H144420   2.057   1.400  11.792 -0.8222 -1.7465 -0.8625
 7643TIP3    H244421   2.019   1.443  11.932  1.8244 -0.7159 -0.4123
 7644TIP3   OH244422   4.726   6.716  10.254  0.4873 -0.3490  0.1610
 7644TIP3    H144423   4.813   6.698  10.291  0.1544 -0.3397  0.9735
 7644TIP3    H244424   4.729   6.678  10.166  0.7417 -1.9085  0.8057
 7645TIP3   OH244425   2.585   3.692   9.717  0.0387 -0.2112  0.0721
 7645TIP3    H144426   2.523   3.707   9.645 -1.5433 -1.1025  1.1883
 7645TIP3    H244427   2.582   3.597   9.731  2.0871 -0.3584 -0.1639
 7646TIP3   OH244428   6.406   6.061   1.901  0.0267 -0.2223  0.2825
 7646TIP3    H144429   6.381   6.080   1.992 -1.0096  1.0879 -0.2385
 7646TIP3    H244430   6.372   6.136   1.851 -1.7861 -2.1549 -1.5735
 7647TIP3   OH244431   6.050   1.177   0.792  0.2371 -0.0176  1.1071
 7647TIP3    H144432   6.106   1.233   0.847 -0.5431  0.7951  1.1119
 7647TIP3    H244433   5.961   1.208   0.811 -0.0206  0.9310 -1.2943
 7648TIP3   OH244434   0.826   1.004  13.051  0.6482  0.2738  0.1067
 7648TIP3    H144435   0.787   1.080  13.094 -0.7942  0.2163 -1.0578
 7648TIP3    H244436   0.908   1.038  13.014  0.0434  1.2805 -0.3741
 7649TIP3   OH244437   6.598   5.942  13.756 -0.3507 -0.4440  0.1456
 7649TIP3    H144438   6.626   6.031  13.778 -0.5711  0.3649 -2.4432
 7649TIP3    H244439   6.680   5.894  13.746  0.0538  0.5729 -2.2952
 7650TIP3   OH244440   3.730   5.539  10.027 -0.2016  0.5232  0.1751
 7650TIP3    H144441   3.817   5.514   9.997 -0.2438 -1.6099  1.6324
 7650TIP3    H244442   3.686   5.572   9.949  1.2903 -0.1200 -0.9838
 7651TIP3   OH244443   0.267   1.654  13.689 -0.0852 -0.5557 -0.2491
 7651TIP3    H144444   0.291   1.702  13.768 -2.2786  1.4621 -0.6833
 7651TIP3    H244445   0.289   1.713  13.617 -2.3209 -0.3403 -0.8300
 7652TIP3   OH244446   1.434   7.206  12.429 -0.4477 -0.1423 -0.6955
 7652TIP3    H144447   1.428   7.192  12.335 -1.2124 -0.1820 -0.6450
 7652TIP3    H244448   1.518   7.250  12.442  0.2168 -1.2308 -1.2623
 7653TIP3   OH244449   3.698   5.132  14.870 -0.6271  0.2219  0.0115
 7653TIP3    H144450   3.668   5.158  14.783 -0.4022  0.2351 -0.0627
 7653TIP3    H244451   3.742   5.048  14.856 -1.2297 -0.1354  0.2288
 7654TIP3   OH244452   3.418   3.878   2.158 -0.4692 -0.9641  0.3810
 7654TIP3    H144453   3.431   3.787   2.186 -2.1025 -1.1336  0.6562
 7654TIP3    H244454   3.329   3.880   2.123  0.6565 -0.2140 -2.7263
 7655TIP3   OH244455   0.889   0.790  12.764 -0.3490  0.1561 -0.1354
 7655TIP3    H144456   0.865   0.779  12.672 -3.0187  0.9491  0.3801
 7655TIP3    H244457   0.878   0.883  12.781 -1.9920 -0.2725  1.4678
 7656TIP3   OH244458   1.249   3.437   0.164 -0.3443  0.2567  0.5560
 7656TIP3    H144459   1.201   3.514   0.194 -0.8801 -0.2183  0.9382
 7656TIP3    H244460   1.261   3.451   0.070  0.9794  1.5616  0.8921
 7657TIP3   OH244461   6.245   0.240  15.367  0.3389 -0.1045 -0.6523
 7657TIP3    H144462   6.306   0.210  15.434  0.1380  1.6204  0.3642
 7657TIP3    H244463   6.259   0.335  15.363 -2.8458  0.5360  0.2527
 7658TIP3   OH244464   2.470   4.005   2.224  0.7862 -0.2272  0.2912
 7658TIP3    H144465   2.481   4.005   2.129  2.7473  0.3989  0.4604
 7658TIP3    H244466   2.469   4.098   2.248 -0.2512 -0.3720  0.8421
 7659TIP3   OH244467   2.410   1.361  10.921 -0.2779  0.1411 -0.1359
 7659TIP3    H144468   2.321   1.351  10.955 -0.9354  1.1436 -1.4705
 7659TIP3    H244469   2.418   1.291  10.856 -0.9510  1.4269 -1.6568
 7660TIP3   OH244470   5.948   3.813  11.436  0.0369  0.0815 -0.0275
 7660TIP3    H144471   5.970   3.864  11.514 -2.7716 -0.9810  1.5839
 7660TIP3    H244472   5.970   3.723  11.458  1.3276  0.0107 -1.3932
 7661TIP3   OH244473   1.309   1.469  11.635 -0.1644 -0.4274  0.3457
 7661TIP3    H144474   1.292   1.517  11.555  0.6168 -1.1705 -0.2778
 7661TIP3    H244475   1.228   1.477  11.685 -0.1753  1.2266  0.1200
 7662TIP3   OH244476   4.157   3.369  13.093 -0.4166  0.1315 -0.0382
 7662TIP3    H144477   4.138   3.277  13.074 -0.0773  0.0967 -0.2183
 7662TIP3    H244478   4.203   3.401  13.015 -0.7016  0.5073 -0.0567
 7663TIP3   OH244479   4.752   3.563   4.370  0.1609  0.0040  0.4912
 7663TIP3    H144480   4.719   3.633   4.313  0.3429 -0.8580 -0.7248
 7663TIP3    H244481   4.719   3.586   4.457 -0.3614  1.2273  0.0051
 7664TIP3   OH244482   1.602   0.599  10.776  0.0100 -0.3359 -0.4599
 7664TIP3    H144483   1.571   0.509  10.762  0.1798 -0.1398 -2.2985
 7664TIP3    H244484   1.618   0.633  10.688  0.9819  1.1462  0.2533
 7665TIP3   OH244485   6.135   4.887  10.826 -0.0321 -0.1028  0.4486
 7665TIP3    H144486   6.158   4.905  10.734  1.1391 -2.4255  0.2050
 7665TIP3    H244487   6.209   4.922  10.876  0.0825 -0.2391  0.3741
 7666TIP3   OH244488   3.148   4.720  13.333 -0.4874  0.0377 -0.4810
 7666TIP3    H144489   3.240   4.735  13.311 -0.5965  3.4714  0.8462
 7666TIP3    H244490   3.101   4.733  13.250  0.1172 -0.7868 -0.9676
 7667TIP3   OH244491   6.437   4.415   3.808 -0.1580 -0.3988  0.7385
 7667TIP3    H144492   6.507   4.362   3.771  0.0361 -1.4040  2.4383
 7667TIP3    H244493   6.479   4.496   3.836  0.1802 -0.7112  1.1270
 7668TIP3   OH244494   5.148   6.093   2.352  0.6170  0.0249  0.0609
 7668TIP3    H144495   5.237   6.068   2.325  0.2081  0.5958 -2.0084
 7668TIP3    H244496   5.107   6.010   2.375  2.1481 -0.0888  2.7745
 7669TIP3   OH244497   5.638   6.612   1.798  1.0926  0.1169 -0.1646
 7669TIP3    H144498   5.620   6.563   1.718 -2.4203 -1.0839  1.1851
 7669TIP3    H244499   5.703   6.560   1.845  0.1160 -1.3841 -0.4307
 7670TIP3   OH244500   2.106   7.141  10.502 -0.3288 -0.3125  0.0375
 7670TIP3    H144501   2.131   7.135  10.410  0.3458 -0.7047  0.2452
 7670TIP3    H244502   2.142   7.225  10.531  1.2371 -1.0985  0.4695
 7671TIP3   OH244503   6.061   4.890  13.343 -0.0569 -0.4415 -0.3444
 7671TIP3    H144504   6.077   4.927  13.429  0.2867 -1.5734  0.1066
 7671TIP3    H244505   6.145   4.898  13.297 -0.3137  0.3990 -0.6714
 7672TIP3   OH244506   0.864   1.754  14.008  0.4681  0.1104 -0.1061
 7672TIP3    H144507   0.784   1.706  13.985  0.1409  0.5142  0.1731
 7672TIP3    H244508   0.904   1.775  13.923 -0.3643  0.9667 -0.3172
 7673TIP3   OH244509   4.568   3.798  11.333  0.8343  0.1168 -0.2106
 7673TIP3    H144510   4.602   3.853  11.263  1.0289 -0.4203 -0.5437
 7673TIP3    H244511   4.474   3.818  11.336  0.8814  0.3666 -0.4199
 7674TIP3   OH244512   4.366   6.047  11.072 -0.0514  0.9305 -0.0803
 7674TIP3    H144513   4.376   6.096  10.991  1.5828  0.1403 -0.3779
 7674TIP3    H244514   4.433   6.083  11.131 -3.2031  3.7959  2.1984
 7675TIP3   OH244515   4.915   2.309  12.277  0.3922 -0.0982 -0.2369
 7675TIP3    H144516   4.849   2.285  12.212  0.6169  1.0202 -0.8930
 7675TIP3    H244517   4.979   2.238  12.273 -0.8180 -1.2989  0.5414
 7676TIP3   OH244518   6.476   0.015  10.696  0.1018  0.0976 -0.2731
 7676TIP3    H144519   6.543  -0.038  10.740  0.7287  0.2383 -1.0389
 7676TIP3    H244520   6.415   0.040  10.766  0.3059 -0.8521  0.2601
 7677TIP3   OH244521   4.286   4.693   1.493 -0.0820 -0.1832 -0.1982
 7677TIP3    H144522   4.207   4.671   1.542  0.1942 -0.8223 -0.0298
 7677TIP3    H244523   4.291   4.625   1.425  1.0737 -0.9981  0.6576
 7678TIP3   OH244524   3.150   3.926  10.320  0.5438 -0.1561  0.1394
 7678TIP3    H144525   3.106   4.007  10.296 -1.6710 -1.1776  0.5194
 7678TIP3    H244526   3.229   3.954  10.366 -0.2623  1.7605  0.4232
 7679TIP3   OH244527   2.685   4.205   1.944 -0.0166  0.1511  0.4414
 7679TIP3    H144528   2.741   4.258   1.888 -0.6444 -2.1823 -2.6796
 7679TIP3    H244529   2.723   4.117   1.940 -2.3019 -0.9280  0.3673
 7680TIP3   OH244530   0.664   5.981  11.928  0.2910 -0.0729 -0.5887
 7680TIP3    H144531   0.661   5.960  12.021  1.9651  1.0055 -0.2563
 7680TIP3    H244532   0.574   5.968  11.898 -0.6153  0.9212  1.4836
 7681TIP3   OH244533   1.997   2.814   2.107 -0.2538 -0.1928  0.4785
 7681TIP3    H144534   2.059   2.828   2.036  0.0139  1.4306  0.9892
 7681TIP3    H244535   2.045   2.841   2.186 -1.8434  2.0261  0.7833
 7682TIP3   OH244536   0.611   1.250  11.677 -0.2703 -0.1577 -0.1187
 7682TIP3    H144537   0.518   1.230  11.669  0.0229 -1.6204 -0.3447
 7682TIP3    H244538   0.650   1.168  11.710  1.0712  0.0408 -1.1123
 7683TIP3   OH244539   3.906   7.174  14.592 -0.3036  0.2823  0.8878
 7683TIP3    H144540   3.985   7.182  14.645  0.1003  2.3062  0.0651
 7683TIP3    H244541   3.926   7.104  14.530  1.6826  2.0573 -0.6095
 7684TIP3   OH244542   2.254   6.440  15.249  0.4884  0.0891  0.0649
 7684TIP3    H144543   2.212   6.470  15.168  2.5351  1.6351 -0.5013
 7684TIP3    H244544   2.221   6.501  15.316  0.4039  0.1377 -0.0201
 7685TIP3   OH244545   3.515   0.585  10.167  0.1925 -0.1269 -0.0718
 7685TIP3    H144546   3.505   0.646  10.240 -3.6373 -2.1187  1.3633
 7685TIP3    H244547   3.494   0.637  10.090  2.8795  1.6542  0.2302
 7686TIP3   OH244548   5.564   1.336  13.292  0.1588  0.1585  0.9321
 7686TIP3    H144549   5.615   1.277  13.347 -0.4582  0.8758  2.3185
 7686TIP3    H244550   5.618   1.414  13.283  1.0205 -0.5893 -0.9880
 7687TIP3   OH244551   5.358   2.815   3.493  0.1834 -0.8389 -0.2037
 7687TIP3    H144552   5.390   2.899   3.525 -3.4406  1.8372 -2.7195
 7687TIP3    H244553   5.384   2.813   3.401 -0.4626 -2.0961 -0.3763
 7688TIP3   OH244554   3.956   3.127  13.745  0.0733  0.6439 -0.0262
 7688TIP3    H144555   3.965   3.060  13.678 -0.7032 -1.1450  1.5524
 7688TIP3    H244556   4.045   3.157  13.761  0.4194  0.1036 -0.8639
 7689TIP3   OH244557   3.361   0.803  14.053  0.2474 -0.3905  0.2865
 7689TIP3    H144558   3.319   0.759  14.127 -1.0607  0.2405 -0.0566
 7689TIP3    H244559   3.313   0.884  14.043  1.7709  0.5239  0.0528
 7690TIP3   OH244560   3.388   2.148   1.643  0.0252 -0.3002  1.0041
 7690TIP3    H144561   3.309   2.190   1.610 -0.7546 -0.4889  2.5236
 7690TIP3    H244562   3.443   2.221   1.672  1.2434 -0.0476 -1.6253
 7691TIP3   OH244563   5.617   3.996  13.079 -0.5513  0.4216  0.4722
 7691TIP3    H144564   5.523   3.982  13.065 -0.4729  0.9343 -0.7645
 7691TIP3    H244565   5.639   3.939  13.152 -1.2668 -1.9007 -1.0053
 7692TIP3   OH244566   6.957   2.043   0.118 -0.0655  0.7691  0.2049
 7692TIP3    H144567   6.893   2.105   0.084 -1.0685 -0.3420 -0.0160
 7692TIP3    H244568   6.913   1.958   0.113  1.1707  0.0664  0.7239
 7693TIP3   OH244569   2.885   7.129  14.240  0.3850  0.4595 -0.0110
 7693TIP3    H144570   2.804   7.102  14.284  0.4118  1.4822  0.6879
 7693TIP3    H244571   2.857   7.195  14.177  0.5047 -0.1844 -0.7589
 7694TIP3   OH244572   0.688   1.262  15.300 -0.2114 -0.1115  0.1835
 7694TIP3    H144573   0.606   1.221  15.327 -0.4458  1.3355  1.8782
 7694TIP3    H244574   0.755   1.194  15.314 -1.0826 -1.3539 -1.3538
 7695TIP3   OH244575   1.396   4.518  14.867  0.4129 -0.2650 -0.0413
 7695TIP3    H144576   1.403   4.578  14.792 -2.4831  1.1223  0.6362
 7695TIP3    H244577   1.348   4.443  14.832  0.1676 -0.1820  0.1165
 7696TIP3   OH244578   1.827   2.319   3.302 -0.0032  0.2659  0.0374
 7696TIP3    H144579   1.844   2.231   3.337 -0.7342  0.2293  0.3110
 7696TIP3    H244580   1.887   2.376   3.350  1.1199 -0.1945 -0.7724
 7697TIP3   OH244581   0.628   4.878  10.843 -0.4629  0.2620 -0.2323
 7697TIP3    H144582   0.698   4.856  10.782 -0.2837  1.6318 -0.5643
 7697TIP3    H244583   0.643   4.823  10.920  0.4393 -0.0997 -0.6651
 7698TIP3   OH244584   0.148   2.257   0.083 -0.0637 -0.0350 -0.2956
 7698TIP3    H144585   0.141   2.162   0.082 -0.3494 -0.0126 -1.0847
 7698TIP3    H244586   0.067   2.288   0.123  0.3283 -0.1319  0.6156
 7699TIP3   OH244587   3.365   5.782  13.244  0.2668  0.0944 -0.5811
 7699TIP3    H144588   3.308   5.806  13.316  0.9211  1.1413 -0.3953
 7699TIP3    H244589   3.334   5.834  13.170 -0.6320 -1.2393 -1.1782
 7700TIP3   OH244590   1.134   5.463   9.557 -0.3538 -0.1969  0.3364
 7700TIP3    H144591   1.204   5.491   9.499 -1.1368 -0.0043 -0.5371
 7700TIP3    H244592   1.059   5.519   9.534 -1.0400 -0.9512  0.6807
 7701TIP3   OH244593   0.464   2.995  15.060  0.7776 -0.2765  0.2650
 7701TIP3    H144594   0.440   2.915  15.106  0.9929 -0.1419  0.6148
 7701TIP3    H244595   0.452   3.065  15.124 -0.8258  0.1631 -0.4698
 7702TIP3   OH244596   1.920   5.858  12.183 -0.1983  0.2295 -0.3203
 7702TIP3    H144597   2.002   5.827  12.222 -0.5667  0.2048  0.4689
 7702TIP3    H244598   1.918   5.952  12.202 -1.0839 -0.0420  1.0871
 7703TIP3   OH244599   6.166   5.572   4.242 -0.3498  0.1651 -0.0590
 7703TIP3    H144600   6.248   5.595   4.197 -0.7121 -1.7063 -1.8607
 7703TIP3    H244601   6.101   5.633   4.208  0.2260  1.6154  1.3267
 7704TIP3   OH244602   5.895   4.049   3.899 -0.0350 -0.3656 -0.5954
 7704TIP3    H144603   5.901   4.141   3.870  1.2413 -0.5391 -0.9644
 7704TIP3    H244604   5.916   4.052   3.992  1.4006 -0.4090 -0.8886
 7705TIP3   OH244605   3.745   5.038  12.471 -0.1322  0.1533  0.2203
 7705TIP3    H144606   3.806   4.983  12.422 -1.0957 -0.7655  0.0197
 7705TIP3    H244607   3.699   5.089  12.404  0.2358  0.6668  0.3525
 7706TIP3   OH244608   4.009   3.758  11.338  0.7351  0.2466 -0.2607
 7706TIP3    H144609   4.001   3.852  11.353  1.6754  0.3623 -0.4059
 7706TIP3    H244610   3.949   3.718  11.400  2.5277  0.8114  1.9553
 7707TIP3   OH244611   6.704   2.917   4.147 -0.1104 -0.1672 -0.1054
 7707TIP3    H144612   6.645   2.904   4.072 -0.3639 -0.3510  0.1238
 7707TIP3    H244613   6.767   2.982   4.116  0.7294 -1.3734 -1.0317
 7708TIP3   OH244614   1.200   6.171  10.951  0.1687 -0.3555 -0.1513
 7708TIP3    H144615   1.124   6.200  10.900 -0.0369 -0.3923  0.1260
 7708TIP3    H244616   1.240   6.253  10.982  0.7420 -0.3082 -1.0022
 7709TIP3   OH244617   4.599   0.857  11.565 -0.4259 -0.4277 -0.1454
 7709TIP3    H144618   4.547   0.908  11.628 -1.3830 -0.7505 -0.6449
 7709TIP3    H244619   4.621   0.777  11.611 -1.3507 -0.7804 -0.2835
 7710TIP3   OH244620   2.991   0.418   5.294 -0.2098  0.0286  0.3462
 7710TIP3    H144621   2.922   0.472   5.255 -0.8348  0.4923  2.0018
 7710TIP3    H244622   3.020   0.361   5.223 -2.6182 -0.4918 -0.3108
 7711TIP3   OH244623   6.792   2.892   9.716 -0.3051 -0.1310 -0.1843
 7711TIP3    H144624   6.774   2.967   9.773 -0.1572 -0.4708  0.3171
 7711TIP3    H244625   6.734   2.904   9.641 -0.5943  0.2549  0.0997
 7712TIP3   OH244626   3.271   6.102   5.940  0.1438  0.0252 -0.0340
 7712TIP3    H144627   3.315   6.027   5.980  0.2287 -1.1135 -2.0782
 7712TIP3    H244628   3.180   6.072   5.929 -0.2088  0.8476  0.5593
 7713TIP3   OH244629   6.777   1.194   0.707 -0.5983  0.3591 -0.2400
 7713TIP3    H144630   6.782   1.275   0.656 -0.2855  0.1684 -0.5131
 7713TIP3    H244631   6.825   1.212   0.787  1.6864 -0.3450 -1.3592
 7714TIP3   OH244632   2.183   0.562  11.945 -0.0389  0.0291 -0.1019
 7714TIP3    H144633   2.180   0.569  12.041  1.2547 -1.4540  0.0945
 7714TIP3    H244634   2.117   0.624  11.914 -1.0671 -0.0540  1.7764
 7715TIP3   OH244635   4.387   1.018  11.603  0.3334 -0.2042 -0.4847
 7715TIP3    H144636   4.388   1.108  11.570  1.4862  0.2850  0.7850
 7715TIP3    H244637   4.331   0.971  11.542  0.1246  1.2603 -1.4797
 7716TIP3   OH244638   5.879   4.430  15.010  0.1079  0.3280  0.0929
 7716TIP3    H144639   5.946   4.424  14.942 -1.6075  0.1211 -1.6602
 7716TIP3    H244640   5.800   4.394  14.970 -1.1949  0.9687  1.9202
 7717TIP3   OH244641   5.908   1.604  13.546 -0.2293  0.4484 -0.0554
 7717TIP3    H144642   5.949   1.573  13.465 -0.8452  0.0985 -0.2328
 7717TIP3    H244643   5.981   1.611  13.608  0.3189  1.1030 -0.7471
 7718TIP3   OH244644   4.569   5.211   2.053 -0.4981 -0.1198 -0.1857
 7718TIP3    H144645   4.637   5.160   2.009 -0.2952 -0.9774  1.0647
 7718TIP3    H244646   4.571   5.297   2.010  2.0859  0.2269  0.4679
 7719TIP3   OH244647   4.377   1.970  14.241  0.0538  0.0729 -0.3006
 7719TIP3    H144648   4.419   1.886  14.260 -1.5325 -0.7990 -0.4323
 7719TIP3    H244649   4.446   2.023  14.202  1.7406 -0.2712  2.0191
 7720TIP3   OH244650   6.551   4.625  15.016  0.6557 -0.4024  0.0066
 7720TIP3    H144651   6.560   4.534  14.987  2.2113 -0.3870  0.3826
 7720TIP3    H244652   6.640   4.659  15.016 -0.0775  1.7862 -2.1716
 7721TIP3   OH244653   0.050   4.133  13.997  0.3196 -0.0903 -0.2866
 7721TIP3    H144654   0.025   4.225  14.001  1.3642  0.1756  2.6850
 7721TIP3    H244655   0.106   4.120  14.074  1.2155 -2.9240 -1.2943
 7722TIP3   OH244656   5.306   6.656  11.920  0.5597  0.2862 -0.1685
 7722TIP3    H144657   5.333   6.564  11.930  1.3957  0.4143 -1.1656
 7722TIP3    H244658   5.276   6.681  12.008  0.7648 -0.7968  0.2290
 7723TIP3   OH244659   4.170   1.003   0.861  0.4382 -0.4849  0.4341
 7723TIP3    H144660   4.146   0.910   0.868 -0.1265 -0.3157  0.8393
 7723TIP3    H244661   4.135   1.030   0.777  0.8164 -0.6994  0.2054
 7724TIP3   OH244662   3.397   1.100   0.749 -1.0063  0.6551 -0.0165
 7724TIP3    H144663   3.443   1.184   0.755 -0.3147  0.2243  1.0197
 7724TIP3    H244664   3.350   1.094   0.832 -2.3427  0.7332 -0.7451
 7725TIP3   OH244665   1.547   2.992   2.331  0.2469  0.2703  0.4618
 7725TIP3    H144666   1.505   3.078   2.337  1.7877  1.0220  0.8424
 7725TIP3    H244667   1.593   2.994   2.247 -2.7984 -1.6831 -1.4464
 7726TIP3   OH244668   0.273   4.596   0.445 -0.0569  0.6076 -0.2786
 7726TIP3    H144669   0.363   4.595   0.413 -0.4084  0.8462 -1.3377
 7726TIP3    H244670   0.229   4.661   0.389 -0.9934  0.1498 -0.0911
 7727TIP3   OH244671   3.807   5.100   1.004 -0.1246  0.1941 -0.4158
 7727TIP3    H144672   3.815   5.185   1.047 -0.3401  1.5000 -2.7409
 7727TIP3    H244673   3.859   5.109   0.924  0.4000 -2.1305 -0.4157
 7728TIP3   OH244674   4.619   4.515  12.235 -0.3547  0.3388  0.3526
 7728TIP3    H144675   4.693   4.503  12.294 -0.8611  0.8038  1.0948
 7728TIP3    H244676   4.550   4.553  12.289 -0.7534  1.0067 -0.5923
 7729TIP3   OH244677   6.457   0.295   2.766 -0.1662 -0.0546  0.0863
 7729TIP3    H144678   6.485   0.313   2.856  1.0090  0.9802 -0.4459
 7729TIP3    H244679   6.363   0.283   2.772 -0.4224  1.9611  1.2078
 7730TIP3   OH244680   3.220   5.581   0.539 -0.4458  0.1606  0.3632
 7730TIP3    H144681   3.236   5.555   0.630 -2.4532 -0.5067  0.5720
 7730TIP3    H244682   3.248   5.505   0.487  1.3215  0.7877  0.3194
 7731TIP3   OH244683   3.377   5.621   1.093  0.0833  0.4991 -0.8688
 7731TIP3    H144684   3.406   5.643   1.004  0.1805 -1.8996 -1.5107
 7731TIP3    H244685   3.326   5.541   1.082 -0.0330  0.2338  1.2381
 7732TIP3   OH244686   5.924   5.213   1.213 -0.6732  0.0388 -0.3491
 7732TIP3    H144687   5.932   5.249   1.302  2.9798 -1.1949  0.0094
 7732TIP3    H244688   5.914   5.119   1.226 -0.1409 -0.1484 -1.2138
 7733TIP3   OH244689   2.125   2.025  10.962 -0.3767 -0.0898  0.3532
 7733TIP3    H144690   2.077   2.072  11.031 -0.0286 -0.6930  1.0216
 7733TIP3    H244691   2.145   1.940  11.001  0.6069 -0.1103 -0.1830
 7734TIP3   OH244692   4.896   6.476  10.553 -0.3948  0.4471 -0.3604
 7734TIP3    H144693   4.801   6.487  10.560 -0.6108 -1.3016  0.0206
 7734TIP3    H244694   4.930   6.509  10.636 -0.7171  0.7083 -0.3320
 7735TIP3   OH244695   3.345   1.733   5.162  0.0252 -0.4114 -0.4330
 7735TIP3    H144696   3.388   1.785   5.230  0.6039  0.0542 -1.1478
 7735TIP3    H244697   3.398   1.654   5.155 -0.1752 -0.5707 -0.1772
 7736TIP3   OH244698   0.461   4.227   5.241  0.4224  0.4304  0.3521
 7736TIP3    H144699   0.537   4.250   5.188  0.3737 -0.3971 -0.0900
 7736TIP3    H244700   0.464   4.132   5.248 -1.0281  0.2938 -0.3854
 7737TIP3   OH244701   5.743   5.885   0.568 -0.4779 -0.2663 -0.2700
 7737TIP3    H144702   5.655   5.889   0.529 -0.3003 -0.3566 -0.6813
 7737TIP3    H244703   5.802   5.897   0.494 -0.1472  0.2643  0.0705
 7738TIP3   OH244704   1.836   5.598  11.586  0.1882 -0.0451 -0.4596
 7738TIP3    H144705   1.865   5.513  11.620  0.1578  0.6864  1.5698
 7738TIP3    H244706   1.740   5.593  11.588  0.1488 -0.7068 -2.4432
 7739TIP3   OH244707   5.441   3.068   0.566  0.0220  0.1935 -0.0073
 7739TIP3    H144708   5.507   3.131   0.539 -0.6357  0.4219 -1.1635
 7739TIP3    H244709   5.398   3.042   0.484 -1.9470  0.7786  0.7705
 7740TIP3   OH244710   0.428   5.192  14.918 -0.0677  0.5450  0.2945
 7740TIP3    H144711   0.400   5.229  15.002  0.6857  1.4041  0.1830
 7740TIP3    H244712   0.412   5.262  14.855 -0.2983  0.0284 -0.2206
 7741TIP3   OH244713   4.208   6.462   9.856 -0.3440  0.0833 -0.2393
 7741TIP3    H144714   4.137   6.427   9.802 -0.4648 -1.8110  1.0550
 7741TIP3    H244715   4.270   6.390   9.864  1.1167  1.2797 -0.2492
 7742TIP3   OH244716   2.009   1.828   1.507 -0.3951 -0.1274 -0.3088
 7742TIP3    H144717   1.995   1.913   1.464 -0.6286  0.6910  1.2958
 7742TIP3    H244718   2.007   1.764   1.435 -2.6493  0.9558 -1.3110
 7743TIP3   OH244719   3.595   0.440   4.054 -0.2265 -0.4869 -0.7132
 7743TIP3    H144720   3.676   0.411   4.097 -0.7721 -1.3652 -0.2449
 7743TIP3    H244721   3.567   0.516   4.104  0.5348  0.0853 -1.1448
 7744TIP3   OH244722   6.061   4.912  14.444 -0.5437  0.0692 -0.2751
 7744TIP3    H144723   6.118   4.988  14.429  0.7768 -0.7277  0.4186
 7744TIP3    H244724   6.084   4.851  14.374 -2.1978  0.5935 -1.3297
 7745TIP3   OH244725   5.368   6.695  14.197  0.5905 -0.4532  0.4294
 7745TIP3    H144726   5.331   6.609  14.177  2.0367 -1.3284  1.2854
 7745TIP3    H244727   5.296   6.745  14.234 -0.8460 -0.5088 -2.0546
 7746TIP3   OH244728   1.135   3.515  12.534  0.1469  0.1044 -0.2259
 7746TIP3    H144729   1.095   3.524  12.621 -1.7692  1.5828 -1.1672
 7746TIP3    H244730   1.187   3.595  12.523 -1.1547  0.8649 -1.1241
 7747TIP3   OH244731   6.619   0.692  13.020 -0.3411  0.1986 -0.0261
 7747TIP3    H144732   6.539   0.657  12.982 -1.0857  2.4044 -0.6855
 7747TIP3    H244733   6.589   0.754  13.087  0.8480  0.1487  0.5862
 7748TIP3   OH244734   0.699   0.781  13.122 -0.1452  0.1853 -0.6302
 7748TIP3    H144735   0.764   0.848  13.098 -0.6114  1.0566  0.4180
 7748TIP3    H244736   0.670   0.807  13.210 -2.9203  0.6468 -1.5824
 7749TIP3   OH244737   5.700   2.647  14.991  0.1028 -0.2990 -0.5172
 7749TIP3    H144738   5.641   2.659  15.066  1.3813 -1.0355  0.6369
 7749TIP3    H244739   5.708   2.735  14.954  1.7900  0.7365  2.0427
 7750TIP3   OH244740   3.296   4.025  12.543 -0.3424  0.2949 -0.1081
 7750TIP3    H144741   3.361   4.007  12.611 -0.3850  1.5000  0.2707
 7750TIP3    H244742   3.239   3.948  12.544  1.3520 -1.0408 -0.8159
 7751TIP3   OH244743   0.600   1.497  13.443 -0.4479  0.1103 -0.5598
 7751TIP3    H144744   0.549   1.416  13.445 -0.2726 -0.0247 -1.2746
 7751TIP3    H244745   0.671   1.479  13.381  0.4964  0.2781  0.4591
 7752TIP3   OH244746   6.884   0.667  12.894  0.1342 -0.3770  0.1176
 7752TIP3    H144747   6.801   0.702  12.926  1.3818  1.1263  1.9699
 7752TIP3    H244748   6.942   0.744  12.890  1.0799 -1.1247 -2.5333
 7753TIP3   OH244749   2.708   4.987  13.770  0.1296  0.0553 -0.2111
 7753TIP3    H144750   2.767   5.046  13.723  0.7792  0.6634  1.3174
 7753TIP3    H244751   2.728   4.900  13.735  1.7436  0.2843  0.0692
 7754TIP3   OH244752   6.766   3.550  13.555  0.1222 -0.4573  0.2086
 7754TIP3    H144753   6.789   3.576  13.466 -0.7530  0.2781  0.1865
 7754TIP3    H244754   6.838   3.492  13.582  1.6984  1.2747 -0.0639
 7755TIP3   OH244755   4.868   1.818   5.426 -0.9171 -0.5613 -0.3483
 7755TIP3    H144756   4.887   1.771   5.507  0.1324  0.6014  0.1213
 7755TIP3    H244757   4.776   1.801   5.409 -1.2617 -0.5279  1.3029
 7756TIP3   OH244758   1.173   5.034  14.651  0.2117  0.1625 -0.4311
 7756TIP3    H144759   1.186   5.091  14.727 -2.4774 -0.0142  0.2619
 7756TIP3    H244760   1.221   4.954  14.673 -1.7639 -0.5029  1.9073
 7757TIP3   OH244761   1.981   4.314   2.649 -0.6656 -0.7199 -0.6971
 7757TIP3    H144762   2.063   4.268   2.666 -0.3411  0.1750  0.2412
 7757TIP3    H244763   1.915   4.245   2.644  0.1089 -1.4354 -1.2977
 7758TIP3   OH244764   0.397   0.325  11.586 -0.0818  0.2254  0.0867
 7758TIP3    H144765   0.356   0.297  11.668 -0.5712 -0.2245 -0.3062
 7758TIP3    H244766   0.477   0.273  11.581  0.4179  0.9016  0.7140
 7759TIP3   OH244767   0.213   3.519   9.581 -0.3218 -0.0206  0.0707
 7759TIP3    H144768   0.250   3.474   9.505 -0.7777 -1.0229  0.4221
 7759TIP3    H244769   0.255   3.605   9.581  1.1149 -0.6871 -0.2179
 7760TIP3   OH244770   1.391   2.901  10.775 -0.0997 -0.0482 -0.0176
 7760TIP3    H144771   1.387   2.961  10.849 -0.2163  0.3751 -0.3581
 7760TIP3    H244772   1.458   2.837  10.799 -0.9303 -0.5826  0.9353
 7761TIP3   OH244773   2.930   4.095  10.206 -0.4002 -0.2151  0.3121
 7761TIP3    H144774   2.933   4.056  10.118 -0.4048 -2.0664  1.0849
 7761TIP3    H244775   2.913   4.188  10.190  1.6698 -0.0894 -1.7303
 7762TIP3   OH244776   5.391   5.979  13.725 -0.0153  0.7617 -0.6423
 7762TIP3    H144777   5.308   6.006  13.686 -0.1584  0.7773 -0.3296
 7762TIP3    H244778   5.440   5.941  13.652 -1.0226 -0.9532 -0.4838
 7763TIP3   OH244779   0.121   2.744   4.047  0.6362  0.4394 -0.8867
 7763TIP3    H144780   0.198   2.687   4.052  0.3466  0.0111 -1.3029
 7763TIP3    H244781   0.138   2.800   3.971 -0.2172 -0.7851 -2.0176
 7764TIP3   OH244782   2.521   3.873  13.847 -0.0431  0.3807 -0.3175
 7764TIP3    H144783   2.431   3.839  13.843 -0.0528  0.5708 -2.4282
 7764TIP3    H244784   2.575   3.795  13.860 -0.4161  0.1490 -0.1240
 7765TIP3   OH244785   0.954   1.806  13.238  0.0403  0.0094  0.6421
 7765TIP3    H144786   1.049   1.819  13.232 -0.0328  0.9858  1.3495
 7765TIP3    H244787   0.919   1.840  13.156  0.5035 -2.9660 -0.9201
 7766TIP3   OH244788   2.363   7.071  14.686  0.8227  0.0634 -0.0231
 7766TIP3    H144789   2.421   7.141  14.715  1.7245  0.2978 -2.1853
 7766TIP3    H244790   2.337   7.097  14.598 -2.9216  0.1272  0.9519
 7767TIP3   OH244791   6.092   3.555  11.660 -0.0304  0.4225  0.5540
 7767TIP3    H144792   6.120   3.492  11.727  1.5538  0.0287 -0.4163
 7767TIP3    H244793   6.043   3.503  11.596 -1.2130  0.7294  1.1845
 7768TIP3   OH244794   5.453   6.311   0.855  0.0909 -0.5565 -0.1574
 7768TIP3    H144795   5.538   6.333   0.895  0.0984 -0.0035 -0.4722
 7768TIP3    H244796   5.390   6.321   0.926  0.3879 -1.8277  0.3150
 7769TIP3   OH244797   0.882   3.236  10.624  0.2168  0.0700  0.1927
 7769TIP3    H144798   0.901   3.164  10.685 -1.8960 -1.0146 -0.3185
 7769TIP3    H244799   0.944   3.305  10.648  1.2756 -1.3373  1.7443
 7770TIP3   OH244800   6.399   1.026  11.906  0.3946 -0.5602 -0.0887
 7770TIP3    H144801   6.334   1.056  11.969  1.3500  1.3214  0.0734
 7770TIP3    H244802   6.424   0.939  11.937  1.0626  0.4175  2.3640
 7771TIP3   OH244803   4.331   1.956   2.293 -0.2332 -0.1625 -0.2064
 7771TIP3    H144804   4.308   1.870   2.329  0.2529  0.6290  2.2448
 7771TIP3    H244805   4.307   2.018   2.363 -0.2844  1.6890 -1.7657
 7772TIP3   OH244806   4.291   1.974   5.610  0.2989 -0.0287 -0.0821
 7772TIP3    H144807   4.234   1.928   5.549  1.2945 -1.7608  0.2316
 7772TIP3    H244808   4.272   2.067   5.595 -1.8214 -0.5006 -0.6997
 7773TIP3   OH244809   1.279   4.437  11.188  0.2290  0.1696 -0.0500
 7773TIP3    H144810   1.358   4.451  11.239  0.0741  0.1000  0.2122
 7773TIP3    H244811   1.307   4.384  11.113  0.1371 -1.2943  0.9091
 7774TIP3   OH244812   3.908   5.169  11.609  0.0162 -0.2669 -0.3474
 7774TIP3    H144813   3.892   5.238  11.673  4.2689  0.7583 -0.1286
 7774TIP3    H244814   3.896   5.088  11.658 -0.9481  0.3649  0.5089
 7775TIP3   OH244815   2.736   6.614  12.687  0.1908  0.2310 -0.5258
 7775TIP3    H144816   2.663   6.656  12.733  0.3692  0.8924 -0.8367
 7775TIP3    H244817   2.725   6.521  12.705 -0.3981  0.3794 -0.0895
 7776TIP3   OH244818   1.528   3.223   4.686  0.0275  0.5559 -0.2570
 7776TIP3    H144819   1.461   3.285   4.657  0.7697  1.1589 -0.7125
 7776TIP3    H244820   1.610   3.271   4.679  0.5488 -0.2749 -0.0002
 7777TIP3   OH244821   1.913   0.241  13.732  0.0330  0.5169  0.2343
 7777TIP3    H144822   1.907   0.160  13.783 -0.2928  1.2438  1.3992
 7777TIP3    H244823   1.951   0.214  13.648 -1.0602 -1.0004  0.1922
 7778TIP3   OH244824   4.514   3.135  13.760 -0.1846  0.2292 -0.4096
 7778TIP3    H144825   4.598   3.181  13.757  0.0526  0.0562  1.7158
 7778TIP3    H244826   4.526   3.069  13.829 -2.1967  0.4694  0.2301
 7779TIP3   OH244827   0.995   4.725   0.641 -0.1958 -0.1975 -0.5186
 7779TIP3    H144828   0.900   4.715   0.640 -0.2419  0.2137 -1.5477
 7779TIP3    H244829   1.029   4.635   0.638 -0.5168 -0.4214  1.3374
 7780TIP3   OH244830   5.011   0.426   4.268 -0.4249 -0.4932 -0.3603
 7780TIP3    H144831   5.018   0.332   4.282  0.5337 -0.3403  0.3015
 7780TIP3    H244832   5.041   0.465   4.351  0.2672  0.3966 -1.0059
 7781TIP3   OH244833   3.549   2.640  10.128 -0.4411  0.3716  0.2320
 7781TIP3    H144834   3.556   2.552  10.092 -0.7749  0.0325  0.9856
 7781TIP3    H244835   3.471   2.637  10.183 -0.8019  1.3050 -0.2113
 7782TIP3   OH244836   6.458   3.483  12.977 -0.1930  0.4507  0.6190
 7782TIP3    H144837   6.518   3.423  12.931  0.6823  0.1714  2.0431
 7782TIP3    H244838   6.408   3.426  13.035 -0.2056  0.9612  1.1163
 7783TIP3   OH244839   5.180   0.087  12.982 -0.0848 -0.1637 -0.0419
 7783TIP3    H144840   5.180   0.017  13.048  0.7401  0.2939  0.4626
 7783TIP3    H244841   5.127   0.157  13.021  3.0340  1.4492  1.6781
 7784TIP3   OH244842   6.164   5.158  13.052  0.2095 -0.1201  0.5759
 7784TIP3    H144843   6.190   5.251  13.049 -0.3867  0.1458  2.5885
 7784TIP3    H244844   6.083   5.155  13.000 -0.0436  0.5945  0.9064
 7785TIP3   OH244845   1.749   2.885  14.400 -0.5452  0.7974  0.0468
 7785TIP3    H144846   1.834   2.930  14.404  0.0949 -0.3730  0.0813
 7785TIP3    H244847   1.686   2.950  14.431  0.6017  1.0472  2.0490
 7786TIP3   OH244848   1.927   2.383   0.309  0.0381  0.6481  0.5760
 7786TIP3    H144849   2.007   2.434   0.295 -0.7154  1.4233 -1.1493
 7786TIP3    H244850   1.858   2.448   0.323 -1.0818  0.2428 -2.3652
 7787TIP3   OH244851   2.025   6.285   3.616  0.3779  0.2865 -0.4018
 7787TIP3    H144852   2.111   6.276   3.657 -0.2455 -1.4724  0.6455
 7787TIP3    H244853   1.988   6.364   3.656  1.0474  0.4021  0.0150
 7788TIP3   OH244854   6.798   2.193   2.927 -0.6484 -0.0071  0.2029
 7788TIP3    H144855   6.805   2.269   2.869 -0.5962  1.1315  1.6416
 7788TIP3    H244856   6.717   2.206   2.975 -0.4890 -0.7071  0.6927
 7789TIP3   OH244857   0.377   6.815  12.100  0.0672  0.5234 -0.3076
 7789TIP3    H144858   0.448   6.752  12.088 -1.6189 -1.5171 -0.1270
 7789TIP3    H244859   0.380   6.837  12.193 -1.0836 -1.5750  0.2763
 7790TIP3   OH244860   5.005   6.253   1.804  0.0006 -0.6585  0.1136
 7790TIP3    H144861   5.056   6.243   1.884  1.2374 -0.1212 -0.5753
 7790TIP3    H244862   5.013   6.346   1.782  1.5119 -1.1697 -1.7687
 7791TIP3   OH244863   2.562   3.477   9.937  0.6356  0.0640  0.0414
 7791TIP3    H144864   2.467   3.479   9.952  0.6417 -3.5616  1.4108
 7791TIP3    H244865   2.571   3.448   9.846  0.3479 -1.3846  0.4477
 7792TIP3   OH244866   4.934   6.664   3.036 -0.4539 -0.2100  0.0217
 7792TIP3    H144867   4.886   6.724   3.092  0.7545  1.2400 -0.4308
 7792TIP3    H244868   4.869   6.633   2.973 -1.2380  0.1237  0.6461
 7793TIP3   OH244869   0.188   1.218   0.161  0.0383  0.6914  0.7493
 7793TIP3    H144870   0.196   1.127   0.192  0.5768  0.7303  0.7443
 7793TIP3    H244871   0.164   1.267   0.239  0.1232  0.5999  0.8341
 7794TIP3   OH244872   3.330   0.085  11.194  0.2643  0.8578  0.1195
 7794TIP3    H144873   3.335   0.173  11.232 -1.3552  1.1689 -0.2857
 7794TIP3    H244874   3.333   0.026  11.269 -0.3331  1.3528  0.5437
 7795TIP3   OH244875   2.383   0.450  14.077 -0.0940 -0.0335 -0.2427
 7795TIP3    H144876   2.397   0.528  14.131 -2.5787  0.8712 -0.7924
 7795TIP3    H244877   2.416   0.475  13.990  1.1349 -0.4238  0.0895
 7796TIP3   OH244878   2.112   2.131  14.414 -0.0179 -0.2611  0.4494
 7796TIP3    H144879   2.173   2.142  14.487  2.2157  1.4593 -1.5173
 7796TIP3    H244880   2.061   2.213  14.413 -0.0209 -0.2653  0.0723
 7797TIP3   OH244881   4.947   2.150  10.770 -0.4936 -0.4078 -0.1015
 7797TIP3    H144882   4.878   2.096  10.809 -0.5893  1.3943  2.4710
 7797TIP3    H244883   4.902   2.203  10.704 -1.3523 -0.1226  0.6881
 7798TIP3   OH244884   0.661   5.787  14.489  0.3287 -0.3839 -0.5585
 7798TIP3    H144885   0.745   5.745  14.511 -0.2737 -1.5390 -0.4017
 7798TIP3    H244886   0.661   5.791  14.394  0.1240 -1.3448 -0.6103
 7799TIP3   OH244887   1.251   2.661  11.685 -0.3411 -0.0182  0.0508
 7799TIP3    H144888   1.214   2.577  11.657  0.3419  0.1726 -1.5839
 7799TIP3    H244889   1.337   2.639  11.719 -0.9435 -0.1838  1.5153
 7800TIP3   OH244890   0.636   3.893   5.077  0.2548 -0.0952  0.3165
 7800TIP3    H144891   0.708   3.843   5.115  0.5527  0.5482  0.6003
 7800TIP3    H244892   0.611   3.842   5.000  0.3740 -0.8264  0.7478
 7801TIP3   OH244893   3.662   1.706  14.462 -0.2040  0.0678  0.2169
 7801TIP3    H144894   3.688   1.661  14.383  2.0691 -1.3019  1.6457
 7801TIP3    H244895   3.708   1.790  14.459 -0.7737  0.3789 -0.2421
 7802TIP3   OH244896   2.207   3.788   2.139 -0.2981 -0.4468  0.6524
 7802TIP3    H144897   2.242   3.814   2.053 -0.0596 -3.3024 -0.2220
 7802TIP3    H244898   2.189   3.694   2.130 -0.7748 -0.7267  3.5897
 7803TIP3   OH244899   0.786   4.811  14.861  0.1160 -0.1035  0.0383
 7803TIP3    H144900   0.751   4.889  14.818  0.4771  1.1287  1.8613
 7803TIP3    H244901   0.869   4.794  14.815  1.4465  2.3219  1.3596
 7804TIP3   OH244902   6.237   6.634  11.332 -0.1812  0.2147  0.2670
 7804TIP3    H144903   6.294   6.627  11.409 -0.1565  0.5906  0.2828
 7804TIP3    H244904   6.148   6.630  11.368 -0.1881  1.4983  0.4340
 7805TIP3   OH244905   5.271   2.631   1.194  0.0364  0.3996  0.0065
 7805TIP3    H144906   5.243   2.539   1.191  1.3084 -0.0031  0.1273
 7805TIP3    H244907   5.334   2.634   1.266  1.6211  0.8936 -1.3463
 7806TIP3   OH244908   7.195   5.920   9.443  0.7080 -0.5609  0.4745
 7806TIP3    H144909   7.248   5.871   9.507  1.0653 -1.3021 -0.3766
 7806TIP3    H244910   7.219   6.012   9.459  1.2764 -0.7854  0.9751
 7807TIP3   OH244911   7.056   4.793   0.530 -0.2146 -0.2662  0.6416
 7807TIP3    H144912   7.050   4.857   0.460  0.7039  0.3250  1.0913
 7807TIP3    H244913   6.993   4.823   0.596  0.6962  0.5882  1.1552
 7808TIP3   OH244914   2.081   5.695  14.555  1.2063  0.3779 -0.4237
 7808TIP3    H144915   2.127   5.716  14.637  1.8775  2.8196 -1.3280
 7808TIP3    H244916   1.993   5.668  14.583  1.7152  0.2556  1.1417
 7809TIP3   OH244917   6.548   2.238  13.179  0.2333 -0.2176  0.1933
 7809TIP3    H144918   6.639   2.221  13.157 -0.1146 -2.6232  0.3561
 7809TIP3    H244919   6.498   2.174  13.128 -1.1639 -0.5602  1.8955
 7810TIP3   OH244920   4.680   3.940  11.122 -0.0804  0.0988  0.7523
 7810TIP3    H144921   4.774   3.924  11.126 -0.0589  0.1300  0.3119
 7810TIP3    H244922   4.665   3.984  11.039 -0.5940 -0.6452  0.4341
 7811TIP3   OH244923   4.462   6.195  10.858 -0.1634  0.2151  0.0213
 7811TIP3    H144924   4.485   6.286  10.840  1.7255 -0.3915 -0.9043
 7811TIP3    H244925   4.401   6.171  10.789  0.7262  0.2808 -0.8032
 7812TIP3   OH244926   4.951   4.745  10.051 -0.4682  0.2031 -0.5019
 7812TIP3    H144927   5.024   4.710  10.102  0.5694  1.8668 -0.7857
 7812TIP3    H244928   4.875   4.693  10.079  0.6659 -1.0299  0.3744
 7813TIP3   OH244929   4.510   2.057  12.089  0.1868 -0.5221  0.0818
 7813TIP3    H144930   4.471   2.124  12.032  3.4717  1.4154 -0.1354
 7813TIP3    H244931   4.537   1.987  12.030  2.4015  0.8929 -0.6788
 7814TIP3   OH244932   3.342   3.010   3.924 -0.0968  0.3942  0.2005
 7814TIP3    H144933   3.269   2.999   3.863  0.0694 -0.5818  0.1577
 7814TIP3    H244934   3.339   3.102   3.948 -0.9053  0.5283 -0.3524
 7815TIP3   OH244935   0.225   3.824  11.269  0.5775  0.1856 -0.1491
 7815TIP3    H144936   0.196   3.902  11.317  2.6338 -0.0180  1.6347
 7815TIP3    H244937   0.312   3.848  11.236  0.3276 -0.6394 -1.4724
 7816TIP3   OH244938   0.254   5.523  12.983 -0.0579  0.1368 -0.8011
 7816TIP3    H144939   0.200   5.591  13.023 -0.2384 -0.9943  0.9848
 7816TIP3    H244940   0.198   5.446  12.982  0.0704  0.0117 -3.0085
 7817TIP3   OH244941   4.181   4.264   9.992  0.2407 -0.5133 -0.3217
 7817TIP3    H144942   4.212   4.354   9.982 -0.6483 -0.1063  0.5140
 7817TIP3    H244943   4.206   4.239  10.081  1.4140 -1.4824 -0.8846
 7818TIP3   OH244944   2.765   0.725  11.445 -0.3003 -0.0557  0.6981
 7818TIP3    H144945   2.855   0.718  11.412 -0.5772  0.0620 -0.1194
 7818TIP3    H244946   2.716   0.662  11.393 -0.7816  0.2317  0.8022
 7819TIP3   OH244947   5.186   4.846  11.531  0.0842  0.0122 -0.8866
 7819TIP3    H144948   5.277   4.844  11.561 -0.5908 -1.1741  1.2719
 7819TIP3    H244949   5.168   4.756  11.504 -1.0741 -0.3316  0.8723
 7820TIP3   OH244950   6.713   2.313   9.862  0.2619 -0.1389 -0.4992
 7820TIP3    H144951   6.651   2.324   9.790  0.4410 -0.4095 -0.6970
 7820TIP3    H244952   6.658   2.295   9.939  0.0342  0.7654 -0.4324
 7821TIP3   OH244953   5.146   3.354  11.020  0.0000 -0.1868  0.1936
 7821TIP3    H144954   5.069   3.298  11.033 -0.5991  0.4939 -0.3119
 7821TIP3    H244955   5.130   3.430  11.076  0.4886 -0.2104  0.3676
 7822TIP3   OH244956   5.261   0.845  14.281  0.9847  0.0362 -0.0752
 7822TIP3    H144957   5.333   0.871  14.339  0.5383 -0.0949  0.5472
 7822TIP3    H244958   5.257   0.914  14.215  1.2974  0.3507  0.2315
 7823TIP3   OH244959   3.024   2.960  13.161 -0.1952  0.1923  0.1253
 7823TIP3    H144960   3.043   3.042  13.206  0.5450 -0.0258  0.2132
 7823TIP3    H244961   3.042   2.892  13.226  2.6313 -0.2399 -0.9930
 7824TIP3   OH244962   1.516   0.892   2.884  0.0166 -0.0978  0.4718
 7824TIP3    H144963   1.566   0.955   2.833 -1.3150  1.0755  0.5682
 7824TIP3    H244964   1.484   0.829   2.820  0.0965  0.1755  0.1627
 7825TIP3   OH244965   0.737   0.228  14.296  0.8018  0.1989  0.6013
 7825TIP3    H144966   0.794   0.152  14.287 -1.6891 -1.6057 -1.5427
 7825TIP3    H244967   0.732   0.265  14.208 -2.2010 -0.4983  0.3802
 7826TIP3   OH244968   4.105   3.564  14.079  0.2039  0.3021 -0.2944
 7826TIP3    H144969   4.116   3.655  14.050  2.5719  0.0559 -0.3052
 7826TIP3    H244970   4.072   3.518  14.002  0.3990  0.8721 -0.7243
 7827TIP3   OH244971   5.946   6.249   0.212 -0.8817 -0.7532 -0.2155
 7827TIP3    H144972   5.960   6.314   0.143 -0.2937 -0.1181  0.4833
 7827TIP3    H244973   5.851   6.245   0.222 -0.9088  0.7892  0.4356
 7828TIP3   OH244974   3.474   1.162   1.654  0.0691  0.0089 -0.0892
 7828TIP3    H144975   3.391   1.207   1.673 -0.0139 -0.9089  2.0408
 7828TIP3    H244976   3.447   1.082   1.609 -0.4178 -1.0336  1.9268
 7829TIP3   OH244977   5.074   3.474  11.582 -0.0915 -0.1064  0.0001
 7829TIP3    H144978   5.072   3.544  11.517  0.4578  1.4936  1.6176
 7829TIP3    H244979   5.139   3.412  11.549 -1.8345 -0.8111 -2.3310
 7830TIP3   OH244980   1.991   6.589  14.872 -0.3428 -0.7181 -0.0523
 7830TIP3    H144981   2.055   6.522  14.846  0.1049 -0.7518  1.1057
 7830TIP3    H244982   2.016   6.667  14.822  1.3154 -0.3969  1.1937
 7831TIP3   OH244983   4.387   6.712  13.548  0.1787 -0.1495  0.1325
 7831TIP3    H144984   4.397   6.721  13.643 -0.1248 -0.3463  0.1858
 7831TIP3    H244985   4.468   6.748  13.512  0.8843 -1.2546  0.5261
 7832TIP3   OH244986   6.068   0.243   1.234  0.9486 -0.3388  0.2988
 7832TIP3    H144987   6.070   0.252   1.329 -0.4860 -0.5451  0.3697
 7832TIP3    H244988   6.045   0.152   1.219  0.5782 -0.1558 -0.2483
 7833TIP3   OH244989   3.719   2.460  14.644  0.3389 -0.7259 -0.5149
 7833TIP3    H144990   3.759   2.377  14.616  3.2717  0.1024  0.7730
 7833TIP3    H244991   3.692   2.502  14.562  0.4221 -2.1722 -1.3256
 7834TIP3   OH244992   4.246   6.294  14.327 -0.0456 -0.4774 -0.0444
 7834TIP3    H144993   4.193   6.297  14.247  0.7044 -1.4088 -0.6011
 7834TIP3    H244994   4.202   6.354  14.387 -1.8656 -1.3926 -0.4008
 7835TIP3   OH244995   5.194   0.782   0.767 -0.1604 -0.3474  0.5351
 7835TIP3    H144996   5.271   0.736   0.732 -0.7454 -0.3332 -0.8501
 7835TIP3    H244997   5.120   0.746   0.718 -1.0301 -0.2075  1.6938
 7836TIP3   OH244998   2.106   6.034  14.547  0.2424 -0.3623  0.1349
 7836TIP3    H144999   2.049   6.036  14.470  1.4080  2.6630 -0.7931
 7836TIP3    H245000   2.093   5.947  14.583 -1.8719 -1.2230 -2.3238
 7837TIP3   OH245001   5.772   1.710   1.409  0.0518  0.2719 -0.3840
 7837TIP3    H145002   5.762   1.668   1.324  1.1358  1.8433 -1.3293
 7837TIP3    H245003   5.682   1.729   1.437 -0.2860  1.6093 -2.1767
 7838TIP3   OH245004   5.363   4.985  13.220  0.2091 -0.5172  0.2115
 7838TIP3    H145005   5.456   4.987  13.242  0.5690 -2.2303 -0.9531
 7838TIP3    H245006   5.326   4.921  13.280  0.3142 -1.7466 -0.9795
 7839TIP3   OH245007   5.257   5.295   0.223 -0.5927  0.0679  0.7016
 7839TIP3    H145008   5.331   5.243   0.255 -0.3680  0.7856  1.3698
 7839TIP3    H245009   5.288   5.385   0.226 -1.6029  0.4070  1.2614
 7840TIP3   OH245010   4.720   4.938  13.366  0.4413  0.8440 -0.0687
 7840TIP3    H145011   4.774   4.964  13.440  1.1129  0.6926 -0.5043
 7840TIP3    H245012   4.780   4.932  13.292 -0.1296  0.4889 -0.5159
 7841TIP3   OH245013   0.446   0.697  10.218 -0.0493  0.2572 -0.6360
 7841TIP3    H145014   0.435   0.675  10.310 -0.0516 -0.3568 -0.7810
 7841TIP3    H245015   0.522   0.646  10.190  0.2772  0.8441 -0.8420
 7842TIP3   OH245016   3.400   3.008  13.687 -0.2050 -0.5042 -0.2739
 7842TIP3    H145017   3.358   2.957  13.756 -0.4025  0.7026  0.5202
 7842TIP3    H245018   3.490   3.020  13.718 -0.4952  0.6656  0.1322
 7843TIP3   OH245019   6.164   5.467  13.820 -0.0805  1.0003 -0.2252
 7843TIP3    H145020   6.227   5.531  13.787  2.4409 -1.9436 -1.7759
 7843TIP3    H245021   6.197   5.443  13.906 -0.1934  0.8176 -0.2324
 7844TIP3   OH245022   3.362   1.960   1.281  0.3654  0.2236  0.3034
 7844TIP3    H145023   3.424   1.899   1.322 -0.7989 -1.0229  0.2612
 7844TIP3    H245024   3.417   2.031   1.249  1.6807 -0.4166  1.0381
 7845TIP3   OH245025   6.075   2.505  14.662  0.0338 -0.3053  0.0378
 7845TIP3    H145026   6.094   2.594  14.632  0.5380 -0.6198 -0.5944
 7845TIP3    H245027   6.119   2.500  14.748 -0.5401  0.2577  0.3732
 7846TIP3   OH245028   0.005   0.896   1.879  0.5518  0.6150  0.3158
 7846TIP3    H145029  -0.022   0.988   1.884 -0.9380  0.3383 -1.6471
 7846TIP3    H245030   0.024   0.881   1.787  2.0784 -0.7362  0.7991
 7847TIP3   OH245031   3.022   5.281   3.080 -0.4274 -0.5500 -0.9502
 7847TIP3    H145032   2.962   5.355   3.091 -0.2799 -0.5107 -0.4312
 7847TIP3    H245033   2.996   5.242   2.996 -1.3905 -0.7184 -0.5851
 7848TIP3   OH245034   0.705   6.431  10.442  0.0730 -0.0463  0.2044
 7848TIP3    H145035   0.726   6.470  10.358 -0.1657 -0.2399  0.0514
 7848TIP3    H245036   0.746   6.488  10.507  0.5433 -0.0811 -0.0574
 7849TIP3   OH245037   6.759   5.297  11.249 -0.2770 -0.1814 -0.1684
 7849TIP3    H145038   6.783   5.387  11.228 -0.0945 -0.3730 -0.8204
 7849TIP3    H245039   6.804   5.244  11.183  0.4542 -0.8419  0.8408
 7850TIP3   OH245040   0.957   4.352   0.328 -0.5154  0.0653  0.8658
 7850TIP3    H145041   0.928   4.372   0.239 -1.8908 -1.2862  0.9622
 7850TIP3    H245042   0.876   4.347   0.379  0.1344 -0.6523  1.8680
 7851TIP3   OH245043   0.494   0.412   9.654 -0.8205 -0.2384 -0.3227
 7851TIP3    H145044   0.480   0.445   9.742  0.3552 -1.0750  0.2046
 7851TIP3    H245045   0.569   0.462   9.622 -1.0120 -0.1961 -0.7130
 7852TIP3   OH245046   0.577   3.703   0.344 -0.0985  0.4379  0.8567
 7852TIP3    H145047   0.481   3.706   0.345 -0.4933 -0.0159 -4.4691
 7852TIP3    H245048   0.604   3.790   0.317  0.5380 -0.4649 -1.6880
 7853TIP3   OH245049   4.831   1.191  15.414 -0.1999 -0.5989 -0.4548
 7853TIP3    H145050   4.753   1.228  15.456  0.1753 -0.3901  0.0670
 7853TIP3    H245051   4.819   1.210  15.321  0.3330  1.5340 -0.1448
 7854TIP3   OH245052   4.161   4.774   9.634 -0.2973  0.3818  0.4270
 7854TIP3    H145053   4.135   4.733   9.551  1.2542 -0.1177  0.1410
 7854TIP3    H245054   4.257   4.776   9.630 -0.2435  1.8083  1.5264
 7855TIP3   OH245055   4.992   1.945  13.399 -0.4206  0.6549  0.1668
 7855TIP3    H145056   5.013   2.037  13.416  0.1707  0.9521 -1.8283
 7855TIP3    H245057   4.969   1.943  13.306 -1.1087 -1.1183  0.3376
 7856TIP3   OH245058   5.624   6.349   1.099  0.0363 -0.1129  0.2542
 7856TIP3    H145059   5.652   6.300   1.177 -1.2970 -1.8432 -0.2908
 7856TIP3    H245060   5.691   6.329   1.034  0.9842  1.0839  0.8132
 7857TIP3   OH245061   1.577   2.485  11.655 -0.3285 -0.1674 -0.2848
 7857TIP3    H145062   1.570   2.580  11.654  1.6537  0.0159 -1.0190
 7857TIP3    H245063   1.501   2.454  11.607 -0.4579  1.1009 -0.9209
 7858TIP3   OH245064   2.224   6.011  14.216 -0.0326  0.4662  0.1619
 7858TIP3    H145065   2.238   5.944  14.284 -1.9359  1.1450  1.2959
 7858TIP3    H245066   2.168   5.968  14.151  1.0765  0.0983 -0.5880
 7859TIP3   OH245067   5.891   3.005   0.341 -0.0171  0.6263  0.2536
 7859TIP3    H145068   5.843   3.057   0.276  1.0900  2.3091  0.7062
 7859TIP3    H245069   5.842   3.019   0.423 -0.7906 -0.6111  0.0240
 7860TIP3   OH245070   0.993   0.512  13.002  0.2897  0.2581 -0.7782
 7860TIP3    H145071   1.057   0.561  12.950  0.3352 -0.5834 -1.5397
 7860TIP3    H245072   1.024   0.422  13.000 -0.2907  0.0331 -0.1649
 7861TIP3   OH245073   4.216   2.204  11.067  0.2907  0.0055  0.4342
 7861TIP3    H145074   4.309   2.190  11.086  0.8586 -0.1406 -2.0769
 7861TIP3    H245075   4.195   2.137  11.001 -1.7636 -0.2919  1.3145
 7862TIP3   OH245076   6.306   3.034   5.657 -0.0247 -0.3091 -1.0889
 7862TIP3    H145077   6.290   2.973   5.730  0.6568  0.0818 -0.5966
 7862TIP3    H245078   6.272   2.988   5.580  1.4286 -1.8134 -0.9057
 7863TIP3   OH245079   2.193   5.271  14.431  0.1346  0.5723 -0.1729
 7863TIP3    H145080   2.119   5.221  14.464  0.1014  0.8719  0.2255
 7863TIP3    H245081   2.241   5.210  14.376  1.1392 -0.4978  1.7690
 7864TIP3   OH245082   6.798   1.499  13.515 -0.3007  0.1897 -0.5892
 7864TIP3    H145083   6.814   1.592  13.533  1.1399  0.0498 -1.0232
 7864TIP3    H245084   6.874   1.471  13.464 -0.6473 -1.2584 -0.3581
 7865TIP3   OH245085   5.303   4.707  13.728 -0.2605 -0.5261 -0.5307
 7865TIP3    H145086   5.338   4.791  13.701 -2.2637  0.4570 -0.2929
 7865TIP3    H245087   5.379   4.649  13.732  1.0111  0.9629 -1.7909
 7866TIP3   OH245088   5.224   3.059  14.975 -0.0336  0.2214  0.1689
 7866TIP3    H145089   5.169   3.132  15.003 -0.2848 -0.1824  0.7360
 7866TIP3    H245090   5.259   3.088  14.891 -0.7408  0.6786  0.0170
 7867TIP3   OH245091   1.104   4.105  10.422 -0.1480 -0.1261  0.6716
 7867TIP3    H145092   1.055   4.184  10.441 -0.0804  0.4918 -1.4898
 7867TIP3    H245093   1.183   4.112  10.477  0.5450  2.0356 -0.4893
 7868TIP3   OH245094   5.419   0.302  11.468  0.3900  0.6089  0.0162
 7868TIP3    H145095   5.334   0.342  11.454  0.9940  1.3177 -2.0312
 7868TIP3    H245096   5.404   0.208  11.455 -0.0250  0.7651 -0.6724
 7869TIP3   OH245097   2.948   3.118   3.703  0.6981  0.4840 -0.4248
 7869TIP3    H145098   3.031   3.158   3.679  0.2906  0.6805 -1.6137
 7869TIP3    H245099   2.905   3.183   3.759  1.6457  0.0578  0.8309
 7870TIP3   OH245100   3.027   5.595   4.094 -0.0458  0.7837  0.3923
 7870TIP3    H145101   2.982   5.540   4.159  1.6141  0.2551  1.1653
 7870TIP3    H245102   2.975   5.675   4.090 -0.4261  0.6647  2.1181
 7871TIP3   OH245103   0.390   5.940   9.461 -0.0502  0.0061  0.1965
 7871TIP3    H145104   0.304   5.928   9.502 -1.2478 -0.3339 -2.2365
 7871TIP3    H245105   0.450   5.889   9.515 -1.6522 -0.9509  1.1332
 7872TIP3   OH245106   6.474   0.615  14.950  0.2133 -0.3722 -0.2169
 7872TIP3    H145107   6.385   0.622  14.916  0.2105 -0.6133 -0.2598
 7872TIP3    H245108   6.477   0.679  15.022  0.1657  0.0134 -0.5510
 7873TIP3   OH245109   6.431   0.299  14.147  0.1817 -0.5487  0.6828
 7873TIP3    H145110   6.419   0.245  14.069 -0.8946 -1.9416  1.7652
 7873TIP3    H245111   6.343   0.315  14.179  0.5478  0.9328  1.0476
 7874TIP3   OH245112   1.514   1.853  11.953 -0.4409  1.0186 -0.4873
 7874TIP3    H145113   1.471   1.911  11.890  0.7701 -1.2597 -3.6297
 7874TIP3    H245114   1.506   1.766  11.915  1.8374 -0.2747  1.7379
 7875TIP3   OH245115   6.489   6.881   3.932 -0.1930  0.2653  0.0883
 7875TIP3    H145116   6.416   6.885   3.871 -0.7337  0.9583  0.7665
 7875TIP3    H245117   6.488   6.965   3.977  0.7892  0.1362  0.3812
 7876TIP3   OH245118   2.171   6.124   1.037  0.1426 -0.4130 -0.1587
 7876TIP3    H145119   2.076   6.132   1.037  0.2897  1.7659  0.0896
 7876TIP3    H245120   2.196   6.135   1.129  0.8187  2.5923 -0.6029
 7877TIP3   OH245121   3.435   5.194   2.201 -0.7096 -0.6374 -0.2899
 7877TIP3    H145122   3.523   5.171   2.171  0.0152  0.7578  0.6146
 7877TIP3    H245123   3.376   5.156   2.136  0.5669 -1.5317 -0.9614
 7878TIP3   OH245124   1.392   3.708  14.363 -0.7095 -0.3066 -0.3427
 7878TIP3    H145125   1.391   3.759  14.281  0.3049  1.5685  0.7359
 7878TIP3    H245126   1.446   3.632  14.342  1.0290  1.0168 -1.0087
 7879TIP3   OH245127   2.904   6.783   0.616 -0.3849  0.1262 -0.2884
 7879TIP3    H145128   2.965   6.726   0.569 -0.2367  0.4587 -0.4976
 7879TIP3    H245129   2.825   6.784   0.561  0.1788  1.4022 -1.1046
 7880TIP3   OH245130   1.431   3.295  14.551 -0.1588  0.2449  0.0607
 7880TIP3    H145131   1.350   3.346  14.563 -1.2908 -0.6457 -2.8772
 7880TIP3    H245132   1.489   3.326  14.620 -1.3436  4.3617 -0.5176
 7881TIP3   OH245133   0.412   0.023   5.082  0.0581  0.1547  0.3126
 7881TIP3    H145134   0.357   0.076   5.140 -1.3145  0.1596 -0.9199
 7881TIP3    H245135   0.492   0.007   5.132 -1.2537 -0.2850  2.3967
 7882TIP3   OH245136   2.523   0.037  11.102 -0.4546 -0.0450 -0.0631
 7882TIP3    H145137   2.600  -0.016  11.082  0.1498  0.4425  0.8942
 7882TIP3    H245138   2.496   0.008  11.190 -0.8332  0.3955 -0.0258
 7883TIP3   OH245139   1.380   6.074   9.532  0.2229  0.6674 -0.2408
 7883TIP3    H145140   1.319   6.129   9.581 -0.3844  0.2430 -0.5098
 7883TIP3    H245141   1.448   6.051   9.596  0.9930  2.4617 -0.3699
 7884TIP3   OH245142   1.077   4.745  10.327 -0.1732 -0.0446 -0.3135
 7884TIP3    H145143   1.021   4.673  10.358 -0.5570  0.5409  0.3849
 7884TIP3    H245144   1.081   4.734  10.232 -1.7018  0.0584 -0.4096
 7885TIP3   OH245145   2.697   4.970  14.717 -0.1202 -0.0129 -0.3710
 7885TIP3    H145146   2.623   4.965  14.778  0.2270 -4.8283  0.0973
 7885TIP3    H245147   2.772   4.991  14.772 -0.7151  2.9181 -0.5276
 7886TIP3   OH245148   4.983   4.019  13.066  0.3140  0.0043  0.4070
 7886TIP3    H145149   4.905   4.018  13.011  0.7265  0.5819 -0.2067
 7886TIP3    H245150   5.036   3.946  13.036 -0.0503 -0.4799  0.9244
 7887TIP3   OH245151   3.149   3.323   0.118  0.1721  0.2022 -0.0824
 7887TIP3    H145152   3.138   3.300   0.210  0.3136  0.7802  0.0853
 7887TIP3    H245153   3.075   3.282   0.073  0.4660 -0.6394  0.1871
 7888TIP3   OH245154   6.004   6.646   1.193 -0.3923  0.1044 -0.0784
 7888TIP3    H145155   5.983   6.553   1.193  1.6296 -0.3970 -0.6196
 7888TIP3    H245156   5.978   6.677   1.280  2.2565 -1.8239  1.5380
 7889TIP3   OH245157   3.654   5.723  12.092  0.1122 -0.0775  0.2734
 7889TIP3    H145158   3.689   5.789  12.152  0.1735  0.6938 -0.5824
 7889TIP3    H245159   3.572   5.761  12.060 -1.2724 -1.6199  1.8221
 7890TIP3   OH245160   1.682   6.920  13.604 -0.0405 -0.4623 -0.2117
 7890TIP3    H145161   1.682   7.013  13.585  0.6831 -0.0479  1.6604
 7890TIP3    H245162   1.711   6.913  13.695  0.7603 -2.5565 -0.5574
 7891TIP3   OH245163   6.386   0.016   2.000  0.1487 -0.5300 -0.0508
 7891TIP3    H145164   6.329   0.092   2.003  1.8193  0.9582 -2.2264
 7891TIP3    H245165   6.328  -0.057   1.980 -1.0825  0.9380 -2.3360
 7892TIP3   OH245166   2.607   2.919   1.725 -0.1616 -0.0936  0.3485
 7892TIP3    H145167   2.544   2.861   1.768  0.1247 -0.6213  0.0543
 7892TIP3    H245168   2.594   3.003   1.769 -0.9130 -0.2499  0.4502
 7893TIP3   OH245169   3.213   4.898  14.594 -0.8746 -0.2439 -0.5660
 7893TIP3    H145170   3.281   4.925  14.656 -2.2120 -2.5033  2.0663
 7893TIP3    H245171   3.261   4.857  14.522  0.6600  1.2337 -0.4466
 7894TIP3   OH245172   4.015   2.039   0.722 -0.2994  0.6819 -0.5176
 7894TIP3    H145173   3.990   1.987   0.646 -0.0576  0.1904 -0.2589
 7894TIP3    H245174   4.086   2.095   0.691  1.0165 -0.7585 -0.2106
 7895TIP3   OH245175   4.033   4.361   5.058 -0.1772  0.2011  0.3373
 7895TIP3    H145176   3.965   4.358   5.125  1.6399 -0.0800  2.2409
 7895TIP3    H245177   4.115   4.354   5.106  1.2313  0.5150 -1.8872
 7896TIP3   OH245178   1.081   3.713  11.717 -0.2704 -1.0470  0.3666
 7896TIP3    H145179   1.017   3.767  11.671  1.5273  0.9339 -0.0107
 7896TIP3    H245180   1.104   3.644  11.655 -0.2820 -0.3306 -0.4594
 7897TIP3   OH245181   1.431   0.936   3.635  0.0556 -0.2461  0.0152
 7897TIP3    H145182   1.441   0.971   3.546  0.0789 -0.6479 -0.1451
 7897TIP3    H245183   1.471   0.849   3.630 -1.5365 -1.0018 -0.0598
 7898TIP3   OH245184   0.133   3.620  10.901 -0.8133 -0.6289  0.2010
 7898TIP3    H145185   0.183   3.609  10.820 -0.7905  0.2683  0.0787
 7898TIP3    H245186   0.042   3.623  10.873 -0.7867 -0.0264  0.1736
 7899TIP3   OH245187   2.377   1.113  10.731  0.1172 -0.3581 -0.3456
 7899TIP3    H145188   2.447   1.048  10.742 -1.5016 -2.2295 -0.5303
 7899TIP3    H245189   2.301   1.073  10.773 -0.5021  2.3261  1.2904
 7900TIP3   OH245190   6.251   6.514   1.977 -0.9517  0.4305 -0.2637
 7900TIP3    H145191   6.202   6.566   2.042  1.3176 -0.1386  2.0728
 7900TIP3    H245192   6.268   6.575   1.906 -0.9401  2.0248  1.0491
 7901TIP3   OH245193   6.216   1.439  10.089 -0.1996  0.3177  0.4911
 7901TIP3    H145194   6.232   1.414   9.998  1.7594 -2.1119  1.4110
 7901TIP3    H245195   6.188   1.531  10.084  0.5980  0.4849 -2.4854
 7902TIP3   OH245196   3.596   6.770   0.513  0.2646  0.1734 -0.2729
 7902TIP3    H145197   3.667   6.779   0.449  0.1823 -0.0010 -0.3877
 7902TIP3    H245198   3.635   6.799   0.596 -0.1149  2.0917 -0.7143
 7903TIP3   OH245199   4.920   0.734  12.427  0.4478 -0.0362 -0.1282
 7903TIP3    H145200   4.962   0.702  12.347 -0.6663 -0.2453 -0.6551
 7903TIP3    H245201   4.925   0.661  12.488 -0.4814 -0.6164 -0.7102
 7904TIP3   OH245202   5.858   2.575  14.480  0.1611 -0.0134  0.3444
 7904TIP3    H145203   5.918   2.649  14.475  0.1261 -0.0419 -0.9626
 7904TIP3    H245204   5.892   2.520  14.551  2.2734 -0.5147 -0.9671
 7905TIP3   OH245205   1.089   5.012  12.031  0.1199 -0.0897  0.1044
 7905TIP3    H145206   1.082   5.087  12.089  0.8079  1.4013 -1.6429
 7905TIP3    H245207   1.001   4.973  12.032 -0.1980  0.6142  1.1863
 7906TIP3   OH245208   1.854   1.251   1.761 -0.2447 -0.4917  0.0438
 7906TIP3    H145209   1.873   1.330   1.710  0.0869 -0.0709  0.8018
 7906TIP3    H245210   1.776   1.273   1.812 -0.4571 -0.8417 -0.1234
 7907TIP3   OH245211   3.154   1.481  14.394  0.1724 -0.2286 -0.0282
 7907TIP3    H145212   3.100   1.545  14.347  1.5713  2.0574  1.2449
 7907TIP3    H245213   3.092   1.416  14.427 -1.1019 -0.6192 -2.9242
 7908TIP3   OH245214   6.671   2.992   0.635  0.3379  0.1300 -0.2357
 7908TIP3    H145215   6.689   2.969   0.544 -2.4638 -0.5328 -0.6999
 7908TIP3    H245216   6.611   3.067   0.630 -0.4271 -0.3610  1.0257
 7909TIP3   OH245217   0.998   1.747  12.683 -0.1898 -0.1236  0.7261
 7909TIP3    H145218   0.931   1.770  12.619 -0.1299  0.3946  0.8462
 7909TIP3    H245219   0.971   1.791  12.764 -1.5381 -2.6613  1.7408
 7910TIP3   OH245220   0.667   4.308  10.412 -0.1805  0.4072 -0.0453
 7910TIP3    H145221   0.645   4.222  10.377 -1.3644 -0.2430  2.1503
 7910TIP3    H245222   0.762   4.304  10.427 -0.0678 -0.1436 -0.8508
 7911TIP3   OH245223   0.019   3.519   4.015 -0.4953 -0.0466 -0.2601
 7911TIP3    H145224  -0.001   3.543   4.105 -0.4082  1.1089 -0.5317
 7911TIP3    H245225   0.115   3.523   4.010 -0.4864 -0.3575 -0.3331
 7912TIP3   OH245226   3.825   4.431  10.065 -0.4369 -0.0951 -0.4822
 7912TIP3    H145227   3.737   4.393  10.070 -0.4163 -0.0459  0.4914
 7912TIP3    H245228   3.844   4.436   9.971 -1.4234 -0.2100 -0.6973
 7913TIP3   OH245229   7.101   2.030  11.187 -0.0554 -0.3121  0.2090
 7913TIP3    H145230   7.144   1.946  11.203  0.8592  0.1712  0.3138
 7913TIP3    H245231   7.147   2.092  11.243  0.3152  0.5579 -1.0181
 7914TIP3   OH245232   4.461   1.872  12.817 -0.3976 -0.2249  0.2104
 7914TIP3    H145233   4.377   1.914  12.800 -0.4817 -0.5875 -0.3119
 7914TIP3    H245234   4.499   1.859  12.730 -0.2635 -0.9966  0.3817
 7915TIP3   OH245235   1.723   5.615   3.981  0.4002  0.1877  0.5276
 7915TIP3    H145236   1.724   5.635   3.887  0.3934 -0.6310  0.3447
 7915TIP3    H245237   1.667   5.538   3.988 -0.0586  0.5819  1.2827
 7916TIP3   OH245238   1.713   2.715   0.813 -0.2843 -0.3480 -0.1004
 7916TIP3    H145239   1.796   2.701   0.768 -0.6150  0.5784 -1.0470
 7916TIP3    H245240   1.738   2.731   0.904  0.4995 -0.9737 -0.1919
 7917TIP3   OH245241   2.778   5.968  11.660 -0.8104  0.1623  0.2028
 7917TIP3    H145242   2.861   6.014  11.649 -0.0083 -0.6163  2.5330
 7917TIP3    H245243   2.759   5.932  11.573 -0.9198  3.8301 -1.4521
 7918TIP3   OH245244   3.887   1.041  12.350 -0.4075  0.6073  0.5991
 7918TIP3    H145245   3.925   1.128  12.337  2.7734 -0.6258  0.8606
 7918TIP3    H245246   3.906   1.020  12.442  0.7120 -1.1083  0.0253
 7919TIP3   OH245247   0.517   0.416  10.846  0.3610  0.4495  0.7120
 7919TIP3    H145248   0.440   0.417  10.904  0.0944  0.7968  0.3556
 7919TIP3    H245249   0.492   0.360  10.773  0.2593  0.9525  0.3524
 7920TIP3   OH245250   0.655   0.791   5.073  0.1241 -0.5196  0.4352
 7920TIP3    H145251   0.663   0.863   5.010 -2.4194  0.0655  0.6678
 7920TIP3    H245252   0.743   0.781   5.109  1.2665  0.2992 -1.9228
 7921TIP3   OH245253   2.602   3.028  11.946 -0.0327  0.2383 -0.7538
 7921TIP3    H145254   2.507   3.028  11.938 -0.1745 -1.4954  0.3452
 7921TIP3    H245255   2.619   2.995  12.034  1.5908 -0.7911 -1.3854
 7922TIP3   OH245256   5.562   5.169  12.215  0.0024 -0.0006  0.5528
 7922TIP3    H145257   5.472   5.201  12.206  0.0345  0.1924  0.8694
 7922TIP3    H245258   5.553   5.085  12.260 -0.0416 -0.1491  0.2681
 7923TIP3   OH245259   4.071   5.144  12.809  0.5840  0.6103  0.3196
 7923TIP3    H145260   4.146   5.201  12.827  0.4510  0.0978  2.6970
 7923TIP3    H245261   4.055   5.097  12.890 -1.7888  0.0419 -0.3835
 7924TIP3   OH245262   2.995   4.087   5.007 -0.1694 -0.2713  0.2440
 7924TIP3    H145263   2.999   4.159   5.070  0.4422 -1.3243  1.4498
 7924TIP3    H245264   2.951   4.017   5.054 -0.3977 -0.8309 -0.7802
 7925TIP3   OH245265   1.930   2.857  12.511 -0.0813  0.3370  0.0382
 7925TIP3    H145266   1.962   2.905  12.435 -1.2098 -0.5898 -1.0615
 7925TIP3    H245267   2.003   2.800  12.536  0.1737  0.3850 -0.5805
 7926TIP3   OH245268   2.894   3.870  14.977  0.1501  0.8665 -0.5070
 7926TIP3    H145269   2.887   3.955  14.932 -0.4342  0.5888 -0.9557
 7926TIP3    H245270   2.888   3.805  14.907  1.1044  0.4492 -0.2217
 7927TIP3   OH245271   3.531   2.366  10.107  0.2958 -0.2505  0.3031
 7927TIP3    H145272   3.536   2.272  10.123  1.1237 -0.2205  0.2927
 7927TIP3    H245273   3.463   2.376  10.041 -1.3552 -0.6206  1.8801
 7928TIP3   OH245274   1.486   4.235  11.127 -0.2550 -0.2641 -0.0368
 7928TIP3    H145275   1.506   4.142  11.120  1.6691  0.1617 -0.9160
 7928TIP3    H245276   1.571   4.276  11.147 -1.1922  1.2358  1.0972
 7929TIP3   OH245277   5.485   0.618   2.482  0.2499 -0.7121  0.3254
 7929TIP3    H145278   5.459   0.536   2.522 -2.4810  1.3398  3.2659
 7929TIP3    H245279   5.412   0.642   2.425 -2.6891  2.6489  4.7527
 7930TIP3   OH245280   0.843   3.034  13.982  0.3598  0.1127 -0.2906
 7930TIP3    H145281   0.839   3.130  13.986 -0.0625  0.1889 -1.8813
 7930TIP3    H245282   0.830   3.006  14.073  2.5557  1.5964  0.5793
 7931TIP3   OH245283   2.220   2.266  10.608 -0.3493 -0.0200  0.3175
 7931TIP3    H145284   2.226   2.272  10.513 -0.0932 -1.7189  0.1864
 7931TIP3    H245285   2.172   2.185  10.624  2.4833 -1.6080  1.6074
 7932TIP3   OH245286   6.846   0.220  11.201 -0.5939  0.3063  0.0377
 7932TIP3    H145287   6.819   0.169  11.277  0.0828 -0.0558  0.0380
 7932TIP3    H245288   6.849   0.310  11.233 -2.1040  0.4144 -0.0491
 7933TIP3   OH245289   4.675   5.670   0.929  0.1854 -0.0021 -0.2619
 7933TIP3    H145290   4.595   5.633   0.891  0.1415 -0.9825  0.7220
 7933TIP3    H245291   4.744   5.644   0.868 -0.4909  3.4373 -2.8207
 7934TIP3   OH245292   1.403   2.895   2.592 -0.0787 -0.1570  0.1032
 7934TIP3    H145293   1.410   2.824   2.656  2.5765  0.4445  0.5581
 7934TIP3    H245294   1.449   2.862   2.514  0.0350  0.5649 -0.1447
 7935TIP3   OH245295   1.760   3.684  15.337  0.4640 -0.1291  0.1297
 7935TIP3    H145296   1.672   3.691  15.375  0.7584  2.4271  0.5035
 7935TIP3    H245297   1.818   3.696  15.412  1.1152 -0.4004 -0.3312
 7936TIP3   OH245298   6.382   4.753  14.332 -0.2551  0.1608 -0.0377
 7936TIP3    H145299   6.454   4.696  14.305  2.2902  2.7140  0.8887
 7936TIP3    H245300   6.340   4.779  14.250  1.3799  0.4440 -0.8176
 7937TIP3   OH245301   5.577   3.749   9.308  0.0247 -0.4139  0.5218
 7937TIP3    H145302   5.658   3.760   9.259  0.0867  0.6343  0.8412
 7937TIP3    H245303   5.601   3.769   9.399 -0.3897 -1.0042  0.7676
 7938TIP3   OH245304   6.343   2.750  10.253 -0.0004  0.2290 -0.6116
 7938TIP3    H145305   6.301   2.674  10.293  0.9837  1.5817  3.5124
 7938TIP3    H245306   6.434   2.746  10.283  0.6087  1.9880 -2.0252
 7939TIP3   OH245307   4.227   5.129   0.268 -0.6765 -0.0794 -0.4760
 7939TIP3    H145308   4.138   5.116   0.236 -0.5419  1.7692 -1.8051
 7939TIP3    H245309   4.279   5.064   0.221 -1.0771  0.0751 -1.1543
 7940TIP3   OH245310   6.974   1.758   3.439 -0.3033 -0.1194  0.2960
 7940TIP3    H145311   6.947   1.849   3.449 -0.5361 -0.2017  0.4294
 7940TIP3    H245312   6.938   1.731   3.355  0.3750  0.1239 -0.0785
 7941TIP3   OH245313   6.776   5.863   9.200 -0.1164 -0.6913  0.4354
 7941TIP3    H145314   6.838   5.936   9.205 -0.1551 -0.4394 -1.7437
 7941TIP3    H245315   6.717   5.876   9.273  0.7474  0.6422  0.9237
 7942TIP3   OH245316   0.145   5.452  14.782  0.1766 -0.1298 -0.1749
 7942TIP3    H145317   0.114   5.541  14.797  0.1440 -0.3843  1.4675
 7942TIP3    H245318   0.238   5.454  14.806  0.1691 -0.5349 -0.0996
 7943TIP3   OH245319   2.571   2.657  13.601 -0.0825 -0.1340 -0.7437
 7943TIP3    H145320   2.544   2.732  13.548 -1.0606 -0.4752 -0.7626
 7943TIP3    H245321   2.497   2.642  13.660  1.0082  0.2745  0.7876
 7944TIP3   OH245322   7.052   7.136  10.483  0.4089  0.0080 -0.4058
 7944TIP3    H145323   7.062   7.166  10.573  2.1610 -0.9597 -0.2174
 7944TIP3    H245324   7.113   7.190  10.433 -0.3379  0.3413 -0.9756
 7945TIP3   OH245325   5.125   5.361  14.535 -0.4226  0.2837  0.2444
 7945TIP3    H145326   5.117   5.334  14.443  0.6993 -0.1297  0.2512
 7945TIP3    H245327   5.199   5.421  14.536 -1.5622  1.7330  0.6029
 7946TIP3   OH245328   3.385   2.940  11.931 -0.3774 -0.1303  0.0309
 7946TIP3    H145329   3.423   3.026  11.946 -1.0290  0.0988  0.3630
 7946TIP3    H245330   3.457   2.889  11.892  1.0396 -0.4265  2.7717
 7947TIP3   OH245331   0.048   6.197  13.220 -0.3130  0.0403  0.2726
 7947TIP3    H145332   0.048   6.128  13.154 -0.6961  0.3973 -0.1049
 7947TIP3    H245333   0.023   6.153  13.301 -0.8828 -0.1999 -0.0305
 7948TIP3   OH245334   3.624   5.921  11.252 -0.2269 -0.0025  0.0670
 7948TIP3    H145335   3.666   5.836  11.243 -2.2562 -0.9578 -0.9576
 7948TIP3    H245336   3.684   5.981  11.207  1.6172 -0.6914  1.4795
 7949TIP3   OH245337   6.879   0.443  10.955  0.3860 -0.1618 -0.6424
 7949TIP3    H145338   6.867   0.472  11.045 -0.4329 -0.1463 -0.7497
 7949TIP3    H245339   6.810   0.379  10.940  1.3709 -1.2216 -0.8339
 7950TIP3   OH245340   4.246   6.983   4.917 -0.3160 -0.0015  0.0541
 7950TIP3    H145341   4.195   7.039   4.860 -0.5059 -0.2596 -0.0294
 7950TIP3    H245342   4.204   6.991   5.003 -0.3186  0.0133  0.0513
 7951TIP3   OH245343   7.057   3.817   2.198 -0.2098  0.0586  0.3570
 7951TIP3    H145344   7.029   3.874   2.270 -2.3447 -0.9940  0.4492
 7951TIP3    H245345   7.025   3.730   2.224 -0.0882 -0.5314 -1.3827
 7952TIP3   OH245346   5.912   3.373  11.531  0.0905 -0.2669  0.0306
 7952TIP3    H145347   5.877   3.430  11.462 -0.4279 -0.6676 -0.0389
 7952TIP3    H245348   5.849   3.301  11.538 -0.5099  0.3654  1.7408
 7953TIP3   OH245349   4.644   1.184  10.716  0.1039  0.2918 -0.4870
 7953TIP3    H145350   4.736   1.156  10.716 -0.4870 -1.9642  0.7749
 7953TIP3    H245351   4.599   1.119  10.661 -0.9058  0.5815 -0.0327
 7954TIP3   OH245352   3.224   3.891   9.510 -0.2121  0.0298 -0.7915
 7954TIP3    H145353   3.200   3.879   9.601  0.5447 -0.0016 -0.5881
 7954TIP3    H245354   3.284   3.819   9.491 -1.1807 -0.5876 -1.6249
 7955TIP3   OH245355   3.597   2.777   0.790  0.2261 -0.2849 -1.0798
 7955TIP3    H145356   3.570   2.865   0.816  0.7074 -0.0910 -1.2215
 7955TIP3    H245357   3.522   2.721   0.813 -0.0067  0.1286 -0.8131
 7956TIP3   OH245358   4.885   2.801  11.067  0.1652 -0.4318  0.2486
 7956TIP3    H145359   4.964   2.851  11.086  0.9055 -1.8872  1.1772
 7956TIP3    H245360   4.888   2.783  10.973  0.0882  0.8843 -0.0200
 7957TIP3   OH245361   3.173   0.450   3.189  0.3004  0.2118 -0.2860
 7957TIP3    H145362   3.154   0.511   3.117  1.9191  1.7516  0.4956
 7957TIP3    H245363   3.192   0.367   3.146  0.9012  1.0104 -1.6464
 7958TIP3   OH245364   2.919   0.919   3.883  0.1038 -0.1503 -0.0684
 7958TIP3    H145365   2.871   0.981   3.828 -0.0292 -0.7056 -0.5892
 7958TIP3    H245366   2.948   0.971   3.958 -1.3319  0.1995  0.2826
 7959TIP3   OH245367   1.191   6.427  13.657 -0.2838 -0.3262  0.0087
 7959TIP3    H145368   1.106   6.441  13.697 -0.2330  2.5176 -0.6607
 7959TIP3    H245369   1.254   6.458  13.722  0.0610  0.1404 -0.5377
 7960TIP3   OH245370   1.596   2.819   0.158  0.9699 -0.5154 -0.0417
 7960TIP3    H145371   1.615   2.911   0.178 -0.9392  0.2073 -1.2326
 7960TIP3    H245372   1.621   2.772   0.236  0.5345  1.2437  1.2250
 7961TIP3   OH245373   2.889   0.199  10.315 -0.3861 -0.6822 -0.0012
 7961TIP3    H145374   2.902   0.293  10.327  2.3597 -1.0155  0.1360
 7961TIP3    H245375   2.899   0.185  10.221  1.5311 -1.0939  0.2342
 7962TIP3   OH245376   4.773   4.693  12.068 -0.3405 -0.0623 -0.8509
 7962TIP3    H145377   4.731   4.609  12.088  0.1855 -0.4812 -1.4674
 7962TIP3    H245378   4.701   4.756  12.065 -0.7417 -0.4883 -0.3808
 7963TIP3   OH245379   4.684   0.992   3.448  0.0567 -0.7781  0.2416
 7963TIP3    H145380   4.680   0.971   3.355 -0.9145 -1.7133  0.4697
 7963TIP3    H245381   4.757   1.053   3.456 -0.5652  0.2333 -1.2997
 7964TIP3   OH245382   1.828   4.512  10.929 -0.4369  0.5662 -0.0369
 7964TIP3    H145383   1.921   4.530  10.943 -0.0967 -0.6048 -0.6658
 7964TIP3    H245384   1.794   4.492  11.016 -0.0399  0.7333  0.1589
 7965TIP3   OH245385   6.256   6.645  10.350 -0.2938 -0.2526  0.3264
 7965TIP3    H145386   6.240   6.735  10.324 -0.6215 -0.5450 -0.5272
 7965TIP3    H245387   6.323   6.613  10.289 -0.4476 -0.6966  0.3834
 7966TIP3   OH245388   6.178   3.321   2.851  0.0314  0.0263  0.2290
 7966TIP3    H145389   6.126   3.240   2.843  0.7521 -0.5877  1.4970
 7966TIP3    H245390   6.238   3.304   2.924 -0.9444  2.3444  1.6688
 7967TIP3   OH245391   1.092   4.628  13.279 -0.3550 -0.3403 -0.4875
 7967TIP3    H145392   1.149   4.698  13.312  1.2731 -1.8926  0.1530
 7967TIP3    H245393   1.119   4.615  13.188 -1.1906  0.3478 -0.8490
 7968TIP3   OH245394   1.580   6.353  11.121  0.5014 -0.1295  0.3664
 7968TIP3    H145395   1.504   6.407  11.100  0.9061 -0.4191 -2.1292
 7968TIP3    H245396   1.574   6.338  11.215 -2.0989  0.5008  0.3634
 7969TIP3   OH245397   5.711   3.664   3.499  0.9718  0.2417  0.4562
 7969TIP3    H145398   5.743   3.754   3.513  0.6058  0.6076 -0.9459
 7969TIP3    H245399   5.783   3.620   3.455  0.1513  0.6564 -1.3796
 7970TIP3   OH245400   3.198   7.083   0.211 -0.1686  0.1746 -0.2258
 7970TIP3    H145401   3.264   7.152   0.202 -1.0400  0.9805 -0.6238
 7970TIP3    H245402   3.118   7.123   0.177 -0.9004 -0.7266  0.4121
 7971TIP3   OH245403   5.673   6.213  15.096  0.4663  0.3729  0.3275
 7971TIP3    H145404   5.606   6.194  15.030  0.6328  1.2919 -0.1171
 7971TIP3    H245405   5.624   6.244  15.172  0.3194 -0.0015  0.3866
 7972TIP3   OH245406   4.583   1.825  13.761 -0.2812 -0.9088  0.6074
 7972TIP3    H145407   4.564   1.742  13.718  1.7796 -2.2172  2.0629
 7972TIP3    H245408   4.662   1.857  13.719 -0.5738 -0.1147  0.6478
 7973TIP3   OH245409   3.644   3.556  10.781 -0.3269 -0.7194 -0.4824
 7973TIP3    H145410   3.575   3.557  10.848  0.2606 -0.4520  0.1257
 7973TIP3    H245411   3.659   3.463  10.765 -1.0344 -0.7805 -0.8396
 7974TIP3   OH245412   1.897   2.126   1.138 -0.2377 -0.2679  0.3012
 7974TIP3    H145413   1.825   2.097   1.082 -1.2142 -1.1975  1.9525
 7974TIP3    H245414   1.882   2.081   1.221  1.1112  1.1079  1.3443
 7975TIP3   OH245415   1.362   2.739  14.489 -0.2479 -0.4165  0.0318
 7975TIP3    H145416   1.388   2.765  14.400  1.0897 -0.2554  0.4518
 7975TIP3    H245417   1.406   2.655  14.502 -1.4140 -1.0248  0.1124
 7976TIP3   OH245418   3.728   5.897  14.836  0.3938  0.6438 -0.5845
 7976TIP3    H145419   3.678   5.906  14.917 -0.4056 -1.0162 -0.8628
 7976TIP3    H245420   3.816   5.874  14.865  0.0426 -0.2345 -0.1686
 7977TIP3   OH245421   6.571   1.035  14.008 -0.5440 -0.4682  0.0106
 7977TIP3    H145422   6.534   0.947  13.995  0.4336 -0.9009  0.0061
 7977TIP3    H245423   6.580   1.043  14.103  1.5716 -1.3685 -0.0573
 7978TIP3   OH245424   2.268   6.502  12.767 -0.3519  0.1610  0.2586
 7978TIP3    H145425   2.180   6.488  12.803  0.2064 -1.2179  1.1543
 7978TIP3    H245426   2.323   6.520  12.843  0.2733  0.3763 -0.2347
 7979TIP3   OH245427   5.668   6.942  13.270 -0.1314  0.0646  0.1013
 7979TIP3    H145428   5.676   7.032  13.302  0.6172  0.6232 -1.5326
 7979TIP3    H245429   5.581   6.914  13.299 -0.0208  0.9769  1.3963
 7980TIP3   OH245430   0.978   0.915  10.747 -0.0890 -0.4651  0.2060
 7980TIP3    H145431   0.916   0.986  10.764 -0.8298 -0.8676 -0.7431
 7980TIP3    H245432   1.059   0.943  10.791 -0.7019  0.4301  0.7956
 7981TIP3   OH245433   4.226   3.378  11.247 -0.0787  0.6543  0.0440
 7981TIP3    H145434   4.140   3.377  11.289 -0.2023  1.1863 -0.1917
 7981TIP3    H245435   4.213   3.429  11.167  0.8505  2.2734  0.8680
 7982TIP3   OH245436   5.014   0.187  12.082  0.2558 -0.4907  0.3707
 7982TIP3    H145437   5.075   0.125  12.122 -2.3589 -2.7811  1.1147
 7982TIP3    H245438   4.967   0.226  12.155  2.1328  2.9753 -0.0328
 7983TIP3   OH245439   0.639   1.941  12.322 -0.2273  0.1715 -0.2598
 7983TIP3    H145440   0.567   1.933  12.259 -1.4698 -0.7804  1.1932
 7983TIP3    H245441   0.646   2.035  12.338  0.5659  0.5040 -2.2492
 7984TIP3   OH245442   3.789   4.990   0.670 -0.2118  0.0271 -0.3712
 7984TIP3    H145443   3.865   4.978   0.612  1.2345  0.5190  1.3276
 7984TIP3    H245444   3.770   4.902   0.702  1.2456  0.1881  1.0625
 7985TIP3   OH245445   3.449   0.312   3.069  0.3130 -0.6212  0.1635
 7985TIP3    H145446   3.482   0.274   2.988  0.3135 -0.0548 -0.1015
 7985TIP3    H245447   3.425   0.236   3.123 -2.0320 -1.0220 -1.3050
 7986TIP3   OH245448   0.259   1.896  11.429  0.1794 -0.3628  0.2317
 7986TIP3    H145449   0.334   1.894  11.370 -0.2169  0.3499 -0.3218
 7986TIP3    H245450   0.290   1.944  11.505 -0.0863  1.1417 -0.5712
 7987TIP3   OH245451   4.321   2.904  14.231 -0.5612  0.0311  0.0448
 7987TIP3    H145452   4.297   2.901  14.323 -2.0119  0.9038 -0.2681
 7987TIP3    H245453   4.397   2.847  14.224 -0.7140 -0.4236  1.6892
 7988TIP3   OH245454   3.221   2.547  12.732  0.1163 -0.1516  0.3223
 7988TIP3    H145455   3.277   2.516  12.662  0.6776  0.4227  0.5139
 7988TIP3    H245456   3.212   2.472  12.791 -1.4125 -1.0764 -0.9750
 7989TIP3   OH245457   3.790   5.941  12.207 -0.5315  0.2496 -0.7018
 7989TIP3    H145458   3.740   6.020  12.228 -0.1560  0.5488 -0.9320
 7989TIP3    H245459   3.830   5.915  12.290 -0.6731  0.2852 -0.6222
 7990TIP3   OH245460   2.499   4.955  13.980 -0.4101  0.0888 -0.1307
 7990TIP3    H145461   2.589   4.971  13.953 -0.6957 -0.3927 -1.4252
 7990TIP3    H245462   2.476   5.031  14.034 -0.3909  2.0548 -2.7255
 7991TIP3   OH245463   5.446   6.423  13.676 -0.2001 -0.1714  0.6897
 7991TIP3    H145464   5.529   6.469  13.661  0.7565 -1.5536  1.5675
 7991TIP3    H245465   5.389   6.490  13.714  0.7148  0.6392  0.6873
 7992TIP3   OH245466   0.064   6.395  11.278 -0.3294  0.5871 -0.3707
 7992TIP3    H145467   0.012   6.366  11.203  1.2772  2.2933 -2.2607
 7992TIP3    H245468   0.028   6.482  11.299 -0.3946  0.3595  0.5082
 7993TIP3   OH245469   0.429   3.916   5.305 -0.0069  0.5266  0.1734
 7993TIP3    H145470   0.428   3.906   5.210  0.2001  2.8636 -0.1181
 7993TIP3    H245471   0.338   3.933   5.328  0.2422  2.0138  0.1150
 7994TIP3   OH245472   2.858   1.716   2.575  0.3047  0.2465 -0.3203
 7994TIP3    H145473   2.804   1.672   2.641 -0.6879  0.9116 -0.6695
 7994TIP3    H245474   2.897   1.790   2.621  1.8875 -0.8796  0.2385
 7995TIP3   OH245475   0.617   3.115  13.454 -0.1203  0.2756  0.2628
 7995TIP3    H145476   0.578   3.028  13.442  0.4180  0.3348 -2.7132
 7995TIP3    H245477   0.568   3.153  13.527 -0.0547 -2.6631  2.0027
 7996TIP3   OH245478   4.923   4.726   1.336  0.2144  0.3405 -0.7222
 7996TIP3    H145479   4.873   4.807   1.335  0.0604  0.2454 -2.1126
 7996TIP3    H245480   4.931   4.701   1.244 -1.0242 -1.9933 -0.2962
 7997TIP3   OH245481   0.380   1.540   0.212  0.1184 -0.4414 -0.2472
 7997TIP3    H145482   0.368   1.448   0.234  1.2301 -0.1778  1.6921
 7997TIP3    H245483   0.440   1.539   0.137 -0.2409 -1.2879 -0.5311
 7998TIP3   OH245484   3.265   0.134   0.317 -0.1774  0.0108 -0.2900
 7998TIP3    H145485   3.209   0.144   0.394  1.1249 -0.0163  0.6947
 7998TIP3    H245486   3.263   0.219   0.274  1.8909  1.2658  1.7981
 7999TIP3   OH245487   2.250   1.214   9.847 -0.5701  0.2044 -0.1389
 7999TIP3    H145488   2.332   1.223   9.799 -0.5155  1.7389  0.1806
 7999TIP3    H245489   2.182   1.220   9.780 -0.4394 -0.0833 -0.2967
 8000TIP3   OH245490   0.803   7.107  11.572  0.6146 -0.2793 -0.3115
 8000TIP3    H145491   0.851   7.140  11.649  0.1639 -2.5592  1.0325
 8000TIP3    H245492   0.715   7.089  11.605 -0.4416  1.3310 -2.1030
 8001TIP3   OH245493   6.688   1.396  10.598 -0.1911  0.3631 -0.1198
 8001TIP3    H145494   6.728   1.443  10.671 -1.4237  1.3245 -0.0340
 8001TIP3    H245495   6.724   1.308  10.604  0.3275  0.6415  1.1817
 8002TIP3   OH245496   6.128   2.840   1.188 -0.4269 -0.2247 -0.2064
 8002TIP3    H145497   6.118   2.746   1.200  0.4783 -0.3573 -0.4380
 8002TIP3    H245498   6.142   2.851   1.094 -0.8051  0.1647 -0.2179
 8003TIP3   OH245499   0.720   6.300  11.389  0.4179 -0.2024  0.0160
 8003TIP3    H145500   0.717   6.248  11.469 -0.6226  0.2477  0.2858
 8003TIP3    H245501   0.755   6.385  11.416  1.2865 -0.4549 -0.2632
 8004TIP3   OH245502   1.313   5.170   0.268 -0.1800 -0.3470  0.0746
 8004TIP3    H145503   1.224   5.205   0.265  0.1277  0.4159 -0.4824
 8004TIP3    H245504   1.332   5.145   0.178 -0.5916 -2.5181  0.5401
 8005TIP3   OH245505   5.085   3.258  14.243  0.1859 -0.3115  0.4784
 8005TIP3    H145506   5.158   3.227  14.296  1.5226 -0.0430 -1.1209
 8005TIP3    H245507   5.036   3.316  14.301  1.3590 -0.3140  1.5238
 8006TIP3   OH245508   3.631   3.102  15.323  0.2826  0.4230 -0.4078
 8006TIP3    H145509   3.606   3.094  15.230 -0.0697  0.3847 -0.3112
 8006TIP3    H245510   3.550   3.130  15.367  0.9729  2.5860 -0.4212
 8007TIP3   OH245511   3.313   1.383   3.804 -0.1234  0.0529  0.4066
 8007TIP3    H145512   3.370   1.334   3.744  2.6595  0.9109  2.1707
 8007TIP3    H245513   3.282   1.457   3.751  0.9477 -0.0679 -0.4357
 8008TIP3   OH245514   5.640   5.742  12.761 -0.1425  0.3662  0.7168
 8008TIP3    H145515   5.561   5.691  12.745 -1.0823  1.7849  0.6178
 8008TIP3    H245516   5.690   5.736  12.679  0.3038 -1.2306  1.0674
 8009TIP3   OH245517   7.056   6.454  13.060 -0.0687 -0.3504 -0.1577
 8009TIP3    H145518   6.988   6.518  13.041 -1.1704 -1.1155  1.0529
 8009TIP3    H245519   7.138   6.499  13.040 -0.7250  1.8613  1.6888
 8010TIP3   OH245520   0.902   0.654  10.171 -0.9391 -0.5527 -0.0841
 8010TIP3    H145521   0.903   0.643  10.266  1.4700 -2.2177 -0.2244
 8010TIP3    H245522   0.949   0.736  10.155  0.7324 -1.4257  0.1267
 8011TIP3   OH245523   5.271   3.296  11.557 -0.2146 -0.4647 -0.1593
 8011TIP3    H145524   5.253   3.256  11.472 -0.3112  2.4529 -1.6420
 8011TIP3    H245525   5.347   3.352  11.542  0.1456 -0.3276  1.8572
 8012TIP3   OH245526   0.922   0.043   1.533 -0.0818  0.8698  0.5335
 8012TIP3    H145527   1.007   0.075   1.505 -0.3782  1.5406  0.3802
 8012TIP3    H245528   0.859   0.106   1.498 -0.4459  2.1963  3.2401
 8013TIP3   OH245529   1.245   6.130  12.523  0.2818 -0.6542  0.1031
 8013TIP3    H145530   1.292   6.201  12.478  0.0851 -0.2961  0.4612
 8013TIP3    H245531   1.277   6.050  12.480  0.3433 -0.3407 -0.4555
 8014TIP3   OH245532   3.441   2.069  10.213 -0.2074  0.1552 -0.4949
 8014TIP3    H145533   3.433   1.985  10.258  0.6867  0.6335  0.6137
 8014TIP3    H245534   3.468   2.046  10.124 -1.0746 -0.7739 -0.5321
 8015TIP3   OH245535   3.418   1.510  14.396 -0.1483 -0.0714 -0.2939
 8015TIP3    H145536   3.431   1.474  14.308 -1.2223  0.3537 -0.6470
 8015TIP3    H245537   3.323   1.522  14.403  0.1296  2.4657 -0.1168
 8016TIP3   OH245538   6.504   3.960  13.602  0.2806  0.3105  0.2898
 8016TIP3    H145539   6.583   4.004  13.633 -0.0970  0.1607  1.5089
 8016TIP3    H245540   6.434   3.996  13.656 -0.1762 -1.0757  0.6714
 8017TIP3   OH245541   5.822   4.295   1.342  0.6609 -0.0810  0.4438
 8017TIP3    H145542   5.799   4.234   1.271 -0.7817  0.8552  0.0745
 8017TIP3    H245543   5.876   4.362   1.299 -0.2559  0.5142  0.2013
 8018TIP3   OH245544   1.270   6.566  12.512 -0.3489 -0.4804 -0.4820
 8018TIP3    H145545   1.286   6.551  12.418 -0.6035  0.6435 -0.7268
 8018TIP3    H245546   1.339   6.628  12.537  0.5175 -1.7619  0.4045
 8019TIP3   OH245547   0.329   0.003  14.498 -0.1586  0.4499  0.4649
 8019TIP3    H145548   0.390   0.061  14.453  1.6659 -1.5725  0.2034
 8019TIP3    H245549   0.305  -0.063  14.433 -1.4110  0.3162  1.0360
 8020TIP3   OH245550   7.207   5.241   0.327 -0.2384 -0.1516 -0.1132
 8020TIP3    H145551   7.121   5.218   0.364  0.2789 -1.0737  0.5590
 8020TIP3    H245552   7.255   5.281   0.399  1.1718 -2.9642  0.6877
 8021TIP3   OH245553   1.503   0.303  12.234 -0.5612 -0.0284 -0.1908
 8021TIP3    H145554   1.504   0.393  12.266  1.2808  0.3353 -1.1325
 8021TIP3    H245555   1.515   0.250  12.312  2.0164  0.7574  0.0366
 8022TIP3   OH245556   6.033   6.935  15.178 -0.3623  0.2196 -0.5134
 8022TIP3    H145557   6.109   6.979  15.139 -1.2896  0.4627 -2.1510
 8022TIP3    H245558   6.047   6.942  15.272  0.8296  1.7125 -0.7563
 8023TIP3   OH245559   6.977   2.861  12.640 -0.2797  0.0255 -0.1017
 8023TIP3    H145560   7.027   2.885  12.717 -1.3323 -1.1101  0.9721
 8023TIP3    H245561   6.890   2.899  12.655 -0.7034 -0.8086 -0.3797
 8024TIP3   OH245562   3.053   4.628  11.194  0.3989  0.7773 -0.2215
 8024TIP3    H145563   3.129   4.599  11.144  0.2274 -0.8015  0.3812
 8024TIP3    H245564   2.983   4.633  11.130 -0.1892 -2.6353 -0.0546
 8025TIP3   OH245565   3.846   0.985   1.003  0.6608 -0.5237  0.3315
 8025TIP3    H145566   3.800   1.025   0.928 -0.8791 -1.0017  0.9692
 8025TIP3    H245567   3.890   1.059   1.046 -0.5248  0.1878  0.3791
 8026TIP3   OH245568   5.663   4.505   4.196 -0.1515  0.3401 -0.3817
 8026TIP3    H145569   5.643   4.555   4.117 -0.8202 -0.7945 -0.9620
 8026TIP3    H245570   5.751   4.534   4.221  0.0976  0.6854 -1.5836
 8027TIP3   OH245571   5.714   0.201  14.690  0.0998 -0.1389 -0.1931
 8027TIP3    H145572   5.785   0.265  14.699 -0.0547 -0.1030  0.8833
 8027TIP3    H245573   5.748   0.123  14.733 -0.4333 -0.1927  0.1275
 8028TIP3   OH245574   4.753   0.957   9.977 -0.4282  0.1613  0.2520
 8028TIP3    H145575   4.837   0.976  10.019 -0.3478 -2.6087  1.5990
 8028TIP3    H245576   4.774   0.895   9.908 -1.3355 -0.5527  0.5933
 8029TIP3   OH245577   4.383   0.579  11.866 -0.0436 -0.3273 -0.1297
 8029TIP3    H145578   4.308   0.621  11.908 -1.4820 -1.5365 -1.3482
 8029TIP3    H245579   4.363   0.485  11.868  0.5135 -0.5499 -2.1314
 8030TIP3   OH245580   2.636   2.274  14.521  0.0148  0.0902 -0.1237
 8030TIP3    H145581   2.728   2.271  14.547 -0.3163  2.6847  1.6617
 8030TIP3    H245582   2.622   2.363  14.491 -2.5991  0.8409  2.7906
 8031TIP3   OH245583   6.525   0.315   3.691  0.4997 -0.2809  0.2477
 8031TIP3    H145584   6.464   0.389   3.688 -1.1319 -1.5887 -2.0740
 8031TIP3    H245585   6.609   0.355   3.714 -0.6986  1.9714  1.0248
 8032TIP3   OH245586   7.091   2.468   2.684 -0.0712 -0.2451 -0.4156
 8032TIP3    H145587   7.128   2.556   2.692 -0.0243 -0.2347 -0.7356
 8032TIP3    H245588   7.162   2.410   2.709  0.1942 -0.2286 -1.1067
 8033TIP3   OH245589   5.769   3.631  11.008  0.3970 -0.1127  0.1534
 8033TIP3    H145590   5.738   3.638  11.099  0.0478 -1.1385  0.1284
 8033TIP3    H245591   5.724   3.702  10.962  0.7677  0.5756  0.8241
 8034TIP3   OH245592   0.639   4.744   1.659  0.0917  0.2139  0.4451
 8034TIP3    H145593   0.618   4.837   1.649 -3.2738 -0.5611 -1.2230
 8034TIP3    H245594   0.595   4.718   1.740  1.9978  0.2351  1.5428
 8035TIP3   OH245595   4.466   4.394  11.608  0.0807 -0.7306 -0.2431
 8035TIP3    H145596   4.391   4.335  11.611  0.5982 -1.5378 -1.7741
 8035TIP3    H245597   4.434   4.471  11.560 -0.0938 -0.5604  0.1462
 8036TIP3   OH245598   4.943   0.383  15.108  0.1515  0.0745 -0.8242
 8036TIP3    H145599   5.003   0.407  15.179 -0.7271 -1.6263  0.5472
 8036TIP3    H245600   4.915   0.467  15.072  1.3469  0.9608  0.2125
 8037TIP3   OH245601   2.426   5.117  13.039 -0.2150 -0.8311  0.4140
 8037TIP3    H145602   2.428   5.042  13.097 -0.9233 -0.2253  1.2534
 8037TIP3    H245603   2.392   5.189  13.093 -0.4573 -0.1408 -0.6177
 8038TIP3   OH245604   4.445   6.243  12.663 -0.4876 -0.0827 -0.1274
 8038TIP3    H145605   4.531   6.206  12.641 -0.8116 -0.2270 -1.1853
 8038TIP3    H245606   4.410   6.184  12.730 -0.2440 -0.6706 -0.5110
 8039TIP3   OH245607   3.528   4.252  14.722 -0.0960 -0.0221  0.4022
 8039TIP3    H145608   3.535   4.341  14.687 -1.1911 -0.6423 -1.5534
 8039TIP3    H245609   3.562   4.197  14.651 -1.2119 -1.2734  0.8106
 8040TIP3   OH245610   5.401   4.361  11.043  0.1862  0.0616  0.4284
 8040TIP3    H145611   5.459   4.411  11.101 -1.0093 -0.1455  1.8705
 8040TIP3    H245612   5.316   4.366  11.085 -0.9617  0.6495 -1.8131
 8041TIP3   OH245613   0.211   1.371   1.914  0.1731  0.3456  0.2991
 8041TIP3    H145614   0.154   1.406   1.982 -0.0451 -0.1498  0.3731
 8041TIP3    H245615   0.218   1.278   1.933 -1.2388 -0.1429 -1.2988
 8042TIP3   OH245616   1.091   6.480  14.898  0.3194  0.3618  0.6389
 8042TIP3    H145617   1.043   6.512  14.974  0.3998  0.8310  0.4998
 8042TIP3    H245618   1.027   6.429  14.849 -0.4441  2.0700 -0.2318
 8043TIP3   OH245619   5.914   0.783  12.545  0.4515 -0.1135 -0.2959
 8043TIP3    H145620   5.868   0.867  12.544  4.3340  2.3820  2.7552
 8043TIP3    H245621   5.952   0.777  12.457  0.3997  1.5173 -0.4687
 8044TIP3   OH245622   0.738   1.621  11.287 -0.1167 -0.4890  0.0427
 8044TIP3    H145623   0.820   1.668  11.302  0.0562 -0.6115 -0.5063
 8044TIP3    H245624   0.728   1.565  11.364 -0.1346  0.1651  0.5272
 8045TIP3   OH245625   6.404   1.520  15.332 -0.2758  0.1711 -0.1166
 8045TIP3    H145626   6.489   1.481  15.311 -0.2002  0.4326 -0.3065
 8045TIP3    H245627   6.349   1.445  15.355  0.2484  0.0772  0.8851
 8046TIP3   OH245628   1.253   2.868   1.446 -0.1273  0.6965 -0.0715
 8046TIP3    H145629   1.188   2.935   1.464  0.5652  1.6605 -1.0559
 8046TIP3    H245630   1.278   2.881   1.355 -0.0542 -0.9816 -0.3373
 8047TIP3   OH245631   6.506   4.919   1.038 -0.1539 -0.1380  0.4251
 8047TIP3    H145632   6.508   4.825   1.055  3.3076 -0.0778  1.1915
 8047TIP3    H245633   6.449   4.954   1.106 -0.2646 -1.5605  1.1121
 8048TIP3   OH245634   4.593   5.277   2.902  0.1779  0.2368  0.3800
 8048TIP3    H145635   4.530   5.296   2.971  0.1392 -1.4273  0.8314
 8048TIP3    H245636   4.667   5.335   2.920 -0.8589  1.6334  0.3069
 8049TIP3   OH245637   4.710   7.005   1.856 -0.2099  0.0160 -0.2391
 8049TIP3    H145638   4.756   7.010   1.940 -0.3694  0.4117 -0.1731
 8049TIP3    H245639   4.657   7.085   1.853  0.2493  0.2940 -0.9865
 8050TIP3   OH245640   2.208   6.872  12.041  0.0767 -0.5550  0.0991
 8050TIP3    H145641   2.272   6.803  12.024 -0.9063 -1.3645 -0.3970
 8050TIP3    H245642   2.156   6.838  12.114 -1.4013 -1.0568 -1.1438
 8051TIP3   OH245643   5.165   5.487  13.370 -0.4552  0.5043  0.7224
 8051TIP3    H145644   5.077   5.472  13.406  0.1124  0.1387  1.9945
 8051TIP3    H245645   5.200   5.400  13.356 -0.0804  0.6499  0.7598
 8052TIP3   OH245646   4.272   0.243  10.164  0.3863  0.1641  0.0867
 8052TIP3    H145647   4.281   0.218  10.256  0.9812  0.2397  0.0584
 8052TIP3    H245648   4.335   0.187  10.119 -0.2226 -0.1844 -0.3375
 8053TIP3   OH245649   6.320   6.345  15.242 -0.1314  0.2452 -0.6151
 8053TIP3    H145650   6.266   6.320  15.167 -0.6068  1.0024 -0.5262
 8053TIP3    H245651   6.257   6.368  15.310  0.2959 -0.5611  0.0712
 8054TIP3   OH245652   5.860   3.337  14.713 -0.3587  0.5975  0.6017
 8054TIP3    H145653   5.893   3.418  14.674 -1.5298  0.2202 -1.2887
 8054TIP3    H245654   5.874   3.270  14.646  0.2791 -0.7340  1.9930
 8055TIP3   OH245655   4.640   0.135   3.919  0.2456  0.5348  0.0318
 8055TIP3    H145656   4.561   0.182   3.893  0.2376  0.2876 -0.4103
 8055TIP3    H245657   4.624   0.045   3.891  0.6399  0.4591  0.0404
 8056TIP3   OH245658   3.208   2.573  10.673 -0.2133 -0.1101  0.1498
 8056TIP3    H145659   3.141   2.636  10.648  0.0529  0.2167  0.2498
 8056TIP3    H245660   3.213   2.579  10.768  0.9061  0.8656  0.0519
 8057TIP3   OH245661   2.197   6.313  13.018 -0.3457  0.0928 -0.1455
 8057TIP3    H145662   2.223   6.241  13.075  0.8526 -0.6778 -1.5962
 8057TIP3    H245663   2.280   6.356  12.995 -0.9805  1.5317  0.1406
 8058TIP3   OH245664   2.880   5.488   4.963 -0.0382 -0.3511 -0.2187
 8058TIP3    H145665   2.964   5.530   4.983 -0.8290  1.6291 -0.7961
 8058TIP3    H245666   2.815   5.556   4.980 -1.5395 -1.8082  0.1176
 8059TIP3   OH245667   5.859   3.315  10.114 -0.4314 -0.3632 -0.4234
 8059TIP3    H145668   5.845   3.394  10.062 -1.5165 -0.4113 -0.2192
 8059TIP3    H245669   5.948   3.325  10.149 -0.6102  0.8449 -0.2678
 8060TIP3   OH245670   1.605   6.065   0.278 -0.3235 -0.1112 -0.0533
 8060TIP3    H145671   1.670   6.090   0.344 -1.2519 -0.8258  1.1587
 8060TIP3    H245672   1.654   6.011   0.215  0.4000 -0.0821  0.4754
 8061TIP3   OH245673   4.378   7.173  13.485 -0.8953  0.3736 -0.0956
 8061TIP3    H145674   4.445   7.174  13.553 -0.4203  0.0021 -0.5508
 8061TIP3    H245675   4.297   7.196  13.531 -1.0786 -2.3175  1.1152
 8062TIP3   OH245676   6.338   5.678  12.276  0.5001 -0.2260 -0.7778
 8062TIP3    H145677   6.430   5.690  12.251  0.8748 -0.1945  0.5271
 8062TIP3    H245678   6.337   5.698  12.370 -1.0334  0.7649 -0.9736
 8063TIP3   OH245679   6.254   1.698  12.430 -0.4733 -0.7034 -0.0608
 8063TIP3    H145680   6.208   1.779  12.408 -0.1216 -0.3089  0.6088
 8063TIP3    H245681   6.213   1.669  12.512 -2.2733 -2.5449 -1.5066
 8064TIP3   OH245682   5.640   3.717   2.036 -0.3724 -0.4055 -0.1158
 8064TIP3    H145683   5.733   3.738   2.045 -0.4755 -0.0536  0.1549
 8064TIP3    H245684   5.614   3.762   1.955 -1.1517  2.6471  1.6407
 8065TIP3   OH245685   1.422   0.280   3.015 -0.3287 -0.3041 -0.1863
 8065TIP3    H145686   1.414   0.322   2.929 -1.1009 -1.4643 -0.7033
 8065TIP3    H245687   1.504   0.232   3.010  0.8241  1.4681  0.5900
 8066TIP3   OH245688   0.720   2.890   0.731  0.8370 -0.2764 -0.0140
 8066TIP3    H145689   0.806   2.867   0.767  0.8307 -0.5507 -0.1734
 8066TIP3    H245690   0.721   2.986   0.726  0.6200 -0.1780  1.2831
 8067TIP3   OH245691   2.938   4.678  11.454 -0.8667 -0.1792 -0.5484
 8067TIP3    H145692   2.958   4.762  11.495 -4.6046  1.2605 -1.3097
 8067TIP3    H245693   2.981   4.682  11.368  0.6051  0.0385  0.1634
 8068TIP3   OH245694   4.761   6.464   0.267 -0.1931 -0.1270  0.9121
 8068TIP3    H145695   4.769   6.559   0.278 -0.0160 -0.1812  1.2613
 8068TIP3    H245696   4.679   6.442   0.311  0.2832 -0.2783  1.7483
 8069TIP3   OH245697   4.197   3.916   0.060  0.7879  0.2807  0.0380
 8069TIP3    H145698   4.139   3.938  -0.013  1.7469  1.3442 -0.4205
 8069TIP3    H245699   4.146   3.936   0.138  0.4301  0.9450 -0.3555
 8070TIP3   OH245700   5.928   5.687   0.708  0.4288 -0.0927  0.0216
 8070TIP3    H145701   5.945   5.704   0.800  0.1042 -0.4972  0.1589
 8070TIP3    H245702   5.866   5.755   0.682  1.5688  0.8785 -0.2689
 8071TIP3   OH245703   4.557   4.810  11.435  0.2986  0.3855  0.2522
 8071TIP3    H145704   4.495   4.737  11.444  0.4182  0.1851 -0.5142
 8071TIP3    H245705   4.598   4.817  11.521  0.4774 -0.6289  0.2604
 8072TIP3   OH245706   5.604   0.283  11.725  0.0379  0.0595  0.3551
 8072TIP3    H145707   5.561   0.256  11.806 -1.3486 -0.5410 -0.5508
 8072TIP3    H245708   5.533   0.289  11.661  1.1022  0.5643 -0.8167
 8073TIP3   OH245709   1.403   6.771  14.122  0.0586  0.0455 -0.5602
 8073TIP3    H145710   1.369   6.808  14.040 -2.4841 -1.5441 -0.3179
 8073TIP3    H245711   1.420   6.848  14.177 -0.6986  1.0498 -1.6615
 8074TIP3   OH245712   0.095   3.682   2.282  0.2327  0.1739 -0.4167
 8074TIP3    H145713   0.059   3.756   2.331  2.4123  0.5671  0.7048
 8074TIP3    H245714   0.190   3.693   2.289  0.5988 -1.4538 -2.2181
 8075TIP3   OH245715   3.417   3.794  13.139 -0.5069 -0.2936  0.1543
 8075TIP3    H145716   3.328   3.773  13.112 -1.0242  1.7690  0.0418
 8075TIP3    H245717   3.453   3.844  13.066  0.0494  0.5378  0.9725
 8076TIP3   OH245718   1.220   3.316  11.685 -0.4465 -0.3731  0.0916
 8076TIP3    H145719   1.151   3.343  11.625 -0.0401  3.0853  1.0036
 8076TIP3    H245720   1.286   3.385  11.679  1.7262 -2.2093  1.2361
 8077TIP3   OH245721   3.272   4.190  14.717 -0.2275 -0.5658 -0.9757
 8077TIP3    H145722   3.361   4.226  14.724  0.6147 -2.5982 -0.5535
 8077TIP3    H245723   3.282   4.098  14.739 -2.1554 -1.2556 -2.6867
 8078TIP3   OH245724   5.972   5.807  13.694 -0.2204 -0.4079  0.0121
 8078TIP3    H145725   6.025   5.728  13.706 -0.0631 -0.4304 -0.7611
 8078TIP3    H245726   5.884   5.781  13.723 -0.0115 -0.6353  0.4633
 8079TIP3   OH245727   2.479   7.017   2.564  0.4319 -0.4957 -0.2316
 8079TIP3    H145728   2.522   7.102   2.557 -0.5036 -0.0712 -0.9301
 8079TIP3    H245729   2.540   6.956   2.522  0.8466 -0.0868 -0.2312
 8080TIP3   OH245730   0.447   0.608  13.238 -0.2238 -0.1017 -0.1598
 8080TIP3    H145731   0.537   0.633  13.256  1.9792 -3.4713 -4.5839
 8080TIP3    H245732   0.419   0.669  13.169 -1.0599  0.3477  0.5530
 8081TIP3   OH245733   1.165   2.220  13.969 -0.4712  0.0552 -0.2847
 8081TIP3    H145734   1.105   2.206  14.042 -0.6920 -0.5422 -0.5793
 8081TIP3    H245735   1.123   2.178  13.895 -0.3304  0.8049 -0.8006
 8082TIP3   OH245736   2.955   6.118  10.305 -0.6821  0.1502 -0.0600
 8082TIP3    H145737   2.869   6.106  10.345 -0.0694  0.1130  1.2962
 8082TIP3    H245738   2.978   6.209  10.323 -1.0838  0.6441 -1.7982
 8083TIP3   OH245739   3.487   5.195   0.375  0.6717 -0.0643 -0.1269
 8083TIP3    H145740   3.532   5.152   0.447  1.2507 -1.5747 -1.3366
 8083TIP3    H245741   3.532   5.164   0.297  0.5819  2.1295 -1.1268
 8084TIP3   OH245742   2.420   4.348  13.747 -0.2095 -0.9432  0.9064
 8084TIP3    H145743   2.350   4.354  13.811  0.6312 -0.7860  1.8303
 8084TIP3    H245744   2.410   4.261  13.708 -0.6838 -1.0680  1.3064
 8085TIP3   OH245745   4.980   6.398  11.481  0.1150  0.3238 -0.1928
 8085TIP3    H145746   4.999   6.377  11.390 -2.0360 -0.3650 -0.5388
 8085TIP3    H245747   4.890   6.428  11.481  0.5842  1.9672  1.4986
 8086TIP3   OH245748   7.061   1.162  10.594  0.7624 -0.0208  0.1182
 8086TIP3    H145749   7.045   1.074  10.560 -0.3640  0.6700 -1.2216
 8086TIP3    H245750   7.152   1.180  10.570  1.2439 -1.0795  1.0605
 8087TIP3   OH245751   0.364   5.591  13.382 -0.0852 -0.0274 -0.4089
 8087TIP3    H145752   0.374   5.511  13.331 -2.5154 -0.0005 -1.0547
 8087TIP3    H245753   0.408   5.658  13.331 -0.2792 -0.4896 -1.1980
 8088TIP3   OH245754   6.604   3.239  12.960  0.7273 -0.0356  0.1492
 8088TIP3    H145755   6.553   3.160  12.975  1.5204 -0.4550  0.6720
 8088TIP3    H245756   6.644   3.226  12.873  1.2742 -0.4504  0.4551
 8089TIP3   OH245757   0.185   5.721   3.386 -0.3629  0.0702  0.3436
 8089TIP3    H145758   0.245   5.793   3.367 -1.3788  0.8345 -0.0741
 8089TIP3    H245759   0.202   5.699   3.477  0.1904  0.6292  0.3836
 8090TIP3   OH245760   4.054   2.447  11.172 -0.0172  0.8265 -0.3276
 8090TIP3    H145761   3.964   2.415  11.178 -0.4452  1.8930 -0.8356
 8090TIP3    H245762   4.100   2.381  11.119 -1.3041  1.8362 -2.8921
 8091TIP3   OH245763   0.958   1.692  15.013  0.3947  0.3496 -0.3194
 8091TIP3    H145764   0.863   1.696  15.020  0.5238  1.3464  1.5227
 8091TIP3    H245765   0.979   1.600  15.028 -0.2419  0.2271 -0.1538
 8092TIP3   OH245766   2.068   3.463  10.762 -0.6090  0.2153 -0.5612
 8092TIP3    H145767   2.114   3.384  10.734 -0.7654 -0.0688 -0.0299
 8092TIP3    H245768   2.000   3.431  10.821 -0.4733  0.7769 -0.0941
 8093TIP3   OH245769   3.041   1.144  13.237  0.1100  0.6382  0.2274
 8093TIP3    H145770   3.089   1.115  13.314  0.1923 -0.2339 -0.1356
 8093TIP3    H245771   2.961   1.183  13.272 -0.3638 -0.7289  0.7317
 8094TIP3   OH245772   5.889   5.409  13.896 -0.2638 -0.4136 -0.5674
 8094TIP3    H145773   5.883   5.351  13.820 -0.1664  0.4138 -1.2265
 8094TIP3    H245774   5.979   5.442  13.894  0.6439 -2.5336  1.5519
 8095TIP3   OH245775   4.145   1.991  11.357  0.3362  0.5930  0.4026
 8095TIP3    H145776   4.086   1.918  11.373 -0.4273  0.8178 -1.1327
 8095TIP3    H245777   4.088   2.067  11.347  1.0001  1.1083  0.4071
 8096TIP3   OH245778   0.623   1.891  12.693  0.1288 -0.2368  0.5015
 8096TIP3    H145779   0.547   1.891  12.635  0.2684 -0.2993  0.3199
 8096TIP3    H245780   0.585   1.890  12.781 -0.0912  0.6308  0.4256
 8097TIP3   OH245781   5.399   1.705   0.548  0.0260 -0.5568 -0.2629
 8097TIP3    H145782   5.431   1.641   0.485  0.4790 -0.9198  0.3227
 8097TIP3    H245783   5.309   1.677   0.566  0.1123 -0.8346 -0.2573
 8098TIP3   OH245784   4.070   7.088   1.797 -0.0315 -0.2327  0.0023
 8098TIP3    H145785   4.026   7.162   1.840  3.9462  1.8938  0.8569
 8098TIP3    H245786   4.053   7.102   1.704 -0.7943  0.7092  0.2641
 8099TIP3   OH245787   0.125   2.493   2.296 -0.1778 -0.6825  0.3600
 8099TIP3    H145788   0.083   2.484   2.210  0.7917  0.5604 -0.2646
 8099TIP3    H245789   0.118   2.406   2.335 -2.8726 -0.6780  0.0926
 8100TIP3   OH245790   7.004   3.517   3.014  0.1725  0.2008  0.3908
 8100TIP3    H145791   7.074   3.479   3.067 -0.5209  0.6106  1.6574
 8100TIP3    H245792   6.955   3.441   2.981  0.1412 -0.0680  1.0278
 8101TIP3   OH245793   2.106   6.739   1.855  0.0438 -0.5843  0.0507
 8101TIP3    H145794   2.141   6.720   1.943 -0.3208  0.7665  0.5151
 8101TIP3    H245795   2.168   6.801   1.818 -1.3533  1.1758  0.5502
 8102TIP3   OH245796   6.197   0.319  11.230  0.3914 -0.8559  1.6576
 8102TIP3    H145797   6.172   0.233  11.263  0.6023 -0.3778  3.1148
 8102TIP3    H245798   6.265   0.301  11.164  1.6176 -1.7406  3.1136
 8103TIP3   OH245799   5.959   6.697   4.594  0.0965 -0.4614  0.3840
 8103TIP3    H145800   6.009   6.765   4.549  2.7275 -2.9233 -0.7101
 8103TIP3    H245801   5.926   6.740   4.673  3.6786  1.5030  1.0177
 8104TIP3   OH245802   6.883   6.695   2.141  0.1160  0.2222  0.0245
 8104TIP3    H145803   6.920   6.783   2.131 -1.8934  1.1202 -0.2156
 8104TIP3    H245804   6.875   6.684   2.236  1.9146 -0.4397  0.1288
 8105TIP3   OH245805   4.985   4.648  15.371 -0.3211 -0.2190 -0.3191
 8105TIP3    H145806   4.984   4.564  15.325 -2.0068  0.7159 -2.1303
 8105TIP3    H245807   4.950   4.710  15.308 -2.3812  1.2507  2.0514
 8106TIP3   OH245808   2.497   3.984  14.385  0.2483  0.4714  0.2882
 8106TIP3    H145809   2.429   4.031  14.434  0.3733  2.4103 -1.2365
 8106TIP3    H245810   2.449   3.941  14.313  0.4839  0.9293 -0.1515
 8107TIP3   OH245811   1.208   3.319   2.335  0.0541  0.0571  0.2768
 8107TIP3    H145812   1.247   3.267   2.405 -1.1571  0.6121  1.4093
 8107TIP3    H245813   1.157   3.257   2.283 -0.7982 -0.0199  1.1901
 8108TIP3   OH245814   1.764   1.136  13.387 -0.5040 -0.5806 -0.1711
 8108TIP3    H145815   1.811   1.114  13.468  0.7391  1.2330 -0.3329
 8108TIP3    H245816   1.696   1.069  13.380  0.0813 -1.4618  1.7589
 8109TIP3   OH245817   3.318   4.209   2.013 -0.0101 -0.4640  0.4236
 8109TIP3    H145818   3.377   4.204   1.938  0.7345  0.0263  0.9635
 8109TIP3    H245819   3.236   4.242   1.977  0.7782  1.1956  0.0275
 8110TIP3   OH245820   2.607   4.467  11.114  0.3395  0.1610 -0.1494
 8110TIP3    H145821   2.547   4.437  11.183  0.5365  1.5822  0.6870
 8110TIP3    H245822   2.694   4.460  11.154  0.5312  0.2104 -0.5558
 8111TIP3   OH245823   6.502   4.119  10.530 -0.1979  0.2144 -0.5071
 8111TIP3    H145824   6.487   4.195  10.585  0.2094 -0.0093 -0.0730
 8111TIP3    H245825   6.523   4.155  10.444 -1.3872  0.5525 -0.6709
 8112TIP3   OH245826   0.453   2.227  11.821 -0.2388 -0.0901  0.1408
 8112TIP3    H145827   0.452   2.269  11.735 -1.2705 -0.4273 -0.0248
 8112TIP3    H245828   0.521   2.274  11.870 -0.2128  0.6495 -0.5872
 8113TIP3   OH245829   1.041   0.952   3.324  0.4814  0.6922 -0.4845
 8113TIP3    H145830   0.957   0.994   3.343  0.3621 -0.3954  1.6945
 8113TIP3    H245831   1.018   0.875   3.271  0.2370  1.0564 -0.9098
 8114TIP3   OH245832   2.106   0.798   3.763 -0.5496  0.2313  0.4005
 8114TIP3    H145833   2.098   0.882   3.717 -0.6904 -0.1418 -0.2703
 8114TIP3    H245834   2.021   0.755   3.749 -0.2708 -0.2693  0.2446
 8115TIP3   OH245835   3.189   5.899  10.567  0.0149 -0.9010  0.6183
 8115TIP3    H145836   3.145   5.827  10.612 -1.1176 -1.0152 -0.5983
 8115TIP3    H245837   3.130   5.974  10.579 -0.0568 -0.8154 -0.2178
 8116TIP3   OH245838   2.052   2.102  12.178  0.3516  0.3265  0.0091
 8116TIP3    H145839   2.103   2.076  12.101  0.0318 -0.9289  0.1985
 8116TIP3    H245840   1.980   2.155  12.143  0.3569 -0.0120 -0.5303
 8117TIP3   OH245841   6.874   1.224  14.461 -0.1325  0.1656 -0.3807
 8117TIP3    H145842   6.893   1.196  14.372 -0.0800 -0.3802 -0.2040
 8117TIP3    H245843   6.958   1.215  14.507 -0.3049 -0.1692 -0.1255
 8118TIP3   OH245844   1.228   0.794  14.393  0.2429 -0.6722  0.0191
 8118TIP3    H145845   1.208   0.816  14.484  1.2117 -1.4001  0.4177
 8118TIP3    H245846   1.265   0.706  14.397 -1.5784 -1.5618 -1.3072
 8119TIP3   OH245847   4.526   6.390   0.374 -0.3321 -0.2723 -0.5637
 8119TIP3    H145848   4.501   6.405   0.465  0.3605  1.4488 -0.6295
 8119TIP3    H245849   4.461   6.328   0.341 -1.1955 -0.1240  0.8036
 8120TIP3   OH245850   2.934   3.581   0.427  0.0927 -0.3589  0.1775
 8120TIP3    H145851   3.006   3.547   0.480  0.0257  0.5842  0.8877
 8120TIP3    H245852   2.934   3.675   0.443 -0.4427 -0.1618 -0.8764
 8121TIP3   OH245853   1.307   3.601  15.240 -0.1363 -0.0494 -0.3080
 8121TIP3    H145854   1.287   3.612  15.147 -1.9706  0.7208  0.1286
 8121TIP3    H245855   1.335   3.510  15.248 -2.5915 -0.9717 -1.2487
 8122TIP3   OH245856   3.246   4.043  14.457 -0.3570 -0.3008 -0.3258
 8122TIP3    H145857   3.220   4.117  14.512  0.9985  0.3238 -0.4717
 8122TIP3    H245858   3.338   4.028  14.478 -0.6838 -2.1982 -0.0561
 8123TIP3   OH245859   6.177   4.765  12.110  0.6493  0.0078  1.0163
 8123TIP3    H145860   6.112   4.825  12.145 -0.5130 -1.2650  1.1141
 8123TIP3    H245861   6.200   4.801  12.024 -1.4659 -0.3789  0.2294
 8124TIP3   OH245862   7.131   3.391  15.116 -0.0618 -0.7214 -0.2704
 8124TIP3    H145863   7.109   3.304  15.148 -1.5636 -0.4029 -0.3694
 8124TIP3    H245864   7.058   3.416  15.060  0.5644  0.4143 -0.6335
 8125TIP3   OH245865   1.522   5.238   0.690 -0.6026 -0.2074 -0.5765
 8125TIP3    H145866   1.454   5.290   0.649 -0.6736 -1.1404 -1.6910
 8125TIP3    H245867   1.575   5.205   0.617  0.4250 -0.3432  0.2009
 8126TIP3   OH245868   1.999   4.053  10.341 -0.9003  0.2128  0.0763
 8126TIP3    H145869   1.992   3.958  10.348  1.0091 -0.0935 -1.3983
 8126TIP3    H245870   2.065   4.077  10.406 -1.6828  0.6189  0.7430
 8127TIP3   OH245871   5.163   2.648  12.894 -0.3330 -0.5636  0.4240
 8127TIP3    H145872   5.238   2.706  12.902  0.4149 -1.4585  0.1172
 8127TIP3    H245873   5.194   2.577  12.838 -1.9048 -0.1596 -1.0334
 8128TIP3   OH245874   6.869   7.054   0.491 -0.2963  0.5645  1.0041
 8128TIP3    H145875   6.855   6.961   0.511  1.2795 -0.0316 -0.4228
 8128TIP3    H245876   6.885   7.056   0.397 -1.6364  2.4960  0.7566
 8129TIP3   OH245877   0.514   1.929   1.280 -0.1624  0.0688 -0.1078
 8129TIP3    H145878   0.567   1.907   1.357  0.4983 -1.7425 -1.0327
 8129TIP3    H245879   0.499   1.845   1.236 -1.2640  0.9469 -1.5002
 8130TIP3   OH245880   2.057   1.690   1.261 -0.1054 -0.0628  0.8830
 8130TIP3    H145881   2.004   1.731   1.192 -0.8788 -0.2242  1.3635
 8130TIP3    H245882   2.147   1.695   1.229 -0.3201  0.9389  0.3968
 8131TIP3   OH245883   3.088   4.604   0.191  0.1932 -0.3304 -0.5203
 8131TIP3    H145884   3.181   4.583   0.183 -0.0141 -1.3473 -0.4045
 8131TIP3    H245885   3.076   4.624   0.284  0.7402  2.1731 -0.9154
 8132TIP3   OH245886   4.289   4.654  15.319  0.1053 -0.8472 -0.3643
 8132TIP3    H145887   4.354   4.645  15.250  0.1792  2.0078 -0.7839
 8132TIP3    H245888   4.252   4.566  15.329  1.2512 -1.6933 -2.8353
 8133TIP3   OH245889   4.617   0.726   2.943  0.4300 -0.0033 -0.6257
 8133TIP3    H145890   4.593   0.787   2.874  0.9221  1.5180  0.4920
 8133TIP3    H245891   4.708   0.704   2.925 -0.1850 -1.6793 -1.9064
 8134TIP3   OH245892   5.204   0.661   1.019 -0.2273  0.5990  0.5295
 8134TIP3    H145893   5.206   0.696   0.930 -3.0611 -1.3473 -0.4341
 8134TIP3    H245894   5.177   0.735   1.074  0.3784  1.5204 -0.3919
 8135TIP3   OH245895   0.149   2.501   0.713  0.2117 -0.2605  0.9115
 8135TIP3    H145896   0.129   2.482   0.621 -0.4730  1.3112  0.7008
 8135TIP3    H245897   0.159   2.596   0.717 -0.3301 -0.2303  2.5637
 8136TIP3   OH245898   6.436   4.670  10.583  0.0958  0.0416 -0.2475
 8136TIP3    H145899   6.447   4.753  10.629 -0.0471  0.9407 -1.7652
 8136TIP3    H245900   6.429   4.695  10.491 -0.6250 -1.6025 -0.6703
 8137TIP3   OH245901   5.950   0.289   1.992 -0.6709  0.4343 -0.1920
 8137TIP3    H145902   5.926   0.380   2.008 -2.1772 -0.1840  1.3820
 8137TIP3    H245903   5.875   0.251   1.947 -0.8883 -0.4853  0.9004
 8138TIP3   OH245904   4.326   3.559  13.841 -0.1825  0.6290 -0.3819
 8138TIP3    H145905   4.236   3.528  13.843  0.1584 -0.5532 -1.7276
 8138TIP3    H245906   4.369   3.506  13.774  1.2900  1.7947 -0.4382
 8139TIP3   OH245907   3.122   0.417   1.717  0.1617 -0.1947 -0.1772
 8139TIP3    H145908   3.038   0.397   1.760 -0.7201  0.2772 -1.6155
 8139TIP3    H245909   3.103   0.492   1.662  1.2452 -0.7679 -1.3750
 8140TIP3   OH245910   3.310   3.238  14.001  0.2347  0.2607  0.0169
 8140TIP3    H145911   3.320   3.265  14.092  1.2405 -1.7328  0.5640
 8140TIP3    H245912   3.299   3.143  14.005 -1.0600  0.2610 -1.8799
 8141TIP3   OH245913   4.152   0.761  12.291 -0.3185  0.5445  0.6881
 8141TIP3    H145914   4.066   0.739  12.327 -1.1250  0.8578 -0.9369
 8141TIP3    H245915   4.152   0.721  12.204 -0.0673  3.1467 -0.5922
 8142TIP3   OH245916   2.673   5.546  12.032 -0.4898  0.2446 -0.4440
 8142TIP3    H145917   2.738   5.504  11.975 -1.0284  1.2461 -1.8660
 8142TIP3    H245918   2.663   5.634  11.995 -1.3757  0.6955  0.8116
 8143TIP3   OH245919   0.041   6.640  13.011  0.0712  0.2173 -0.4593
 8143TIP3    H145920   0.134   6.627  13.032  0.4501  1.7287 -1.0967
 8143TIP3    H245921   0.027   6.734  13.018 -1.0853  0.1721 -1.6494
 8144TIP3   OH245922   4.335   1.779  13.465 -0.5023 -0.4354 -0.8967
 8144TIP3    H145923   4.399   1.737  13.407  0.4741  0.9259 -0.8583
 8144TIP3    H245924   4.279   1.708  13.495  1.3759 -1.8029 -0.4556
 8145TIP3   OH245925   6.783   4.904  14.134 -0.4563  0.4722 -0.0759
 8145TIP3    H145926   6.846   4.906  14.206 -0.5440 -0.1932  0.0214
 8145TIP3    H245927   6.775   4.812  14.111 -0.3543  0.6874 -1.0090
 8146TIP3   OH245928   1.485   7.018  12.662 -0.3749  0.1578  0.0271
 8146TIP3    H145929   1.443   7.048  12.581 -2.1575  2.7956  1.7596
 8146TIP3    H245930   1.484   7.095  12.719  0.3669 -1.7049  2.7492
 8147TIP3   OH245931   2.354   5.200  14.054 -0.0471 -0.1790 -0.0932
 8147TIP3    H145932   2.329   5.281  14.099 -0.7741 -0.6132  0.3140
 8147TIP3    H245933   2.337   5.131  14.118 -0.9721 -0.7964 -0.9775
 8148TIP3   OH245934   2.234   5.911  12.870  0.0275  0.6366  0.6484
 8148TIP3    H145935   2.279   5.863  12.800 -2.3338  0.5633 -0.9390
 8148TIP3    H245936   2.207   5.843  12.931 -3.6293 -0.3808 -1.7765
 8149TIP3   OH245937   7.150   1.756  11.218  0.5893  0.0084 -0.3239
 8149TIP3    H145938   7.149   1.671  11.262  0.8047 -0.1539 -0.6270
 8149TIP3    H245939   7.200   1.741  11.137  0.9070  0.4956 -0.2253
 8150TIP3   OH245940   4.037   7.094   2.854 -0.2384  0.3960 -0.1723
 8150TIP3    H145941   4.099   7.132   2.791 -1.2174  0.8923 -0.8604
 8150TIP3    H245942   4.087   7.087   2.935  0.7130  0.8057 -0.7043
 8151TIP3   OH245943   2.792   6.237  11.919 -0.4320 -0.9723  0.6045
 8151TIP3    H145944   2.741   6.179  11.976 -1.3379 -0.2318  0.5871
 8151TIP3    H245945   2.866   6.184  11.890 -1.9152 -2.5696 -0.4718
 8152TIP3   OH245946   1.348   5.597   4.226  0.1466  0.4081  0.3370
 8152TIP3    H145947   1.420   5.538   4.248 -0.6151  0.7120  4.3259
 8152TIP3    H245948   1.283   5.541   4.184  0.1983 -1.2930  2.3602
 8153TIP3   OH245949   6.198   0.445   3.339 -0.3328  0.2060 -0.2743
 8153TIP3    H145950   6.229   0.479   3.255 -0.9684  0.4046 -0.4351
 8153TIP3    H245951   6.212   0.350   3.333  0.4860  0.3149 -0.2304
 8154TIP3   OH245952   4.733   4.328  11.366  0.1964 -0.1733 -0.1561
 8154TIP3    H145953   4.673   4.296  11.299  1.8435 -0.4087 -1.5800
 8154TIP3    H245954   4.772   4.407  11.328  0.7695  0.0028  0.7603
 8155TIP3   OH245955   5.956   6.072   0.631  0.1240  0.1399  0.3297
 8155TIP3    H145956   5.863   6.050   0.632  0.1012  0.2314  0.1356
 8155TIP3    H245957   5.961   6.159   0.671  0.1970 -0.1427  0.9478
 8156TIP3   OH245958   1.678   6.768  14.998  0.0790 -0.0458  0.0132
 8156TIP3    H145959   1.638   6.688  14.962 -1.0894  1.0136 -1.1239
 8156TIP3    H245960   1.668   6.833  14.928  1.3524  1.0002  0.7804
 8157TIP3   OH245961   6.322   2.857  14.054  0.3272  0.3973  0.4317
 8157TIP3    H145962   6.397   2.901  14.094  0.7463 -0.0545  0.1721
 8157TIP3    H245963   6.300   2.911  13.978  0.7852  0.2126  0.1621
 8158TIP3   OH245964   1.363   3.276  13.816 -0.2701 -0.1970 -0.0067
 8158TIP3    H145965   1.275   3.306  13.842 -0.1284  1.6197 -1.3657
 8158TIP3    H245966   1.422   3.344  13.849  0.2805  0.1469 -1.6004
 8159TIP3   OH245967   6.206   0.963   2.632 -0.2449 -0.1855 -0.3320
 8159TIP3    H145968   6.294   0.926   2.623 -0.7288 -1.2238 -0.9558
 8159TIP3    H245969   6.221   1.053   2.660  0.9912 -0.6782  0.7312
 8160TIP3   OH245970   3.867   0.956  14.834  0.6096 -0.0173 -0.3481
 8160TIP3    H145971   3.807   0.940  14.907  0.2006 -1.1004 -0.9056
 8160TIP3    H245972   3.833   0.903  14.762  1.1476  0.8508 -1.2630
 8161TIP3   OH245973   0.076   5.720  14.766  0.8078 -0.1870  0.2329
 8161TIP3    H145974   0.030   5.804  14.763 -0.5676 -0.9131 -2.4107
 8161TIP3    H245975   0.147   5.729  14.702  1.0349 -0.8222  0.3897
 8162TIP3   OH245976   5.493   3.337  14.953  0.3040 -0.1637 -0.1750
 8162TIP3    H145977   5.492   3.286  15.034  0.4595  0.0908 -0.0111
 8162TIP3    H245978   5.586   3.347  14.932  0.2562 -0.4372 -0.5183
 8163TIP3   OH245979   0.339   6.805  12.384 -0.3212  0.3410  0.1401
 8163TIP3    H145980   0.264   6.839  12.432  0.6589 -1.5918  3.3536
 8163TIP3    H245981   0.310   6.720  12.351  0.2688 -0.2283  1.0381
 8164TIP3   OH245982   6.762   4.198   4.081 -0.3479 -0.0569  0.0626
 8164TIP3    H145983   6.747   4.107   4.055  0.0162 -0.3159  0.7429
 8164TIP3    H245984   6.677   4.228   4.113 -1.0670  0.5636 -2.2085
 8165TIP3   OH245985   5.167   1.161   1.117  0.1606 -0.0211  0.3095
 8165TIP3    H145986   5.211   1.081   1.087  1.8367  0.7049  0.7160
 8165TIP3    H245987   5.196   1.171   1.208  0.5436  1.4217  0.0468
 8166TIP3   OH245988   2.313   0.598  11.703 -0.0440  0.6406  0.2983
 8166TIP3    H145989   2.356   0.683  11.698  0.5925  0.2815 -0.6716
 8166TIP3    H245990   2.277   0.594  11.792  1.1831  1.3185  0.8453
 8167TIP3   OH245991   2.172   4.833  12.593 -0.1171  0.2254 -0.2226
 8167TIP3    H145992   2.190   4.740  12.603  2.0712  0.4817 -1.2453
 8167TIP3    H245993   2.150   4.845  12.500 -0.7004  0.7051 -0.0380
 8168TIP3   OH245994   5.342   1.456  14.379  0.1990 -0.0700  0.2432
 8168TIP3    H145995   5.339   1.377  14.325  0.4081  0.1107 -0.0381
 8168TIP3    H245996   5.431   1.488  14.368  0.4448 -0.3804  1.2075
 8169TIP3   OH245997   1.408   2.934   0.974  0.5456 -0.4158 -0.5239
 8169TIP3    H145998   1.492   2.935   0.927  0.5416  2.2259 -0.6415
 8169TIP3    H245999   1.367   3.018   0.951 -1.7420 -1.2570  0.2446
 8170TIP3   OH246000   0.794   5.724   2.470  0.0044 -0.0835  0.0788
 8170TIP3    H146001   0.857   5.766   2.410 -0.5002  0.7945  0.1396
 8170TIP3    H246002   0.711   5.769   2.452 -0.2830 -0.2198  1.0179
 8171TIP3   OH246003   4.831   2.900  10.408  0.0571 -0.0249  0.2568
 8171TIP3    H146004   4.849   2.992  10.387 -0.9339  0.5305  1.6475
 8171TIP3    H246005   4.905   2.852  10.372  1.3774  1.4858  0.8316
 8172TIP3   OH246006   4.904   3.803   2.391  0.2659 -0.0172 -0.0774
 8172TIP3    H146007   4.813   3.832   2.383 -0.4492 -1.3968  2.0385
 8172TIP3    H246008   4.938   3.805   2.301 -1.7577  0.8035 -0.8883
 8173TIP3   OH246009   6.323   5.776  11.929 -0.3711 -0.3783  0.0880
 8173TIP3    H146010   6.312   5.827  12.009 -0.0844 -0.1504 -0.0149
 8173TIP3    H246011   6.271   5.697  11.943  2.5032 -2.0964  2.0104
 8174TIP3   OH246012   4.498   2.233   2.534  0.4541 -0.3534 -0.1616
 8174TIP3    H146013   4.517   2.219   2.441  0.9469 -0.1834 -0.0906
 8174TIP3    H246014   4.574   2.280   2.568  0.6190 -1.0678  0.4956
 8175TIP3   OH246015   3.695   3.940  14.777 -0.0036  0.0621 -0.3330
 8175TIP3    H146016   3.712   4.035  14.778 -1.2655  0.3127 -0.4818
 8175TIP3    H246017   3.600   3.933  14.783  0.1127 -1.2237  0.2914
 8176TIP3   OH246018   7.104   1.929  13.697  0.0157 -0.0612 -0.1664
 8176TIP3    H146019   7.116   1.896  13.786  1.3984  0.1965 -0.2386
 8176TIP3    H246020   7.131   1.856  13.641 -1.6977 -0.5487 -0.4260
 8177TIP3   OH246021   3.762   0.102  11.951 -0.0675 -0.7829 -0.1319
 8177TIP3    H146022   3.809   0.166  11.897 -1.1454  0.8865  0.8410
 8177TIP3    H246023   3.736   0.034  11.889 -0.4922  0.6401 -1.5925
 8178TIP3   OH246024   5.066   1.087   4.426  0.0042  0.4890  0.1737
 8178TIP3    H146025   5.026   1.076   4.340  0.9399  1.8330 -0.4715
 8178TIP3    H246026   4.995   1.073   4.488 -1.0106  0.8934 -0.8715
 8179TIP3   OH246027   5.564   2.618  10.323  0.0648 -0.2933  0.0772
 8179TIP3    H146028   5.520   2.606  10.239 -0.0477  0.3214  0.0403
 8179TIP3    H246029   5.590   2.710  10.324 -1.1358  0.0765  1.2677
 8180TIP3   OH246030   3.062   6.655   0.440 -0.2457  0.2535  0.0591
 8180TIP3    H146031   3.026   6.656   0.352  0.1899  0.5616 -0.1197
 8180TIP3    H246032   3.157   6.647   0.427 -0.2270 -0.3442  0.5159
 8181TIP3   OH246033   3.892   6.713   0.496  0.1433 -0.0510 -0.0474
 8181TIP3    H146034   3.949   6.659   0.441 -0.5576 -0.6039 -0.2339
 8181TIP3    H246035   3.885   6.665   0.578  2.2423  1.3836  1.0754
 8182TIP3   OH246036   6.784   5.093  13.937  0.2843  0.1033  0.1911
 8182TIP3    H146037   6.855   5.047  13.893  0.4084 -1.2558  1.7105
 8182TIP3    H246038   6.764   5.039  14.013 -1.1723  1.3895  0.7772
 8183TIP3   OH246039   3.089   3.143  12.962 -0.4121 -0.0897 -0.2957
 8183TIP3    H146040   3.059   3.063  13.005 -1.1995  0.5252  0.3241
 8183TIP3    H246041   3.014   3.174  12.912  0.0228  0.0338 -0.8938
 8184TIP3   OH246042   2.756   5.769  13.299  0.0263  0.1191  0.3824
 8184TIP3    H146043   2.709   5.704  13.351 -2.4153  0.7586 -0.8820
 8184TIP3    H246044   2.722   5.758  13.211  2.4957  0.5099 -0.7206
 8185TIP3   OH246045   5.400   1.403   0.474  0.2372 -0.2976  0.1954
 8185TIP3    H146046   5.413   1.343   0.548  0.1675 -0.2546  0.2424
 8185TIP3    H246047   5.332   1.463   0.504 -1.0043 -1.3052 -0.5434
 8186TIP3   OH246048   2.468   0.551   9.573 -0.0478 -0.1871  0.0272
 8186TIP3    H146049   2.476   0.636   9.530  0.6647  0.3694  1.2144
 8186TIP3    H246050   2.504   0.488   9.510 -0.9518  0.3240 -1.0227
 8187TIP3   OH246051   7.092   6.517   1.164  0.1357 -0.0934  0.0882
 8187TIP3    H146052   7.057   6.581   1.102 -0.3166 -0.2720  0.1570
 8187TIP3    H246053   7.021   6.453   1.176  0.5744 -0.5983  0.0370
 8188TIP3   OH246054   1.125   0.826   0.611  0.1994  0.1407  0.1011
 8188TIP3    H146055   1.199   0.877   0.580 -1.0480  1.3700 -0.9839
 8188TIP3    H246056   1.093   0.873   0.688  0.5569 -0.4088  0.5923
 8189TIP3   OH246057   2.785   3.762   2.890 -0.1704  0.2220 -0.7382
 8189TIP3    H146058   2.776   3.667   2.899 -0.2460  0.2667 -0.3227
 8189TIP3    H246059   2.879   3.778   2.894 -0.2357  0.3803  1.6212
 8190TIP3   OH246060   1.124   0.012   2.126 -0.0904  0.5721 -0.0136
 8190TIP3    H146061   1.084  -0.073   2.110 -1.8355  0.2490  4.4408
 8190TIP3    H246062   1.057   0.076   2.103 -0.5711  0.4119  0.8788
 8191TIP3   OH246063   2.649   2.835  14.033 -0.2202  0.5730 -0.5529
 8191TIP3    H146064   2.742   2.842  14.013  1.2003  0.2695  4.3912
 8191TIP3    H246065   2.624   2.924  14.060 -0.9282  0.3406 -0.4266
 8192TIP3   OH246066   2.325   1.787  14.639  0.5991  0.2132 -0.5575
 8192TIP3    H146067   2.325   1.751  14.727  0.5396  0.7969 -0.3176
 8192TIP3    H246068   2.249   1.747  14.596 -0.2807  1.0804  0.1395
 8193TIP3   OH246069   2.966   4.578  10.100 -0.5343 -0.4294 -0.5853
 8193TIP3    H146070   2.923   4.512  10.154 -2.2215  0.1777 -1.1052
 8193TIP3    H246071   2.895   4.615  10.047  0.3986  1.5796 -0.5297
 8194TIP3   OH246072   6.715   4.655  14.439 -0.4756 -0.2765 -0.1784
 8194TIP3    H146073   6.656   4.625  14.370  1.5485 -0.1004 -2.1171
 8194TIP3    H246074   6.757   4.576  14.472 -1.4125 -0.3570  0.8872
 8195TIP3   OH246075   2.693   0.389   0.210 -0.3934  0.3398  0.0826
 8195TIP3    H146076   2.673   0.444   0.134  1.4141  0.8905 -0.0324
 8195TIP3    H246077   2.717   0.304   0.172 -1.1200  0.0989  0.1468
 8196TIP3   OH246078   6.154   3.852   1.218 -0.2570 -0.0062 -0.3841
 8196TIP3    H146079   6.089   3.912   1.181  1.0336  2.0303  0.4648
 8196TIP3    H246080   6.102   3.784   1.260 -1.9008  1.6100  0.3473
 8197TIP3   OH246081   3.918   2.972  15.125 -0.0293  0.1323 -0.3623
 8197TIP3    H146082   3.880   3.058  15.108 -1.1732 -0.0040  1.2544
 8197TIP3    H246083   4.001   2.991  15.169  0.3901  0.3998 -1.2429
 8198TIP3   OH246084   1.855   1.723   1.069 -0.2509  0.3010  0.1599
 8198TIP3    H146085   1.904   1.781   1.011  0.8593  0.5596  1.3051
 8198TIP3    H246086   1.763   1.745   1.054  0.1376  2.5359  0.7249
 8199TIP3   OH246087   6.323   7.099   3.264 -0.2121 -0.2480  0.3981
 8199TIP3    H146088   6.323   7.109   3.359  0.8661  0.0190  0.3849
 8199TIP3    H246089   6.378   7.022   3.248  1.2560  0.8604 -0.0888
 8200TIP3   OH246090   3.657   3.478  12.391 -0.0155 -0.0582 -0.2528
 8200TIP3    H146091   3.652   3.555  12.447 -0.6743 -0.0737 -0.2791
 8200TIP3    H246092   3.715   3.504  12.320  0.2109  0.2223  0.0333
 8201TIP3   OH246093   1.071   6.706  13.621  0.0049 -0.0780  0.0973
 8201TIP3    H146094   1.041   6.662  13.541 -1.1628  1.4114 -0.3151
 8201TIP3    H246095   1.136   6.769  13.591  0.1478 -0.0593  0.4369
 8202TIP3   OH246096   2.302   0.221  11.759 -0.3074  0.3242 -0.5569
 8202TIP3    H146097   2.285   0.160  11.831  0.6257  0.7222  0.0237
 8202TIP3    H246098   2.337   0.299  11.802 -1.1353  1.1425 -1.3222
 8203TIP3   OH246099   5.247   2.506   2.163 -1.0911  0.2952 -0.2224
 8203TIP3    H146100   5.285   2.419   2.175  0.6593  0.9328 -0.8777
 8203TIP3    H246101   5.319   2.560   2.131 -2.2056  1.9370 -0.0950
 8204TIP3   OH246102   7.062   2.060  14.137  0.3096  0.3103  0.3890
 8204TIP3    H146103   7.121   2.004  14.085 -1.1754 -1.2481  0.3106
 8204TIP3    H246104   6.989   2.079  14.078 -0.5656 -0.0387  1.3387
 8205TIP3   OH246105   3.591   1.136  12.264  0.4776  0.1722 -0.1430
 8205TIP3    H146106   3.677   1.107  12.292  0.5868 -0.7103 -1.3391
 8205TIP3    H246107   3.533   1.113  12.337  1.1581  0.3334  0.4616
 8206TIP3   OH246108   6.963   6.810  10.062  0.0263  0.4658  0.5019
 8206TIP3    H146109   6.943   6.872  10.132  0.5835  0.3556  0.7642
 8206TIP3    H246110   7.022   6.858  10.003 -1.4700  1.0118 -0.6158
 8207TIP3   OH246111   0.348   3.004   9.375  0.5374  0.0960 -0.2492
 8207TIP3    H146112   0.382   3.093   9.386 -0.7071  0.7209 -1.1927
 8207TIP3    H246113   0.318   2.979   9.462 -1.9367  1.8503 -0.4850
 8208TIP3   OH246114   4.372   4.985  13.881  0.6271  0.3427  0.4843
 8208TIP3    H146115   4.456   5.020  13.911  1.1703 -1.5458  1.2985
 8208TIP3    H246116   4.359   4.905  13.932  0.1264 -1.4375 -2.2450
 8209TIP3   OH246117   0.881   5.825  13.697  0.2702 -0.3875  0.0401
 8209TIP3    H146118   0.924   5.739  13.696  0.7486 -0.2233  1.8153
 8209TIP3    H246119   0.950   5.887  13.674  0.6348 -0.2715  1.3411
 8210TIP3   OH246120   7.139   1.489  15.383  0.4899  0.1052  0.0154
 8210TIP3    H146121   7.046   1.501  15.364  0.0994 -1.5243  0.6964
 8210TIP3    H246122   7.140   1.443  15.466  1.8358 -1.4199 -0.7879
 8211TIP3   OH246123   2.262   5.410  12.498  0.1988  0.1342 -0.5893
 8211TIP3    H146124   2.321   5.348  12.541  0.3983  1.1178  0.6113
 8211TIP3    H246125   2.305   5.428  12.414 -0.0762 -1.6282 -1.1499
 8212TIP3   OH246126   5.718   1.913  10.932  0.5489  0.0435  0.1397
 8212TIP3    H146127   5.638   1.861  10.937 -0.6938  1.7607 -0.6020
 8212TIP3    H246128   5.742   1.929  11.023 -1.6644  1.8676  0.4985
 8213TIP3   OH246129   1.885   1.951  11.907 -0.1114  1.0789  0.4147
 8213TIP3    H146130   1.864   1.858  11.903  1.7771  0.5891  0.6923
 8213TIP3    H246131   1.854   1.979  11.993  0.3836  0.3852  0.8343
 8214TIP3   OH246132   6.562   0.352  13.712  0.0481 -0.7456 -0.6047
 8214TIP3    H146133   6.619   0.416  13.754 -0.3215 -0.6892 -0.1808
 8214TIP3    H246134   6.551   0.385  13.623 -1.9427  1.0296  0.2084
 8215TIP3   OH246135   1.077   4.338  14.427 -0.4662  0.1183  0.0376
 8215TIP3    H146136   1.099   4.331  14.334  1.1068 -0.8687  0.4313
 8215TIP3    H246137   1.057   4.248  14.453 -1.6352  0.4971  0.5159
 8216TIP3   OH246138   6.202   1.689  15.270 -0.5502  0.3218 -0.0741
 8216TIP3    H146139   6.268   1.623  15.292 -0.5186  0.2953 -0.2394
 8216TIP3    H246140   6.250   1.754  15.218 -0.9529 -0.4296 -1.4352
 8217TIP3   OH246141   1.995   3.389  11.697 -0.2930 -0.1859 -0.3916
 8217TIP3    H146142   2.001   3.395  11.792  0.7924 -0.1770 -0.4451
 8217TIP3    H246143   1.917   3.439  11.674 -1.8202 -1.9885  0.6468
 8218TIP3   OH246144   3.329   0.339   1.404 -0.3546 -0.1262 -0.1681
 8218TIP3    H146145   3.398   0.333   1.338 -0.4281 -0.3357 -0.2252
 8218TIP3    H246146   3.248   0.329   1.354 -0.4392  0.3994 -0.1409
 8219TIP3   OH246147   4.500   5.411  13.455 -0.1319 -0.6879 -0.5661
 8219TIP3    H146148   4.494   5.363  13.537 -0.7166 -1.7128 -1.1766
 8219TIP3    H246149   4.423   5.383  13.405  0.5802 -0.6594 -1.7399
 8220TIP3   OH246150   0.597   0.718  10.499 -0.1388 -0.2078 -0.0050
 8220TIP3    H146151   0.617   0.765  10.580 -1.3691 -1.0429  0.8088
 8220TIP3    H246152   0.633   0.630  10.513  1.0357  0.0739 -1.0215
 8221TIP3   OH246153   1.511   5.588  12.605 -0.2797  0.2365 -0.1535
 8221TIP3    H146154   1.576   5.589  12.536  0.1724 -0.3965  0.2557
 8221TIP3    H246155   1.462   5.507  12.592 -1.2003  0.8559 -0.6477
 8222TIP3   OH246156   0.149   6.554  11.771 -0.2140 -0.2395 -0.4039
 8222TIP3    H146157   0.164   6.591  11.858 -1.7491 -0.9027  0.1957
 8222TIP3    H246158   0.224   6.496  11.756 -0.2305 -0.6009  0.7739
 8223TIP3   OH246159   0.789   6.679   1.874  0.1697 -0.5945 -0.0522
 8223TIP3    H146160   0.779   6.584   1.874 -0.2667 -0.5504  0.1244
 8223TIP3    H246161   0.841   6.697   1.952 -1.5065 -0.5237  1.1050
 8224TIP3   OH246162   5.787   6.950   2.924  0.3137  0.1493  0.1013
 8224TIP3    H146163   5.732   6.878   2.891 -1.2841  1.8714 -1.2513
 8224TIP3    H246164   5.791   7.011   2.851  1.3500  1.5884  1.3157
 8225TIP3   OH246165   0.090   4.286  10.343 -0.0246  0.2360 -0.4161
 8225TIP3    H146166   0.094   4.267  10.437 -0.6437 -1.0677 -0.6296
 8225TIP3    H246167   0.166   4.240  10.306 -0.3793 -0.1322 -0.6870
 8226TIP3   OH246168   0.874   0.784  12.009 -0.8043 -0.5268 -0.3032
 8226TIP3    H146169   0.944   0.721  11.992 -1.6385 -1.3518 -0.8016
 8226TIP3    H246170   0.912   0.869  11.985  1.8342 -0.0802  4.3150
 8227TIP3   OH246171   3.925   6.114  10.199 -0.4355 -0.5205 -0.9951
 8227TIP3    H146172   3.895   6.129  10.289  0.4314 -0.9396 -0.6193
 8227TIP3    H246173   3.852   6.142  10.144 -1.0616 -0.4545 -0.1524
 8228TIP3   OH246174   0.740   6.829   0.741  0.1203 -0.0877 -0.1691
 8228TIP3    H146175   0.722   6.751   0.793 -1.2918  0.5232  0.3032
 8228TIP3    H246176   0.798   6.798   0.671  0.3328 -1.3577  0.5406
 8229TIP3   OH246177   6.859   3.487  10.363  0.2136  0.0228  0.4728
 8229TIP3    H146178   6.821   3.417  10.416 -1.7695  2.4424  2.5286
 8229TIP3    H246179   6.788   3.552  10.355  1.1251  0.7906 -3.4211
 8230TIP3   OH246180   2.858   0.893  13.429 -0.3709 -0.0300 -0.5193
 8230TIP3    H146181   2.874   0.805  13.394  0.8549  0.4482 -1.2307
 8230TIP3    H246182   2.764   0.906  13.421 -0.4349 -0.9110 -1.2991
 8231TIP3   OH246183   0.725   4.704   0.624  0.1156  0.0241 -0.1782
 8231TIP3    H146184   0.657   4.675   0.686  0.2183  1.5419  0.6835
 8231TIP3    H246185   0.704   4.658   0.543 -0.9518 -0.8159  0.5413
 8232TIP3   OH246186   4.386   4.705  11.853 -0.1405 -0.0491 -0.1148
 8232TIP3    H146187   4.345   4.624  11.822  0.5530  0.0448 -1.3428
 8232TIP3    H246188   4.371   4.705  11.948 -0.2415 -1.5714 -0.1097
 8233TIP3   OH246189   6.411   0.589   1.773 -0.1008  0.0470  0.1000
 8233TIP3    H146190   6.441   0.656   1.835  1.1075  1.7375 -2.1522
 8233TIP3    H246191   6.465   0.513   1.792  1.7020  1.2070 -0.1538
 8234TIP3   OH246192   1.396   4.471  12.950  0.2905 -0.0307  0.4730
 8234TIP3    H146193   1.396   4.375  12.959 -1.0141 -0.2343 -1.3301
 8234TIP3    H246194   1.489   4.493  12.936  0.5259 -1.0992  0.2486
 8235TIP3   OH246195   6.549   0.357   3.269 -0.3923 -0.4544 -0.4760
 8235TIP3    H146196   6.604   0.279   3.273 -0.3412 -0.4724 -1.4317
 8235TIP3    H246197   6.529   0.377   3.361 -0.2795 -1.4919 -0.2219
 8236TIP3   OH246198   1.965   5.266  12.966 -0.4304  0.2540  0.4571
 8236TIP3    H146199   1.907   5.293  12.896  0.4599  0.5265 -0.1906
 8236TIP3    H246200   1.963   5.170  12.963  1.2957  0.1987 -1.4481
 8237TIP3   OH246201   2.559   4.563  13.893  0.0037  0.2206 -0.0934
 8237TIP3    H146202   2.474   4.607  13.895  0.0143  0.1939  1.2377
 8237TIP3    H246203   2.544   4.486  13.838 -0.7914  0.3006 -0.0008
 8238TIP3   OH246204   0.493   3.602  11.459 -0.3629  0.8195 -0.4165
 8238TIP3    H146205   0.403   3.624  11.433 -0.0313  1.6960 -0.8394
 8238TIP3    H246206   0.535   3.576  11.378 -0.1270  0.7697 -0.2775
 8239TIP3   OH246207   5.643   5.192   0.562 -0.0363  0.2222 -0.3417
 8239TIP3    H146208   5.738   5.182   0.549 -0.2458  0.7540 -2.7166
 8239TIP3    H246209   5.635   5.242   0.643  1.6565 -0.8095  0.5266
 8240TIP3   OH246210   1.981   0.098  10.047 -0.0151  0.1972 -0.8629
 8240TIP3    H146211   1.915   0.067   9.986  0.0558 -0.2645 -0.7069
 8240TIP3    H246212   2.023   0.171  10.001 -1.2215  1.0793 -0.6064
 8241TIP3   OH246213   6.232   1.864  11.981 -0.1994  0.3908 -0.4657
 8241TIP3    H146214   6.174   1.940  11.980 -0.1624  0.5460  1.9690
 8241TIP3    H246215   6.180   1.794  11.943 -0.7003  1.3192 -1.5572
 8242TIP3   OH246216   0.481   1.409   4.011 -0.1603 -0.2794 -0.4936
 8242TIP3    H146217   0.573   1.408   3.984 -0.0306 -0.6764 -0.0558
 8242TIP3    H246218   0.481   1.363   4.095 -0.6473  0.3962 -0.1172
 8243TIP3   OH246219   2.489   6.693   1.269  0.0604 -0.3988  0.0421
 8243TIP3    H146220   2.559   6.662   1.212 -1.8504 -3.0095 -1.0511
 8243TIP3    H246221   2.417   6.713   1.210 -0.8490  0.1175  1.2922
 8244TIP3   OH246222   1.096   1.654   0.777 -0.1460  0.1508 -0.1417
 8244TIP3    H146223   1.018   1.609   0.746  0.3794  0.4293 -1.9638
 8244TIP3    H246224   1.166   1.590   0.769  0.5409  1.0954 -2.4271
 8245TIP3   OH246225   3.589   4.493   3.938  0.3943  0.6267 -0.0494
 8245TIP3    H146226   3.639   4.521   3.861 -0.5846  0.4522 -0.7668
 8245TIP3    H246227   3.497   4.496   3.910 -0.0393  1.1347  1.2901
 8246TIP3   OH246228   4.809   6.682  12.302 -0.3029  0.3606  0.1708
 8246TIP3    H146229   4.728   6.643  12.271  0.8301 -0.3439 -2.1393
 8246TIP3    H246230   4.832   6.746  12.235  1.7586 -0.5137 -0.0459
 8247TIP3   OH246231   5.855   1.321   1.352  0.7714  0.3716 -0.2403
 8247TIP3    H146232   5.892   1.239   1.318 -0.1790 -0.0805 -0.2309
 8247TIP3    H246233   5.899   1.334   1.435  0.8942 -0.1719 -0.2118
 8248TIP3   OH246234   3.424   6.758  13.591  0.0911 -0.5245  0.7362
 8248TIP3    H146235   3.440   6.675  13.636  0.0289 -1.1304 -0.3343
 8248TIP3    H246236   3.424   6.735  13.498 -3.0237  0.0770  0.4845
 8249TIP3   OH246237   0.567   1.346   5.248 -0.5221 -0.4780 -0.4337
 8249TIP3    H146238   0.658   1.373   5.234 -0.5849  0.5023  0.8899
 8249TIP3    H246239   0.573   1.253   5.267  0.3029 -0.2797  0.3643
 8250TIP3   OH246240   3.503   0.198  14.976 -0.3199 -0.0513  0.0329
 8250TIP3    H146241   3.581   0.209  14.922 -0.6228 -2.7226 -1.0883
 8250TIP3    H246242   3.535   0.206  15.066  0.9807  0.3038 -0.4431
 8251TIP3   OH246243   2.724   1.162  12.768  0.2621  0.5079 -0.3020
 8251TIP3    H146244   2.767   1.171  12.854  1.4008  1.0040 -0.8996
 8251TIP3    H246245   2.643   1.212  12.776 -0.3700 -0.6352  0.9325
 8252TIP3   OH246246   5.878   5.629   5.794 -0.2354 -0.1967 -0.3242
 8252TIP3    H146247   5.961   5.607   5.835  0.3879 -0.3623 -1.6295
 8252TIP3    H246248   5.814   5.572   5.836 -0.0917  1.3160  2.1350
 8253TIP3   OH246249   6.262   2.260  13.936 -0.3353  0.3780 -0.4372
 8253TIP3    H146250   6.300   2.328  13.881  1.0200  0.8360  0.9878
 8253TIP3    H246251   6.201   2.306  13.993  1.0855  0.5789  0.9969
 8254TIP3   OH246252   7.049   2.871   9.712 -0.0837 -0.3553  0.1630
 8254TIP3    H146253   7.057   2.808   9.640 -1.3313 -0.7620  0.3569
 8254TIP3    H246254   6.955   2.885   9.721  0.0832  0.1086  1.3699
 8255TIP3   OH246255   5.221   6.550  12.796  0.3383  0.0100 -0.2206
 8255TIP3    H146256   5.177   6.468  12.815 -0.1489  0.3676  0.2333
 8255TIP3    H246257   5.262   6.575  12.879 -0.5743  0.8467 -0.0011
 8256TIP3   OH246258   3.952   5.770  11.845  0.0133  0.3373 -0.2194
 8256TIP3    H146259   3.997   5.840  11.893 -0.7210  1.1749 -0.7153
 8256TIP3    H246260   4.013   5.744  11.777  0.1141  0.8299 -0.3219
 8257TIP3   OH246261   3.992   6.473  13.765  0.0264 -0.0571 -0.6222
 8257TIP3    H146262   3.944   6.400  13.726  0.1272 -0.5249  0.1044
 8257TIP3    H246263   4.081   6.463  13.732  0.2188 -0.7206  0.0676
 8258TIP3   OH246264   2.163   4.516  12.615  0.5863 -0.1022  0.5076
 8258TIP3    H146265   2.214   4.458  12.559 -1.1641 -2.4516  1.1993
 8258TIP3    H246266   2.192   4.496  12.704 -0.5873 -0.5600  0.8102
 8259TIP3   OH246267   6.600   0.289   0.097  0.1470  0.0509 -0.4299
 8259TIP3    H146268   6.557   0.204   0.090 -0.2274  0.2601 -0.6744
 8259TIP3    H246269   6.654   0.282   0.176 -0.0008 -0.3600 -0.3635
 8260TIP3   OH246270   4.159   2.036  13.050 -0.9022  0.2262 -0.0546
 8260TIP3    H146271   4.188   2.110  13.104  0.4385 -0.1892 -0.1859
 8260TIP3    H246272   4.182   1.958  13.100  0.4572 -0.1710 -1.2293
 8261TIP3   OH246273   6.217   4.013   1.554 -0.4468  0.5945  0.0772
 8261TIP3    H146274   6.306   4.006   1.589 -1.1681  0.2419  1.9468
 8261TIP3    H246275   6.223   4.082   1.487  1.1800  0.7022  0.2920
 8262TIP3   OH246276   3.147   6.731  13.301  0.3058 -0.4892  0.0380
 8262TIP3    H146277   3.169   6.801  13.362 -0.7991 -0.1518  0.0580
 8262TIP3    H246278   3.052   6.730  13.298  0.3281 -0.1823 -2.0290
 8263TIP3   OH246279   6.169   1.393  13.316  0.5111 -0.5097  0.0810
 8263TIP3    H146280   6.170   1.474  13.266 -1.3955 -0.6782 -0.3179
 8263TIP3    H246281   6.178   1.421  13.407 -2.7320  0.4961  0.2214
 8264TIP3   OH246282   0.014   1.778   4.718 -0.1554 -0.3818  0.2955
 8264TIP3    H146283  -0.059   1.826   4.680  1.1622  1.3722 -0.1949
 8264TIP3    H246284   0.070   1.845   4.756  2.4854 -1.3059 -1.6274
 8265TIP3   OH246285   3.484   0.078   4.629 -0.2877 -0.4345  0.1286
 8265TIP3    H146286   3.465   0.171   4.618 -1.1828 -0.6431 -0.1603
 8265TIP3    H246287   3.543   0.056   4.557 -0.5310 -0.2199 -0.1351
 8266TIP3   OH246288   2.238   1.143  12.504 -0.4876  0.5263 -0.0594
 8266TIP3    H146289   2.319   1.195  12.493 -1.1993  1.8840  0.8582
 8266TIP3    H246290   2.259   1.081  12.573 -0.1658  0.7489  0.0491
 8267TIP3   OH246291   1.681   6.760   0.387 -0.1943 -0.0910 -0.1623
 8267TIP3    H146292   1.596   6.761   0.431  0.3963 -1.2911  1.0840
 8267TIP3    H246293   1.705   6.667   0.384  1.9521  0.3303  1.3434
 8268TIP3   OH246294   0.228   0.952  12.902  0.8221 -0.2171 -0.4361
 8268TIP3    H146295   0.255   0.906  12.823  2.5414  0.7405 -0.4630
 8268TIP3    H246296   0.232   1.045  12.878 -1.0892  0.0313  0.0514
 8269TIP3   OH246297   3.217   2.421  12.964 -0.1246  0.2643 -0.4008
 8269TIP3    H146298   3.246   2.333  12.989 -1.2103 -0.8066 -2.6800
 8269TIP3    H246299   3.294   2.476  12.978  0.4605 -0.9247  1.4624
 8270TIP3   OH246300   3.761   4.568   0.505 -0.0030 -0.2175 -0.1216
 8270TIP3    H146301   3.856   4.563   0.499  0.1120  1.2691  0.1285
 8270TIP3    H246302   3.744   4.613   0.587 -0.8097  1.8127 -1.3065
 8271TIP3   OH246303   1.819   2.044  14.991  0.4368 -0.2981  0.7070
 8271TIP3    H146304   1.862   1.998  14.919  0.8589  0.7591  0.2719
 8271TIP3    H246305   1.843   2.136  14.980  0.4427 -0.0963  2.1478
 8272TIP3   OH246306   3.633   4.416  12.038  0.0174 -0.1420  0.0946
 8272TIP3    H146307   3.539   4.400  12.045  0.1751 -1.0319  0.4046
 8272TIP3    H246308   3.649   4.491  12.096 -0.1806 -1.4260  1.9092
 8273TIP3   OH246309   5.624   5.380  10.399 -0.1351  0.6673  0.3778
 8273TIP3    H146310   5.638   5.474  10.409  0.8719  0.5093  0.5449
 8273TIP3    H246311   5.619   5.366  10.304  0.5384  0.7864  0.3201
 8274TIP3   OH246312   4.140   4.737  14.203  0.3314  1.1713  0.2679
 8274TIP3    H146313   4.163   4.650  14.237  1.6810  1.5695  0.4122
 8274TIP3    H246314   4.173   4.798  14.269  0.3683  1.8386 -0.3629
 8275TIP3   OH246315   1.323   1.460   2.192  0.4934 -0.2793 -0.5686
 8275TIP3    H146316   1.258   1.477   2.124  1.5884 -2.0536 -2.1458
 8275TIP3    H246317   1.284   1.389   2.244 -0.7925  1.7351  1.4038
 8276TIP3   OH246318   1.939   6.194   1.819  0.5987 -0.3105  0.0856
 8276TIP3    H146319   2.012   6.212   1.878  0.3926  0.1102  0.2163
 8276TIP3    H246320   1.875   6.147   1.873 -0.0731  1.0561  0.5145
 8277TIP3   OH246321   2.126   4.447   0.596 -0.3590  0.0122  0.4268
 8277TIP3    H146322   2.051   4.506   0.598 -0.3429  0.0193  1.2652
 8277TIP3    H246323   2.178   4.475   0.521 -0.8519  0.4289  0.2381
 8278TIP3   OH246324   1.450   3.339   0.553  0.6820  0.3059  0.3626
 8278TIP3    H146325   1.377   3.368   0.609 -1.3983  1.0726 -2.5201
 8278TIP3    H246326   1.439   3.244   0.547  0.2326  0.3554  0.3630
 8279TIP3   OH246327   2.424   6.649   4.466  0.8541  0.1126  0.2762
 8279TIP3    H146328   2.381   6.703   4.532 -0.8652  0.4698 -1.0771
 8279TIP3    H246329   2.428   6.562   4.506 -2.3026 -0.2472  0.0533
 8280TIP3   OH246330   0.274   2.191   1.500 -0.1534 -0.4127 -0.2041
 8280TIP3    H146331   0.343   2.249   1.468 -0.9828 -0.7616 -2.8409
 8280TIP3    H246332   0.321   2.122   1.547  1.0078  0.9592  0.7587
 8281TIP3   OH246333   7.062   4.269  14.774 -0.1335 -0.0990  0.1386
 8281TIP3    H146334   7.063   4.174  14.783  3.2874 -0.0802  1.3068
 8281TIP3    H246335   7.139   4.289  14.720  0.5478  2.0645  1.7778
 8282TIP3   OH246336   4.349   6.436   2.688  0.4699 -0.2620 -0.0220
 8282TIP3    H146337   4.280   6.492   2.722 -0.0067 -1.1400  0.4951
 8282TIP3    H246338   4.376   6.382   2.763  0.7339 -0.9033 -0.5672
 8283TIP3   OH246339   5.830   3.777  13.982 -0.6647 -0.0698  0.0886
 8283TIP3    H146340   5.877   3.698  13.956 -1.1285  0.3485 -2.2119
 8283TIP3    H246341   5.839   3.780  14.078 -0.7110 -2.9231  0.2545
 8284TIP3   OH246342   0.562   3.216  12.974 -0.4904  0.1783 -0.4149
 8284TIP3    H146343   0.576   3.184  13.063  0.7948  2.1658  0.1390
 8284TIP3    H246344   0.587   3.142  12.918  1.1441 -0.2457  0.8194
 8285TIP3   OH246345   5.734   2.909  10.640 -0.5236  0.0952  0.8755
 8285TIP3    H146346   5.734   2.999  10.608  0.0076  0.3273  1.4923
 8285TIP3    H246347   5.657   2.903  10.695 -0.7157  0.0858  0.6075
 8286TIP3   OH246348   1.240   4.271  14.758  0.1765 -0.4271 -0.1556
 8286TIP3    H146349   1.311   4.211  14.778  0.4035 -0.6116 -1.3971
 8286TIP3    H246350   1.219   4.254  14.666 -0.6913  0.4303 -0.1427
 8287TIP3   OH246351   6.376   3.138  11.090 -0.2565 -0.1598  0.6759
 8287TIP3    H146352   6.329   3.062  11.124 -1.1610 -0.2620 -0.7321
 8287TIP3    H246353   6.400   3.114  11.001  1.9192  0.1565  1.1229
 8288TIP3   OH246354   5.344   6.835  11.707 -0.6909 -0.0919 -0.7071
 8288TIP3    H146355   5.260   6.879  11.697 -0.1704  0.9798 -0.5777
 8288TIP3    H246356   5.334   6.779  11.784 -0.9539  0.8467 -0.0448
 8289TIP3   OH246357   4.882   2.568  11.920 -0.3249 -0.2056 -0.3520
 8289TIP3    H146358   4.789   2.546  11.921 -0.3945 -0.1005  2.5090
 8289TIP3    H246359   4.907   2.574  12.012  2.7556 -1.0752 -1.0081
 8290TIP3   OH246360   2.119   4.567  11.012  0.2526  0.2053 -0.3975
 8290TIP3    H146361   2.173   4.492  11.039  3.8872  3.1414  1.4178
 8290TIP3    H246362   2.172   4.613  10.948 -1.6276  1.5587 -1.0758
 8291TIP3   OH246363   1.706   3.861  13.473  0.0066  0.0206  0.2107
 8291TIP3    H146364   1.746   3.943  13.445 -0.7260 -0.0900 -1.2234
 8291TIP3    H246365   1.759   3.833  13.548  1.2091  1.0119 -0.2393
 8292TIP3   OH246366   1.338   5.584  12.175 -0.2950 -0.2830 -0.1724
 8292TIP3    H146367   1.386   5.513  12.218 -2.1441 -1.6938 -0.3047
 8292TIP3    H246368   1.247   5.572  12.202 -1.1115  0.3994 -2.3396
 8293TIP3   OH246369   5.969   5.698   0.975  0.4533  0.0108 -0.6434
 8293TIP3    H146370   6.035   5.735   1.034  0.7155 -1.7338  0.2401
 8293TIP3    H246371   5.889   5.693   1.027  0.5212 -0.9621 -0.6020
 8294TIP3   OH246372   6.052   3.926  11.660  0.3478 -0.3254 -0.3209
 8294TIP3    H146373   6.141   3.959  11.675  0.1139 -0.1070  0.6163
 8294TIP3    H246374   6.029   3.881  11.741 -0.4144 -0.3488 -0.5457
 8295TIP3   OH246375   6.040   4.779   1.745 -0.3876 -0.5157  0.4348
 8295TIP3    H146376   5.947   4.775   1.722 -0.0044  1.1020 -1.6785
 8295TIP3    H246377   6.086   4.757   1.664  1.0397  2.5902  0.2560
 8296TIP3   OH246378   6.449   6.089  13.049  0.1470  0.1311  0.1734
 8296TIP3    H146379   6.362   6.110  13.014  0.2408  0.0244 -0.1279
 8296TIP3    H246380   6.447   5.995  13.062 -0.3091  0.3138  1.6207
 8297TIP3   OH246381   3.336   0.718  13.255  1.2471 -0.2243 -0.1311
 8297TIP3    H146382   3.352   0.683  13.167 -1.9276 -2.5768  0.0231
 8297TIP3    H246383   3.316   0.810  13.241  2.3933 -0.1699 -1.6429
 8298TIP3   OH246384   2.171   0.593   1.981  0.5695  0.1729  0.3440
 8298TIP3    H146385   2.212   0.659   2.037  0.6192 -0.6478  1.2950
 8298TIP3    H246386   2.114   0.544   2.040 -2.1347  1.4827 -0.9542
 8299TIP3   OH246387   5.683   4.621  12.825  0.0179 -0.0041 -1.0401
 8299TIP3    H146388   5.602   4.649  12.782 -1.7193 -1.4787  1.0184
 8299TIP3    H246389   5.668   4.639  12.918  2.2877  0.0940 -0.6297
 8300TIP3   OH246390   2.693   1.069   0.703  0.2731 -0.0505 -0.0313
 8300TIP3    H146391   2.712   0.976   0.691  1.2140 -0.1142  1.7248
 8300TIP3    H246392   2.656   1.096   0.619  0.7364 -1.8131 -0.8572
 8301TIP3   OH246393   5.122   4.441  12.077 -0.4293  0.0855 -0.7121
 8301TIP3    H146394   5.045   4.388  12.056 -1.3260  1.4027 -0.8430
 8301TIP3    H246395   5.103   4.477  12.163  0.1243  0.3026 -0.6770
 8302TIP3   OH246396   6.131   3.900  11.935  0.3451  0.0467  0.3568
 8302TIP3    H146397   6.159   3.810  11.915 -1.4969 -0.3064 -0.8123
 8302TIP3    H246398   6.047   3.890  11.980  0.1013  1.1973  0.1909
 8303TIP3   OH246399   3.145   3.862  14.019 -0.3249  0.2970 -0.1673
 8303TIP3    H146400   3.097   3.799  14.072 -0.7893  0.7872 -0.0058
 8303TIP3    H246401   3.148   3.942  14.072 -0.0981  0.5397 -0.5412
 8304TIP3   OH246402   0.577   6.895   1.165  0.0275 -0.3493 -0.0347
 8304TIP3    H146403   0.515   6.822   1.159 -0.2662 -0.2169  1.0700
 8304TIP3    H246404   0.542   6.961   1.106 -1.7487  0.3000  1.6007
 8305TIP3   OH246405   0.461   3.977   3.005  0.2596 -0.0619 -0.1243
 8305TIP3    H146406   0.388   3.975   2.944  1.3506 -0.7292 -1.4667
 8305TIP3    H246407   0.468   4.069   3.031 -0.5641  0.1377 -0.5637
 8306TIP3   OH246408   3.376   7.048   5.645 -0.5120  0.2446 -0.0469
 8306TIP3    H146409   3.403   7.123   5.698 -1.2348  1.4547 -1.3283
 8306TIP3    H246410   3.392   6.972   5.702 -0.5899  1.4145  1.6188
 8307TIP3   OH246411   3.739   6.863   0.719 -0.1602 -0.2833  0.1547
 8307TIP3    H146412   3.708   6.942   0.764  1.4886  0.6962 -0.3382
 8307TIP3    H246413   3.813   6.833   0.772  1.3027  0.4246 -1.4084
 8308TIP3   OH246414   3.582   1.746  13.890 -0.5390  0.1196 -0.2998
 8308TIP3    H146415   3.526   1.782  13.822 -2.2174 -0.4586  0.7221
 8308TIP3    H246416   3.642   1.817  13.912 -1.7399  1.2281 -0.5012
 8309TIP3   OH246417   1.506   3.431  12.527 -0.0192  0.2273  0.2705
 8309TIP3    H146418   1.471   3.466  12.444 -1.6400  0.7220  1.1269
 8309TIP3    H246419   1.472   3.342  12.532  1.9764 -0.6628 -0.6480
 8310TIP3   OH246420   2.809   2.242  12.363  0.5050 -0.0535  0.6585
 8310TIP3    H146421   2.807   2.223  12.269  0.0238  0.1126  0.6289
 8310TIP3    H246422   2.780   2.333  12.369  0.6574 -0.0250  0.9580
 8311TIP3   OH246423   2.328   4.564   0.423 -0.9400  0.0305 -0.1273
 8311TIP3    H146424   2.377   4.618   0.486 -0.6068 -1.1235  0.6299
 8311TIP3    H246425   2.392   4.539   0.357 -0.6720 -0.8163  0.4343
 8312TIP3   OH246426   3.535   2.805  15.215 -0.8004  0.4516 -0.0509
 8312TIP3    H146427   3.618   2.776  15.177 -0.4619 -0.2669  1.1813
 8312TIP3    H246428   3.548   2.899  15.232  0.4884 -0.0144  1.8536
 8313TIP3   OH246429   1.286   1.712   4.484  0.0166  0.4357  0.0215
 8313TIP3    H146430   1.256   1.625   4.456  0.5636  0.4495 -0.6301
 8313TIP3    H246431   1.215   1.745   4.540  0.6900 -1.2481  1.9875
 8314TIP3   OH246432   2.396   5.576   3.298 -0.0641  0.2369  0.1466
 8314TIP3    H146433   2.476   5.580   3.245  0.6653 -2.2981  0.9226
 8314TIP3    H246434   2.396   5.658   3.347  1.7618  0.5635 -0.3184
 8315TIP3   OH246435   6.552   3.839  11.235 -0.6165 -0.0161  0.3532
 8315TIP3    H146436   6.461   3.822  11.214 -1.1129  0.2532  2.1239
 8315TIP3    H246437   6.600   3.768  11.194 -1.2744  1.2239 -2.8553
 8316TIP3   OH246438   1.899   1.022  13.976  0.2389 -0.3424  0.2175
 8316TIP3    H146439   1.896   0.947  14.035 -0.9035 -0.5421 -0.0753
 8316TIP3    H246440   1.827   1.078  14.005  0.1051 -0.1059 -0.5391
 8317TIP3   OH246441   0.339   2.297  14.236 -0.0125 -0.2841 -0.0043
 8317TIP3    H146442   0.249   2.328  14.223 -0.3833 -1.6316 -0.8988
 8317TIP3    H246443   0.392   2.376  14.237 -1.3733  0.7042  2.2997
 8318TIP3   OH246444   4.453   1.380  13.079 -0.0092  0.0545  0.2745
 8318TIP3    H146445   4.443   1.407  12.988  1.0599 -1.4747 -0.3383
 8318TIP3    H246446   4.369   1.403  13.120 -0.1778  1.5954 -0.8404
 8319TIP3   OH246447   1.383   6.453   1.705  0.3938  0.0237 -0.0011
 8319TIP3    H146448   1.470   6.421   1.683  0.0711 -0.9338  0.0907
 8319TIP3    H246449   1.327   6.376   1.703 -0.5119  0.6668 -0.3259
 8320TIP3   OH246450   4.724   5.946  14.255 -0.0887  0.0500 -0.2433
 8320TIP3    H146451   4.798   5.953  14.195 -0.7959 -0.9431 -1.2798
 8320TIP3    H246452   4.720   6.032  14.298  1.4427  0.2343 -0.3960
 8321TIP3   OH246453   6.420   7.084   1.709  0.0218 -0.0179  0.6192
 8321TIP3    H146454   6.504   7.061   1.749  1.2322  1.5695 -0.8585
 8321TIP3    H246455   6.390   7.003   1.668  1.9184 -0.1502 -0.6342
 8322TIP3   OH246456   5.885   1.029   0.585 -0.4866  0.1982  0.1392
 8322TIP3    H146457   5.980   1.031   0.596 -0.4535  1.6294 -0.2318
 8322TIP3    H246458   5.850   1.032   0.674 -0.1880  0.7649  0.2370
 8323TIP3   OH246459   1.076   2.724  10.703 -0.1611  0.1474  0.1223
 8323TIP3    H146460   1.068   2.689  10.615 -1.0129  1.8967 -0.5399
 8323TIP3    H246461   1.163   2.765  10.705 -0.7589  1.5042 -0.4742
 8324TIP3   OH246462   3.008   1.243  10.692 -0.3244 -0.4540 -0.2196
 8324TIP3    H146463   2.940   1.176  10.696 -0.3943 -0.5481 -2.1167
 8324TIP3    H246464   2.991   1.300  10.766 -2.6211 -0.3389 -0.7848
 8325TIP3   OH246465   1.973   4.102  14.187 -0.8004  0.0953  0.1444
 8325TIP3    H146466   1.908   4.172  14.198 -0.3966  0.5211 -0.1196
 8325TIP3    H246467   2.053   4.137  14.225 -0.1370  0.4795 -1.4941
 8326TIP3   OH246468   0.932   0.243   0.208 -0.1531 -0.4644 -0.2584
 8326TIP3    H146469   0.973   0.301   0.273  0.4955  0.1490 -1.2034
 8326TIP3    H246470   0.991   0.246   0.133 -0.4976 -1.7871 -0.5950
 8327TIP3   OH246471   3.121   6.711  10.086  0.1031  0.0439  0.0502
 8327TIP3    H146472   3.160   6.738  10.170  1.7315  0.8372 -0.9043
 8327TIP3    H246473   3.130   6.616  10.085  3.2376  0.2430 -0.6142
 8328TIP3   OH246474   5.215   4.223  14.028  0.5932  0.6874 -0.0497
 8328TIP3    H146475   5.180   4.295  14.080  0.0428  1.1818 -1.0634
 8328TIP3    H246476   5.254   4.266  13.951  0.5462 -0.0663 -0.5034
 8329TIP3   OH246477   6.821   6.314   2.209  0.2021  0.1547  0.6825
 8329TIP3    H146478   6.783   6.346   2.127  1.3516  1.3324  0.5692
 8329TIP3    H246479   6.747   6.305   2.268 -0.7795 -1.5051 -0.6828
 8330TIP3   OH246480   3.074   4.684  13.847  0.0335 -0.3950 -0.1908
 8330TIP3    H146481   3.124   4.611  13.811  0.4049  0.0955 -0.6938
 8330TIP3    H246482   2.990   4.646  13.874  0.1878 -0.9829 -0.5378
 8331TIP3   OH246483   1.923   4.338  13.213 -0.0825 -0.2300 -0.1636
 8331TIP3    H146484   1.871   4.261  13.235  0.7944 -0.8806 -0.3163
 8331TIP3    H246485   1.870   4.412  13.243 -0.2993 -0.9384  1.2893
 8332TIP3   OH246486   5.068   6.900  11.872 -1.1156 -0.1950  0.5406
 8332TIP3    H146487   5.135   6.914  11.938  0.2251  0.2293 -0.8657
 8332TIP3    H246488   5.067   6.980  11.820 -1.0821 -1.0645 -0.8606
 8333TIP3   OH246489   4.830   0.472  13.843 -0.1778  0.5638  0.3158
 8333TIP3    H146490   4.838   0.426  13.927 -0.5345  1.2977  0.7601
 8333TIP3    H246491   4.920   0.487  13.816 -0.0134  1.8564  1.4408
 8334TIP3   OH246492   2.436   4.271  12.307 -0.2300 -0.2585 -0.1827
 8334TIP3    H146493   2.441   4.347  12.249 -1.1445  0.2172  0.3391
 8334TIP3    H246494   2.396   4.305  12.388 -0.0474 -1.1534  0.2971
 8335TIP3   OH246495   0.431   0.896  13.716 -0.4349 -0.6895  0.0695
 8335TIP3    H146496   0.464   0.896  13.806  2.3224  0.4136 -0.8119
 8335TIP3    H246497   0.456   0.982  13.681 -0.3990 -1.4877 -2.0577
 8336TIP3   OH246498   3.611   5.645  10.307  0.4362  0.5730 -0.4411
 8336TIP3    H146499   3.610   5.670  10.214 -1.5068 -0.4467 -0.7476
 8336TIP3    H246500   3.529   5.680  10.342 -1.8030 -3.8605 -0.5857
 8337TIP3   OH246501   5.594   4.139  10.805  0.0982 -0.1065 -0.1656
 8337TIP3    H146502   5.606   4.123  10.898 -1.8655  0.0959  0.1570
 8337TIP3    H246503   5.671   4.100  10.764  1.0912 -0.0260  1.5399
 8338TIP3   OH246504   2.819   3.819   9.770  0.6090  0.3281 -0.3885
 8338TIP3    H146505   2.795   3.895   9.718  0.5230  0.0554 -0.7470
 8338TIP3    H246506   2.740   3.766   9.774  0.1258  1.1082  1.3717
 8339TIP3   OH246507   1.923   0.612   5.160  0.4225 -0.1283  0.0967
 8339TIP3    H146508   1.915   0.702   5.191 -0.0617  0.2298 -1.0317
 8339TIP3    H246509   1.833   0.578   5.161  0.4680 -0.2758 -0.4070
 8340TIP3   OH246510   0.900   2.831  13.460 -0.4588  0.3784 -0.4179
 8340TIP3    H146511   0.940   2.801  13.541  1.5978 -0.0761 -1.5257
 8340TIP3    H246512   0.876   2.923  13.477  1.6735  0.8716  0.1247
 8341TIP3   OH246513   0.879   0.734   5.590 -0.4195  0.0771  0.5134
 8341TIP3    H146514   0.945   0.793   5.627  0.4909 -0.9836  0.6011
 8341TIP3    H246515   0.868   0.666   5.656 -0.3127 -0.7098 -0.2713
 8342TIP3   OH246516   3.416   4.506  14.551 -0.3513 -0.0206  0.0492
 8342TIP3    H146517   3.511   4.513  14.559 -0.3050  2.5278 -1.7065
 8342TIP3    H246518   3.382   4.568  14.616 -0.7399  0.5280 -0.6699
 8343TIP3   OH246519   2.390   5.785   2.265 -0.5901 -0.7090  0.5434
 8343TIP3    H146520   2.455   5.772   2.334 -0.5338  1.5581  1.0008
 8343TIP3    H246521   2.308   5.753   2.304 -0.2914 -0.8360  1.0830
 8344TIP3   OH246522   7.093   3.790   1.568  0.5161 -0.0288  0.0570
 8344TIP3    H146523   7.117   3.703   1.601 -0.0575 -0.0310  0.4896
 8344TIP3    H246524   7.145   3.801   1.489 -1.7374 -2.1409 -1.9036
 8345TIP3   OH246525   3.039   4.759   1.905 -0.1914 -0.7676  0.2710
 8345TIP3    H146526   3.026   4.740   1.812 -1.0039 -1.8940  0.5883
 8345TIP3    H246527   2.986   4.694   1.950 -0.1964  0.0725  1.5284
 8346TIP3   OH246528   3.033   5.299  12.137 -0.9119 -0.4620  0.1984
 8346TIP3    H146529   3.125   5.276  12.150 -1.6484 -4.2369 -0.0406
 8346TIP3    H246530   2.991   5.275  12.220 -1.7108  1.4621  0.4004
 8347TIP3   OH246531   5.107   0.069  11.441 -0.2447 -0.5995 -0.0664
 8347TIP3    H146532   5.202   0.062  11.446 -0.1163  0.5869 -0.4628
 8347TIP3    H246533   5.086   0.039  11.352 -0.1854 -0.4017 -0.1481
 8348TIP3   OH246534   3.919   3.821  13.178  0.2453  0.2779 -0.7694
 8348TIP3    H146535   3.844   3.787  13.228  0.3348 -1.6955 -1.8881
 8348TIP3    H246536   3.984   3.751  13.182  1.0999  0.9854 -1.8434
 8349TIP3   OH246537   6.958   1.969   0.638  0.2191 -0.1713 -0.8162
 8349TIP3    H146538   7.012   1.895   0.667  0.9757  1.1306  1.3739
 8349TIP3    H246539   6.882   1.967   0.697  0.4818  1.0204 -0.3980
 8350TIP3   OH246540   4.246   1.618  12.971  0.2940  0.1277 -0.1894
 8350TIP3    H146541   4.249   1.620  12.875  1.2200 -0.7782 -0.1984
 8350TIP3    H246542   4.196   1.539  12.992 -1.6486  1.3621  0.1043
 8351TIP3   OH246543   6.993   7.156  11.637 -0.3370 -0.2429  0.4297
 8351TIP3    H146544   7.082   7.186  11.618 -0.6396  1.4553  1.4729
 8351TIP3    H246545   6.996   7.129  11.729 -0.9801  0.1587  0.5734
 8352TIP3   OH246546   5.826   5.789  15.231 -0.4522 -0.0111 -0.5934
 8352TIP3    H146547   5.908   5.746  15.210 -0.1535  0.2308  0.0454
 8352TIP3    H246548   5.828   5.872  15.182  0.5509  0.8712  0.8626
 8353TIP3   OH246549   2.842   1.272  11.150 -0.2100 -0.1583 -0.0512
 8353TIP3    H146550   2.863   1.343  11.210 -1.8122 -0.0933  0.4788
 8353TIP3    H246551   2.923   1.221  11.144 -0.1645 -0.5507  2.7099
 8354TIP3   OH246552   4.140   2.305  13.407 -0.2137 -0.1584 -0.7427
 8354TIP3    H146553   4.057   2.314  13.454 -0.4035 -2.2850 -0.5649
 8354TIP3    H246554   4.204   2.283  13.475 -0.2573 -2.1072 -1.2892
 8355TIP3   OH246555   1.515   3.826   2.746 -0.4112 -0.1730 -0.1794
 8355TIP3    H146556   1.595   3.777   2.728  0.1020  1.0055 -1.2966
 8355TIP3    H246557   1.510   3.830   2.842 -0.2390 -1.9803 -0.0660
 8356TIP3   OH246558   0.192   0.953  11.510 -0.1339  0.0460 -0.1434
 8356TIP3    H146559   0.109   0.999  11.506 -0.9433 -1.4353 -1.8130
 8356TIP3    H246560   0.211   0.930  11.419  0.5700 -2.2381  0.5057
 8357TIP3   OH246561   6.208   4.535  15.326  0.1537 -0.1368  0.4248
 8357TIP3    H146562   6.118   4.504  15.335  0.0620  0.2882  1.0033
 8357TIP3    H246563   6.219   4.547  15.231 -0.8626  1.1130  0.4273
 8358TIP3   OH246564   4.405   5.591  14.072 -0.2739 -0.5357  0.1574
 8358TIP3    H146565   4.316   5.625  14.066 -0.5156 -1.1434  0.2644
 8358TIP3    H246566   4.436   5.592  13.981 -0.9312 -1.7351 -0.1037
 8359TIP3   OH246567   5.310   3.150  12.151 -0.0628  0.5961 -0.5487
 8359TIP3    H146568   5.227   3.105  12.165  0.0753  0.8651  1.4538
 8359TIP3    H246569   5.376   3.081  12.155  0.0449  0.7514  1.2758
 8360TIP3   OH246570   7.093   3.963  14.791  0.1819  0.3376  0.1466
 8360TIP3    H146571   7.034   3.925  14.726  1.2772  0.0305 -0.6880
 8360TIP3    H246572   7.180   3.951  14.755  0.8205  0.2715  1.6200
 8361TIP3   OH246573   2.754   1.499  10.071 -0.7007 -0.1097  0.1608
 8361TIP3    H146574   2.731   1.586  10.037  0.3279  1.0983  2.3516
 8361TIP3    H246575   2.669   1.459  10.091 -1.1738  0.7637 -0.0167
 8362TIP3   OH246576   6.457   4.718  11.656 -0.4994  0.7155 -0.0428
 8362TIP3    H146577   6.546   4.712  11.690 -0.9680 -0.4620  1.0206
 8362TIP3    H246578   6.466   4.772  11.577  1.4981 -1.0859 -1.1661
 8363TIP3   OH246579   5.962   7.190   1.192 -0.1723 -0.7725  0.3556
 8363TIP3    H146580   5.877   7.232   1.207 -0.6822 -2.0355  1.2364
 8363TIP3    H246581   6.000   7.182   1.280  0.7401 -0.4777 -0.0031
 8364TIP3   OH246582   2.288   4.946  10.392 -0.6073 -0.2655 -0.5553
 8364TIP3    H146583   2.338   4.885  10.446 -2.0453 -1.9475 -1.0631
 8364TIP3    H246584   2.345   4.963  10.317  0.2051 -0.1854  0.0624
 8365TIP3   OH246585   7.188   2.825  12.359  0.2541 -0.1701  0.0712
 8365TIP3    H146586   7.122   2.774  12.407  0.1540 -1.1052 -1.0094
 8365TIP3    H246587   7.202   2.903  12.412  0.0010 -1.0709  1.5000
 8366TIP3   OH246588   1.515   4.593  13.466 -0.5019 -0.7865  0.1611
 8366TIP3    H146589   1.488   4.517  13.415 -1.5126 -0.1640 -0.2617
 8366TIP3    H246590   1.444   4.657  13.454  0.0442  0.0018  0.9809
 8367TIP3   OH246591   3.907   6.658   1.390  0.4458  0.0690 -0.5016
 8367TIP3    H146592   3.911   6.563   1.377  2.5806 -0.0332  0.5341
 8367TIP3    H246593   3.985   6.679   1.441 -0.1983  2.3450 -0.3385
 8368TIP3   OH246594   3.338   7.022  10.380 -0.0545  0.3275 -0.1887
 8368TIP3    H146595   3.273   7.073  10.429 -2.1054 -2.0753 -0.1943
 8368TIP3    H246596   3.348   7.068  10.297 -0.5964  1.5529  0.3998
 8369TIP3   OH246597   6.075   2.854   4.372 -0.1243  0.4585 -0.5369
 8369TIP3    H146598   5.982   2.878   4.371  0.0031  0.9750 -0.6317
 8369TIP3    H246599   6.119   2.930   4.411 -0.0473 -1.0521  2.6158
 8370TIP3   OH246600   1.827   6.924  10.375  0.0785 -0.5398  0.1433
 8370TIP3    H146601   1.917   6.932  10.344 -0.1005 -2.2088 -0.9203
 8370TIP3    H246602   1.775   6.915  10.295 -0.6622 -2.7202  0.8101
 8371TIP3   OH246603   1.917   5.638   1.315  0.2059  0.2256 -0.4141
 8371TIP3    H146604   1.956   5.655   1.401  0.2922  0.9657 -0.5990
 8371TIP3    H246605   1.832   5.681   1.318 -0.6916 -1.4898  0.0338
 8372TIP3   OH246606   5.467   6.369  14.292  0.6201 -0.1009 -0.5804
 8372TIP3    H146607   5.394   6.353  14.352  1.4373 -1.9979 -0.0188
 8372TIP3    H246608   5.543   6.377  14.349  1.2162 -0.6098 -1.2902
 8373TIP3   OH246609   0.669   6.364  14.510 -0.2375 -0.2466 -0.3505
 8373TIP3    H146610   0.668   6.436  14.573  0.7345 -0.9108  0.4673
 8373TIP3    H246611   0.678   6.407  14.425  0.9719  0.5950  0.1710
 8374TIP3   OH246612   6.431   0.916  14.993 -0.0472  0.3981  0.4349
 8374TIP3    H146613   6.435   0.988  14.930 -0.4889  0.1558  0.1190
 8374TIP3    H246614   6.522   0.896  15.014  0.1198  0.1830 -0.4768
 8375TIP3   OH246615   5.886   3.004  12.497  0.0978 -0.7210 -0.5581
 8375TIP3    H146616   5.853   3.088  12.529 -1.0376 -1.2027 -0.4321
 8375TIP3    H246617   5.934   2.967  12.572 -0.8761 -0.9523 -0.0312
 8376TIP3   OH246618   0.990   3.582  14.300  0.4224  0.1438  0.1365
 8376TIP3    H146619   1.060   3.533  14.341  0.4997 -0.4062 -0.6391
 8376TIP3    H246620   0.920   3.583  14.366 -0.8973 -3.8622 -0.9041
 8377TIP3   OH246621   2.515   3.344  12.821  0.1389 -0.3932 -0.0558
 8377TIP3    H146622   2.427   3.363  12.854  0.7333  1.6810  0.4866
 8377TIP3    H246623   2.500   3.296  12.739 -1.5056 -0.1260  0.0610
 8378TIP3   OH246624   6.423   1.600   1.231  0.6219  0.1917 -0.2108
 8378TIP3    H146625   6.497   1.660   1.218  0.9677 -0.0090  0.7591
 8378TIP3    H246626   6.418   1.588   1.326 -0.7123  0.2624 -0.2576
 8379TIP3   OH246627   2.189   4.906  13.220  0.3422  0.6599 -0.8665
 8379TIP3    H146628   2.155   4.876  13.304  0.7499 -1.0856 -1.2857
 8379TIP3    H246629   2.134   4.981  13.197 -1.5973 -0.5518 -0.3577
 8380TIP3   OH246630   6.923   3.051  11.866  0.0742  0.3378  0.2514
 8380TIP3    H146631   7.008   3.016  11.838 -0.7717 -1.3524 -0.3313
 8380TIP3    H246632   6.859   2.991  11.829 -1.4211  1.7585  0.4169
 8381TIP3   OH246633   4.324   1.387  12.580  0.4854  0.5652 -0.0586
 8381TIP3    H146634   4.374   1.325  12.526  1.0677 -0.7927  1.9546
 8381TIP3    H246635   4.240   1.395  12.535  0.6653 -1.1217 -0.7819
 8382TIP3   OH246636   6.493   4.015   0.164  0.4646 -0.1077  0.3779
 8382TIP3    H146637   6.448   4.051   0.088  1.7832  0.5645 -0.0940
 8382TIP3    H246638   6.535   4.090   0.206  0.9037 -0.6785  0.9857
 8383TIP3   OH246639   3.100   5.536  12.390 -0.0201  0.1257  0.2844
 8383TIP3    H146640   3.033   5.569  12.330  0.5313  0.1068 -0.3622
 8383TIP3    H246641   3.053   5.477  12.449 -0.6354  0.4130  0.0916
 8384TIP3   OH246642   4.572   3.678  15.421  0.4013 -0.6054 -0.0085
 8384TIP3    H146643   4.616   3.688  15.336  0.7043 -0.8488  0.1153
 8384TIP3    H246644   4.493   3.628  15.401 -0.5284  1.0016 -0.4469
 8385TIP3   OH246645   4.218   4.601   1.873 -0.2360  0.1484 -0.7563
 8385TIP3    H146646   4.171   4.545   1.811  1.9364 -0.0229 -2.3565
 8385TIP3    H246647   4.309   4.572   1.867  0.3539  1.4464  1.1110
 8386TIP3   OH246648   2.604   1.886  15.370 -0.2006 -0.3075 -0.1762
 8386TIP3    H146649   2.510   1.905  15.366 -0.1358  0.1852  0.4501
 8386TIP3    H246650   2.613   1.800  15.329 -1.0966 -0.9398  0.8684
 8387TIP3   OH246651   0.565   0.494  14.670 -0.3109 -0.8268 -0.7491
 8387TIP3    H146652   0.621   0.441  14.613 -0.4864 -2.0364  0.1608
 8387TIP3    H246653   0.498   0.530  14.611 -0.4440 -1.9868 -1.3421
 8388TIP3   OH246654   1.424   6.148  13.134  0.0258 -0.2843 -0.6563
 8388TIP3    H146655   1.353   6.203  13.166  0.3292 -0.7489  0.9333
 8388TIP3    H246656   1.383   6.091  13.069 -0.5136  1.0682 -1.5274
 8389TIP3   OH246657   0.577   6.268  13.583 -0.3765  0.6741  0.2662
 8389TIP3    H146658   0.523   6.191  13.596  0.6777 -0.3869 -1.2288
 8389TIP3    H246659   0.652   6.255  13.641 -0.2545  0.6223  0.0985
 8390TIP3   OH246660   6.799   6.343  11.839  0.6485 -0.0302  0.4034
 8390TIP3    H146661   6.742   6.400  11.891  1.1125  0.5359  0.2975
 8390TIP3    H246662   6.887   6.372  11.860  0.8548 -0.0162 -0.4478
 8391TIP3   OH246663   5.198   3.347  15.164 -0.3758  0.3048 -0.8634
 8391TIP3    H146664   5.293   3.342  15.174 -0.0380 -1.1544 -3.7814
 8391TIP3    H246665   5.163   3.308  15.244  1.4732  0.2215 -0.0416
 8392TIP3   OH246666   3.752   3.886   3.228 -0.3483 -0.1100  0.2113
 8392TIP3    H146667   3.748   3.950   3.299  0.6202  0.8691 -0.5933
 8392TIP3    H246668   3.768   3.938   3.149  0.7301 -1.3560 -0.4338
 8393TIP3   OH246669   2.711   5.875  14.473  0.4533  0.0724  0.6093
 8393TIP3    H146670   2.759   5.898  14.394  0.9953 -0.5033  0.7654
 8393TIP3    H246671   2.778   5.864  14.540  0.1255 -0.7827  0.8175
 8394TIP3   OH246672   4.541   4.918  13.062 -0.0237 -0.6178 -0.3827
 8394TIP3    H146673   4.479   4.967  13.116  0.0675 -1.4045  0.4597
 8394TIP3    H246674   4.520   4.944  12.972 -1.7035 -0.9985 -0.1370
 8395TIP3   OH246675   0.368   1.751   4.071  0.0339 -0.3735  0.3440
 8395TIP3    H146676   0.335   1.821   4.128 -1.6296 -0.6835 -0.1688
 8395TIP3    H246677   0.304   1.745   4.001  0.7352 -1.6654 -0.2283
 8396TIP3   OH246678   6.763   3.725  12.126 -0.2615 -0.1300 -0.1246
 8396TIP3    H146679   6.704   3.743  12.053  1.4684  1.9746 -1.1038
 8396TIP3    H246680   6.803   3.641  12.106 -0.0453  0.2786 -1.4560
 8397TIP3   OH246681   6.708   2.383   0.312  0.5315  0.9285  0.3226
 8397TIP3    H146682   6.646   2.451   0.287 -0.6379  0.2124  1.1550
 8397TIP3    H246683   6.762   2.423   0.381  0.7792  1.4406 -0.1601
 8398TIP3   OH246684   5.819   0.442  10.968 -0.7882 -0.2528 -0.1997
 8398TIP3    H146685   5.767   0.440  11.048 -2.0251  1.4165 -0.9323
 8398TIP3    H246686   5.805   0.529  10.931  0.9214 -0.4656 -1.4952
 8399TIP3   OH246687   1.851   5.015  11.661 -0.1680  0.1683 -0.4797
 8399TIP3    H146688   1.820   4.988  11.748  1.0742  1.4083  0.3985
 8399TIP3    H246689   1.857   4.934  11.611 -0.4787 -0.6392  0.7480
 8400TIP3   OH246690   4.236   5.565  10.234  0.2403 -0.0218 -0.1894
 8400TIP3    H146691   4.225   5.588  10.141 -3.5371  0.1994  0.1630
 8400TIP3    H246692   4.201   5.639  10.282  0.5712 -0.8397  1.4016
 8401TIP3   OH246693   5.375   5.067  14.475  0.8259  0.2344 -0.4665
 8401TIP3    H146694   5.290   5.076  14.517  0.5674 -0.4637 -0.8319
 8401TIP3    H246695   5.379   5.140  14.413  0.8659  0.7826  0.1588
 8402TIP3   OH246696   5.773   3.399  12.850  0.1660  0.1713  0.0959
 8402TIP3    H146697   5.702   3.371  12.792  0.2270  0.0147  0.0969
 8402TIP3    H246698   5.729   3.447  12.920  0.0380 -0.1533  0.2381
 8403TIP3   OH246699   4.153   4.481   5.523  0.1577 -0.4890 -0.0041
 8403TIP3    H146700   4.236   4.435   5.528  0.6329  0.4123  0.9025
 8403TIP3    H246701   4.087   4.416   5.547  0.8974 -0.5276  2.1524
 8404TIP3   OH246702   0.646   7.045  10.677 -0.4908 -0.0970  0.3537
 8404TIP3    H146703   0.626   7.084  10.592  0.4797 -1.2834 -0.4539
 8404TIP3    H246704   0.635   6.951  10.663 -1.3218 -0.2444  1.8344
 8405TIP3   OH246705   4.540   5.833  11.284  0.0436  0.1105 -0.1899
 8405TIP3    H146706   4.606   5.764  11.282  0.5559  0.5724  0.2847
 8405TIP3    H246707   4.591   5.914  11.283 -0.5633  0.5005 -1.4128
 8406TIP3   OH246708   5.604   3.628  12.584 -0.1432  0.7974  0.0381
 8406TIP3    H146709   5.647   3.665  12.507 -0.7643  1.6505  0.0918
 8406TIP3    H246710   5.511   3.628  12.562 -0.1024 -2.6354 -0.7846
 8407TIP3   OH246711   2.092   4.818  13.455  0.2390  0.1948  0.1756
 8407TIP3    H146712   2.081   4.729  13.489 -1.3668 -0.1048 -0.9947
 8407TIP3    H246713   2.018   4.867  13.489 -1.5927 -0.1937 -2.9076
 8408TIP3   OH246714   4.790   2.733   1.527  0.0462 -0.2646 -0.3404
 8408TIP3    H146715   4.868   2.773   1.488 -0.0855 -0.5784 -0.9379
 8408TIP3    H246716   4.736   2.806   1.556  0.3816 -0.0399 -0.2793
 8409TIP3   OH246717   1.290   4.567  13.835 -0.3487  0.5804  0.1593
 8409TIP3    H146718   1.302   4.644  13.779  0.6203  0.9690  0.8661
 8409TIP3    H246719   1.232   4.597  13.905 -0.7627  0.3798 -0.0954
 8410TIP3   OH246720   0.896   6.031  11.073 -0.1254 -0.0827  0.0499
 8410TIP3    H146721   0.976   6.032  11.125  0.8809  0.9865 -1.4308
 8410TIP3    H246722   0.898   5.947  11.027  0.2321  0.0263 -0.1292
 8411TIP3   OH246723   2.249   0.297  13.814 -0.2009  0.0919 -0.3207
 8411TIP3    H146724   2.246   0.392  13.827  0.5834  0.2146 -0.9611
 8411TIP3    H246725   2.257   0.286  13.719  1.5048 -0.5403 -0.1357
 8412TIP3   OH246726   3.295   5.499  11.483  0.0137 -0.0716 -0.2728
 8412TIP3    H146727   3.282   5.421  11.429 -1.9264  0.2687 -0.3599
 8412TIP3    H246728   3.218   5.503  11.538  1.7352 -0.1555  2.3058
 8413TIP3   OH246729   0.155   5.279  14.111  0.1423  0.5633 -0.2441
 8413TIP3    H146730   0.194   5.294  14.197 -1.2028  2.3471  0.1056
 8413TIP3    H246731   0.063   5.300  14.123 -0.9676 -3.1249 -1.1367
 8414TIP3   OH246732   6.551   0.690   9.668 -0.0173 -0.0249  0.3980
 8414TIP3    H146733   6.548   0.650   9.581 -0.9938 -1.5024  1.0702
 8414TIP3    H246734   6.645   0.695   9.688  0.1932 -0.2671 -0.4657
 8415TIP3   OH246735   5.776   6.011  14.629 -0.1004  0.1031 -0.2825
 8415TIP3    H146736   5.789   5.928  14.675  0.0067  0.3384  0.1146
 8415TIP3    H246737   5.814   5.996  14.542  0.9745  0.0995  0.1677
 8416TIP3   OH246738   2.937   0.877   1.946  0.1500  0.3554  0.8678
 8416TIP3    H146739   3.012   0.843   1.995  0.0618 -1.2696 -0.0707
 8416TIP3    H246740   2.977   0.926   1.873  0.2717  0.9774  1.3378
 8417TIP3   OH246741   6.681   7.204  13.824 -0.5659  0.5327 -0.4771
 8417TIP3    H146742   6.666   7.159  13.907  0.1281  0.7332 -0.2399
 8417TIP3    H246743   6.726   7.285  13.848  0.3551  0.2149 -1.1183
 8418TIP3   OH246744   6.335   5.952  12.450 -0.8788 -0.0499  0.5868
 8418TIP3    H146745   6.367   5.892  12.518  2.1876 -1.1110 -1.5320
 8418TIP3    H246746   6.414   5.996  12.419 -2.4049  1.5779 -1.1867
 8419TIP3   OH246747   3.243   2.404  14.710  0.1309 -0.4255  0.1026
 8419TIP3    H146748   3.240   2.310  14.688 -0.9252 -0.4857  0.4724
 8419TIP3    H246749   3.151   2.430  14.719  0.4158  0.6229  0.1362
 8420TIP3   OH246750   4.386   3.484  10.329 -0.3985 -0.1272  0.1795
 8420TIP3    H146751   4.385   3.573  10.363 -0.4128 -0.4316  0.9924
 8420TIP3    H246752   4.360   3.493  10.237  0.9585  0.8562 -0.1353
 8421TIP3   OH246753   5.840   2.174  12.391 -0.2954  0.2634  0.1825
 8421TIP3    H146754   5.871   2.221  12.314  0.2559  1.8758  1.3229
 8421TIP3    H246755   5.917   2.170  12.448 -0.7653 -0.6238  0.7729
 8422TIP3   OH246756   5.391   7.003  13.605 -0.3599 -0.2421 -0.0782
 8422TIP3    H146757   5.296   7.001  13.597 -0.4920 -0.6615  1.2567
 8422TIP3    H246758   5.416   7.090  13.574 -0.8874 -0.9443 -2.7283
 8423TIP3   OH246759   6.697   4.377  11.074  0.1548  0.3392  0.1179
 8423TIP3    H146760   6.660   4.336  10.996 -2.1175 -0.2081  1.3840
 8423TIP3    H246761   6.635   4.446  11.096  1.5993  1.5466  0.5663
 8424TIP3   OH246762   2.789   5.313   4.659  0.3157  0.0934 -0.2840
 8424TIP3    H146763   2.841   5.393   4.652  1.0093 -0.3213  0.0072
 8424TIP3    H246764   2.845   5.253   4.709 -0.6705 -0.1700  0.5446
 8425TIP3   OH246765   4.049   6.109  10.977 -0.8818  0.1441  0.0064
 8425TIP3    H146766   4.113   6.094  10.908  0.7223  0.9021  1.2527
 8425TIP3    H246767   4.080   6.188  11.022 -2.7752  0.6052  0.6020
 8426TIP3   OH246768   3.589   5.933  11.599 -0.3899  0.4833  0.3913
 8426TIP3    H146769   3.674   5.977  11.588 -0.6733  0.7041 -1.1447
 8426TIP3    H246770   3.608   5.858  11.656  0.3595  1.8080  1.9731
 8427TIP3   OH246771   1.393   6.869   3.705  0.0450 -0.6612 -0.1601
 8427TIP3    H146772   1.488   6.868   3.706  0.2238  1.7528 -2.8460
 8427TIP3    H246773   1.369   6.813   3.631 -0.5262 -0.1355 -0.3814
 8428TIP3   OH246774   5.485   0.351   9.891  0.2719  0.2243  0.4158
 8428TIP3    H146775   5.530   0.275   9.854 -1.8351 -0.8976  0.0063
 8428TIP3    H246776   5.515   0.425   9.838  3.2232 -0.0188  1.5294
 8429TIP3   OH246777   2.293   4.193  15.257  0.1900 -0.3612 -0.2078
 8429TIP3    H146778   2.295   4.289  15.260  1.0796 -0.2944 -1.7049
 8429TIP3    H246779   2.386   4.167  15.256 -0.0325 -1.1866 -0.7737
 8430TIP3   OH246780   6.148   6.890   1.237  0.2583  0.1655  0.6277
 8430TIP3    H146781   6.114   6.937   1.313  1.0181 -0.0022  1.0773
 8430TIP3    H246782   6.082   6.824   1.218 -0.1126  0.4520  0.9125
 8431TIP3   OH246783   0.690   5.845   4.181 -0.2091  0.5432  0.0799
 8431TIP3    H146784   0.603   5.809   4.197 -0.2001  0.7152  0.5150
 8431TIP3    H246785   0.739   5.773   4.143  0.6962 -0.8549  3.5827
 8432TIP3   OH246786   5.146   6.101   1.043  0.4405 -0.0422 -0.1435
 8432TIP3    H146787   5.153   6.141   1.129 -1.0918  0.6683 -0.3316
 8432TIP3    H246788   5.052   6.092   1.027  0.7068 -1.2292 -1.2599
 8433TIP3   OH246789   6.946   5.960   2.980 -0.2969 -0.0705  0.2873
 8433TIP3    H146790   6.875   6.021   2.959  0.9357  1.5542  0.6683
 8433TIP3    H246791   6.935   5.940   3.072  0.2630  0.9366  0.5874
 8434TIP3   OH246792   0.570   2.568  15.269  0.3430 -0.0560  0.6531
 8434TIP3    H146793   0.600   2.515  15.195 -1.4825 -0.4135  0.1056
 8434TIP3    H246794   0.644   2.625  15.289  1.3003 -0.7549 -0.6870
 8435TIP3   OH246795   3.095   2.431  10.369  0.2023  0.2583  0.1887
 8435TIP3    H146796   3.015   2.479  10.351 -0.2667 -0.5002  0.2025
 8435TIP3    H246797   3.165   2.484  10.330 -0.4707  0.1396 -1.2153
 8436TIP3   OH246798   5.057   2.250  14.834 -0.0910  0.6647  0.3219
 8436TIP3    H146799   5.088   2.212  14.752 -0.9377  0.5209  0.0600
 8436TIP3    H246800   5.053   2.176  14.895  0.4849  0.7610  0.4767
 8437TIP3   OH246801   4.358   6.406  13.148  0.3968  0.3178  0.1882
 8437TIP3    H146802   4.451   6.395  13.168  0.3442  0.4169  0.4967
 8437TIP3    H246803   4.356   6.429  13.055  0.7317  1.0237  0.3462
 8438TIP3   OH246804   0.956   0.179  15.187 -0.2698  0.2717  0.0733
 8438TIP3    H146805   0.884   0.192  15.125 -1.2973 -0.8514  0.9788
 8438TIP3    H246806   1.034   0.174  15.131 -1.0421  0.2323 -1.0496
 8439TIP3   OH246807   2.944   4.935  14.807  0.0819 -0.2663 -0.1165
 8439TIP3    H146808   2.965   4.986  14.885  0.3577  2.0452 -1.5767
 8439TIP3    H246809   3.026   4.894  14.781  0.1604 -0.4244  0.3875
 8440TIP3   OH246810   4.994   2.377  10.073 -0.5809 -0.2185 -0.1454
 8440TIP3    H146811   4.989   2.357   9.979 -0.1892 -0.4785 -0.1151
 8440TIP3    H246812   4.910   2.417  10.094  0.7959  3.9513 -1.5312
 8441TIP3   OH246813   0.191   6.728  11.409 -0.1937  0.0553 -0.2591
 8441TIP3    H146814   0.274   6.734  11.363 -0.0989 -2.0853 -0.4487
 8441TIP3    H246815   0.215   6.721  11.501 -0.1686 -0.3305 -0.2940
 8442TIP3   OH246816   0.972   0.417   4.815 -0.2340  0.4910 -0.3827
 8442TIP3    H146817   0.995   0.509   4.808 -0.0904  0.3867 -1.3534
 8442TIP3    H246818   0.992   0.380   4.729 -0.0384 -0.5041  0.0744
 8443TIP3   OH246819   6.711   6.097  11.864 -0.4139  0.9191  0.6063
 8443TIP3    H146820   6.747   6.184  11.849 -0.2277  0.7681  0.1461
 8443TIP3    H246821   6.630   6.112  11.912  0.1885  1.2683  1.5338
 8444TIP3   OH246822   1.022   6.550  11.149  0.3123  0.4857  0.3391
 8444TIP3    H146823   0.985   6.562  11.236 -0.3487 -1.0049  0.2919
 8444TIP3    H246824   0.976   6.614  11.094 -1.8172 -0.9055  0.4039
 8445TIP3   OH246825   0.427   6.759   2.332  0.1008 -0.4630  0.1767
 8445TIP3    H146826   0.492   6.729   2.395 -0.1423 -1.2021  0.0932
 8445TIP3    H246827   0.427   6.854   2.340 -0.9441 -0.5994  2.3128
 8446TIP3   OH246828   2.423   1.849  12.793  0.2313  0.0786  0.1823
 8446TIP3    H146829   2.479   1.904  12.738 -0.7035  0.4605 -0.4230
 8446TIP3    H246830   2.344   1.834  12.739  0.8573 -2.7470 -0.1297
 8447TIP3   OH246831   6.026   4.170   0.833 -0.3579 -0.2304  0.4031
 8447TIP3    H146832   6.095   4.148   0.896 -0.9818 -0.3783  1.0477
 8447TIP3    H246833   6.073   4.195   0.753  0.4740  1.1604  1.3070
 8448TIP3   OH246834   4.471   1.776  10.768 -0.1419 -0.4737 -0.5725
 8448TIP3    H146835   4.472   1.702  10.829 -0.1256 -1.3004 -1.5388
 8448TIP3    H246836   4.531   1.750  10.699  2.3310  1.7926  0.5463
 8449TIP3   OH246837   5.804   4.566   4.875 -0.0646  0.0192 -0.4646
 8449TIP3    H146838   5.722   4.538   4.915  0.5000 -0.7554  0.1686
 8449TIP3    H246839   5.829   4.644   4.925 -1.6350  1.7644 -2.2309
 8450TIP3   OH246840   2.331   4.499   1.943  0.1644  0.0001 -0.2942
 8450TIP3    H146841   2.276   4.518   2.019  1.3463 -0.7551  0.7827
 8450TIP3    H246842   2.405   4.450   1.978  1.2338  0.4617 -1.7956
 8451TIP3   OH246843   0.841   3.690  12.241  0.6832  0.1352 -0.3744
 8451TIP3    H146844   0.862   3.597  12.246  1.6164  0.3185 -0.7222
 8451TIP3    H246845   0.873   3.727  12.323  2.3828  0.5260 -1.1708
 8452TIP3   OH246846   7.108   6.688  12.164  0.5789 -0.2600  0.4678
 8452TIP3    H146847   7.057   6.766  12.145 -0.4378 -1.0524 -0.1713
 8452TIP3    H246848   7.125   6.692  12.258  0.5144  0.7044  0.4449
 8453TIP3   OH246849   4.436   5.730  10.026 -0.0802  0.0018  0.0360
 8453TIP3    H146850   4.350   5.704   9.996 -0.6575  2.5603 -0.7551
 8453TIP3    H246851   4.481   5.762   9.948  1.9917 -2.1548  0.2425
 8454TIP3   OH246852   0.151   4.855  11.801 -0.4556 -0.1063  0.3021
 8454TIP3    H146853   0.213   4.833  11.870 -0.8482  0.0845  0.7163
 8454TIP3    H246854   0.198   4.834  11.720  0.7068  1.3677  0.5291
 8455TIP3   OH246855   6.650   5.799  11.077 -0.0990  0.0949  0.0700
 8455TIP3    H146856   6.688   5.809  10.989 -2.4010 -0.6566 -1.0855
 8455TIP3    H246857   6.598   5.878  11.089  0.4764  0.3507  0.9382
 8456TIP3   OH246858   3.277   0.533   9.801 -0.4290  0.2188  0.7023
 8456TIP3    H146859   3.264   0.447   9.761  0.4934 -0.2860  1.4384
 8456TIP3    H246860   3.210   0.589   9.761 -2.4517 -1.3492  1.7258
 8457TIP3   OH246861   5.833   5.162  10.338 -0.5190  0.2677 -0.1279
 8457TIP3    H146862   5.906   5.217  10.367  0.6285 -0.6079 -1.2354
 8457TIP3    H246863   5.756   5.201  10.379  0.6029  0.9768  1.4278
 8458TIP3   OH246864   1.521   1.550   0.199  0.4239  0.3703  0.3198
 8458TIP3    H146865   1.471   1.602   0.262 -0.5215  0.5949 -0.5933
 8458TIP3    H246866   1.511   1.596   0.116 -0.3188 -1.1658 -0.4899
 8459TIP3   OH246867   3.350   3.433  13.191  0.3993  0.1914  0.1527
 8459TIP3    H146868   3.435   3.419  13.232 -0.4422 -0.2896  1.8443
 8459TIP3    H246869   3.302   3.487  13.254 -1.4872 -1.8957  0.6476
 8460TIP3   OH246870   7.147   5.052  10.640 -0.2339 -0.0274  0.1137
 8460TIP3    H146871   7.144   5.041  10.544  1.5574  1.1081 -0.1212
 8460TIP3    H246872   7.067   5.009  10.671 -0.1019 -1.8226 -1.7509
 8461TIP3   OH246873   0.115   3.735  12.690  0.4601 -0.9076  0.0979
 8461TIP3    H146874   0.139   3.655  12.737  0.0163 -0.2667  1.4453
 8461TIP3    H246875   0.019   3.739  12.697  0.5591  0.2904  0.9863
 8462TIP3   OH246876   6.499   7.191   2.681 -0.2686  0.0462  0.6224
 8462TIP3    H146877   6.570   7.238   2.638  1.7554 -2.5844  0.7489
 8462TIP3    H246878   6.525   7.189   2.773  0.2344 -1.9237  0.5037
 8463TIP3   OH246879   0.151   4.426  10.964 -0.4778  0.8074 -0.1355
 8463TIP3    H146880   0.120   4.517  10.966  0.1564  1.0238 -0.0025
 8463TIP3    H246881   0.117   4.391  10.882  0.1166  1.4676 -0.6782
 8464TIP3   OH246882   2.557   2.001  12.599  0.1042  0.2453  0.6118
 8464TIP3    H146883   2.535   2.020  12.507  0.2904  1.5599  0.8147
 8464TIP3    H246884   2.630   2.060  12.619  1.2268 -1.2631  1.1156
 8465TIP3   OH246885   1.951   5.987   1.311  0.2376 -0.2582  0.0748
 8465TIP3    H146886   1.908   5.943   1.239  1.4395  0.7238 -1.3017
 8465TIP3    H246887   1.930   6.080   1.299 -2.5592 -0.2996  3.1014
 8466TIP3   OH246888   6.098   1.782  13.142 -0.0616  0.3657  0.0341
 8466TIP3    H146889   6.127   1.772  13.052  0.0539  4.6942 -0.6133
 8466TIP3    H246890   6.179   1.782  13.193 -0.0415 -0.8228  0.0367
 8467TIP3   OH246891   3.247   2.059  13.310  0.1935 -0.2090  0.0788
 8467TIP3    H146892   3.229   2.033  13.220  1.1331 -1.7364  0.2891
 8467TIP3    H246893   3.333   2.102  13.305  1.2392 -2.1542  0.4975
 8468TIP3   OH246894   4.368   1.427  14.264 -0.3592 -0.1055  0.1042
 8468TIP3    H146895   4.327   1.399  14.345 -2.5856 -0.7833 -1.1644
 8468TIP3    H246896   4.432   1.359  14.244  0.2558  0.1033  1.2888
 8469TIP3   OH246897   2.062   2.343  13.339  0.2838  0.6509  0.3248
 8469TIP3    H146898   2.107   2.395  13.406  0.6042 -0.1503  0.7330
 8469TIP3    H246899   1.986   2.397  13.314 -1.2761 -0.0674  3.1139
 8470TIP3   OH246900   6.975   3.869  10.105  0.0839  0.5558  0.0079
 8470TIP3    H146901   6.929   3.939  10.058  2.1655  1.0949 -1.3644
 8470TIP3    H246902   7.031   3.829  10.040 -1.3630 -2.8378  0.6125
 8471TIP3   OH246903   6.700   5.548   2.564  0.4858  0.2023  0.1534
 8471TIP3    H146904   6.782   5.587   2.533  1.2903 -1.3841  0.1590
 8471TIP3    H246905   6.659   5.616   2.616  2.0649  0.8699  0.5805
 8472TIP3   OH246906   1.120   5.224   0.591 -0.2267  0.4925 -0.2955
 8472TIP3    H146907   1.065   5.234   0.514  0.3221 -2.4889 -1.2291
 8472TIP3    H246908   1.062   5.183   0.656  0.1446 -0.0868 -0.3209
 8473TIP3   OH246909   5.248   1.003  10.277 -0.4626 -0.2650  0.2347
 8473TIP3    H146910   5.249   1.021  10.371 -0.0606  2.7481 -0.2457
 8473TIP3    H246911   5.294   0.920  10.268 -0.1693 -0.4379  2.6406
 8474TIP3   OH246912   0.781   3.069  11.906 -0.3410 -0.0508  0.2161
 8474TIP3    H146913   0.833   3.125  11.963  1.2475 -0.1105 -1.0841
 8474TIP3    H246914   0.721   3.023  11.965  0.9009  0.2328  1.7736
 8475TIP3   OH246915   6.361   5.534  14.182  1.1645 -0.0006 -0.4601
 8475TIP3    H146916   6.418   5.602  14.148  0.6051  0.0577 -1.3146
 8475TIP3    H246917   6.386   5.455  14.133  1.4580 -0.3059  0.1595
 8476TIP3   OH246918   3.878   0.625  14.149  0.0757  0.1720  0.3267
 8476TIP3    H146919   3.834   0.551  14.191 -0.0484 -0.0649 -0.2020
 8476TIP3    H246920   3.813   0.658  14.086 -0.1198  1.1583  1.0265
 8477TIP3   OH246921   0.059   2.364  10.063 -0.3045  0.1294  0.3230
 8477TIP3    H146922  -0.017   2.326  10.021  0.5127  0.9121 -2.0051
 8477TIP3    H246923   0.131   2.303  10.045  0.0964  0.5465  0.4618
 8478TIP3   OH246924   4.618   1.491  10.858  0.1968 -0.1644 -0.7520
 8478TIP3    H146925   4.691   1.470  10.800 -0.7737 -0.7704 -1.8183
 8478TIP3    H246926   4.583   1.406  10.884 -0.3971  0.1114 -0.6286
 8479TIP3   OH246927   3.803   5.970  13.538 -0.0490  0.0355  0.6085
 8479TIP3    H146928   3.712   5.963  13.510  0.2478  0.3881 -0.5206
 8479TIP3    H246929   3.854   5.963  13.457  0.8986  0.4548  1.1397
 8480TIP3   OH246930   3.835   2.210  11.791 -0.3940 -0.5178  0.5181
 8480TIP3    H146931   3.745   2.229  11.816 -1.6235 -1.8725 -2.4008
 8480TIP3    H246932   3.832   2.198  11.696  2.4772 -2.6040  0.5457
 8481TIP3   OH246933   2.990   3.627   1.084 -0.2271 -0.2449 -0.2111
 8481TIP3    H146934   2.924   3.687   1.119 -0.5598 -0.8120  0.1484
 8481TIP3    H246935   2.999   3.560   1.151 -1.2767 -1.6440 -1.4074
 8482TIP3   OH246936   1.642   3.332  11.479 -0.4853 -0.0071  0.0618
 8482TIP3    H146937   1.640   3.386  11.558 -0.1837  0.5336 -0.2896
 8482TIP3    H246938   1.707   3.264  11.497 -1.7522 -1.0290  0.9872
 8483TIP3   OH246939   6.711   6.044  12.753 -0.2093 -0.2910 -0.1837
 8483TIP3    H146940   6.625   6.002  12.750  0.5493 -1.9469  0.1235
 8483TIP3    H246941   6.759   5.996  12.820  1.3964 -0.2726 -1.2657
 8484TIP3   OH246942   1.469   5.751   9.545  0.2517  0.7900 -0.7871
 8484TIP3    H146943   1.387   5.800   9.540 -0.2722 -0.0664 -0.7323
 8484TIP3    H246944   1.451   5.680   9.607  1.2322  0.9590 -0.2746
 8485TIP3   OH246945   1.512   0.056   2.725  0.0990  0.7942  0.2037
 8485TIP3    H146946   1.495   0.016   2.810 -0.2036 -2.1362 -1.1091
 8485TIP3    H246947   1.441   0.120   2.713 -1.0434 -0.2213  1.3048
 8486TIP3   OH246948   2.690   0.602  10.975 -0.0093  0.0345 -0.3402
 8486TIP3    H146949   2.675   0.508  10.971 -1.4274  0.2725 -0.9812
 8486TIP3    H246950   2.785   0.610  10.981  0.2952 -1.3917 -2.2173
 8487TIP3   OH246951   3.555   5.982  15.070  0.3699 -0.0885 -0.1374
 8487TIP3    H146952   3.477   5.995  15.017 -0.8826 -1.1685  1.3481
 8487TIP3    H246953   3.590   6.070  15.083 -1.3546  0.5785  0.2556
 8488TIP3   OH246954   1.340   0.153   4.661 -0.1967 -0.2942  0.2444
 8488TIP3    H146955   1.425   0.187   4.633 -0.1776  0.2524  0.9457
 8488TIP3    H246956   1.357   0.062   4.684  0.8587  0.5094  3.0885
 8489TIP3   OH246957   1.175   2.195  13.463  0.4204 -0.4209 -0.0357
 8489TIP3    H146958   1.195   2.239  13.546  1.0702  1.4573 -1.1214
 8489TIP3    H246959   1.170   2.103  13.485 -1.2848  0.1843  2.4294
 8490TIP3   OH246960   3.366   2.665   2.821 -0.2011  0.4365  0.0814
 8490TIP3    H146961   3.294   2.610   2.851 -0.0248  1.1950  2.0224
 8490TIP3    H246962   3.325   2.731   2.765 -0.9719  0.5903  0.8050
 8491TIP3   OH246963   5.359   1.079  12.233 -0.2301  0.3035  0.3251
 8491TIP3    H146964   5.397   1.154  12.278  0.8085  0.9766 -1.5335
 8491TIP3    H246965   5.300   1.117  12.168 -1.4472 -0.6175  0.8382
 8492TIP3   OH246966   6.821   4.672   0.284  0.1343  0.0626  0.0218
 8492TIP3    H146967   6.781   4.617   0.350 -1.9658  0.7765 -0.5685
 8492TIP3    H246968   6.912   4.643   0.280  0.7345  0.7667  4.0393
 8493TIP3   OH246969   4.436   5.245   2.461 -0.1007 -1.2827  0.5984
 8493TIP3    H146970   4.438   5.237   2.557 -1.3712 -1.7235  0.6086
 8493TIP3    H246971   4.412   5.157   2.430  3.1837 -1.9978 -0.3406
 8494TIP3   OH246972   4.821   5.468  11.596 -0.4197  0.7213 -0.4641
 8494TIP3    H146973   4.826   5.563  11.589  0.8008  0.9442  2.2627
 8494TIP3    H246974   4.837   5.437  11.506 -1.6416  3.0472 -1.5686
 8495TIP3   OH246975   0.861   5.114   1.475  0.4271  0.3313 -0.2195
 8495TIP3    H146976   0.929   5.048   1.459  0.8857 -0.0430  2.7878
 8495TIP3    H246977   0.905   5.198   1.459  1.2047  0.0499  0.4021
 8496TIP3   OH246978   1.829   6.113   0.462  0.1400  0.1843 -0.2473
 8496TIP3    H146979   1.833   6.047   0.531  0.0792  0.8739  0.4370
 8496TIP3    H246980   1.897   6.176   0.486 -1.1075  1.4070  0.2299
 8497TIP3   OH246981   1.045   5.241  12.193  0.2531  0.8559 -0.2498
 8497TIP3    H146982   1.120   5.261  12.248  1.5275 -1.4860 -0.9520
 8497TIP3    H246983   0.976   5.216  12.254  0.7504  0.9640  0.3658
 8498TIP3   OH246984   0.821   2.877   2.446 -0.5290  0.1601 -0.4240
 8498TIP3    H146985   0.868   2.955   2.476 -0.5497  0.0632 -0.1367
 8498TIP3    H246986   0.731   2.890   2.476 -0.4776 -0.0893 -0.1624
 8499TIP3   OH246987   4.214   5.405   1.545  0.1768 -0.2002 -0.0086
 8499TIP3    H146988   4.193   5.344   1.615  2.3602 -2.3762 -1.1064
 8499TIP3    H246989   4.155   5.479   1.559 -1.5389 -1.8704  2.2929
 8500TIP3   OH246990   2.909   5.422  11.949  0.0770  0.1991  0.3293
 8500TIP3    H146991   2.968   5.495  11.931  0.9024 -0.5677 -0.1640
 8500TIP3    H246992   2.953   5.372  12.017  0.0868 -0.4735 -0.1657
 8501TIP3   OH246993   3.709   6.890  11.848  0.1512 -0.1024 -0.5306
 8501TIP3    H146994   3.644   6.955  11.874  0.9790  0.1778  0.9239
 8501TIP3    H246995   3.660   6.807  11.844 -0.0882 -0.1190  1.7320
 8502TIP3   OH246996   6.957   1.209  10.288 -0.0919  0.2748  0.3929
 8502TIP3    H146997   6.875   1.167  10.316  0.3424 -1.4345 -0.7446
 8502TIP3    H246998   7.024   1.167  10.342  0.2921 -0.1517 -0.4040
 8503TIP3   OH246999   4.812   1.054  11.624  0.4962  0.0824 -0.7838
 8503TIP3    H147000   4.784   0.989  11.559  1.8476  0.4532 -1.7684
 8503TIP3    H247001   4.731   1.080  11.668 -0.2037 -1.5349 -1.0408
 8504TIP3   OH247002   0.511   5.557  15.122 -0.1086 -0.0003  0.0990
 8504TIP3    H147003   0.453   5.624  15.085 -2.2031 -1.4500  0.6035
 8504TIP3    H247004   0.459   5.477  15.121  1.6418 -1.2225  1.3232
 8505TIP3   OH247005   2.399   6.390   3.062 -0.5305 -1.0810  0.2460
 8505TIP3    H147006   2.406   6.485   3.056 -0.3289 -1.0331  1.0715
 8505TIP3    H247007   2.305   6.372   3.067 -0.5373 -0.8494  1.0444
 8506TIP3   OH247008   6.539   3.100   1.771 -0.1312 -0.8587  0.0970
 8506TIP3    H147009   6.545   3.118   1.677  4.7330  0.0525  0.3207
 8506TIP3    H247010   6.571   3.180   1.812 -0.2828 -1.9361  2.4543
 8507TIP3   OH247011   6.016   4.505   0.279 -0.6661  0.0769  0.8356
 8507TIP3    H147012   6.104   4.538   0.296 -0.9445  1.2155  0.2008
 8507TIP3    H247013   5.991   4.460   0.360  1.3652 -2.3500  0.2386
 8508TIP3   OH247014   5.209   3.725   1.011 -0.6620 -0.4187  0.1714
 8508TIP3    H147015   5.228   3.777   0.933 -0.2179  2.0443  1.8020
 8508TIP3    H247016   5.294   3.690   1.038 -0.5286  0.1046  0.4455
 8509TIP3   OH247017   2.059   2.762  13.543  0.1099  0.5762 -0.2084
 8509TIP3    H147018   1.977   2.718  13.568 -0.5008  0.8581 -1.6417
 8509TIP3    H247019   2.051   2.776  13.449  1.7488  0.7691 -0.3386
 8510TIP3   OH247020   0.121   0.404   1.992 -0.0414 -0.0262 -0.1762
 8510TIP3    H147021   0.118   0.463   2.068  0.1474  0.2245 -0.3655
 8510TIP3    H247022   0.030   0.375   1.982 -0.2277  0.6241 -0.3917
 8511TIP3   OH247023   3.974   5.120  14.125  0.0188 -0.2107 -0.5585
 8511TIP3    H147024   3.996   5.200  14.173  0.8557  0.7574 -2.4531
 8511TIP3    H247025   3.955   5.056  14.193  1.1621  1.0798  1.0625
 8512TIP3   OH247026   2.699   6.566   3.124  0.0767  0.2178 -0.1184
 8512TIP3    H147027   2.704   6.524   3.210  0.1256  0.9786  0.2602
 8512TIP3    H247028   2.723   6.497   3.062 -1.0352 -0.6600  0.3727
 8513TIP3   OH247029   5.228   6.780   2.212  0.3416 -0.2021  0.1457
 8513TIP3    H147030   5.201   6.750   2.125  0.0325 -0.1083  0.2082
 8513TIP3    H247031   5.164   6.740   2.272  1.0481 -0.9537  0.4175
 8514TIP3   OH247032   2.207   4.799  12.947 -0.7094  0.6609  0.5649
 8514TIP3    H147033   2.288   4.748  12.957 -0.8143  0.3124 -0.3213
 8514TIP3    H247034   2.199   4.846  13.030 -0.3241 -0.3506  1.1999
 8515TIP3   OH247035   2.068   6.831  13.988 -0.3142 -0.3775 -0.5225
 8515TIP3    H147036   2.101   6.741  13.995 -1.3154 -0.8523 -1.6932
 8515TIP3    H247037   2.146   6.885  14.003  0.1904 -1.4048  0.8163
 8516TIP3   OH247038   4.669   7.084   2.488  0.2166  0.8240 -0.1913
 8516TIP3    H147039   4.642   7.107   2.399 -1.4442  0.6597  0.2338
 8516TIP3    H247040   4.674   6.988   2.488  0.1803  0.8219 -0.0975
 8517TIP3   OH247041   4.094   4.566   4.245 -0.0883  0.1371  0.0535
 8517TIP3    H147042   4.116   4.557   4.337 -0.4921  0.4022  0.1807
 8517TIP3    H247043   4.052   4.483   4.222 -0.3432  0.2214  0.2119
 8518TIP3   OH247044   5.617   6.750   0.588  0.4001 -0.0172 -0.5700
 8518TIP3    H147045   5.528   6.765   0.619 -0.1027  0.1499 -1.9875
 8518TIP3    H247046   5.623   6.801   0.507  1.9813  0.4358 -0.1969
 8519TIP3   OH247047   6.098   3.034   4.082  0.3280  0.2229  0.3796
 8519TIP3    H147048   6.132   3.093   4.015 -0.0150  0.6746  0.5982
 8519TIP3    H247049   6.146   2.953   4.069  2.0431  1.0659  1.1459
 8520TIP3   OH247050   2.528   4.949   0.421  0.0532 -0.2091  0.0376
 8520TIP3    H147051   2.538   4.885   0.351 -0.2165 -0.1294 -0.0772
 8520TIP3    H247052   2.495   5.028   0.377 -0.9449 -0.4228  0.3638
 8521TIP3   OH247053   1.368   5.451   4.654  0.0116  0.1619  0.3791
 8521TIP3    H147054   1.287   5.425   4.699 -0.1665 -1.1678 -0.6242
 8521TIP3    H247055   1.341   5.525   4.599 -0.6297 -0.4851 -0.2067
 8522TIP3   OH247056   1.525   3.499  13.466  0.2716  0.6545 -0.1637
 8522TIP3    H147057   1.546   3.550  13.544  0.5642 -0.6111  0.6164
 8522TIP3    H247058   1.430   3.503  13.459  0.2119  0.4908  0.4807
 8523TIP3   OH247059   4.022   6.283   0.602 -0.0551 -0.3478  0.1233
 8523TIP3    H147060   3.948   6.228   0.625 -0.4603  0.2529  0.2682
 8523TIP3    H247061   3.999   6.370   0.634  0.0140  0.1919 -1.2414
 8524TIP3   OH247062   0.907   0.120  12.354 -0.1202  0.2441 -0.4015
 8524TIP3    H147063   0.943   0.043  12.310  0.1914  1.7354 -2.9584
 8524TIP3    H247064   0.815   0.121  12.329  0.1727  1.3881 -1.5474
 8525TIP3   OH247065   5.233   4.229  10.589 -0.2339 -0.4833  0.2904
 8525TIP3    H147066   5.176   4.287  10.641 -1.6776 -0.6742 -1.0077
 8525TIP3    H247067   5.263   4.284  10.517 -3.6659 -1.8024 -2.4356
 8526TIP3   OH247068   0.017   5.754  11.754  0.0018  0.1027  0.4685
 8526TIP3    H147069  -0.042   5.795  11.816 -0.9784  0.2983 -0.5719
 8526TIP3    H247070   0.039   5.670  11.795 -1.4352 -0.2182  0.6248
 8527TIP3   OH247071   7.030   7.128  13.329 -0.9438 -0.2191  0.0474
 8527TIP3    H147072   7.074   7.050  13.362  0.7485 -0.2234 -2.0041
 8527TIP3    H247073   6.937   7.112  13.345 -0.4244 -1.2380  2.4379
 8528TIP3   OH247074   4.394   2.562  14.303 -0.0259  0.6645 -0.5079
 8528TIP3    H147075   4.489   2.572  14.293  0.5903 -1.9121  1.5406
 8528TIP3    H247076   4.372   2.613  14.381  0.1501 -0.5643  0.3743
 8529TIP3   OH247077   3.371   4.839   2.118  0.1748  0.6372  0.1380
 8529TIP3    H147078   3.327   4.923   2.111  0.0463  0.5088 -0.8021
 8529TIP3    H247079   3.302   4.775   2.101  0.2190  0.3271  1.0876
 8530TIP3   OH247080   2.281   5.428  10.551 -0.1257  0.0583 -0.0772
 8530TIP3    H147081   2.269   5.370  10.475  1.6484 -0.5729  0.0712
 8530TIP3    H247082   2.364   5.400  10.589  0.3477  2.1465  0.5351
 8531TIP3   OH247083   6.088   0.862  11.832 -0.0580 -0.9040 -0.5805
 8531TIP3    H147084   6.117   0.771  11.828 -1.0184 -1.1967 -1.3819
 8531TIP3    H247085   5.992   0.857  11.831 -0.1329  0.1402 -1.6618
 8532TIP3   OH247086   0.581   2.866  10.348  0.1126 -0.1347  0.2657
 8532TIP3    H147087   0.634   2.790  10.370 -0.1671 -0.6706 -0.8525
 8532TIP3    H247088   0.617   2.898  10.265  0.1984  0.9315  0.6919
 8533TIP3   OH247089   3.388   4.235  11.346 -0.2958 -0.5205  0.1112
 8533TIP3    H147090   3.429   4.261  11.263 -1.2839 -0.7896 -0.4754
 8533TIP3    H247091   3.324   4.303  11.364 -0.6323 -0.8686  0.2447
 8534TIP3   OH247092   6.833   5.553  12.410  0.3400 -0.1027  0.4415
 8534TIP3    H147093   6.892   5.628  12.409  0.3994 -0.1494  0.0634
 8534TIP3    H247094   6.762   5.577  12.350  0.5532 -0.4914  0.0179
 8535TIP3   OH247095   6.781   0.083   1.895  0.1104 -0.0886 -0.5145
 8535TIP3    H147096   6.806   0.070   1.986  0.9702  0.7274 -0.6267
 8535TIP3    H247097   6.852   0.043   1.844 -1.1674 -2.0713 -0.8626
 8536TIP3   OH247098   5.834   2.886  13.090  0.3664  0.7121  0.3050
 8536TIP3    H147099   5.751   2.896  13.136  0.9125  1.7531  1.1018
 8536TIP3    H247100   5.814   2.904  12.999 -0.4178  0.2168  0.3728
 8537TIP3   OH247101   3.914   6.227   3.621  0.2837 -0.3622  0.5906
 8537TIP3    H147102   3.821   6.234   3.599  0.5175  0.7590 -0.1003
 8537TIP3    H247103   3.938   6.139   3.593 -0.1403 -0.0122 -0.9739
 8538TIP3   OH247104   3.674   2.354  11.038  0.0204 -0.2862 -0.9054
 8538TIP3    H147105   3.700   2.404  10.961 -0.3801  1.3339 -0.0300
 8538TIP3    H247106   3.740   2.375  11.104  1.5018 -3.2022 -1.3057
 8539TIP3   OH247107   1.993   5.146   0.602 -0.0550 -1.1389 -0.2194
 8539TIP3    H147108   2.033   5.091   0.669  0.4999  0.3662  0.7350
 8539TIP3    H247109   2.028   5.233   0.618 -1.0554 -0.4434 -1.5628
 8540TIP3   OH247110   3.705   1.683  13.467 -0.9807 -0.1854 -0.0523
 8540TIP3    H147111   3.706   1.595  13.430 -3.1352 -0.1590 -0.2860
 8540TIP3    H247112   3.772   1.681  13.535  0.5031 -1.3284 -1.4490
 8541TIP3   OH247113   2.770   2.674  13.307  0.1338  0.3909 -0.0417
 8541TIP3    H147114   2.820   2.595  13.285 -0.0589  0.5516 -1.0859
 8541TIP3    H247115   2.683   2.658  13.272 -0.0717  0.8374  0.2516
 8542TIP3   OH247116   6.762   6.853  14.790  0.5498  0.5243  0.0904
 8542TIP3    H147117   6.802   6.904  14.861  0.7145  0.8741 -0.2486
 8542TIP3    H247118   6.832   6.796  14.759  0.4352  0.2645  0.3059
 8543TIP3   OH247119   0.156   0.306  10.523  0.0822 -0.1580 -0.1628
 8543TIP3    H147120   0.179   0.282  10.433  0.3935 -0.1325 -0.0889
 8543TIP3    H247121   0.062   0.328  10.518 -0.0228 -0.6385 -0.3800
 8544TIP3   OH247122   1.400   4.672  12.124  0.2640  0.0588 -0.4726
 8544TIP3    H147123   1.383   4.648  12.215 -1.2932 -0.1506 -0.7881
 8544TIP3    H247124   1.415   4.589  12.079 -1.2560 -0.0701 -0.8143
 8545TIP3   OH247125   5.793   0.823  14.194  0.4291  0.1852 -0.2203
 8545TIP3    H147126   5.723   0.766  14.225  0.3557  0.2566 -0.2547
 8545TIP3    H247127   5.801   0.801  14.101  0.7387 -0.1236 -0.1236
 8546TIP3   OH247128   0.436   4.148   4.690  0.6598  0.0287 -0.2771
 8546TIP3    H147129   0.450   4.126   4.782  1.5396 -0.3319 -0.4871
 8546TIP3    H247130   0.501   4.215   4.671 -1.0573  1.8520 -0.0349
 8547TIP3   OH247131   3.297   6.020  12.889 -0.1478 -0.2617  0.2694
 8547TIP3    H147132   3.363   6.089  12.893 -0.1429 -0.3297  2.3901
 8547TIP3    H247133   3.249   6.028  12.971 -0.1658 -2.7720  0.5857
 8548TIP3   OH247134   4.812   2.032   1.400  0.5937 -0.0302  0.5894
 8548TIP3    H147135   4.747   2.101   1.388  0.6359  0.0366  0.7468
 8548TIP3    H247136   4.800   1.974   1.325 -0.7579 -0.9083  1.4421
 8549TIP3   OH247137   2.076   0.782   0.321 -0.2279 -0.5407 -0.3454
 8549TIP3    H147138   2.117   0.821   0.244 -1.6562 -0.2075 -0.9735
 8549TIP3    H247139   2.004   0.729   0.286 -0.4266 -1.0082  0.7094
 8550TIP3   OH247140   2.896   2.435   5.188  0.2352 -0.1789  0.1729
 8550TIP3    H147141   2.945   2.374   5.243  1.3547  0.1067 -0.4627
 8550TIP3    H247142   2.842   2.380   5.131  1.7311 -0.6474 -0.8593
 8551TIP3   OH247143   4.041   4.026  10.468  0.2679  0.5373 -0.0574
 8551TIP3    H147144   4.032   3.931  10.473  0.7728  0.5374  1.0134
 8551TIP3    H247145   4.085   4.050  10.549 -0.5851  1.7853  0.0465
 8552TIP3   OH247146   0.309   4.642   3.269 -0.0288  0.6272 -0.4489
 8552TIP3    H147147   0.389   4.695   3.265  0.3648  0.0707 -0.0264
 8552TIP3    H247148   0.268   4.655   3.184  0.6275  0.7446 -0.7541
 8553TIP3   OH247149   5.011   5.745  11.817 -0.1221  0.0013 -0.2556
 8553TIP3    H147150   5.072   5.745  11.743 -1.1506 -1.6927 -1.1583
 8553TIP3    H247151   5.045   5.812  11.876  1.9229 -0.0602 -1.2840
 8554TIP3   OH247152   5.651   5.163  14.362 -0.7299 -0.2951 -0.2440
 8554TIP3    H147153   5.680   5.253  14.378  0.1295 -0.3774 -1.2168
 8554TIP3    H247154   5.557   5.170  14.345 -0.3828  0.6675 -1.9760
 8555TIP3   OH247155   2.753   5.820   4.851  0.5404 -0.2354  0.4838
 8555TIP3    H147156   2.824   5.810   4.914  0.0359  0.3169  1.1567
 8555TIP3    H247157   2.704   5.738   4.857  0.6970 -0.3247  0.5537
 8556TIP3   OH247158   5.415   3.457  11.830 -0.7212 -0.2146 -0.2660
 8556TIP3    H147159   5.394   3.488  11.742  0.7348  2.5393  0.2439
 8556TIP3    H247160   5.375   3.520  11.889 -0.4518 -1.2026  1.0278
 8557TIP3   OH247161   4.489   5.812  14.942 -0.4846  0.4698  0.1390
 8557TIP3    H147162   4.400   5.798  14.975  0.5125 -2.8916  1.8269
 8557TIP3    H247163   4.538   5.735  14.970  2.8764  1.8895 -1.2440
 8558TIP3   OH247164   6.812   0.569  11.201  0.3751 -0.2152 -0.3643
 8558TIP3    H147165   6.845   0.634  11.263  0.6790 -0.6367 -0.0834
 8558TIP3    H247166   6.745   0.521  11.250 -1.2878  1.1584 -1.1659
 8559TIP3   OH247167   3.896   1.717  13.675  0.3801 -0.7343  0.1675
 8559TIP3    H147168   3.991   1.712  13.664  0.1775 -0.7595 -2.0045
 8559TIP3    H247169   3.881   1.797  13.725  1.4762 -0.0365 -0.5886
 8560TIP3   OH247170   6.890   4.410   2.386  0.0588  0.2251 -0.0070
 8560TIP3    H147171   6.883   4.449   2.473  1.9302 -0.7027  0.6118
 8560TIP3    H247172   6.820   4.451   2.336 -1.6926  0.0787  2.1729
 8561TIP3   OH247173   2.998   3.994  13.570 -0.0546 -0.1751 -0.1567
 8561TIP3    H147174   2.952   3.910  13.570 -0.1945 -0.1151  1.3695
 8561TIP3    H247175   3.091   3.971  13.567  0.0261 -0.5153  2.7131
 8562TIP3   OH247176   2.225   1.133   0.296 -0.4182  0.3233  0.1795
 8562TIP3    H147177   2.238   1.050   0.341  2.7330  0.6105  0.0796
 8562TIP3    H247178   2.210   1.196   0.365  1.3610  0.2665  0.6810
 8563TIP3   OH247179   4.662   2.920  14.853  0.3401  0.1255  0.5755
 8563TIP3    H147180   4.581   2.899  14.806 -0.1485  1.4407  0.7674
 8563TIP3    H247181   4.658   2.868  14.933 -1.1275  1.3320  1.3381
 8564TIP3   OH247182   0.519   1.032  12.161 -0.3710  0.0823 -0.4331
 8564TIP3    H147183   0.466   1.019  12.082 -0.3411  0.9026 -0.5938
 8564TIP3    H247184   0.492   1.118  12.195 -1.3869 -0.8372  1.2316
 8565TIP3   OH247185   5.961   3.576   2.101  0.5000  0.1797 -0.4058
 8565TIP3    H147186   5.979   3.647   2.039  0.2516  0.6561  0.0581
 8565TIP3    H247187   5.993   3.609   2.185  1.5070 -0.7437 -0.3940
 8566TIP3   OH247188   3.655   3.747  12.441 -0.5980 -0.4061 -0.3224
 8566TIP3    H147189   3.589   3.773  12.376 -1.3022 -1.3293 -0.0071
 8566TIP3    H247190   3.627   3.789  12.522 -0.3413 -0.1525 -0.3631
 8567TIP3   OH247191   7.206   5.208  14.704  0.0865  0.2469  0.2564
 8567TIP3    H147192   7.236   5.295  14.732  0.6757 -0.2739  1.3048
 8567TIP3    H247193   7.230   5.150  14.776 -1.2594 -0.6207  0.0359
 8568TIP3   OH247194   6.895   4.274   1.822 -0.0544  0.2821  0.1802
 8568TIP3    H147195   6.817   4.230   1.856  1.1311 -0.5778  1.9377
 8568TIP3    H247196   6.934   4.316   1.898  1.5130  0.1842 -0.5397
 8569TIP3   OH247197   5.315   4.652  12.170  0.2423 -0.2557 -0.0896
 8569TIP3    H147198   5.310   4.642  12.075 -0.4520  1.4188 -0.2630
 8569TIP3    H247199   5.358   4.573  12.200 -1.5768 -1.9035 -1.5713
 8570TIP3   OH247200   0.626   4.597  14.786 -0.5609  0.9769 -0.2513
 8570TIP3    H147201   0.689   4.573  14.718 -1.0523  1.1543 -0.7779
 8570TIP3    H247202   0.664   4.676  14.826 -0.5654  1.2313 -0.7358
 8571TIP3   OH247203   2.202   4.841  10.764 -0.3775  0.1582 -0.3280
 8571TIP3    H147204   2.229   4.897  10.691  1.3481  0.3724  0.4374
 8571TIP3    H247205   2.275   4.779  10.775 -2.1468 -2.2346 -1.0707
 8572TIP3   OH247206   0.209   5.155  14.540  0.1601 -0.3468 -0.4003
 8572TIP3    H147207   0.145   5.172  14.610 -0.4615 -0.2350 -0.9930
 8572TIP3    H247208   0.194   5.063  14.516  0.1780 -0.3009 -0.5851
 8573TIP3   OH247209   1.437   3.680  11.409  0.4444 -0.3919 -0.7525
 8573TIP3    H147210   1.429   3.653  11.318  0.2282 -0.3806 -0.7366
 8573TIP3    H247211   1.372   3.749  11.420  0.3806 -0.4814 -0.5545
 8574TIP3   OH247212   0.826   3.797   0.527 -0.0162  0.2376 -0.2652
 8574TIP3    H147213   0.834   3.892   0.515 -3.0725  1.0329  2.5228
 8574TIP3    H247214   0.742   3.775   0.486 -0.9403 -0.5590  1.9463
 8575TIP3   OH247215   5.417   3.330  10.949  0.0083  0.0646 -0.0437
 8575TIP3    H147216   5.432   3.250  10.999  0.1018 -1.4232 -2.3149
 8575TIP3    H247217   5.322   3.340  10.946 -0.0056  0.0050  0.1828
 8576TIP3   OH247218   0.057   5.298   2.521  0.3687  0.1811  0.0979
 8576TIP3    H147219   0.064   5.350   2.601  0.6808 -0.8536  0.7526
 8576TIP3    H247220   0.144   5.263   2.507 -0.4366 -2.6380  1.3964
 8577TIP3   OH247221   6.131   5.130  10.031  0.7244 -0.4062  0.2606
 8577TIP3    H147222   6.113   5.056  10.088 -0.1010  0.0245  0.5810
 8577TIP3    H247223   6.226   5.143  10.037  0.6460 -0.3433  1.5606
 8578TIP3   OH247224   2.010   3.042   0.371  0.4093 -0.1406 -0.0675
 8578TIP3    H147225   1.987   3.131   0.345 -0.1117 -0.3706 -0.4146
 8578TIP3    H247226   1.948   2.986   0.324  0.4027 -0.6572  0.5366
 8579TIP3   OH247227   3.206   4.737   1.463 -0.4302  0.2104 -0.2476
 8579TIP3    H147228   3.214   4.656   1.515 -1.8721  2.1879  3.4549
 8579TIP3    H247229   3.296   4.759   1.441  0.3138 -0.7864  1.5016
 8580TIP3   OH247230   2.492   0.198  10.846 -0.3751  0.1921 -0.5949
 8580TIP3    H147231   2.522   0.251  10.772 -1.6838 -1.5816 -2.4954
 8580TIP3    H247232   2.408   0.237  10.871 -0.5671 -0.0107 -0.9230
 8581TIP3   OH247233   0.650   4.888  13.805 -0.0068  0.3931  0.6197
 8581TIP3    H147234   0.731   4.838  13.819 -1.2832 -1.6283  1.2949
 8581TIP3    H247235   0.590   4.853  13.871 -3.1117 -2.0921 -3.0809
 8582TIP3   OH247236   4.713   6.560   9.641 -0.1470 -0.2406  0.0748
 8582TIP3    H147237   4.739   6.644   9.605  1.3671 -0.4271  0.6519
 8582TIP3    H247238   4.792   6.526   9.683 -1.2728 -0.9495  1.7765
 8583TIP3   OH247239   3.146   3.625  12.059  0.3375  0.4647  0.2266
 8583TIP3    H147240   3.184   3.657  12.141 -0.9177 -1.4301  1.6590
 8583TIP3    H247241   3.146   3.700  12.000  0.6938  2.0625  2.1816
 8584TIP3   OH247242   3.974   4.999   9.987 -0.6769 -0.1507  0.2626
 8584TIP3    H147243   4.035   5.046   9.931  2.2563 -1.0457  2.4870
 8584TIP3    H247244   3.932   5.068  10.039  0.6848  0.3213  0.7786
 8585TIP3   OH247245   3.892   5.374  12.413 -0.2061 -0.2075  0.5190
 8585TIP3    H147246   3.885   5.419  12.329 -0.6271 -1.6276 -0.2439
 8585TIP3    H247247   3.836   5.424  12.472  0.4488  1.0718  0.0860
 8586TIP3   OH247248   4.606   1.731  11.715 -0.0452 -0.7244 -0.2146
 8586TIP3    H147249   4.638   1.755  11.628 -0.8259 -1.7086 -0.7911
 8586TIP3    H247250   4.610   1.636  11.717 -0.6581 -0.7476  0.5792
 8587TIP3   OH247251   4.602   2.833  14.180  0.8905 -0.5008 -0.2221
 8587TIP3    H147252   4.628   2.909  14.232  0.1861 -0.1671 -0.3356
 8587TIP3    H247253   4.617   2.758  14.237  1.0588 -0.2233  0.0979
 8588TIP3   OH247254   0.169   5.944  15.095 -0.5548 -0.4160 -0.9437
 8588TIP3    H147255   0.077   5.967  15.081 -0.6903 -0.7151 -0.5558
 8588TIP3    H247256   0.215   6.029  15.098 -1.0479 -0.1690  0.4679
 8589TIP3   OH247257   3.530   2.458  10.380 -0.4935  0.7494 -0.5131
 8589TIP3    H147258   3.553   2.432  10.291 -2.0688 -0.5583 -0.5808
 8589TIP3    H247259   3.444   2.418  10.395  0.2397 -0.0174  1.9936
 8590TIP3   OH247260   3.503   4.471   4.433 -0.5329  0.2710 -0.9427
 8590TIP3    H147261   3.447   4.412   4.382  0.0083 -0.5125 -0.6447
 8590TIP3    H247262   3.464   4.558   4.420 -1.2242 -0.1182 -1.5480
 8591TIP3   OH247263   6.969   2.346  13.089 -0.5438 -0.0204 -0.6155
 8591TIP3    H147264   6.993   2.367  13.179 -1.9907  0.1557 -0.2436
 8591TIP3    H247265   7.005   2.259  13.074 -2.5698 -1.2566  1.1088
 8592TIP3   OH247266   0.754   0.058  12.807 -0.4818  0.0659  0.1093
 8592TIP3    H147267   0.782   0.029  12.894 -0.6405  1.5977  0.7041
 8592TIP3    H247268   0.824   0.115  12.777 -0.1151 -0.9687 -1.0901
 8593TIP3   OH247269   6.774   4.938   0.257  0.3342 -0.2809  0.1220
 8593TIP3    H147270   6.785   4.943   0.162  2.3285  0.2405  0.3348
 8593TIP3    H247271   6.826   4.862   0.284  0.0721 -0.2192  0.8303
 8594TIP3   OH247272   4.828   5.182   4.043  0.1614  0.4695 -0.6909
 8594TIP3    H147273   4.793   5.270   4.053  0.0077  0.4604 -1.1368
 8594TIP3    H247274   4.756   5.132   4.003  0.0248 -0.0129  0.1301
 8595TIP3   OH247275   3.790   0.368  11.643 -0.3497 -0.5014 -0.1688
 8595TIP3    H147276   3.755   0.397  11.727 -3.4423 -0.3276 -1.3931
 8595TIP3    H247277   3.863   0.428  11.625 -0.7399  0.5511  1.5804
 8596TIP3   OH247278   3.223   0.167  12.550 -0.4057  0.3837  0.4639
 8596TIP3    H147279   3.272   0.086  12.541 -0.0313  0.7318 -0.7340
 8596TIP3    H247280   3.280   0.224  12.602 -0.4406  0.0766  0.8433
 8597TIP3   OH247281   5.990   4.507  14.506 -0.4225 -0.1788 -0.2582
 8597TIP3    H147282   6.071   4.553  14.526 -0.5371  0.2013 -0.6506
 8597TIP3    H247283   5.977   4.447  14.579 -0.9923  1.3878  0.9846
 8598TIP3   OH247284   0.473   0.263  13.145 -0.3854 -0.7648  0.5536
 8598TIP3    H147285   0.559   0.286  13.110 -0.5810 -1.5430 -0.4800
 8598TIP3    H247286   0.480   0.170  13.166 -0.5465 -0.5066  1.7925
 8599TIP3   OH247287   0.623   2.997  14.481 -0.3613  0.2608  0.4567
 8599TIP3    H147288   0.611   2.904  14.503  0.7077  0.4382  1.9982
 8599TIP3    H247289   0.596   3.044  14.561  0.3251  1.1967  0.1529
 8600TIP3   OH247290   4.962   4.510   0.891  0.2366  0.0626  0.8437
 8600TIP3    H147291   5.031   4.469   0.838 -1.0761  0.4229 -1.2785
 8600TIP3    H247292   4.881   4.469   0.861 -0.8459  2.2837  0.5296
 8601TIP3   OH247293   1.469   4.302   2.018 -0.5675 -0.1333  0.4868
 8601TIP3    H147294   1.381   4.323   1.988 -1.2914 -1.4042  1.6217
 8601TIP3    H247295   1.479   4.347   2.101  1.0173  2.4374 -0.9559
 8602TIP3   OH247296   3.224   4.358  12.134  0.1724 -0.1298 -0.4635
 8602TIP3    H147297   3.218   4.416  12.057 -0.2034 -0.7135 -0.8781
 8602TIP3    H247298   3.299   4.302  12.115  0.7846  0.4859  0.1235
 8603TIP3   OH247299   4.663   5.082  15.108 -0.0880  0.7977 -0.6992
 8603TIP3    H147300   4.650   4.990  15.084  0.0914  0.8314 -0.9273
 8603TIP3    H247301   4.692   5.079  15.199  3.6193  0.3480 -1.7221
 8604TIP3   OH247302   7.137   1.740  10.453 -0.1741 -0.4330  0.0040
 8604TIP3    H147303   7.161   1.796  10.379  0.6471 -0.4697  0.2414
 8604TIP3    H247304   7.087   1.669  10.414 -1.9537  0.8677 -0.2194
 8605TIP3   OH247305   3.472   4.929  14.438 -0.4919 -0.5634 -0.4432
 8605TIP3    H147306   3.545   4.888  14.483 -0.8148 -0.4388  0.2043
 8605TIP3    H247307   3.504   5.016  14.414 -0.7222 -0.1684  0.6486
 8606TIP3   OH247308   3.348   2.462  12.489  0.2639 -0.2679  0.3750
 8606TIP3    H147309   3.331   2.390  12.428 -1.0585  0.2168  0.1344
 8606TIP3    H247310   3.329   2.541  12.439  0.5637  0.1951  0.9833
 8607TIP3   OH247311   6.311   3.620  14.904 -0.0037  0.2874 -0.1033
 8607TIP3    H147312   6.226   3.582  14.883  0.2097  0.2034 -0.8322
 8607TIP3    H247313   6.374   3.559  14.866  0.3657  0.8098 -0.3343
 8608TIP3   OH247314   2.583   5.479   1.357 -0.3138 -0.0065  0.6920
 8608TIP3    H147315   2.509   5.533   1.328  0.1459  1.3090  1.8351
 8608TIP3    H247316   2.660   5.526   1.326  0.1068 -1.9179 -1.4375
 8609TIP3   OH247317   1.855   2.278  11.166 -0.2861 -0.2280  0.4044
 8609TIP3    H147318   1.943   2.246  11.182 -0.5290 -0.6521  0.9164
 8609TIP3    H247319   1.799   2.223  11.220 -1.0727 -1.2414 -1.3542
 8610TIP3   OH247320   1.523   0.101  12.773  0.1713 -0.1495 -0.1305
 8610TIP3    H147321   1.585   0.148  12.829  0.5748 -1.7986  0.8869
 8610TIP3    H247322   1.444   0.155  12.776  1.1398  1.3527 -0.4485
 8611TIP3   OH247323   4.237   0.690  12.890 -0.1699  0.1688 -0.4720
 8611TIP3    H147324   4.176   0.718  12.822  0.3383  1.7071 -0.3139
 8611TIP3    H247325   4.180   0.656  12.960 -0.6678 -2.2012 -1.9233
 8612TIP3   OH247326   5.683   3.361  11.881  0.2587  0.0229 -0.3567
 8612TIP3    H147327   5.720   3.411  11.809 -1.3420  0.1559 -1.1493
 8612TIP3    H247328   5.591   3.388  11.884  0.6062  1.2262  2.8170
 8613TIP3   OH247329   0.707   7.068  13.968  0.0984 -0.2743  0.8461
 8613TIP3    H147330   0.776   7.094  13.907 -1.0489 -0.1380 -0.4285
 8613TIP3    H247331   0.670   7.151  13.999 -0.1868 -0.3474  0.7055
 8614TIP3   OH247332   1.369   3.470   1.898 -0.1565 -0.5901  0.0745
 8614TIP3    H147333   1.301   3.531   1.928  1.7081  0.5491  2.3370
 8614TIP3    H247334   1.347   3.452   1.807 -2.9807  0.3934  0.4735
 8615TIP3   OH247335   1.779   6.445  12.067 -0.4936  0.0395 -0.1883
 8615TIP3    H147336   1.736   6.376  12.117  1.9632 -0.0830  1.9710
 8615TIP3    H247337   1.768   6.420  11.976 -2.7882 -1.2275  0.3657
 8616TIP3   OH247338   6.987   3.988   2.415 -0.2640 -0.5245  0.0107
 8616TIP3    H147339   6.926   3.947   2.476  0.5312 -0.2915  0.9824
 8616TIP3    H247340   6.947   4.072   2.394  0.3038  0.2038  1.6704
 8617TIP3   OH247341   2.402   4.690   0.014  0.2240 -0.4695  0.3268
 8617TIP3    H147342   2.485   4.693  -0.033  0.2255  1.6287  0.3611
 8617TIP3    H247343   2.337   4.720  -0.049 -0.0349  0.7302  1.1239
 8618TIP3   OH247344   2.715   2.041  10.794  0.5463  0.1555 -0.0369
 8618TIP3    H147345   2.711   2.088  10.711 -0.6722 -0.9952 -0.6830
 8618TIP3    H247346   2.638   1.984  10.793  1.0731 -0.6520  1.4224
 8619TIP3   OH247347   7.132   4.459  13.584  0.2865  0.4866  0.2017
 8619TIP3    H147348   7.204   4.400  13.607 -1.0285 -1.9272 -1.3867
 8619TIP3    H247349   7.171   4.546  13.583  2.3144 -0.2727  2.8243
 8620TIP3   OH247350   5.134   0.624  12.308 -0.2867  0.0477  0.3520
 8620TIP3    H147351   5.157   0.603  12.398 -0.1969 -1.1218  0.0721
 8620TIP3    H247352   5.118   0.539  12.267 -0.7805  0.5922 -0.6137
 8621TIP3   OH247353   5.095   0.340   0.234  0.6864  0.3716  0.4025
 8621TIP3    H147354   5.132   0.260   0.196 -0.7858 -0.8341  1.3776
 8621TIP3    H247355   5.030   0.308   0.297 -0.1289  2.3533  0.6244
 8622TIP3   OH247356   6.353   2.323  13.383 -0.9807  0.6901 -0.3096
 8622TIP3    H147357   6.329   2.257  13.448 -0.2941 -0.1913 -0.9381
 8622TIP3    H247358   6.439   2.296  13.351  0.1759  2.8901  0.7272
 8623TIP3   OH247359   1.285   2.918   0.382 -0.1019 -0.0949  0.0872
 8623TIP3    H147360   1.308   2.848   0.320 -0.1435 -1.0238  1.0922
 8623TIP3    H247361   1.299   2.999   0.333 -1.9789 -0.8130 -1.8044
 8624TIP3   OH247362   6.510   0.451   0.770 -0.1562 -0.9536  0.3606
 8624TIP3    H147363   6.473   0.384   0.828 -1.6884 -0.3097  0.1630
 8624TIP3    H247364   6.560   0.508   0.828 -0.3274 -1.2430  0.7975
 8625TIP3   OH247365   1.642   6.924   4.573 -0.1409  0.7093 -0.2762
 8625TIP3    H147366   1.597   7.006   4.549  1.0144  1.7403  0.9587
 8625TIP3    H247367   1.586   6.885   4.640 -0.7725  0.3876 -0.9728
 8626TIP3   OH247368   2.148   5.084   0.257 -0.4569  0.1964 -0.0493
 8626TIP3    H147369   2.165   5.032   0.335  0.1115 -0.6367 -0.6986
 8626TIP3    H247370   2.234   5.093   0.215 -0.1208  3.4873  1.0959
 8627TIP3   OH247371   1.071   2.049  12.672  0.0101 -0.6042  0.6211
 8627TIP3    H147372   0.996   2.097  12.639 -0.3391  1.3116  3.7420
 8627TIP3    H247373   1.145   2.110  12.662  0.8683 -1.8179 -0.8650
 8628TIP3   OH247374   5.438   3.363   1.225 -0.2349 -0.5491 -0.0996
 8628TIP3    H147375   5.492   3.376   1.303 -1.9708 -0.1268  1.0877
 8628TIP3    H247376   5.366   3.307   1.255 -1.2410  0.0866 -1.2542
 8629TIP3   OH247377   4.304   2.230  13.606 -0.9393 -0.7961 -0.1139
 8629TIP3    H147378   4.304   2.148  13.656  0.2413 -1.3969 -1.0385
 8629TIP3    H247379   4.397   2.254  13.599 -1.2806  0.7911  0.3785
 8630TIP3   OH247380   1.080   3.096   1.424 -0.1082  0.2156 -0.1713
 8630TIP3    H147381   1.063   3.117   1.332 -1.0158  1.0426  0.1684
 8630TIP3    H247382   0.996   3.110   1.468  0.1069 -0.9887  0.6550
 8631TIP3   OH247383   0.683   2.472   1.428  0.1565 -0.0960 -0.5547
 8631TIP3    H147384   0.740   2.507   1.496  0.8109 -1.4111 -0.4019
 8631TIP3    H247385   0.666   2.547   1.371  0.3130  0.8126  0.5546
 8632TIP3   OH247386   6.989   3.511   0.507  0.1491  0.3528  0.5641
 8632TIP3    H147387   7.067   3.455   0.505  0.3802  0.6791 -0.7923
 8632TIP3    H247388   6.968   3.521   0.600  2.3505  1.1340  1.0166
 8633TIP3   OH247389   0.171   2.669   0.096  0.5032  0.3370  0.1559
 8633TIP3    H147390   0.139   2.668   0.186 -5.0182  1.4950 -1.3964
 8633TIP3    H247391   0.197   2.760   0.081  1.4067  0.1476  0.5017
 8634TIP3   OH247392   5.330   2.069  12.505  0.5129 -0.0238 -0.2348
 8634TIP3    H147393   5.305   1.977  12.498  1.8157 -0.6612  2.2730
 8634TIP3    H247394   5.312   2.092  12.596  0.3479  2.1822 -0.7689
 8635TIP3   OH247395   4.038   6.908  14.720 -0.0175  0.4067  0.0407
 8635TIP3    H147396   3.957   6.869  14.687  0.7780 -0.8527 -0.5076
 8635TIP3    H247397   4.024   6.913  14.815 -0.2589 -1.0304  0.1090
 8636TIP3   OH247398   5.224   3.353  13.986  0.3712  0.4545 -0.3473
 8636TIP3    H147399   5.271   3.307  14.055 -0.8151 -0.5662 -0.1991
 8636TIP3    H247400   5.231   3.446  14.010  0.6331  0.1659  0.7188
 8637TIP3   OH247401   6.883   3.883  12.638 -0.4521 -0.5650  0.1535
 8637TIP3    H147402   6.879   3.857  12.730 -1.1568 -1.9727 -0.2446
 8637TIP3    H247403   6.793   3.906  12.616 -0.2366  0.0415 -0.1228
 8638TIP3   OH247404   3.612   2.246  15.212 -0.4221 -0.4394  0.3337
 8638TIP3    H147405   3.663   2.326  15.198  0.4901 -0.9813  0.4673
 8638TIP3    H247406   3.677   2.180  15.237 -0.9049 -1.6551 -1.4185
 8639TIP3   OH247407   4.361   2.840  10.002 -0.2917 -0.6511  0.1179
 8639TIP3    H147408   4.268   2.815   9.997 -0.4048 -0.5180  1.2082
 8639TIP3    H247409   4.408   2.762   9.972 -0.7570 -0.5546 -0.9079
 8640TIP3   OH247410   4.506   0.357   1.358  0.0565  0.2046  0.4105
 8640TIP3    H147411   4.591   0.369   1.316 -0.6041 -0.4784 -1.2177
 8640TIP3    H247412   4.471   0.446   1.365 -0.0959  0.3103 -1.1920
 8641TIP3   OH247413   4.341   4.630  11.490  0.0952  0.1979 -0.5267
 8641TIP3    H147414   4.289   4.690  11.543  1.1437 -1.4249  2.6130
 8641TIP3    H247415   4.277   4.588  11.432 -1.0750  2.2257 -0.8052
 8642TIP3   OH247416   6.791   4.335  12.838  0.7111  0.0119 -0.0018
 8642TIP3    H147417   6.786   4.244  12.870 -0.3260  0.3640  0.8986
 8642TIP3    H247418   6.700   4.364  12.836  0.8534  0.4514 -2.0942
 8643TIP3   OH247419   3.511   1.707   1.845 -0.3119 -0.8131  0.1663
 8643TIP3    H147420   3.470   1.781   1.801 -1.4875 -0.5091  1.6786
 8643TIP3    H247421   3.566   1.746   1.913 -0.5054 -1.2940  0.6123
 8644TIP3   OH247422   1.853   6.634  11.559 -0.2491  0.0651 -0.3303
 8644TIP3    H147423   1.824   6.617  11.469  0.9966 -0.3558 -0.6733
 8644TIP3    H247424   1.927   6.574  11.571 -0.6797 -0.1968  1.1318
 8645TIP3   OH247425   0.053   7.040   0.488  0.4552  0.4358 -0.1715
 8645TIP3    H147426   0.003   7.119   0.465  2.5298  2.0225  0.4677
 8645TIP3    H247427   0.035   6.979   0.417  1.2681  2.6644 -2.4317
 8646TIP3   OH247428   7.219   3.930  12.343  0.4547  0.7364  0.2166
 8646TIP3    H147429   7.126   3.907  12.353  0.9663 -1.8709 -0.1127
 8646TIP3    H247430   7.224   3.977  12.260 -0.5080  0.3827 -0.0559
 8647TIP3   OH247431   6.197   2.587  14.954 -0.4597  0.0453 -0.2768
 8647TIP3    H147432   6.202   2.680  14.933 -2.0191  0.1246 -0.3681
 8647TIP3    H247433   6.185   2.585  15.049  0.3582 -0.1110 -0.1645
 8648TIP3   OH247434   1.783   1.581  14.217 -0.2028 -0.0315  0.8199
 8648TIP3    H147435   1.824   1.503  14.179  2.3466  0.3475  2.5777
 8648TIP3    H247436   1.727   1.615  14.146  2.2626 -0.8209 -1.7050
 8649TIP3   OH247437   6.913   0.141   0.068 -0.0716  0.8457 -0.0227
 8649TIP3    H147438   6.951   0.160   0.154 -2.6510  1.8216  1.0260
 8649TIP3    H247439   6.836   0.199   0.063 -3.8388 -3.5440 -0.1103
 8650TIP3   OH247440   2.337   0.521   1.750 -0.0560 -0.5647 -0.5448
 8650TIP3    H147441   2.304   0.538   1.838  1.8528  0.6304  0.0008
 8650TIP3    H247442   2.259   0.514   1.696 -1.2329  0.4186  0.9511
 8651TIP3   OH247443   2.561   4.749   0.243  0.6273  0.4410 -0.2528
 8651TIP3    H147444   2.507   4.734   0.165  0.4418 -0.5254  0.0553
 8651TIP3    H247445   2.581   4.662   0.276  3.1577  0.6947 -0.8538
 8652TIP3   OH247446   4.485   1.378   9.780 -0.7375  0.1769  0.0334
 8652TIP3    H147447   4.502   1.387   9.686 -0.3154  0.9580  0.1759
 8652TIP3    H247448   4.412   1.438   9.797 -1.5483 -0.7772  0.0165
 8653TIP3   OH247449   3.410   1.420  10.194 -0.2455  0.1472  0.3925
 8653TIP3    H147450   3.406   1.406  10.289 -1.3158 -3.0440 -0.0133
 8653TIP3    H247451   3.499   1.451  10.179  1.0016 -2.1800  2.2034
 8654TIP3   OH247452   3.075   1.098   2.235  0.5275 -0.1436  0.0284
 8654TIP3    H147453   3.061   1.004   2.232 -0.4092 -0.0507  1.0018
 8654TIP3    H247454   3.037   1.126   2.318  0.6372  1.1221 -0.3187
 8655TIP3   OH247455   3.740   4.914  12.026  0.0104  0.1859 -0.4645
 8655TIP3    H147456   3.705   4.899  11.938 -0.3398  0.5520 -0.3863
 8655TIP3    H247457   3.667   4.897  12.085  0.3384 -0.3936 -0.2196
 8656TIP3   OH247458   1.211   1.837  13.802 -0.0571 -0.5650  0.4728
 8656TIP3    H147459   1.148   1.776  13.764 -2.0150 -0.4140  3.1695
 8656TIP3    H247460   1.285   1.781  13.827 -0.7375 -1.4405  0.5953
 8657TIP3   OH247461   0.453   0.117   9.725 -0.5550 -0.8127 -0.2263
 8657TIP3    H147462   0.425   0.157   9.643 -0.1435 -0.7068 -0.3143
 8657TIP3    H247463   0.522   0.174   9.758 -0.1289 -1.3084 -0.2332
 8658TIP3   OH247464   5.366   6.227  14.610  0.5991  0.7455  0.3026
 8658TIP3    H147465   5.324   6.294  14.556 -0.3930  2.1867  2.7073
 8658TIP3    H247466   5.306   6.152  14.608  0.3296  0.9752 -0.1890
 8659TIP3   OH247467   2.990   5.345  14.260 -0.0654  0.1178  0.0777
 8659TIP3    H147468   3.018   5.254  14.253  0.8638  0.3576  0.5464
 8659TIP3    H247469   2.947   5.363  14.177  0.2457 -0.5758 -0.2452
 8660TIP3   OH247470   0.483   3.757  12.741  0.8004  0.4916 -0.1290
 8660TIP3    H147471   0.545   3.684  12.752 -0.0705 -0.1683  0.5133
 8660TIP3    H247472   0.438   3.737  12.659  1.7526  1.2348 -0.8621
 8661TIP3   OH247473   3.298   0.028  14.992 -0.1765  0.1054  0.0873
 8661TIP3    H147474   3.315  -0.033  15.063 -0.6757 -3.4224 -2.5225
 8661TIP3    H247475   3.375   0.085  14.990  1.1862 -1.5546  1.6648
 8662TIP3   OH247476   0.073   3.626   1.292 -0.3017 -1.0222 -0.2188
 8662TIP3    H147477   0.114   3.541   1.307 -1.8383 -1.4712  1.6675
 8662TIP3    H247478   0.113   3.684   1.356  0.0660 -0.5126 -0.8870
 8663TIP3   OH247479   0.838   2.449  13.345  0.2465 -0.4163  0.2594
 8663TIP3    H147480   0.783   2.388  13.395 -0.7057 -0.6889 -1.0554
 8663TIP3    H247481   0.920   2.452  13.393 -0.4524 -1.0456  1.5503
 8664TIP3   OH247482   0.513   6.296   9.995 -0.2909 -0.0710  0.3242
 8664TIP3    H147483   0.599   6.316  10.030  0.0461  0.7721 -0.8980
 8664TIP3    H247484   0.504   6.354   9.919 -1.9538 -0.1113  0.4547
 8665TIP3   OH247485   2.058   3.751  10.414 -0.0660 -0.1259  0.5364
 8665TIP3    H147486   2.132   3.778  10.360  0.1356  0.2075  0.9681
 8665TIP3    H247487   2.001   3.701  10.355  0.5380 -0.4465  0.2185
 8666TIP3   OH247488   6.320   6.400  14.251 -0.0112 -0.1562  0.0020
 8666TIP3    H147489   6.413   6.379  14.244  0.1803  0.6646  0.0536
 8666TIP3    H247490   6.278   6.315  14.266  0.8721 -0.3602  1.4786
 8667TIP3   OH247491   4.142   0.281  10.462 -0.3451 -0.0440 -0.2309
 8667TIP3    H147492   4.052   0.251  10.456  0.2166 -1.4846 -4.7406
 8667TIP3    H247493   4.143   0.364  10.415  0.3339  1.3316  2.0358
 8668TIP3   OH247494   0.548   4.725  13.223 -0.5056 -0.6719  0.0260
 8668TIP3    H147495   0.550   4.820  13.228  2.9446 -0.5938  0.0706
 8668TIP3    H247496   0.618   4.703  13.162  1.8614 -3.1547  3.2505
 8669TIP3   OH247497   1.841   6.387  11.366  0.1501 -0.8640 -0.1525
 8669TIP3    H147498   1.747   6.379  11.379 -0.0003  0.7911  0.0474
 8669TIP3    H247499   1.879   6.363  11.451 -0.3287  1.5215  0.8354
 8670TIP3   OH247500   4.635   3.228   2.256 -0.6331 -0.0626  0.3035
 8670TIP3    H147501   4.581   3.286   2.310 -0.1192  0.9450 -0.2455
 8670TIP3    H247502   4.720   3.272   2.250  0.1250 -1.4183  0.7846
 8671TIP3   OH247503   2.961   6.009   2.955 -0.7161  0.2726  0.0823
 8671TIP3    H147504   2.914   5.943   2.906  0.1286 -0.6959  0.5404
 8671TIP3    H247505   2.908   6.024   3.033  0.1029 -1.4321  1.0131
 8672TIP3   OH247506   2.601   6.075  11.349 -0.1346 -0.2806 -0.3488
 8672TIP3    H147507   2.646   6.068  11.264 -1.0796 -3.0130 -0.7217
 8672TIP3    H247508   2.603   5.986  11.384 -2.6317  0.1090  0.9803
 8673TIP3   OH247509   0.007   4.492  10.535 -0.0594  0.4102 -0.0454
 8673TIP3    H147510   0.096   4.490  10.570 -0.2236  2.9770  0.7227
 8673TIP3    H247511   0.002   4.416  10.477  3.5119  1.6032 -2.2235
 8674TIP3   OH247512   1.137   0.034   4.312 -0.3633  0.3030  0.1280
 8674TIP3    H147513   1.064  -0.005   4.359  0.1297  0.5840  1.1603
 8674TIP3    H247514   1.188  -0.040   4.280 -1.3476  0.0985 -1.0417
 8675TIP3   OH247515   4.623   0.087  10.468  0.3749  0.2078 -1.1001
 8675TIP3    H147516   4.706   0.106  10.511  0.7824  1.3706 -2.3134
 8675TIP3    H247517   4.558   0.135  10.519  0.7401  0.9124 -1.2749
 8676TIP3   OH247518   7.100   2.253   4.731 -0.3238 -0.2321 -0.1925
 8676TIP3    H147519   7.011   2.226   4.753  0.4267 -0.4094  3.2889
 8676TIP3    H247520   7.124   2.198   4.657 -3.0317 -0.2629 -1.1281
 8677TIP3   OH247521   3.923   5.152  13.201 -0.2233 -0.0583 -0.1796
 8677TIP3    H147522   3.928   5.123  13.292  0.1312 -0.5542 -0.3497
 8677TIP3    H247523   3.967   5.236  13.200 -1.8622  0.8613  0.4593
 8678TIP3   OH247524   6.348   0.164   3.130  0.2030 -0.5331 -0.7954
 8678TIP3    H147525   6.338   0.075   3.162 -0.6016 -0.5277 -1.0163
 8678TIP3    H247526   6.393   0.210   3.201 -2.8683 -0.1289  1.0682
 8679TIP3   OH247527   0.041   2.094  14.714  0.4843  0.1146  0.1579
 8679TIP3    H147528  -0.051   2.099  14.741  0.2870  0.8447 -0.6078
 8679TIP3    H247529   0.047   2.011  14.666  1.1816 -1.9992  3.5282
 8680TIP3   OH247530   5.464   0.066   0.592  0.0269 -0.6244 -0.0089
 8680TIP3    H147531   5.405   0.048   0.519 -0.2218  1.0412 -0.2648
 8680TIP3    H247532   5.551   0.048   0.558 -0.2069 -1.4700 -0.1748
 8681TIP3   OH247533   4.651   6.068   1.127  0.0001  0.2027 -0.2712
 8681TIP3    H147534   4.602   6.061   1.045 -0.9245  0.9499  0.2067
 8681TIP3    H247535   4.740   6.043   1.103 -0.7166 -1.8629 -1.0310
 8682TIP3   OH247536   5.012   0.233  12.740  0.5121 -0.2147 -0.4275
 8682TIP3    H147537   5.101   0.252  12.711  1.6377 -3.1326  0.7182
 8682TIP3    H247538   5.022   0.208  12.832 -1.3892 -1.1602 -0.4346
 8683TIP3   OH247539   4.514   4.274   9.577 -0.6338 -0.1390 -0.1361
 8683TIP3    H147540   4.501   4.337   9.648 -1.1596 -0.2760 -0.1037
 8683TIP3    H247541   4.508   4.189   9.620 -1.2393 -0.2277 -0.3833
 8684TIP3   OH247542   7.190   6.232   2.880 -0.1806  0.2446  0.5390
 8684TIP3    H147543   7.272   6.270   2.849  0.9288 -1.2512  1.5277
 8684TIP3    H247544   7.213   6.144   2.909 -2.0895 -0.1250  1.0909
 8685TIP3   OH247545   0.491   3.801   2.639 -0.2238  0.1960 -0.2288
 8685TIP3    H147546   0.525   3.874   2.588 -1.4017  0.0297 -1.3062
 8685TIP3    H247547   0.426   3.842   2.698 -0.6464  0.0746 -0.6038
 8686TIP3   OH247548   3.157   6.235  12.197 -0.0987  0.0377 -0.0040
 8686TIP3    H147549   3.241   6.189  12.195 -0.4377 -0.5860 -1.5800
 8686TIP3    H247550   3.180   6.326  12.215  1.0060 -0.0082 -1.0180
 8687TIP3   OH247551   5.709   2.546  14.261 -0.2656 -0.8312 -0.1778
 8687TIP3    H147552   5.740   2.562  14.350 -1.4585  0.4945  0.0238
 8687TIP3    H247553   5.757   2.468  14.233  2.2951  0.3677  0.5668
 8688TIP3   OH247554   4.987   4.823  12.002  0.4019  0.0140 -0.3164
 8688TIP3    H147555   4.931   4.897  11.979 -0.3562  0.7028  3.1473
 8688TIP3    H247556   4.926   4.753  12.027  0.9824  0.2111  1.8789
 8689TIP3   OH247557   5.966   3.121  10.747  0.6614 -0.1345  0.0075
 8689TIP3    H147558   5.968   3.037  10.793  0.6435 -1.2981 -1.9800
 8689TIP3    H247559   5.963   3.187  10.816 -1.2757 -1.8061  1.6250
 8690TIP3   OH247560   2.972   4.671  10.491  0.2146 -0.7091  0.1397
 8690TIP3    H147561   2.995   4.593  10.440 -1.2942 -1.0762 -0.0260
 8690TIP3    H247562   2.970   4.742  10.426 -2.1094 -1.2491 -0.4793
 8691TIP3   OH247563   0.947   3.261  11.222 -0.6878 -0.1467 -0.0385
 8691TIP3    H147564   0.890   3.267  11.298 -0.4116 -0.5009  0.2039
 8691TIP3    H247565   1.035   3.248  11.259 -0.8927 -3.4676 -0.3599
 8692TIP3   OH247566   2.870   0.152   1.389  0.3753 -0.2455 -0.1465
 8692TIP3    H147567   2.853   0.109   1.473  1.2105 -1.0243 -0.3515
 8692TIP3    H247568   2.833   0.093   1.324  0.3940 -0.0161 -0.3657
 8693TIP3   OH247569   2.280   1.661  13.553  0.1384  0.8880  0.3924
 8693TIP3    H147570   2.199   1.693  13.513  0.9864  2.1911 -0.3357
 8693TIP3    H247571   2.349   1.716  13.516  1.5830 -1.2467 -0.2410
 8694TIP3   OH247572   2.477   2.937  10.883  0.3672  0.9213 -0.6646
 8694TIP3    H147573   2.470   2.900  10.794 -1.4756  0.0240 -0.1966
 8694TIP3    H247574   2.442   3.025  10.875  0.4798  0.9468 -0.8853
 8695TIP3   OH247575   5.068   6.446  11.934 -0.1059 -0.2552 -0.8353
 8695TIP3    H147576   5.108   6.418  11.851 -0.4258  0.5257 -1.2654
 8695TIP3    H247577   4.987   6.395  11.940 -0.0167 -0.4107 -0.9310
 8696TIP3   OH247578   1.932   5.077  13.264  0.1421 -0.4642  0.1642
 8696TIP3    H147579   1.874   5.070  13.188 -1.0940 -0.8738  1.1048
 8696TIP3    H247580   1.885   5.032  13.334  0.4516  1.3984  1.6461
 8697TIP3   OH247581   2.695   0.436  14.467  0.5071  0.6422 -0.4059
 8697TIP3    H147582   2.688   0.522  14.426 -0.3764  0.4274 -0.7098
 8697TIP3    H247583   2.608   0.418  14.503  0.1932 -0.8302 -1.7694
 8698TIP3   OH247584   6.167   5.361   2.225  0.1229  0.4138  0.5163
 8698TIP3    H147585   6.134   5.272   2.209  0.7181  0.2779 -0.0013
 8698TIP3    H247586   6.090   5.417   2.216 -0.3295 -0.0826  1.1961
 8699TIP3   OH247587   3.745   5.649  13.140  0.5227  0.0762 -0.0667
 8699TIP3    H147588   3.658   5.610  13.144  1.1775 -1.4518  0.1945
 8699TIP3    H247589   3.784   5.631  13.226  0.6956  1.7715  0.2400
 8700TIP3   OH247590   2.816   3.977  13.836  0.0496  0.0822 -0.0817
 8700TIP3    H147591   2.872   3.920  13.784  0.2469  0.7502 -0.6118
 8700TIP3    H247592   2.728   3.940  13.826  0.0382  0.3479 -1.1160
 8701TIP3   OH247593   3.847   0.066  13.205 -0.5532 -0.4469 -0.6924
 8701TIP3    H147594   3.898   0.077  13.285 -0.1910  0.9826 -1.0925
 8701TIP3    H247595   3.824  -0.027  13.204  0.1740 -0.6655  0.6181
 8702TIP3   OH247596   5.699   1.192  13.841 -0.6389 -0.5746 -0.1390
 8702TIP3    H147597   5.761   1.173  13.771 -0.8185 -1.4472 -0.0695
 8702TIP3    H247598   5.665   1.279  13.820  0.6171 -0.0794 -0.1635
 8703TIP3   OH247599   4.801   4.512  12.442  0.6117  0.3300  0.0088
 8703TIP3    H147600   4.884   4.558  12.453  1.0351 -0.4491  0.1246
 8703TIP3    H247601   4.825   4.420  12.436 -0.1441  0.1966 -1.2080
 8704TIP3   OH247602   3.123   2.466   5.042 -0.3354 -0.0002 -0.8488
 8704TIP3    H147603   3.157   2.377   5.047 -2.5064 -0.8512 -0.4064
 8704TIP3    H247604   3.060   2.472   5.113 -0.1444  1.9638 -0.7866
 8705TIP3   OH247605   6.015   6.535  12.260 -0.4879 -0.1901 -0.2549
 8705TIP3    H147606   6.094   6.588  12.251 -0.2717 -0.4371  0.1892
 8705TIP3    H247607   6.033   6.477  12.333 -1.7307  0.9566  1.0279
 8706TIP3   OH247608   3.423   2.263  12.186  0.6191 -0.6686  0.5648
 8706TIP3    H147609   3.403   2.312  12.107  0.3746 -0.9495  0.4490
 8706TIP3    H247610   3.357   2.193  12.188 -0.2744  0.1660  1.7666
 8707TIP3   OH247611   2.014   0.918  13.179 -0.1609  0.3349  0.0699
 8707TIP3    H147612   2.013   0.822  13.177 -0.2015  0.3221  0.6647
 8707TIP3    H247613   2.081   0.943  13.115 -0.4628 -0.0808 -0.4121
 8708TIP3   OH247614   3.068   3.591  14.886  0.1972 -0.1839 -0.6900
 8708TIP3    H147615   3.092   3.500  14.900  1.3391  0.0601 -0.9375
 8708TIP3    H247616   3.129   3.641  14.942  2.6508  0.6423 -3.8231
 8709TIP3   OH247617   5.146   4.690  10.235  0.1272  0.0441  0.2095
 8709TIP3    H147618   5.078   4.712  10.298  0.8637  0.5834  0.8438
 8709TIP3    H247619   5.174   4.774  10.199 -0.3834 -0.2655 -0.9722
 8710TIP3   OH247620   1.200   3.595   0.778  0.0062 -0.2175  0.7783
 8710TIP3    H147621   1.215   3.585   0.872 -1.7004 -0.4814  1.0411
 8710TIP3    H247622   1.182   3.507   0.747  0.3996 -0.1085  0.2129
 8711TIP3   OH247623   0.765   5.597   3.970  0.6386 -0.0058 -0.1965
 8711TIP3    H147624   0.776   5.684   3.932  2.2128  0.4730  1.1896
 8711TIP3    H247625   0.672   5.577   3.961  0.6650  0.7529 -2.7047
 8712TIP3   OH247626   6.498   5.360  10.747 -0.2540  0.1086 -0.1240
 8712TIP3    H147627   6.469   5.432  10.802  1.2645  0.2882  0.4927
 8712TIP3    H247628   6.558   5.399  10.684  2.2680 -0.8321  1.5390
 8713TIP3   OH247629   5.993   7.069  10.554 -0.0602  0.2602 -0.3371
 8713TIP3    H147630   6.007   6.979  10.523  0.8191  0.2671  0.0176
 8713TIP3    H247631   6.078   7.112  10.542 -0.6253  1.2168 -1.0404
 8714TIP3   OH247632   6.016   6.966  14.687 -0.1537 -0.2127  0.1035
 8714TIP3    H147633   5.969   6.984  14.769 -1.2215  4.5488 -1.2477
 8714TIP3    H247634   6.010   6.871  14.677 -2.2918 -0.7508  4.1393
 8715TIP3   OH247635   0.302   4.752   0.113  0.3622 -0.1949  0.4820
 8715TIP3    H147636   0.216   4.791   0.130  0.7832  0.3874  1.3728
 8715TIP3    H247637   0.316   4.763   0.019  0.0248  0.9032  0.5480
 8716TIP3   OH247638   0.718   5.354  15.065  0.7346  0.2475 -0.1369
 8716TIP3    H147639   0.663   5.432  15.077 -1.2378 -0.9430 -0.9961
 8716TIP3    H247640   0.703   5.303  15.145  3.2641  1.3580  1.1792
 8717TIP3   OH247641   4.378   1.867   9.510 -0.1831 -0.3512  0.0921
 8717TIP3    H147642   4.353   1.960   9.511  2.2938  0.4007 -0.2060
 8717TIP3    H247643   4.385   1.845   9.418 -3.2909 -1.6979  0.0516
 8718TIP3   OH247644   5.012   3.121  10.912 -0.0277  0.5102  0.2720
 8718TIP3    H147645   5.002   3.085  11.000  0.5560  0.6608  0.4012
 8718TIP3    H247646   4.922   3.137  10.883 -0.3167 -1.1860  0.1394
 8719TIP3   OH247647   1.575   1.337   4.633 -0.3880 -0.4291  0.1355
 8719TIP3    H147648   1.669   1.326   4.644 -0.4014  0.8127  1.8458
 8719TIP3    H247649   1.558   1.311   4.542  1.4140 -1.7010  0.1179
 8720TIP3   OH247650   3.977   0.584  12.532 -0.0869 -0.2098 -0.2830
 8720TIP3    H147651   4.066   0.551  12.521  0.4822  1.2553 -0.3200
 8720TIP3    H247652   3.921   0.516  12.494  0.8913 -1.8423  1.0625
 8721TIP3   OH247653   1.571   1.276   1.081  0.3782  0.0909  0.0467
 8721TIP3    H147654   1.501   1.214   1.101 -0.1215  0.8875  0.8240
 8721TIP3    H247655   1.586   1.323   1.162  0.8809  0.8707 -0.4854
 8722TIP3   OH247656   4.168   0.211  13.575  0.0262 -0.5401  0.2663
 8722TIP3    H147657   4.184   0.125  13.614 -0.1221 -0.8696 -0.3905
 8722TIP3    H247658   4.212   0.272  13.634 -0.3441 -1.0059  1.0534
 8723TIP3   OH247659   5.886   4.490   4.607  0.8690  0.3522  0.0351
 8723TIP3    H147660   5.813   4.514   4.549  0.0032  0.3786  1.1090
 8723TIP3    H247661   5.881   4.552   4.680  1.2939 -0.3396  0.6721
 8724TIP3   OH247662   2.242   3.481  11.649  0.3334 -0.0182 -0.5407
 8724TIP3    H147663   2.163   3.430  11.667 -0.0550  0.9060  0.5698
 8724TIP3    H247664   2.211   3.558  11.603  0.7520 -0.2064 -1.1431
 8725TIP3   OH247665   6.000   0.324  12.745  0.1000  0.8363 -0.1324
 8725TIP3    H147666   6.091   0.294  12.750  0.0364  0.7076  0.2766
 8725TIP3    H247667   5.976   0.343  12.835  0.3151  2.6737 -0.4255
 8726TIP3   OH247668   5.150   0.384  11.421 -0.2229  0.0160 -0.3363
 8726TIP3    H147669   5.070   0.407  11.374 -0.5380  1.4113  0.8072
 8726TIP3    H247670   5.122   0.375  11.512  0.9862  0.9781  0.1547
 8727TIP3   OH247671   0.771   1.717   0.432 -0.2651 -0.2216 -0.2325
 8727TIP3    H147672   0.679   1.721   0.408 -0.1734 -2.3374 -1.1625
 8727TIP3    H247673   0.779   1.636   0.483  1.2042 -0.4647 -0.7985
 8728TIP3   OH247674   4.955   4.134  14.871 -0.8883 -0.2889  0.0606
 8728TIP3    H147675   5.034   4.184  14.851 -1.1340  0.1919  0.2738
 8728TIP3    H247676   4.974   4.045  14.839 -1.1915  0.3772 -2.1131
 8729TIP3   OH247677   6.612   5.859   9.945 -0.7864 -0.7302  0.0620
 8729TIP3    H147678   6.655   5.829  10.025  0.7182  0.1544 -0.3643
 8729TIP3    H247679   6.523   5.824   9.950 -0.9916 -0.0230  2.4962
 8730TIP3   OH247680   3.921   4.461  14.261  0.2743  0.1274  0.0615
 8730TIP3    H147681   3.926   4.490  14.170 -1.3705 -0.0851 -0.1217
 8730TIP3    H247682   3.833   4.484  14.289 -0.2962 -2.4744  0.6556
 8731TIP3   OH247683   3.210   5.277   0.122  0.1781  0.2970 -0.0396
 8731TIP3    H147684   3.164   5.199   0.154 -0.2859  0.1331 -1.0739
 8731TIP3    H247685   3.152   5.314   0.055  0.3979  1.5290  0.4242
 8732TIP3   OH247686   0.096   5.803  12.034 -0.4942 -0.5981  0.4488
 8732TIP3    H147687   0.091   5.886  11.987  0.5025  0.0163  1.3696
 8732TIP3    H247688   0.157   5.749  11.983 -0.5153 -0.4661  0.2852
 8733TIP3   OH247689   4.539   1.371  10.214 -0.0807  0.9676  0.4158
 8733TIP3    H147690   4.538   1.276  10.204  0.6802  0.6301  2.8789
 8733TIP3    H247691   4.458   1.392  10.261 -0.9110  1.7603 -1.2644
 8734TIP3   OH247692   3.985   4.304  15.140 -0.1286 -0.3459 -1.0296
 8734TIP3    H147693   3.962   4.265  15.056 -0.4033 -2.2357 -0.1262
 8734TIP3    H247694   3.926   4.262  15.203  0.2696  0.8007  0.1601
 8735TIP3   OH247695   2.920   3.326  11.495 -0.3475 -0.2882  0.7396
 8735TIP3    H147696   2.849   3.264  11.511 -0.4074 -0.2962  0.4566
 8735TIP3    H247697   2.884   3.412  11.518  0.3940 -0.5495  3.1805
 8736TIP3   OH247698   2.213   6.582   0.060 -0.1027 -0.0381  0.1142
 8736TIP3    H147699   2.206   6.542   0.147  0.9577 -0.3179  0.0843
 8736TIP3    H247700   2.151   6.655   0.062 -2.1257 -1.7004  0.1436
 8737TIP3   OH247701   0.873   3.982   2.587 -0.1807 -0.0284 -0.2031
 8737TIP3    H147702   0.964   4.011   2.584 -0.1252 -0.2579 -1.0324
 8737TIP3    H247703   0.876   3.896   2.629  0.1152 -0.4774 -1.1244
 8738TIP3   OH247704   3.501   4.121   5.033 -0.3623  0.7631 -0.3027
 8738TIP3    H147705   3.527   4.207   5.000  2.1124  0.2647  0.1594
 8738TIP3    H247706   3.500   4.131   5.128 -1.3741  0.5902 -0.2813
 8739TIP3   OH247707   3.238   0.850  10.252 -1.0186 -0.2447 -0.4629
 8739TIP3    H147708   3.271   0.921  10.198  0.3224 -0.5011 -0.0134
 8739TIP3    H247709   3.192   0.792  10.191  0.0317 -0.2682 -1.2526
 8740TIP3   OH247710   1.638   1.602   1.695 -0.2942 -0.0395  0.3308
 8740TIP3    H147711   1.610   1.644   1.777 -3.1170  1.6639 -1.3247
 8740TIP3    H247712   1.661   1.675   1.637  0.1037 -1.0987 -0.9000
 8741TIP3   OH247713   1.583   1.968   0.201  0.1966  0.0987 -0.0377
 8741TIP3    H147714   1.508   1.992   0.256  1.7389  1.2311  1.7197
 8741TIP3    H247715   1.640   2.045   0.204  1.1690 -0.4990 -1.8173
 8742TIP3   OH247716   3.154   1.849   0.417  0.8287 -0.2177 -0.5225
 8742TIP3    H147717   3.067   1.878   0.442  0.6009 -1.4209  0.1639
 8742TIP3    H247718   3.182   1.793   0.490  1.8064 -0.5631 -1.1486
 8743TIP3   OH247719   2.086   3.596  15.289 -0.1340  0.0913  0.4128
 8743TIP3    H147720   2.047   3.574  15.374 -2.2963  3.3897  0.4287
 8743TIP3    H247721   2.072   3.690  15.279  1.4733  0.1231 -2.9358
 8744TIP3   OH247722   2.993   4.306  12.745  0.1470 -0.0590  0.2209
 8744TIP3    H147723   2.908   4.350  12.742  0.2364  0.1842  1.1589
 8744TIP3    H247724   3.016   4.294  12.653 -0.3404  0.9601 -0.0549
 8745TIP3   OH247725   5.475   3.628   3.153 -0.2270  0.4507 -0.4369
 8745TIP3    H147726   5.398   3.665   3.109 -0.4521  0.6876  0.1507
 8745TIP3    H247727   5.547   3.646   3.092 -0.3415  1.8110 -0.2030
 8746TIP3   OH247728   0.891   4.022   1.362 -0.2455  0.4349 -0.4009
 8746TIP3    H147729   0.820   4.065   1.315 -1.6599  0.7953  1.8816
 8746TIP3    H247730   0.848   3.952   1.411  1.1428  0.0210  0.2809
 8747TIP3   OH247731   4.878   6.918  13.437 -0.0279 -0.2228  0.3710
 8747TIP3    H147732   4.920   6.835  13.419 -0.7034 -0.5836  0.4350
 8747TIP3    H247733   4.825   6.937  13.359 -1.2267 -0.7129  1.0316
 8748TIP3   OH247734   2.069   6.850  11.528 -0.3024  0.8318 -0.0402
 8748TIP3    H147735   2.006   6.782  11.553  0.6818  0.2136  0.8343
 8748TIP3    H247736   2.069   6.848  11.432 -0.0697 -0.6360 -0.0354
 8749TIP3   OH247737   3.025   3.592   2.043 -0.3279 -0.0219 -0.3156
 8749TIP3    H147738   2.939   3.560   2.072 -0.0972  0.6516  1.2198
 8749TIP3    H247739   3.088   3.541   2.093  0.1988 -0.6245 -1.5553
 8750TIP3   OH247740   0.144   3.810  11.608 -0.6130 -0.5693  0.8897
 8750TIP3    H147741   0.095   3.867  11.667  0.4947  2.9360 -1.2598
 8750TIP3    H247742   0.235   3.823  11.631 -0.2699 -0.5680 -0.3833
 8751TIP3   OH247743   6.352   6.391  11.935  0.9270  0.1154  0.0304
 8751TIP3    H147744   6.287   6.386  11.865  2.0502 -0.1739 -1.0356
 8751TIP3    H247745   6.403   6.470  11.914 -0.1879  1.4192  1.8933
 8752TIP3   OH247746   2.884   6.853  14.130 -0.1389  0.7980 -0.1521
 8752TIP3    H147747   2.870   6.947  14.140  0.8487  0.7307  3.3569
 8752TIP3    H247748   2.799   6.813  14.147 -0.2511  1.0154 -0.2076
 8753TIP3   OH247749   0.404   4.701  12.291 -0.1907  0.1620  0.3805
 8753TIP3    H147750   0.402   4.610  12.263 -1.2755  0.3070 -0.0959
 8753TIP3    H247751   0.383   4.698  12.385  0.0676 -0.1021  0.4277
 8754TIP3   OH247752   2.202   6.393   0.915 -0.5227  0.5442 -0.2090
 8754TIP3    H147753   2.184   6.322   0.978 -0.3752  0.4806 -0.2378
 8754TIP3    H247754   2.292   6.418   0.933  0.0692 -0.5630 -1.4618
 8755TIP3   OH247755   6.213   3.286   3.966  0.1184  0.0374 -0.0436
 8755TIP3    H147756   6.207   3.378   3.993 -1.2517 -0.1746  0.4912
 8755TIP3    H247757   6.240   3.290   3.875  2.1544  0.8750  0.5364
 8756TIP3   OH247758   3.045   5.858  13.949 -0.5601  0.1444 -0.0599
 8756TIP3    H147759   3.093   5.833  14.028  1.5576  0.6834 -1.0780
 8756TIP3    H247760   2.997   5.780  13.924  1.5560 -1.2173 -0.1534
 8757TIP3   OH247761   5.731   5.404  14.130 -0.0611  0.1529  0.6375
 8757TIP3    H147762   5.666   5.474  14.134  1.3143  1.4783  0.7424
 8757TIP3    H247763   5.771   5.413  14.044 -1.5032 -2.1255 -0.3884
 8758TIP3   OH247764   0.839   4.102   3.043  0.5082  0.7455 -0.1932
 8758TIP3    H147765   0.897   4.110   3.119 -0.5932  1.5691  0.6082
 8758TIP3    H247766   0.829   4.007   3.030 -0.3056  0.5469  1.5429
 8759TIP3   OH247767   0.438   0.875   2.557  0.2680  0.1335 -0.3444
 8759TIP3    H147768   0.506   0.884   2.624 -0.1163 -1.5440  0.3095
 8759TIP3    H247769   0.398   0.962   2.553 -1.1285 -0.1662  3.1977
 8760TIP3   OH247770   0.755   0.470  13.460  0.2152 -0.2554  0.5424
 8760TIP3    H147771   0.761   0.497  13.369 -0.8800 -1.3878  0.0979
 8760TIP3    H247772   0.797   0.541  13.509  0.5677  0.5078 -0.8064
 8761TIP3   OH247773   7.167   1.242   9.929  0.2130 -0.2764  0.0927
 8761TIP3    H147774   7.120   1.267   9.848  1.2452 -1.9241 -1.0683
 8761TIP3    H247775   7.258   1.234   9.902  0.7181 -0.0381  1.6551
 8762TIP3   OH247776   3.222   2.306   4.337 -0.4903  0.2238 -0.2927
 8762TIP3    H147777   3.205   2.263   4.254  3.3369  1.4127 -1.9377
 8762TIP3    H247778   3.232   2.398   4.315  2.4114  0.3439  1.0058
 8763TIP3   OH247779   2.721   6.390  15.058  0.1712  0.0591 -0.1548
 8763TIP3    H147780   2.681   6.371  14.974  1.8618 -1.1108 -0.7462
 8763TIP3    H247781   2.785   6.459  15.039 -0.8470  1.2493  0.5923
 8764TIP3   OH247782   6.449   4.285   2.134  0.6198 -0.9190 -0.1893
 8764TIP3    H147783   6.355   4.299   2.128  0.6307 -1.1030 -0.8420
 8764TIP3    H247784   6.458   4.192   2.156  0.6827 -1.7089 -3.1220
 8765TIP3   OH247785   3.673   0.277   2.492  0.5222 -0.2270 -0.3751
 8765TIP3    H147786   3.638   0.205   2.440 -0.1189 -1.5597  1.7676
 8765TIP3    H247787   3.758   0.245   2.523  0.0467 -0.2817  0.9426
 8766TIP3   OH247788   6.430   2.650   2.424 -0.2426  0.2670  0.1118
 8766TIP3    H147789   6.476   2.577   2.383  1.2656  0.3038  1.6254
 8766TIP3    H247790   6.366   2.677   2.359 -0.2677 -1.8436 -0.8326
 8767TIP3   OH247791   3.343   0.284  15.410  0.1862 -0.4636 -0.0474
 8767TIP3    H147792   3.352   0.378  15.393 -0.1313 -0.6424 -1.3800
 8767TIP3    H247793   3.347   0.275  15.505 -1.3023  1.0608  0.2012
 8768TIP3   OH247794   3.934   6.544   0.712  0.1860 -0.0681  0.5656
 8768TIP3    H147795   3.847   6.506   0.726 -0.1783  0.1329 -0.9365
 8768TIP3    H247796   3.938   6.617   0.773 -0.8412  0.0973  0.4651
 8769TIP3   OH247797   3.020   1.241   3.107 -0.2273 -0.9347 -0.3743
 8769TIP3    H147798   2.994   1.265   3.018 -0.7414  1.6205  0.3837
 8769TIP3    H247799   3.105   1.283   3.119 -0.5805 -0.4789  0.6181
 8770TIP3   OH247800   2.879   4.069  10.922  0.5015  0.2556 -0.4272
 8770TIP3    H147801   2.867   4.060  10.828  1.0286  0.2880 -0.4997
 8770TIP3    H247802   2.798   4.110  10.953  0.2537  0.0774 -0.8374
 8771TIP3   OH247803   3.081   3.818  14.707  0.6708  0.2079  0.5184
 8771TIP3    H147804   3.072   3.734  14.752 -0.3828 -1.4985 -2.5465
 8771TIP3    H247805   3.175   3.826  14.691  1.1660  1.1921  3.3684
 8772TIP3   OH247806   4.666   6.811   2.449  0.1035 -1.1916 -0.4467
 8772TIP3    H147807   4.656   6.730   2.499 -0.4707 -1.3861 -0.8627
 8772TIP3    H247808   4.692   6.782   2.362 -2.6003 -1.1508 -1.3666
 8773TIP3   OH247809   3.950   5.772  14.550 -0.7783 -0.5465 -0.8526
 8773TIP3    H147810   3.950   5.864  14.524  2.0683  0.7473  2.8632
 8773TIP3    H247811   3.870   5.762  14.602  0.4916  0.9740  1.5844
 8774TIP3   OH247812   5.096   5.169  10.952 -0.5755 -0.9196  0.3595
 8774TIP3    H147813   5.177   5.118  10.944  0.9708  1.1311  1.7620
 8774TIP3    H247814   5.061   5.145  11.038 -1.3354 -1.5706 -0.1164
 8775TIP3   OH247815   0.793   1.909   0.643  0.1652  0.2660 -0.9011
 8775TIP3    H147816   0.776   1.874   0.555  1.7088  0.7119 -1.4156
 8775TIP3    H247817   0.888   1.919   0.646 -0.0266  2.4972 -0.0527
 8776TIP3   OH247818   3.819   0.846  11.815  0.2942 -0.2168 -0.2926
 8776TIP3    H147819   3.850   0.936  11.803 -1.3065  0.6325  1.4020
 8776TIP3    H247820   3.723   0.853  11.816  0.1239 -1.5178  2.2249
 8777TIP3   OH247821   2.197   2.407  13.086 -0.3062 -0.2902  0.1430
 8777TIP3    H147822   2.253   2.357  13.027 -0.7533 -1.2887  0.5353
 8777TIP3    H247823   2.199   2.358  13.169  0.4697  1.1994  1.0301
 8778TIP3   OH247824   2.032   3.745   4.234 -0.0929 -0.3692 -0.7839
 8778TIP3    H147825   1.941   3.740   4.262 -0.2429  0.7524 -1.0209
 8778TIP3    H247826   2.073   3.805   4.297 -0.1229  1.1060 -2.0842
 8779TIP3   OH247827   1.498   0.097   4.258 -0.1709 -0.1744  0.4473
 8779TIP3    H147828   1.533   0.121   4.343  1.1297 -2.0291  0.5087
 8779TIP3    H247829   1.573   0.062   4.210 -1.2654 -1.0368 -0.7235
 8780TIP3   OH247830   3.889   5.742   2.251 -0.6658 -0.2905  0.7424
 8780TIP3    H147831   3.918   5.833   2.248  0.4858 -0.6563 -0.5105
 8780TIP3    H247832   3.796   5.745   2.228 -0.9891  0.6749  2.0891
 8781TIP3   OH247833   4.231   6.463  15.127  0.5212 -0.7229 -0.1167
 8781TIP3    H147834   4.315   6.460  15.173  0.8355 -0.8923 -0.6974
 8781TIP3    H247835   4.250   6.429  15.040  0.5090  1.8843 -1.2358
 8782TIP3   OH247836   5.524   1.432   4.875  0.0139  0.1791  0.2782
 8782TIP3    H147837   5.503   1.339   4.873  1.5211 -0.2026  0.7223
 8782TIP3    H247838   5.597   1.441   4.813 -0.5374  1.1877 -0.2474
 8783TIP3   OH247839   5.529   0.957   0.741 -0.2289  0.0989 -0.5540
 8783TIP3    H147840   5.583   1.035   0.744 -1.0641  0.6709  1.8161
 8783TIP3    H247841   5.584   0.891   0.698  0.6238  1.8334 -2.2470
 8784TIP3   OH247842   6.416   2.561  12.013 -0.3939 -0.7648  0.2790
 8784TIP3    H147843   6.384   2.633  12.066  1.7700  0.2297  0.3596
 8784TIP3    H247844   6.442   2.602  11.930  0.4018 -1.5041  0.1431
 8785TIP3   OH247845   1.964   0.347  11.416  0.6349  0.0889  0.3841
 8785TIP3    H147846   2.044   0.301  11.441  0.1292 -1.3656 -0.4956
 8785TIP3    H247847   1.927   0.377  11.498  0.9760 -1.1677  1.0294
 8786TIP3   OH247848   1.295   2.494   1.119 -0.3798  0.1383 -0.0629
 8786TIP3    H147849   1.214   2.518   1.074  0.3461  1.7659 -0.5596
 8786TIP3    H247850   1.313   2.404   1.089 -0.8174  0.5680 -1.7149
 8787TIP3   OH247851   1.661   5.825  10.735  0.0743 -0.2681  0.9554
 8787TIP3    H147852   1.569   5.851  10.731  0.4440  0.9961  0.1372
 8787TIP3    H247853   1.668   5.753  10.672  0.2789  1.8169 -1.5825
 8788TIP3   OH247854   0.547   2.505  14.543 -0.1372  0.4976 -0.0711
 8788TIP3    H147855   0.560   2.417  14.507  0.3056  1.6624 -3.0278
 8788TIP3    H247856   0.453   2.519  14.539 -0.2166  0.1914  0.4658
 8789TIP3   OH247857   3.957   0.099  13.450  0.1563  0.7550 -0.4037
 8789TIP3    H147858   3.917   0.059  13.526 -1.4176  0.6383 -1.2574
 8789TIP3    H247859   4.037   0.140  13.483 -0.1390  0.1095  1.1579
 8790TIP3   OH247860   0.442   3.050  10.998  0.6110  0.4491  0.0489
 8790TIP3    H147861   0.353   3.072  11.028  1.4000  1.9200  1.4869
 8790TIP3    H247862   0.450   3.092  10.913  0.1807  0.9822  0.2679
 8791TIP3   OH247863   6.023   6.165  11.911 -0.0231  0.0468  0.1411
 8791TIP3    H147864   5.947   6.218  11.935  0.2382  0.5153 -0.0648
 8791TIP3    H247865   5.988   6.075  11.906 -0.7665  0.3661 -0.8141
 8792TIP3   OH247866   5.894   5.390  11.810 -0.2576 -0.5214  0.1628
 8792TIP3    H147867   5.825   5.416  11.871 -0.1267  0.7119 -0.1889
 8792TIP3    H247868   5.876   5.440  11.731 -0.4507 -2.1236 -0.8648
 8793TIP3   OH247869   6.592   4.806  13.070  0.2047 -0.0074  0.3391
 8793TIP3    H147870   6.549   4.727  13.104  1.3075 -1.1580 -0.8465
 8793TIP3    H247871   6.532   4.877  13.093 -1.3677 -1.3160  0.4772
 8794TIP3   OH247872   2.513   4.721   1.428 -0.0848  0.8888 -0.0519
 8794TIP3    H147873   2.428   4.756   1.401  1.4300  2.2698 -3.5889
 8794TIP3    H247874   2.550   4.684   1.348  3.3125  1.8106  0.9570
 8795TIP3   OH247875   0.371   0.268  10.669 -0.0571  0.0067 -0.4072
 8795TIP3    H147876   0.290   0.279  10.620 -0.4750 -1.4846 -0.1026
 8795TIP3    H247877   0.432   0.229  10.606 -0.3075 -1.0337 -0.0243
 8796TIP3   OH247878   1.896   0.681  15.385 -0.2977 -0.5995  0.1266
 8796TIP3    H147879   1.866   0.772  15.386 -1.1896 -0.8995  1.1377
 8796TIP3    H247880   1.817   0.629  15.374  0.2019 -1.2690 -0.4143
 8797TIP3   OH247881   0.676   1.340  14.171  0.4889  0.0285  0.1258
 8797TIP3    H147882   0.676   1.412  14.108 -0.2407  1.2363  1.4571
 8797TIP3    H247883   0.747   1.361  14.232 -0.9740  0.7069  1.6627
 8798TIP3   OH247884   0.487   6.124  11.462  0.1826  0.2890  0.4030
 8798TIP3    H147885   0.540   6.199  11.436 -0.3675  0.7701  0.6580
 8798TIP3    H247886   0.544   6.074  11.521  1.0393 -0.2233 -0.8076
 8799TIP3   OH247887   6.246   6.744   4.753  0.1457  0.0189 -0.5795
 8799TIP3    H147888   6.204   6.745   4.839  0.6630 -0.0027 -0.3219
 8799TIP3    H247889   6.202   6.814   4.704  0.7185  0.9082  0.1341
 8800TIP3   OH247890   1.304   6.978   1.691 -0.4762  0.3512 -0.6938
 8800TIP3    H147891   1.399   6.984   1.685 -0.3916  0.6039  0.6372
 8800TIP3    H247892   1.282   6.898   1.644  0.7161 -1.4640  1.6078
 8801TIP3   OH247893   3.605   5.552  12.812 -0.2615 -0.0457 -0.1901
 8801TIP3    H147894   3.546   5.614  12.854  1.7968  1.7451  0.2286
 8801TIP3    H247895   3.604   5.475  12.869 -2.3780 -0.2117 -0.3847
 8802TIP3   OH247896   6.842   2.899  13.904 -0.0528  0.0449  0.1200
 8802TIP3    H147897   6.929   2.865  13.929 -0.5493 -0.0836  1.7920
 8802TIP3    H247898   6.827   2.864  13.816  0.0919 -2.9360  1.1766
 8803TIP3   OH247899   4.055   6.281  12.375 -0.2359  0.0099 -0.0727
 8803TIP3    H147900   4.069   6.265  12.282 -0.9264 -0.1923 -0.1528
 8803TIP3    H247901   3.965   6.250  12.390 -1.0665  2.3540  0.1122
 8804TIP3   OH247902   1.079   0.015  10.805  0.6792  0.1687  0.0422
 8804TIP3    H147903   1.134   0.008  10.727 -0.2732 -0.5430 -0.5763
 8804TIP3    H247904   1.129   0.072  10.864  1.4208  0.6897 -1.0634
 8805TIP3   OH247905   1.338   6.333  10.039 -0.4567  0.1868  0.2972
 8805TIP3    H147906   1.388   6.401   9.995 -0.0296  0.3984  1.0881
 8805TIP3    H247907   1.404   6.279  10.083 -0.7688 -0.8918 -0.5176
 8806TIP3   OH247908   3.237   4.494  11.389  0.3715 -0.1928 -0.2066
 8806TIP3    H147909   3.244   4.589  11.387  0.1932 -0.1845 -1.6499
 8806TIP3    H247910   3.222   4.469  11.298  0.9645 -1.6480  0.0569
 8807TIP3   OH247911   4.008   4.441  11.755  0.2489  0.2409  0.1232
 8807TIP3    H147912   4.102   4.452  11.774  0.1767  2.2965 -0.3869
 8807TIP3    H247913   3.966   4.448  11.841  0.6723 -4.5026  0.9564
 8808TIP3   OH247914   2.301   7.210   2.795 -0.1113  0.5849 -0.0742
 8808TIP3    H147915   2.239   7.179   2.861 -1.8791  1.5956 -1.1753
 8808TIP3    H247916   2.258   7.287   2.756  1.8315  1.3123 -0.9167
 8809TIP3   OH247917   0.288   3.270  12.844 -0.5799 -0.2581 -0.0024
 8809TIP3    H147918   0.368   3.248  12.892  0.1896 -0.2152 -1.2099
 8809TIP3    H247919   0.294   3.219  12.763 -1.3967  0.3290 -0.4465
 8810TIP3   OH247920   4.009   2.932  12.864 -0.6994  0.2068  0.6163
 8810TIP3    H147921   3.980   2.846  12.896 -2.0169  0.2572 -0.3395
 8810TIP3    H247922   4.050   2.914  12.779  0.3875  0.3712  1.0872
 8811TIP3   OH247923   4.415   2.274  14.355  0.2759 -0.3729 -0.0194
 8811TIP3    H147924   4.469   2.242  14.283  1.5604 -0.1979  0.8348
 8811TIP3    H247925   4.385   2.360  14.326 -2.6369 -1.9288 -2.0438
 8812TIP3   OH247926   4.608   5.986  10.598  0.3106  0.4004 -0.2048
 8812TIP3    H147927   4.525   5.957  10.637  0.4219 -0.0612 -0.3124
 8812TIP3    H247928   4.583   6.015  10.510  0.3358 -0.1580 -0.3956
 8813TIP3   OH247929   2.426   0.342  11.119 -0.2966  0.0648  0.5599
 8813TIP3    H147930   2.391   0.341  11.030  0.3109 -0.2082  0.3202
 8813TIP3    H247931   2.417   0.251  11.149 -0.0554  0.0540  0.6001
 8814TIP3   OH247932   6.954   5.037  14.968  0.1863  0.9246  0.2445
 8814TIP3    H147933   6.869   5.026  15.009 -0.8513 -0.0546 -1.9557
 8814TIP3    H247934   6.970   5.131  14.969 -2.0701  1.4189 -1.2792
 8815TIP3   OH247935   4.851   2.583  15.091 -0.8433  0.0918  0.9645
 8815TIP3    H147936   4.782   2.556  15.030 -1.7468  3.0612  0.5469
 8815TIP3    H247937   4.878   2.669  15.061  1.4970 -0.0284  2.4848
 8816TIP3   OH247938   1.975   5.871   0.148  0.4541 -0.2955  0.4773
 8816TIP3    H147939   1.920   5.948   0.137  0.1016 -0.5857  0.1901
 8816TIP3    H247940   1.996   5.843   0.058  1.9435  0.4236  0.5700
 8817TIP3   OH247941   6.224   0.846   1.483  0.6279  0.1277  0.3640
 8817TIP3    H147942   6.153   0.907   1.504  1.0978  0.5188  0.8202
 8817TIP3    H247943   6.293   0.866   1.546  1.6392  0.6023 -0.8506
 8818TIP3   OH247944   4.095   1.021   3.005  0.7234  0.0052  0.2206
 8818TIP3    H147945   4.096   0.926   3.018 -1.6977 -0.0527  0.3932
 8818TIP3    H247946   4.184   1.042   2.976  1.4756 -2.2190  0.7009
 8819TIP3   OH247947   5.131   4.303  14.727 -0.1033 -0.8828 -0.0264
 8819TIP3    H147948   5.101   4.394  14.735  0.2635 -0.7352 -0.2940
 8819TIP3    H247949   5.150   4.292  14.634  0.2723 -1.0979  0.0719
 8820TIP3   OH247950   4.558   5.587   1.536  0.4840  0.2290  0.0227
 8820TIP3    H147951   4.650   5.562   1.535  0.9749  1.6397  2.1279
 8820TIP3    H247952   4.552   5.660   1.475  0.5465 -0.4449 -0.8016
 8821TIP3   OH247953   6.898   4.912  10.772 -0.1238 -0.2490  0.6324
 8821TIP3    H147954   6.835   4.909  10.700  0.8721 -1.1022 -0.2402
 8821TIP3    H247955   6.922   4.821  10.786  1.4296  0.1046  0.4661
 8822TIP3   OH247956   1.927   5.622  13.992  0.0609  0.7977 -0.0282
 8822TIP3    H147957   1.973   5.622  13.908  3.0079 -0.0442  1.4340
 8822TIP3    H247958   1.942   5.534  14.028 -0.4860  1.3578  1.6892
 8823TIP3   OH247959   1.709   4.532  13.224  0.0268  0.0814 -0.1929
 8823TIP3    H147960   1.626   4.484  13.222  0.5073 -0.7618 -1.8683
 8823TIP3    H247961   1.686   4.618  13.259 -1.4011 -0.3919  0.1128
 8824TIP3   OH247962   5.464   0.702  12.913  0.3536  0.0439  0.4257
 8824TIP3    H147963   5.453   0.694  13.008 -0.0543 -0.9362  0.3067
 8824TIP3    H247964   5.381   0.673  12.876  0.9009 -0.6802 -0.2701
 8825TIP3   OH247965   2.506   6.357   1.278  0.0599 -0.5371  0.2096
 8825TIP3    H147966   2.446   6.372   1.351 -0.4753 -1.4165 -0.0351
 8825TIP3    H247967   2.453   6.374   1.200  0.3259 -0.6305  0.0088
 8826TIP3   OH247968   3.393   7.034  14.064  0.5953  0.0915  0.3848
 8826TIP3    H147969   3.334   6.989  14.124  0.0981  1.1126  0.6883
 8826TIP3    H247970   3.434   6.964  14.014 -0.9578 -0.6451  0.0797
 8827TIP3   OH247971   3.242   1.575   1.809  0.1606 -0.0751  0.0864
 8827TIP3    H147972   3.337   1.583   1.812  0.2363 -0.9188  0.4308
 8827TIP3    H247973   3.212   1.611   1.892  0.0590  1.4454 -0.5908
 8828TIP3   OH247974   1.787   1.387   4.359 -0.5150 -0.0342  0.1152
 8828TIP3    H147975   1.736   1.363   4.282 -0.7013  0.0281  0.2191
 8828TIP3    H247976   1.820   1.476   4.340  1.4104 -0.8964 -0.9159
 8829TIP3   OH247977   6.744   5.910  14.153 -0.0102 -0.7462  0.2041
 8829TIP3    H147978   6.837   5.930  14.144 -0.0827  0.0194  0.9857
 8829TIP3    H247979   6.738   5.854  14.230 -0.4865  1.9717  2.3111
 8830TIP3   OH247980   4.683   6.079  11.237  0.3853  0.6865  0.4217
 8830TIP3    H147981   4.702   6.088  11.144  1.6757 -0.2028  0.5805
 8830TIP3    H247982   4.768   6.061  11.277 -0.5256 -1.8298  1.3955
 8831TIP3   OH247983   7.205   4.430  11.648 -0.0369 -0.2665  0.0091
 8831TIP3    H147984   7.269   4.424  11.577  1.2595 -0.6643  1.1847
 8831TIP3    H247985   7.154   4.349  11.641  0.2543 -0.4251 -0.2997
 8832TIP3   OH247986   6.454   2.256   1.464  0.2772 -0.3984  0.7537
 8832TIP3    H147987   6.446   2.166   1.432 -0.4075  0.8814 -3.2983
 8832TIP3    H247988   6.376   2.269   1.518 -1.1451 -1.4744 -0.9158
 8833TIP3   OH247989   1.051   3.840  11.156  0.3534  0.8433  0.6746
 8833TIP3    H147990   1.092   3.818  11.072  0.3223 -1.2132  1.1494
 8833TIP3    H247991   1.112   3.806  11.222  0.1756  2.0544  1.4864
 8834TIP3   OH247992   6.167   4.443   1.268  0.1342  0.2940 -0.7523
 8834TIP3    H147993   6.132   4.525   1.234  0.5635  0.5978 -0.4764
 8834TIP3    H247994   6.229   4.470   1.337  0.2439 -0.2589 -0.6296
 8835TIP3   OH247995   1.736   5.281  14.157 -0.1305 -0.7333  0.4151
 8835TIP3    H147996   1.661   5.339  14.148 -0.4307 -1.1493  0.1744
 8835TIP3    H247997   1.704   5.209  14.212 -0.4838 -1.8543 -1.2010
 8836TIP3   OH247998   5.219   2.427  12.718  0.2440 -0.5078  0.7359
 8836TIP3    H147999   5.158   2.428  12.644 -0.5588  1.2389  1.3630
 8836TIP3    H248000   5.247   2.336  12.725 -0.3357 -0.8718 -1.1581
 8837TIP3   OH248001   0.845   7.128   0.187 -0.0569  0.8439 -0.3487
 8837TIP3    H148002   0.924   7.094   0.146 -0.0954 -0.0197  0.2773
 8837TIP3    H248003   0.875   7.166   0.270 -0.6495 -2.5394  1.5978
 8838TIP3   OH248004   7.168   5.090  12.500  0.0682 -0.0577  0.0340
 8838TIP3    H148005   7.076   5.079  12.478  0.0971  0.2858 -0.2668
 8838TIP3    H248006   7.168   5.137  12.584 -0.0259  1.4135 -0.7661
 8839TIP3   OH248007   2.928   2.288   2.888  0.1818 -0.8700 -0.0529
 8839TIP3    H148008   2.847   2.241   2.867  0.3064 -0.6891 -0.9745
 8839TIP3    H248009   2.968   2.305   2.803  0.4803  0.2995  0.3149
 8840TIP3   OH248010   4.525   2.429  13.618  0.0584  0.1196  0.1999
 8840TIP3    H148011   4.525   2.433  13.522  0.2961  0.0906  0.1979
 8840TIP3    H248012   4.616   2.411  13.641  0.1410  0.8254  0.4566
 8841TIP3   OH248013   1.673   2.229   1.517 -0.4353 -0.0457  0.6552
 8841TIP3    H148014   1.591   2.222   1.469  0.1496  0.7259 -0.5018
 8841TIP3    H248015   1.647   2.230   1.609 -1.5525 -1.7626  0.3956
 8842TIP3   OH248016   6.513   4.048   2.235  0.4428 -0.1078 -0.3074
 8842TIP3    H148017   6.448   3.997   2.186  0.2401  0.2946 -0.4635
 8842TIP3    H248018   6.560   3.983   2.287  2.4467 -0.9642 -2.9688
 8843TIP3   OH248019   4.216   0.555  10.799 -0.3663  0.2618 -0.0257
 8843TIP3    H148020   4.241   0.515  10.715  1.1977  1.1205 -0.0168
 8843TIP3    H248021   4.289   0.533  10.858 -0.9836  0.4974  0.8402
 8844TIP3   OH248022   4.638   1.365  13.800  0.0296  0.0143  0.1489
 8844TIP3    H148023   4.724   1.370  13.841  0.1776 -1.9932  0.1861
 8844TIP3    H248024   4.579   1.340  13.871 -0.6654  1.5585  0.1661
 8845TIP3   OH248025   3.787   6.882  14.608 -0.5486  0.1543 -0.3209
 8845TIP3    H148026   3.729   6.931  14.550 -0.4663  2.2506  1.2305
 8845TIP3    H248027   3.741   6.880  14.692  0.9924  0.6469  0.5775
 8846TIP3   OH248028   3.652   2.552   1.484 -0.0578  0.7381 -0.4604
 8846TIP3    H148029   3.692   2.465   1.480 -0.4261  0.4323  1.6396
 8846TIP3    H248030   3.724   2.613   1.468  0.9737  0.1451  1.6794
 8847TIP3   OH248031   5.161   6.063  14.569 -0.8171  0.8231 -0.1235
 8847TIP3    H148032   5.101   6.079  14.497 -2.2788 -0.8204  0.6538
 8847TIP3    H248033   5.116   5.999  14.624  0.4229  1.6948  2.0330
 8848TIP3   OH248034   1.866   7.104  14.958 -0.2847  0.2152 -0.0177
 8848TIP3    H148035   1.866   7.090  15.053  0.3160 -1.5774 -0.2430
 8848TIP3    H248036   1.955   7.082  14.931 -1.0941 -1.6951 -1.2928
 8849TIP3   OH248037   3.919   4.328  10.983  0.3280 -0.4302  0.0197
 8849TIP3    H148038   4.002   4.346  10.939  0.1343 -1.6355 -0.8785
 8849TIP3    H248039   3.927   4.238  11.013 -0.5914 -0.4972  0.0888
 8850TIP3   OH248040   0.183   1.237  14.416  0.5675  0.0850  0.5592
 8850TIP3    H148041   0.196   1.236  14.321  1.7212  0.9234  0.6810
 8850TIP3    H248042   0.233   1.161  14.447  0.9704  0.3500  0.5689
 8851TIP3   OH248043   5.376   6.194   0.131 -0.4549 -0.1887  0.2141
 8851TIP3    H148044   5.351   6.129   0.196 -0.5843 -1.2661 -0.8793
 8851TIP3    H248045   5.329   6.274   0.157 -0.4181 -0.5546  1.4777
 8852TIP3   OH248046   1.226   4.345  15.214  0.2104 -0.2798  0.1179
 8852TIP3    H148047   1.305   4.292  15.223 -0.7665 -1.4202  2.6202
 8852TIP3    H248048   1.249   4.430  15.251  0.9540  0.2167 -1.4089
 8853TIP3   OH248049   1.970   3.409  15.038 -0.0347  0.5830 -0.0865
 8853TIP3    H148050   1.889   3.421  15.088 -0.0427 -0.2637  0.1156
 8853TIP3    H248051   2.030   3.475  15.073 -1.1495  2.4114 -1.4092
 8854TIP3   OH248052   2.865   5.106  13.555  0.0621 -0.0971  0.0771
 8854TIP3    H148053   2.825   5.186  13.519 -1.4009 -0.2969  1.1522
 8854TIP3    H248054   2.890   5.055  13.478 -0.6460  0.6104 -0.6442
 8855TIP3   OH248055   0.200   1.000   5.320 -0.0330 -0.1045 -0.1348
 8855TIP3    H148056   0.200   0.947   5.241 -2.0155 -0.3672 -0.0261
 8855TIP3    H248057   0.157   1.082   5.294  1.6611  0.8864  0.0582
 8856TIP3   OH248058   6.468   2.850  10.656  0.2129 -0.2690 -0.3415
 8856TIP3    H148059   6.515   2.803  10.725 -0.2429 -1.4390 -0.8042
 8856TIP3    H248060   6.400   2.789  10.627 -1.1742  1.1226 -0.1611
 8857TIP3   OH248061   3.341   4.363   0.478 -0.2193 -0.2008  0.0429
 8857TIP3    H148062   3.387   4.280   0.465  1.0245  0.0564  2.2782
 8857TIP3    H248063   3.258   4.352   0.431  0.4491 -2.2188 -0.7576
 8858TIP3   OH248064   0.407   2.856   5.209 -0.2696  0.0252 -0.2219
 8858TIP3    H148065   0.344   2.812   5.266 -0.0821  2.0590  1.6834
 8858TIP3    H248066   0.356   2.886   5.134 -1.1486 -0.0657  0.3359
 8859TIP3   OH248067   2.955   3.260  10.757  0.0187  0.0308  0.5095
 8859TIP3    H148068   2.868   3.233  10.727  0.4061 -0.2242 -0.3986
 8859TIP3    H248069   3.012   3.244  10.683  0.9049 -0.0845  1.2076
 8860TIP3   OH248070   0.848   5.892   0.448 -0.1094 -0.5907 -0.3805
 8860TIP3    H148071   0.821   5.821   0.506 -1.7849 -0.0126 -0.4262
 8860TIP3    H248072   0.803   5.969   0.481  0.8780  0.2598 -0.9573
 8861TIP3   OH248073   6.536   5.804   0.926  0.2199 -0.4210  0.0518
 8861TIP3    H148074   6.452   5.791   0.971  0.3565  0.4968  0.5963
 8861TIP3    H248075   6.596   5.832   0.995  0.7133 -0.0645 -0.5137
 8862TIP3   OH248076   3.912   2.775   1.126  0.4309  0.4077 -0.1948
 8862TIP3    H148077   3.988   2.739   1.080 -0.4577  1.4100 -2.5831
 8862TIP3    H248078   3.931   2.869   1.134  0.3408  0.3353  1.1040
 8863TIP3   OH248079   4.575   3.110  10.327  0.7209  0.0937 -0.1183
 8863TIP3    H148080   4.572   3.055  10.249  1.6697  2.3071 -1.8518
 8863TIP3    H248081   4.653   3.081  10.374  0.5584 -0.7882 -0.3837
 8864TIP3   OH248082   5.141   3.964  15.311  0.1976 -0.1158  0.1954
 8864TIP3    H148083   5.188   4.016  15.246 -0.3372 -0.4182 -0.4468
 8864TIP3    H248084   5.197   3.887  15.325  0.3388 -0.0240  0.1357
 8865TIP3   OH248085   3.003   6.775   2.800  0.3260  0.4586 -0.1129
 8865TIP3    H148086   3.074   6.771   2.735 -0.1796  0.7067 -0.6913
 8865TIP3    H248087   2.986   6.684   2.823 -0.4180  0.2543 -1.3756
 8866TIP3   OH248088   1.706   2.190  10.888 -0.4947  0.1015 -0.3894
 8866TIP3    H148089   1.748   2.223  10.967  1.5288  1.9296 -2.1123
 8866TIP3    H248090   1.612   2.202  10.904 -0.0626  1.8416  1.1406
 8867TIP3   OH248091   1.328   6.910  13.893 -0.3945  0.0005 -0.4043
 8867TIP3    H148092   1.253   6.968  13.903 -0.4407  0.0291 -0.9055
 8867TIP3    H248093   1.344   6.907  13.799  0.7701  0.6894 -0.2582
 8868TIP3   OH248094   1.104   4.763  12.477  0.0505 -0.2037  0.8593
 8868TIP3    H148095   1.101   4.698  12.547 -1.3735 -0.0346  0.9802
 8868TIP3    H248096   1.017   4.803  12.478 -0.3114 -0.8106 -1.6022
 8869TIP3   OH248097   6.500   1.893  10.962  0.9694  0.8283  0.0920
 8869TIP3    H148098   6.421   1.878  10.909  0.7297  1.6986  0.1932
 8869TIP3    H248099   6.571   1.853  10.911  0.4177 -0.3646  0.2061
 8870TIP3   OH248100   6.625   7.069  12.416  0.4212 -0.6477  0.0478
 8870TIP3    H148101   6.673   6.987  12.430 -0.2243 -1.1228 -0.4534
 8870TIP3    H248102   6.588   7.090  12.502 -2.3746 -2.8131 -0.4647
 8871TIP3   OH248103   4.129   5.688  13.753  0.5461 -0.5273 -0.2387
 8871TIP3    H148104   4.185   5.741  13.696  0.0753 -0.4852 -0.6667
 8871TIP3    H248105   4.056   5.662  13.697  1.2896 -2.5291 -0.3681
 8872TIP3   OH248106   5.627   0.871  13.355 -0.6143 -0.0614 -0.3622
 8872TIP3    H148107   5.606   0.925  13.431 -0.6984  0.3260 -0.6540
 8872TIP3    H248108   5.718   0.846  13.367 -0.3810  0.6678 -0.5244
 8873TIP3   OH248109   1.978   1.626   2.117  0.4755  0.0529  0.4001
 8873TIP3    H148110   1.959   1.533   2.113 -0.0168  0.1608  0.1138
 8873TIP3    H248111   1.986   1.653   2.025 -0.5140  0.5124  0.4338
 8874TIP3   OH248112   0.260   4.111  10.812  0.2668 -0.2401  0.1426
 8874TIP3    H148113   0.266   4.016  10.822 -1.4457 -0.3634  0.2661
 8874TIP3    H248114   0.249   4.144  10.902  0.0171 -0.0057  0.0274
 8875TIP3   OH248115   4.022   4.786  13.863  0.2785  0.2646 -0.1633
 8875TIP3    H148116   4.089   4.801  13.929  0.9874  0.2124 -0.8605
 8875TIP3    H248117   4.070   4.773  13.781 -0.5875  0.5975 -0.7488
 8876TIP3   OH248118   5.625   5.663  11.501 -0.4130  0.0573  0.3635
 8876TIP3    H148119   5.620   5.613  11.583 -0.9567 -0.9989 -0.2886
 8876TIP3    H248120   5.677   5.608  11.443  0.9434  1.3200  0.3372
 8877TIP3   OH248121   5.716   5.936  11.454 -0.5203  0.0709 -0.4634
 8877TIP3    H148122   5.791   5.954  11.512 -3.6799  0.8800  3.9338
 8877TIP3    H248123   5.717   5.841  11.444  2.0316  0.1854 -2.1452
 8878TIP3   OH248124   5.378   0.898  12.667  0.3465  0.6071  0.4642
 8878TIP3    H148125   5.443   0.925  12.602 -0.5456 -1.3671 -1.3556
 8878TIP3    H248126   5.312   0.968  12.666 -0.4466 -0.1021 -1.9790
 8879TIP3   OH248127   4.629   1.797  15.055  0.2117 -0.2979  0.1198
 8879TIP3    H148128   4.583   1.853  15.118 -1.0028  2.0719 -2.6313
 8879TIP3    H248129   4.570   1.724  15.040  0.0005 -0.2935  0.8780
 8880TIP3   OH248130   7.144   2.334  13.387  0.4934  0.2827  0.1797
 8880TIP3    H148131   7.230   2.373  13.375 -0.2726  1.9348 -0.1407
 8880TIP3    H248132   7.102   2.386  13.455 -0.0748 -0.8531  0.7425
 8881TIP3   OH248133   0.928   2.574   2.166  0.4102  0.7165 -0.2293
 8881TIP3    H148134   0.999   2.512   2.149 -0.0615  0.2056 -0.3503
 8881TIP3    H248135   0.848   2.527   2.143 -0.0156  1.0980  0.4140
 8882TIP3   OH248136   2.833   1.166  11.683  0.2829 -0.4867  0.1940
 8882TIP3    H148137   2.914   1.208  11.712  1.4937 -0.8378 -2.3981
 8882TIP3    H248138   2.859   1.076  11.663 -0.4916 -0.3695 -1.5356
 8883TIP3   OH248139   6.497   4.963   1.918 -0.1689 -0.2114 -0.1369
 8883TIP3    H148140   6.415   4.914   1.920 -1.1823  1.4235  1.2508
 8883TIP3    H248141   6.513   4.980   1.825 -0.5808 -1.8070 -0.5287
 8884TIP3   OH248142   5.667   0.460  14.488  0.1445 -0.0418 -0.5914
 8884TIP3    H148143   5.647   0.461  14.582 -0.6951 -3.4166 -0.6109
 8884TIP3    H248144   5.749   0.412  14.482 -0.8311 -1.6565 -1.6667
 8885TIP3   OH248145   2.023   6.662   3.116  0.7782  0.2391  0.1505
 8885TIP3    H148146   2.038   6.625   3.203  1.7402 -1.6781 -0.7716
 8885TIP3    H248147   1.991   6.588   3.064  1.5679  0.9941 -1.4729
 8886TIP3   OH248148   2.263   6.532  14.392  0.1169 -0.1526 -0.5605
 8886TIP3    H148149   2.342   6.586  14.389 -0.1275  0.2054 -3.2825
 8886TIP3    H248150   2.206   6.576  14.454  0.5076  1.9017 -1.5769
 8887TIP3   OH248151   5.973   2.761  12.798 -0.6974  0.4710  0.3674
 8887TIP3    H148152   5.880   2.772  12.778 -0.8077  1.4868  1.3325
 8887TIP3    H248153   6.012   2.845  12.778 -0.2703  0.5396  1.4075
 8888TIP3   OH248154   0.790   6.237  13.154  0.0932 -0.0631 -0.0393
 8888TIP3    H148155   0.789   6.237  13.250  0.4351 -1.0745 -0.0252
 8888TIP3    H248156   0.736   6.312  13.130  1.9382  1.6882  0.9400
 8889TIP3   OH248157   6.337   5.001  15.087 -0.3361 -0.4210 -0.1065
 8889TIP3    H148158   6.408   4.988  15.023 -0.6205 -0.0628 -0.5025
 8889TIP3    H248159   6.364   5.079  15.136 -1.0151  0.4582 -1.0657
 8890TIP3   OH248160   1.944   3.873  13.755 -0.1779 -0.5833  0.8639
 8890TIP3    H148161   2.032   3.889  13.721 -0.3326 -0.0067  0.7172
 8890TIP3    H248162   1.940   3.779  13.767  0.1969 -0.6980  0.1577
 8891TIP3   OH248163   5.758   3.130  10.952  0.5868 -0.0118 -0.3845
 8891TIP3    H148164   5.735   3.155  11.042 -1.5570  0.4212 -0.9831
 8891TIP3    H248165   5.777   3.213  10.908  1.4808 -0.2091 -0.3780
 8892TIP3   OH248166   0.824   1.547   3.723  0.2062  1.0008 -0.5586
 8892TIP3    H148167   0.735   1.572   3.701 -0.0268  0.2640 -0.4932
 8892TIP3    H248168   0.845   1.476   3.662  1.1938  1.9764 -1.3827
 8893TIP3   OH248169   4.231   3.216   3.241  0.0468  0.1078  0.2102
 8893TIP3    H148170   4.197   3.218   3.151  0.8283 -0.1991 -0.0991
 8893TIP3    H248171   4.159   3.251   3.294  0.3493  2.3934 -0.7856
 8894TIP3   OH248172   1.314   6.689  11.629  0.4488  0.1199  0.5660
 8894TIP3    H148173   1.399   6.698  11.588  0.0214  1.5238 -0.0937
 8894TIP3    H248174   1.272   6.774  11.616 -0.8816 -0.3933  1.2595
 8895TIP3   OH248175   0.560   4.304   1.711  0.2926  0.7129 -0.3848
 8895TIP3    H148176   0.512   4.377   1.670  2.0247  1.7747 -0.6393
 8895TIP3    H248177   0.577   4.243   1.639 -0.0477  0.6884 -0.4441
 8896TIP3   OH248178   3.100   0.266   1.238  0.2126  0.0290 -0.4173
 8896TIP3    H148179   3.028   0.245   1.298  0.6224  0.4559  0.2397
 8896TIP3    H248180   3.059   0.317   1.169  0.0933  1.4785  0.6735
 8897TIP3   OH248181   0.707   3.273  12.676  0.4831 -0.0425 -0.7200
 8897TIP3    H148182   0.772   3.210  12.707  0.4042 -0.0220 -0.5115
 8897TIP3    H248183   0.636   3.219  12.642 -0.2974 -0.1029  0.9035
 8898TIP3   OH248184   2.051   0.085  13.494  0.5750  0.2628 -0.5107
 8898TIP3    H148185   1.985   0.022  13.464 -0.0083  0.9636 -0.7109
 8898TIP3    H248186   2.134   0.038  13.484  0.1280 -0.5837 -0.3817
 8899TIP3   OH248187   6.185   1.040   2.195  0.6660  0.0978 -0.1674
 8899TIP3    H148188   6.139   1.031   2.279 -0.9625 -1.1389 -1.1416
 8899TIP3    H248189   6.178   1.133   2.174  1.1126  0.4358  1.0420
 8900TIP3   OH248190   3.352   3.444   1.437  0.4586 -0.6965  0.5432
 8900TIP3    H148191   3.273   3.448   1.383  2.0770 -0.0707 -1.9720
 8900TIP3    H248192   3.370   3.534   1.461  0.5299 -0.8141  0.9435
 8901TIP3   OH248193   0.782   3.542  11.619 -0.0098  0.1474  0.4954
 8901TIP3    H148194   0.709   3.508  11.567  1.6089 -1.2803 -0.9428
 8901TIP3    H248195   0.768   3.503  11.706 -1.4564  0.6714  0.5328
 8902TIP3   OH248196   1.838   2.617  14.438  0.6767  0.3405 -0.1229
 8902TIP3    H148197   1.796   2.687  14.388  1.8237  0.5248 -0.8807
 8902TIP3    H248198   1.896   2.663  14.499 -0.1884  0.0946  0.9091
 8903TIP3   OH248199   0.850   2.297   2.893 -0.0340  0.0411  0.3880
 8903TIP3    H148200   0.899   2.287   2.975  1.3117  1.8428 -0.1362
 8903TIP3    H248201   0.774   2.240   2.904  1.9626 -2.6676  1.3761
 8904TIP3   OH248202   4.094   2.967  11.108 -0.0091  0.1157 -0.3548
 8904TIP3    H148203   4.036   2.997  11.178 -0.1549 -0.4525 -0.2299
 8904TIP3    H248204   4.135   2.888  11.143  0.3251  0.1326 -0.7057
 8905TIP3   OH248205   2.183   6.981   1.633 -1.1266  0.2802 -0.0134
 8905TIP3    H148206   2.102   6.940   1.663 -1.2428 -0.5243 -1.3434
 8905TIP3    H248207   2.252   6.937   1.683 -1.3827 -0.3172 -0.1779
 8906TIP3   OH248208   6.150   0.278  10.411 -0.0049  0.4122 -0.3521
 8906TIP3    H148209   6.222   0.335  10.438 -0.0240  0.9113 -1.3002
 8906TIP3    H248210   6.178   0.190  10.437  0.9460  0.5977 -0.6864
 8907TIP3   OH248211   6.223   2.155   0.223 -0.2608 -0.0118  0.1811
 8907TIP3    H148212   6.141   2.127   0.264 -0.3925 -1.0172 -0.7233
 8907TIP3    H248213   6.218   2.250   0.222 -1.1137 -0.0354  0.7318
 8908TIP3   OH248214   4.480   5.452  10.168 -0.0206  0.3802 -0.0504
 8908TIP3    H148215   4.448   5.383  10.110  0.4369 -0.1195  0.2801
 8908TIP3    H248216   4.403   5.477  10.220  0.2188 -1.2425  1.1637
 8909TIP3   OH248217   2.103   2.990  11.525 -0.2364 -0.1416  0.0871
 8909TIP3    H148218   2.020   3.002  11.479  0.5144 -1.8869 -1.8561
 8909TIP3    H248219   2.080   2.937  11.602 -1.1607  0.8698  0.5328
 8910TIP3   OH248220   4.619   0.168  10.077 -0.2491  0.1905  0.2415
 8910TIP3    H148221   4.675   0.093  10.056 -0.5165 -0.5271  1.9174
 8910TIP3    H248222   4.535   0.148  10.037  0.2242  0.5219 -0.9456
 8911TIP3   OH248223   6.543   0.556  12.356  0.4637  0.5743 -0.1532
 8911TIP3    H148224   6.553   0.504  12.277 -2.8696 -1.5352  0.6084
 8911TIP3    H248225   6.508   0.640  12.325  1.6232  0.7494 -1.0484
 8912TIP3   OH248226   3.546   0.913  11.808 -0.5545 -0.6378  0.1718
 8912TIP3    H148227   3.491   0.859  11.751  0.1275  0.1445 -1.2711
 8912TIP3    H248228   3.485   0.976  11.846 -0.7981 -0.2452 -0.8370
 8913TIP3   OH248229   0.551   3.474   4.795 -0.3777  0.1544  0.1926
 8913TIP3    H148230   0.518   3.553   4.752 -0.0632  0.4700  0.5120
 8913TIP3    H248231   0.645   3.475   4.777 -0.0027  1.0095  1.9541
 8914TIP3   OH248232   6.177   5.053  11.284 -0.0757  0.5347  0.0536
 8914TIP3    H148233   6.096   5.014  11.318  0.7028 -2.5802 -1.3253
 8914TIP3    H248234   6.161   5.061  11.189  0.4011  2.1858  0.0911
 8915TIP3   OH248235   3.601   1.175  14.361 -0.0425  0.0540  0.5153
 8915TIP3    H148236   3.527   1.229  14.387 -1.1043 -0.8287 -0.5381
 8915TIP3    H248237   3.611   1.191  14.268 -0.2508 -1.3870  0.2253
 8916TIP3   OH248238   0.583   3.030  11.402 -0.2625 -0.0669  0.2455
 8916TIP3    H148239   0.555   3.095  11.465 -0.4736  1.0581 -0.9617
 8916TIP3    H248240   0.679   3.038  11.400 -0.3305  0.6864 -0.3743
 8917TIP3   OH248241   6.239   6.912  10.250 -0.5991 -0.1867  0.4946
 8917TIP3    H148242   6.310   6.919  10.186 -0.3334  1.7390  0.9485
 8917TIP3    H248243   6.206   7.001  10.259 -2.5440 -0.9110  0.9226
 8918TIP3   OH248244   6.689   5.496  13.544 -0.4676  0.2089 -0.2768
 8918TIP3    H148245   6.719   5.586  13.534 -0.3195  0.1825 -0.0767
 8918TIP3    H248246   6.641   5.477  13.463 -0.7002  0.5412 -0.2166
 8919TIP3   OH248247   2.310   1.629  14.287 -0.4711  0.1901 -0.2106
 8919TIP3    H148248   2.238   1.677  14.328 -0.2262 -0.8233  1.5488
 8919TIP3    H248249   2.314   1.546  14.336  2.0899  0.3679  0.0242
 8920TIP3   OH248250   6.527   5.852   0.364  0.1084  0.4335 -0.3734
 8920TIP3    H148251   6.548   5.820   0.451  2.9524 -0.6875 -1.3500
 8920TIP3    H248252   6.435   5.828   0.351  0.0156 -0.6195  1.7669
 8921TIP3   OH248253   2.635   1.610  15.356 -1.1351 -0.2857  0.3332
 8921TIP3    H148254   2.573   1.545  15.323 -0.4964 -0.0255 -1.4528
 8921TIP3    H248255   2.707   1.610  15.293  0.0791  0.3754  1.6430
 8922TIP3   OH248256   0.170   3.693  13.536 -0.2852 -0.4026  0.7052
 8922TIP3    H148257   0.121   3.628  13.588 -4.1856  0.4695 -1.5195
 8922TIP3    H248258   0.121   3.774  13.547  1.1470  0.7675 -1.0975
 8923TIP3   OH248259   4.040   4.938  14.771  0.2211 -0.6706 -0.2008
 8923TIP3    H148260   4.074   4.979  14.851 -0.7531  0.5063 -0.3585
 8923TIP3    H248261   4.102   4.867  14.752  0.8702 -0.5132  1.1844
 8924TIP3   OH248262   5.672   2.393   3.767  0.1495 -0.2496  0.2589
 8924TIP3    H148263   5.682   2.365   3.676 -1.7309  0.0471 -0.0833
 8924TIP3    H248264   5.577   2.388   3.783  0.4030  0.0997  2.0758
 8925TIP3   OH248265   6.393   6.333   4.115 -0.1492 -0.0988  0.3343
 8925TIP3    H148266   6.360   6.392   4.048 -1.3574  1.9051  2.5159
 8925TIP3    H248267   6.345   6.251   4.101 -1.3216  0.6919 -0.4637
 8926TIP3   OH248268   2.901   4.295   4.614  0.2772 -0.0117 -0.6635
 8926TIP3    H148269   2.946   4.211   4.606 -0.9482 -0.8091  0.4189
 8926TIP3    H248270   2.809   4.272   4.630  0.0843  1.5035  0.6431
 8927TIP3   OH248271   2.163   0.033   1.993 -0.1356  0.1352  0.2981
 8927TIP3    H148272   2.215   0.023   2.073 -1.1764  0.7194  1.0804
 8927TIP3    H248273   2.117  -0.050   1.983 -2.1580  0.9628  1.9332
 8928TIP3   OH248274   0.281   3.590  11.147  0.9269  0.4863  0.5159
 8928TIP3    H148275   0.243   3.663  11.196  0.7514  1.4700 -1.0146
 8928TIP3    H248276   0.232   3.588  11.065  0.5610 -1.7345  0.7335
 8929TIP3   OH248277   3.480   3.194  12.043 -0.4757  0.0650  0.5841
 8929TIP3    H148278   3.415   3.255  12.007 -0.4652  0.0700  0.5738
 8929TIP3    H248279   3.509   3.235  12.124 -0.2403  0.2227  0.4205
 8930TIP3   OH248280   0.368   0.682  10.835 -0.1683  0.4707 -0.4547
 8930TIP3    H148281   0.278   0.665  10.863 -0.2125  0.5766 -0.5325
 8930TIP3    H248282   0.398   0.599  10.797 -0.2169  0.4222 -0.3874
 8931TIP3   OH248283   1.201   4.052  10.139 -0.1395  0.0663  0.8928
 8931TIP3    H148284   1.131   4.023  10.198 -1.1828  1.4840  0.3989
 8931TIP3    H248285   1.269   4.085  10.198  0.1292 -1.2692  1.3774
 8932TIP3   OH248286   3.430   5.523   3.497 -0.0352 -0.2798 -0.3078
 8932TIP3    H148287   3.357   5.500   3.439  1.5908 -2.0538 -1.7836
 8932TIP3    H248288   3.410   5.479   3.579 -0.6475 -0.7796 -0.7125
 8933TIP3   OH248289   5.671   2.902   3.301  0.3500  0.2563  0.0952
 8933TIP3    H148290   5.623   2.982   3.279  0.4596  0.2092 -0.3272
 8933TIP3    H248291   5.649   2.885   3.393 -1.7144 -0.6498 -0.5182
 8934TIP3   OH248292   4.259   2.192   3.113 -0.2383 -0.3060 -0.7486
 8934TIP3    H148293   4.170   2.173   3.086 -0.6488 -0.6250  0.7394
 8934TIP3    H248294   4.251   2.264   3.175  0.7405  0.9308 -1.9959
 8935TIP3   OH248295   0.576   2.209   2.233 -0.0544 -0.7754 -0.3091
 8935TIP3    H148296   0.637   2.140   2.259 -0.1161 -0.5615  0.4454
 8935TIP3    H248297   0.530   2.173   2.157  1.3785 -0.7133 -1.2250
 8936TIP3   OH248298   2.640   3.495   1.353  0.8106  0.2363 -0.3570
 8936TIP3    H148299   2.550   3.478   1.380 -0.0260  2.7963 -1.2563
 8936TIP3    H248300   2.633   3.535   1.267  3.0130 -1.6965 -1.5448
 8937TIP3   OH248301   5.902   0.158   2.585  0.1319  0.1557 -0.3604
 8937TIP3    H148302   5.994   0.170   2.605 -0.1925 -1.4049  2.5534
 8937TIP3    H248303   5.869   0.246   2.566  1.5571  1.2255  1.7914
 8938TIP3   OH248304   5.497   7.080  10.887  0.3408  0.4589 -0.3248
 8938TIP3    H148305   5.438   7.071  10.962  1.4694 -1.4776  0.4234
 8938TIP3    H248306   5.507   7.175  10.875 -0.4691  0.8163  1.4899
 8939TIP3   OH248307   5.890   6.476  12.981 -0.4122 -0.6321  0.0143
 8939TIP3    H148308   5.871   6.534  12.907  0.5194  1.1052  1.0814
 8939TIP3    H248309   5.812   6.421  12.989 -1.1314  0.1399 -1.3285
 8940TIP3   OH248310   6.547   5.204   4.666  0.5981  0.0973 -0.1933
 8940TIP3    H148311   6.517   5.290   4.694  2.2961  0.9094 -0.7711
 8940TIP3    H248312   6.565   5.157   4.747 -1.1315 -0.0447  0.1429
 8941TIP3   OH248313   5.432   2.586  13.197 -0.4986 -0.0462  0.1002
 8941TIP3    H148314   5.525   2.573  13.177 -0.0218  1.6418  1.0763
 8941TIP3    H248315   5.386   2.532  13.132  1.1378 -0.5866 -0.6646
 8942TIP3   OH248316   4.138   5.377  11.428  0.2970  0.1312  0.4062
 8942TIP3    H148317   4.208   5.443  11.425 -0.7815  1.2635 -0.4412
 8942TIP3    H248318   4.182   5.298  11.460  1.7699  1.0609  0.7838
 8943TIP3   OH248319   0.590   7.108  14.375  0.3806 -0.1465 -0.2360
 8943TIP3    H148320   0.503   7.110  14.335  0.4809  0.3251 -0.4420
 8943TIP3    H248321   0.578   7.057  14.455 -0.6906  1.9965  1.0810
 8944TIP3   OH248322   5.177   3.377  12.017  0.3079 -0.1058 -0.3080
 8944TIP3    H148323   5.217   3.459  12.046 -1.3570  0.1872  1.3729
 8944TIP3    H248324   5.238   3.309  12.047  0.7710  0.4273 -0.0133
 8945TIP3   OH248325   1.334   3.329  15.277 -0.2720  0.5555  0.1599
 8945TIP3    H148326   1.418   3.284  15.286 -0.7993 -0.3886  0.5277
 8945TIP3    H248327   1.271   3.258  15.261 -0.7040  1.3857 -2.2867
 8946TIP3   OH248328   4.600   0.760  10.858 -0.1639 -0.2734  0.3878
 8946TIP3    H148329   4.540   0.705  10.908 -1.4742  0.3410 -0.4493
 8946TIP3    H248330   4.664   0.792  10.922 -0.1213 -1.7515  1.0993
 8947TIP3   OH248331   4.015   2.612  13.734 -0.5323  0.4535 -0.3539
 8947TIP3    H148332   4.081   2.546  13.717 -0.4441  0.1803  0.9523
 8947TIP3    H248333   4.064   2.693  13.746 -0.2163 -0.0301  2.2167
 8948TIP3   OH248334   3.631   1.522   2.206 -0.1281 -0.0983  0.2046
 8948TIP3    H148335   3.613   1.434   2.171 -0.3606  0.6800 -1.7473
 8948TIP3    H248336   3.724   1.535   2.188 -0.2367  0.2919 -0.0702
 8949TIP3   OH248337   2.589   5.252  13.694  0.5185 -0.4087  0.0784
 8949TIP3    H148338   2.602   5.158  13.707  2.4658 -0.0295  1.3158
 8949TIP3    H248339   2.612   5.267  13.602 -0.4461 -1.2064 -0.3122
 8950TIP3   OH248340   3.382   7.124  12.493 -0.3692 -0.6640  0.1682
 8950TIP3    H148341   3.459   7.134  12.548  0.8476 -0.1601 -1.5443
 8950TIP3    H248342   3.330   7.056  12.536 -0.6601  1.2897  3.1690
 8951TIP3   OH248343   6.987   3.663  13.391 -0.1927  0.5678 -0.0375
 8951TIP3    H148344   7.015   3.572  13.375  1.0801  0.7788  0.8537
 8951TIP3    H248345   7.030   3.713  13.322 -0.3244  0.5850 -0.1073
 8952TIP3   OH248346   3.229   0.030   1.281 -0.2998  0.3998  0.3819
 8952TIP3    H148347   3.220   0.122   1.307  0.0842  0.9919 -1.4305
 8952TIP3    H248348   3.321   0.021   1.255 -0.7942  0.0844 -1.4130
 8953TIP3   OH248349   4.025   1.778  12.009 -0.5263  0.3825 -0.0816
 8953TIP3    H148350   3.955   1.799  11.948  0.2590  0.4709 -0.9750
 8953TIP3    H248351   3.994   1.810  12.094 -1.5118  0.5095 -0.4770
 8954TIP3   OH248352   6.359   0.037   9.985  0.0448 -0.1152 -0.2123
 8954TIP3    H148353   6.313   0.031   9.901 -0.3975  1.0719 -0.0729
 8954TIP3    H248354   6.437  -0.018   9.974 -0.2539 -0.3575 -1.2237
 8955TIP3   OH248355   3.105   4.975   0.442 -0.2794  0.2605 -0.3988
 8955TIP3    H148356   3.159   4.908   0.399 -1.0580 -0.2058 -0.6738
 8955TIP3    H248357   3.164   5.016   0.506  1.3164  1.8421 -2.6975
 8956TIP3   OH248358   0.412   1.114  13.142 -0.4169  0.0149  0.1853
 8956TIP3    H148359   0.508   1.115  13.151 -0.5445  0.3239  2.0434
 8956TIP3    H248360   0.395   1.161  13.060  0.9495  2.5961  1.2499
 8957TIP3   OH248361   2.148   3.133  10.433 -0.4579 -0.3098 -0.2084
 8957TIP3    H148362   2.056   3.151  10.452 -0.0952  0.6271  0.8054
 8957TIP3    H248363   2.187   3.219  10.418  0.1483 -0.7357 -1.1554
 8958TIP3   OH248364   5.679   1.106  12.160 -0.0712 -0.2835 -0.5219
 8958TIP3    H148365   5.609   1.161  12.194 -0.8960 -1.3596 -0.4554
 8958TIP3    H248366   5.711   1.154  12.083 -2.1392 -0.6618 -1.6757
 8959TIP3   OH248367   6.796   4.845  12.031 -0.3991 -0.0584  0.2992
 8959TIP3    H148368   6.723   4.867  11.973  0.2181  0.3021 -0.3443
 8959TIP3    H248369   6.836   4.929  12.054  0.2469 -0.3032  0.0822
 8960TIP3   OH248370   0.771   3.574  13.041  0.1484  0.6023  0.0901
 8960TIP3    H148371   0.731   3.582  13.127  0.7703 -1.0228  0.5608
 8960TIP3    H248372   0.697   3.559  12.982 -0.3108  2.0658  0.2663
 8961TIP3   OH248373   6.948   1.467   3.839  0.6226 -0.1863  0.0287
 8961TIP3    H148374   6.904   1.546   3.872 -0.5320  0.8422 -3.5098
 8961TIP3    H248375   6.896   1.395   3.874 -0.9313  0.8346 -0.0367
 8962TIP3   OH248376   1.892   2.643   2.672  0.0236 -0.3499  0.1235
 8962TIP3    H148377   1.831   2.569   2.664 -1.0171  0.1788  2.2095
 8962TIP3    H248378   1.850   2.714   2.624  0.6561 -0.8611 -1.2394
 8963TIP3   OH248379   1.139   1.961   2.385 -0.2686  0.7097 -0.2672
 8963TIP3    H148380   1.099   1.962   2.472  1.2445 -0.5496  0.5058
 8963TIP3    H248381   1.225   1.921   2.399 -0.6191 -1.0770 -2.6171
 8964TIP3   OH248382   5.911   3.996   0.325 -0.3711  0.0527  1.1701
 8964TIP3    H148383   5.864   3.932   0.271 -1.2157  0.9484  0.8311
 8964TIP3    H248384   6.000   3.996   0.289 -0.3576 -0.9161  1.1698
 8965TIP3   OH248385   6.434   2.411   2.296  0.2566  0.1219  0.3413
 8965TIP3    H148386   6.527   2.412   2.273  0.3266  2.2637  0.4831
 8965TIP3    H248387   6.415   2.320   2.316  2.0059 -0.5701 -0.9349
 8966TIP3   OH248388   0.678   4.242   9.812 -0.0691 -0.1975  0.4130
 8966TIP3    H148389   0.619   4.271   9.742 -1.5485  0.4231  1.8608
 8966TIP3    H248390   0.755   4.207   9.766 -1.8319 -1.7033 -1.5744
 8967TIP3   OH248391   3.192   4.210   1.678 -0.2775  0.0252  0.1457
 8967TIP3    H148392   3.219   4.118   1.667  0.0223  0.2214 -0.8138
 8967TIP3    H248393   3.160   4.236   1.592 -0.4821  0.7867  0.4489
 8968TIP3   OH248394   1.979   5.398  14.117  0.4971  0.0817  0.5639
 8968TIP3    H148395   1.913   5.348  14.164  1.0479  0.1056  1.3772
 8968TIP3    H248396   2.021   5.452  14.184  0.8002  0.6567 -0.0791
 8969TIP3   OH248397   3.313   4.525  12.442 -0.2028 -0.1801  0.0626
 8969TIP3    H148398   3.349   4.530  12.531  2.8727  0.7708 -1.1257
 8969TIP3    H248399   3.329   4.435  12.415  1.5263  0.2378 -0.4643
 8970TIP3   OH248400   5.099   0.670  10.361 -0.2512 -0.4131  0.5494
 8970TIP3    H148401   5.085   0.578  10.341 -0.1736 -0.1339 -0.9470
 8970TIP3    H248402   5.031   0.716  10.312  1.2889  0.4664 -0.9055
 8971TIP3   OH248403   1.602   1.396  12.044  0.1664 -0.3243 -0.0246
 8971TIP3    H148404   1.632   1.423  11.957  1.0616  1.1547  0.7026
 8971TIP3    H248405   1.610   1.300  12.043 -1.0918 -0.4668 -1.9829
 8972TIP3   OH248406   2.900   1.726   1.709  0.0515 -0.0122  0.0399
 8972TIP3    H148407   2.987   1.759   1.734  0.5150  0.1597 -1.6203
 8972TIP3    H248408   2.886   1.762   1.621 -1.8248  0.1651  0.3685
 8973TIP3   OH248409   1.709   1.493  13.691 -0.1067 -0.9934 -0.0431
 8973TIP3    H148410   1.622   1.478  13.655 -0.1785 -0.1901 -0.2400
 8973TIP3    H248411   1.737   1.408  13.725 -0.9668 -1.2521  0.0262
 8974TIP3   OH248412   3.616   3.418   2.512  0.1581 -0.1374 -0.5571
 8974TIP3    H148413   3.628   3.455   2.600  3.1579  0.0989 -0.9679
 8974TIP3    H248414   3.605   3.324   2.528  0.3961 -0.0613  0.1145
 8975TIP3   OH248415   4.602   0.881   0.669  0.3211 -0.1278  0.4747
 8975TIP3    H148416   4.674   0.891   0.730 -2.4626  1.1056  3.8642
 8975TIP3    H248417   4.621   0.944   0.599  1.6718  1.5543  2.2345
 8976TIP3   OH248418   0.361   2.709  11.371 -0.0124  0.2103 -0.2568
 8976TIP3    H148419   0.307   2.782  11.400  0.4454  0.2344  0.5875
 8976TIP3    H248420   0.386   2.731  11.282  0.1240  1.0936 -0.0098
 8977TIP3   OH248421   3.529   4.170   9.859 -0.0298 -0.1196  0.2042
 8977TIP3    H148422   3.551   4.087   9.901  0.2871 -0.4349 -0.5798
 8977TIP3    H248423   3.608   4.195   9.812 -1.2839 -1.3775 -2.8363
 8978TIP3   OH248424   6.050   1.862  14.492  0.2279  0.8442 -0.2515
 8978TIP3    H148425   6.022   1.918  14.564 -1.0141  0.8962 -0.7578
 8978TIP3    H248426   6.033   1.773  14.523  2.3502  0.6792  0.6173
 8979TIP3   OH248427   1.738   6.411  13.624  0.7086 -0.4351  0.5228
 8979TIP3    H148428   1.717   6.334  13.677 -0.8912  0.4914  1.3067
 8979TIP3    H248429   1.705   6.389  13.537 -1.9082  0.1761  1.2615
 8980TIP3   OH248430   6.075   4.033  15.412  0.2731 -0.3241  0.1278
 8980TIP3    H148431   6.161   4.066  15.385  1.7460 -4.4302 -0.9692
 8980TIP3    H248432   6.013   4.079  15.355  2.1304  0.0589 -1.6943
 8981TIP3   OH248433   3.944   2.917  14.422 -0.6776  0.1736  0.2634
 8981TIP3    H148434   3.896   2.924  14.339  0.6425  0.7395 -0.4804
 8981TIP3    H248435   3.961   2.823  14.432 -2.8560 -0.1990  1.1223
 8982TIP3   OH248436   4.131   6.322  11.151 -0.9328 -0.2059 -0.2765
 8982TIP3    H148437   4.052   6.355  11.194 -0.6390  0.9918 -0.6340
 8982TIP3    H248438   4.203   6.366  11.195 -0.6130  0.9328 -1.8509
 8983TIP3   OH248439   5.234   6.962  12.070 -0.0558  0.0212  0.1491
 8983TIP3    H148440   5.201   7.046  12.101 -3.1251 -1.3477  0.8996
 8983TIP3    H248441   5.242   6.908  12.148  2.0328 -0.4342 -0.3045
 8984TIP3   OH248442   3.515   1.758  12.419 -0.5792  0.3465 -0.4833
 8984TIP3    H148443   3.581   1.769  12.351 -0.6642  0.8428 -0.4893
 8984TIP3    H248444   3.518   1.840  12.468  0.2170 -0.3901  0.7628
 8985TIP3   OH248445   6.720   4.017  10.246 -0.3569  0.1065 -0.4252
 8985TIP3    H148446   6.681   4.099  10.278  0.4326 -0.3921  2.0613
 8985TIP3    H248447   6.807   4.042  10.216 -0.0071  0.1832  0.5959
 8986TIP3   OH248448   5.827   1.798  15.330  0.8604  0.3238 -0.1900
 8986TIP3    H148449   5.743   1.759  15.352  1.2998  0.1630  1.3678
 8986TIP3    H248450   5.853   1.755  15.249 -0.7990  0.7973 -1.0143
 8987TIP3   OH248451   1.800   3.114  13.921 -0.3094  0.0221  0.7146
 8987TIP3    H148452   1.797   3.210  13.927  0.1471  0.2071 -1.3206
 8987TIP3    H248453   1.837   3.097  13.834 -0.1899 -2.0104  1.1283
 8988TIP3   OH248454   1.743   3.481  11.717  0.2679 -0.5063 -0.2564
 8988TIP3    H148455   1.759   3.554  11.777 -0.8754 -1.6724  1.5805
 8988TIP3    H248456   1.665   3.438  11.752 -0.1950 -1.5422 -2.3600
 8989TIP3   OH248457   2.481   0.537  12.150 -0.1518  0.2520 -1.0124
 8989TIP3    H148458   2.514   0.625  12.134  2.3036 -0.5607 -0.7832
 8989TIP3    H248459   2.448   0.508  12.065 -0.1751  1.0723 -1.2947
 8990TIP3   OH248460   1.920   2.127   1.687  0.1151 -0.1044 -0.0777
 8990TIP3    H148461   1.990   2.191   1.676 -1.4206  1.2496 -3.0884
 8990TIP3    H248462   1.847   2.162   1.635 -1.1688 -3.7951 -1.0268
 8991TIP3   OH248463   6.173   4.416  14.265 -0.0484  0.5151 -0.2335
 8991TIP3    H148464   6.120   4.461  14.332  0.1298 -0.3017  0.4645
 8991TIP3    H248465   6.134   4.329  14.259 -0.3626  0.7310 -1.5533
 8992TIP3   OH248466   6.510   1.095   1.376 -0.3774  0.6319  0.2892
 8992TIP3    H148467   6.471   1.143   1.449 -2.8317 -2.1851  1.0500
 8992TIP3    H248468   6.577   1.040   1.417  2.7710  3.3942 -0.6381
 8993TIP3   OH248469   2.320   6.048  10.602  0.1190 -0.1328  0.3774
 8993TIP3    H148470   2.320   5.997  10.521  0.0466  0.5523 -0.0648
 8993TIP3    H248471   2.228   6.072  10.614  0.1099 -0.3406  0.7406
 8994TIP3   OH248472   0.986   1.345  13.139 -0.1785  0.2614  0.3482
 8994TIP3    H148473   0.946   1.336  13.053 -0.3095  1.4307  0.2723
 8994TIP3    H248474   0.920   1.390  13.192  0.5042  0.9855  0.6079
 8995TIP3   OH248475   6.748   7.002   2.786 -0.1819  0.6508  0.1890
 8995TIP3    H148476   6.832   6.957   2.796 -0.7683 -0.5902 -0.3580
 8995TIP3    H248477   6.754   7.043   2.700 -0.5535 -0.3479 -0.3167
 8996TIP3   OH248478   4.972   1.208   0.823  0.0915 -0.0940 -0.0726
 8996TIP3    H148479   4.986   1.166   0.738 -2.0004 -1.1627  0.0648
 8996TIP3    H248480   4.955   1.300   0.802 -1.0984 -0.4784 -0.8965
 8997TIP3   OH248481   3.881   4.165  14.886 -0.6123 -0.5183 -0.1466
 8997TIP3    H148482   3.872   4.083  14.935  0.3618 -0.6654 -0.1990
 8997TIP3    H248483   3.926   4.140  14.805  0.9116  0.2647  0.4273
 8998TIP3   OH248484   0.161   0.342   0.937 -0.7271  0.2444  0.4145
 8998TIP3    H148485   0.155   0.251   0.966  1.5940  0.6103  2.4813
 8998TIP3    H248486   0.072   0.366   0.912 -1.5241 -2.3754  0.4515
 8999TIP3   OH248487   1.589   5.624   0.792  0.6096  0.2310  0.0604
 8999TIP3    H148488   1.503   5.584   0.804 -0.3608  1.9619 -0.7260
 8999TIP3    H248489   1.648   5.550   0.777 -0.7119 -0.9994  0.7209
 9000TIP3   OH248490   5.713   4.982  14.173 -1.1811  0.2652  0.0788
 9000TIP3    H148491   5.787   5.035  14.144 -2.1692  0.0382 -3.2487
 9000TIP3    H248492   5.685   5.023  14.255 -0.6861  3.6686 -1.2996
 9001TIP3   OH248493   1.260   6.390  14.425 -0.3678 -0.3030 -0.0293
 9001TIP3    H148494   1.237   6.347  14.342 -2.7062 -0.9624  0.8644
 9001TIP3    H248495   1.259   6.483  14.404  0.8557 -0.5000 -1.1126
 9002TIP3   OH248496   2.691   1.443   5.393  0.0819 -0.7024  0.3134
 9002TIP3    H148497   2.765   1.467   5.448 -0.0266 -0.2482  0.2591
 9002TIP3    H248498   2.644   1.525   5.378  1.1142 -0.4573 -1.9690
 9003TIP3   OH248499   6.826   2.602   2.657 -0.0307 -0.6747 -0.4858
 9003TIP3    H148500   6.749   2.606   2.714 -0.5149  3.5388 -1.1572
 9003TIP3    H248501   6.896   2.571   2.715 -1.5037 -1.2869  1.0525
 9004TIP3   OH248502   6.985   6.135  12.059  0.2619  0.1016 -0.0358
 9004TIP3    H148503   6.902   6.177  12.080  0.2636 -0.1754  0.5408
 9004TIP3    H248504   7.051   6.200  12.083  0.2134  0.3234 -0.4989
 9005TIP3   OH248505   4.670   0.433  11.376  0.0269 -0.3537 -0.0827
 9005TIP3    H148506   4.652   0.505  11.436 -0.4803  0.1417 -0.8138
 9005TIP3    H248507   4.632   0.356  11.420  1.0110 -0.2798  0.9246
 9006TIP3   OH248508   3.977   6.954  13.533 -1.1042 -0.2950  0.1182
 9006TIP3    H148509   3.924   6.902  13.472 -0.3031 -0.3147 -0.5808
 9006TIP3    H248510   4.067   6.943  13.502 -0.7748  0.3798  0.8070
 9007TIP3   OH248511   3.811   6.211   0.965 -0.0498 -0.2278  0.1959
 9007TIP3    H148512   3.811   6.173   0.877 -0.4225  0.2012  0.0017
 9007TIP3    H248513   3.740   6.167   1.010 -0.3407  0.0722  0.0397
 9008TIP3   OH248514   1.283   1.942  12.905 -0.0084  0.1515 -0.4934
 9008TIP3    H148515   1.232   1.929  12.985  0.7381  1.1717  0.1646
 9008TIP3    H248516   1.299   1.853  12.873 -1.6614 -0.2171 -0.3951
 9009TIP3   OH248517   6.145   0.839  13.493 -0.6630  0.1003 -0.1790
 9009TIP3    H148518   6.196   0.758  13.495  0.2273  0.6387 -0.5688
 9009TIP3    H248519   6.138   0.865  13.584 -0.2308  0.0240 -0.1217
 9010TIP3   OH248520   5.610   6.878  12.709  0.3542 -0.7019  0.0287
 9010TIP3    H148521   5.525   6.864  12.669  0.0394  2.0929 -0.4826
 9010TIP3    H248522   5.627   6.798  12.759 -1.8292 -1.9429 -1.0923
 9011TIP3   OH248523   5.990   1.951  10.164 -0.2393  0.1917  0.5045
 9011TIP3    H148524   5.977   1.962  10.070  2.9441 -4.6840 -0.8654
 9011TIP3    H248525   5.903   1.929  10.198 -1.3610  1.5460 -1.3258
 9012TIP3   OH248526   4.222   2.510   1.719 -0.0846 -1.0868  0.4833
 9012TIP3    H148527   4.143   2.505   1.774  0.1722  0.0312  0.9725
 9012TIP3    H248528   4.286   2.557   1.772  0.4412 -0.7036 -0.4627
 9013TIP3   OH248529   0.492   5.423   1.462 -1.0678 -0.1173 -0.1652
 9013TIP3    H148530   0.511   5.380   1.545 -1.3566  0.1502  0.0409
 9013TIP3    H248531   0.469   5.351   1.403 -1.2911 -0.2691  0.1042
 9014TIP3   OH248532   2.322   4.230  14.031 -0.4354  0.3823 -0.3471
 9014TIP3    H148533   2.282   4.154  13.989  1.7813  0.3160 -2.5578
 9014TIP3    H248534   2.314   4.211  14.125 -2.5578 -1.1142 -0.7420
 9015TIP3   OH248535   2.297   6.629   2.049 -0.1062  0.4398  0.0663
 9015TIP3    H148536   2.330   6.549   2.008  0.6639  0.1172  1.2602
 9015TIP3    H248537   2.325   6.622   2.141 -0.7516  1.6880  0.3781
 9016TIP3   OH248538   3.459   5.456  10.927 -0.0835 -0.2656 -0.5174
 9016TIP3    H148539   3.472   5.383  10.987 -1.6823  0.5195  0.8683
 9016TIP3    H248540   3.538   5.458  10.874  2.0962 -0.2175  2.4493
 9017TIP3   OH248541   6.765   2.165  13.006  0.2313 -0.2095 -0.1508
 9017TIP3    H148542   6.710   2.117  12.944 -0.3041 -2.0123  1.5846
 9017TIP3    H248543   6.766   2.255  12.974 -1.1814 -0.7772 -1.9425
 9018TIP3   OH248544   0.290   1.793  14.481 -0.0087 -0.1294  0.2639
 9018TIP3    H148545   0.223   1.725  14.485  0.1716 -0.3849 -0.8245
 9018TIP3    H248546   0.319   1.803  14.572 -1.3414 -0.1689  0.7123
 9019TIP3   OH248547   6.292   4.279  11.709  0.1306 -0.6542  0.2963
 9019TIP3    H148548   6.202   4.272  11.740  0.1387  0.2659  0.5739
 9019TIP3    H248549   6.341   4.312  11.784  0.1788  1.4244 -0.5602
 9020TIP3   OH248550   6.678   0.507   5.458 -0.4575  0.1505 -0.0690
 9020TIP3    H148551   6.734   0.441   5.499 -0.2860 -2.0473 -3.4447
 9020TIP3    H248552   6.594   0.500   5.505  0.6527  0.2581  2.0496
 9021TIP3   OH248553   0.744   7.132   9.641  0.1238 -1.1316 -0.2665
 9021TIP3    H148554   0.711   7.147   9.552 -0.0491 -1.4559 -0.2581
 9021TIP3    H248555   0.801   7.055   9.632 -0.0025 -1.2466 -0.0691
 9022TIP3   OH248556   5.251   0.666  10.680 -0.4199 -0.0842 -0.3791
 9022TIP3    H148557   5.302   0.701  10.753 -0.2921  0.6830 -0.8324
 9022TIP3    H248558   5.316   0.644  10.613 -0.6477  0.7392 -0.8911
 9023TIP3   OH248559   5.255   0.540   1.287 -0.1695 -0.4033 -0.2417
 9023TIP3    H148560   5.317   0.483   1.242  3.4296  1.3933  2.0156
 9023TIP3    H248561   5.236   0.610   1.225 -1.5809 -1.9336 -1.6306
 9024TIP3   OH248562   6.330   2.634  12.957  0.1651 -0.0856 -0.0922
 9024TIP3    H148563   6.403   2.678  12.913  0.5856 -0.5887  0.1029
 9024TIP3    H248564   6.315   2.686  13.036 -0.9063  1.1104 -1.0300
 9025TIP3   OH248565   6.460   0.020  11.487 -0.0820  0.5676  0.1663
 9025TIP3    H148566   6.471  -0.075  11.495  3.0112  0.8551  0.2401
 9025TIP3    H248567   6.532   0.057  11.537 -1.5110  3.0211  0.5478
 9026TIP3   OH248568   3.369   4.394   9.877 -0.1409  0.6165 -0.1878
 9026TIP3    H148569   3.391   4.315   9.828 -0.4149  0.5570 -0.2154
 9026TIP3    H248570   3.436   4.399   9.945 -0.4028  0.0923  0.1154
 9027TIP3   OH248571   2.172   0.771  14.983  0.1317  0.2960  0.0657
 9027TIP3    H148572   2.227   0.759  14.906  0.3246  1.2970  0.0275
 9027TIP3    H248573   2.113   0.843  14.960 -0.3721  0.0489  0.5487
 9028TIP3   OH248574   1.633   0.438   4.281  0.2334 -0.1351 -0.4903
 9028TIP3    H148575   1.664   0.476   4.363 -1.4827  2.5910 -0.9545
 9028TIP3    H248576   1.709   0.440   4.223  0.8731  0.0731  0.3318
 9029TIP3   OH248577   3.742   5.847   3.086 -1.0674 -0.3750 -0.2741
 9029TIP3    H148578   3.681   5.777   3.064 -1.0891  0.1011 -1.8617
 9029TIP3    H248579   3.706   5.925   3.043  0.3643  0.0307 -0.7894
 9030TIP3   OH248580   1.974   4.533  10.645 -0.2384  0.1064  0.4569
 9030TIP3    H148581   1.959   4.620  10.681  0.4118  0.0878  0.7736
 9030TIP3    H248582   2.062   4.536  10.609  0.4057 -0.8845  1.8745
 9031TIP3   OH248583   6.161   3.343  13.796 -0.4443 -0.0686 -0.3294
 9031TIP3    H148584   6.080   3.353  13.747 -0.6961  1.0226  0.2899
 9031TIP3    H248585   6.185   3.432  13.822 -0.2128 -0.5826  1.3427
 9032TIP3   OH248586   5.440   1.157   4.877  0.1278  0.7668  0.2633
 9032TIP3    H148587   5.469   1.113   4.957 -1.5150 -1.1228 -0.1050
 9032TIP3    H248588   5.344   1.162   4.886 -0.2014 -0.3893 -1.9831
 9033TIP3   OH248589   0.535   3.127  12.542 -0.6355  0.0042 -0.3256
 9033TIP3    H148590   0.575   3.054  12.495 -0.9704 -0.0606 -0.5064
 9033TIP3    H248591   0.455   3.146  12.494  0.1116  1.3836 -1.0885
 9034TIP3   OH248592   2.323   2.060   2.121  0.7613 -0.3278  0.0279
 9034TIP3    H148593   2.374   2.037   2.198  0.6158  0.6663  0.4293
 9034TIP3    H248594   2.388   2.066   2.050  0.7890 -2.0444 -0.1273
 9035TIP3   OH248595   1.383   0.182  11.265  0.2496  0.0379  0.2716
 9035TIP3    H148596   1.336   0.109  11.305 -0.2438 -0.0418 -0.4402
 9035TIP3    H248597   1.343   0.260  11.301  0.7644 -0.0290  1.0196
 9036TIP3   OH248598   6.053   1.814  14.217 -0.0973  0.4494  0.2496
 9036TIP3    H148599   6.044   1.849  14.306 -1.2474  0.8160  0.0052
 9036TIP3    H248600   6.059   1.719  14.229  1.4046  0.5855  0.8074
 9037TIP3   OH248601   2.994   4.720  13.077 -0.1792  0.6979 -0.5893
 9037TIP3    H148602   2.967   4.678  12.995 -0.4167  1.3795 -0.8634
 9037TIP3    H248603   3.053   4.791  13.049  2.4110 -1.0648 -0.0133
 9038TIP3   OH248604   1.970   0.486   2.646  0.1125  0.5686  0.2776
 9038TIP3    H148605   1.949   0.572   2.608 -0.3937  1.2196  1.9311
 9038TIP3    H248606   1.891   0.434   2.632  0.0680  0.6769  0.1216
 9039TIP3   OH248607   5.517   1.762  10.575 -0.7336  0.4224 -0.0941
 9039TIP3    H148608   5.505   1.686  10.518  1.0041 -0.7725  1.0188
 9039TIP3    H248609   5.604   1.795  10.552 -0.4835  0.6046  1.0671
 9040TIP3   OH248610   4.673   4.747   2.148 -0.0998  0.1584 -0.5269
 9040TIP3    H148611   4.697   4.810   2.216  1.6371  0.9192 -1.7939
 9040TIP3    H248612   4.653   4.666   2.197  0.9635  0.7174  0.8957
 9041TIP3   OH248613   6.480   1.273  12.214  0.2035  0.2917 -0.1020
 9041TIP3    H148614   6.549   1.338  12.208 -0.1007  0.6264  0.0195
 9041TIP3    H248615   6.424   1.303  12.286  0.2768 -0.3031  0.2070
 9042TIP3   OH248616   3.011   0.475  10.339 -0.6417  0.3064 -0.1984
 9042TIP3    H148617   3.103   0.475  10.312 -0.4787  1.4678  0.3038
 9042TIP3    H248618   2.973   0.553  10.299 -0.6131  1.5886  2.0776
 9043TIP3   OH248619   6.911   1.934  12.404 -0.3636 -0.2203 -0.3403
 9043TIP3    H148620   6.885   1.844  12.386 -1.2599  0.1072 -0.7374
 9043TIP3    H248621   6.990   1.926  12.458 -0.6056 -1.2389 -0.1197
 9044TIP3   OH248622   0.407   0.119   1.174  0.3123 -0.0723  0.1341
 9044TIP3    H148623   0.382   0.043   1.226  0.4324  0.3837  0.8583
 9044TIP3    H248624   0.344   0.119   1.101 -0.2929 -0.3099  0.6482
 9045TIP3   OH248625   0.399   2.148  14.950  0.2704 -1.0389  0.3091
 9045TIP3    H148626   0.352   2.077  14.993 -1.1515 -0.2125  0.1545
 9045TIP3    H248627   0.462   2.103  14.893 -1.7359 -2.2751 -1.0831
 9046TIP3   OH248628   1.500   5.639  13.281 -0.0427  0.8135 -0.2397
 9046TIP3    H148629   1.531   5.639  13.191 -0.6235 -0.4365 -0.4731
 9046TIP3    H248630   1.421   5.694  13.280  0.2231  1.1933 -0.3855
 9047TIP3   OH248631   4.817   3.969  12.054 -0.3714 -0.0401 -0.5063
 9047TIP3    H148632   4.779   3.902  11.998 -2.7918  1.1211 -0.3784
 9047TIP3    H248633   4.895   3.999  12.007  0.2755 -2.2690 -0.9709
 9048TIP3   OH248634   2.920   7.059  10.648  0.0053 -0.7380  0.4573
 9048TIP3    H148635   2.954   7.027  10.732  1.6578 -1.3064 -0.3697
 9048TIP3    H248636   2.851   7.121  10.672  0.8265 -0.4343  2.2447
 9049TIP3   OH248637   4.364   4.268  12.908  0.2018 -0.3117  0.2197
 9049TIP3    H148638   4.313   4.334  12.861 -1.7755 -1.3042  0.8549
 9049TIP3    H248639   4.404   4.215  12.839  1.7851  1.4476 -0.3000
 9050TIP3   OH248640   2.305   3.399  14.775 -0.1731  0.3799 -0.1119
 9050TIP3    H148641   2.355   3.351  14.841  1.6282  0.1940 -1.5346
 9050TIP3    H248642   2.313   3.491  14.801  0.9500  0.3520 -0.3093
 9051TIP3   OH248643   4.097   5.520  14.928 -0.1707  0.3139  0.3485
 9051TIP3    H148644   4.111   5.560  14.842  0.4200  0.9414  0.7213
 9051TIP3    H248645   4.023   5.461  14.916 -0.8829  1.3188 -0.2898
 9052TIP3   OH248646   5.324   4.692  12.941 -0.4876 -0.6091  0.4059
 9052TIP3    H148647   5.329   4.597  12.952 -0.9032 -0.8296 -1.0520
 9052TIP3    H248648   5.231   4.712  12.943 -0.4007 -0.2084  0.7706
 9053TIP3   OH248649   2.431   4.967  10.940 -0.3659  0.0755 -0.2086
 9053TIP3    H148650   2.439   4.998  10.850  1.0183  0.1493 -0.0890
 9053TIP3    H248651   2.346   5.000  10.970 -2.1017 -2.1513 -2.2974
 9054TIP3   OH248652   4.619   1.009   0.435  0.5625 -0.5827 -0.0455
 9054TIP3    H148653   4.592   1.000   0.344 -1.2414 -1.1928  0.4958
 9054TIP3    H248654   4.638   1.103   0.445  1.4214 -0.6143 -1.1820
 9055TIP3   OH248655   5.524   5.692   4.950  0.0521  0.1252 -0.0549
 9055TIP3    H148656   5.529   5.609   4.901  1.0335  0.6462 -0.8723
 9055TIP3    H248657   5.609   5.700   4.992  0.5137  1.3995 -1.1555
 9056TIP3   OH248658   1.950   2.344  10.607 -0.2041 -0.5719 -0.2365
 9056TIP3    H148659   1.922   2.371  10.694 -0.8759 -0.7039 -0.4076
 9056TIP3    H248660   2.043   2.322  10.617 -0.2448 -0.4467  0.4111
 9057TIP3   OH248661   2.088   7.084  12.239  0.3000 -0.2866  0.1841
 9057TIP3    H148662   2.118   7.176  12.238  0.6116 -0.3149  2.2006
 9057TIP3    H248663   2.018   7.081  12.174 -1.0111  1.8702  1.3636
 9058TIP3   OH248664   5.073   0.828  13.750 -0.1950 -0.1198  0.3421
 9058TIP3    H148665   5.080   0.740  13.787 -0.1276  0.2652  1.2468
 9058TIP3    H248666   5.160   0.865  13.760 -0.0467 -0.1595 -0.6228
 9059TIP3   OH248667   6.620   0.386  12.964  0.0403 -0.1377  0.4436
 9059TIP3    H148668   6.544   0.444  12.956 -0.1121 -0.3195  0.5700
 9059TIP3    H248669   6.589   0.301  12.934  0.4284 -0.0244 -0.3081
 9060TIP3   OH248670   4.777   0.128  15.367  0.5009 -0.4597 -0.6788
 9060TIP3    H148671   4.858   0.085  15.396  1.1251  0.8101 -0.4626
 9060TIP3    H248672   4.707   0.078  15.408  1.2839 -0.1366  1.1322
 9061TIP3   OH248673   4.128   4.724  14.654 -0.4813 -0.1824 -0.6185
 9061TIP3    H148674   4.181   4.716  14.575  0.3034  0.4582 -0.1692
 9061TIP3    H248675   4.117   4.635  14.686 -2.1086 -0.6397 -2.2663
 9062TIP3   OH248676   5.327   6.936   1.169 -0.3653 -0.4955  0.0154
 9062TIP3    H148677   5.408   6.902   1.207  0.8603  0.6889 -1.3809
 9062TIP3    H248678   5.306   6.876   1.098  0.0475 -0.1016 -0.4520
 9063TIP3   OH248679   5.675   4.998  15.415  0.1921  0.0874 -0.4318
 9063TIP3    H148680   5.764   5.002  15.380  0.0742 -1.0206 -0.9004
 9063TIP3    H248681   5.680   5.042  15.500  1.4044 -0.8025 -0.0128
 9064TIP3   OH248682   5.678   2.317  10.086  0.0984 -0.1100  0.0974
 9064TIP3    H148683   5.681   2.256  10.012 -2.0508 -0.6057  0.3590
 9064TIP3    H248684   5.598   2.367  10.072  1.2042  1.9002  0.5252
 9065TIP3   OH248685   0.223   2.746   0.359  0.1525 -0.0651  0.8709
 9065TIP3    H148686   0.268   2.831   0.367 -0.5900  0.2184  2.3015
 9065TIP3    H248687   0.196   2.725   0.448 -2.8591 -0.0674  0.0477
 9066TIP3   OH248688   5.074   0.387  11.881  0.3346  0.0820  0.1743
 9066TIP3    H148689   5.032   0.322  11.937  2.0036 -0.7869  0.4874
 9066TIP3    H248690   5.153   0.412  11.928  1.1769  0.2018 -1.2533
 9067TIP3   OH248691   6.968   4.571  10.430  0.3982 -0.0219 -0.5593
 9067TIP3    H148692   6.978   4.526  10.346 -0.2823 -0.4413 -0.4292
 9067TIP3    H248693   7.043   4.543  10.482  0.0704 -0.8906 -0.5401
 9068TIP3   OH248694   6.073   2.389  14.098 -0.1237  0.1560 -0.2440
 9068TIP3    H148695   6.044   2.468  14.052 -1.4735 -0.3669 -0.3158
 9068TIP3    H248696   5.993   2.344  14.122  0.5763 -2.7571 -2.8118
 9069TIP3   OH248697   6.526   1.806  12.482  0.1235 -0.5236 -0.6025
 9069TIP3    H148698   6.469   1.737  12.447 -0.2946  0.0440 -1.0829
 9069TIP3    H248699   6.542   1.864  12.407  0.7970 -0.3168 -0.3059
 9070TIP3   OH248700   1.382   5.732   3.502  0.0322  0.1872  0.4075
 9070TIP3    H148701   1.455   5.783   3.538  0.8266 -1.1968  0.8172
 9070TIP3    H248702   1.379   5.653   3.555 -1.2569 -0.1645 -0.1403
 9071TIP3   OH248703   3.655   6.895  12.463  0.1556  0.2177 -0.4504
 9071TIP3    H148704   3.611   6.970  12.504  1.8294  0.9814  0.0563
 9071TIP3    H248705   3.747   6.904  12.489  0.5087 -1.7075 -0.8615
 9072TIP3   OH248706   5.642   5.312  14.952 -0.3370 -0.0328  0.3537
 9072TIP3    H148707   5.668   5.275  14.868 -0.5474  0.0205  0.2650
 9072TIP3    H248708   5.617   5.236  15.005  2.8810 -0.4341  1.5028
 9073TIP3   OH248709   3.793   0.597  10.564  0.6655  0.0866  0.2171
 9073TIP3    H148710   3.871   0.612  10.511  0.5724 -0.4716 -0.0830
 9073TIP3    H248711   3.757   0.515  10.531 -1.5590  1.6227 -1.5684
 9074TIP3   OH248712   7.039   3.450  11.460 -0.1294 -0.1628  0.1407
 9074TIP3    H148713   7.041   3.514  11.531 -0.0597  2.3528 -1.9636
 9074TIP3    H248714   7.128   3.452  11.424  0.1116 -2.1243  0.5516
 9075TIP3   OH248715   0.473   1.236  10.277 -0.5963  0.0642 -0.3938
 9075TIP3    H148716   0.393   1.195  10.309 -1.9843  1.0689 -2.3876
 9075TIP3    H248717   0.488   1.310  10.337 -1.2187 -0.0653 -0.0741
 9076TIP3   OH248718   3.856   4.782  15.368  0.5022 -0.2323  0.5196
 9076TIP3    H148719   3.843   4.745  15.281 -0.8955  0.8874  0.2168
 9076TIP3    H248720   3.800   4.730  15.425 -4.2417  3.1496 -0.4197
 9077TIP3   OH248721   4.395   2.066  11.439 -0.1609 -0.6182  0.5052
 9077TIP3    H148722   4.422   1.999  11.501  0.6239 -1.5960 -0.8503
 9077TIP3    H248723   4.301   2.053  11.429 -0.5070  0.2207  2.2188
 9078TIP3   OH248724   0.546   3.608  10.979 -0.5603  0.7506 -0.1270
 9078TIP3    H148725   0.508   3.689  10.945 -1.2907  0.7485  0.6423
 9078TIP3    H248726   0.498   3.591  11.060  1.1094  0.7747  0.9270
 9079TIP3   OH248727   6.478   1.819   0.067  0.3079  0.6861  0.3034
 9079TIP3    H148728   6.467   1.866   0.150  1.4182  1.6466 -0.0603
 9079TIP3    H248729   6.437   1.876   0.001 -0.5240 -0.0468  0.1579
 9080TIP3   OH248730   6.398   4.177  12.856  0.3778  0.2464  0.4203
 9080TIP3    H148731   6.422   4.243  12.922  0.2118 -0.1624  0.9000
 9080TIP3    H248732   6.320   4.134  12.892 -0.4084  0.7978 -0.5973
 9081TIP3   OH248733   5.224   2.985  10.803  0.5792  0.2398  0.3473
 9081TIP3    H148734   5.310   3.012  10.837  0.5333 -0.1540  0.8055
 9081TIP3    H248735   5.165   3.056  10.828  0.8394  0.6806 -0.2893
 9082TIP3   OH248736   0.284   1.118   2.328  0.5135  0.1411 -0.2910
 9082TIP3    H148737   0.214   1.162   2.281  0.0473 -0.0646  0.2006
 9082TIP3    H248738   0.274   1.147   2.419  0.2298 -0.9310  0.0309
 9083TIP3   OH248739   4.527   2.743   1.730  0.0595  0.8646 -0.2608
 9083TIP3    H148740   4.471   2.753   1.807  0.4535 -0.6518  0.2612
 9083TIP3    H248741   4.606   2.700   1.763 -0.0521 -0.4580 -1.5918
 9084TIP3   OH248742   2.138   1.683   4.856  0.0963 -0.0251 -0.3074
 9084TIP3    H148743   2.191   1.604   4.850 -1.2618 -0.8637 -2.3900
 9084TIP3    H248744   2.055   1.655   4.895 -0.0839  0.5491 -0.2607
 9085TIP3   OH248745   6.702   1.375  11.922 -0.6593 -0.0089 -0.1338
 9085TIP3    H148746   6.725   1.442  11.986  2.3109  0.5243 -1.6021
 9085TIP3    H248747   6.709   1.293  11.970  0.6705  0.4260  0.4674
 9086TIP3   OH248748   3.090   0.105  14.312  0.3007  0.1377 -0.2294
 9086TIP3    H148749   3.023   0.037  14.305 -0.7548  1.1223  0.0745
 9086TIP3    H248750   3.047   0.176  14.359  0.1662  2.4889 -3.5912
 9087TIP3   OH248751   5.264   1.816  12.596 -0.0626  0.0238  0.2132
 9087TIP3    H148752   5.223   1.765  12.526 -0.5751  0.1539  0.4139
 9087TIP3    H248753   5.190   1.859  12.641  0.4624  2.4749 -1.1058
 9088TIP3   OH248754   0.441   2.500   4.371  0.1773 -0.1885  0.2411
 9088TIP3    H148755   0.459   2.513   4.278  2.0199 -1.1234  0.4357
 9088TIP3    H248756   0.454   2.586   4.410  1.8251 -0.2813 -0.0321
 9089TIP3   OH248757   0.242   2.449  11.394  0.0703 -0.1315 -0.4751
 9089TIP3    H148758   0.283   2.535  11.390  0.6505 -0.2941  1.0802
 9089TIP3    H248759   0.256   2.411  11.308  1.6055  0.5412 -0.5471
 9090TIP3   OH248760   3.314   6.488  12.219  0.0698 -0.5605  0.2618
 9090TIP3    H148761   3.327   6.462  12.310 -1.6847 -1.1084  0.3976
 9090TIP3    H248762   3.400   6.480  12.179  0.8575 -0.3736  1.8487
 9091TIP3   OH248763   2.181   5.070   1.433  0.5329  0.0565  0.3373
 9091TIP3    H148764   2.246   5.019   1.384 -1.8659 -2.7554 -0.2242
 9091TIP3    H248765   2.217   5.077   1.521  1.8301 -0.9080 -0.0845
 9092TIP3   OH248766   3.972   3.657   1.222 -0.4000  0.8578  0.4910
 9092TIP3    H148767   3.937   3.683   1.308 -1.0477 -2.5951  1.4427
 9092TIP3    H248768   4.061   3.627   1.240 -0.9435 -1.0439  0.3028
 9093TIP3   OH248769   6.598   0.828   0.780  0.0681 -0.1034  0.8621
 9093TIP3    H148770   6.646   0.751   0.808  1.9391  0.9202  0.5845
 9093TIP3    H248771   6.665   0.892   0.756 -1.3955  1.6604  1.1817
 9094TIP3   OH248772   4.455   6.460  10.837  0.2016 -0.3164  0.1993
 9094TIP3    H148773   4.364   6.485  10.825  0.8669  2.3605  0.2354
 9094TIP3    H248774   4.501   6.498  10.762  1.3535 -1.4878  0.2591
 9095TIP3   OH248775   1.564   0.568   0.545 -0.1423 -0.1942 -0.7907
 9095TIP3    H148776   1.530   0.499   0.602 -1.2471 -1.0014 -2.3337
 9095TIP3    H248777   1.653   0.584   0.576 -0.9649 -0.0085  1.6406
 9096TIP3   OH248778   6.716   2.166  15.072 -0.3690 -0.4297  0.7382
 9096TIP3    H148779   6.672   2.191  15.153  0.8455 -0.2276  1.3732
 9096TIP3    H248780   6.655   2.108  15.028 -3.3138  3.3944 -0.7453
 9097TIP3   OH248781   0.776   6.784  12.395  0.1855  0.6636 -0.0319
 9097TIP3    H148782   0.770   6.726  12.471  1.8033  1.4403  0.7200
 9097TIP3    H248783   0.848   6.747  12.343  1.2032  1.9316  0.4324
 9098TIP3   OH248784   1.318   3.718  12.486  0.0506 -0.5587 -0.6829
 9098TIP3    H148785   1.384   3.786  12.486  0.1340 -0.6299 -1.3958
 9098TIP3    H248786   1.334   3.669  12.405  1.0769 -2.4882  0.6202
 9099TIP3   OH248787   4.194   1.021  12.764  0.0960 -0.6882 -0.9649
 9099TIP3    H148788   4.163   0.931  12.760  2.1801 -1.6224  1.2302
 9099TIP3    H248789   4.268   1.024  12.703  0.4986 -0.6822 -0.4789
 9100TIP3   OH248790   1.840   2.775  10.911 -0.4755 -0.9142 -0.0988
 9100TIP3    H148791   1.916   2.717  10.906  2.0567  2.1384 -0.3514
 9100TIP3    H248792   1.856   2.829  10.988 -1.4363  1.0104 -1.1903
 9101TIP3   OH248793   0.430   3.322   0.877 -0.1739 -0.3451 -0.1089
 9101TIP3    H148794   0.521   3.344   0.897 -0.3102  0.1246  0.0007
 9101TIP3    H248795   0.411   3.372   0.797 -0.9761  1.2388  1.0124
 9102TIP3   OH248796   4.895   1.104   1.059 -0.7620  0.0894 -0.2035
 9102TIP3    H148797   4.984   1.118   1.093 -0.6097  0.0670 -0.5820
 9102TIP3    H248798   4.897   1.144   0.972 -0.2196 -2.4391 -1.4730
 9103TIP3   OH248799   6.405   2.975   0.778  0.5760  0.4981  0.0856
 9103TIP3    H148800   6.393   2.992   0.684 -0.9743  1.2694  0.3879
 9103TIP3    H248801   6.492   3.011   0.798  0.9591  0.2473 -1.0578
 9104TIP3   OH248802   5.517   4.042  13.387  0.1519  0.1191 -0.0379
 9104TIP3    H148803   5.501   4.090  13.468 -0.4715  1.4212 -0.8955
 9104TIP3    H248804   5.483   4.099  13.318  0.7869 -0.8945 -1.2358
 9105TIP3   OH248805   1.101   4.889  10.723  0.0070  0.0546 -0.0695
 9105TIP3    H148806   1.097   4.985  10.733  0.4063 -0.0124  0.8962
 9105TIP3    H248807   1.039   4.856  10.789  0.7828 -0.3755  0.4636
 9106TIP3   OH248808   1.477   6.023  12.012 -0.6714  0.0587  0.0639
 9106TIP3    H148809   1.423   5.948  12.034 -0.0960 -0.9742 -1.8326
 9106TIP3    H248810   1.524   5.997  11.933  0.9892  1.7117  0.4186
 9107TIP3   OH248811   3.971   4.120  11.857  0.3171 -0.5793 -0.5843
 9107TIP3    H148812   3.998   4.121  11.949 -1.5142 -1.6727  0.0259
 9107TIP3    H248813   3.967   4.027  11.834 -2.0238 -0.4861 -0.8321
 9108TIP3   OH248814   4.327   1.707  15.285 -0.4473  0.4174  0.1126
 9108TIP3    H148815   4.303   1.619  15.256 -0.9066  0.3115  0.7934
 9108TIP3    H248816   4.330   1.758  15.204 -2.3078  0.2736 -0.0956
 9109TIP3   OH248817   5.323   5.012  14.861 -0.3947  0.0421  0.1727
 9109TIP3    H148818   5.239   5.029  14.904  1.5174  2.8558  3.2860
 9109TIP3    H248819   5.380   5.084  14.889  3.9743 -3.2263  0.8582
 9110TIP3   OH248820   0.504   1.896   2.404  0.3084  0.1596  0.3035
 9110TIP3    H148821   0.598   1.881   2.416  0.6644  1.0799 -1.0031
 9110TIP3    H248822   0.498   1.935   2.316 -1.0829  1.9159  1.1096
 9111TIP3   OH248823   6.784   6.890  11.953 -0.3447  0.2285  0.0174
 9111TIP3    H148824   6.853   6.941  11.910  0.7476 -1.8137 -0.8396
 9111TIP3    H248825   6.740   6.846  11.881 -0.0774 -1.3805  0.7916
 9112TIP3   OH248826   3.760   5.457  13.654  0.6228 -0.4481  0.0451
 9112TIP3    H148827   3.700   5.443  13.581  0.1167 -1.9711  0.7141
 9112TIP3    H248828   3.830   5.393  13.640  1.0001 -0.1220  0.4186
 9113TIP3   OH248829   3.491   6.830  13.875  0.3014 -0.4970  0.5189
 9113TIP3    H148830   3.476   6.782  13.793 -0.7249 -0.7731  0.8490
 9113TIP3    H248831   3.583   6.856  13.871  0.2935 -0.5912 -0.6772
 9114TIP3   OH248832   4.292   6.573  12.221  0.1656  0.1079  0.0617
 9114TIP3    H148833   4.258   6.486  12.198  0.2965 -0.0528  0.4656
 9114TIP3    H248834   4.219   6.632  12.204  0.6083  0.1686 -1.8784
 9115TIP3   OH248835   6.893   2.320  12.712  0.1969  0.1317  0.0767
 9115TIP3    H148836   6.846   2.346  12.633  0.4153  0.3312  0.0098
 9115TIP3    H248837   6.836   2.346  12.784 -0.3356 -0.7140 -0.0298
 9116TIP3   OH248838   4.706   1.649   0.505  0.0004 -0.2518  0.0587
 9116TIP3    H148839   4.712   1.562   0.546  1.8608 -1.3470 -2.3169
 9116TIP3    H248840   4.712   1.632   0.411  1.0961  2.5012 -0.4589
 9117TIP3   OH248841   6.984   1.489  10.382  0.1370  0.1722 -0.2282
 9117TIP3    H148842   6.980   1.395  10.364 -0.6468  0.0812  0.3590
 9117TIP3    H248843   6.970   1.530  10.296  0.1200 -0.2491 -0.4320
 9118TIP3   OH248844   3.324   0.567  10.471 -0.3565 -0.2907 -0.1670
 9118TIP3    H148845   3.247   0.610  10.509  0.3494  1.3037 -0.4963
 9118TIP3    H248846   3.398   0.619  10.500  0.4540 -0.7458 -1.3458
 9119TIP3   OH248847   0.911   1.578  14.683  0.9400 -0.1603  0.2052
 9119TIP3    H148848   0.990   1.552  14.636  0.5505  0.0898 -0.5976
 9119TIP3    H248849   0.906   1.517  14.757  2.0006 -0.0332  0.3967
 9120TIP3   OH248850   0.352   2.977  12.139  0.0014 -0.3288  0.6130
 9120TIP3    H148851   0.277   3.030  12.164 -0.1028  0.3868 -1.0702
 9120TIP3    H248852   0.369   3.001  12.047  1.4337 -1.4675  0.5402
 9121TIP3   OH248853   5.072   4.784   0.527 -0.3363  0.0183  0.1194
 9121TIP3    H148854   4.996   4.819   0.482  0.3100  0.4506 -0.6745
 9121TIP3    H248855   5.074   4.691   0.503 -1.1518 -0.2288  0.9414
 9122TIP3   OH248856   4.732   4.809  11.019  0.5385 -0.4527  0.3383
 9122TIP3    H148857   4.801   4.786  10.957  0.9485 -0.5814  0.8348
 9122TIP3    H248858   4.737   4.904  11.027  0.4155 -0.4259  0.0946
 9123TIP3   OH248859   4.261   5.787  12.097  0.3385  0.0621 -0.1854
 9123TIP3    H148860   4.233   5.703  12.061 -1.3009  0.2712  0.5087
 9123TIP3    H248861   4.280   5.769  12.189  2.4042 -0.0245 -0.5793
 9124TIP3   OH248862   0.076   3.586  11.449  0.6090 -0.4746  0.3979
 9124TIP3    H148863   0.127   3.512  11.481  1.3793 -0.1339 -0.0113
 9124TIP3    H248864   0.109   3.661  11.498 -0.0881 -0.3762  0.7279
 9125TIP3   OH248865   4.419   2.517  13.077  0.1456  0.2158  0.2492
 9125TIP3    H148866   4.412   2.508  12.982 -0.0187 -0.8174  0.3382
 9125TIP3    H248867   4.489   2.580  13.091 -0.3864  1.0073 -0.5625
 9126TIP3   OH248868   2.130   5.417   3.946  0.8938  0.1182 -0.2521
 9126TIP3    H148869   2.154   5.467   4.024  1.4357 -0.9607  0.2931
 9126TIP3    H248870   2.042   5.382   3.966 -0.0957  1.9396 -1.1956
 9127TIP3   OH248871   3.145   3.910  10.745 -0.6809 -0.3356 -0.1134
 9127TIP3    H148872   3.187   3.828  10.719  1.5883  1.0421 -1.0536
 9127TIP3    H248873   3.171   3.923  10.836 -0.1206 -0.1561 -0.2916
 9128TIP3   OH248874   1.238   1.014   1.906 -0.6177  0.2231 -0.1594
 9128TIP3    H148875   1.189   1.079   1.854  2.3686  1.2458 -1.9646
 9128TIP3    H248876   1.275   0.955   1.841  0.9379 -0.1716  1.0372
 9129TIP3   OH248877   6.179   3.542  11.037 -0.7851 -0.1868 -0.1768
 9129TIP3    H148878   6.133   3.553  11.120 -0.4505 -0.1371  0.0008
 9129TIP3    H248879   6.236   3.618  11.030 -0.6760 -0.2851 -0.3665
 9130TIP3   OH248880   1.282   6.582  14.669 -0.1256  0.3606  0.5838
 9130TIP3    H148881   1.307   6.499  14.629 -3.1727 -0.1024 -0.6812
 9130TIP3    H248882   1.228   6.556  14.745  0.8858  1.2314  1.6305
 9131TIP3   OH248883   3.360   3.585   2.623  0.0980  0.2052  0.1904
 9131TIP3    H148884   3.279   3.627   2.595 -1.0910 -0.5384  2.3269
 9131TIP3    H248885   3.381   3.523   2.553 -1.4172  0.0874 -0.1837
 9132TIP3   OH248886   2.517   4.818  14.240 -0.1340 -0.3804 -0.7317
 9132TIP3    H148887   2.547   4.812  14.150  1.2335  0.1535 -0.3354
 9132TIP3    H248888   2.579   4.878  14.282 -2.5967  2.0388 -0.2263
 9133TIP3   OH248889   1.100   1.309  12.648 -0.0114 -0.3667  0.1982
 9133TIP3    H148890   1.030   1.310  12.713 -0.2423 -1.1079 -0.0320
 9133TIP3    H248891   1.173   1.353  12.691 -0.3078 -0.4441  0.7948
 9134TIP3   OH248892   0.793   4.656  14.505  0.3219 -0.4099  0.2347
 9134TIP3    H148893   0.874   4.691  14.541  1.8812 -1.4579 -1.9513
 9134TIP3    H248894   0.731   4.729  14.508  2.0785  1.1836 -0.1714
 9135TIP3   OH248895   3.968   2.335  13.179  0.4097 -0.5493 -0.0425
 9135TIP3    H148896   3.935   2.421  13.207 -0.9952 -0.8743 -0.5800
 9135TIP3    H248897   4.041   2.316  13.237  2.0729  1.8901 -1.1817
 9136TIP3   OH248898   6.566   7.093  12.126 -0.0534 -0.5058  0.3276
 9136TIP3    H148899   6.658   7.076  12.106  0.2406  0.5943  0.6635
 9136TIP3    H248900   6.566   7.117  12.219 -0.4237  1.1213 -0.0559
 9137TIP3   OH248901   1.614   4.305   1.299 -0.2066  0.2277  0.5941
 9137TIP3    H148902   1.575   4.372   1.355 -0.2439  1.1112 -0.4501
 9137TIP3    H248903   1.675   4.258   1.356  0.5930  1.8340  1.1123
 9138TIP3   OH248904   3.144   7.079   2.319  0.0231 -0.6444 -0.5749
 9138TIP3    H148905   3.131   7.025   2.242 -0.2472  0.3533 -1.2526
 9138TIP3    H248906   3.105   7.029   2.391  1.0804 -1.9916 -0.8983
 9139TIP3   OH248907   4.263   3.412  13.514 -0.2633 -0.1541  0.9677
 9139TIP3    H148908   4.197   3.353  13.477 -0.2199 -0.0589  0.7352
 9139TIP3    H248909   4.218   3.496  13.524 -0.1162 -0.0312  0.6040
 9140TIP3   OH248910   3.398   0.790   4.004 -0.7726  0.2307 -0.3147
 9140TIP3    H148911   3.372   0.699   4.014 -1.9839  0.7565  2.3872
 9140TIP3    H248912   3.381   0.811   3.912 -2.3015 -1.7306 -0.5279
 9141TIP3   OH248913   1.673   3.734   4.106 -0.1835 -0.6288  0.0179
 9141TIP3    H148914   1.665   3.791   4.029 -4.2625  1.6189  1.7572
 9141TIP3    H248915   1.721   3.787   4.169 -0.0312 -0.9971  0.2125
 9142TIP3   OH248916   3.224   6.240   5.148  0.6947 -0.5127  0.0301
 9142TIP3    H148917   3.225   6.157   5.196  2.0134  0.0170  0.9603
 9142TIP3    H248918   3.148   6.232   5.089  0.6563 -2.2732  0.2554
 9143TIP3   OH248919   5.543   0.042   3.095 -0.0753 -0.7206 -0.7352
 9143TIP3    H148920   5.551  -0.030   3.158 -2.0451 -0.7550 -0.4866
 9143TIP3    H248921   5.553   0.000   3.010  0.5794 -0.9842 -0.5427
 9144TIP3   OH248922   5.862   3.442  10.380  0.2509  0.4506  0.3592
 9144TIP3    H148923   5.923   3.461  10.452  0.5254  0.0285  0.2413
 9144TIP3    H248924   5.903   3.370  10.333 -1.1007 -0.9326  1.2109
 9145TIP3   OH248925   3.607   1.981  12.211  0.5025 -0.6800 -0.6607
 9145TIP3    H148926   3.567   2.066  12.193  0.3121 -0.4205  0.8128
 9145TIP3    H248927   3.594   1.930  12.131 -1.5714 -0.1412 -0.7193
 9146TIP3   OH248928   1.693   3.428   1.866  0.0542 -1.1041 -0.1179
 9146TIP3    H148929   1.654   3.514   1.852 -0.6386 -0.7557  3.0574
 9146TIP3    H248930   1.641   3.369   1.811 -1.6294  0.0769  0.1192
 9147TIP3   OH248931   6.373   0.470  10.447  0.1123 -0.1268  0.0016
 9147TIP3    H148932   6.373   0.415  10.369 -0.1687  1.5642 -1.2509
 9147TIP3    H248933   6.456   0.517  10.444 -0.5057  0.9945 -0.0837
 9148TIP3   OH248934   1.374   4.406   0.981  0.2912 -0.0016 -0.8229
 9148TIP3    H148935   1.416   4.327   1.017 -1.0949 -1.7234 -2.7771
 9148TIP3    H248936   1.447   4.467   0.968  1.5018 -1.1528  0.1765
 9149TIP3   OH248937   5.107   3.994  13.608 -0.1965 -0.7319  0.0303
 9149TIP3    H148938   5.015   4.010  13.588 -0.0380  0.3163  0.1059
 9149TIP3    H248939   5.112   4.001  13.704 -0.0372 -0.7769  0.0258
 9150TIP3   OH248940   3.464   7.093  13.317  0.4413 -0.3640  0.0878
 9150TIP3    H148941   3.552   7.068  13.287 -0.0137 -0.6062 -1.0732
 9150TIP3    H248942   3.415   7.112  13.237 -0.3359  0.5825  0.7628
 9151TIP3   OH248943   7.023   5.056  13.633 -0.3365  0.3777 -0.3734
 9151TIP3    H148944   6.949   4.997  13.646 -0.9851  0.2610 -3.6489
 9151TIP3    H248945   7.048   5.083  13.721 -3.1081 -0.9911  0.9673
 9152TIP3   OH248946   3.390   6.201   2.630  0.2596  0.3722  0.5076
 9152TIP3    H148947   3.470   6.149   2.624  2.3198  3.3688  0.1502
 9152TIP3    H248948   3.340   6.177   2.552  1.8703  0.0550 -0.4763
 9153TIP3   OH248949   0.094   6.827   1.200 -0.8666 -0.6716  0.0647
 9153TIP3    H148950   0.051   6.897   1.250  1.1782 -0.5667  1.8081
 9153TIP3    H248951   0.062   6.746   1.240 -2.1527 -0.7342 -1.0300
 9154TIP3   OH248952   3.245   5.403   0.997 -1.0436  0.2835 -0.4767
 9154TIP3    H148953   3.151   5.409   1.014 -0.6899  1.0839  1.4425
 9154TIP3    H248954   3.257   5.448   0.913 -2.1954  1.4069 -0.0666
 9155TIP3   OH248955   2.426   0.891  13.759  0.3060  0.5401  0.1258
 9155TIP3    H148956   2.331   0.888  13.756 -0.0721  4.2995  2.2394
 9155TIP3    H248957   2.451   0.955  13.692  1.1782  0.8113  0.6854
 9156TIP3   OH248958   5.338   2.834  12.782 -0.8856  0.0627  0.1232
 9156TIP3    H148959   5.418   2.837  12.729 -1.5034  0.9795 -0.8016
 9156TIP3    H248960   5.310   2.926  12.787 -0.4121  0.1258  2.7626
 9157TIP3   OH248961   2.953   0.049   3.559 -0.0002 -0.4008  0.0964
 9157TIP3    H148962   3.041   0.011   3.559 -0.0583 -0.5551  1.3581
 9157TIP3    H248963   2.961   0.127   3.503  1.0913 -0.0587  0.6963
 9158TIP3   OH248964   4.802   4.559  13.360 -0.5393  0.4403  0.4495
 9158TIP3    H148965   4.756   4.475  13.365  0.9343 -0.4828 -0.7993
 9158TIP3    H248966   4.738   4.618  13.318 -2.0984  0.3958  2.5849
 9159TIP3   OH248967   2.747   1.866  13.682  0.3585  0.2794 -0.0175
 9159TIP3    H148968   2.841   1.880  13.693  0.1519  1.1542  0.7762
 9159TIP3    H248969   2.711   1.879  13.769 -0.5108  0.0052 -0.3299
 9160TIP3   OH248970   4.107   1.891   0.940 -0.0195 -0.6701  0.0324
 9160TIP3    H148971   4.068   1.945   0.871  1.1667  0.3725  0.1429
 9160TIP3    H248972   4.102   1.946   1.019 -0.0951 -1.2989  0.4735
 9161TIP3   OH248973   6.671   2.085  12.495  0.1417  0.1127  0.3496
 9161TIP3    H148974   6.763   2.064  12.510  0.0642  1.0177  2.3848
 9161TIP3    H248975   6.648   2.037  12.415  1.5746 -2.4707  1.3748
 9162TIP3   OH248976   1.943   2.377   1.019  0.0699 -0.0869 -0.1439
 9162TIP3    H148977   1.926   2.326   1.098  0.3057  0.1352  0.0532
 9162TIP3    H248978   1.968   2.312   0.953 -0.2227 -0.2811 -0.0615
 9163TIP3   OH248979   3.026   0.216  15.219  1.0088 -0.1111 -0.7799
 9163TIP3    H148980   3.041   0.289  15.279 -1.7012 -0.1761  0.0939
 9163TIP3    H248981   3.032   0.255  15.132 -1.0745  1.3978 -0.3293
 9164TIP3   OH248982   1.523   2.671  11.103  0.9891  0.5064 -0.5637
 9164TIP3    H148983   1.535   2.728  11.179  1.0147  1.8784 -1.5529
 9164TIP3    H248984   1.592   2.605  11.111 -0.1927 -0.5808  1.6082
 9165TIP3   OH248985   2.040   3.760   0.870 -0.0531 -0.0406 -0.3582
 9165TIP3    H148986   1.973   3.826   0.888 -1.0496 -1.2056  0.3893
 9165TIP3    H248987   2.064   3.726   0.957  2.2049  0.9688 -0.5234
 9166TIP3   OH248988   4.483   0.481  10.598 -0.1793 -0.4805  0.1670
 9166TIP3    H148989   4.497   0.474  10.693 -1.6733  0.5059  0.4985
 9166TIP3    H248990   4.437   0.400  10.575  0.3479 -0.8077  0.2239
 9167TIP3   OH248991   0.469   1.553  14.673 -0.9939 -0.6997  0.2405
 9167TIP3    H148992   0.471   1.489  14.745  1.0375 -0.4593  0.4728
 9167TIP3    H248993   0.471   1.500  14.594 -0.8859 -0.9505  0.4086
 9168TIP3   OH248994   4.695   3.544   0.709  0.2804 -0.2324  0.2251
 9168TIP3    H148995   4.622   3.607   0.706 -0.9560 -1.5933  0.3558
 9168TIP3    H248996   4.754   3.573   0.639 -0.7786  0.4643 -0.4123
 9169TIP3   OH248997   2.528   2.590   9.469 -0.0836  0.0137  0.0731
 9169TIP3    H148998   2.457   2.652   9.482 -1.0374 -1.1207  0.4523
 9169TIP3    H248999   2.591   2.611   9.537 -1.1477 -0.4365  1.2379
 9170TIP3   OH249000   0.826   0.544  14.332  0.1985 -0.6250  0.1890
 9170TIP3    H149001   0.816   0.457  14.294  2.4285  0.3116 -2.9489
 9170TIP3    H249002   0.879   0.530  14.411  0.8375 -2.0965 -0.4571
 9171TIP3   OH249003   4.033   2.943  10.630 -0.1980 -0.4878  0.1403
 9171TIP3    H149004   4.024   2.997  10.709  2.5629 -0.7587  0.7516
 9171TIP3    H249005   3.988   2.993  10.562  1.3760  2.1795  0.8771
 9172TIP3   OH249006   6.234   0.290  11.869 -0.4391  0.2260 -0.2303
 9172TIP3    H149007   6.324   0.318  11.850 -0.5612  1.3434  0.6756
 9172TIP3    H249008   6.237   0.195  11.866  0.1988  0.2506 -2.6853
 9173TIP3   OH249009   4.682   1.913  11.940  0.2706 -0.1470 -0.4506
 9173TIP3    H149010   4.722   1.967  11.872 -0.3313  0.1304 -0.5915
 9173TIP3    H249011   4.646   1.838  11.893 -0.7974  0.4113 -0.5463
 9174TIP3   OH249012   2.588   2.159  13.830 -0.5801 -0.2745 -0.2454
 9174TIP3    H149013   2.605   2.075  13.874 -1.8481 -0.8774 -0.8449
 9174TIP3    H249014   2.650   2.161  13.757  0.2289 -0.1473  0.4248
 9175TIP3   OH249015   3.374   0.893  10.771 -0.3695  0.4367  0.1543
 9175TIP3    H149016   3.436   0.941  10.715  0.5074 -0.8053 -0.0037
 9175TIP3    H249017   3.348   0.955  10.838 -1.4219  1.9788 -1.5844
 9176TIP3   OH249018   1.511   1.246  11.739 -0.8081 -0.3168  0.3978
 9176TIP3    H149019   1.551   1.258  11.653 -2.0974 -0.2240 -0.2130
 9176TIP3    H249020   1.565   1.179  11.781  1.4532  1.4996  0.5965
 9177TIP3   OH249021   3.698   3.066  13.098  0.1943  0.3417 -0.4170
 9177TIP3    H149022   3.627   3.112  13.143 -0.8270 -1.2147 -0.3525
 9177TIP3    H249023   3.733   3.130  13.036 -2.9012  0.4908 -2.2217
 9178TIP3   OH249024   3.694   1.525  13.737 -0.0609  0.1223 -0.0096
 9178TIP3    H149025   3.779   1.569  13.727  0.8037 -0.8751  2.2116
 9178TIP3    H249026   3.643   1.586  13.791 -0.8610  0.8053 -1.5019
 9179TIP3   OH249027   4.617   2.665  11.843 -0.1053  0.2552 -0.3023
 9179TIP3    H149028   4.605   2.671  11.748  0.9635  0.5645 -0.4424
 9179TIP3    H249029   4.704   2.704  11.858 -0.8990  1.6427  0.9811
 9180TIP3   OH249030   5.547   3.012  12.098  0.2364  0.4521  0.4697
 9180TIP3    H149031   5.607   2.947  12.133  0.2276 -0.8348 -1.7728
 9180TIP3    H249032   5.588   3.096  12.119  2.5712 -0.3738 -0.5564
 9181TIP3   OH249033   3.748   3.692   5.239  0.4009  0.3551  0.0888
 9181TIP3    H149034   3.764   3.778   5.279 -2.7035  1.0539  0.0888
 9181TIP3    H249035   3.720   3.712   5.150 -0.1499 -0.6783  0.0160
 9182TIP3   OH249036   1.263   0.968  14.146  0.7789  0.0881 -0.2078
 9182TIP3    H149037   1.315   0.907  14.095  0.5128 -0.7015  0.4594
 9182TIP3    H249038   1.250   0.926  14.230  1.0216  1.2836  0.4549
 9183TIP3   OH249039   1.604   5.500   1.402 -0.1635 -0.3344  0.1616
 9183TIP3    H149040   1.581   5.460   1.318 -1.9509  0.4760  0.2032
 9183TIP3    H249041   1.647   5.582   1.379  1.2918 -1.0855  0.0779
 9184TIP3   OH249042   4.321   5.956  13.193  0.1311 -0.0629 -0.2027
 9184TIP3    H149043   4.274   5.910  13.262  0.7615 -0.6159 -0.1349
 9184TIP3    H249044   4.259   6.022  13.161 -1.0157 -1.3743 -0.7493
 9185TIP3   OH249045   0.220   0.213  14.870 -0.1423  0.2585  0.4392
 9185TIP3    H149046   0.227   0.234  14.963 -0.2691  4.2298 -0.2816
 9185TIP3    H249047   0.126   0.215  14.852 -0.2543 -2.1016  0.4229
 9186TIP3   OH249048   6.987   3.517   1.342  0.1186  0.1672  0.7874
 9186TIP3    H149049   7.036   3.466   1.407  2.5008 -0.9980 -1.7334
 9186TIP3    H249050   6.910   3.463   1.322  0.9577 -0.9552  0.4780
 9187TIP3   OH249051   3.173   6.558  10.634 -0.4082  0.1179 -0.1678
 9187TIP3    H149052   3.161   6.585  10.543  1.9680 -1.3400 -0.9950
 9187TIP3    H249053   3.227   6.627  10.672 -0.6957  0.2993 -0.0804
 9188TIP3   OH249054   4.254   6.069   0.285  0.2263 -0.1506 -0.0911
 9188TIP3    H149055   4.257   5.991   0.229  2.4910 -0.5477  0.5057
 9188TIP3    H249056   4.333   6.064   0.338 -0.1613  1.9830  0.7911
 9189TIP3   OH249057   3.343   6.604  11.182  0.7908 -0.4406  0.3968
 9189TIP3    H149058   3.360   6.698  11.190  1.0055 -0.3854 -0.5926
 9189TIP3    H249059   3.361   6.584  11.090  0.6175 -1.4270  0.5669
 9190TIP3   OH249060   0.080   1.698   0.211  0.2300 -0.7173 -0.0592
 9190TIP3    H149061   0.064   1.605   0.225 -1.4186 -0.5466 -0.6161
 9190TIP3    H249062   0.028   1.720   0.133  1.3414  0.4688 -0.5004
 9191TIP3   OH249063   2.179   0.165   0.453  0.4127 -0.3027 -0.2728
 9191TIP3    H149064   2.272   0.152   0.436 -0.0232 -1.4061 -2.0695
 9191TIP3    H249065   2.144   0.197   0.370 -1.2585 -2.6041 -0.5399
 9192TIP3   OH249066   6.856   2.234  11.801  0.6738 -0.1816 -0.3712
 9192TIP3    H149067   6.909   2.174  11.853 -0.9774 -0.9002  0.5228
 9192TIP3    H249068   6.799   2.277  11.864  1.5561  2.1273 -1.0301
 9193TIP3   OH249069   3.106   2.379  11.223 -0.6668 -0.0031 -0.1637
 9193TIP3    H149070   3.087   2.316  11.153 -1.6033 -2.6446  2.2683
 9193TIP3    H249071   3.064   2.460  11.194  0.9542 -0.1929 -3.6500
 9194TIP3   OH249072   4.863   2.533  11.631  0.2860  0.0677 -0.3255
 9194TIP3    H149073   4.806   2.457  11.643  1.2961 -0.6368  0.1751
 9194TIP3    H249074   4.875   2.567  11.720  0.5862  0.2434 -0.4332
 9195TIP3   OH249075   5.455   6.923   0.792  0.1327  0.2098  0.4044
 9195TIP3    H149076   5.410   6.873   0.861  1.5319 -3.7044 -1.2660
 9195TIP3    H249077   5.392   6.928   0.721 -0.0416  1.0268  0.6033
 9196TIP3   OH249078   0.196   6.088   4.612  0.2264  0.4936 -0.3378
 9196TIP3    H149079   0.162   6.059   4.528 -0.8588  1.4487 -0.2609
 9196TIP3    H249080   0.118   6.096   4.668  0.9492 -0.4402  0.8676
 9197TIP3   OH249081   4.972   4.343  13.768 -0.1159  0.6126 -0.0484
 9197TIP3    H149082   5.022   4.401  13.825 -0.2600 -0.8023  1.5690
 9197TIP3    H249083   4.885   4.384  13.763 -0.0109  0.9160  0.5192
 9198TIP3   OH249084   6.599   4.970  14.862 -0.6166 -0.7096 -0.3089
 9198TIP3    H149085   6.617   4.903  14.796 -0.7368  0.3807 -1.5002
 9198TIP3    H249086   6.616   5.053  14.817  4.0346  0.1415  2.2740
 9199TIP3   OH249087   0.128   1.516  10.770 -0.4057  0.4880  0.0898
 9199TIP3    H149088   0.165   1.461  10.840 -0.2401  0.3216 -0.1262
 9199TIP3    H249089   0.066   1.459  10.725 -0.4565  0.5728  0.0522
 9200TIP3   OH249090   2.889   3.745  13.651 -0.0451  0.5358  0.2423
 9200TIP3    H149091   2.846   3.701  13.578  1.7831  1.9258 -1.7879
 9200TIP3    H249092   2.930   3.675  13.701  0.4353 -0.3127 -1.2925
 9201TIP3   OH249093   0.077   3.707  13.887 -0.0176  0.0564 -0.4887
 9201TIP3    H149094   0.117   3.714  13.974  0.1775  0.9273 -0.6338
 9201TIP3    H249095   0.133   3.761  13.831 -1.4220  1.4041 -0.6764
 9202TIP3   OH249096   1.461   2.141  14.369 -0.5415  0.5462 -0.3199
 9202TIP3    H149097   1.415   2.201  14.428  1.4631  1.5909  0.2473
 9202TIP3    H249098   1.517   2.197  14.316  1.1918 -0.7891  0.0319
 9203TIP3   OH249099   3.973   0.315  15.055  0.0538 -0.8011  0.3382
 9203TIP3    H149100   4.035   0.305  14.983  0.4084 -1.0269  0.6684
 9203TIP3    H249101   4.015   0.377  15.115 -1.8335  2.3747 -1.3668
 9204TIP3   OH249102   2.259   0.982   2.613  0.1279 -0.0504 -0.5863
 9204TIP3    H149103   2.249   0.896   2.572 -1.4625 -0.8126  1.2588
 9204TIP3    H249104   2.171   1.020   2.611  0.5258  0.9248 -0.0809
 9205TIP3   OH249105   3.768   6.526  10.701 -0.7215 -0.7890 -0.6108
 9205TIP3    H149106   3.767   6.622  10.701  1.5242 -0.6487  2.0048
 9205TIP3    H249107   3.718   6.503  10.779 -0.9460 -1.7748 -1.0365
 9206TIP3   OH249108   0.321   1.727   0.020  0.1113 -0.7250 -0.0572
 9206TIP3    H149109   0.328   1.676   0.100 -0.2176  0.4121  0.7242
 9206TIP3    H249110   0.325   1.818   0.050  0.9781 -0.2793 -1.4226
 9207TIP3   OH249111   5.536   1.751   1.026 -0.4022 -0.0978 -0.3627
 9207TIP3    H149112   5.452   1.709   1.046  0.6478 -1.6890  0.9145
 9207TIP3    H249113   5.540   1.751   0.930 -1.0531 -1.7071 -0.4268
 9208TIP3   OH249114   4.197   5.400  13.644  0.3404  0.1271 -0.4891
 9208TIP3    H149115   4.246   5.340  13.588  2.7746  1.8419 -0.3452
 9208TIP3    H249116   4.105   5.375  13.632  1.1063 -2.2724 -1.9417
 9209TIP3   OH249117   2.908   4.985  12.041 -0.6225  0.5904  0.1196
 9209TIP3    H149118   3.003   4.980  12.035 -0.5476 -0.6062  1.5269
 9209TIP3    H249119   2.892   5.029  12.125 -1.2511 -1.3629  1.0776
 9210TIP3   OH249120   4.633   6.730   1.401 -0.0823 -0.0366 -0.1616
 9210TIP3    H149121   4.595   6.646   1.428 -0.9436  0.4965  0.3320
 9210TIP3    H249122   4.557   6.785   1.381  0.4674  0.6685 -0.3505
 9211TIP3   OH249123   7.208   1.368  13.200  0.1636  0.1117 -0.4966
 9211TIP3    H149124   7.271   1.296  13.196 -1.5213 -1.4875  0.4062
 9211TIP3    H249125   7.222   1.416  13.118  1.7480 -0.8623 -0.8451
 9212TIP3   OH249126   3.972   4.900  11.237 -0.5621  0.2453  0.1308
 9212TIP3    H149127   3.955   4.992  11.216  1.8446  0.9369  0.9273
 9212TIP3    H249128   3.948   4.893  11.330 -1.7059 -0.2195 -0.1877
 9213TIP3   OH249129   4.782   6.740   2.203 -0.1969 -0.1288 -0.1254
 9213TIP3    H149130   4.857   6.685   2.181  0.9677  1.2592  0.1544
 9213TIP3    H249131   4.705   6.686   2.184  0.8672 -1.6664 -0.2545
 9214TIP3   OH249132   0.024   1.068   0.436  0.2758 -0.2491  0.4873
 9214TIP3    H149133  -0.027   1.143   0.468  0.7632 -1.0401  3.3506
 9214TIP3    H249134  -0.036   1.022   0.377 -0.5574  1.5048 -0.1207
 9215TIP3   OH249135   5.632   6.381  12.366 -0.3894  0.2466  0.4209
 9215TIP3    H149136   5.668   6.467  12.342 -0.7364  0.4730  0.7104
 9215TIP3    H249137   5.629   6.333  12.283 -0.3847  0.5839  0.2219
 9216TIP3   OH249138   0.854   4.312   4.290 -0.2097  0.1136  0.6378
 9216TIP3    H149139   0.825   4.272   4.208  0.1821 -1.1826  1.1022
 9216TIP3    H249140   0.865   4.238   4.350 -1.8344  1.1482  2.2945
 9217TIP3   OH249141   0.754   2.287   9.690  0.0201  0.3049 -0.4021
 9217TIP3    H149142   0.664   2.317   9.685 -0.3141 -0.2698  1.4369
 9217TIP3    H249143   0.748   2.191   9.682  0.0842 -0.0461  2.6732
 9218TIP3   OH249144   0.564   7.097  10.424 -0.2038 -0.1047  0.0340
 9218TIP3    H149145   0.490   7.066  10.372 -0.3118 -1.1283  0.7593
 9218TIP3    H249146   0.639   7.047  10.392 -0.4303 -1.3791  1.4073
 9219TIP3   OH249147   6.109   6.181   0.955 -0.1931  0.2538 -0.8630
 9219TIP3    H149148   6.018   6.156   0.939  0.5647 -2.2421 -1.8236
 9219TIP3    H249149   6.149   6.103   0.994  1.3859  1.5510  0.2756
 9220TIP3   OH249150   6.986   1.199  11.949 -0.2577  0.0641 -0.1627
 9220TIP3    H149151   6.947   1.149  12.021 -0.0052 -0.6875 -0.5398
 9220TIP3    H249152   6.954   1.156  11.870  1.1311 -0.4418 -0.4829
 9221TIP3   OH249153   4.812   0.077   1.134  0.2928 -0.0165 -0.7954
 9221TIP3    H149154   4.720   0.090   1.157  0.6996  0.2198  0.7635
 9221TIP3    H249155   4.815  -0.009   1.092 -0.2105 -1.3772  1.8117
 9222TIP3   OH249156   2.907   6.440  11.740  0.1681 -1.0869 -0.0964
 9222TIP3    H149157   2.854   6.389  11.802 -0.5630 -1.0907 -0.7055
 9222TIP3    H249158   2.992   6.449  11.783 -0.5524 -0.4128  1.2642
 9223TIP3   OH249159   2.901   6.351   0.338 -0.3918 -0.0749  0.5061
 9223TIP3    H149160   2.815   6.331   0.300  0.8684 -0.2789 -2.4793
 9223TIP3    H249161   2.881   6.408   0.413 -3.0999  0.1246 -0.2552
 9224TIP3   OH249162   4.158   4.625  10.568 -0.2807 -0.3756  0.1516
 9224TIP3    H149163   4.133   4.697  10.626 -1.7534 -1.6800  1.2239
 9224TIP3    H249164   4.253   4.623  10.572 -0.2099  1.4129  0.1858
 9225TIP3   OH249165   0.513   1.546   9.953  0.1849  0.4730  0.4452
 9225TIP3    H149166   0.444   1.528   9.889  0.1997  0.1698  0.5115
 9225TIP3    H249167   0.512   1.470  10.011  0.3777  0.6035  0.6231
 9226TIP3   OH249168   4.123   6.660   2.081  0.2690  0.2442  0.0408
 9226TIP3    H149169   4.084   6.592   2.136 -0.3943  0.4199 -0.2048
 9226TIP3    H249170   4.091   6.742   2.118 -0.3947  0.3564 -0.7601
 9227TIP3   OH249171   0.777   2.124  11.971  0.1155  0.4484  0.4218
 9227TIP3    H149172   0.739   2.045  11.933  1.2768  0.3742 -0.6630
 9227TIP3    H249173   0.813   2.171  11.896 -0.0627  1.7316  1.1253
 9228TIP3   OH249174   6.912   1.772   3.806 -0.1478 -0.1474  0.5695
 9228TIP3    H149175   6.862   1.724   3.872  0.6080 -0.0027  1.2609
 9228TIP3    H249176   6.845   1.816   3.754 -0.8240 -1.3563  0.3684
 9229TIP3   OH249177   5.062   3.132  12.645  0.7395  0.2233 -0.0215
 9229TIP3    H149178   5.008   3.060  12.610  0.2416 -0.0102  1.1654
 9229TIP3    H249179   5.092   3.179  12.567 -0.2586 -0.3128 -0.7641
 9230TIP3   OH249180   4.484   2.053  10.330 -0.1395 -0.3174 -0.2539
 9230TIP3    H149181   4.563   2.012  10.365  0.4512  0.8170 -0.1972
 9230TIP3    H249182   4.498   2.147  10.343 -0.6914  0.0308 -1.9177
 9231TIP3   OH249183   0.329   2.037  15.231  0.4044 -0.8064 -0.6697
 9231TIP3    H149184   0.250   2.012  15.278  0.2356 -2.1993 -1.6566
 9231TIP3    H249185   0.374   2.098  15.291 -2.0680  1.1669 -0.6710
 9232TIP3   OH249186   6.459   0.624   2.375 -0.0101 -0.4652  0.1984
 9232TIP3    H149187   6.390   0.585   2.320  0.3658  0.5059 -1.0145
 9232TIP3    H249188   6.535   0.569   2.358  0.1835  0.0010 -0.5253
 9233TIP3   OH249189   4.298   2.445  10.595  0.1903 -0.6570  0.1569
 9233TIP3    H149190   4.232   2.514  10.600  0.0535 -0.8570  1.4686
 9233TIP3    H249191   4.374   2.481  10.641 -0.3235 -1.8126  2.0484
 9234TIP3   OH249192   5.835   5.132  13.120 -0.1158  0.2488 -0.4176
 9234TIP3    H149193   5.878   5.109  13.203 -0.4116  1.6718  0.1591
 9234TIP3    H249194   5.762   5.070  13.115  2.3255 -2.7850 -1.8431
 9235TIP3   OH249195   3.641   6.202   1.481  0.0255  0.1784 -0.3816
 9235TIP3    H149196   3.639   6.298   1.480 -0.3587  0.1640 -1.0388
 9235TIP3    H249197   3.550   6.176   1.469  0.4290 -0.2812 -2.8009
 9236TIP3   OH249198   1.066   0.316  14.970  0.0140 -0.0762 -0.2651
 9236TIP3    H149199   1.012   0.308  14.891  0.4934  3.3051 -1.1071
 9236TIP3    H249200   1.156   0.318  14.937  0.3906 -0.8689  0.6540
 9237TIP3   OH249201   2.614   3.201  10.046  0.3978 -0.4094 -0.0476
 9237TIP3    H149202   2.586   3.291  10.032 -2.2912 -1.2460 -0.7128
 9237TIP3    H249203   2.594   3.157   9.963  0.9229 -1.7790  0.5182
 9238TIP3   OH249204   5.954   0.086  14.364  0.3660 -0.0336  0.6845
 9238TIP3    H149205   6.007   0.050  14.436  1.0013  1.7196  1.1564
 9238TIP3    H249206   5.961   0.022  14.294 -0.0183 -1.6495  2.0794
 9239TIP3   OH249207   2.469   6.489  12.571  0.1546  0.4341 -0.7485
 9239TIP3    H149208   2.394   6.493  12.629  0.6833  2.2864 -0.1108
 9239TIP3    H249209   2.482   6.580  12.542  1.3090 -0.0690 -1.9160
 9240TIP3   OH249210   2.721   5.481  14.193 -0.1407 -0.2545 -0.2844
 9240TIP3    H149211   2.745   5.493  14.285 -0.1698  0.8334 -0.4085
 9240TIP3    H249212   2.657   5.550  14.175 -2.5975 -2.3876 -0.2779
 9241TIP3   OH249213   2.486   3.247  14.891 -0.4738  0.0232 -0.2564
 9241TIP3    H149214   2.567   3.267  14.939  0.0752 -2.5773  0.0406
 9241TIP3    H249215   2.516   3.216  14.805 -1.3596  2.2549 -1.4514
 9242TIP3   OH249216   1.372   4.649  12.431 -0.3783  0.2852  0.3164
 9242TIP3    H149217   1.295   4.705  12.446 -2.3695 -1.6854 -1.6458
 9242TIP3    H249218   1.370   4.586  12.502  0.3734  1.1217  1.1084
 9243TIP3   OH249219   5.479   3.905  10.261 -0.6518 -0.2203  0.1794
 9243TIP3    H149220   5.480   3.847  10.337  0.3425  0.1646  0.4814
 9243TIP3    H249221   5.437   3.985  10.292  1.2005  0.5563  0.8435
 9244TIP3   OH249222   3.691   4.026  10.748  0.4918 -0.3982 -0.0603
 9244TIP3    H149223   3.631   4.016  10.674 -2.4100  0.5402  2.0088
 9244TIP3    H249224   3.723   4.116  10.741 -0.7944  0.1154  0.5098
 9245TIP3   OH249225   6.755   1.082  10.690 -0.0205  0.6146  0.1356
 9245TIP3    H149226   6.805   1.029  10.629 -0.9850 -1.0589  0.7310
 9245TIP3    H249227   6.673   1.100  10.644 -0.1500  0.6117  0.3653
 9246TIP3   OH249228   6.198   3.630  13.873 -0.1771 -0.5567 -0.0082
 9246TIP3    H149229   6.152   3.642  13.956 -0.5918 -0.8921 -0.1882
 9246TIP3    H249230   6.134   3.655  13.806  0.2200 -0.0933 -0.2249
 9247TIP3   OH249231   2.492   4.716  12.931  0.1780 -0.6045  0.0959
 9247TIP3    H149232   2.543   4.696  13.009  0.5117  0.5134  0.1859
 9247TIP3    H249233   2.557   4.736  12.864 -0.0327  2.6347  0.6796
 9248TIP3   OH249234   2.216   7.215  14.506 -0.7322  0.6910  0.2092
 9248TIP3    H149235   2.180   7.260  14.430  0.9257  0.3395 -0.8544
 9248TIP3    H249236   2.157   7.236  14.578 -0.7744  3.4595 -0.5200
 9249TIP3   OH249237   6.966   2.708  13.322 -0.3096  0.3339  0.9605
 9249TIP3    H149238   6.994   2.776  13.383 -0.2382 -0.3797  1.7335
 9249TIP3    H249239   6.937   2.635  13.377  1.8653 -1.2295  0.2125
 9250TIP3   OH249240   2.113   6.441   2.430  0.2436 -0.0495 -0.0950
 9250TIP3    H149241   2.031   6.482   2.403 -0.9084 -1.1957  1.5271
 9250TIP3    H249242   2.104   6.350   2.403  1.5575  0.0766 -1.0513
 9251TIP3   OH249243   5.824   3.164   3.408 -0.1815 -0.4974  0.3481
 9251TIP3    H149244   5.866   3.087   3.447  0.0608 -0.1638  0.7493
 9251TIP3    H249245   5.799   3.218   3.482  0.7241  0.3728  0.0282
 9252TIP3   OH249246   1.967   4.947   2.851  0.3566 -0.2234 -0.1905
 9252TIP3    H149247   1.914   4.956   2.772  0.6553  1.4426 -0.2479
 9252TIP3    H249248   2.049   4.908   2.821  0.8659  1.3311 -0.9272
 9253TIP3   OH249249   4.523   3.829  12.172  0.4151  0.2662  0.4378
 9253TIP3    H149250   4.554   3.743  12.202 -1.2206 -0.8060 -0.7158
 9253TIP3    H249251   4.548   3.832  12.080 -2.7404 -0.7032 -0.5815
 9254TIP3   OH249252   4.413   1.548   0.747 -0.2009 -0.3831 -0.5269
 9254TIP3    H149253   4.400   1.499   0.829  0.7334 -2.4874 -1.5507
 9254TIP3    H249254   4.501   1.524   0.719  1.0806  3.3915 -0.2453
 9255TIP3   OH249255   5.125   4.538  13.909  0.8785  0.8035  0.0472
 9255TIP3    H149256   5.122   4.516  14.002 -0.1215 -1.6816 -0.4914
 9255TIP3    H249257   5.214   4.569  13.895  2.0850 -1.7278  1.3044
 9256TIP3   OH249258   5.333   0.692  14.807  0.2303 -0.5555 -0.1157
 9256TIP3    H149259   5.396   0.738  14.863 -0.7707 -0.0023  0.5825
 9256TIP3    H249260   5.387   0.636  14.751  1.6179  2.2074 -1.7661
 9257TIP3   OH249261   4.525   2.089  15.010  0.2095  0.7312 -0.5826
 9257TIP3    H149262   4.550   2.120  14.923  2.0911 -0.8087 -0.6574
 9257TIP3    H249263   4.516   1.994  15.000 -1.3209  0.7354  0.5226
 9258TIP3   OH249264   3.708   1.630   1.426 -0.6539  0.0962  0.1591
 9258TIP3    H149265   3.645   1.603   1.359 -3.0475  0.5059  2.0661
 9258TIP3    H249266   3.685   1.577   1.503  0.9064  0.7594  1.1257
 9259TIP3   OH249267   4.197   4.729   3.849 -0.5332  0.2463 -0.1014
 9259TIP3    H149268   4.263   4.769   3.791 -0.8302  0.1305 -0.5242
 9259TIP3    H249269   4.124   4.790   3.848 -0.3203  0.5210  0.6091
 9260TIP3   OH249270   0.942   4.101  11.249  0.2751 -0.1093 -0.2477
 9260TIP3    H149271   0.979   4.015  11.228  2.7998  0.6416  0.7374
 9260TIP3    H249272   0.923   4.096  11.343  2.0850  0.8749  0.2304
 9261TIP3   OH249273   0.097   5.726   1.346 -0.0817 -0.0536  0.1257
 9261TIP3    H149274   0.164   5.678   1.395  0.6743  0.5582 -0.2836
 9261TIP3    H249275   0.141   5.806   1.319 -0.3997 -0.4577 -1.7202
 9262TIP3   OH249276   5.581   3.194  12.767  0.2392 -0.1178  0.7338
 9262TIP3    H149277   5.558   3.202  12.860 -1.2547 -0.1817  0.3935
 9262TIP3    H249278   5.498   3.206  12.720  1.0810  0.5514 -0.6354
 9263TIP3   OH249279   6.004   0.547  15.260  0.2097 -0.5047  0.1415
 9263TIP3    H149280   5.978   0.635  15.285 -1.2753 -0.9901  0.4137
 9263TIP3    H249281   6.034   0.506  15.341 -0.4452 -0.6880  0.2971
 9264TIP3   OH249282   0.353   0.712   3.145  0.2100 -0.3926 -0.2114
 9264TIP3    H149283   0.441   0.674   3.149  0.1257 -0.7432 -1.4957
 9264TIP3    H249284   0.331   0.729   3.237  1.1289 -1.4218  0.2283
 9265TIP3   OH249285   3.783   4.192   1.329  0.1284  0.2644  0.1456
 9265TIP3    H149286   3.724   4.121   1.354  0.1161  0.1093 -0.3045
 9265TIP3    H249287   3.745   4.270   1.369  1.4605 -0.3071  2.7386
 9266TIP3   OH249288   2.309   2.039   3.638  0.5326  0.0143  0.7283
 9266TIP3    H149289   2.308   1.996   3.724  0.1624 -2.7286 -0.5176
 9266TIP3    H249290   2.399   2.069   3.627  1.4497 -2.4677  0.8385
 9267TIP3   OH249291   0.398   4.805   2.628 -0.8733 -0.3752  0.2897
 9267TIP3    H149292   0.356   4.760   2.556  1.0748 -0.0915 -1.0985
 9267TIP3    H249293   0.330   4.862   2.664 -1.6099  0.3138 -2.0588
 9268TIP3   OH249294   2.126   4.123  10.819  0.3991 -0.1194 -0.1385
 9268TIP3    H149295   2.211   4.125  10.774  0.4069 -1.1506 -0.2093
 9268TIP3    H249296   2.148   4.139  10.911  0.4826  1.1394 -0.3701
 9269TIP3   OH249297   6.427   1.692   2.364  0.0410 -0.1083 -0.3801
 9269TIP3    H149298   6.496   1.741   2.318  0.5441 -0.3015  0.1616
 9269TIP3    H249299   6.397   1.753   2.432  1.4438 -0.9130  1.0290
 9270TIP3   OH249300   6.506   4.251  13.517 -0.0042 -0.1420 -0.2731
 9270TIP3    H149301   6.457   4.179  13.478  0.0052  0.3111 -1.1313
 9270TIP3    H249302   6.439   4.302  13.563  0.1581 -1.3585  1.4231
 9271TIP3   OH249303   1.818   5.709  14.650 -0.2973  0.2865  0.4135
 9271TIP3    H149304   1.776   5.715  14.564 -3.8162 -1.4777  1.7955
 9271TIP3    H249305   1.810   5.796  14.687  2.0720  1.3222 -1.2456
 9272TIP3   OH249306   5.914   4.846  12.461  0.8013 -0.1817  0.4409
 9272TIP3    H149307   5.967   4.898  12.523 -0.3467 -0.1485  1.4350
 9272TIP3    H249308   5.890   4.908  12.392  0.3099  0.3670  1.0866
 9273TIP3   OH249309   6.227   6.334  14.970 -0.4383 -0.2075  0.0396
 9273TIP3    H149310   6.223   6.428  14.949  3.7268  0.6093  1.8125
 9273TIP3    H249311   6.281   6.296  14.901 -0.6501 -0.9282  0.2637
 9274TIP3   OH249312   0.599   3.735   2.212 -0.0436  0.0357  0.1095
 9274TIP3    H149313   0.675   3.754   2.268  0.0281  0.9088 -0.2617
 9274TIP3    H249314   0.607   3.797   2.140 -0.8214 -0.2350 -0.2161
 9275TIP3   OH249315   6.725   0.958   1.830 -0.6102 -0.5937 -0.0897
 9275TIP3    H149316   6.694   0.868   1.819 -0.8731 -0.2731 -2.4129
 9275TIP3    H249317   6.675   1.009   1.766  0.8083  0.8978 -0.0881
 9276TIP3   OH249318   7.113   3.054  13.854  0.3618  0.6072 -0.2329
 9276TIP3    H149319   7.119   2.995  13.929 -0.6910  0.9484  0.1366
 9276TIP3    H249320   7.080   3.000  13.783  2.1366  0.0823 -0.7120
 9277TIP3   OH249321   4.378   0.423  15.070 -0.8141 -0.5940 -0.3610
 9277TIP3    H149322   4.401   0.451  15.159  0.1487  1.6222 -1.2100
 9277TIP3    H249323   4.381   0.328  15.073 -0.4991 -0.5751  1.8958
 9278TIP3   OH249324   0.360   6.669  10.898  0.3390  0.0351 -0.1404
 9278TIP3    H149325   0.290   6.629  10.950  0.5824  0.2359  0.3531
 9278TIP3    H249326   0.383   6.748  10.947  1.2110 -0.2547 -0.0647
 9279TIP3   OH249327   6.263   4.827   1.934 -0.2602 -0.6518  0.4630
 9279TIP3    H149328   6.182   4.831   1.883 -0.1481  0.4699  0.3315
 9279TIP3    H249329   6.244   4.769   2.007 -0.8668 -1.1735 -0.1070
 9280TIP3   OH249330   1.124   2.593  15.390  0.1992  0.7352  0.5808
 9280TIP3    H149331   1.164   2.538  15.322  0.5922  0.4497  1.0307
 9280TIP3    H249332   1.081   2.531  15.449  0.3677  0.9333  0.9156
 9281TIP3   OH249333   0.072   4.536  10.091  0.6484  0.4356 -0.1762
 9281TIP3    H149334   0.122   4.470  10.043 -0.1638  1.5592 -2.7442
 9281TIP3    H249335  -0.019   4.513  10.074  0.2673 -0.0247  2.2110
 9282TIP3   OH249336   1.632   5.189   2.150  0.2005  0.0760  0.2223
 9282TIP3    H149337   1.674   5.265   2.110  0.2472 -0.1629 -0.1793
 9282TIP3    H249338   1.540   5.214   2.158  0.1923  0.1241 -0.0274
 9283TIP3   OH249339   4.033   6.911   3.585  0.1651  0.4538  0.3127
 9283TIP3    H149340   4.098   6.841   3.577 -0.0168  0.1381  1.5119
 9283TIP3    H249341   3.954   6.876   3.545  0.1730  0.1049  0.6029
 9284TIP3   OH249342   4.265   4.388  14.945  0.0974  0.0510 -0.0388
 9284TIP3    H149343   4.226   4.444  14.878 -0.7645 -0.0664  0.3489
 9284TIP3    H249344   4.281   4.447  15.018 -2.2843 -0.4333  0.9750
 9285TIP3   OH249345   1.779   4.274  13.890  0.0941 -0.1916 -0.7118
 9285TIP3    H149346   1.758   4.349  13.835  2.5110 -0.0649 -1.6029
 9285TIP3    H249347   1.737   4.292  13.973 -1.5707  0.8383 -1.7212
 9286TIP3   OH249348   3.000   5.063  15.045  0.3292  0.0117 -0.4534
 9286TIP3    H149349   2.996   5.142  15.099  0.5515 -0.9560  1.0620
 9286TIP3    H249350   3.020   4.993  15.108 -1.9957 -1.5958 -1.3749
 9287TIP3   OH249351   6.130   1.409  11.688 -0.6413  0.3178 -0.5028
 9287TIP3    H149352   6.138   1.347  11.759 -1.9278  0.3161 -0.3393
 9287TIP3    H249353   6.218   1.413  11.649 -0.1808 -0.4371  0.4320
 9288TIP3   OH249354   0.840   3.698  11.353  0.0688  0.0589  0.0234
 9288TIP3    H149355   0.770   3.702  11.418  0.7287 -1.7038  0.8922
 9288TIP3    H249356   0.875   3.788  11.349 -0.1957  0.2721  1.8566
 9289TIP3   OH249357   5.815   1.844  12.966  0.5672  0.2946 -0.0585
 9289TIP3    H149358   5.812   1.922  12.911  0.5748  1.2158  1.1990
 9289TIP3    H249359   5.724   1.814  12.969  0.7030 -0.2759 -1.2536
 9290TIP3   OH249360   4.013   3.983  13.380 -0.0542 -0.8239 -0.0044
 9290TIP3    H149361   3.980   3.941  13.460  0.1438 -0.9357  0.0190
 9290TIP3    H249362   3.983   3.928  13.309 -0.2873 -0.6882 -0.0108
 9291TIP3   OH249363   3.202   1.119  11.645  0.2517  0.0648 -0.1079
 9291TIP3    H149364   3.202   1.184  11.574 -2.0030  2.4406  1.8669
 9291TIP3    H249365   3.291   1.083  11.644  1.1046  1.9104 -2.4137
 9292TIP3   OH249366   0.455   1.789  15.175  0.6701 -0.2873 -0.7959
 9292TIP3    H149367   0.401   1.865  15.198 -1.6980 -1.9073 -0.5588
 9292TIP3    H249368   0.440   1.727  15.246  1.0232 -1.6897 -1.9079
 9293TIP3   OH249369   1.135   3.753  15.416 -0.3088 -0.0683 -0.2291
 9293TIP3    H149370   1.175   3.839  15.425 -1.4891  0.4828 -0.0719
 9293TIP3    H249371   1.182   3.712  15.343  0.9553  0.2872  0.3694
 9294TIP3   OH249372   5.833   3.699  12.720 -0.5041  0.2204  0.9266
 9294TIP3    H149373   5.834   3.794  12.702  2.0704  0.0760 -0.0483
 9294TIP3    H249374   5.749   3.670  12.684 -1.1326  2.0419  0.7896
 9295TIP3   OH249375   4.547   1.264   1.422  0.0580 -0.1323 -0.0464
 9295TIP3    H149376   4.610   1.238   1.355  1.2171 -0.5272  1.1478
 9295TIP3    H249377   4.488   1.325   1.378  0.8429 -0.3074 -1.3805
 9296TIP3   OH249378   0.284   5.389   2.346 -0.7113 -0.3076  0.3174
 9296TIP3    H149379   0.324   5.468   2.382 -2.5292  0.1662  1.4140
 9296TIP3    H249380   0.222   5.421   2.280  0.0122 -0.9711 -0.7253
 9297TIP3   OH249381   2.300   0.963  11.884  0.3757 -0.2945  0.0039
 9297TIP3    H149382   2.364   0.893  11.872 -0.1009 -0.7758  0.2397
 9297TIP3    H249383   2.217   0.918  11.900 -0.1936  0.3215 -1.1068
 9298TIP3   OH249384   5.603   5.664  13.355 -0.2189 -0.2722 -0.0152
 9298TIP3    H149385   5.648   5.633  13.433 -0.4921  1.2566  0.8028
 9298TIP3    H249386   5.517   5.623  13.359 -0.3591  0.0720  0.7035
 9299TIP3   OH249387   1.249   2.932  13.415 -0.7274  0.1882 -0.0977
 9299TIP3    H149388   1.277   3.018  13.445 -2.5821 -0.0230  2.5904
 9299TIP3    H249389   1.161   2.947  13.379 -0.2352 -0.2839 -1.5485
 9300TIP3   OH249390   3.294   1.209   0.020  0.6217  0.3061 -0.3125
 9300TIP3    H149391   3.204   1.239   0.017  0.2328 -0.4906  1.5048
 9300TIP3    H249392   3.288   1.118   0.051  1.9380 -0.4839 -2.1725
 9301TIP3   OH249393   1.911   6.643   4.758 -0.0366  0.3665  0.6194
 9301TIP3    H149394   1.995   6.671   4.794 -0.0610  0.4494  0.6120
 9301TIP3    H249395   1.933   6.593   4.679 -0.0450  1.3994 -0.0506
 9302TIP3   OH249396   4.586   0.656   1.141  0.2861 -0.7177 -0.6447
 9302TIP3    H149397   4.624   0.744   1.139  0.5116 -0.8010 -0.1118
 9302TIP3    H249398   4.631   0.608   1.071  0.8719 -0.6984 -0.2855
 9303TIP3   OH249399   1.026   1.748   9.417 -0.1634 -0.0933 -0.5004
 9303TIP3    H149400   0.947   1.802   9.413 -0.5357 -0.5750  0.2306
 9303TIP3    H249401   1.044   1.739   9.510  0.7634  0.0129 -0.6675
 9304TIP3   OH249402   4.459   3.048   3.137 -0.2353  0.1530  0.6659
 9304TIP3    H149403   4.546   3.088   3.146  0.3546 -1.0782  0.5882
 9304TIP3    H249404   4.398   3.122   3.148  0.8326  1.5962 -2.1664
 9305TIP3   OH249405   0.976   5.852  13.039  0.2262  0.3857 -0.3421
 9305TIP3    H149406   1.056   5.904  13.042  0.0606  0.6243  0.2270
 9305TIP3    H249407   0.916   5.898  13.098 -0.3039  0.1701 -0.7054
 9306TIP3   OH249408   0.123   4.796   0.309  1.0439 -0.3043 -0.0492
 9306TIP3    H149409   0.082   4.869   0.356  0.6070  0.1537 -1.1152
 9306TIP3    H249410   0.051   4.734   0.294  1.0921 -0.2617 -0.4651
 9307TIP3   OH249411   0.092   3.974  13.038  0.2082  0.5778  0.0480
 9307TIP3    H149412   0.050   3.944  12.957  1.4821 -1.7274  0.1458
 9307TIP3    H249413   0.086   3.899  13.097  1.2634  1.4383  1.2998
 9308TIP3   OH249414   2.769   6.636   0.063  0.3254  0.7569  0.2321
 9308TIP3    H149415   2.735   6.560   0.015  0.6790 -0.6387  2.1102
 9308TIP3    H249416   2.691   6.686   0.086  0.0273  0.5664 -0.3335
 9309TIP3   OH249417   5.656   2.778  14.054  0.2028  0.1964  0.4036
 9309TIP3    H149418   5.640   2.730  13.973 -2.8647 -0.7048  1.3869
 9309TIP3    H249419   5.681   2.710  14.117 -0.5147  0.4027  0.9215
 9310TIP3   OH249420   3.372   6.957  14.799  0.5579  0.1444  0.3528
 9310TIP3    H149421   3.296   6.977  14.855 -0.3055  0.5046 -0.9010
 9310TIP3    H249422   3.390   7.040  14.754 -0.9186 -0.9005 -2.3968
 9311TIP3   OH249423   4.754   0.560   5.653 -0.1172 -0.8233  0.0119
 9311TIP3    H149424   4.778   0.541   5.562  1.7397  0.1322  0.2561
 9311TIP3    H249425   4.812   0.632   5.678 -1.1455 -0.5437  1.7179
 9312TIP3   OH249426   5.265   3.174   1.358  0.2509  0.1197  0.2807
 9312TIP3    H149427   5.290   3.175   1.450  1.9782 -1.3244 -0.1095
 9312TIP3    H249428   5.255   3.081   1.337 -0.4431  0.4450 -0.9028
 9313TIP3   OH249429   2.989   0.702  14.476 -0.1809  0.3628  0.3292
 9313TIP3    H149430   3.022   0.759  14.545 -0.3049  1.8316 -0.7863
 9313TIP3    H249431   2.944   0.761  14.415  0.3936 -0.8137 -1.3031
 9314TIP3   OH249432   1.441   4.847   5.405  0.4425  0.5917 -0.2820
 9314TIP3    H149433   1.370   4.910   5.420  1.3651  1.2668  1.6276
 9314TIP3    H249434   1.507   4.896   5.355  0.2803  0.4882 -0.5984
 9315TIP3   OH249435   5.186   5.337   1.833 -0.8871  0.0425  0.1379
 9315TIP3    H149436   5.275   5.318   1.804 -1.5252 -0.9095 -1.3256
 9315TIP3    H249437   5.172   5.278   1.907  0.8699  2.7161  2.7977
 9316TIP3   OH249438   4.079   2.816   9.828 -0.1348 -0.3880  0.0996
 9316TIP3    H149439   4.006   2.875   9.846 -0.2974 -0.6235  0.2334
 9316TIP3    H249440   4.139   2.866   9.772 -1.2575 -0.7994 -1.5292
 9317TIP3   OH249441   0.392   5.808   1.536  0.0638  0.2198 -0.6791
 9317TIP3    H149442   0.393   5.721   1.574 -2.2416  0.3513 -0.1407
 9317TIP3    H249443   0.404   5.867   1.610  0.0010  0.3824 -0.7978
 9318TIP3   OH249444   0.444   5.979   9.784  0.2551  0.2820  0.8272
 9318TIP3    H149445   0.487   5.893   9.785 -0.3563 -0.1021 -0.9831
 9318TIP3    H249446   0.351   5.959   9.794  0.0388  0.6449 -0.3005
 9319TIP3   OH249447   2.031   2.580  15.396 -0.3124  0.3994  0.7236
 9319TIP3    H149448   1.936   2.571  15.405 -0.8832  1.7573 -2.5759
 9319TIP3    H249449   2.057   2.504  15.344  0.2622  0.5082  0.8490
 9320TIP3   OH249450   2.641   3.449   3.792  0.4517  0.4521 -0.2615
 9320TIP3    H149451   2.686   3.481   3.870  2.2558 -0.0038 -1.0850
 9320TIP3    H249452   2.691   3.483   3.718  2.0112 -3.3917 -1.2178
 9321TIP3   OH249453   6.739   0.520  10.683  0.5161  0.6951  0.0808
 9321TIP3    H149454   6.763   0.510  10.775 -0.0755  0.5781  0.2240
 9321TIP3    H249455   6.652   0.481  10.676 -0.1605  2.1923 -0.1741
 9322TIP3   OH249456   1.342   6.844  10.796  0.2248 -0.3999 -0.2985
 9322TIP3    H149457   1.298   6.852  10.711  0.7386  1.0888 -0.4544
 9322TIP3    H249458   1.394   6.764  10.789  1.9731  0.8152 -2.2239
 9323TIP3   OH249459   6.897   5.873  15.192 -0.1032 -0.0703 -0.4324
 9323TIP3    H149460   6.862   5.860  15.104 -0.8184  1.9943 -0.5105
 9323TIP3    H249461   6.847   5.813  15.247  1.2145 -2.3277 -1.5457
 9324TIP3   OH249462   2.465   3.972   5.504  0.2546  0.0428 -0.1500
 9324TIP3    H149463   2.534   3.923   5.550  1.4997  2.1554  0.3850
 9324TIP3    H249464   2.400   3.990   5.572 -1.6827 -3.1864 -0.9581
 9325TIP3   OH249465   0.811   2.936  13.733  0.3789  0.0945 -0.3398
 9325TIP3    H149466   0.729   2.985  13.728 -0.4753 -0.9863  1.6813
 9325TIP3    H249467   0.845   2.954  13.821  1.3370 -0.9343 -0.4743
 9326TIP3   OH249468   1.350   1.980  10.780  0.2886 -0.5078 -0.0175
 9326TIP3    H149469   1.318   2.065  10.811  2.2816 -0.0149  0.8396
 9326TIP3    H249470   1.425   2.002  10.724  0.1490 -1.6613 -0.6869
 9327TIP3   OH249471   4.893   3.030  14.115  0.2399  0.3799  0.2483
 9327TIP3    H149472   4.832   3.057  14.183 -1.4752 -3.9377  0.7348
 9327TIP3    H249473   4.947   2.963  14.156  1.1294 -0.2817 -1.8615
 9328TIP3   OH249474   2.453   1.241  12.041 -0.8299 -0.2287 -0.0122
 9328TIP3    H149475   2.442   1.285  11.957  0.7526 -0.6944 -0.4990
 9328TIP3    H249476   2.368   1.248  12.083 -1.2447  1.3339 -1.0124
 9329TIP3   OH249477   0.482   5.248   1.680  0.1745  0.0605 -0.4615
 9329TIP3    H149478   0.390   5.231   1.663  0.2343 -1.2264  0.3784
 9329TIP3    H249479   0.487   5.264   1.774  0.8516 -0.1483 -0.4540
 9330TIP3   OH249480   5.075   1.541   2.706  0.2820 -0.5188 -0.0963
 9330TIP3    H149481   5.088   1.564   2.614  1.8948  0.7557  0.4035
 9330TIP3    H249482   5.030   1.616   2.744  1.3911 -0.1484  0.5467
 9331TIP3   OH249483   0.077   1.467  11.931  0.0645 -0.1441  0.4330
 9331TIP3    H149484   0.144   1.504  11.874  0.4350 -1.9686 -0.3576
 9331TIP3    H249485   0.022   1.543  11.954  0.3122  0.7834 -1.7596
 9332TIP3   OH249486   0.398   1.886  10.012  0.0573  0.1372 -0.1246
 9332TIP3    H149487   0.310   1.851  10.020  1.2588 -2.9948  1.0075
 9332TIP3    H249488   0.440   1.833   9.944  1.2502  1.1645 -0.2414
 9333TIP3   OH249489   2.231   6.515  11.046  0.4409  0.3632  0.0888
 9333TIP3    H149490   2.153   6.501  11.101  0.3357  1.1011  0.1317
 9333TIP3    H249491   2.230   6.442  10.985 -0.0249  0.1062  0.3939
 9334TIP3   OH249492   3.773   0.456   1.416 -0.6332 -0.0243  0.8748
 9334TIP3    H149493   3.810   0.461   1.504  0.8866  1.7739  0.2055
 9334TIP3    H249494   3.847   0.474   1.358 -2.1330  1.6829 -0.6333
 9335TIP3   OH249495   4.969   6.724  13.070 -0.2910 -0.2000  0.1125
 9335TIP3    H149496   4.950   6.646  13.122  1.3757 -1.4078 -0.9743
 9335TIP3    H249497   4.943   6.700  12.981  0.4221  0.3883 -0.2732
 9336TIP3   OH249498   2.963   4.382   9.857 -0.1683  0.8569  0.0124
 9336TIP3    H149499   2.876   4.399   9.822 -1.0910 -2.2003  0.5031
 9336TIP3    H249500   2.955   4.401   9.951 -1.1769 -1.7571  0.5502
 9337TIP3   OH249501   2.034   0.070  14.729  0.0093  0.1346  0.0467
 9337TIP3    H149502   2.043   0.004  14.798 -3.6375 -1.4147 -0.6947
 9337TIP3    H249503   1.941   0.094  14.732  0.7238  3.6990 -1.1904
 9338TIP3   OH249504   6.670   0.144  13.278 -0.4528  0.1446  0.4731
 9338TIP3    H149505   6.653   0.058  13.238  2.2191  0.6035 -1.9018
 9338TIP3    H249506   6.682   0.124  13.371 -1.5350 -1.7665  0.2682
 9339TIP3   OH249507   6.202   4.047  13.013  0.0758  0.3283  0.1108
 9339TIP3    H149508   6.180   3.997  13.092 -0.7745 -0.3521 -0.5430
 9339TIP3    H249509   6.126   4.103  12.998  0.8818  1.6128  0.6411
 9340TIP3   OH249510   2.620   6.093  15.058  0.0279 -1.0180 -0.4188
 9340TIP3    H149511   2.687   6.160  15.048  0.3319 -1.2464  0.0771
 9340TIP3    H249512   2.623   6.044  14.976  0.5392 -1.0926 -0.3592
 9341TIP3   OH249513   0.372   2.122  14.605  0.4985  0.0394 -0.2591
 9341TIP3    H149514   0.304   2.147  14.543  0.8060  0.6340 -0.3608
 9341TIP3    H249515   0.327   2.068  14.670 -0.4667  1.8789  0.6901
 9342TIP3   OH249516   1.165   3.622  14.087 -0.2553 -0.4609  0.0556
 9342TIP3    H149517   1.099   3.610  14.155  1.8069  1.4452  2.6215
 9342TIP3    H249518   1.209   3.704  14.111  2.6265 -1.3042 -1.8491
 9343TIP3   OH249519   1.089   4.837   2.017  0.0027  0.1484 -0.1657
 9343TIP3    H149520   0.999   4.805   2.013  0.4039 -0.8593 -2.3788
 9343TIP3    H249521   1.080   4.932   2.007 -0.8990  0.3511  1.9303
 9344TIP3   OH249522   4.822   2.308  14.492 -0.0988 -0.0120 -0.1589
 9344TIP3    H149523   4.839   2.230  14.545  0.9190  0.5227  0.3374
 9344TIP3    H249524   4.736   2.339  14.520  0.0335 -0.2553  0.5256
 9345TIP3   OH249525   6.292   5.602   0.853  0.2393  0.1206  0.6598
 9345TIP3    H149526   6.219   5.652   0.818 -1.2604 -1.6612  1.0725
 9345TIP3    H249527   6.302   5.634   0.943 -1.9653 -1.4791  1.5759
 9346TIP3   OH249528   5.112   1.434   4.983 -0.1155 -0.3117  0.2960
 9346TIP3    H149529   5.021   1.449   4.958  0.1442  3.1533  0.8722
 9346TIP3    H249530   5.163   1.470   4.910  0.7113  1.0528  1.4943
 9347TIP3   OH249531   3.042   2.251  15.106 -0.8997  0.2782 -0.1706
 9347TIP3    H149532   3.004   2.308  15.039 -1.7224  0.7511  0.6784
 9347TIP3    H249533   2.967   2.203  15.142 -0.8029  1.4904  1.7859
 9348TIP3   OH249534   6.071   3.926  14.077 -0.3589 -0.2445 -0.1921
 9348TIP3    H149535   6.026   3.849  14.111 -3.5537  2.6339  2.7897
 9348TIP3    H249536   6.004   3.975  14.030  1.0592  1.6427 -0.3689
 9349TIP3   OH249537   1.471   1.247  13.412  0.1508  0.8285 -0.1457
 9349TIP3    H149538   1.513   1.319  13.366  2.3290 -0.2593 -0.0035
 9349TIP3    H249539   1.504   1.253  13.502 -1.8399  1.2523  0.6174
 9350TIP3   OH249540   5.008   3.916  14.671  0.4084  0.6473 -0.1832
 9350TIP3    H149541   5.006   3.822  14.686  2.4478  0.8799  2.2562
 9350TIP3    H249542   5.064   3.928  14.595  1.2315 -0.0840  0.2953
 9351TIP3   OH249543   3.292   5.090  14.036 -0.0931 -1.1178  0.7170
 9351TIP3    H149544   3.214   5.051  13.996  1.0037 -2.0753 -0.5543
 9351TIP3    H249545   3.364   5.033  14.010  1.2811  0.6013  0.5791
 9352TIP3   OH249546   2.011   4.435   2.366  0.0397 -0.3869 -0.2553
 9352TIP3    H149547   2.062   4.355   2.355  1.8993  0.2480  2.5800
 9352TIP3    H249548   2.053   4.480   2.440 -1.6046  2.6752 -1.0198
 9353TIP3   OH249549   0.759   1.684  11.656  0.1853 -0.1301  0.2262
 9353TIP3    H149550   0.846   1.695  11.696  0.1988  0.1505  0.1194
 9353TIP3    H249551   0.746   1.764  11.605 -0.6483  0.3800  1.2001
 9354TIP3   OH249552   2.460   6.704   1.534  0.4630 -0.0698  0.4622
 9354TIP3    H149553   2.451   6.693   1.439 -0.3137  0.1590  0.5072
 9354TIP3    H249554   2.375   6.679   1.570  1.0443 -1.0915  1.1919
 9355TIP3   OH249555   5.805   4.319  14.375 -0.0408  0.3347 -1.0612
 9355TIP3    H149556   5.823   4.409  14.347  0.6485 -0.0852 -2.0195
 9355TIP3    H249557   5.883   4.293  14.425 -1.3483  1.1540  1.6002
 9356TIP3   OH249558   4.942   3.370  10.007 -0.4677  0.1367  0.4022
 9356TIP3    H149559   4.925   3.310  10.080  0.3911 -0.9117 -0.2342
 9356TIP3    H249560   4.982   3.316   9.940 -1.1206  1.1205 -0.8197
 9357TIP3   OH249561   4.545   2.373  14.576 -0.6261 -0.6272 -0.3775
 9357TIP3    H149562   4.477   2.409  14.632  0.1608  2.6145 -1.2894
 9357TIP3    H249563   4.498   2.333  14.503 -1.5650 -1.7385  0.7875
 9358TIP3   OH249564   0.626   5.755  11.363 -0.0239  0.1874 -0.1166
 9358TIP3    H149565   0.707   5.755  11.313  0.8694  1.7123  1.2557
 9358TIP3    H249566   0.565   5.806  11.310 -0.0035 -0.6293 -0.9616
 9359TIP3   OH249567   4.254   2.427  11.891 -0.2455  0.7896  0.2993
 9359TIP3    H149568   4.319   2.491  11.921 -0.3293  0.8650  0.3230
 9359TIP3    H249569   4.298   2.343  11.898  0.0862  0.9014 -0.3231
 9360TIP3   OH249570   3.165   6.798  10.354 -0.0628 -0.8616 -0.3319
 9360TIP3    H149571   3.178   6.888  10.386 -1.8118 -0.3557 -0.9425
 9360TIP3    H249572   3.249   6.755  10.372  0.9069  0.9383 -0.2104
 9361TIP3   OH249573   5.693   2.748  12.682  0.4293 -0.4540  0.5124
 9361TIP3    H149574   5.647   2.730  12.764 -1.5323  0.0403 -0.4277
 9361TIP3    H249575   5.640   2.705  12.615  1.8431 -0.6107 -0.5458
 9362TIP3   OH249576   4.736   4.137  14.043  0.5310 -0.4851  0.4331
 9362TIP3    H149577   4.816   4.113  14.092  1.6088  1.7698 -0.0879
 9362TIP3    H249578   4.769   4.179  13.964 -1.2144 -0.9057 -0.5490
 9363TIP3   OH249579   1.256   0.007  13.686 -0.4433 -0.1769 -0.1091
 9363TIP3    H149580   1.304  -0.076  13.683 -0.2797 -0.0896  0.0601
 9363TIP3    H249581   1.190  -0.001  13.618 -0.2175 -0.3186 -0.3128
 9364TIP3   OH249582   5.053   1.075   2.424 -0.1527  0.1797  0.6107
 9364TIP3    H149583   5.009   1.145   2.375  0.7922  1.0142  0.9323
 9364TIP3    H249584   5.009   1.075   2.510  0.1226  0.6666  0.7546
 9365TIP3   OH249585   4.141   7.183  14.758 -0.0291 -0.4173  0.7841
 9365TIP3    H149586   4.101   7.118  14.815  0.2841 -0.8994  0.4699
 9365TIP3    H249587   4.225   7.144  14.733 -0.4924 -0.5715 -0.6198
 9366TIP3   OH249588   0.790   1.297  11.015 -0.4357 -0.6660 -0.0969
 9366TIP3    H149589   0.885   1.302  11.024 -0.1477 -2.9242 -1.1676
 9366TIP3    H249590   0.757   1.310  11.104  1.0632 -2.5649  0.8078
 9367TIP3   OH249591   2.065   1.529   9.477 -0.3769 -0.0949  0.5813
 9367TIP3    H149592   2.050   1.523   9.571  0.3685 -0.9224  0.6600
 9367TIP3    H249593   2.121   1.454   9.457  1.0683  1.1333 -0.2060
 9368TIP3   OH249594   3.870   4.939  14.290  0.0181 -0.0422  0.2063
 9368TIP3    H149595   3.952   4.962  14.335  0.2178  0.1943 -0.2796
 9368TIP3    H249596   3.848   4.853  14.326  0.8921 -0.4580 -0.2164
 9369TIP3   OH249597   0.060   0.394  11.690  0.1980 -0.2536 -0.2722
 9369TIP3    H149598   0.093   0.481  11.669 -0.8471  0.8051  2.0221
 9369TIP3    H249599   0.019   0.364  11.609 -1.3140  2.3409 -0.6039
 9370TIP3   OH249600   4.427   6.693  14.606  0.2470  0.0934 -0.4040
 9370TIP3    H149601   4.494   6.751  14.645 -0.2799  0.6175 -0.2595
 9370TIP3    H249602   4.362   6.753  14.571 -0.2739 -0.4204 -0.3204
 9371TIP3   OH249603   0.009   6.532  10.607 -0.4808  0.2802  0.0791
 9371TIP3    H149604  -0.053   6.548  10.678  0.7556  0.8602  1.0564
 9371TIP3    H249605   0.079   6.480  10.647  0.3647  0.8478 -0.6275
 9372TIP3   OH249606   3.117   4.438  13.758  0.4683 -0.1202 -0.3283
 9372TIP3    H149607   3.203   4.396  13.750  0.5843 -0.2174  1.2540
 9372TIP3    H249608   3.078   4.428  13.671  1.7989 -0.6233 -0.8975
 9373TIP3   OH249609   0.482   5.320  11.068  0.3914  0.3980  0.3644
 9373TIP3    H149610   0.483   5.415  11.079 -2.0979  0.4289  1.0746
 9373TIP3    H249611   0.389   5.298  11.060  0.8763 -2.0259  0.5218
 9374TIP3   OH249612   2.070   6.962   0.483  0.3700 -0.5090  0.1327
 9374TIP3    H149613   2.019   7.022   0.428 -0.6741 -1.6797 -0.2351
 9374TIP3    H249614   2.148   7.011   0.506  0.5540  0.2544 -1.9038
 9375TIP3   OH249615   6.891   2.875   4.620 -0.0147  0.1339 -0.2463
 9375TIP3    H149616   6.881   2.969   4.603 -0.8053 -0.0334 -0.7407
 9375TIP3    H249617   6.896   2.835   4.532  0.6958 -0.2545 -0.0418
 9376TIP3   OH249618   3.905   2.318  13.525  0.1591  0.1191 -0.2858
 9376TIP3    H149619   3.842   2.386  13.548  0.0781  0.3013 -1.0171
 9376TIP3    H249620   3.852   2.250  13.483  0.6161  1.0089 -2.4684
 9377TIP3   OH249621   5.469   1.451  12.959 -0.1165 -0.0932  0.7152
 9377TIP3    H149622   5.413   1.479  12.887 -1.4566  1.2130  2.1811
 9377TIP3    H249623   5.413   1.456  13.036  1.3775 -1.0464  1.9276
 9378TIP3   OH249624   4.796   4.229  15.053 -0.3908 -0.0858  0.0345
 9378TIP3    H149625   4.826   4.320  15.048 -1.2711  0.3178  1.3755
 9378TIP3    H249626   4.838   4.185  14.979  0.9217  1.1591  0.0005
 9379TIP3   OH249627   3.650   4.206  13.696  0.7370  0.0874 -0.6870
 9379TIP3    H149628   3.675   4.180  13.608  0.6939  0.3908 -0.7879
 9379TIP3    H249629   3.576   4.149  13.718  1.1993 -0.4793 -0.5714
 9380TIP3   OH249630   5.668   4.733  12.439 -0.0603 -0.0315 -0.6653
 9380TIP3    H149631   5.681   4.651  12.488 -0.7425  1.3506  2.0141
 9380TIP3    H249632   5.755   4.772  12.434 -0.1869  0.4963  0.8208
 9381TIP3   OH249633   3.414   6.750  15.057 -0.1540 -0.4869  0.1415
 9381TIP3    H149634   3.382   6.707  14.977  0.0554 -0.7512  0.1984
 9381TIP3    H249635   3.389   6.842  15.046  0.1816 -0.4512 -0.3949
 9382TIP3   OH249636   7.156   6.595   2.120 -0.5138  0.4642 -0.2833
 9382TIP3    H149637   7.247   6.612   2.095  0.1277 -1.5812  0.3554
 9382TIP3    H249638   7.105   6.610   2.041 -0.0227  3.9986 -0.0588
 9383TIP3   OH249639   5.924   6.561  13.925 -0.4555 -0.2809 -0.5266
 9383TIP3    H149640   5.994   6.625  13.914 -0.5992 -0.1350 -0.5991
 9383TIP3    H249641   5.847   6.613  13.950 -0.6349 -0.3973 -0.8271
 9384TIP3   OH249642   3.540   3.500  11.816 -0.2082 -0.2052 -0.6225
 9384TIP3    H149643   3.514   3.460  11.898  1.0685  0.3048  0.0684
 9384TIP3    H249644   3.459   3.531  11.777 -0.7595  0.3987  0.9157
 9385TIP3   OH249645   1.296   4.384  12.624 -0.5767  0.3890 -0.3290
 9385TIP3    H149646   1.247   4.316  12.670 -0.0436 -0.2569 -0.7105
 9385TIP3    H249647   1.271   4.465  12.669 -0.8009 -0.1139  0.4787
 9386TIP3   OH249648   2.701   7.085  11.717  0.2792  0.2934  0.3910
 9386TIP3    H149649   2.790   7.060  11.694  0.2927 -1.1327  1.7915
 9386TIP3    H249650   2.652   7.002  11.714 -0.1650  0.3687  3.1961
 9387TIP3   OH249651   4.391   2.628   3.399 -0.2250  0.6826  0.2446
 9387TIP3    H149652   4.314   2.658   3.447  0.9073 -0.0675  2.7056
 9387TIP3    H249653   4.453   2.701   3.403 -0.2125  0.7082 -0.3268
 9388TIP3   OH249654   0.081   4.772  12.673  0.2058  0.0858  0.0494
 9388TIP3    H149655   0.145   4.828  12.717  0.9412 -0.0918 -0.7526
 9388TIP3    H249656  -0.003   4.814  12.689  0.4108 -0.1487  1.8570
 9389TIP3   OH249657   0.917   2.988   3.977  0.5396 -0.3412 -0.5601
 9389TIP3    H149658   0.955   2.950   4.056  0.3834  0.6333 -0.0054
 9389TIP3    H249659   0.836   3.030   4.006  0.4474 -0.0215 -1.2420
 9390TIP3   OH249660   0.992   0.436  12.182 -0.6618 -0.2954 -0.2716
 9390TIP3    H149661   0.970   0.462  12.271  0.2291  1.0844 -0.4250
 9390TIP3    H249662   0.910   0.403  12.145 -0.4248 -4.0161  2.0308
 9391TIP3   OH249663   2.688   6.844   4.726  0.1293 -0.2895  0.1078
 9391TIP3    H149664   2.594   6.853   4.737  0.1140  2.3341 -1.2379
 9391TIP3    H249665   2.725   6.865   4.812 -0.4843  1.1577  0.0493
 9392TIP3   OH249666   4.732   3.811   4.193 -0.0802 -0.3332 -0.0564
 9392TIP3    H149667   4.824   3.787   4.201 -0.3157 -0.9564  0.8390
 9392TIP3    H249668   4.734   3.907   4.186  0.5105 -0.0685  2.5798
 9393TIP3   OH249669   5.471   6.150  14.912 -0.2133 -0.9199 -0.4852
 9393TIP3    H149670   5.417   6.123  14.838  2.4790  0.0139 -2.9692
 9393TIP3    H249671   5.447   6.241  14.928 -0.5771 -1.0303 -0.3869
 9394TIP3   OH249672   6.628   3.566  14.504  0.1561 -0.2435 -0.0174
 9394TIP3    H149673   6.605   3.610  14.422  0.2772  0.1711  0.1668
 9394TIP3    H249674   6.700   3.508  14.480  1.5575  1.3337  0.1631
 9395TIP3   OH249675   0.241   0.750  12.059  0.2483  0.0400 -0.1106
 9395TIP3    H149676   0.303   0.741  12.131  0.3841  0.3290 -0.1880
 9395TIP3    H249677   0.277   0.820  12.005  0.9656 -1.1941 -1.2983
 9396TIP3   OH249678   1.082   3.450  14.898  0.1412  0.1987 -0.2632
 9396TIP3    H149679   1.137   3.375  14.921  1.5896  1.3007 -0.0320
 9396TIP3    H249680   1.039   3.474  14.980  1.7136  1.2314  0.2926
 9397TIP3   OH249681   0.883   5.215  14.339 -0.5126 -0.4430  0.5599
 9397TIP3    H149682   0.840   5.209  14.253 -0.6928 -0.5230  0.6545
 9397TIP3    H249683   0.818   5.259  14.395  0.0505  0.6709  0.3656
 9398TIP3   OH249684   2.748   4.449  12.733  0.0153 -0.5426  0.0600
 9398TIP3    H149685   2.657   4.423  12.746 -0.8397  2.0400 -0.2086
 9398TIP3    H249686   2.755   4.468  12.640  0.3807  0.7300  0.3271
 9399TIP3   OH249687   3.687   3.274  14.458 -0.3469 -0.5333 -0.3609
 9399TIP3    H149688   3.596   3.289  14.482 -0.5891 -1.6920 -0.4655
 9399TIP3    H249689   3.713   3.352  14.409 -1.1094  0.0421  0.1400
 9400TIP3   OH249690   6.863   1.158  11.479  0.0712  0.3869 -0.4031
 9400TIP3    H149691   6.841   1.147  11.571 -0.9208 -4.1715 -0.9614
 9400TIP3    H249692   6.781   1.183  11.437 -0.3171 -0.9472 -0.4579
 9401TIP3   OH249693   2.395   6.175  13.564 -0.1381  0.0200  0.3653
 9401TIP3    H149694   2.308   6.140  13.545 -0.2613  0.5421 -0.0773
 9401TIP3    H249695   2.378   6.250  13.622  0.0426 -0.0658  0.5310
 9402TIP3   OH249696   4.949   1.506  13.685 -0.2785 -0.0453 -0.4477
 9402TIP3    H149697   5.001   1.523  13.607  1.4096 -0.4151  0.5363
 9402TIP3    H249698   4.910   1.421  13.669 -0.3651  0.1111 -1.1028
 9403TIP3   OH249699   4.245   2.136   0.619  0.2189  0.3519 -0.0417
 9403TIP3    H149700   4.319   2.075   0.612 -0.1045  0.0459 -1.0175
 9403TIP3    H249701   4.285   2.222   0.633  0.6522 -0.1801  2.3048
 9404TIP3   OH249702   3.594   2.352   0.813 -0.7209 -0.2554  0.1712
 9404TIP3    H149703   3.541   2.317   0.885 -0.4961  0.5772  0.7552
 9404TIP3    H249704   3.657   2.283   0.793 -0.1775 -0.1405  1.4217
 9405TIP3   OH249705   5.625   0.022   1.020 -0.1418 -0.1746  0.1653
 9405TIP3    H149706   5.689   0.084   0.986  0.1029 -0.0746  0.8032
 9405TIP3    H249707   5.544   0.044   0.974  0.1804 -0.0371 -0.3438
 9406TIP3   OH249708   3.646   2.078   2.160  0.1253 -0.5624 -0.4789
 9406TIP3    H149709   3.669   2.094   2.251  0.1517  0.5362 -0.6584
 9406TIP3    H249710   3.721   2.112   2.111 -0.6112  0.4345 -0.9605
 9407TIP3   OH249711   2.803   0.995  12.513 -0.6545 -0.2688  0.4243
 9407TIP3    H149712   2.851   1.060  12.461 -2.0764 -0.5927 -1.4058
 9407TIP3    H249713   2.812   1.025  12.603 -0.8584  2.2396 -0.3044
 9408TIP3   OH249714   4.655   3.200  11.522  0.3376 -0.1301  0.0261
 9408TIP3    H149715   4.573   3.240  11.551 -0.8375 -0.3704 -2.6289
 9408TIP3    H249716   4.723   3.260  11.551 -0.7028 -0.0186  2.4861
 9409TIP3   OH249717   5.051   6.356  15.271  0.1228  0.8397  0.5945
 9409TIP3    H149718   5.035   6.378  15.363 -2.7358 -1.5745  0.8523
 9409TIP3    H249719   5.004   6.423  15.222 -1.6292  0.0499  1.0963
 9410TIP3   OH249720   5.437   1.716  14.609 -0.1521  0.1013  0.4253
 9410TIP3    H149721   5.347   1.736  14.581  0.0206 -0.9497 -0.9889
 9410TIP3    H249722   5.427   1.641  14.668 -0.1492 -0.5858 -0.4302
 9411TIP3   OH249723   6.442   1.842  13.010  0.3827  0.0079  0.2389
 9411TIP3    H149724   6.426   1.932  13.040 -1.3098 -0.0207 -0.4675
 9411TIP3    H249725   6.439   1.789  13.090 -0.4287  0.3810  0.4703
 9412TIP3   OH249726   3.899   1.906  14.836 -0.0619  0.2655 -0.4409
 9412TIP3    H149727   3.810   1.893  14.870  0.0424  0.5707 -0.0485
 9412TIP3    H249728   3.934   1.978  14.888  1.9662 -2.5578  2.4351
 9413TIP3   OH249729   2.513   0.644   3.478 -0.8687 -0.1588 -0.7241
 9413TIP3    H149730   2.583   0.709   3.479 -1.3411  0.4593  2.6404
 9413TIP3    H249731   2.556   0.562   3.501 -0.9096 -0.2898 -1.0943
 9414TIP3   OH249732   6.602   2.146   0.143 -0.2566 -0.9038 -0.3233
 9414TIP3    H149733   6.623   2.213   0.208 -1.0994 -0.3759 -0.5843
 9414TIP3    H249734   6.644   2.066   0.177 -1.9972 -1.0518  1.7448
 9415TIP3   OH249735   2.828   3.114   1.612  0.9594  0.2481 -0.0800
 9415TIP3    H149736   2.786   3.175   1.672 -0.1344 -0.5604  0.0115
 9415TIP3    H249737   2.764   3.102   1.541  1.0941 -0.8763 -0.0263
 9416TIP3   OH249738   3.312   0.845  15.139  0.5313  0.1401 -0.4615
 9416TIP3    H149739   3.266   0.864  15.220  2.5664  0.8701  0.5982
 9416TIP3    H249740   3.245   0.850  15.071 -1.4838 -1.6967  1.2431
 9417TIP3   OH249741   4.445   1.109  14.642 -0.6366  0.5983  0.3708
 9417TIP3    H149742   4.489   1.031  14.609 -0.5523  1.1226 -0.7993
 9417TIP3    H249743   4.351   1.089  14.634 -0.6154  0.6516 -0.0043
 9418TIP3   OH249744   6.192   1.756   3.611  0.7211  0.3437  0.2994
 9418TIP3    H149745   6.134   1.831   3.595  1.5762  0.6312 -1.6835
 9418TIP3    H249746   6.212   1.761   3.705 -0.3756  1.7535  0.4870
 9419TIP3   OH249747   2.064   1.086   0.078 -0.0624 -0.0906 -0.0009
 9419TIP3    H149748   2.113   1.096   0.159 -1.8542 -1.1354  1.2882
 9419TIP3    H249749   2.086   0.998   0.047  1.0554  0.5083 -1.0153
 9420TIP3   OH249750   0.391   7.116  12.948 -0.0875 -0.0703  0.4599
 9420TIP3    H149751   0.336   7.187  12.982  1.0875 -0.4450  3.4346
 9420TIP3    H249752   0.477   7.156  12.939  0.2908 -0.7872  0.8928
 9421TIP3   OH249753   1.843   6.144  14.158 -0.2820 -0.3601 -0.1277
 9421TIP3    H149754   1.902   6.215  14.186 -1.4268  0.3782  0.5168
 9421TIP3    H249755   1.760   6.165  14.200 -0.2986 -2.8766  1.3034
 9422TIP3   OH249756   0.404   3.923  11.712 -0.8380 -0.1501 -0.1117
 9422TIP3    H149757   0.352   4.002  11.697 -0.1210  0.7765  1.9479
 9422TIP3    H249758   0.494   3.953  11.712 -0.5479 -0.9776  0.6468
 9423TIP3   OH249759   4.355   7.164   3.133 -0.3044 -0.0672 -0.3036
 9423TIP3    H149760   4.273   7.199   3.098  1.0947  0.4587 -3.2900
 9423TIP3    H249761   4.375   7.088   3.078  0.9002 -0.6114  0.8258
 9424TIP3   OH249762   0.211   4.607   4.716  0.1598 -0.3506 -0.1983
 9424TIP3    H149763   0.223   4.698   4.743  1.0481 -1.0948  2.1582
 9424TIP3    H249764   0.118   4.602   4.692 -0.1951  0.9267  0.7692
 9425TIP3   OH249765   2.461   2.399  10.225  0.5572  0.0231 -0.2785
 9425TIP3    H149766   2.510   2.477  10.198  0.9494 -0.6492 -1.5704
 9425TIP3    H249767   2.518   2.326  10.202 -0.9213 -0.7728 -1.6234
 9426TIP3   OH249768   0.050   6.305  12.075 -0.8644 -0.1078  0.1971
 9426TIP3    H149769   0.074   6.333  12.163  3.2834 -0.0924 -0.7155
 9426TIP3    H249770   0.097   6.223  12.063 -0.7531  0.2440 -2.2267
 9427TIP3   OH249771   0.221   1.051  15.143  0.0706  0.0644 -0.4477
 9427TIP3    H149772   0.157   1.054  15.071 -1.2181  1.7579  0.7112
 9427TIP3    H249773   0.206   0.966  15.184  0.5106 -0.7346 -1.8761
 9428TIP3   OH249774   6.504   6.940  11.850 -0.1091  0.1941  0.2768
 9428TIP3    H149775   6.576   7.002  11.861  1.2206 -1.3664  0.9452
 9428TIP3    H249776   6.460   6.938  11.935  0.8100 -0.8558  0.7557
 9429TIP3   OH249777   2.165   5.954   1.631 -0.1022  0.1751  0.0671
 9429TIP3    H149778   2.108   6.028   1.653 -1.5695 -1.4623  2.2243
 9429TIP3    H249779   2.206   5.930   1.714  0.8432 -1.0168 -0.7176
 9430TIP3   OH249780   0.375   0.901  12.662 -0.1537  0.0113  0.6768
 9430TIP3    H149781   0.448   0.859  12.709 -1.3760  0.6267  3.3226
 9430TIP3    H249782   0.412   0.983  12.630  0.6685 -0.2945  0.7903
 9431TIP3   OH249783   6.599   3.050  13.948  0.5713 -0.2310 -0.1185
 9431TIP3    H149784   6.688   3.049  13.983  0.9992 -1.2943 -1.1496
 9431TIP3    H249785   6.605   2.999  13.867 -0.8738  0.1186 -0.4717
 9432TIP3   OH249786   3.047   5.693  13.015 -0.1800 -0.1928  0.0122
 9432TIP3    H149787   2.959   5.665  12.992  0.3149 -0.1270 -2.2600
 9432TIP3    H249788   3.070   5.757  12.947  1.9172 -0.8483  0.0132
 9433TIP3   OH249789   0.853   2.241   0.663 -0.0299  0.0687  0.1696
 9433TIP3    H149790   0.930   2.231   0.606 -0.9727 -0.5265 -1.0458
 9433TIP3    H249791   0.808   2.318   0.629 -0.6607 -0.3551  0.0308
 9434TIP3   OH249792   1.787   0.505   4.523  0.4841  0.7680 -0.0171
 9434TIP3    H149793   1.835   0.514   4.605 -1.8798  2.3990  1.3091
 9434TIP3    H249794   1.849   0.530   4.455  1.9229  1.3496  1.4596
 9435TIP3   OH249795   4.301   1.319   2.904  0.4056 -0.0693  0.1726
 9435TIP3    H149796   4.288   1.393   2.963  0.1798  0.9135 -1.0773
 9435TIP3    H249797   4.322   1.245   2.962  0.1954  0.8611  1.4649
 9436TIP3   OH249798   4.059   3.095  10.882 -0.3764 -0.1706  0.8068
 9436TIP3    H149799   4.117   3.171  10.888  0.4521 -0.6818 -0.3902
 9436TIP3    H249800   4.093   3.034  10.948 -0.5660  0.1646  1.2251
 9437TIP3   OH249801   2.974   2.025   2.662 -1.0158 -0.3358 -0.4980
 9437TIP3    H149802   2.961   2.116   2.687 -0.2715 -0.7956  1.7071
 9437TIP3    H249803   2.914   1.976   2.718  0.6782 -1.4132  0.4413
 9438TIP3   OH249804   5.153   2.782   2.147 -0.0089  0.2284  0.1744
 9438TIP3    H149805   5.219   2.833   2.099  0.9726  0.0036  1.2177
 9438TIP3    H249806   5.174   2.691   2.128  0.3610  0.1383  0.9549
 9439TIP3   OH249807   6.346   2.262   3.538 -0.2968  0.6497 -0.3356
 9439TIP3    H149808   6.285   2.200   3.498 -0.7681  0.6218  0.4153
 9439TIP3    H249809   6.316   2.271   3.628  0.0379  1.6280 -0.3139
 9440TIP3   OH249810   1.646   3.321   0.218  0.0049 -0.5988 -0.1891
 9440TIP3    H149811   1.705   3.333   0.143  0.2542  2.1892  0.3482
 9440TIP3    H249812   1.558   3.335   0.181  0.2654  4.8188  0.4387
 9441TIP3   OH249813   1.269   0.763   9.692 -0.7531 -0.2416 -0.3203
 9441TIP3    H149814   1.247   0.802   9.777  3.1499  2.1925 -0.1609
 9441TIP3    H249815   1.210   0.806   9.630 -1.9024 -0.1052  0.8161
 9442TIP3   OH249816   6.064   2.073  12.173  0.0185 -0.1836  0.5996
 9442TIP3    H149817   6.031   2.163  12.175  2.4659  0.7825  1.4715
 9442TIP3    H249818   6.007   2.029  12.109 -0.9553  2.0934 -0.2500
 9443TIP3   OH249819   5.534   6.637   0.917 -0.0453 -0.2783 -0.6309
 9443TIP3    H149820   5.499   6.592   0.994 -0.2987  0.7136 -0.1464
 9443TIP3    H249821   5.622   6.666   0.944 -0.6413  1.2499 -0.2053
 9444TIP3   OH249822   6.645   5.569  12.995 -0.0978  0.3912 -0.0890
 9444TIP3    H149823   6.706   5.516  12.943  0.8041 -0.7714  2.0115
 9444TIP3    H249824   6.572   5.510  13.013 -1.1763  1.2962 -1.2940
 9445TIP3   OH249825   0.727   3.953  13.871 -0.3707  0.4518  0.4095
 9445TIP3    H149826   0.757   4.025  13.815  1.5212 -0.0805  0.6723
 9445TIP3    H249827   0.669   3.994  13.934 -0.6746  1.4531 -0.4852
 9446TIP3   OH249828   1.371   0.959  12.250 -0.2598  0.3323  0.3089
 9446TIP3    H149829   1.365   0.935  12.343  0.5238  1.8755  0.7932
 9446TIP3    H249830   1.287   1.001  12.231 -0.1833  0.5868  0.5148
 9447TIP3   OH249831   2.618   3.611  11.236  0.0716 -0.1831 -1.0590
 9447TIP3    H149832   2.711   3.635  11.242  0.0193 -0.2830  0.2740
 9447TIP3    H249833   2.595   3.581  11.324 -0.8176 -1.6619 -1.7555
 9448TIP3   OH249834   0.437   6.249   1.216  0.1550  0.0324  0.1799
 9448TIP3    H149835   0.377   6.319   1.242 -0.4204 -0.5223  0.3550
 9448TIP3    H249836   0.511   6.258   1.276  0.3471  0.8414 -0.1660
 9449TIP3   OH249837   4.008   4.535  12.346 -0.1472  0.4479  0.0700
 9449TIP3    H149838   4.064   4.458  12.353 -1.1338 -0.2154  0.9550
 9449TIP3    H249839   4.017   4.563  12.255  1.5974  0.3664  0.1846
 9450TIP3   OH249840   5.040   4.681  12.986 -0.2703  0.7665  0.1496
 9450TIP3    H149841   5.085   4.669  13.069 -0.4273  1.2347  0.3083
 9450TIP3    H249842   4.963   4.734  13.008 -0.4693  0.6467 -0.2451
 9451TIP3   OH249843   0.274   1.750   1.764 -0.1683  0.5091  0.4681
 9451TIP3    H149844   0.187   1.779   1.792  0.8841  4.0288  0.6193
 9451TIP3    H249845   0.323   1.739   1.846  0.3429  1.5891  0.3214
 9452TIP3   OH249846   4.010   4.242   3.065 -0.1437  0.9000  0.3145
 9452TIP3    H149847   3.957   4.163   3.065 -0.5858  1.1626  1.8175
 9452TIP3    H249848   3.950   4.311   3.036  0.1748  0.7424 -0.7569
 9453TIP3   OH249849   6.840   4.408   0.696  0.6688  0.2846 -0.0256
 9453TIP3    H149850   6.810   4.399   0.606  1.2592  1.9357 -0.4268
 9453TIP3    H249851   6.912   4.471   0.691  0.7376  0.3788  1.5956
 9454TIP3   OH249852   0.532   1.935   3.463  0.1937 -0.3404 -0.1100
 9454TIP3    H149853   0.440   1.947   3.440  0.2120 -2.1320 -1.3982
 9454TIP3    H249854   0.532   1.920   3.557 -0.7760  0.1295 -0.0295
 9455TIP3   OH249855   5.505   0.716  11.668  0.1764  0.5092 -0.0288
 9455TIP3    H149856   5.587   0.681  11.634  0.4130  0.2575  0.7972
 9455TIP3    H249857   5.509   0.703  11.762 -0.7313  0.6624  0.0480
 9456TIP3   OH249858   4.316   4.960  14.885 -0.4869 -0.0095  0.3692
 9456TIP3    H149859   4.340   4.990  14.798  2.1501  0.0718  1.0338
 9456TIP3    H249860   4.250   5.023  14.916 -0.6110  0.6136 -1.0990
 9457TIP3   OH249861   1.678   2.101   2.036 -0.9628 -0.1748 -0.5250
 9457TIP3    H149862   1.668   2.178   2.093 -0.1076 -0.3499 -0.1319
 9457TIP3    H249863   1.635   2.030   2.083  2.5252 -1.1350  1.5803
 9458TIP3   OH249864   4.373   1.553  11.153  0.0597 -0.1424  0.2530
 9458TIP3    H149865   4.337   1.565  11.064  1.7900  1.3285 -0.3165
 9458TIP3    H249866   4.369   1.641  11.191 -1.2563 -0.8724  1.9337
 9459TIP3   OH249867   0.945   2.264  15.257  0.0497  0.1620 -0.2496
 9459TIP3    H149868   0.947   2.188  15.200  2.3240  1.1316 -1.5988
 9459TIP3    H249869   1.023   2.255  15.312 -1.3045  0.0160  1.7334
 9460TIP3   OH249870   3.543   3.435  11.543  0.4687  0.0753 -0.6411
 9460TIP3    H149871   3.545   3.475  11.630  3.0458 -0.1539 -0.5085
 9460TIP3    H249872   3.549   3.340  11.560 -0.1211 -0.0372 -1.0489
 9461TIP3   OH249873   4.577   2.696  11.577 -0.4450  0.1296 -0.1659
 9461TIP3    H149874   4.538   2.707  11.490 -0.5834 -0.3335 -0.1685
 9461TIP3    H249875   4.611   2.782  11.600  0.8515 -0.0438 -1.2940
 9462TIP3   OH249876   6.126   3.161  13.583 -0.3545  0.0021  0.0291
 9462TIP3    H149877   6.114   3.066  13.589 -0.0976 -0.0824 -0.7255
 9462TIP3    H249878   6.037   3.196  13.589 -0.3107 -0.1330  2.5073
 9463TIP3   OH249879   4.305   5.838  12.934 -0.4429  0.1044  0.2431
 9463TIP3    H149880   4.316   5.844  13.029  2.2445 -0.2300  0.0420
 9463TIP3    H249881   4.319   5.745  12.915 -2.5630 -0.1347 -0.3759
 9464TIP3   OH249882   3.606   0.972   1.885  0.4187 -0.5829 -0.2012
 9464TIP3    H149883   3.551   1.019   1.822 -0.2113 -1.5206 -0.3729
 9464TIP3    H249884   3.672   0.928   1.831  0.1741 -0.9985 -0.1593
 9465TIP3   OH249885   3.467   1.814  12.887 -0.9457 -0.0775 -0.6007
 9465TIP3    H149886   3.465   1.812  12.983 -0.8693 -4.3953 -0.4792
 9465TIP3    H249887   3.559   1.808  12.865 -0.8971  1.7162 -1.0624
 9466TIP3   OH249888   2.675   4.270  12.486 -0.5381  0.0431 -0.1336
 9466TIP3    H149889   2.747   4.333  12.489 -0.9926  0.6316 -0.8971
 9466TIP3    H249890   2.717   4.184  12.491  0.0440  0.3876  1.7404
 9467TIP3   OH249891   4.591   2.590   0.703  0.6473  0.2618 -0.3665
 9467TIP3    H149892   4.672   2.549   0.734  0.1137 -0.7095 -0.2542
 9467TIP3    H249893   4.523   2.558   0.761 -0.1151 -0.3808 -1.5622
 9468TIP3   OH249894   1.303   2.045  10.166 -0.2155 -0.2479 -0.1359
 9468TIP3    H149895   1.392   2.044  10.199 -0.0045 -0.6870 -0.7146
 9468TIP3    H249896   1.270   2.132  10.189  0.5060  0.0803 -0.3144
 9469TIP3   OH249897   1.082   3.700   1.675 -0.9014  0.8844 -0.4589
 9469TIP3    H149898   1.089   3.782   1.626 -1.5120  0.3037 -1.5376
 9469TIP3    H249899   0.988   3.686   1.686 -0.8119  0.1047 -0.6611
 9470TIP3   OH249900   0.704   5.866   5.233  0.2221 -0.0711  0.2963
 9470TIP3    H149901   0.622   5.817   5.226  1.1380 -1.6310  0.0739
 9470TIP3    H249902   0.700   5.929   5.161  0.1372 -1.5811 -1.0835
 9471TIP3   OH249903   5.246   3.567  13.157  0.3736 -0.9064  0.8475
 9471TIP3    H149904   5.249   3.525  13.243 -0.2394  0.2769  1.4646
 9471TIP3    H249905   5.157   3.551  13.125  0.9762 -2.4787 -0.1901
 9472TIP3   OH249906   4.347   0.350   0.565 -0.2131 -0.6095  0.1272
 9472TIP3    H149907   4.367   0.292   0.638 -1.3338 -0.6589  0.4148
 9472TIP3    H249908   4.276   0.406   0.597 -0.3002 -0.2177 -0.7165
 9473TIP3   OH249909   1.135   1.019  12.896 -0.0672  0.1811  0.3535
 9473TIP3    H149910   1.095   0.992  12.814  0.3956 -1.6645  0.6836
 9473TIP3    H249911   1.225   0.989  12.890 -0.2429 -0.7612  1.8416
 9474TIP3   OH249912   1.791   6.303  14.622  0.0216 -0.3080 -0.1235
 9474TIP3    H149913   1.792   6.217  14.663  0.9954  0.2235  1.0184
 9474TIP3    H249914   1.883   6.329  14.618 -0.2408  0.5888 -0.6665
 9475TIP3   OH249915   2.473   2.858  15.350 -0.2204 -0.2888  0.2189
 9475TIP3    H149916   2.462   2.789  15.416 -1.0242 -0.1536  0.2336
 9475TIP3    H249917   2.540   2.823  15.291 -0.1107 -0.7796  0.6203
 9476TIP3   OH249918   6.156   6.512   1.579 -0.7894  0.5309 -0.5524
 9476TIP3    H149919   6.116   6.540   1.497 -0.5110  1.2113 -0.4617
 9476TIP3    H249920   6.175   6.594   1.626  0.0321  0.1973 -0.2775
 9477TIP3   OH249921   3.029   4.597   4.368 -0.3574  0.3068 -0.3131
 9477TIP3    H149922   2.991   4.548   4.295  0.0287  2.6368 -2.2038
 9477TIP3    H249923   3.117   4.561   4.377 -0.8242 -0.8423 -0.1241
 9478TIP3   OH249924   2.531   7.006  13.443  0.1042  0.4333  0.3440
 9478TIP3    H149925   2.596   7.047  13.386  1.2972 -1.0809  0.5489
 9478TIP3    H249926   2.532   6.913  13.418 -1.1631  0.1774  1.1418
 9479TIP3   OH249927   3.196   0.527  12.829 -0.3264 -0.0909  0.0847
 9479TIP3    H149928   3.121   0.501  12.881  0.2532 -0.8666  0.5435
 9479TIP3    H249929   3.209   0.455  12.767 -0.1454  0.1801 -0.2000
 9480TIP3   OH249930   0.260   0.562  10.560  0.0497 -0.1305 -0.5341
 9480TIP3    H149931   0.216   0.479  10.575  0.6902 -0.3095  0.4648
 9480TIP3    H249932   0.340   0.538  10.512  0.4172 -0.1403  0.0789
 9481TIP3   OH249933   3.408   2.020  12.553 -0.7539 -0.1150  0.6141
 9481TIP3    H149934   3.341   2.006  12.620 -2.2948  0.6463 -0.6949
 9481TIP3    H249935   3.375   2.093  12.500  1.0675  0.2207 -0.1628
 9482TIP3   OH249936   5.699   7.015  12.927  0.1036 -0.6198 -0.8811
 9482TIP3    H149937   5.635   7.034  12.996  1.1943  0.5799 -0.1712
 9482TIP3    H249938   5.647   6.972  12.858 -1.8119  1.7290 -1.0275
 9483TIP3   OH249939   2.436   5.784  11.068  0.0411 -0.2205 -0.2994
 9483TIP3    H149940   2.493   5.725  11.018  3.1356  1.1617  1.3911
 9483TIP3    H249941   2.429   5.862  11.014  1.3990  0.3429  0.3034
 9484TIP3   OH249942   4.238   4.501  14.332  0.2460 -0.3440  0.3055
 9484TIP3    H149943   4.224   4.435  14.400  0.7131  0.0020  0.7551
 9484TIP3    H249944   4.312   4.468  14.281  2.2263  0.9890  2.1133
 9485TIP3   OH249945   1.774   0.182   2.782 -0.0535 -0.6094 -1.0267
 9485TIP3    H149946   1.712   0.109   2.781  0.5946 -1.2314  0.7800
 9485TIP3    H249947   1.720   0.260   2.767 -1.2667 -1.1488  0.3557
 9486TIP3   OH249948   5.900   5.795   2.915  0.0931 -0.2728 -0.0505
 9486TIP3    H149949   5.934   5.743   2.988  1.2774  0.6892  0.1232
 9486TIP3    H249950   5.805   5.784   2.920  0.2805 -2.8872 -0.4006
 9487TIP3   OH249951   1.122   2.157  10.873  0.0905 -0.4489 -0.9768
 9487TIP3    H149952   1.035   2.192  10.889  0.8014  0.3585  1.6808
 9487TIP3    H249953   1.160   2.216  10.808 -0.7797  0.1553 -0.9486
 9488TIP3   OH249954   5.286   2.873   9.917 -0.3330  0.8060 -0.2732
 9488TIP3    H149955   5.366   2.899   9.962  0.0449  2.2900 -1.7086
 9488TIP3    H249956   5.217   2.884   9.982  0.3332  1.7390  0.2947
 9489TIP3   OH249957   3.582   3.178   3.196 -0.0102  0.3589  0.2763
 9489TIP3    H149958   3.523   3.239   3.151  0.3139  0.7429  0.3598
 9489TIP3    H249959   3.654   3.234   3.226  0.0426  0.0157  0.7948
 9490TIP3   OH249960   1.270   1.324  11.872 -0.0233  0.3249 -0.3743
 9490TIP3    H149961   1.296   1.363  11.955  2.1745 -0.1264 -0.7623
 9490TIP3    H249962   1.352   1.320  11.821 -0.3913 -3.1392 -0.9955
 9491TIP3   OH249963   7.100   5.177   9.408 -0.0900  0.1777  0.8350
 9491TIP3    H149964   7.189   5.198   9.436 -0.4471 -1.1070  3.2392
 9491TIP3    H249965   7.110   5.107   9.344  0.6753  1.4598 -0.4986
 9492TIP3   OH249966   1.548   1.785  11.541  0.8135 -0.1236 -0.6431
 9492TIP3    H149967   1.530   1.876  11.566 -0.5631 -0.8119  1.1549
 9492TIP3    H249968   1.461   1.747  11.528  1.3201 -1.4747 -0.1724
 9493TIP3   OH249969   1.221   0.009  11.409 -0.5096 -0.0041  0.0826
 9493TIP3    H149970   1.151   0.073  11.397 -1.6968 -1.1458  0.6570
 9493TIP3    H249971   1.197  -0.064  11.351  0.4891 -0.1971 -0.1080
 9494TIP3   OH249972   4.702   5.246  10.663 -0.8152 -0.6312 -0.4145
 9494TIP3    H149973   4.784   5.280  10.627  0.5112 -3.9797 -0.8816
 9494TIP3    H249974   4.729   5.177  10.723 -3.2957 -0.6157  0.8361
 9495TIP3   OH249975   1.078   2.287  12.123 -0.0241  0.4952  0.5855
 9495TIP3    H149976   1.088   2.254  12.212 -1.0905  0.4769  0.7129
 9495TIP3    H249977   1.111   2.376  12.126  0.3002  0.3640  0.9098
 9496TIP3   OH249978   2.392   2.760  13.194  0.1662  0.2482  0.6827
 9496TIP3    H149979   2.444   2.680  13.201 -2.1850 -1.2146  4.1389
 9496TIP3    H249980   2.323   2.739  13.131  0.3126  0.0221  0.5981
 9497TIP3   OH249981   3.162   6.689   2.290 -0.4158 -0.1669 -0.5501
 9497TIP3    H149982   3.248   6.696   2.332 -0.5694 -1.7192  0.0894
 9497TIP3    H249983   3.100   6.718   2.356 -0.3588  2.2155 -1.4373
 9498TIP3   OH249984   2.274   7.056  15.097  0.2440 -0.3349  0.4988
 9498TIP3    H149985   2.232   7.047  15.182  0.9752  0.2949  0.9352
 9498TIP3    H249986   2.285   7.150  15.085 -0.1852 -0.3921 -0.4616
 9499TIP3   OH249987   3.267   6.975  13.455  0.1221  0.6451  0.4507
 9499TIP3    H149988   3.328   6.913  13.497  1.4840  1.0443 -0.8321
 9499TIP3    H249989   3.322   7.023  13.393 -1.3693  1.6012 -0.1677
 9500TIP3   OH249990   5.523   1.389  11.281 -0.0861 -0.0609 -0.1329
 9500TIP3    H149991   5.572   1.386  11.198  2.4340 -1.4725  1.2973
 9500TIP3    H249992   5.559   1.318  11.333 -0.2477  1.8922  2.8962
 9501TIP3   OH249993   3.196   4.010  13.081  0.3649  0.0531 -0.3551
 9501TIP3    H149994   3.161   3.926  13.111 -0.5214  0.0799 -1.2680
 9501TIP3    H249995   3.124   4.050  13.033  1.0814  0.9329 -0.7182
 9502TIP3   OH249996   0.133   6.670  12.023 -0.0124 -0.3006 -0.0212
 9502TIP3    H149997   0.215   6.708  12.054  0.4699 -2.0832  1.0647
 9502TIP3    H249998   0.074   6.678  12.097 -0.0690 -1.1161  0.0291
 9503TIP3   OH249999   2.558   0.162  15.048 -0.4454  0.2259  0.1362
 9503TIP3    H150000   2.493   0.154  14.978  0.5096 -1.4392 -0.6185
 9503TIP3    H250001   2.567   0.074  15.083 -0.4833  0.9367  2.0147
 9504TIP3   OH250002   0.940   0.094  14.556 -0.2948 -0.3965 -0.3624
 9504TIP3    H150003   0.867   0.058  14.605  1.1194 -2.3312  0.4418
 9504TIP3    H250004   1.008   0.110  14.622 -0.0040  1.5851 -1.0494
 9505TIP3   OH250005   3.665   7.052   0.501 -0.6192 -0.1985 -0.0722
 9505TIP3    H150006   3.640   7.143   0.485  0.7244  0.4402  1.2995
 9505TIP3    H250007   3.582   7.004   0.499 -1.6549  1.4244  1.6052
 9506TIP3   OH250008   6.342   1.037  12.246 -0.3758 -0.1315 -0.0479
 9506TIP3    H150009   6.400   1.111  12.232  1.2391 -1.0320  1.5414
 9506TIP3    H250010   6.305   1.050  12.333  1.4895 -2.1156  1.1433
 9507TIP3   OH250011   1.208   2.245   1.601 -0.1666 -0.4239  0.0277
 9507TIP3    H150012   1.181   2.336   1.596  0.2721 -0.3400 -1.0616
 9507TIP3    H250013   1.237   2.233   1.691  0.5427  0.7348 -0.0349
 9508TIP3   OH250014   2.787   1.488   1.266  0.2825 -0.3039  0.6512
 9508TIP3    H150015   2.761   1.409   1.218  0.0937 -0.8607  1.6380
 9508TIP3    H250016   2.879   1.501   1.243  0.4538 -1.1028  0.8577
 9509TIP3   OH250017   5.969   1.122  13.427  0.0436 -0.1187  0.3299
 9509TIP3    H150018   6.048   1.068  13.435 -0.9089 -1.4743  1.0892
 9509TIP3    H250019   5.967   1.148  13.335  0.9119 -0.7797  0.1087
 9510TIP3   OH250020   1.356   6.039  11.400  0.3313 -0.3229  0.2907
 9510TIP3    H150021   1.293   6.026  11.329 -2.8749 -1.7538  3.1020
 9510TIP3    H250022   1.426   5.976  11.381  0.3395  0.3172 -2.2215
 9511TIP3   OH250023   6.693   4.270  10.832  0.2501  0.0578  0.0198
 9511TIP3    H150024   6.762   4.334  10.850  0.3578 -0.1326  0.2819
 9511TIP3    H250025   6.632   4.316  10.773  0.6095  0.2178 -0.2293
 9512TIP3   OH250026   1.605   4.383   4.060  0.6114  0.3958  0.7916
 9512TIP3    H150027   1.659   4.447   4.104  0.2447  0.3794  1.2691
 9512TIP3    H250028   1.520   4.387   4.105  0.1068  0.6546 -0.1510
 9513TIP3   OH250029   6.501   1.449   3.493  0.5930 -0.1072 -0.0739
 9513TIP3    H150030   6.538   1.537   3.499  1.3792 -0.4946  1.2572
 9513TIP3    H250031   6.407   1.461   3.510  0.6076  0.5140 -0.3914
 9514TIP3   OH250032   3.531   1.036  15.115  0.1600 -0.2330 -0.1178
 9514TIP3    H150033   3.523   1.131  15.127 -0.9438 -0.1484 -1.3062
 9514TIP3    H250034   3.444   1.002  15.136  0.8095 -1.1120  1.2379
 9515TIP3   OH250035   0.864   7.065   2.632  0.0444 -0.5690  0.0512
 9515TIP3    H150036   0.916   6.989   2.607 -2.2546 -2.0988 -0.3934
 9515TIP3    H250037   0.913   7.104   2.705  3.2021 -0.1849 -2.0971
 9516TIP3   OH250038   2.987   0.312   0.222  0.1161 -0.9665  0.0178
 9516TIP3    H150039   3.036   0.379   0.269  1.0235 -0.8082 -1.0870
 9516TIP3    H250040   2.978   0.347   0.133  0.1346 -2.0557 -0.4330
 9517TIP3   OH250041   1.698   0.550   9.476  0.9947 -0.1826 -0.0039
 9517TIP3    H150042   1.639   0.487   9.517  1.2345 -0.5180 -0.1662
 9517TIP3    H250043   1.670   0.554   9.385  0.5285  0.4846  0.1609
 9518TIP3   OH250044   1.396   7.010  13.641 -0.1366  0.1237  0.0706
 9518TIP3    H150045   1.489   6.993  13.630  0.1071  0.9033  0.8611
 9518TIP3    H250046   1.359   6.994  13.554  0.9160  0.9673 -0.5600
 9519TIP3   OH250047   1.623   3.639   2.189 -0.3138 -0.1316 -0.0925
 9519TIP3    H150048   1.583   3.709   2.137 -0.3736  0.9983  1.4088
 9519TIP3    H250049   1.551   3.580   2.210 -0.4934 -0.0254 -0.4119
 9520TIP3   OH250050   6.468   0.780  12.019  0.5167  0.2426 -0.3073
 9520TIP3    H150051   6.423   0.783  12.103  2.2203 -0.5210  0.6876
 9520TIP3    H250052   6.423   0.711  11.969 -2.3813  2.6420 -1.2443
 9521TIP3   OH250053   2.346   5.821  13.279  0.0781  0.2699  0.2424
 9521TIP3    H150054   2.388   5.814  13.365 -2.2045  0.9002  1.5275
 9521TIP3    H250055   2.310   5.734  13.263 -1.9652  0.8273  1.3990
 9522TIP3   OH250056   6.642   6.247   0.603  0.2449 -0.0013 -0.4240
 9522TIP3    H150057   6.700   6.236   0.678  0.4479  0.3696 -0.5270
 9522TIP3    H250058   6.577   6.177   0.613 -0.0036  0.3307  0.3444
 9523TIP3   OH250059   7.172   4.970  14.001 -0.1141 -0.3086 -0.4443
 9523TIP3    H150060   7.098   4.917  13.971 -0.5139  0.2217 -0.4251
 9523TIP3    H250061   7.152   5.058  13.969  0.4205 -0.1264 -0.2762
 9524TIP3   OH250062   4.435   6.107  14.358 -0.3006 -0.2436 -0.3727
 9524TIP3    H150063   4.357   6.163  14.356 -0.0590  0.0737 -1.4809
 9524TIP3    H250064   4.444   6.075  14.269  0.0055 -1.4709  0.0742
 9525TIP3   OH250065   4.700   0.322  10.917  0.1081 -0.5770  0.2522
 9525TIP3    H150066   4.767   0.362  10.862 -0.0880 -0.5081  0.0615
 9525TIP3    H250067   4.747   0.291  10.994  0.2913 -0.1503  0.3143
 9526TIP3   OH250068   0.203   2.635  12.421  0.0784  0.1005 -0.3670
 9526TIP3    H150069   0.178   2.656  12.331  0.4641  3.0001  0.0869
 9526TIP3    H250070   0.121   2.618  12.467 -0.4795  2.1206 -0.5361
 9527TIP3   OH250071   3.648   3.171   9.840 -0.1093 -0.0117 -0.5728
 9527TIP3    H150072   3.555   3.193   9.837 -0.3366 -0.7157  0.6513
 9527TIP3    H250073   3.691   3.239   9.788 -1.3286  0.1688 -1.3781
 9528TIP3   OH250074   1.542   4.880   1.033 -0.2775  0.0129 -0.5428
 9528TIP3    H150075   1.467   4.929   0.999 -1.1491 -0.7708  0.2231
 9528TIP3    H250076   1.560   4.919   1.119 -0.2269 -0.2487 -0.4342
 9529TIP3   OH250077   2.736   3.143  13.669  0.0310 -0.3943  0.5759
 9529TIP3    H150078   2.760   3.079  13.602 -0.6976 -0.9989  0.8828
 9529TIP3    H250079   2.646   3.166  13.648  0.0044 -0.1215  0.9858
 9530TIP3   OH250080   3.408   4.411  13.706  0.0079  0.7157 -0.3596
 9530TIP3    H150081   3.468   4.340  13.731 -1.1241 -0.6369 -1.2984
 9530TIP3    H250082   3.352   4.372  13.639 -0.8706  2.4271 -0.6684
 9531TIP3   OH250083   0.202   0.464  13.080  0.4010  0.0409 -0.6036
 9531TIP3    H150084   0.125   0.519  13.087  0.5098  0.0427  1.0477
 9531TIP3    H250085   0.261   0.511  13.022 -0.6465  0.2634 -1.4990
 9532TIP3   OH250086   0.847   1.515  13.314  0.2898 -0.1871 -0.5705
 9532TIP3    H150087   0.898   1.492  13.391 -1.1507 -1.0650  0.1634
 9532TIP3    H250088   0.895   1.587  13.273  1.1092  0.2515  1.1104
 9533TIP3   OH250089   2.819   6.686  12.412 -0.7745  0.5533 -0.0901
 9533TIP3    H150090   2.825   6.607  12.465 -1.2957 -0.4172 -1.4274
 9533TIP3    H250091   2.836   6.758  12.473  2.9688 -0.6795  0.5978
 9534TIP3   OH250092   3.255   7.023   4.994 -0.4788 -0.0732  0.1201
 9534TIP3    H150093   3.175   7.054   4.952 -0.9550 -0.5971  0.6196
 9534TIP3    H250094   3.234   7.021   5.087  0.5265  0.9731  0.3974
 9535TIP3   OH250095   3.249   6.834  14.252  0.1220  1.3243  0.9393
 9535TIP3    H150096   3.185   6.795  14.192  0.1491  0.0849  1.6922
 9535TIP3    H250097   3.250   6.775  14.327  3.1760  0.4981  0.3609
 9536TIP3   OH250098   2.654   6.596   2.136 -0.3220  0.0976  0.2103
 9536TIP3    H150099   2.645   6.668   2.074 -0.6177 -0.3825 -0.3180
 9536TIP3    H250100   2.565   6.575   2.163 -0.0937  1.5406  2.2879
 9537TIP3   OH250101   1.464   0.408   0.097  0.7319  0.0416  0.0206
 9537TIP3    H150102   1.412   0.471   0.146  0.8241  0.1125  0.0265
 9537TIP3    H250103   1.551   0.412   0.136  0.9827  0.5874 -0.5849
 9538TIP3   OH250104   0.117   4.985  13.027 -0.0980  0.2587  0.2558
 9538TIP3    H150105   0.156   4.955  13.110  0.2211 -0.4725 -0.1474
 9538TIP3    H250106   0.182   4.962  12.961 -0.5538  0.4170 -0.2509
 9539TIP3   OH250107   0.192   4.558   2.610  0.0810 -0.0705  0.2459
 9539TIP3    H150108   0.160   4.532   2.696 -0.4797  0.6322  0.2594
 9539TIP3    H250109   0.274   4.510   2.599  0.1784 -0.1310  1.1850
 9540TIP3   OH250110   5.353   0.812  12.297  0.1395  0.3222  0.2383
 9540TIP3    H150111   5.348   0.904  12.271 -0.5803 -0.0152 -0.9298
 9540TIP3    H250112   5.270   0.796  12.343  0.3118  0.2827  0.5367
 9541TIP3   OH250113   3.906   1.604  10.827  0.2750  0.0265 -0.5225
 9541TIP3    H150114   3.912   1.514  10.796  0.7492 -0.1428  0.0325
 9541TIP3    H250115   3.949   1.656  10.760  0.8680 -0.2803 -0.3898
 9542TIP3   OH250116   1.565   0.375  13.279  0.3147 -0.3259  0.4650
 9542TIP3    H150117   1.518   0.319  13.341 -0.0066  0.0201  0.5362
 9542TIP3    H250118   1.635   0.414  13.331 -0.1682  0.2384  0.7030
 9543TIP3   OH250119   0.037   6.546  14.690 -0.4262 -0.4239 -0.8854
 9543TIP3    H150120  -0.017   6.472  14.661  0.5317 -1.4383 -0.1665
 9543TIP3    H250121   0.093   6.509  14.759  0.6060  0.7868 -1.0411
 9544TIP3   OH250122   4.104   2.004  11.650  0.0173  0.0778 -0.4202
 9544TIP3    H150123   4.196   1.979  11.658 -0.1253 -1.5792 -2.6869
 9544TIP3    H250124   4.056   1.937  11.700 -0.0514 -0.8775 -1.6963
 9545TIP3   OH250125   6.944   1.668   4.746  0.1187 -0.5322 -0.9309
 9545TIP3    H150126   7.020   1.612   4.760 -0.4060 -1.1700 -0.5409
 9545TIP3    H250127   6.941   1.724   4.823 -1.2534 -2.2550  0.3585
 9546TIP3   OH250128   5.957   3.536   3.403  0.1295  0.0693 -0.4468
 9546TIP3    H150129   5.992   3.518   3.491 -0.5622 -1.1222 -0.3894
 9546TIP3    H250130   5.991   3.465   3.349  0.5106  0.7722 -1.1450
 9547TIP3   OH250131   2.509   6.654  10.215  0.0917 -0.5614 -0.1560
 9547TIP3    H150132   2.559   6.586  10.261 -0.7045 -1.0035  0.0592
 9547TIP3    H250133   2.487   6.718  10.283  1.0147  0.0361 -0.3958
 9548TIP3   OH250134   6.522   6.244   2.623  0.2751  0.8524 -0.2476
 9548TIP3    H150135   6.528   6.165   2.569  1.3864  0.8937 -0.2164
 9548TIP3    H250136   6.510   6.210   2.712  0.8035  0.7045 -0.2271
 9549TIP3   OH250137   5.178   4.386   0.736  0.1046 -0.3375 -0.5510
 9549TIP3    H150138   5.134   4.359   0.656  1.0703 -0.5342 -1.0200
 9549TIP3    H250139   5.260   4.426   0.707  0.2776 -0.0302  0.3170
 9550TIP3   OH250140   3.971   0.897  13.968 -0.0865  0.4201 -0.5991
 9550TIP3    H150141   3.973   0.822  13.909  1.4575 -0.5778  0.6454
 9550TIP3    H250142   3.882   0.933  13.959 -1.5554 -2.7127  0.1961
 9551TIP3   OH250143   3.499   4.488  15.117  0.2261 -0.7868  0.0554
 9551TIP3    H150144   3.586   4.522  15.097  1.4360 -2.1396  2.5627
 9551TIP3    H250145   3.493   4.406  15.068  0.5446 -0.9120  0.2259
 9552TIP3   OH250146   1.520   5.760   2.289 -0.2936  0.0714  0.0163
 9552TIP3    H150147   1.513   5.720   2.375  2.1102 -0.7307 -0.0874
 9552TIP3    H250148   1.450   5.719   2.238  0.7550 -2.5307  0.5059
 9553TIP3   OH250149   5.384   6.688  12.352 -0.1599 -0.7179 -0.1856
 9553TIP3    H150150   5.349   6.777  12.360  2.2865  0.4846 -1.7062
 9553TIP3    H250151   5.337   6.651  12.277  0.6863  0.3427 -1.2890
 9554TIP3   OH250152   3.421   5.767   1.450 -0.0114  0.0762  0.1573
 9554TIP3    H150153   3.371   5.727   1.379  0.8238  1.0366 -1.0206
 9554TIP3    H250154   3.355   5.805   1.508 -0.6941  0.4572 -0.8356
 9555TIP3   OH250155   2.682   0.399  14.982  0.1742 -0.4776 -0.0288
 9555TIP3    H150156   2.649   0.312  15.001  0.3080 -0.2639  1.2417
 9555TIP3    H250157   2.712   0.394  14.891 -2.7804 -0.8360 -1.0839
 9556TIP3   OH250158   4.397   4.747   0.388 -0.4994  0.1941  0.5710
 9556TIP3    H150159   4.366   4.672   0.338 -1.8359  0.5157  0.8616
 9556TIP3    H250160   4.337   4.753   0.462 -0.2906  1.4106  0.6696
 9557TIP3   OH250161   6.970   0.214  12.917 -0.2409  0.4159  0.0823
 9557TIP3    H150162   6.968   0.291  12.973 -1.2646 -0.6313  1.5453
 9557TIP3    H250163   6.893   0.224  12.860  0.1008  0.8699 -0.3078
 9558TIP3   OH250164   6.143   4.964   0.928  0.5659  1.0033 -0.0200
 9558TIP3    H150165   6.081   4.893   0.910 -0.2012  0.9405  2.4746
 9558TIP3    H250166   6.179   4.987   0.842 -1.4987 -0.2408 -1.3083
 9559TIP3   OH250167   0.506   4.777  15.268  0.1486 -0.0472  0.3966
 9559TIP3    H150168   0.483   4.692  15.230  1.4349  0.0145 -0.5612
 9559TIP3    H250169   0.578   4.758  15.327  1.6176  0.5905 -1.1221
 9560TIP3   OH250170   1.710   5.457  15.308 -0.2192  0.0425  0.0993
 9560TIP3    H150171   1.729   5.549  15.294 -0.3049 -0.0006 -0.3029
 9560TIP3    H250172   1.664   5.455  15.392 -0.7569  0.4387 -0.1780
 9561TIP3   OH250173   3.165   4.581   9.822 -0.2237  0.6461 -0.0496
 9561TIP3    H150174   3.242   4.528   9.842  0.1938  1.6808  1.2194
 9561TIP3    H250175   3.096   4.516   9.807  0.8337 -0.2899 -1.0841
 9562TIP3   OH250176   6.585   6.102  14.964 -0.4519 -0.2265  0.4840
 9562TIP3    H150177   6.531   6.148  14.900 -0.7729 -1.1621  0.0606
 9562TIP3    H250178   6.609   6.169  15.028  0.4455  0.8870 -0.9539
 9563TIP3   OH250179   5.107   6.427   0.459  0.2712 -0.0612 -0.2807
 9563TIP3    H150180   5.187   6.381   0.484  1.1695  0.2601 -2.3232
 9563TIP3    H250181   5.055   6.360   0.414  0.9651  0.4994 -2.0122
 9564TIP3   OH250182   3.380   6.563  10.892  0.5435 -0.6814  0.0651
 9564TIP3    H150183   3.353   6.636  10.836 -0.1568 -0.9879 -0.0124
 9564TIP3    H250184   3.398   6.491  10.830  1.5636 -0.4874  0.1148
 9565TIP3   OH250185   2.400   5.856  15.157 -0.8330 -0.1617 -0.2412
 9565TIP3    H150186   2.429   5.935  15.202  1.6854 -0.8690 -0.5038
 9565TIP3    H250187   2.435   5.784  15.209 -0.2262 -1.0464 -1.8003
 9566TIP3   OH250188   2.599   6.516  13.179 -0.2276 -0.0034  0.1873
 9566TIP3    H150189   2.566   6.582  13.118  1.4916  0.1736 -0.5962
 9566TIP3    H250190   2.585   6.433  13.134  1.6545  0.1746 -0.7870
 9567TIP3   OH250191   2.534   1.802  10.172 -0.2582  0.1027 -0.1322
 9567TIP3    H150192   2.532   1.865  10.100 -2.1316  1.1335  0.7337
 9567TIP3    H250193   2.505   1.719  10.133  0.2658  0.2712 -0.8782
 9568TIP3   OH250194   3.660   3.434  15.416  0.4460  0.4741 -0.4016
 9568TIP3    H150195   3.648   3.454  15.509  0.0046  0.7191 -0.5130
 9568TIP3    H250196   3.572   3.418  15.382  0.6931 -0.7019 -0.5415
 9569TIP3   OH250197   1.576   6.826  14.604 -0.0010 -0.5370 -0.4167
 9569TIP3    H150198   1.628   6.748  14.622  1.7588  0.3857 -1.1971
 9569TIP3    H250199   1.605   6.889  14.670 -0.5027 -0.1672 -0.5465
 9570TIP3   OH250200   4.743   3.022  14.599 -0.1275 -1.0484  0.3362
 9570TIP3    H150201   4.656   3.060  14.584 -0.1273 -1.1846 -0.0146
 9570TIP3    H250202   4.727   2.950  14.659 -0.2233 -0.9132  0.4728
 9571TIP3   OH250203   5.559   3.419   1.487 -0.2436  0.8931  0.3769
 9571TIP3    H150204   5.500   3.386   1.555  0.9869 -0.2306  0.9609
 9571TIP3    H250205   5.640   3.370   1.501  0.6666  2.0373 -0.6997
 9572TIP3   OH250206   6.045   4.969  12.701  0.2793  0.4531  0.2901
 9572TIP3    H150207   6.086   4.907  12.762  0.9946  1.6474  1.0641
 9572TIP3    H250208   5.994   5.028  12.757  1.7897  2.2207 -0.0884
 9573TIP3   OH250209   1.111   1.648  12.435  0.3951  0.1815  0.2168
 9573TIP3    H150210   1.071   1.632  12.350  1.9655 -1.2522 -0.3116
 9573TIP3    H250211   1.039   1.678  12.490 -0.7050  0.8984 -1.5328
 9574TIP3   OH250212   6.847   5.639  10.189 -0.0502  0.5317  0.2992
 9574TIP3    H150213   6.812   5.711  10.242 -0.5175  0.4632  0.0838
 9574TIP3    H250214   6.942   5.648  10.197  0.0099 -1.7918  4.3057
 9575TIP3   OH250215   1.966   0.018   9.379  0.0268  0.2585  0.6093
 9575TIP3    H150216   1.917   0.064   9.310 -0.0274  0.0845  0.5294
 9575TIP3    H250217   2.017   0.086   9.423  1.6920  0.1031 -0.9443
 9576TIP3   OH250218   1.897   6.901   3.048  0.0616  0.4192 -0.0789
 9576TIP3    H150219   1.866   6.913   3.137 -0.7093  0.7207 -0.3788
 9576TIP3    H250220   1.949   6.820   3.051 -0.4530  0.1042  0.5136
 9577TIP3   OH250221   3.658   6.398  12.953 -0.2135  0.1207  0.3690
 9577TIP3    H150222   3.714   6.321  12.957 -0.2860 -0.1596 -2.4058
 9577TIP3    H250223   3.682   6.442  12.872  0.8022  3.8877  2.4534
 9578TIP3   OH250224   1.243   5.335  14.784 -0.7059  0.1055 -0.4538
 9578TIP3    H150225   1.151   5.358  14.776 -0.3214  1.7421 -0.5102
 9578TIP3    H250226   1.283   5.409  14.830  0.4385 -0.9568  0.3348
 9579TIP3   OH250227   3.610   1.647  11.213  0.0588 -0.7307 -0.0429
 9579TIP3    H150228   3.696   1.604  11.206  0.6773  0.6597 -1.6604
 9579TIP3    H250229   3.585   1.666  11.123 -1.9391 -1.0187  0.4002
 9580TIP3   OH250230   6.589   5.234  11.875  0.1292  0.6959  0.3671
 9580TIP3    H150231   6.646   5.256  11.801  1.5510  0.1115  1.2558
 9580TIP3    H250232   6.605   5.141  11.891 -1.0949  0.5141  0.6411
 9581TIP3   OH250233   1.565   3.188  15.373 -0.1460 -0.0609 -0.1276
 9581TIP3    H150234   1.646   3.141  15.352 -0.2494 -0.4217  0.2604
 9581TIP3    H250235   1.511   3.123  15.418  0.0190  0.6497  1.1288
 9582TIP3   OH250236   5.291   6.268  12.163 -0.0310  0.4831 -0.1313
 9582TIP3    H150237   5.284   6.289  12.256  0.0437  0.1292 -0.0455
 9582TIP3    H250238   5.210   6.221  12.142 -0.3749  1.1909 -0.4144
 9583TIP3   OH250239   0.524   1.584   2.654 -0.1331  0.3044 -0.1206
 9583TIP3    H150240   0.594   1.602   2.591  0.0574 -4.5380 -1.6590
 9583TIP3    H250241   0.564   1.526   2.718 -1.6050  1.3815  1.8813
 9584TIP3   OH250242   2.182   1.262   0.568 -0.0400  0.0491 -0.0604
 9584TIP3    H150243   2.109   1.291   0.623  1.6897  1.1276  1.8144
 9584TIP3    H250244   2.213   1.182   0.610  0.0791 -0.1972 -0.6213
 9585TIP3   OH250245   1.529   1.429   0.439 -0.6807  0.2469 -0.3278
 9585TIP3    H150246   1.473   1.358   0.407  0.4861 -0.4396 -0.8819
 9585TIP3    H250247   1.548   1.481   0.361  0.1192  0.0042 -0.3032
 9586TIP3   OH250248   3.036   0.477   3.976  0.3730 -0.1564 -0.0975
 9586TIP3    H150249   3.122   0.506   4.007  1.2887 -1.3911 -1.3641
 9586TIP3    H250250   3.011   0.407   4.036  0.5900 -0.2786 -0.1492
 9587TIP3   OH250251   4.075   0.301   3.227 -0.1676 -0.5670  0.2514
 9587TIP3    H150252   4.057   0.307   3.321  1.0631  0.4664  0.4462
 9587TIP3    H250253   4.024   0.371   3.188  0.2527 -0.2248  0.3076
 9588TIP3   OH250254   4.988   2.065  13.129 -0.6126  0.1275 -0.2067
 9588TIP3    H150255   4.975   2.129  13.059 -0.0920  3.4461  2.4706
 9588TIP3    H250256   5.081   2.072  13.151 -0.4022 -2.0684 -0.1955
 9589TIP3   OH250257   0.856   2.823  14.835  1.0653 -0.3040  0.2008
 9589TIP3    H150258   0.805   2.903  14.842  0.1482 -0.9214  0.8396
 9589TIP3    H250259   0.832   2.786  14.750  0.7645 -0.3788  0.3178
 9590TIP3   OH250260   6.872   2.891  14.231  0.0582 -0.6597 -0.6029
 9590TIP3    H150261   6.785   2.855  14.214  0.0682 -0.8583 -0.2486
 9590TIP3    H250262   6.925   2.864  14.156 -0.4079  0.2297 -1.2716
 9591TIP3   OH250263   0.445   7.048   0.973 -0.0791  0.6502 -0.8053
 9591TIP3    H150264   0.474   7.123   0.920  0.4334 -0.0924 -1.5903
 9591TIP3    H250265   0.352   7.040   0.955 -0.8098  2.8032  1.4188
 9592TIP3   OH250266   0.708   7.040  11.988  0.1510  0.4258  0.1520
 9592TIP3    H150267   0.674   7.130  11.986 -0.0975  0.3218 -0.4131
 9592TIP3    H250268   0.786   7.046  12.043 -0.2095  0.8679  0.6298
 9593TIP3   OH250269   0.771   5.403   2.738 -0.6031  0.1908 -0.0446
 9593TIP3    H150270   0.727   5.340   2.681 -1.3983  0.8970 -0.2262
 9593TIP3    H250271   0.864   5.384   2.727 -0.8312 -1.0253 -0.0090
 9594TIP3   OH250272   2.376   7.035   9.417 -0.4536 -0.0905 -0.1319
 9594TIP3    H150273   2.367   7.082   9.500 -1.3259  2.4231 -1.5533
 9594TIP3    H250274   2.468   7.047   9.392 -0.7012  1.0369 -0.5488
 9595TIP3   OH250275   6.003   5.814  14.735 -0.1853 -0.0928 -0.4664
 9595TIP3    H150276   6.010   5.740  14.796 -0.6435  0.3714  0.1488
 9595TIP3    H250277   5.937   5.786  14.671 -1.5847  0.4219  0.7021
 9596TIP3   OH250278   5.374   1.845   1.695 -0.4191 -0.2479 -0.0617
 9596TIP3    H150279   5.359   1.931   1.733  0.4952  1.0762 -2.4381
 9596TIP3    H250280   5.296   1.794   1.717 -2.1257  1.9773 -0.6250
 9597TIP3   OH250281   2.125   4.891  12.296  0.0343  0.5206  0.0739
 9597TIP3    H150282   2.157   4.961  12.239 -0.4557  1.7388  1.2411
 9597TIP3    H250283   2.031   4.887  12.278 -0.3062  1.6191  1.5021
 9598TIP3   OH250284   2.006   6.071  10.016 -1.0011  0.0143 -0.4298
 9598TIP3    H150285   2.001   6.162   9.988  1.6090  0.4877  0.3548
 9598TIP3    H250286   2.037   6.075  10.107 -0.6269 -1.6399 -0.4436
 9599TIP3   OH250287   6.117   6.576   0.204 -0.0758  0.0392  0.0726
 9599TIP3    H150288   6.063   6.655   0.195  1.5595  1.0521 -1.7769
 9599TIP3    H250289   6.145   6.577   0.295 -1.2687  0.7789  0.4578
 9600TIP3   OH250290   3.737   1.202   1.563 -0.3786  0.2320 -0.0592
 9600TIP3    H150291   3.686   1.234   1.637 -0.8492  1.0483 -0.7152
 9600TIP3    H250292   3.706   1.112   1.549 -0.3882  0.1256  0.6339
 9601TIP3   OH250293   5.651   1.259  12.862 -0.3947 -0.4249 -0.4696
 9601TIP3    H150294   5.675   1.333  12.807  0.0869  0.7431  1.2234
 9601TIP3    H250295   5.569   1.285  12.904  1.2123  0.4629  2.3254
 9602TIP3   OH250296   0.974   2.769   2.684  0.1004 -0.1823  0.8800
 9602TIP3    H150297   1.001   2.812   2.602  2.1045 -0.1768  1.4904
 9602TIP3    H250298   0.900   2.715   2.659 -0.3679  1.0710 -0.6014
 9603TIP3   OH250299   6.678   6.118  13.430 -0.6172  0.4362  0.5384
 9603TIP3    H150300   6.620   6.067  13.486  0.5023 -1.2044  0.2721
 9603TIP3    H250301   6.682   6.067  13.348  1.0440  0.6002  0.4988
 9604TIP3   OH250302   0.743   4.102   1.078  0.6085  0.3494 -0.5290
 9604TIP3    H150303   0.671   4.039   1.081 -0.2391  1.3172  0.1833
 9604TIP3    H250304   0.775   4.097   0.988 -0.0659 -0.3955 -0.7457
 9605TIP3   OH250305   6.046   1.359  12.614 -0.0409  0.7000 -0.3283
 9605TIP3    H150306   5.977   1.296  12.633  1.0294 -1.2728 -2.5029
 9605TIP3    H250307   6.027   1.390  12.526  0.7387  1.6906 -0.1636
 9606TIP3   OH250308   2.650   3.259  11.335 -0.3578 -0.1644  0.2471
 9606TIP3    H150309   2.645   3.352  11.357 -1.8988  0.5251 -2.5120
 9606TIP3    H250310   2.588   3.217  11.394 -2.5625  1.2066 -0.9308
 9607TIP3   OH250311   3.895   0.126  10.427 -0.7932  0.1275  0.1379
 9607TIP3    H150312   3.963   0.099  10.365 -1.3626 -1.8417  0.3166
 9607TIP3    H250313   3.876   0.048  10.478 -3.1263  0.6482  0.1759
 9608TIP3   OH250314   0.668   3.487  13.369 -0.4593  0.1816  0.4437
 9608TIP3    H150315   0.587   3.536  13.387 -0.5036 -0.1470  1.1284
 9608TIP3    H250316   0.737   3.554  13.372 -0.6024  0.3199  0.7106
 9609TIP3   OH250317   0.769   6.388   3.211  0.3005  0.3314  0.0508
 9609TIP3    H150318   0.788   6.482   3.205  0.8915  0.2391  0.3835
 9609TIP3    H250319   0.818   6.349   3.138  0.3608  0.2435  0.1376
 9610TIP3   OH250320   6.579   6.297  15.312 -0.2849  0.2455 -1.0020
 9610TIP3    H150321   6.500   6.284  15.259 -2.0173 -1.3426  1.7343
 9610TIP3    H250322   6.561   6.376  15.362  0.5736  0.7465 -1.4660
 9611TIP3   OH250323   3.549   0.442   2.673  0.0665 -0.0310  0.3459
 9611TIP3    H150324   3.583   0.401   2.594 -1.7051  1.1134 -1.1008
 9611TIP3    H250325   3.597   0.525   2.680 -0.1531  0.1168  0.1364
 9612TIP3   OH250326   0.681   5.332  10.257 -0.2615  0.4534 -0.4096
 9612TIP3    H150327   0.632   5.351  10.176 -0.7599  1.6117  0.1276
 9612TIP3    H250328   0.773   5.337  10.231 -0.4051 -0.6803 -1.2093
 9613TIP3   OH250329   0.729   7.211   0.865  0.3358 -0.4539 -0.2993
 9613TIP3    H150330   0.737   7.305   0.848 -2.3945 -0.4564 -2.1920
 9613TIP3    H250331   0.686   7.206   0.950  0.7659 -0.0346 -0.0459
 9614TIP3   OH250332   6.355   5.422  12.929  0.3795 -0.9087  0.1080
 9614TIP3    H150333   6.300   5.369  12.870  1.1039 -2.1821  0.5313
 9614TIP3    H250334   6.294   5.481  12.972 -0.6237 -2.0550  0.3182
 9615TIP3   OH250335   5.892   0.242  13.817 -0.7912  0.0100  0.7663
 9615TIP3    H150336   5.881   0.156  13.859 -1.2076 -1.0859 -1.4223
 9615TIP3    H250337   5.802   0.273  13.803 -0.6392  1.0879  2.0156
 9616TIP3   OH250338   4.771   1.732   3.568  0.2880  0.0598  0.1313
 9616TIP3    H150339   4.707   1.792   3.609  0.5746  0.3722  0.1262
 9616TIP3    H250340   4.781   1.767   3.479 -3.2413 -2.7714 -1.6555
 9617TIP3   OH250341   3.950   4.113  10.026 -0.0747 -0.2681  0.3579
 9617TIP3    H150342   3.899   4.106   9.946 -1.0777 -1.2666  1.0563
 9617TIP3    H250343   4.039   4.131   9.997 -0.4030 -0.7331 -0.9777
 9618TIP3   OH250344   6.767   3.327   9.483 -0.1308  0.0444  1.0776
 9618TIP3    H150345   6.737   3.388   9.416 -0.3818 -0.7831  0.4204
 9618TIP3    H250346   6.686   3.301   9.529  0.0329  0.5667  1.6638
 9619TIP3   OH250347   4.289   2.155  14.590 -0.3195  0.0664  0.7121
 9619TIP3    H150348   4.365   2.100  14.572 -1.7477 -1.3441 -1.5172
 9619TIP3    H250349   4.304   2.234  14.537 -0.0950  0.1099  0.8371
 9620TIP3   OH250350   5.263   0.287  13.930  0.1396 -0.5060 -0.2135
 9620TIP3    H150351   5.317   0.366  13.933  0.8551 -0.9243 -1.2387
 9620TIP3    H250352   5.300   0.230  13.998 -0.4847  0.0842  0.6432
 9621TIP3   OH250353   5.393   3.574   9.488 -0.1135  0.2553  0.9407
 9621TIP3    H150354   5.441   3.634   9.545 -1.5573  1.7777  0.6426
 9621TIP3    H250355   5.400   3.614   9.401  0.2710 -0.9072  0.4157
 9622TIP3   OH250356   5.325   6.523   5.533 -0.2940  0.1262 -0.2929
 9622TIP3    H150357   5.239   6.566   5.535 -0.8627 -0.9821  0.8513
 9622TIP3    H250358   5.304   6.429   5.533  0.9178 -0.1630 -1.1080
 9623TIP3   OH250359   1.764   0.287   9.934  0.1184  0.5496  0.0611
 9623TIP3    H150360   1.692   0.344   9.961  0.3801  1.0740 -0.3438
 9623TIP3    H250361   1.833   0.346   9.906  0.8971  0.0499  0.8980
 9624TIP3   OH250362   6.601   5.450  15.287  0.0578 -0.7752  0.4552
 9624TIP3    H150363   6.589   5.423  15.196  0.0077  0.5922  0.0275
 9624TIP3    H250364   6.512   5.466  15.319  0.1257 -0.4337  0.4767
 9625TIP3   OH250365   0.929   7.010  11.364  0.3311  0.2724  0.3238
 9625TIP3    H150366   0.954   7.077  11.301 -1.0382 -1.1194 -1.8546
 9625TIP3    H250367   0.874   7.057  11.428 -0.9742  1.2189 -1.3882
 9626TIP3   OH250368   6.084   3.640  13.412  0.2757  0.8870  0.4345
 9626TIP3    H150369   6.094   3.577  13.340  0.2882  1.3319  0.0429
 9626TIP3    H250370   6.159   3.698  13.404  0.5779  0.6069  1.1535
 9627TIP3   OH250371   6.558   6.933  13.217 -0.1019 -0.1564 -0.0204
 9627TIP3    H150372   6.509   7.013  13.234 -0.3154 -0.3007  0.0422
 9627TIP3    H250373   6.502   6.882  13.158 -1.6879 -1.9152  2.7883
 9628TIP3   OH250374   6.249   2.774   0.496  0.2874  0.4446  0.0894
 9628TIP3    H150375   6.266   2.705   0.432  1.2809  1.0407 -0.2998
 9628TIP3    H250376   6.157   2.762   0.520  0.4101 -0.9256 -0.0686
 9629TIP3   OH250377   0.149   2.893   4.561  0.2154 -0.0464  0.0690
 9629TIP3    H150378   0.143   2.798   4.571  0.9165 -0.1583 -0.4694
 9629TIP3    H250379   0.092   2.913   4.487  1.4263 -0.2895 -0.9613
 9630TIP3   OH250380   2.691   2.240   0.816 -0.5172 -0.3829 -0.4094
 9630TIP3    H150381   2.727   2.202   0.736  3.1897 -1.5431  1.5950
 9630TIP3    H250382   2.628   2.306   0.785  0.0552 -1.3870 -4.1956
 9631TIP3   OH250383   0.133   6.931  13.070  1.4032 -0.2483 -0.0929
 9631TIP3    H150384   0.212   6.924  13.017  0.2823  0.7711 -1.9901
 9631TIP3    H250385   0.127   7.025  13.091  1.0468 -0.4246  0.6144
 9632TIP3   OH250386   7.196   5.961  13.381  0.2261 -0.3644  0.6245
 9632TIP3    H150387   7.149   5.959  13.464 -0.3809  0.6563  0.3190
 9632TIP3    H250388   7.131   5.932  13.316  0.9205 -1.9265  0.5884
 9633TIP3   OH250389   0.383   6.156  11.091  0.2431  0.0911 -0.3284
 9633TIP3    H150390   0.478   6.156  11.087  0.2424  0.9319 -0.4474
 9633TIP3    H250391   0.358   6.248  11.085 -0.4271  0.2835  3.2911
 9634TIP3   OH250392   6.626   1.768   1.928  0.0082 -0.2837 -0.0706
 9634TIP3    H150393   6.721   1.763   1.913 -0.0126  1.1971 -0.8191
 9634TIP3    H250394   6.588   1.725   1.851  0.0517  0.1125 -0.3138
 9635TIP3   OH250395   0.074   5.562  13.296  0.9357  0.2167  0.3394
 9635TIP3    H150396   0.124   5.623  13.350  2.8053  0.6529 -1.7296
 9635TIP3    H250397   0.059   5.609  13.214  0.1849 -1.2201 -0.3913
 9636TIP3   OH250398   3.093   3.876   3.957  0.1464 -0.4218  0.7124
 9636TIP3    H150399   3.126   3.965   3.969  0.2157 -0.2519 -0.5841
 9636TIP3    H250400   3.143   3.823   4.019 -0.7102  0.6016  2.3459
 9637TIP3   OH250401   6.536   1.516  10.130  0.1869 -0.2043  0.1084
 9637TIP3    H150402   6.591   1.463  10.188  0.1457 -1.5899 -1.0698
 9637TIP3    H250403   6.447   1.484  10.146 -0.2047  1.3599  1.2981
 9638TIP3   OH250404   4.893   3.070  10.096 -0.1862 -0.1225  0.2081
 9638TIP3    H150405   4.814   3.019  10.113  0.3431 -0.8156  0.6938
 9638TIP3    H250406   4.938   3.021  10.027 -0.3229  0.4367 -0.2872
 9639TIP3   OH250407   1.766   6.082   0.732  0.0465 -0.3171 -0.0798
 9639TIP3    H150408   1.786   6.076   0.826 -1.4842 -0.9840  0.2247
 9639TIP3    H250409   1.717   6.002   0.713 -0.8510  0.4619 -1.1411
 9640TIP3   OH250410   6.985   5.347  11.900 -0.3043  0.4375  0.8603
 9640TIP3    H150411   6.949   5.376  11.983 -1.3196  0.9249  0.2701
 9640TIP3    H250412   6.930   5.390  11.834  1.0856  0.8477 -0.0703
 9641TIP3   OH250413   2.345   7.093   3.514  0.1131  0.0188  0.2295
 9641TIP3    H150414   2.280   7.058   3.453  0.0821  0.2845  0.1057
 9641TIP3    H250415   2.313   7.069   3.601  0.9455 -1.7201  0.0959
 9642TIP3   OH250416   3.160   3.560  14.060  0.0574 -0.0569  0.1608
 9642TIP3    H150417   3.139   3.482  14.112 -0.4475 -1.4368 -1.9768
 9642TIP3    H250418   3.253   3.576  14.076  0.0553 -0.8125  0.9942
 9643TIP3   OH250419   2.296   2.594  15.135  0.2711  0.2460 -0.5627
 9643TIP3    H150420   2.385   2.629  15.132 -0.1573  1.5481  0.7136
 9643TIP3    H250421   2.279   2.581  15.228 -0.6891 -0.5151 -0.8326
 9644TIP3   OH250422   0.736   3.868   1.602 -0.1367 -0.0727 -0.3675
 9644TIP3    H150423   0.692   3.851   1.685  1.6587  1.5160  0.9992
 9644TIP3    H250424   0.758   3.781   1.569  0.9566 -0.7379  1.8969
 9645TIP3   OH250425   0.439   0.385  15.119  0.6432 -0.1676 -0.3509
 9645TIP3    H150426   0.392   0.430  15.048  0.3645 -2.6315 -1.8671
 9645TIP3    H250427   0.531   0.393  15.096  0.5963 -0.3565 -0.6051
 9646TIP3   OH250428   2.172   2.691  13.986 -0.1679 -0.6012  0.0309
 9646TIP3    H150429   2.150   2.603  13.956 -0.4274  0.3429 -2.8877
 9646TIP3    H250430   2.118   2.748  13.931  0.4029  1.4080  1.4688
 9647TIP3   OH250431   4.637   6.867   0.725  0.4262  0.7233  0.2279
 9647TIP3    H150432   4.722   6.868   0.681  0.2893 -2.9529 -0.3803
 9647TIP3    H250433   4.576   6.838   0.658 -0.5911 -0.5099  1.6344
 9648TIP3   OH250434   3.921   3.747   5.540  0.8161  0.4614  0.3223
 9648TIP3    H150435   3.927   3.842   5.548 -1.3979  0.5811  1.6440
 9648TIP3    H250436   3.890   3.718   5.626 -0.1773 -1.2401 -0.5509
 9649TIP3   OH250437   4.210   0.213  13.879  0.2380 -0.4515 -0.1660
 9649TIP3    H150438   4.166   0.133  13.908  1.0188 -0.8344 -0.0120
 9649TIP3    H250439   4.149   0.284  13.900 -0.5144 -1.0164 -0.4215
 9650TIP3   OH250440   1.737   2.651   4.369  0.0906 -0.3051  0.0975
 9650TIP3    H150441   1.795   2.726   4.384  0.3066 -0.4359 -0.0789
 9650TIP3    H250442   1.709   2.660   4.278 -0.3182 -0.1400  0.2337
 9651TIP3   OH250443   4.363   1.474   1.025  0.2815  0.0294  0.3128
 9651TIP3    H150444   4.311   1.394   1.021  0.6929 -0.2062 -0.5970
 9651TIP3    H250445   4.308   1.536   1.074 -0.5177 -0.4567  0.0508
 9652TIP3   OH250446   0.500   6.450   0.610  0.7048  0.2410  0.1427
 9652TIP3    H150447   0.505   6.539   0.575  0.4925  0.2987  0.2553
 9652TIP3    H250448   0.535   6.458   0.699  0.8618  0.1737  0.0882
 9653TIP3   OH250449   7.142   1.195  13.528 -0.6066  0.0234  0.0529
 9653TIP3    H150450   7.145   1.209  13.623 -0.9658  2.3202 -0.2117
 9653TIP3    H250451   7.220   1.240  13.495 -2.1728  2.1558 -0.9731
 9654TIP3   OH250452   2.045   0.468  15.089  0.0792 -0.3740  0.2777
 9654TIP3    H150453   1.978   0.520  15.044 -0.4207 -0.4054  0.9795
 9654TIP3    H250454   2.118   0.530  15.101 -0.2707 -0.0122  0.5527
 9655TIP3   OH250455   5.516   4.868   9.325 -0.2085 -0.1547 -0.9264
 9655TIP3    H150456   5.425   4.845   9.343  0.1561 -1.3108 -0.5136
 9655TIP3    H250457   5.535   4.823   9.242 -0.1318  0.4366 -1.2341
 9656TIP3   OH250458   3.658   4.609  12.226 -0.6533  0.2259  0.2556
 9656TIP3    H150459   3.676   4.572  12.313  1.4363  2.0926  0.7081
 9656TIP3    H250460   3.608   4.690  12.244  0.1125  0.8193 -0.2335
 9657TIP3   OH250461   4.838   6.169  14.687  0.6913  0.2089 -0.1191
 9657TIP3    H150462   4.783   6.114  14.743  0.0241 -2.0005 -2.7286
 9657TIP3    H250463   4.925   6.165  14.727 -0.3481  1.4041  2.4677
 9658TIP3   OH250464   3.667   6.732   0.068  0.5207  0.2056  0.1904
 9658TIP3    H150465   3.669   6.638   0.054  1.6298  0.4589 -1.7086
 9658TIP3    H250466   3.728   6.767   0.004 -0.1348  2.2594  0.6091
 9659TIP3   OH250467   4.664   3.217   3.047  0.7666  0.2594  0.6716
 9659TIP3    H150468   4.586   3.271   3.038  1.4753  1.5422  1.9245
 9659TIP3    H250469   4.687   3.192   2.957 -1.5108 -0.8148  0.3342
 9660TIP3   OH250470   4.705   5.330  12.953 -0.9284 -0.0056 -0.9788
 9660TIP3    H150471   4.669   5.333  13.042  1.0465 -4.4875  0.2649
 9660TIP3    H250472   4.797   5.352  12.965 -0.7781 -0.0456 -2.0345
 9661TIP3   OH250473   1.292   3.235   1.994 -0.3341  0.0373 -0.2645
 9661TIP3    H150474   1.355   3.173   2.030 -0.0129  0.1614 -0.5995
 9661TIP3    H250475   1.345   3.305   1.956 -0.7122  1.3647  1.5398
 9662TIP3   OH250476   0.012   0.325  12.539  0.9523  0.2405 -0.3595
 9662TIP3    H150477  -0.009   0.332  12.632  1.6354 -0.4561 -0.1366
 9662TIP3    H250478   0.084   0.261  12.536 -0.0347 -0.8839 -1.4876
 9663TIP3   OH250479   2.479   2.889  14.344 -0.4684  0.9368 -0.4396
 9663TIP3    H150480   2.387   2.899  14.319  0.3605  1.0068 -4.0418
 9663TIP3    H250481   2.504   2.803  14.310  1.1039  1.5070 -0.8256
 9664TIP3   OH250482   3.678   3.783   0.733  0.1474 -0.1039  0.2364
 9664TIP3    H150483   3.730   3.703   0.729  1.7440  0.8954  0.2951
 9664TIP3    H250484   3.740   3.851   0.759 -1.2421  1.1025  0.5210
 9665TIP3   OH250485   4.995   0.473   2.706  0.1140  0.4176 -0.0004
 9665TIP3    H150486   5.044   0.407   2.755 -0.1860  1.1002  1.2592
 9665TIP3    H250487   4.995   0.441   2.616 -0.9956 -1.8868  0.7441
 9666TIP3   OH250488   6.015   5.924  13.203  0.4585  0.5252  0.0875
 9666TIP3    H150489   5.929   5.946  13.238  1.1872  1.1702  1.5359
 9666TIP3    H250490   6.074   5.930  13.278  1.9371  1.1103 -1.0740
 9667TIP3   OH250491   5.679   6.294  12.088  0.0909 -0.2696 -0.2766
 9667TIP3    H150492   5.605   6.339  12.048 -0.2907  1.5057  2.1479
 9667TIP3    H250493   5.755   6.322  12.037 -0.3071  2.2571  0.3323
 9668TIP3   OH250494   3.884   1.870  11.780 -0.0977  0.1282  0.0857
 9668TIP3    H150495   3.817   1.846  11.716  0.1253  0.8072 -0.4134
 9668TIP3    H250496   3.853   1.951  11.818 -0.0368 -0.0703  0.5654
 9669TIP3   OH250497   0.421   0.754  15.307  0.4314  0.3024 -0.8121
 9669TIP3    H150498   0.348   0.816  15.302 -0.8034 -1.1327 -1.5589
 9669TIP3    H250499   0.481   0.782  15.238  0.9273  1.8583  0.1958
 9670TIP3   OH250500   3.826   5.329   2.616 -0.4121 -0.5115 -0.4621
 9670TIP3    H150501   3.731   5.328   2.624 -0.2951  0.8208  2.0342
 9670TIP3    H250502   3.844   5.398   2.552 -1.0998 -0.3008 -0.4328
 9671TIP3   OH250503   0.665   5.042  15.028  0.2883 -0.3202 -0.0892
 9671TIP3    H150504   0.618   5.112  14.983  2.5208  1.0098 -0.5459
 9671TIP3    H250505   0.701   4.988  14.959  2.3583  0.7860  0.0288
 9672TIP3   OH250506   3.985   2.974   3.250 -0.1038  0.1433  0.3351
 9672TIP3    H150507   3.937   3.001   3.172  1.6585 -1.3055 -1.3308
 9672TIP3    H250508   3.948   3.028   3.320 -2.3817  0.8377 -1.2937
 9673TIP3   OH250509   6.640   6.950   0.122  0.2404 -0.3433 -0.5209
 9673TIP3    H150510   6.699   6.875   0.109  0.7519 -0.0456  0.0378
 9673TIP3    H250511   6.602   6.936   0.209 -0.0094 -0.1820 -0.6023
 9674TIP3   OH250512   1.385   0.226   0.346  0.0098  0.2304  0.8442
 9674TIP3    H150513   1.364   0.316   0.321 -0.0308  0.3366  1.2559
 9674TIP3    H250514   1.420   0.233   0.435 -0.0559 -0.1654  0.9033
 9675TIP3   OH250515   6.300   4.800  12.939 -0.5732 -0.6218 -0.1635
 9675TIP3    H150516   6.226   4.769  12.991  0.9779 -1.2863  1.8149
 9675TIP3    H250517   6.307   4.737  12.867 -2.9676  0.5003 -1.5122
 9676TIP3   OH250518   3.923   1.021   1.945 -0.0110 -0.1958 -0.2678
 9676TIP3    H150519   3.883   1.044   1.861 -1.4306  1.6492  0.8195
 9676TIP3    H250520   3.901   1.095   2.002  2.9538 -0.2382  1.1009
 9677TIP3   OH250521   1.598   0.717  13.267 -0.0474 -0.3189 -0.1201
 9677TIP3    H150522   1.546   0.640  13.245 -1.8887  0.7425  0.2216
 9677TIP3    H250523   1.590   0.774  13.190  2.4515 -0.9856 -0.9461
 9678TIP3   OH250524   4.550   4.781   2.544 -0.3155 -0.3269  0.0049
 9678TIP3    H150525   4.619   4.809   2.483  1.5771 -0.7671  1.8314
 9678TIP3    H250526   4.469   4.800   2.498  1.0024 -0.5376 -2.6084
 9679TIP3   OH250527   3.519   0.987   2.719 -0.1949 -0.1740  0.3750
 9679TIP3    H150528   3.528   0.900   2.681 -0.2429  0.5191 -1.2803
 9679TIP3    H250529   3.462   0.973   2.795 -1.0647 -1.4242 -0.4615
 9680TIP3   OH250530   1.301   6.046  10.186 -0.3341 -0.5574 -0.7422
 9680TIP3    H150531   1.243   6.061  10.260 -0.0965  1.7867 -0.9706
 9680TIP3    H250532   1.246   6.063  10.109  0.5291  1.4593 -0.9635
 9681TIP3   OH250533   0.688   0.350  13.015  1.1144  0.0243  0.0725
 9681TIP3    H150534   0.679   0.439  12.983  1.9518  0.7626  1.7739
 9681TIP3    H250535   0.782   0.332  13.009  1.2880  0.1549  1.9208
 9682TIP3   OH250536   3.024   3.570  12.477  0.4532 -0.0351 -0.2590
 9682TIP3    H150537   2.928   3.579  12.478  0.3980 -0.5238  1.0542
 9682TIP3    H250538   3.039   3.476  12.490  1.1258  0.0539 -0.3711
 9683TIP3   OH250539   7.137   3.440  10.459 -0.9395 -0.1237  0.0726
 9683TIP3    H150540   7.047   3.454  10.428 -1.3116  0.7375  1.4397
 9683TIP3    H250541   7.136   3.473  10.549  0.6818 -0.3861  0.2074
 9684TIP3   OH250542   5.442   6.637  10.024 -0.3829  0.4280  0.3317
 9684TIP3    H150543   5.468   6.705   9.961  1.5729  0.5648  1.2035
 9684TIP3    H250544   5.417   6.563   9.970  2.3513  0.1378 -0.7042
 9685TIP3   OH250545   0.287   1.594  11.804 -0.3501 -0.2892  0.2757
 9685TIP3    H150546   0.263   1.674  11.757 -1.2969  0.5925  2.1631
 9685TIP3    H250547   0.381   1.584  11.787 -0.5564  0.1964 -1.4206
 9686TIP3   OH250548   2.231   0.569   3.670  0.2781 -0.0975  0.0291
 9686TIP3    H150549   2.214   0.647   3.723 -1.2036 -0.8451  0.7145
 9686TIP3    H250550   2.318   0.540   3.696  0.2435  0.4967  0.8331
 9687TIP3   OH250551   1.954   0.601   3.394  0.0410 -0.1710  0.4818
 9687TIP3    H150552   1.982   0.563   3.477  1.3558  1.6132  0.9173
 9687TIP3    H250553   1.865   0.568   3.381  0.6352 -2.3013  1.4175
 9688TIP3   OH250554   5.902   4.956  15.282  0.3162 -0.0160  0.2279
 9688TIP3    H150555   5.888   4.962  15.187 -2.3179  0.2610  0.5527
 9688TIP3    H250556   5.923   4.864  15.297 -2.0745 -0.7253 -0.3897
 9689TIP3   OH250557   1.419   4.019   1.270  0.3236 -0.1878 -0.5202
 9689TIP3    H150558   1.500   3.981   1.306 -0.7495 -1.3526  0.7735
 9689TIP3    H250559   1.398   4.090   1.330 -0.9001 -1.4628  0.6408
 9690TIP3   OH250560   2.658   0.877  14.184 -0.0690  0.7507 -0.2912
 9690TIP3    H150561   2.740   0.903  14.226 -0.7173  2.4652  0.0168
 9690TIP3    H250562   2.629   0.957  14.139 -1.2002 -0.0349 -0.9901
 9691TIP3   OH250563   6.606   1.027   0.280  0.2151  0.2289 -0.3870
 9691TIP3    H150564   6.516   1.010   0.249 -0.0776 -0.8540  0.9480
 9691TIP3    H250565   6.598   1.105   0.335  0.0170 -0.0648  0.0063
 9692TIP3   OH250566   4.909   4.841  15.171  0.1236 -0.5137  0.2927
 9692TIP3    H150567   4.836   4.891  15.209  0.5344 -0.5862  1.2058
 9692TIP3    H250568   4.891   4.840  15.077  0.3683  1.8174  0.1545
 9693TIP3   OH250569   5.501   0.273  15.239  0.4304  0.1640 -0.3018
 9693TIP3    H150570   5.557   0.282  15.162  0.9426 -0.5392 -0.0197
 9693TIP3    H250571   5.441   0.202  15.217 -0.9431  1.4503 -0.9339
 9694TIP3   OH250572   3.391   6.744  15.367  0.1737 -0.4954  0.2946
 9694TIP3    H150573   3.409   6.745  15.273  1.8439 -0.8178  0.5764
 9694TIP3    H250574   3.470   6.781  15.406 -0.9112  0.6222  1.5256
 9695TIP3   OH250575   6.281   0.507   2.212 -0.3617  0.0068 -0.2531
 9695TIP3    H150576   6.188   0.518   2.233 -0.8807 -1.7062 -1.3817
 9695TIP3    H250577   6.282   0.437   2.147  1.6948  0.3828 -0.6868
 9696TIP3   OH250578   2.495   5.276  10.603 -0.7402  0.2185  0.0601
 9696TIP3    H150579   2.568   5.299  10.545 -0.7373 -0.3463 -0.1656
 9696TIP3    H250580   2.531   5.285  10.691 -0.5263  0.3750 -0.0424
 9697TIP3   OH250581   6.260   5.540   4.517  0.1105  0.3138  0.1858
 9697TIP3    H150582   6.216   5.505   4.594 -0.6329  0.2111 -0.2717
 9697TIP3    H250583   6.202   5.518   4.444  1.0621 -0.0788 -0.4759
 9698TIP3   OH250584   1.061   7.146  12.229  0.0440  0.2485  0.0909
 9698TIP3    H150585   1.138   7.090  12.242 -0.4101 -0.5142 -0.4241
 9698TIP3    H250586   1.076   7.187  12.144  0.1089  0.4913  0.2172
 9699TIP3   OH250587   4.646   0.904  14.324  0.6435 -0.3877 -0.2333
 9699TIP3    H150588   4.732   0.941  14.306  0.5126  0.0321  0.0061
 9699TIP3    H250589   4.589   0.979  14.340  0.6356 -0.7042  1.4563
 9700TIP3   OH250590   6.417   5.513  11.808  0.3817  0.2823 -0.6428
 9700TIP3    H150591   6.478   5.542  11.875  0.7877 -0.1669 -0.8107
 9700TIP3    H250592   6.442   5.561  11.729 -0.1764  0.9053 -0.4500
 9701TIP3   OH250593   2.537   3.231  10.921 -0.1720 -0.2082  0.1822
 9701TIP3    H150594   2.477   3.303  10.900 -1.6584 -0.9486  1.6865
 9701TIP3    H250595   2.608   3.273  10.969  0.4756  0.6563 -1.4552
 9702TIP3   OH250596   2.948   5.842  13.543 -0.2038  0.0178  0.1965
 9702TIP3    H150597   2.978   5.754  13.565  1.1216  0.1456 -0.9794
 9702TIP3    H250598   2.956   5.847  13.448  1.6832  2.0438  0.3761
 9703TIP3   OH250599   1.919   3.279   0.280 -0.3210 -0.2220  0.2114
 9703TIP3    H150600   1.904   3.360   0.329 -0.6955  0.7802 -1.4992
 9703TIP3    H250601   1.902   3.302   0.189 -1.0594 -2.3825 -0.2632
 9704TIP3   OH250602   0.589   3.942   4.223  0.9261  0.2976  0.2663
 9704TIP3    H150603   0.523   3.876   4.244  1.7201 -0.2838  1.0215
 9704TIP3    H250604   0.628   3.913   4.140 -1.1412  1.7565 -1.3253
 9705TIP3   OH250605   2.816   2.463   4.055  0.1356  1.0626  0.7208
 9705TIP3    H150606   2.773   2.539   4.094  0.0610  1.9767 -1.0001
 9705TIP3    H250607   2.879   2.501   3.993  0.2120 -0.2738 -0.0674
 9706TIP3   OH250608   6.491   6.450   0.170 -0.1069 -0.6188  0.1322
 9706TIP3    H150609   6.412   6.405   0.140 -0.1502 -1.2455  1.1369
 9706TIP3    H250610   6.463   6.539   0.187 -0.6232 -0.8538  0.5349
 9707TIP3   OH250611   2.933   0.292  14.018 -0.0056  0.2214 -0.3755
 9707TIP3    H150612   2.977   0.303  14.102 -0.2583 -1.7220  0.0630
 9707TIP3    H250613   3.000   0.258  13.959 -0.5689 -1.7404  0.0162
 9708TIP3   OH250614   7.071   3.754   4.186 -0.1617  0.2597  0.1568
 9708TIP3    H150615   7.073   3.806   4.265 -1.0358  0.1951  0.2291
 9708TIP3    H250616   7.076   3.663   4.216  0.2150  0.2549  0.0916
 9709TIP3   OH250617   6.797   5.409  12.842 -0.4801  0.1568 -0.2206
 9709TIP3    H150618   6.886   5.436  12.818 -0.7654 -0.0238 -1.6073
 9709TIP3    H250619   6.758   5.380  12.759 -2.1561  1.1115  0.1931
 9710TIP3   OH250620   6.647   3.436   1.013  0.1672 -0.1972 -0.2467
 9710TIP3    H150621   6.573   3.490   1.040  0.7120  0.0535  0.8249
 9710TIP3    H250622   6.690   3.486   0.943 -0.4894 -0.2017 -0.6559
 9711TIP3   OH250623   5.500   2.570   2.092 -0.2793  0.0488  0.4029
 9711TIP3    H150624   5.514   2.630   2.165 -0.5506 -1.3173  1.6399
 9711TIP3    H250625   5.587   2.555   2.056 -0.3029  1.8163 -0.4984
 9712TIP3   OH250626   6.124   1.990  13.723  0.7795 -0.3759 -0.4156
 9712TIP3    H150627   6.154   1.952  13.806  0.6373 -0.4199 -0.3827
 9712TIP3    H250628   6.069   2.064  13.749 -1.7443 -2.1575 -0.3422
 9713TIP3   OH250629   3.665   0.337   5.977  0.5533  0.2312 -0.9033
 9713TIP3    H150630   3.721   0.294   5.912 -0.5738  0.4677 -2.0519
 9713TIP3    H250631   3.582   0.291   5.973 -0.2264  1.6038 -1.1536
 9714TIP3   OH250632   6.583   4.373  14.466 -0.3149 -0.4404 -0.1010
 9714TIP3    H150633   6.594   4.376  14.371  0.6997 -1.5401 -0.0353
 9714TIP3    H250634   6.672   4.374  14.501 -0.6690 -0.5177  0.8257
 9715TIP3   OH250635   3.754   7.107  13.946  0.2975  0.0813 -1.0558
 9715TIP3    H150636   3.731   7.016  13.962 -0.9413  0.5853  0.2219
 9715TIP3    H250637   3.799   7.106  13.861 -1.6599 -1.4350 -2.1753
 9716TIP3   OH250638   2.804   5.995  12.507  0.3710  0.0332  0.4241
 9716TIP3    H150639   2.856   6.004  12.427  0.5805  0.2176  0.5789
 9716TIP3    H250640   2.807   6.082  12.547  0.6029 -0.1621  0.8359
 9717TIP3   OH250641   0.600   6.032   1.516  0.5640 -0.1399  0.2656
 9717TIP3    H150642   0.641   6.103   1.565 -1.4801  0.6292  0.9537
 9717TIP3    H250643   0.599   5.958   1.576 -0.0054  0.1698  0.6502
 9718TIP3   OH250644   4.888   1.589  14.912 -0.2684 -0.3482 -0.0284
 9718TIP3    H150645   4.939   1.509  14.903  0.7764  0.2451  0.4178
 9718TIP3    H250646   4.900   1.616  15.003 -0.0395  0.6692 -0.3404
 9719TIP3   OH250647   1.786   3.125  10.301 -0.4235  0.3605 -0.1999
 9719TIP3    H150648   1.777   3.032  10.325 -0.4203  0.1967 -0.8169
 9719TIP3    H250649   1.791   3.171  10.385 -2.2214 -0.0106  0.1432
 9720TIP3   OH250650   4.553   4.433  13.364  0.1424 -0.1345  0.5207
 9720TIP3    H150651   4.543   4.439  13.269  1.5143  0.0370  0.3637
 9720TIP3    H250652   4.473   4.390  13.394  1.1273 -3.3658 -1.0734
 9721TIP3   OH250653   4.051   4.330  14.451  0.4034 -0.0460 -0.2934
 9721TIP3    H150654   4.007   4.377  14.380  1.3641  0.3501 -0.6326
 9721TIP3    H250655   4.078   4.247  14.412  1.7414  0.5425 -0.6748
 9722TIP3   OH250656   3.472   4.593  11.786 -0.1334  0.7083 -0.1097
 9722TIP3    H150657   3.508   4.537  11.717 -0.0499  1.4329 -0.6737
 9722TIP3    H250658   3.546   4.648  11.813  0.6458 -1.4411  2.5918
 9723TIP3   OH250659   5.575   5.895   1.165  0.6282  0.1736 -0.1237
 9723TIP3    H150660   5.648   5.957   1.170 -0.3722  1.2923  1.5084
 9723TIP3    H250661   5.514   5.936   1.103  0.5300  0.1750 -0.0251
 9724TIP3   OH250662   5.015   0.279   1.106 -0.4046  0.1460 -0.3540
 9724TIP3    H150663   4.968   0.197   1.124  0.1952 -0.0571  0.3141
 9724TIP3    H250664   5.107   0.257   1.116 -0.1947  0.7388 -0.8774
 9725TIP3   OH250665   1.774   6.324  14.922  0.0964 -0.3489 -0.3111
 9725TIP3    H150666   1.830   6.399  14.940 -0.9728  0.5767 -0.6938
 9725TIP3    H250667   1.831   6.260  14.879  0.6425  0.9501 -1.5829
 9726TIP3   OH250668   0.485   5.853  10.529  0.3676  0.4985 -0.0108
 9726TIP3    H150669   0.568   5.805  10.522  0.9110  1.7069 -3.4893
 9726TIP3    H250670   0.420   5.784  10.546  1.6121 -1.0120 -1.0392
 9727TIP3   OH250671   1.115   2.469  14.979  0.4132  0.6962 -0.4182
 9727TIP3    H150672   1.113   2.397  14.916  0.5692  0.2959  0.0273
 9727TIP3    H250673   1.178   2.532  14.942  0.5607  0.4297 -0.6242
 9728TIP3   OH250674   3.484   4.712   1.461  0.2280 -0.4370  0.0094
 9728TIP3    H150675   3.525   4.786   1.506 -1.3794  1.1783 -1.0251
 9728TIP3    H250676   3.460   4.651   1.531  0.0992  0.8079  1.0894
 9729TIP3   OH250677   0.000   6.050  13.921  0.3578  0.7054  0.1796
 9729TIP3    H150678   0.023   6.118  13.985  1.2697 -0.4368  1.1184
 9729TIP3    H250679   0.079   5.997  13.914 -0.2457 -0.0881 -0.7578
 9730TIP3   OH250680   6.295   7.022  14.354 -1.2357  0.1306  0.3090
 9730TIP3    H150681   6.326   7.019  14.444 -0.3941  0.3673  0.0369
 9730TIP3    H250682   6.220   6.964  14.353  0.2272 -1.8729  0.6132
 9731TIP3   OH250683   4.601   3.385   1.230 -0.1963 -0.2420 -0.2678
 9731TIP3    H150684   4.610   3.477   1.255 -1.7045 -0.1780  0.1459
 9731TIP3    H250685   4.521   3.356   1.274  0.0028 -1.6323 -0.7679
 9732TIP3   OH250686   3.522   3.749  13.673 -0.0668  0.0716  0.2184
 9732TIP3    H150687   3.547   3.741  13.581  3.1922  1.4390  0.8774
 9732TIP3    H250688   3.542   3.663  13.710  1.1869  0.3155  0.1541
 9733TIP3   OH250689   0.347   2.488  11.937  0.3143  0.1123  0.1451
 9733TIP3    H150690   0.442   2.489  11.926  0.4700  0.3220  1.3773
 9733TIP3    H250691   0.332   2.436  12.016 -0.7457 -1.6983 -1.1380
 9734TIP3   OH250692   3.888   0.907   1.312  0.1203  0.4698  0.1277
 9734TIP3    H150693   3.898   0.889   1.406  1.4459  0.0928 -0.0610
 9734TIP3    H250694   3.915   0.825   1.269  0.5274  0.9715 -0.5977
 9735TIP3   OH250695   0.767   2.935   3.607  0.2232  0.4643  0.2700
 9735TIP3    H150696   0.760   2.986   3.526  0.3185  1.8996  1.1260
 9735TIP3    H250697   0.686   2.953   3.654 -0.8878 -2.2012 -0.4637
 9736TIP3   OH250698   1.060   3.937  10.723 -0.1487 -0.3336  0.1917
 9736TIP3    H150699   1.093   4.024  10.700  0.3059 -0.1106  1.6410
 9736TIP3    H250700   1.106   3.913  10.802  0.4379 -2.3414 -0.6911
 9737TIP3   OH250701   6.643   3.114  10.937 -0.0816 -0.2807  0.2518
 9737TIP3    H150702   6.672   3.204  10.956  1.0810 -0.5745 -0.0675
 9737TIP3    H250703   6.647   3.070  11.022 -0.1402 -0.1732  0.3114
 9738TIP3   OH250704   2.056   0.827  11.903  0.4373 -0.5374  0.1527
 9738TIP3    H150705   2.037   0.898  11.964  0.4047 -1.4502  1.2387
 9738TIP3    H250706   1.971   0.801  11.869  0.3637 -0.5911  0.3750
 9739TIP3   OH250707   3.848   2.076   0.941  0.3355  0.3071  0.0389
 9739TIP3    H150708   3.900   2.091   0.863  0.5196 -0.1107  0.0788
 9739TIP3    H250709   3.865   1.984   0.965  2.2545  1.0757  1.9858
 9740TIP3   OH250710   2.869   2.352  10.077 -0.0941  0.6483 -0.6681
 9740TIP3    H150711   2.844   2.342   9.985 -0.3263  1.6604 -0.7333
 9740TIP3    H250712   2.810   2.294  10.125  0.3767 -0.2855 -1.1944
 9741TIP3   OH250713   3.645   0.432   1.170 -0.0491  0.0778 -0.4689
 9741TIP3    H150714   3.729   0.425   1.124  0.2853  1.8905 -0.2324
 9741TIP3    H250715   3.665   0.408   1.260 -0.1179 -0.8864 -0.7000
 9742TIP3   OH250716   5.091   4.890   1.575 -0.2800  0.1833  0.1638
 9742TIP3    H150717   5.069   4.829   1.644 -1.0318  0.2697  0.0030
 9742TIP3    H250718   5.038   4.863   1.500  1.2636 -0.5505 -0.7258
 9743TIP3   OH250719   4.901   1.839   0.050 -0.0942  0.7817  0.4622
 9743TIP3    H150720   4.973   1.901   0.065 -0.9960  1.4635  2.2932
 9743TIP3    H250721   4.823   1.886   0.078 -1.0353 -0.5684  0.1728
 9744TIP3   OH250722   6.132   5.611   0.560  0.1953  0.0715  0.0971
 9744TIP3    H150723   6.039   5.604   0.583  0.0337 -0.5653 -0.6863
 9744TIP3    H250724   6.152   5.703   0.571 -0.4620  0.1781  0.5204
 9745TIP3   OH250725   0.378   6.231   2.919 -0.2848 -0.8273 -0.0877
 9745TIP3    H150726   0.471   6.255   2.917 -0.8028  1.5173  0.7043
 9745TIP3    H250727   0.359   6.221   3.012 -0.8161 -1.3815 -0.2551
 9746TIP3   OH250728   1.876   3.256   1.715  0.4056  0.5512 -0.2655
 9746TIP3    H150729   1.857   3.208   1.635 -1.4698 -2.8888  1.9936
 9746TIP3    H250730   1.799   3.311   1.730 -0.8591 -1.4423  0.8539
 9747TIP3   OH250731   0.602   4.456   3.687 -0.0705 -1.1166  0.0072
 9747TIP3    H150732   0.682   4.455   3.635 -0.1589 -1.3529 -0.1234
 9747TIP3    H250733   0.587   4.365   3.712  0.4336 -0.9081  1.1703
 9748TIP3   OH250734   5.706   5.809   2.435  0.0037 -0.3520 -0.5886
 9748TIP3    H150735   5.640   5.877   2.426  0.8311  1.1619  2.9795
 9748TIP3    H250736   5.733   5.789   2.345 -2.8979  1.3043 -1.9647
 9749TIP3   OH250737   6.668   5.096   4.466  0.2785  0.1137  0.1289
 9749TIP3    H150738   6.763   5.089   4.477  0.2841  0.6402  0.4471
 9749TIP3    H250739   6.638   5.139   4.546  0.1709  3.0452 -1.3403
 9750TIP3   OH250740   2.258   0.989  14.112  0.1921 -0.4507  0.3188
 9750TIP3    H150741   2.219   1.060  14.060 -0.1647  0.5176  1.8199
 9750TIP3    H250742   2.196   0.917  14.104 -0.8378  0.3383  0.9158
 9751TIP3   OH250743   1.797   0.346  10.391  1.0458  0.6248  0.3299
 9751TIP3    H150744   1.705   0.372  10.382  0.3437 -2.1060 -1.5335
 9751TIP3    H250745   1.833   0.408  10.454 -2.2629  1.3066  1.7489
 9752TIP3   OH250746   5.282   1.257   2.826 -0.5074  0.2428  0.2172
 9752TIP3    H150747   5.233   1.213   2.895 -0.8027 -2.1039 -1.3856
 9752TIP3    H250748   5.259   1.211   2.746  1.2051  1.6890 -1.2182
 9753TIP3   OH250749   4.022   2.055   4.503  0.4074  0.4322  0.2129
 9753TIP3    H150750   3.933   2.078   4.476  1.0247  2.6489 -0.1184
 9753TIP3    H250751   4.028   1.961   4.490 -1.7994  0.2884 -0.0188
 9754TIP3   OH250752   2.923   5.841   0.066  0.6401 -0.4799  0.2423
 9754TIP3    H150753   2.894   5.846  -0.025  0.5125 -1.8549  0.1804
 9754TIP3    H250754   3.014   5.811   0.061 -0.2818 -3.8026  0.5549
 9755TIP3   OH250755   0.195   6.489  15.181 -0.2637  0.0199 -0.1226
 9755TIP3    H150756   0.241   6.552  15.236  0.2701 -0.7238  0.3055
 9755TIP3    H250757   0.176   6.415  15.240  0.7239 -0.9909 -1.0226
 9756TIP3   OH250758   1.838   0.573   5.532  0.4159 -0.8906 -0.0516
 9756TIP3    H150759   1.916   0.611   5.491  0.6916 -3.4181 -2.1522
 9756TIP3    H250760   1.780   0.647   5.548  1.6554  0.6299 -2.1645
 9757TIP3   OH250761   6.001   1.463   4.749 -0.2794  0.1166 -0.6928
 9757TIP3    H150762   6.052   1.427   4.821 -0.2769 -0.4188 -0.9568
 9757TIP3    H250763   6.004   1.396   4.681  0.3832  0.9481 -1.5084
 9758TIP3   OH250764   3.511   2.201  13.293 -0.2244  0.4600 -0.2504
 9758TIP3    H150765   3.573   2.201  13.220  0.3438 -1.5047  0.1697
 9758TIP3    H250766   3.540   2.274  13.349 -0.4644  1.7723 -1.7709
 9759TIP3   OH250767   5.697   6.746  13.081  0.3981  0.2616  0.3245
 9759TIP3    H150768   5.683   6.811  13.150  0.0919 -1.0924  1.5928
 9759TIP3    H250769   5.741   6.794  13.011  1.5959  1.4882  1.8423
 9760TIP3   OH250770   2.129   3.379   2.613 -0.0997 -0.2661 -0.0844
 9760TIP3    H150771   2.051   3.427   2.585 -0.4777 -1.4924 -1.1909
 9760TIP3    H250772   2.189   3.448   2.644 -0.9753  0.8394 -0.7646
 9761TIP3   OH250773   0.416   5.426   4.624 -0.1320  0.6658  0.6575
 9761TIP3    H150774   0.461   5.432   4.709  1.3671 -0.0044 -0.0643
 9761TIP3    H250775   0.454   5.350   4.581  0.1605  1.8172 -1.2185
 9762TIP3   OH250776   5.844   3.223   2.999 -0.0167 -0.6786 -0.2282
 9762TIP3    H150777   5.798   3.305   3.016 -0.8098 -0.9639 -0.9456
 9762TIP3    H250778   5.890   3.203   3.082 -1.4497 -0.5623  0.6224
 9763TIP3   OH250779   3.597   5.270  12.589  0.5778 -0.0779  0.1227
 9763TIP3    H150780   3.563   5.222  12.514  0.2694 -1.4502  1.0993
 9763TIP3    H250781   3.636   5.349  12.552 -0.2836 -0.3353 -1.3853
 9764TIP3   OH250782   1.463   6.615  12.957 -0.1866  0.1120  0.2996
 9764TIP3    H150783   1.386   6.583  13.004  0.0561  0.2455  0.7896
 9764TIP3    H250784   1.511   6.667  13.022  0.3405 -0.0110  0.0094
 9765TIP3   OH250785   6.348   5.612   3.008  0.7400 -0.1359  0.2249
 9765TIP3    H150786   6.259   5.595   2.977  0.5979  0.0631  0.5324
 9765TIP3    H250787   6.385   5.672   2.943  0.2995  0.6188  0.6591
 9766TIP3   OH250788   5.456   5.486  13.094  0.2940  0.2026  0.0544
 9766TIP3    H150789   5.376   5.538  13.087  0.8762  1.1375  0.0432
 9766TIP3    H250790   5.440   5.427  13.167 -0.4448  0.3077 -0.0169
 9767TIP3   OH250791   0.889   1.482  12.626  0.2329 -0.0682 -0.2876
 9767TIP3    H150792   0.959   1.427  12.590 -0.0363 -1.6330  1.4551
 9767TIP3    H250793   0.932   1.565  12.647  1.6690 -1.0816  0.9784
 9768TIP3   OH250794   1.767   3.615   4.559 -0.6833  0.4399  0.1677
 9768TIP3    H150795   1.750   3.592   4.468  1.7566  0.6642 -0.4092
 9768TIP3    H250796   1.764   3.710   4.561 -2.0078  0.4106  0.6413
 9769TIP3   OH250797   2.428   5.768   0.494  0.1981 -0.0708  0.1029
 9769TIP3    H150798   2.482   5.785   0.571  1.5300  0.3502 -0.8748
 9769TIP3    H250799   2.409   5.855   0.459  0.8947 -0.3009 -0.8790
 9770TIP3   OH250800   1.124   2.164   1.304 -0.3983 -0.6163 -0.3465
 9770TIP3    H150801   1.039   2.131   1.332 -0.9247 -3.1099 -4.0261
 9770TIP3    H250802   1.188   2.113   1.355 -1.0696  0.0713  1.2383
 9771TIP3   OH250803   0.020   6.140  15.367 -0.1214  0.7548 -0.3231
 9771TIP3    H150804  -0.055   6.182  15.409 -0.4545  0.2594 -0.4047
 9771TIP3    H250805   0.095   6.195  15.389  0.1772 -0.7671  2.9862
 9772TIP3   OH250806   3.250   6.941  12.667 -0.0390 -0.4124 -0.4225
 9772TIP3    H150807   3.219   6.854  12.640 -1.6353 -0.0809  0.1841
 9772TIP3    H250808   3.208   6.956  12.751  2.0790  0.0146  0.6186
 9773TIP3   OH250809   1.870   1.911   0.659 -0.0945  0.2577 -0.6000
 9773TIP3    H150810   1.865   1.848   0.587 -0.6586 -0.2468 -0.1349
 9773TIP3    H250811   1.946   1.965   0.639  0.1833 -0.3413 -1.1993
 9774TIP3   OH250812   6.504   3.340  11.262 -0.5776  0.0012  0.2579
 9774TIP3    H150813   6.443   3.303  11.198 -1.1734  0.7012  0.4108
 9774TIP3    H250814   6.547   3.264  11.301 -0.4603 -0.4467 -0.7200
 9775TIP3   OH250815   6.263   7.135   3.537  0.1033 -0.4442  0.0298
 9775TIP3    H150816   6.215   7.211   3.505  0.8380 -0.7840 -2.0110
 9775TIP3    H250817   6.194   7.073   3.562 -0.5763 -0.3973 -1.5610
 9776TIP3   OH250818   4.645   1.416   0.708 -0.5800  0.2535 -0.0302
 9776TIP3    H150819   4.646   1.364   0.627  1.3799 -1.5490  1.0399
 9776TIP3    H250820   4.654   1.351   0.778 -1.0803  1.8519  1.5750
 9777TIP3   OH250821   5.219   4.256   0.259  0.3357  0.0995  0.0085
 9777TIP3    H150822   5.151   4.190   0.273 -0.0759  0.7974  1.4979
 9777TIP3    H250823   5.177   4.323   0.206  0.3751 -0.2205 -0.4399
 9778TIP3   OH250824   3.788   6.271   2.267  0.6929  0.0318  0.4068
 9778TIP3    H150825   3.725   6.203   2.290 -1.2929  1.4776 -0.5102
 9778TIP3    H250826   3.810   6.312   2.351 -1.0321  0.6969  0.5622
 9779TIP3   OH250827   2.365   2.798   3.288 -0.1455 -0.5030  0.4053
 9779TIP3    H150828   2.423   2.870   3.264 -0.1641 -0.8024 -0.5900
 9779TIP3    H250829   2.295   2.802   3.223 -1.3991  0.0056  1.7208
 9780TIP3   OH250830   4.140   4.937  12.076 -0.5972 -0.2621 -0.2050
 9780TIP3    H150831   4.096   5.012  12.116 -1.0129  0.2432 -1.5354
 9780TIP3    H250832   4.181   4.973  11.997 -1.0248 -1.4843 -1.0136
 9781TIP3   OH250833   1.587   0.341  13.977 -0.0455 -0.2312  0.0165
 9781TIP3    H150834   1.680   0.353  13.959  0.4474 -1.9176  1.2670
 9781TIP3    H250835   1.553   0.294  13.900  0.4224 -0.7480  0.1217
 9782TIP3   OH250836   1.137   7.067   0.915 -0.4257 -0.2225  0.0852
 9782TIP3    H150837   1.193   7.019   0.975 -1.2810  0.5556  1.5688
 9782TIP3    H250838   1.153   7.159   0.935  0.4508  0.1383 -2.0255
 9783TIP3   OH250839   3.664   1.837   4.063 -0.5910  0.0158 -0.5667
 9783TIP3    H150840   3.700   1.751   4.082 -1.6594 -0.0998  1.1439
 9783TIP3    H250841   3.569   1.822   4.056 -0.9606  1.2462  1.2131
 9784TIP3   OH250842   6.630   5.618   1.907 -0.0852 -0.0572 -0.1555
 9784TIP3    H150843   6.593   5.541   1.950  0.5350  0.5169  1.4826
 9784TIP3    H250844   6.554   5.669   1.879 -0.5135 -0.1777  0.7646
 9785TIP3   OH250845   6.554   3.371   2.693  0.4613  0.0083  0.4547
 9785TIP3    H150846   6.608   3.370   2.772  1.3937  1.4879 -0.1186
 9785TIP3    H250847   6.583   3.294   2.644 -0.1090 -0.9123  1.5028
 9786TIP3   OH250848   2.004   0.365  11.724 -0.0571 -0.0232 -0.1875
 9786TIP3    H150849   2.095   0.335  11.730  0.1106  0.5390  0.2150
 9786TIP3    H250850   1.955   0.307  11.782 -0.1625 -1.0770 -1.3065
 9787TIP3   OH250851   4.314   0.725   0.641  0.0510  1.0335 -0.2172
 9787TIP3    H150852   4.240   0.664   0.637 -0.1736  1.3546 -1.1898
 9787TIP3    H250853   4.357   0.705   0.724 -2.0141  1.8585  1.1384
 9788TIP3   OH250854   4.385   6.040   3.461 -0.2780  0.3892 -0.1510
 9788TIP3    H150855   4.391   6.134   3.448  1.0808  0.0693 -2.3075
 9788TIP3    H250856   4.475   6.009   3.459 -0.6687 -0.9466  0.8487
 9789TIP3   OH250857   4.370   3.198  12.229 -0.7872 -1.1611 -0.5971
 9789TIP3    H150858   4.431   3.238  12.167 -3.1220 -0.2209 -2.4164
 9789TIP3    H250859   4.366   3.259  12.302 -0.4860 -0.6317 -1.0173
 9790TIP3   OH250860   5.613   1.109  14.103 -0.1056  0.4895 -0.0066
 9790TIP3    H150861   5.656   1.149  14.027  2.9003 -0.8412  0.8354
 9790TIP3    H250862   5.683   1.101  14.168 -1.7872 -1.3788  1.7008
 9791TIP3   OH250863   2.839   0.864   1.318 -0.3623  0.2311  0.2693
 9791TIP3    H150864   2.876   0.947   1.349  0.7292  0.3373 -1.1935
 9791TIP3    H250865   2.765   0.890   1.264  0.8233  0.3994 -1.3576
 9792TIP3   OH250866   0.622   2.998   3.278 -0.3409 -0.2621  0.2302
 9792TIP3    H150867   0.643   2.910   3.308  1.7089  0.4341  0.9910
 9792TIP3    H250868   0.619   2.991   3.182  1.2022 -0.9074  0.2019
 9793TIP3   OH250869   1.466   6.698   0.563 -0.6830  0.0287 -0.2200
 9793TIP3    H150870   1.450   6.733   0.651  0.3662  0.5693 -0.2226
 9793TIP3    H250871   1.503   6.611   0.578 -2.7206 -0.8815 -0.1997
 9794TIP3   OH250872   0.062   4.725  11.073 -0.0635 -0.3718 -0.1671
 9794TIP3    H150873   0.013   4.801  11.041 -0.8551 -0.9846 -0.4240
 9794TIP3    H250874   0.154   4.751  11.064 -0.2823  1.6163  2.2558
 9795TIP3   OH250875   1.083   3.049   0.662  0.0806  0.0818  0.1791
 9795TIP3    H150876   1.072   3.013   0.574  1.2635 -0.2814  0.1563
 9795TIP3    H250877   1.053   2.979   0.720 -2.1452  0.8678  0.0909
 9796TIP3   OH250878   0.413   6.253   5.438  0.2983  0.0967 -0.0425
 9796TIP3    H150879   0.354   6.266   5.512  1.5545  0.7721  0.8965
 9796TIP3    H250880   0.399   6.329   5.382  0.0628  0.0960  0.0155
 9797TIP3   OH250881   0.969   7.132   1.154 -0.4254  0.1751 -0.3367
 9797TIP3    H150882   1.004   7.080   1.081 -0.8273 -0.1327 -0.3123
 9797TIP3    H250883   0.912   7.196   1.113  0.5377  1.0109 -0.4221
 9798TIP3   OH250884   5.596   0.360  13.419 -0.0583 -0.4907  0.2038
 9798TIP3    H150885   5.597   0.388  13.327 -0.5297 -0.2207  0.2782
 9798TIP3    H250886   5.587   0.265  13.414  0.8994 -0.5784 -0.0387
 9799TIP3   OH250887   2.093   2.959  12.922  0.3646  0.0442 -0.1833
 9799TIP3    H150888   2.156   2.886  12.922 -0.1831 -0.5071 -2.4956
 9799TIP3    H250889   2.008   2.917  12.905 -0.3257  0.9965  0.8097
 9800TIP3   OH250890   1.275   6.968   0.465  0.0176  0.7768  0.1497
 9800TIP3    H150891   1.301   6.890   0.514 -1.1286 -0.2305 -0.7787
 9800TIP3    H250892   1.203   7.005   0.515  1.2611  1.9276  1.1837
 9801TIP3   OH250893   0.532   5.848  14.917 -0.4543 -0.8105 -0.0435
 9801TIP3    H150894   0.616   5.806  14.899 -0.9718 -1.8933  0.0039
 9801TIP3    H250895   0.486   5.787  14.974 -1.0547  0.0358  0.3995
 9802TIP3   OH250896   6.231   4.410   2.287  0.3467 -0.0676 -0.4221
 9802TIP3    H150897   6.250   4.498   2.256  0.1984 -0.1567 -0.7646
 9802TIP3    H250898   6.225   4.419   2.382 -1.7731  0.7062 -0.5701
 9803TIP3   OH250899   1.977   3.475  12.644 -0.5687 -0.2596  0.3601
 9803TIP3    H150900   2.061   3.476  12.599 -1.4157  2.1347 -1.3753
 9803TIP3    H250901   1.988   3.538  12.716 -0.2032 -1.7264  1.6444
 9804TIP3   OH250902   5.014   5.869   0.258 -0.1540  0.0652  0.1076
 9804TIP3    H150903   5.049   5.792   0.303 -0.3556  0.1841  0.4692
 9804TIP3    H250904   5.073   5.882   0.184 -0.5640 -0.8952 -0.4001
 9805TIP3   OH250905   2.704   3.117  10.691 -0.2001  0.5144 -0.0589
 9805TIP3    H150906   2.736   3.037  10.732  1.3948  0.8554 -0.5890
 9805TIP3    H250907   2.654   3.161  10.761 -0.2400 -0.4336  0.5339
 9806TIP3   OH250908   3.136   2.375  11.502  0.6100 -0.8444 -0.1964
 9806TIP3    H150909   3.162   2.406  11.415  2.9661 -1.8099  0.0933
 9806TIP3    H250910   3.101   2.287  11.487  0.7710 -0.9079 -0.1988
 9807TIP3   OH250911   5.632   4.826  10.862 -0.4162 -0.0717  0.3197
 9807TIP3    H150912   5.619   4.812  10.956  0.7360 -2.2096  0.2119
 9807TIP3    H250913   5.679   4.910  10.857 -1.9639  0.9281  1.4922
 9808TIP3   OH250914   7.020   0.496   1.416  0.2534  0.0014  0.0377
 9808TIP3    H150915   7.047   0.518   1.505  2.0831  0.0447 -0.4963
 9808TIP3    H250916   7.024   0.579   1.369  2.9807 -0.6074 -0.9504
 9809TIP3   OH250917   5.425   6.509  10.868 -0.3654 -0.2876  1.0815
 9809TIP3    H150918   5.441   6.601  10.847 -0.2148 -0.3264  1.0219
 9809TIP3    H250919   5.343   6.488  10.823 -0.0828 -0.3516  0.5837
 9810TIP3   OH250920   1.391   6.992   3.254  0.5275 -0.7525  0.0668
 9810TIP3    H150921   1.327   7.023   3.318 -0.4472 -0.1037 -1.1772
 9810TIP3    H250922   1.342   6.985   3.172  1.5413 -2.3455 -0.4532
 9811TIP3   OH250923   2.155   6.104  14.941 -0.2723 -0.1744 -0.3826
 9811TIP3    H150924   2.164   6.178  14.881 -1.0522  0.2749  0.0430
 9811TIP3    H250925   2.235   6.052  14.927  1.8180  2.2827  1.4247
 9812TIP3   OH250926   6.477   1.641   1.552 -0.6134 -0.4012 -0.2316
 9812TIP3    H150927   6.529   1.590   1.614  0.9603 -0.2674 -1.3553
 9812TIP3    H250928   6.389   1.644   1.590 -0.1193 -1.7407  1.1205
 9813TIP3   OH250929   0.362   3.442   1.454  0.9435  0.5383  0.0846
 9813TIP3    H150930   0.386   3.501   1.382 -0.3264  2.3980  1.0925
 9813TIP3    H250931   0.276   3.408   1.430  0.4689  1.2437  0.7299
 9814TIP3   OH250932   5.679   2.778   1.155 -0.0348  0.3235 -0.3030
 9814TIP3    H150933   5.601   2.831   1.138 -0.8834 -0.6259  0.5102
 9814TIP3    H250934   5.739   2.799   1.083  1.3871  5.3973  1.8483
 9815TIP3   OH250935   1.148   2.153  14.455  0.2590 -0.4419 -0.5853
 9815TIP3    H150936   1.171   2.240  14.490 -1.8737  0.1970 -0.6622
 9815TIP3    H250937   1.175   2.093  14.524  1.0347  0.3351 -0.1815
 9816TIP3   OH250938   2.964   5.662  14.600 -0.4172  0.0233 -0.0159
 9816TIP3    H150939   2.894   5.615  14.555  0.5879 -1.2020 -0.3508
 9816TIP3    H250940   3.001   5.720  14.533 -1.0567  0.6423  0.1517
 9817TIP3   OH250941   1.161   5.256   2.246  0.0451 -0.3768  0.7156
 9817TIP3    H150942   1.111   5.337   2.233 -0.8236 -1.3893 -4.0998
 9817TIP3    H250943   1.249   5.285   2.268 -0.1668  2.0029 -1.1422
 9818TIP3   OH250944   2.199   0.977   3.149 -0.7526 -0.0389 -0.0205
 9818TIP3    H150945   2.205   0.947   3.058 -0.7202 -1.7912  0.5224
 9818TIP3    H250946   2.132   0.921   3.188  1.3584 -1.4686  1.7946
 9819TIP3   OH250947   1.111   2.075   0.277  0.0531 -0.5124  0.4107
 9819TIP3    H150948   1.158   2.006   0.231 -0.7176 -1.4459  0.9740
 9819TIP3    H250949   1.021   2.043   0.283 -1.1876  1.9967 -2.2537
 9820TIP3   OH250950   1.235   6.229   1.683  0.1922  0.4416 -0.3367
 9820TIP3    H150951   1.250   6.220   1.589  1.8423  0.2766 -0.0904
 9820TIP3    H250952   1.216   6.140   1.713  0.7342  0.3198 -0.3510
 9821TIP3   OH250953   6.852   0.266  14.503 -0.0364  0.3904 -0.8801
 9821TIP3    H150954   6.767   0.229  14.482 -0.2628  0.4393 -0.0771
 9821TIP3    H250955   6.842   0.360  14.487 -0.3768  0.5037 -0.0453
 9822TIP3   OH250956   0.257   6.203  15.055  0.1581 -0.2619  0.0236
 9822TIP3    H150957   0.318   6.276  15.054 -0.3948  0.2186 -1.9813
 9822TIP3    H250958   0.171   6.243  15.044 -0.0776 -1.2374 -2.0637
 9823TIP3   OH250959   0.310   5.316  13.283  0.1904  0.6196 -0.1147
 9823TIP3    H150960   0.380   5.255  13.262 -0.3755 -0.2885  0.5521
 9823TIP3    H250961   0.274   5.342  13.199  0.0470 -0.4416 -0.3921
 9824TIP3   OH250962   4.751   2.019   1.977  1.0624  0.2278  0.2304
 9824TIP3    H150963   4.814   2.045   1.909 -0.5404  2.0402 -0.6904
 9824TIP3    H250964   4.725   1.930   1.953  2.2368 -0.0190 -0.1770
 9825TIP3   OH250965   6.690   0.676   1.781 -0.2220 -0.2377  0.1272
 9825TIP3    H150966   6.786   0.673   1.787 -0.3252 -1.1894  1.9200
 9825TIP3    H250967   6.662   0.588   1.806 -1.5672 -0.1326 -0.9280
 9826TIP3   OH250968   5.879   2.205   0.428 -0.0451 -0.6053  0.6139
 9826TIP3    H150969   5.900   2.294   0.400 -0.1615 -0.9756 -0.7130
 9826TIP3    H250970   5.904   2.150   0.354  1.0769 -1.8142  1.8369
 9827TIP3   OH250971   0.239   6.649   2.124  0.4124 -0.3372  0.1173
 9827TIP3    H150972   0.232   6.682   2.035 -0.1691  0.3280  0.3913
 9827TIP3    H250973   0.298   6.711   2.167  1.0341 -0.9005  0.0919
 9828TIP3   OH250974   6.436   0.884   3.975 -0.1727 -0.5541  0.3827
 9828TIP3    H150975   6.528   0.898   3.953 -0.1415  0.1906  0.9399
 9828TIP3    H250976   6.402   0.830   3.904  0.3935  0.1775 -0.4746
 9829TIP3   OH250977   6.248   2.290   1.642 -0.3630 -0.0085 -0.0951
 9829TIP3    H150978   6.287   2.295   1.729 -0.4715 -1.2684  0.0384
 9829TIP3    H250979   6.192   2.212   1.645  0.0009 -0.3424 -1.4327
 9830TIP3   OH250980   3.720   4.403   0.282  0.5146  0.0739  0.0134
 9830TIP3    H150981   3.737   4.472   0.346  0.1708  0.3129 -0.1475
 9830TIP3    H250982   3.712   4.323   0.334  0.9149  0.1558  0.2013
 9831TIP3   OH250983   2.811   0.545  14.116 -0.2439  0.8104 -0.0940
 9831TIP3    H150984   2.893   0.588  14.140 -0.2005 -0.4369  2.3105
 9831TIP3    H250985   2.837   0.458  14.086 -0.6889  0.2239  1.1729
 9832TIP3   OH250986   4.939   2.113  10.233  0.0814  0.1771 -0.2101
 9832TIP3    H150987   4.909   2.204  10.235 -1.7624 -0.4054  0.1506
 9832TIP3    H250988   5.029   2.117  10.266 -0.5664  1.6401  1.5321
 9833TIP3   OH250989   4.826   5.876  10.745 -0.5500  0.2337 -0.2726
 9833TIP3    H150990   4.827   5.835  10.831 -0.8680 -2.5576 -1.5079
 9833TIP3    H250991   4.734   5.897  10.730 -0.5647  0.2416 -0.1742
 9834TIP3   OH250992   6.328   2.038  15.418 -0.6219  0.7326  0.0274
 9834TIP3    H150993   6.369   2.109  15.467 -1.5327 -0.6106  3.0360
 9834TIP3    H250994   6.249   2.017  15.468 -0.4002 -2.3444 -0.6758
 9835TIP3   OH250995   4.146   5.183   1.973 -0.3658 -0.4010 -0.4499
 9835TIP3    H150996   4.183   5.096   1.983 -1.2008 -0.7197  0.0291
 9835TIP3    H250997   4.204   5.240   2.023 -1.2139 -1.0928  1.4556
 9836TIP3   OH250998   6.310   5.224  13.667 -0.1035  0.5278  0.1372
 9836TIP3    H150999   6.227   5.177  13.677 -0.0211  0.4713  0.5606
 9836TIP3    H251000   6.365   5.192  13.739  0.8394 -0.6161 -1.0453
 9837TIP3   OH251001   4.703   3.084  14.301 -0.1899  0.5345  0.3419
 9837TIP3    H151002   4.677   3.087  14.393  0.0836 -1.0007  0.5078
 9837TIP3    H251003   4.644   3.144  14.256 -1.9850 -0.5359  1.1606
 9838TIP3   OH251004   0.625   0.527   0.811  0.1410 -0.4431  0.1382
 9838TIP3    H151005   0.530   0.518   0.806  0.0238  0.6491  0.1696
 9838TIP3    H251006   0.654   0.524   0.720  0.0557 -0.5881  0.1163
 9839TIP3   OH251007   5.255   6.607  11.324  0.1278  0.1717  0.1191
 9839TIP3    H151008   5.268   6.582  11.233  0.3609 -0.4344  0.3139
 9839TIP3    H251009   5.283   6.530  11.374  0.9668  0.8594  0.7339
 9840TIP3   OH251010   2.745   4.406  13.147 -0.2445 -0.0188 -0.3256
 9840TIP3    H151011   2.716   4.364  13.066 -0.0232  0.1720 -0.5049
 9840TIP3    H251012   2.840   4.409  13.141 -0.1939 -0.4406  0.1625
 9841TIP3   OH251013   1.820   2.889  14.054  0.1245  0.4018  0.1983
 9841TIP3    H151014   1.866   2.843  13.984  0.9504  1.5727 -0.0563
 9841TIP3    H251015   1.822   2.981  14.028 -1.7876  0.5845  0.5166
 9842TIP3   OH251016   3.858   0.317   0.517 -0.0145  0.0351 -1.0249
 9842TIP3    H151017   3.852   0.402   0.561 -1.9256 -0.6687  0.1793
 9842TIP3    H251018   3.926   0.270   0.565  0.7957  0.7194 -1.4663
 9843TIP3   OH251019   6.088   6.014   2.883  0.3857 -0.4502  0.2529
 9843TIP3    H151020   6.025   5.941   2.885 -1.4103  1.0326  0.7863
 9843TIP3    H251021   6.138   6.003   2.964 -0.6405 -0.4817  0.9075
 9844TIP3   OH251022   4.867   2.065   0.878  0.2810  0.3490 -0.3642
 9844TIP3    H151023   4.871   2.153   0.916  1.2074 -0.0600  0.5577
 9844TIP3    H251024   4.933   2.066   0.809 -2.0289  1.3724 -2.6944
 9845TIP3   OH251025   1.283   4.050  12.692 -0.1657 -0.2062  0.1676
 9845TIP3    H151026   1.223   3.976  12.700  1.7877 -1.6921  2.2434
 9845TIP3    H251027   1.341   4.027  12.619  0.6690 -0.9766  1.0394
 9846TIP3   OH251028   5.519   6.294  15.313  0.4362  0.4607  0.2149
 9846TIP3    H151029   5.467   6.332  15.241 -1.2897 -0.3884  0.9605
 9846TIP3    H251030   5.460   6.296  15.388  0.8716 -2.0995  0.6947
 9847TIP3   OH251031   6.095   5.748   2.384 -0.4518 -0.0927  0.2952
 9847TIP3    H151032   6.163   5.725   2.321  0.8944 -0.9967  1.9748
 9847TIP3    H251033   6.014   5.715   2.346  0.0442  0.7446 -1.6293
 9848TIP3   OH251034   0.805   5.100  13.649  0.3062 -0.6013  0.3787
 9848TIP3    H151035   0.894   5.088  13.682 -0.7185 -1.9826  2.9210
 9848TIP3    H251036   0.772   5.011  13.636 -1.0955 -0.1498  0.7092
 9849TIP3   OH251037   4.070   1.047  12.101 -0.1208  0.2956 -0.0659
 9849TIP3    H151038   4.081   0.963  12.146  1.5661 -1.9565 -4.1493
 9849TIP3    H251039   3.979   1.046  12.070  0.5208 -1.2204 -2.0444
 9850TIP3   OH251040   2.798   0.037  12.159  0.2713 -0.4228 -0.0411
 9850TIP3    H151041   2.776   0.129  12.175  1.1198 -0.5293  2.0392
 9850TIP3    H251042   2.735   0.009  12.094 -1.3918  1.0724  0.8233
 9851TIP3   OH251043   0.108   6.815   2.557  0.2331 -0.1993  0.4662
 9851TIP3    H151044   0.157   6.852   2.484  0.1943  0.1711  0.6252
 9851TIP3    H251045   0.130   6.871   2.632  2.2800 -2.0177  1.3511
 9852TIP3   OH251046   0.455   7.011  15.279  0.2810 -0.3836  0.3713
 9852TIP3    H151047   0.534   7.006  15.333  0.7509 -0.1907 -0.2716
 9852TIP3    H251048   0.388   6.964  15.329  0.2995  0.9970  1.7613
 9853TIP3   OH251049   3.749   5.957   4.277 -0.1870 -0.7188  0.0981
 9853TIP3    H151050   3.831   5.976   4.232 -0.5871  0.1801 -0.2790
 9853TIP3    H251051   3.729   5.866   4.253 -0.5450 -0.1814 -1.8254
 9854TIP3   OH251052   2.697   1.957  14.392 -0.2862  0.3917 -0.1995
 9854TIP3    H151053   2.730   2.047  14.391 -0.6891  0.6076  1.5300
 9854TIP3    H251054   2.775   1.903  14.407 -0.4195  0.7880  2.4114
 9855TIP3   OH251055   5.721   2.428   0.730  0.5393  0.3713 -0.2655
 9855TIP3    H151056   5.733   2.348   0.678 -1.7854 -0.2604  0.0733
 9855TIP3    H251057   5.627   2.445   0.727  0.8733  2.6558  0.3701
 9856TIP3   OH251058   0.262   3.961  12.674  0.3353  0.1697  0.4123
 9856TIP3    H151059   0.316   3.901  12.726  1.7181  0.5158 -0.5531
 9856TIP3    H251060   0.176   3.920  12.671  0.2539  0.0045  2.7142
 9857TIP3   OH251061   4.929   1.691  10.767 -0.4576  0.1049  0.7877
 9857TIP3    H151062   4.888   1.682  10.853 -2.0868 -0.3003  0.0167
 9857TIP3    H251063   4.900   1.613  10.719  0.5087  0.2711 -0.1041
 9858TIP3   OH251064   1.234   5.670   3.876 -0.2478 -0.5884  0.4907
 9858TIP3    H151065   1.301   5.725   3.919  0.5504 -1.1384 -0.0255
 9858TIP3    H251066   1.257   5.672   3.783 -1.2336 -0.4171  0.2363
 9859TIP3   OH251067   5.581   1.018  15.405 -0.5191 -1.1846 -0.7767
 9859TIP3    H151068   5.557   1.110  15.393 -0.4504 -1.2268 -1.2473
 9859TIP3    H251069   5.525   0.970  15.344  0.3809 -1.3336 -1.5006
 9860TIP3   OH251070   3.031   6.325  14.414  0.5265 -0.6848  0.4495
 9860TIP3    H151071   3.108   6.268  14.402  0.5587 -0.4357 -0.6862
 9860TIP3    H251072   2.985   6.320  14.330 -1.4936 -1.9467  1.5536
 9861TIP3   OH251073   7.035   4.461   3.577 -0.4440  0.1921  0.6633
 9861TIP3    H151074   6.964   4.524   3.587 -0.3747  0.2712  0.6640
 9861TIP3    H251075   6.994   4.376   3.591 -1.0016  0.0525 -1.3984
 9862TIP3   OH251076   6.847   7.160   4.643  0.1625 -0.1082 -0.4597
 9862TIP3    H151077   6.907   7.235   4.647  0.2024 -0.1800  1.2184
 9862TIP3    H251078   6.760   7.199   4.652  0.0680 -0.1465 -1.1672
 9863TIP3   OH251079   3.287   4.381   3.644 -0.6215 -0.7856  0.0134
 9863TIP3    H151080   3.214   4.419   3.595 -1.0292 -1.3265  0.1857
 9863TIP3    H251081   3.359   4.378   3.582 -0.9983 -1.0366 -0.4181
 9864TIP3   OH251082   4.043   3.166   4.639  0.1868 -0.4990  0.6092
 9864TIP3    H151083   4.049   3.231   4.569 -0.5132 -1.3707 -0.2738
 9864TIP3    H251084   3.951   3.168   4.666 -0.7085 -3.3710 -1.6925
 9865TIP3   OH251085   3.124   1.575  13.578 -0.1781  0.4794  0.4639
 9865TIP3    H151086   3.143   1.669  13.583  0.5188  0.3728  0.0332
 9865TIP3    H251087   3.032   1.570  13.551 -0.3502  1.0345  0.9469
 9866TIP3   OH251088   2.619   5.702   5.314 -0.6581  0.0806  0.3680
 9866TIP3    H151089   2.689   5.636   5.313 -1.0551 -0.3522  0.7939
 9866TIP3    H251090   2.624   5.741   5.400  0.0050  1.0859 -0.1115
 9867TIP3   OH251091   5.423   1.818  14.029  0.1240 -0.6988  0.4394
 9867TIP3    H151092   5.502   1.796  14.078 -0.1870 -0.2528  1.1499
 9867TIP3    H251093   5.441   1.788  13.940  1.3411 -0.0308  0.4428
 9868TIP3   OH251094   4.086   6.621   2.414  0.0366 -0.1586  0.0893
 9868TIP3    H151095   4.024   6.630   2.487 -0.6863 -0.6645 -0.4383
 9868TIP3    H251096   4.100   6.526   2.407  0.4176 -0.0839 -0.1695
 9869TIP3   OH251097   4.893   3.414   0.008 -0.3229 -0.1342 -0.1161
 9869TIP3    H151098   4.873   3.498   0.050 -0.4731 -0.5800  0.7350
 9869TIP3    H251099   4.988   3.409   0.007 -0.3161 -0.3537  0.6897
 9870TIP3   OH251100   3.905   4.007  11.416  0.4006 -0.2489  0.4336
 9870TIP3    H151101   3.812   3.988  11.424  0.5448 -0.4099  2.1070
 9870TIP3    H251102   3.917   4.090  11.461  0.9720  0.1385 -0.3920
 9871TIP3   OH251103   1.493   5.831   1.464  0.1269  0.0507 -0.7785
 9871TIP3    H151104   1.420   5.837   1.403  1.4996  0.9583 -2.4112
 9871TIP3    H251105   1.562   5.787   1.415  0.1324 -2.5303  1.3419
 9872TIP3   OH251106   5.583   6.263   2.368  0.0266 -0.0521 -0.4359
 9872TIP3    H151107   5.653   6.292   2.309  0.7650  0.6806  0.7443
 9872TIP3    H251108   5.606   6.302   2.452 -0.8468 -1.2871  0.4074
 9873TIP3   OH251109   1.336   5.406   0.571 -0.0975 -0.6294  0.0215
 9873TIP3    H151110   1.268   5.340   0.559 -1.1651  0.5923 -0.9331
 9873TIP3    H251111   1.290   5.480   0.611  0.8853 -0.1296  0.2517
 9874TIP3   OH251112   1.676   3.719  14.878  0.2416  0.5166  0.4291
 9874TIP3    H151113   1.598   3.774  14.865  0.1527  0.4212  0.5555
 9874TIP3    H251114   1.715   3.713  14.791 -0.6578 -0.5607  0.0684
 9875TIP3   OH251115   6.748   4.154  15.391 -0.1074 -0.9308 -0.2251
 9875TIP3    H151116   6.809   4.170  15.319 -0.4754 -0.7755 -0.5028
 9875TIP3    H251117   6.736   4.059  15.390  2.0693 -1.3095  1.4214
 9876TIP3   OH251118   4.847   1.629  13.256 -0.3351  0.5400  0.5372
 9876TIP3    H151119   4.917   1.684  13.221 -1.5695  2.2243  0.5973
 9876TIP3    H251120   4.837   1.558  13.192  1.3548  0.2982  0.5058
 9877TIP3   OH251121   0.193   0.610  13.351  0.2268  0.2097 -0.2628
 9877TIP3    H151122   0.245   0.686  13.377 -1.5542  1.4714 -0.2128
 9877TIP3    H251123   0.150   0.581  13.431  1.3089 -1.2456 -0.1643
 9878TIP3   OH251124   3.656   2.734   1.858 -0.1719  0.1668 -0.4936
 9878TIP3    H151125   3.710   2.701   1.930  0.8922  0.6947 -1.0250
 9878TIP3    H251126   3.711   2.723   1.780 -0.8674  0.6440 -1.0646
 9879TIP3   OH251127   0.164   2.708  14.672 -0.3774 -0.1074 -0.4105
 9879TIP3    H151128   0.157   2.761  14.593  0.7234  1.1203  0.2703
 9879TIP3    H251129   0.219   2.634  14.647 -3.1173 -1.8611 -1.7763
 9880TIP3   OH251130   5.955   0.111  10.946 -0.0341  0.1703 -0.3243
 9880TIP3    H151131   5.998   0.195  10.959  0.0969 -0.0276  0.6334
 9880TIP3    H251132   5.896   0.125  10.872 -0.2431  1.1901  0.0184
 9881TIP3   OH251133   2.630   1.335  12.251 -0.4074  0.3667 -0.2644
 9881TIP3    H151134   2.559   1.325  12.187 -1.5503 -1.8765  1.2514
 9881TIP3    H251135   2.710   1.337  12.198 -1.1641 -2.9933 -1.8003
 9882TIP3   OH251136   4.135   1.986   9.825 -0.6068  0.0389 -0.4113
 9882TIP3    H151137   4.211   1.963   9.879 -1.1138  1.2434  0.8954
 9882TIP3    H251138   4.108   1.903   9.785  0.4266 -0.7037  0.3588
 9883TIP3   OH251139   3.027   5.218   1.316 -0.2971 -0.1135  0.2180
 9883TIP3    H151140   2.932   5.210   1.325 -0.0632 -0.7231  3.0440
 9883TIP3    H251141   3.043   5.312   1.316 -1.0090  0.1157 -3.1313
 9884TIP3   OH251142   2.647   2.254   4.971 -0.4054 -0.2292  0.0215
 9884TIP3    H151143   2.730   2.251   4.924 -0.8047 -0.5829 -0.6761
 9884TIP3    H251144   2.601   2.174   4.945 -1.2917  0.3429 -0.2340
 9885TIP3   OH251145   5.468   6.198  12.911 -0.3961  0.2203  0.4921
 9885TIP3    H151146   5.417   6.119  12.930 -0.6713  0.1869 -0.3411
 9885TIP3    H251147   5.472   6.201  12.816  1.8934 -0.2503  0.5256
 9886TIP3   OH251148   6.779   1.854   0.138  0.2179 -0.1756  0.3168
 9886TIP3    H151149   6.752   1.804   0.215 -2.8962  2.9946  1.5185
 9886TIP3    H251150   6.726   1.818   0.067 -1.0652  0.5065  0.9012
 9887TIP3   OH251151   5.518   5.991  14.465  0.4813 -0.1933  0.1195
 9887TIP3    H151152   5.600   5.985  14.514 -0.3540 -0.5238  1.5292
 9887TIP3    H251153   5.461   6.044  14.520 -0.7223 -1.1591 -0.1514
 9888TIP3   OH251154   0.938   7.205   4.566  0.1658 -0.4482  0.5087
 9888TIP3    H151155   0.868   7.173   4.510 -0.5546  1.3336  0.3219
 9888TIP3    H251156   0.921   7.164   4.651 -1.2548  0.1147  0.5278
 9889TIP3   OH251157   2.648   2.530  11.945  0.3644 -0.0807  0.5117
 9889TIP3    H151158   2.614   2.518  11.857 -1.8640  0.5546  1.2172
 9889TIP3    H251159   2.719   2.593  11.936  1.7898 -1.7863 -1.0917
 9890TIP3   OH251160   3.421   5.886   0.528 -0.1751 -0.4025  0.5003
 9890TIP3    H151161   3.495   5.892   0.588 -1.6353 -2.6697  2.7601
 9890TIP3    H251162   3.347   5.922   0.577 -0.7275  1.7219 -1.6580
 9891TIP3   OH251163   5.814   2.087  12.828 -0.3008 -0.0245 -0.0243
 9891TIP3    H151164   5.832   2.181  12.828  2.0669 -0.4115  1.0169
 9891TIP3    H251165   5.731   2.079  12.779 -0.6095  2.5675 -0.0922
 9892TIP3   OH251166   0.956   2.649  12.169 -0.0588 -0.0585  0.2460
 9892TIP3    H151167   0.878   2.677  12.216 -0.4062 -1.0809  0.3118
 9892TIP3    H251168   0.971   2.717  12.104 -0.9715  0.1811  0.2798
 9893TIP3   OH251169   5.024   2.471  10.541 -0.2512 -0.1701  0.2639
 9893TIP3    H151170   5.092   2.535  10.562 -0.5255 -0.1010  0.9855
 9893TIP3    H251171   4.955   2.522  10.499 -0.9963  0.2566  1.9216
 9894TIP3   OH251172   4.284   0.575  13.247  0.6204 -0.4905 -0.5801
 9894TIP3    H151173   4.345   0.602  13.179  1.3581  0.0869  0.2878
 9894TIP3    H251174   4.338   0.560  13.324 -0.3461  0.4605  0.3320
 9895TIP3   OH251175   6.970   2.802   0.558  0.0166 -0.4749  0.0815
 9895TIP3    H151176   6.999   2.892   0.541 -1.3620 -0.2078 -0.9982
 9895TIP3    H251177   6.950   2.801   0.652  0.6504  0.1540  0.2341
 9896TIP3   OH251178   3.525   5.858  15.314 -0.4390 -0.1579  0.2278
 9896TIP3    H151179   3.534   5.912  15.236  1.2099  0.3720  0.7391
 9896TIP3    H251180   3.500   5.772  15.282 -3.7375  0.9528 -0.5850
 9897TIP3   OH251181   0.766   4.400  14.625 -0.2153  0.0640  0.4234
 9897TIP3    H151182   0.854   4.431  14.648 -0.0519  0.8519 -1.0987
 9897TIP3    H251183   0.766   4.398  14.529 -0.6100 -3.6374  0.3376
 9898TIP3   OH251184   4.613   0.899  15.319  0.0700  0.4242 -0.1354
 9898TIP3    H151185   4.668   0.946  15.257 -0.2230  0.3926 -0.4243
 9898TIP3    H251186   4.548   0.854  15.265 -1.7408  2.3536  0.2768
 9899TIP3   OH251187   1.181   1.242   3.257  0.5204 -0.2599 -0.3247
 9899TIP3    H151188   1.215   1.223   3.170 -0.9473 -1.2347 -0.7223
 9899TIP3    H251189   1.117   1.173   3.273  0.5759  0.0566  1.4262
 9900TIP3   OH251190   0.043   2.037  11.454  0.0966 -0.4231 -0.3342
 9900TIP3    H151191   0.120   1.983  11.438 -0.5409 -1.3984 -0.2171
 9900TIP3    H251192   0.021   2.021  11.545  0.3118  0.6061 -0.0901
 9901TIP3   OH251193   4.201   2.762   5.339  0.4758 -0.1732 -1.0892
 9901TIP3    H151194   4.137   2.694   5.361  1.4266 -1.1287 -1.2182
 9901TIP3    H251195   4.243   2.783   5.422 -0.3013  0.7789 -0.9257
 9902TIP3   OH251196   2.086   5.514  14.347  0.3157  0.7118  0.2591
 9902TIP3    H151197   2.113   5.431  14.387 -0.2408 -0.0127 -0.8292
 9902TIP3    H251198   2.097   5.578  14.417  2.0275 -0.0353  0.7274
 9903TIP3   OH251199   1.548   2.260  13.744 -0.5958  0.3304  0.1656
 9903TIP3    H151200   1.529   2.274  13.837 -0.9130 -2.4880  0.6140
 9903TIP3    H251201   1.522   2.169  13.728  2.5803 -0.3779 -1.8447
 9904TIP3   OH251202   0.194   2.459   0.986  0.0846  0.1243  0.6390
 9904TIP3    H151203   0.147   2.467   0.903 -1.0484  1.4840  1.3652
 9904TIP3    H251204   0.286   2.467   0.963 -0.0621 -1.6378 -0.7123
 9905TIP3   OH251205   4.148   7.142   3.687 -0.1686  0.1377  0.3624
 9905TIP3    H151206   4.117   7.058   3.655  1.7041 -0.3421 -0.3138
 9905TIP3    H251207   4.179   7.125   3.776 -1.5627  0.5629  0.9504
 9906TIP3   OH251208   1.709   2.663  12.505 -0.1904 -0.0832  0.5146
 9906TIP3    H151209   1.669   2.706  12.429  0.0544 -0.8353 -0.0471
 9906TIP3    H251210   1.776   2.725  12.535  0.7917 -0.4358 -0.8543
 9907TIP3   OH251211   2.923   4.129  12.027  0.4724 -0.7863  0.4867
 9907TIP3    H151212   2.906   4.064  11.959 -1.5421  0.6654 -0.5007
 9907TIP3    H251213   2.840   4.177  12.036  1.4340  0.7055  2.2127
 9908TIP3   OH251214   1.475   3.848   2.096 -0.1949  0.6090 -0.1205
 9908TIP3    H151215   1.513   3.935   2.095 -1.7530  1.3262 -1.6327
 9908TIP3    H251216   1.467   3.823   2.004 -1.2380 -0.4287  0.2164
 9909TIP3   OH251217   0.567   2.660  13.416 -0.5881 -0.2195  0.1471
 9909TIP3    H151218   0.525   2.696  13.493 -0.7972 -0.2779  0.0612
 9909TIP3    H251219   0.626   2.592  13.450 -0.0108  0.3639  0.3256
 9910TIP3   OH251220   5.349   4.121  12.878 -0.6435  0.4045 -0.9793
 9910TIP3    H151221   5.387   4.038  12.847 -1.8717 -1.1191  1.2727
 9910TIP3    H251222   5.265   4.127  12.833 -0.8489  0.0600 -0.6496
 9911TIP3   OH251223   6.471   0.829  13.266  0.1259 -0.5890  0.0668
 9911TIP3    H151224   6.525   0.893  13.219 -0.0511  0.0843  0.7539
 9911TIP3    H251225   6.384   0.867  13.265  0.1863 -0.3742  1.2421
 9912TIP3   OH251226   0.682   4.033   5.422  0.8095 -0.0935  0.0019
 9912TIP3    H151227   0.693   4.028   5.517  0.2269 -0.6929  0.0457
 9912TIP3    H251228   0.592   4.004   5.407  0.9007 -0.0101 -0.7334
 9913TIP3   OH251229   6.046   3.440   4.486 -0.0030 -0.3763 -0.4199
 9913TIP3    H151230   6.131   3.469   4.455 -0.2210 -0.7485 -1.4064
 9913TIP3    H251231   5.995   3.425   4.406 -0.7265 -0.9390  0.1295
 9914TIP3   OH251232   4.374   1.889   0.318  0.1976  0.4541  0.1230
 9914TIP3    H151233   4.465   1.902   0.345 -0.3632 -0.3756  2.6449
 9914TIP3    H251234   4.380   1.864   0.225  2.5721 -0.1397  0.3755
 9915TIP3   OH251235   3.126   4.131   0.017  0.1028  0.2932  0.2883
 9915TIP3    H151236   3.096   4.086  -0.062  0.8111  1.7101 -0.8299
 9915TIP3    H251237   3.051   4.183   0.046  0.7675  2.3088 -1.3797
 9916TIP3   OH251238   3.613   0.697   1.381 -0.2320 -0.3207  0.1110
 9916TIP3    H151239   3.598   0.669   1.471 -1.8783 -2.3298 -0.7215
 9916TIP3    H251240   3.669   0.629   1.343  1.9324  1.3997  0.0260
 9917TIP3   OH251241   1.201   6.640   5.397  0.0545 -0.4471 -0.0925
 9917TIP3    H151242   1.283   6.624   5.350 -0.9396 -0.9874 -1.7205
 9917TIP3    H251243   1.197   6.571   5.463  1.0324 -0.2398  0.1981
 9918TIP3   OH251244   5.240   2.723  11.789  0.1019 -0.3791 -0.7901
 9918TIP3    H151245   5.190   2.706  11.869 -0.8089 -0.6742 -1.4085
 9918TIP3    H251246   5.287   2.805  11.806  1.2879 -1.3176  0.6872
 9919TIP3   OH251247   0.745   4.702  13.021  0.3225  0.0952 -0.0745
 9919TIP3    H151248   0.812   4.718  12.954  0.6250  1.5149  0.5361
 9919TIP3    H251249   0.766   4.615  13.055  1.2626  0.1072 -0.5837
 9920TIP3   OH251250   5.082   0.694   0.085 -0.4410 -0.4122  0.2624
 9920TIP3    H151251   5.059   0.693  -0.007 -0.4986  1.7815  0.2054
 9920TIP3    H251252   5.033   0.767   0.122  2.6475  1.4417  1.1288
 9921TIP3   OH251253   1.504   2.003  13.968 -0.1178  0.0938 -0.2726
 9921TIP3    H151254   1.473   1.972  13.883  0.5755 -1.8906  0.1651
 9921TIP3    H251255   1.451   2.082  13.984 -1.2266 -0.2474 -1.8980
 9922TIP3   OH251256   5.764   1.990   9.474 -0.0721 -0.2318  0.7983
 9922TIP3    H151257   5.806   1.935   9.540 -1.0490 -2.3375 -0.2140
 9922TIP3    H251258   5.691   1.936   9.441 -1.3723  1.8625  0.0146
 9923TIP3   OH251259   1.194   5.719   2.012 -0.2495 -0.4343  0.0602
 9923TIP3    H151260   1.101   5.743   2.008 -0.8828 -2.4606  1.1541
 9923TIP3    H251261   1.201   5.641   1.957  1.0782  0.3590 -0.9488
 9924TIP3   OH251262   3.531   4.979  15.062  0.4855  0.1412 -0.1832
 9924TIP3    H151263   3.563   5.012  14.979  2.0685 -1.0142 -0.0855
 9924TIP3    H251264   3.449   4.933  15.041 -0.0775  1.3904 -0.7820
 9925TIP3   OH251265   5.874   3.804  11.882 -0.1870 -0.2338 -0.6022
 9925TIP3    H151266   5.780   3.814  11.897  0.1367  1.7331  0.4197
 9925TIP3    H251267   5.911   3.792  11.970  0.6163 -0.0942 -0.9177
 9926TIP3   OH251268   2.163   3.031  12.622  0.7891 -0.0750 -0.5990
 9926TIP3    H151269   2.122   2.954  12.662  1.9115 -1.5591 -2.1605
 9926TIP3    H251270   2.101   3.057  12.553 -0.1594  1.2245  0.6695
 9927TIP3   OH251271   5.295   0.208   1.210 -0.6519 -0.2305 -0.2079
 9927TIP3    H151272   5.291   0.196   1.305  2.1077  0.4278  0.0645
 9927TIP3    H251273   5.357   0.279   1.196 -1.9224  0.5481 -2.5029
 9928TIP3   OH251274   1.887   2.641  11.817  0.2895  0.3422  0.0427
 9928TIP3    H151275   1.880   2.594  11.733 -0.4855  2.1742 -0.9821
 9928TIP3    H251276   1.802   2.627  11.858  0.1083  0.7157 -0.1988
 9929TIP3   OH251277   6.458   5.983   2.981 -0.4572  0.1266 -0.0087
 9929TIP3    H151278   6.513   6.032   3.042 -0.1467  1.2463 -1.1390
 9929TIP3    H251279   6.373   5.977   3.026 -0.0315  0.2886  0.8352
 9930TIP3   OH251280   4.713   0.859  14.034  0.6736 -0.2522  0.2787
 9930TIP3    H151281   4.629   0.904  14.044  0.0368 -1.1912 -0.6662
 9930TIP3    H251282   4.748   0.890  13.950  0.1957 -1.5209 -0.4212
 9931TIP3   OH251283   1.231   0.732  11.050  0.6339 -0.3542 -0.1112
 9931TIP3    H151284   1.220   0.638  11.059 -1.1180 -0.1579  0.1029
 9931TIP3    H251285   1.242   0.764  11.139  0.7147 -0.3000 -0.1404
 9932TIP3   OH251286   0.557   1.354  13.886 -0.0709 -0.0070  0.6322
 9932TIP3    H151287   0.500   1.369  13.811  0.4708  0.7489  0.3619
 9932TIP3    H251288   0.569   1.440  13.925 -2.0776 -0.6356  2.8969
 9933TIP3   OH251289   6.704   5.401  12.581 -0.2565  0.8675  0.1305
 9933TIP3    H151290   6.624   5.360  12.549 -0.0423  0.8629 -0.4163
 9933TIP3    H251291   6.729   5.463  12.512  0.8735 -0.0125 -0.2877
 9934TIP3   OH251292   1.497   2.503   1.821 -0.3369 -0.6245  0.4349
 9934TIP3    H151293   1.591   2.501   1.805 -0.2031  0.4583  1.0394
 9934TIP3    H251294   1.459   2.531   1.737 -0.0345 -0.0428  0.4867
 9935TIP3   OH251295   4.935   1.468   0.716  0.1218 -0.4546 -0.6793
 9935TIP3    H151296   4.843   1.474   0.690  0.2684 -0.7610 -1.2903
 9935TIP3    H251297   4.960   1.557   0.739 -0.9211 -0.6762  1.6151
 9936TIP3   OH251298   6.502   3.718   4.339 -0.1135  0.5596 -0.8708
 9936TIP3    H151299   6.450   3.793   4.310 -1.1294  1.0717  1.9584
 9936TIP3    H251300   6.484   3.650   4.273 -1.8893  1.7164 -1.6685
 9937TIP3   OH251301   2.044   4.189  13.884  0.2193  0.3415  0.4284
 9937TIP3    H151302   1.959   4.231  13.870  0.3644  0.1890 -1.0420
 9937TIP3    H251303   2.108   4.258  13.868  0.4073  0.1582  0.3912
 9938TIP3   OH251304   6.585   2.265  10.137  0.3180  0.0413 -0.1483
 9938TIP3    H151305   6.511   2.237  10.083  0.4816 -1.9407  0.5901
 9938TIP3    H251306   6.546   2.291  10.220  0.3284  0.4789 -0.2749
 9939TIP3   OH251307   3.488   5.207   3.428 -0.1865  0.4358  0.0064
 9939TIP3    H151308   3.477   5.301   3.413  3.2679  0.8327 -0.8759
 9939TIP3    H251309   3.541   5.177   3.354  2.0718 -1.3775  2.1700
 9940TIP3   OH251310   4.943   6.458   3.261  1.0318  0.3562  0.1653
 9940TIP3    H151311   4.945   6.500   3.175  2.4087  1.2685  0.6114
 9940TIP3    H251312   4.857   6.416   3.265  0.9607  0.2490 -1.6657
 9941TIP3   OH251313   1.789   1.038  13.134  0.4880  0.3390  0.1749
 9941TIP3    H151314   1.868   0.988  13.117 -0.4825 -1.1546 -0.1021
 9941TIP3    H251315   1.806   1.084  13.216  1.4211 -0.3885  0.3986
 9942TIP3   OH251316   4.518   2.110   1.474  0.4619  0.2154  0.2128
 9942TIP3    H151317   4.500   2.118   1.567 -1.5956  1.9723 -0.2617
 9942TIP3    H251318   4.549   2.196   1.447 -2.6266  0.9820 -1.3558
 9943TIP3   OH251319   5.020   2.921   1.511  0.0373 -0.0511 -0.0180
 9943TIP3    H151320   4.938   2.916   1.561 -0.1378 -0.0199 -0.3035
 9943TIP3    H251321   4.993   2.945   1.423  0.0451 -2.8905 -0.8951
 9944TIP3   OH251322   3.200   6.265   9.680 -0.0152  0.2166  0.3234
 9944TIP3    H151323   3.246   6.215   9.613  0.3721  1.6792 -0.5566
 9944TIP3    H251324   3.116   6.221   9.690  0.5201 -0.9160 -0.0026
 9945TIP3   OH251325   4.059   1.939  13.366 -0.1093 -0.1865  0.4674
 9945TIP3    H151326   4.111   1.927  13.445 -0.1366 -0.7501  0.4068
 9945TIP3    H251327   4.047   1.850  13.332 -0.8747 -0.0376  0.3326
 9946TIP3   OH251328   5.947   5.534  10.331 -0.4150  0.9712 -0.2460
 9946TIP3    H151329   5.976   5.559  10.419  0.8743  0.3991 -0.4847
 9946TIP3    H251330   5.852   5.530  10.338 -0.2924 -0.1423  1.4386
 9947TIP3   OH251331   2.804   2.453  15.391  0.5938 -0.7887  0.6061
 9947TIP3    H151332   2.892   2.467  15.356  0.1695 -1.3701 -0.7640
 9947TIP3    H251333   2.774   2.373  15.348 -0.4036 -0.8907  1.4631
 9948TIP3   OH251334   4.407   1.193   4.546 -0.4707 -0.0030 -0.1579
 9948TIP3    H151335   4.351   1.116   4.555 -0.2036 -0.1640  0.1296
 9948TIP3    H251336   4.490   1.159   4.513 -0.3757  0.1721 -0.1021
 9949TIP3   OH251337   3.073   5.106   3.618 -0.0001 -0.1202  0.4094
 9949TIP3    H151338   3.062   5.191   3.577 -2.1193  0.7527  2.5484
 9949TIP3    H251339   3.166   5.085   3.607  0.1737  1.5555 -1.7868
 9950TIP3   OH251340   3.534   1.158  13.830 -0.4394 -0.1808  0.5656
 9950TIP3    H151341   3.550   1.193  13.742 -0.8217  0.0957  0.6059
 9950TIP3    H251342   3.462   1.211  13.865 -1.6042 -1.5320  0.3032
 9951TIP3   OH251343   4.046   1.694  14.335  0.5998 -0.2164 -0.2698
 9951TIP3    H151344   4.118   1.698  14.399  0.2491 -1.9888  0.3091
 9951TIP3    H251345   3.979   1.642  14.379 -0.6815  0.6498 -1.1523
 9952TIP3   OH251346   3.494   6.115  14.523 -0.2485 -0.2784 -0.0245
 9952TIP3    H151347   3.432   6.148  14.458 -0.8067  0.0715  0.6716
 9952TIP3    H251348   3.465   6.026  14.541 -0.7078 -0.0278  0.4874
 9953TIP3   OH251349   5.814   6.948   4.358  0.0604 -0.2340  0.1043
 9953TIP3    H151350   5.752   6.956   4.286  1.0908 -0.8142 -0.8794
 9953TIP3    H251351   5.768   6.898   4.424 -0.2254 -1.4742 -0.9909
 9954TIP3   OH251352   5.654   6.699   2.922 -0.3577  0.1284  0.0475
 9954TIP3    H151353   5.690   6.613   2.944 -2.7239 -0.9074  0.2738
 9954TIP3    H251354   5.643   6.742   3.007  0.8498  0.6919 -0.0680
 9955TIP3   OH251355   3.981   4.191  11.590 -0.3281 -0.1416 -0.0506
 9955TIP3    H151356   3.967   4.213  11.682 -0.1013  3.7447 -0.7857
 9955TIP3    H251357   4.072   4.214  11.573 -0.3554 -0.8180 -1.2706
 9956TIP3   OH251358   0.432   5.113   0.364 -0.4889 -0.1109 -0.2341
 9956TIP3    H151359   0.524   5.104   0.389 -0.0015  1.6260 -1.2104
 9956TIP3    H251360   0.405   5.197   0.402 -1.2267  0.0955 -1.1751
 9957TIP3   OH251361   3.490   2.172  12.802 -0.2930 -0.5220 -0.5161
 9957TIP3    H151362   3.505   2.265  12.788 -0.4375 -0.3928  0.1303
 9957TIP3    H251363   3.530   2.129  12.726  2.1638 -0.1083  0.4275
 9958TIP3   OH251364   4.534   5.588  13.787 -0.0839  0.5340  0.0079
 9958TIP3    H151365   4.531   5.495  13.762 -0.5092  0.3757  0.6080
 9958TIP3    H251366   4.495   5.634  13.713  1.3261  0.3770 -0.8672
 9959TIP3   OH251367   4.598   1.660   2.875 -0.0432 -0.0204 -0.2439
 9959TIP3    H151368   4.684   1.666   2.916  0.2566  1.9169 -1.0486
 9959TIP3    H251369   4.568   1.751   2.869 -1.2304 -0.4783 -1.8781
 9960TIP3   OH251370   5.966   1.872   4.969 -0.0301 -0.0525  0.0156
 9960TIP3    H151371   6.005   1.952   4.933 -1.0613  1.3071  1.7939
 9960TIP3    H251372   6.042   1.817   4.991  0.6881  0.3404 -1.3392
 9961TIP3   OH251373   3.705   3.177  12.564 -0.0428 -0.1736 -0.1079
 9961TIP3    H151374   3.690   3.215  12.477 -0.7820 -1.0536 -0.3797
 9961TIP3    H251375   3.627   3.203  12.615 -0.9762 -1.9888 -0.5461
 9962TIP3   OH251376   3.426   2.590   3.767 -0.2870 -0.0833  0.3528
 9962TIP3    H151377   3.416   2.663   3.706  3.8538  1.0646  0.7000
 9962TIP3    H251378   3.427   2.631   3.854  1.3125 -0.5675  0.6039
 9963TIP3   OH251379   5.139   5.668   2.020  0.6364  0.7889  0.6661
 9963TIP3    H151380   5.081   5.713   1.959  1.1966  0.4720 -0.1154
 9963TIP3    H251381   5.112   5.576   2.017  3.1550 -0.0127 -2.1702
 9964TIP3   OH251382   2.413   6.323   4.109 -0.0442 -0.4336  0.2295
 9964TIP3    H151383   2.484   6.299   4.049  0.8381  1.5179  0.4247
 9964TIP3    H251384   2.450   6.393   4.163 -1.4684 -0.7988  1.7389
 9965TIP3   OH251385   4.228   0.322   1.392  0.4286  0.2591  0.3614
 9965TIP3    H151386   4.320   0.312   1.366  0.4966  1.1724  0.2339
 9965TIP3    H251387   4.230   0.386   1.463 -0.0876  0.0481  0.5736
 9966TIP3   OH251388   4.575   4.051  10.891  0.2789 -0.0470  0.3516
 9966TIP3    H151389   4.488   4.035  10.926  0.3430 -1.3881 -0.0154
 9966TIP3    H251390   4.566   4.129  10.836 -0.1694  1.1322  2.0171
 9967TIP3   OH251391   3.584   3.130   2.554  0.1772  0.1620 -0.6535
 9967TIP3    H151392   3.617   3.053   2.508 -1.6432 -1.2078  0.2081
 9967TIP3    H251393   3.576   3.103   2.645  0.0565  1.5626 -0.2221
 9968TIP3   OH251394   2.846   0.394   1.690 -0.0456  0.3016  1.1089
 9968TIP3    H151395   2.832   0.394   1.595  1.4860 -0.1748  0.8616
 9968TIP3    H251396   2.757   0.400   1.727 -0.6898  0.1724 -0.3348
 9969TIP3   OH251397   2.736   1.085   3.411  0.3265  0.1849  0.2795
 9969TIP3    H151398   2.826   1.108   3.388  0.2111  1.0829  0.6700
 9969TIP3    H251399   2.735   0.990   3.413  1.4385  0.1713  0.9442
 9970TIP3   OH251400   4.248   1.649  12.698 -0.4512  0.0826  0.8521
 9970TIP3    H151401   4.182   1.695  12.646  1.6402  0.9007 -1.2897
 9970TIP3    H251402   4.266   1.570  12.646 -1.0565 -1.1106  2.3930
 9971TIP3   OH251403   4.340   5.673  14.327  0.0647 -0.9648  0.2476
 9971TIP3    H151404   4.343   5.595  14.383  0.1269 -1.6930 -0.7515
 9971TIP3    H251405   4.352   5.639  14.238  1.6152  0.3466 -0.0744
 9972TIP3   OH251406   2.349   6.792  15.043 -0.8007  0.4309 -0.8346
 9972TIP3    H151407   2.339   6.887  15.051 -1.8906  0.2474  0.2219
 9972TIP3    H251408   2.262   6.757  15.060 -0.5889 -0.7301 -2.0052
 9973TIP3   OH251409   1.606   6.913   0.155  0.4046 -0.2854 -0.5464
 9973TIP3    H151410   1.662   6.851   0.203  0.7866  0.6746  0.2947
 9973TIP3    H251411   1.521   6.908   0.200  0.4314 -0.2199 -0.4872
 9974TIP3   OH251412   0.173   4.378   0.667 -0.4355  0.1502  0.0140
 9974TIP3    H151413   0.155   4.291   0.632 -1.8064  0.2154  0.4795
 9974TIP3    H251414   0.170   4.436   0.591 -1.4155  0.0268 -0.0587
 9975TIP3   OH251415   2.407   3.173   4.495 -0.0600  0.8136 -0.5181
 9975TIP3    H151416   2.330   3.141   4.447  0.0432  0.0720 -0.2019
 9975TIP3    H251417   2.416   3.112   4.568 -0.6759  2.3621  0.9215
 9976TIP3   OH251418   6.923   3.784   1.322  0.2132  0.1498  0.0439
 9976TIP3    H151419   6.956   3.695   1.310  2.7701  0.7773  1.6047
 9976TIP3    H251420   6.954   3.809   1.409 -3.2258  1.4582  1.0600
 9977TIP3   OH251421   5.522   6.699   3.980  0.0901  0.5925 -0.2287
 9977TIP3    H151422   5.583   6.704   3.906 -0.3110  0.0727 -0.6053
 9977TIP3    H251423   5.436   6.714   3.941  0.0542  2.3806  0.4646
 9978TIP3   OH251424   5.478   2.253   0.888  0.3771 -0.4415 -0.3948
 9978TIP3    H151425   5.474   2.290   0.800  2.0808  2.8262  0.7007
 9978TIP3    H251426   5.480   2.330   0.945  0.6076 -2.4041  2.4289
 9979TIP3   OH251427   7.023   3.598  13.834 -0.2983  0.3659 -0.4617
 9979TIP3    H151428   6.979   3.575  13.916  1.5378 -3.5990 -0.3839
 9979TIP3    H251429   7.103   3.642  13.861 -0.7028  0.9966 -0.2680
 9980TIP3   OH251430   0.513   6.782  13.623  0.6584  0.0779 -0.4485
 9980TIP3    H151431   0.600   6.776  13.663  0.6719 -0.2438 -0.5248
 9980TIP3    H251432   0.521   6.851  13.558  0.4236  1.1954  0.6545
 9981TIP3   OH251433   1.124   4.205   0.891 -0.2327 -0.2196  0.6547
 9981TIP3    H151434   1.161   4.126   0.932  0.4594 -1.1714 -1.6100
 9981TIP3    H251435   1.175   4.277   0.927  2.3123 -1.2793 -0.5435
 9982TIP3   OH251436   4.558   4.316  14.444  0.3480  0.0417 -0.0930
 9982TIP3    H151437   4.579   4.278  14.358  0.3442  1.6955 -0.8678
 9982TIP3    H251438   4.486   4.262  14.477  1.1562 -1.3870 -0.5488
 9983TIP3   OH251439   6.689   4.454   2.197  0.0431 -0.4552 -0.0131
 9983TIP3    H151440   6.632   4.518   2.239  0.3294  0.2113 -0.6303
 9983TIP3    H251441   6.630   4.386   2.164 -0.3481  0.0085 -0.2652
 9984TIP3   OH251442   6.710   3.065   4.401  0.7280  0.4901 -0.1487
 9984TIP3    H151443   6.636   3.125   4.414  0.0749 -0.1917 -0.6171
 9984TIP3    H251444   6.732   3.076   4.308 -0.8126 -1.5240 -0.8306
 9985TIP3   OH251445   3.127   6.610  11.594 -0.0838  0.1115 -0.4282
 9985TIP3    H151446   3.221   6.623  11.597  0.0098 -0.5828 -0.3503
 9985TIP3    H251447   3.097   6.633  11.683  0.2241 -1.2814  0.0505
 9986TIP3   OH251448   1.709   2.563   0.332 -0.2960 -0.1709  0.0795
 9986TIP3    H151449   1.625   2.554   0.378 -0.0421  0.7706  0.7522
 9986TIP3    H251450   1.754   2.633   0.378 -0.0885  0.9369 -1.7324
 9987TIP3   OH251451   4.787   2.760  11.392 -0.0854 -0.4492  0.6809
 9987TIP3    H151452   4.812   2.852  11.382 -0.2112 -0.5348 -0.6511
 9987TIP3    H251453   4.778   2.747  11.486 -0.0451  0.9001  0.8877
 9988TIP3   OH251454   1.667   5.202  13.509 -0.2628  0.2484 -0.2706
 9988TIP3    H151455   1.672   5.285  13.557  0.9629  0.9057 -1.4824
 9988TIP3    H251456   1.681   5.135  13.576 -0.8304  1.0256  0.6514
 9989TIP3   OH251457   6.871   5.946   1.222 -0.1122 -0.2957  0.2034
 9989TIP3    H151458   6.907   5.976   1.306 -0.8513 -0.3658  0.5591
 9989TIP3    H251459   6.806   6.012   1.199 -1.2624 -1.2286  0.6488
 9990TIP3   OH251460   3.130   1.261   2.013 -0.2149 -0.4893  0.0661
 9990TIP3    H151461   3.158   1.345   2.048  0.5305 -1.1026  0.9905
 9990TIP3    H251462   3.101   1.211   2.089  0.8145 -1.6177 -0.2512
 9991TIP3   OH251463   2.832   6.433   0.593  0.6336 -0.1114 -0.2274
 9991TIP3    H151464   2.803   6.514   0.635  0.9312 -0.1780  0.1035
 9991TIP3    H251465   2.777   6.365   0.631  1.2946 -0.2548  0.4862
 9992TIP3   OH251466   3.563   3.831  11.506  0.5547 -0.3715 -0.5475
 9992TIP3    H151467   3.485   3.887  11.510 -0.0582 -1.2950  1.3887
 9992TIP3    H251468   3.532   3.752  11.460  0.6577 -0.2713 -0.7883
 9993TIP3   OH251469   4.775   4.528  10.679 -0.0089  0.3069  0.1874
 9993TIP3    H151470   4.705   4.534  10.743 -0.7917 -0.8347 -0.5359
 9993TIP3    H251471   4.731   4.507  10.597  1.2318 -1.1409 -0.1506
 9994TIP3   OH251472   6.422   5.349  14.643 -0.7070  0.1711 -0.3638
 9994TIP3    H151473   6.382   5.413  14.585 -0.0980  0.3621 -0.5722
 9994TIP3    H251474   6.461   5.284  14.584 -2.2353 -0.9876 -0.1664
 9995TIP3   OH251475   1.967   5.421  11.999 -0.0143  0.5246 -0.0859
 9995TIP3    H151476   1.909   5.346  12.003  1.2041 -0.5994 -2.2227
 9995TIP3    H251477   1.973   5.443  11.906  1.9028  1.4291  0.1974
 9996TIP3   OH251478   5.514   1.279  14.976  0.5202  1.3833  0.4312
 9996TIP3    H151479   5.508   1.207  14.913  0.6267  2.9603 -1.4789
 9996TIP3    H251480   5.606   1.282  15.001  0.6933  1.4553 -0.2168
 9997TIP3   OH251481   1.511   5.573  14.753  0.1943  0.2448 -0.7874
 9997TIP3    H151482   1.509   5.660  14.713 -1.8600  0.2502 -0.7568
 9997TIP3    H251483   1.504   5.590  14.847  2.7357  0.1263 -0.5075
 9998TIP3   OH251484   3.018   5.854   3.895 -0.3598  0.1751 -0.0444
 9998TIP3    H151485   3.073   5.925   3.926  1.2409 -0.0104 -2.1914
 9998TIP3    H251486   2.937   5.862   3.945  0.3830  2.5011  0.8998
 9999TIP3   OH251487   2.625   5.130   0.605  0.1189 -0.3761 -0.0618
 9999TIP3    H151488   2.580   5.061   0.556  0.9951 -0.7792 -0.3404
 9999TIP3    H251489   2.714   5.130   0.569  0.7434 -0.5526  1.3991
10000TIP3   OH251490   2.531   0.032  11.883 -0.0003  0.0632  0.1162
10000TIP3    H151491   2.593   0.102  11.904  1.1304 -0.4378 -1.3370
10000TIP3    H251492   2.584  -0.048  11.887 -0.9803 -0.5817  0.5358
10001TIP3   OH251493   2.867   3.805  13.359 -0.5757 -0.8238  0.1538
10001TIP3    H151494   2.832   3.889  13.330  0.5722  0.7599  2.9583
10001TIP3    H251495   2.790   3.749  13.368 -1.5677  0.4434 -0.1647
10002TIP3   OH251496   2.422   4.116  14.619 -0.6340 -0.0815 -0.2805
10002TIP3    H151497   2.450   4.198  14.659 -0.7286 -0.1724 -0.0297
10002TIP3    H251498   2.356   4.081  14.679 -2.1388  0.6962 -1.4106
10003TIP3   OH251499   0.118   3.236  10.788  0.1018 -0.0486 -0.0368
10003TIP3    H151500   0.027   3.263  10.799  0.7912  1.8992  1.5835
10003TIP3    H251501   0.158   3.307  10.737  1.1098  0.1739  0.9975
10004TIP3   OH251502   1.500   4.971   1.995  0.2002 -0.0642 -0.5542
10004TIP3    H151503   1.529   5.003   1.909 -0.8274  5.5835  0.7616
10004TIP3    H251504   1.572   4.994   2.054  0.0938 -2.1210  0.4523
10005TIP3   OH251505   2.449   4.098   4.582 -0.2153 -0.0797 -0.2567
10005TIP3    H151506   2.486   4.175   4.626  0.4767  0.4197 -1.6345
10005TIP3    H251507   2.359   4.122   4.562  0.1301  0.5910 -1.0955
10006TIP3   OH251508   2.132   0.523   0.111 -0.3846  0.1402  0.0289
10006TIP3    H151509   2.059   0.576   0.080  0.7224  0.8460 -1.4820
10006TIP3    H251510   2.110   0.434   0.083 -1.9452 -0.1824  2.0256
10007TIP3   OH251511   4.252   0.323  11.041  0.3704 -0.3668 -0.2223
10007TIP3    H151512   4.225   0.257  11.104  0.6897 -1.4666 -1.2020
10007TIP3    H251513   4.199   0.305  10.963  0.2199  0.7546 -0.3967
10008TIP3   OH251514   7.195   2.916  12.099 -0.3263 -0.1902  0.6041
10008TIP3    H151515   7.211   2.850  12.167  0.2113 -0.9027 -0.1959
10008TIP3    H251516   7.224   2.998  12.138 -0.4960 -0.5107  1.4233
10009TIP3   OH251517   2.386   1.555  15.045  0.3567 -0.2240 -0.1239
10009TIP3    H151518   2.435   1.494  15.101  1.2909  1.0042  0.4403
10009TIP3    H251519   2.428   1.640  15.060 -2.2823  1.0142  0.7615
10010TIP3   OH251520   6.875   3.434  12.855 -0.0357  0.6021 -0.2075
10010TIP3    H151521   6.887   3.486  12.775  0.4403 -1.7456 -1.7559
10010TIP3    H251522   6.798   3.381  12.837 -0.0055  0.1386  0.9806
10011TIP3   OH251523   2.145   5.620  12.624 -0.6972 -0.3193  0.3242
10011TIP3    H151524   2.064   5.609  12.672 -0.1721 -1.1511  1.0423
10011TIP3    H251525   2.181   5.532  12.615  1.8380  0.2411  3.0912
10012TIP3   OH251526   1.099   0.615  14.856  0.0320  0.3404 -0.2405
10012TIP3    H151527   1.157   0.559  14.908 -2.3875 -2.4399 -0.2678
10012TIP3    H251528   1.086   0.693  14.910  0.7357 -0.6856  1.4878
10013TIP3   OH251529   5.019   2.791   0.240 -0.1911  0.2054  0.3047
10013TIP3    H151530   5.027   2.811   0.333 -0.5705  0.4941  0.2797
10013TIP3    H251531   5.080   2.719   0.225  0.7414  0.9332  0.5245
10014TIP3   OH251532   2.877   3.634  12.126 -0.9791 -0.6417 -0.1330
10014TIP3    H151533   2.876   3.632  12.222  0.5519  3.3409  0.1403
10014TIP3    H251534   2.961   3.594  12.102 -1.2851 -1.4823  0.1351
10015TIP3   OH251535   4.962   0.639  11.482  0.0615  0.0867  0.2560
10015TIP3    H151536   5.036   0.644  11.542  0.1200  1.5052  0.0925
10015TIP3    H251537   4.887   0.615  11.537  0.0321  1.7745  1.0098
10016TIP3   OH251538   3.701   2.850  13.627 -0.2488  0.1406  0.4013
10016TIP3    H151539   3.732   2.904  13.700 -2.2424  0.5197  1.0394
10016TIP3    H251540   3.702   2.909  13.551 -0.9917  0.6578  0.7794
10017TIP3   OH251541   1.264   5.671   4.474 -0.0147 -0.0310 -0.0601
10017TIP3    H151542   1.299   5.624   4.398 -1.0313 -0.6025 -0.1846
10017TIP3    H251543   1.177   5.699   4.447 -1.4337 -2.4199  1.6966
10018TIP3   OH251544   3.612   0.511   4.678 -0.2230  0.4612 -0.2635
10018TIP3    H151545   3.658   0.466   4.748 -0.9411  0.8501  0.4779
10018TIP3    H251546   3.680   0.556   4.628  0.4373 -0.9350 -0.6495
10019TIP3   OH251547   3.852   5.182  10.154 -0.2701 -0.6294  0.4653
10019TIP3    H151548   3.851   5.146  10.243  0.7191  1.9917  1.6163
10019TIP3    H251549   3.922   5.247  10.154  0.4493 -1.2193 -2.5697
10020TIP3   OH251550   3.938   3.523   0.527  0.0393 -0.8738  0.1785
10020TIP3    H151551   3.963   3.458   0.460  0.8116 -0.7013  0.2873
10020TIP3    H251552   4.020   3.567   0.548 -0.7067  1.1656 -0.9630
10021TIP3   OH251553   3.488   4.759  10.273  0.2857 -0.1886  0.1033
10021TIP3    H151554   3.461   4.836  10.322  1.2347  0.2715 -0.0825
10021TIP3    H251555   3.407   4.727  10.233 -0.0681  0.9042 -0.0887
10022TIP3   OH251556   4.487   1.632  12.269 -0.5152 -0.4052  0.7018
10022TIP3    H151557   4.439   1.709  12.240  1.6437 -0.0856 -2.5605
10022TIP3    H251558   4.535   1.660  12.347 -1.6933  0.7478  1.0330
10023TIP3   OH251559   1.323   5.099  13.932 -0.1812  0.0249  0.1298
10023TIP3    H151560   1.330   5.090  14.027 -1.0421 -0.1446  0.1848
10023TIP3    H251561   1.393   5.160  13.909  0.2891 -0.2421  0.8178
10024TIP3   OH251562   0.672   0.734   4.631  0.5502  0.2526 -0.8962
10024TIP3    H151563   0.592   0.712   4.584  1.3387 -2.7278 -1.0153
10024TIP3    H251564   0.727   0.778   4.566  0.1778 -0.4093 -1.6710
10025TIP3   OH251565   5.410   4.924   2.730 -0.1274 -0.2649 -0.1176
10025TIP3    H151566   5.450   4.942   2.815  1.0769 -0.3655 -0.6290
10025TIP3    H251567   5.435   4.999   2.676  1.1591 -1.2977 -1.0230
10026TIP3   OH251568   6.381   3.992   4.544  0.3495  0.2376  0.0446
10026TIP3    H151569   6.397   4.072   4.593  1.3497  0.9760 -1.4334
10026TIP3    H251570   6.453   3.934   4.568 -1.2567 -0.9319  2.4063
10027TIP3   OH251571   3.029   7.114  12.821 -0.3168 -0.2728 -0.2162
10027TIP3    H151572   3.027   7.109  12.726 -1.1087  1.5269 -0.3210
10027TIP3    H251573   2.938   7.100  12.849 -0.1621 -0.3888  0.2493
10028TIP3   OH251574   7.059   3.937   0.608  0.1792  0.3248  0.3723
10028TIP3    H151575   7.082   4.014   0.555  1.5378 -0.8732 -0.8585
10028TIP3    H251576   7.143   3.893   0.623 -0.3763 -0.1905  2.2804
10029TIP3   OH251577   7.210   3.481   1.084 -0.3878  0.6813  0.2542
10029TIP3    H151578   7.213   3.548   1.152 -0.5883 -0.2333  1.1851
10029TIP3    H251579   7.289   3.428   1.099 -1.7084 -1.0819  1.4507
10030TIP3   OH251580   0.620   4.538   4.885  0.2875  0.5633  0.1634
10030TIP3    H151581   0.631   4.453   4.843  0.4705  0.3293  0.6744
10030TIP3    H251582   0.526   4.546   4.899  0.3468  0.0184  0.9618
10031TIP3   OH251583   2.129   0.574   2.884 -0.4930  0.3265  0.4716
10031TIP3    H151584   2.087   0.550   2.801  0.2821  0.1446  0.1250
10031TIP3    H251585   2.068   0.637   2.924 -1.8896 -1.1636  0.7726
10032TIP3   OH251586   5.194   2.408   0.226  0.1707 -0.6170 -0.2065
10032TIP3    H151587   5.153   2.475   0.171  1.8999 -0.4305 -1.3248
10032TIP3    H251588   5.206   2.333   0.168 -1.5610 -1.9036  0.9824
10033TIP3   OH251589   6.453   1.579   0.255  0.4442  0.3690  0.3014
10033TIP3    H151590   6.416   1.493   0.237  1.1475  0.4546 -1.8388
10033TIP3    H251591   6.417   1.636   0.187  1.3011  1.3795  0.6531
10034TIP3   OH251592   2.746   6.409   1.388  0.1026  0.3053  0.2240
10034TIP3    H151593   2.804   6.335   1.373  2.1175  2.0050 -0.9308
10034TIP3    H251594   2.666   6.387   1.340  1.3242 -0.3867 -1.5901
10035TIP3   OH251595   0.141   2.833   1.045 -0.3532  1.1208 -0.3518
10035TIP3    H151596   0.083   2.897   1.086  1.2045  0.9236  2.4135
10035TIP3    H251597   0.216   2.827   1.104  1.7978  0.2175 -2.9597
10036TIP3   OH251598   3.457   3.064   4.814 -0.2545  0.0689  0.6259
10036TIP3    H151599   3.441   2.982   4.768 -2.0109  0.4724  0.4637
10036TIP3    H251600   3.415   3.131   4.760 -2.0007  0.6059  2.5405
10037TIP3   OH251601   1.110   1.907   0.042 -0.1885 -0.4803 -0.0170
10037TIP3    H151602   1.033   1.867   0.083  0.4480 -1.3242  0.3878
10037TIP3    H251603   1.127   1.852  -0.034 -1.6547  1.3647 -1.7628
10038TIP3   OH251604   1.967   0.510  13.619 -0.0161 -0.1606  0.0160
10038TIP3    H151605   1.983   0.451  13.692  1.4728 -0.3467 -0.4338
10038TIP3    H251606   2.052   0.522  13.578 -0.6790  0.5637 -1.2270
10039TIP3   OH251607   4.903   0.968  14.238  0.8155  1.0371 -0.2400
10039TIP3    H151608   4.854   0.929  14.165  1.6343 -1.5940  0.5141
10039TIP3    H251609   4.994   0.948  14.219  1.1952  1.8631  0.6632
10040TIP3   OH251610   4.540   3.290  14.171 -0.2737 -0.2772  0.1793
10040TIP3    H151611   4.532   3.377  14.132 -1.1683 -0.3985  0.0549
10040TIP3    H251612   4.452   3.252  14.161 -0.4187 -0.4655  1.9626
10041TIP3   OH251613   1.248   4.673   0.193 -0.0669  0.6886  0.1158
10041TIP3    H151614   1.224   4.635   0.108  1.1461  1.0797 -0.4252
10041TIP3    H251615   1.251   4.767   0.178  0.1127  0.7651  0.6095
10042TIP3   OH251616   3.564   3.103  15.054 -0.3661  0.5203 -0.1261
10042TIP3    H151617   3.631   3.171  15.050 -0.3464  0.4464 -1.7551
10042TIP3    H251618   3.576   3.053  14.973 -1.4447 -0.3979  0.2573
10043TIP3   OH251619   2.752   6.634   0.821  0.6440  0.0354  0.2993
10043TIP3    H151620   2.682   6.693   0.794  0.7870 -0.2540 -0.7351
10043TIP3    H251621   2.833   6.685   0.808  0.8551 -0.7174 -1.6529
10044TIP3   OH251622   1.325   0.779   0.277 -0.1605  0.1021 -0.0591
10044TIP3    H151623   1.366   0.860   0.247  0.0776  0.4903  1.2349
10044TIP3    H251624   1.231   0.797   0.272 -0.1148  0.2771 -0.2765
10045TIP3   OH251625   1.316   1.127   2.144  0.4150  0.6331  0.1428
10045TIP3    H151626   1.284   1.075   2.070  1.1607 -0.9754  0.8982
10045TIP3    H251627   1.294   1.075   2.221  1.4723  1.2977  0.9174
10046TIP3   OH251628   0.995   2.434   0.142  0.0661 -0.0984 -0.5260
10046TIP3    H151629   0.993   2.339   0.129  0.3577  0.1273 -2.4123
10046TIP3    H251630   0.927   2.450   0.208 -1.6428 -1.3732 -1.8842
10047TIP3   OH251631   4.474   0.039   0.558 -0.2159 -0.3141 -0.1896
10047TIP3    H151632   4.551   0.024   0.503 -0.3331  0.3680 -0.5519
10047TIP3    H251633   4.411   0.083   0.501  0.1014  1.5169  0.7643
10048TIP3   OH251634   2.585   7.180   2.879 -0.0607 -0.3252  0.1189
10048TIP3    H151635   2.490   7.184   2.868 -0.2110  0.9750  1.5854
10048TIP3    H251636   2.611   7.268   2.905  1.8868 -0.0630 -2.3168
10049TIP3   OH251637   2.403   5.200   1.075  0.2868 -0.3666 -0.0575
10049TIP3    H151638   2.415   5.279   1.128  0.3467 -0.2649 -0.2224
10049TIP3    H251639   2.475   5.203   1.013 -0.1303 -0.1740 -0.5370
10050TIP3   OH251640   2.623   6.403  14.792 -0.5359 -0.1118  0.6041
10050TIP3    H151641   2.675   6.356  14.726 -0.1545  0.4312  0.5104
10050TIP3    H251642   2.636   6.495  14.771 -0.9158  0.0475  1.0642
10051TIP3   OH251643   5.630   2.638   4.861  0.1393  0.1591  0.3410
10051TIP3    H151644   5.607   2.710   4.802  2.7784  0.5500 -0.3473
10051TIP3    H251645   5.651   2.681   4.944  1.1130  0.1581  0.1108
10052TIP3   OH251646   3.203   1.129   2.639 -0.3589 -0.3967  0.0347
10052TIP3    H151647   3.266   1.101   2.574  1.9774  2.9091  0.6237
10052TIP3    H251648   3.210   1.064   2.709  3.6060  0.5095  0.7148
10053TIP3   OH251649   6.674   1.330  14.615 -0.1570 -0.2852 -0.2448
10053TIP3    H151650   6.750   1.296  14.568  1.7992 -0.2248  2.6216
10053TIP3    H251651   6.710   1.388  14.682 -2.7281 -0.1422  1.1729
10054TIP3   OH251652   1.928   1.670  13.681 -0.0661  0.0369 -0.2709
10054TIP3    H151653   1.920   1.733  13.752  1.3525  1.3391 -1.2137
10054TIP3    H251654   1.851   1.613  13.691 -0.7661  1.1830  1.3010
10055TIP3   OH251655   3.851   5.763  10.402 -0.0321 -0.1438 -0.1958
10055TIP3    H151656   3.843   5.849  10.360 -0.8499  0.9378  1.9973
10055TIP3    H251657   3.777   5.713  10.368  0.7970 -0.2304 -1.9511
10056TIP3   OH251658   6.912   4.730   0.932 -0.1983 -0.1338 -0.2934
10056TIP3    H151659   6.868   4.777   0.861 -0.3669  1.7837  0.9969
10056TIP3    H251660   6.874   4.766   1.012  1.7427 -0.4038  0.8253
10057TIP3   OH251661   4.151   0.430   0.080 -1.0200  0.0250  0.7229
10057TIP3    H151662   4.205   0.491   0.130  0.3547 -0.7074  0.1893
10057TIP3    H251663   4.125   0.364   0.143  1.2176 -1.2347  0.4443
10058TIP3   OH251664   0.596   7.096   5.431 -0.5053  0.4944  0.3226
10058TIP3    H151665   0.661   7.118   5.364 -0.5381  0.6431  0.3384
10058TIP3    H251666   0.630   7.135   5.511 -0.7057  0.7289  0.2923
10059TIP3   OH251667   1.392   6.825   9.371 -0.1651 -0.1714  0.7323
10059TIP3    H151668   1.387   6.736   9.338 -0.2124 -0.7710  2.2543
10059TIP3    H251669   1.313   6.835   9.424 -0.4407  0.9800  0.1372
10060TIP3   OH251670   2.860   3.697   4.810  0.2552  0.0369 -0.1237
10060TIP3    H151671   2.832   3.674   4.722  0.2247  0.4453 -0.2220
10060TIP3    H251672   2.816   3.634   4.867 -0.1585  0.1198 -0.3547
10061TIP3   OH251673   4.143   4.968   1.620 -0.7109  0.4533  0.1725
10061TIP3    H151674   4.059   4.937   1.586 -0.5648 -0.8656  0.9534
10061TIP3    H251675   4.125   5.056   1.652 -1.3867  0.8377 -1.2064
10062TIP3   OH251676   0.287   1.015  11.933  0.0686 -0.0241  0.2414
10062TIP3    H151677   0.240   1.090  11.897 -1.7579 -0.3883  1.7298
10062TIP3    H251678   0.349   0.990  11.864 -1.5275  0.8465 -1.6020
10063TIP3   OH251679   5.878   1.914  13.232 -0.5180  0.5846  0.0090
10063TIP3    H151680   5.972   1.898  13.227 -0.9356 -2.4451  0.1028
10063TIP3    H251681   5.846   1.899  13.143 -0.8443  2.6840 -0.2812
10064TIP3   OH251682   1.927   5.765   0.821  0.4394 -0.0029  0.6351
10064TIP3    H151683   2.002   5.706   0.812  2.2816  2.3177 -0.1968
10064TIP3    H251684   1.911   5.796   0.731 -0.1977  1.0689  1.1062
10065TIP3   OH251685   3.962   1.569   3.483  0.1962 -1.1095  0.5474
10065TIP3    H151686   3.945   1.621   3.404  0.3512 -1.6849  0.1270
10065TIP3    H251687   4.050   1.532   3.469  0.8831  0.0084  1.6748
10066TIP3   OH251688   6.241   7.038   4.192 -0.1527  0.8141  0.2378
10066TIP3    H151689   6.153   7.076   4.189 -0.8162 -0.4783  1.7377
10066TIP3    H251690   6.228   6.945   4.173  1.1456  0.8992 -1.2071
10067TIP3   OH251691   4.226   2.389  11.626  0.0591 -0.8282  0.6963
10067TIP3    H151692   4.243   2.482  11.612  0.2223 -0.5641  2.4122
10067TIP3    H251693   4.243   2.376  11.719  2.4397 -3.1053  0.0560
10068TIP3   OH251694   7.093   0.307  15.374  0.1672  0.2956 -0.2119
10068TIP3    H151695   7.043   0.233  15.340  0.0666  0.6776 -0.9099
10068TIP3    H251696   7.057   0.322  15.462 -0.6736  0.3063 -0.5513
10069TIP3   OH251697   2.762   3.273  11.079  0.5811  0.4996  0.4409
10069TIP3    H151698   2.700   3.274  11.152 -1.3391 -2.4639 -0.9750
10069TIP3    H251699   2.826   3.207  11.104  2.4292  2.4367  1.1752
10070TIP3   OH251700   2.779   6.822  14.521 -0.1035 -0.2409  0.0148
10070TIP3    H151701   2.824   6.756  14.468  1.8939  0.1562  1.1001
10070TIP3    H251702   2.751   6.889  14.459  0.2653 -0.8110 -0.7814
10071TIP3   OH251703   2.232   4.226   5.299  0.1562  0.2196  0.2519
10071TIP3    H151704   2.284   4.248   5.376  0.0167 -0.6557  0.6034
10071TIP3    H251705   2.171   4.159   5.329 -1.3836  1.4004 -0.0703
10072TIP3   OH251706   1.001   3.892   4.345  0.0227 -0.3656  0.2702
10072TIP3    H151707   0.933   3.907   4.279 -0.3185 -1.8505  0.2500
10072TIP3    H251708   1.070   3.845   4.298  0.4055 -0.2019  0.6564
10073TIP3   OH251709   5.548   4.347  11.540  0.0103  0.2031  0.3403
10073TIP3    H151710   5.554   4.303  11.455 -1.6848  1.6069 -0.5520
10073TIP3    H251711   5.543   4.275  11.603  0.2043 -0.8691 -0.8084
10074TIP3   OH251712   0.285   4.310   4.531  0.1709  0.1171  0.2327
10074TIP3    H151713   0.323   4.396   4.510 -3.1651  1.9967  1.0713
10074TIP3    H251714   0.354   4.264   4.579  2.3042  2.0655 -0.7805
10075TIP3   OH251715   4.423   0.633   1.352 -0.3221 -0.4241 -0.2309
10075TIP3    H151716   4.450   0.633   1.260 -0.1150  1.4883 -0.2064
10075TIP3    H251717   4.501   0.663   1.399 -0.3266 -1.6992  0.6297
10076TIP3   OH251718   6.814   4.366   4.451 -0.6506 -0.1706  0.7162
10076TIP3    H151719   6.757   4.400   4.520 -1.9012  0.5308 -0.5912
10076TIP3    H251720   6.754   4.321   4.391  0.2195  0.2488 -0.4986
10077TIP3   OH251721   4.947   3.565  10.444 -0.2725 -0.5757 -0.0509
10077TIP3    H151722   5.009   3.521  10.386  0.2475 -1.0420  0.8289
10077TIP3    H251723   4.874   3.591  10.388  1.2545  1.1136 -1.3807
10078TIP3   OH251724   5.738   1.191   3.478 -0.2735  0.0995 -0.3468
10078TIP3    H151725   5.814   1.249   3.486  0.3081 -0.7732  0.9271
10078TIP3    H251726   5.666   1.240   3.517 -0.0659  0.4400 -0.3909
10079TIP3   OH251727   4.031   0.731   4.929  0.1749 -0.4315 -0.0470
10079TIP3    H151728   4.087   0.673   4.981  1.1624 -0.0971 -0.6984
10079TIP3    H251729   4.004   0.800   4.990  2.0583  0.4623 -0.1505
10080TIP3   OH251730   0.263   3.480   2.961  0.3092  0.7035  0.3783
10080TIP3    H151731   0.300   3.416   2.901  0.8347  0.5716  0.8327
10080TIP3    H251732   0.178   3.502   2.923 -0.6675 -1.5355  1.0625
10081TIP3   OH251733   5.188   0.538   1.717 -1.0060 -0.0467  0.4505
10081TIP3    H151734   5.140   0.582   1.646  0.5802  0.3657 -0.4059
10081TIP3    H251735   5.202   0.607   1.782 -0.0977  0.2721 -0.0741
10082TIP3   OH251736   5.163   1.311   9.697  0.3774  0.0110 -0.2972
10082TIP3    H151737   5.138   1.394   9.657 -0.2782 -0.2882 -0.5166
10082TIP3    H251738   5.253   1.296   9.668  0.3490  0.4307 -0.6070
10083TIP3   OH251739   7.154   2.757   9.982  0.3165 -0.2572 -0.2443
10083TIP3    H151740   7.118   2.831   9.935 -0.7149  0.1086  1.0671
10083TIP3    H251741   7.242   2.785  10.008  0.3442  0.0789 -0.6958
10084TIP3   OH251742   6.306   4.511  10.326 -0.8240 -0.8731  0.3288
10084TIP3    H151743   6.322   4.417  10.338 -2.6423 -1.2035  0.4629
10084TIP3    H251744   6.278   4.518  10.234  0.3201 -0.2952  0.0146
10085TIP3   OH251745   0.996   3.388  13.003  0.3684 -0.4988  0.1250
10085TIP3    H151746   0.976   3.296  12.986  2.1983 -0.8787 -0.2267
10085TIP3    H251747   0.911   3.429  13.017 -0.4355 -2.4129  1.2222
10086TIP3   OH251748   3.889   0.013  11.015  0.5086  0.2376 -0.8624
10086TIP3    H151749   3.871   0.086  10.955 -0.1094  0.1912 -0.7368
10086TIP3    H251750   3.844   0.037  11.096  1.7017  0.5114 -0.2518
10087TIP3   OH251751   3.595   1.632   3.847 -0.0077 -0.2524 -0.1128
10087TIP3    H151752   3.523   1.669   3.897 -0.5765 -1.1668 -0.2329
10087TIP3    H251753   3.560   1.623   3.758  0.9181  1.1580 -0.6593
10088TIP3   OH251754   6.759   0.032  12.668  0.0313 -0.1898  0.6008
10088TIP3    H151755   6.832   0.051  12.611 -1.0529 -0.9780 -1.1290
10088TIP3    H251756   6.792  -0.032  12.730  1.2002  0.6077  0.8268
10089TIP3   OH251757   1.210   6.895  14.837  0.2191  0.0016  0.0716
10089TIP3    H151758   1.136   6.851  14.794 -0.0019 -1.0888  1.4782
10089TIP3    H251759   1.274   6.909  14.767 -1.0243  0.3623 -1.0433
10090TIP3   OH251760   5.897   1.086  10.478  0.3678 -1.5041  0.8973
10090TIP3    H151761   5.869   1.006  10.433  3.0382  0.0648 -4.4809
10090TIP3    H251762   5.992   1.088  10.466  0.4569  2.2140  1.0997
10091TIP3   OH251763   4.604   2.410   1.163 -0.5049  0.2365  0.7615
10091TIP3    H151764   4.606   2.379   1.253 -0.4847  0.4195  0.8237
10091TIP3    H251765   4.640   2.499   1.167 -0.4914  0.2398  0.5723
10092TIP3   OH251766   2.341   7.002  14.016  0.4024 -0.0849  0.3758
10092TIP3    H151767   2.418   7.006  13.959  0.2932  1.2601  0.2909
10092TIP3    H251768   2.275   7.054  13.969 -0.2919 -0.5384  0.8436
10093TIP3   OH251769   2.474   2.715   0.182  0.2077  0.1945 -0.0436
10093TIP3    H151770   2.561   2.676   0.195  0.7093  1.1442 -0.4257
10093TIP3    H251771   2.417   2.641   0.161  1.1929 -0.3068 -1.0924
10094TIP3   OH251772   4.041   5.469   4.406 -0.7816  0.1484  0.4004
10094TIP3    H151773   4.040   5.527   4.482  1.9213  1.1386 -0.2156
10094TIP3    H251774   4.036   5.381   4.443  0.7445  0.5981  1.7860
10095TIP3   OH251775   1.493   5.223   2.488  0.3255  0.3095 -0.0151
10095TIP3    H151776   1.520   5.156   2.426 -2.2996  1.2818 -2.4156
10095TIP3    H251777   1.550   5.298   2.471  0.3030  0.2066 -0.5482
10096TIP3   OH251778   5.317   2.055  13.543 -0.1254 -0.0555 -0.5561
10096TIP3    H151779   5.289   1.977  13.591  1.6706 -2.0457 -2.5475
10096TIP3    H251780   5.237   2.086  13.500 -0.5997 -1.7294 -0.9457
10097TIP3   OH251781   1.411   6.422   0.420  0.2751  0.4547 -0.1964
10097TIP3    H151782   1.439   6.498   0.368  1.0591 -0.1408 -0.6669
10097TIP3    H251783   1.316   6.429   0.423  0.3459  1.6146  0.0180
10098TIP3   OH251784   0.082   1.423  13.770 -1.1003  0.1525  0.0727
10098TIP3    H151785   0.041   1.509  13.772 -1.0171  0.1842  0.4773
10098TIP3    H251786   0.013   1.363  13.797 -1.0726  0.1266  0.0867
10099TIP3   OH251787   0.603   6.105  13.955 -0.0090  0.5796 -0.0494
10099TIP3    H151788   0.527   6.082  14.009 -1.8976  0.6418 -2.4704
10099TIP3    H251789   0.640   6.022  13.927  1.1915  0.5427  1.5297
10100TIP3   OH251790   2.100   3.111   2.063 -0.0696 -0.1160 -0.0825
10100TIP3    H151791   2.056   3.189   2.029  1.4212  0.2422 -1.3275
10100TIP3    H251792   2.062   3.098   2.150  0.1239  2.4176  0.4578
10101TIP3   OH251793   6.614   1.023  14.303  0.4131  0.2875  0.1349
10101TIP3    H151794   6.668   1.102  14.293  0.9410  0.1419  1.5680
10101TIP3    H251795   6.556   1.043  14.375 -0.8414  0.0752 -0.7838
10102TIP3   OH251796   4.037   2.405   1.901  0.3307  0.5239  0.0520
10102TIP3    H151797   3.982   2.406   1.823 -1.7290 -0.0285  1.4131
10102TIP3    H251798   3.988   2.457   1.965  1.5061  0.1993  1.2604
10103TIP3   OH251799   6.904   0.004   2.138 -0.8355  0.0362 -0.0798
10103TIP3    H151800   6.973   0.067   2.158 -1.2184  0.0690  1.3035
10103TIP3    H251801   6.847   0.007   2.215 -1.5726 -1.0527 -0.5597
10104TIP3   OH251802   4.648   1.101   4.462  0.1753 -0.4174  0.3040
10104TIP3    H151803   4.599   1.036   4.411 -0.3946 -1.3232  1.9330
10104TIP3    H251804   4.630   1.184   4.418 -1.4190 -0.9690 -0.1663
10105TIP3   OH251805   1.143   3.133  10.877  0.3854  0.0128  0.4706
10105TIP3    H151806   1.137   3.210  10.933  0.3289 -0.0505  0.5512
10105TIP3    H251807   1.227   3.093  10.899  0.5934  0.2719  0.1479
10106TIP3   OH251808   5.616   2.330  15.389  0.4554 -0.5121  0.3890
10106TIP3    H151809   5.562   2.405  15.365 -1.4234 -1.2544  1.9231
10106TIP3    H251810   5.665   2.309  15.310 -1.6273  0.1746 -1.1972
10107TIP3   OH251811   6.602   5.600   5.078 -0.3306 -0.2978 -0.3438
10107TIP3    H151812   6.672   5.652   5.038 -0.4622 -1.1429 -1.7627
10107TIP3    H251813   6.531   5.663   5.094  0.2510  0.3166 -0.1438
10108TIP3   OH251814   3.630   0.734  13.953  0.2071  0.1817  1.0113
10108TIP3    H151815   3.541   0.717  13.923  1.1331 -0.2839 -1.7241
10108TIP3    H251816   3.662   0.804  13.897  1.6789  0.0957  1.6945
10109TIP3   OH251817   4.073   3.384  15.001  0.1355 -0.0720  0.0699
10109TIP3    H151818   4.100   3.300  15.037 -0.9968 -0.1618  0.7287
10109TIP3    H251819   4.025   3.362  14.921 -1.7916 -0.2057  1.2071
10110TIP3   OH251820   5.416   1.188   1.995 -0.1370 -0.6914 -0.3142
10110TIP3    H151821   5.454   1.162   2.079  0.1922 -1.2265 -0.6245
10110TIP3    H251822   5.333   1.228   2.018 -2.0305 -4.4152  0.0909
10111TIP3   OH251823   7.211   6.837  11.864 -0.2362 -0.0918 -0.0480
10111TIP3    H151824   7.248   6.764  11.913 -0.1910 -0.4081 -0.5415
10111TIP3    H251825   7.268   6.846  11.787 -2.3379 -1.9915 -1.9835
10112TIP3   OH251826   3.826   7.067   2.180  0.4649 -0.2593  0.6732
10112TIP3    H151827   3.770   7.055   2.104  0.3750 -1.0169  0.8579
10112TIP3    H251828   3.770   7.047   2.255  0.4657  0.7615  0.9733
10113TIP3   OH251829   6.711   1.374   4.453  0.1439  0.0287  0.4155
10113TIP3    H151830   6.655   1.325   4.394 -0.5755  1.7311 -0.3897
10113TIP3    H251831   6.680   1.465   4.447  1.2546  0.5759  1.9997
10114TIP3   OH251832   5.220   3.575   4.001  0.2868  0.0456 -0.1188
10114TIP3    H151833   5.192   3.602   3.914  0.9527 -0.9332 -0.6466
10114TIP3    H251834   5.154   3.612   4.060 -0.5507  0.1311 -1.0943
10115TIP3   OH251835   4.965   1.407   1.335 -0.1001 -0.0368 -0.0362
10115TIP3    H151836   5.050   1.429   1.296 -0.1193  1.4973  0.6914
10115TIP3    H251837   4.911   1.485   1.319 -1.2908 -0.8819 -0.2532
10116TIP3   OH251838   6.946   4.713  12.551 -0.4852  0.2802  0.7358
10116TIP3    H151839   7.025   4.659  12.556 -1.5458 -1.6000 -1.2274
10116TIP3    H251840   6.935   4.732  12.458 -2.9407 -0.5103  0.7928
10117TIP3   OH251841   4.523   2.714   0.479  0.0860 -0.3320  0.4689
10117TIP3    H151842   4.586   2.735   0.411  0.3695  1.5088  1.2302
10117TIP3    H251843   4.572   2.662   0.542 -0.5565 -3.3251 -1.3408
10118TIP3   OH251844   1.719   4.439   9.090  0.2798 -0.7089 -0.6397
10118TIP3    H151845   1.638   4.448   9.040 -0.4383 -1.9215  0.2339
10118TIP3    H251846   1.733   4.526   9.129  0.4794  0.0512 -2.3349
10119TIP3   OH251847   4.328   3.057  11.638 -0.0159 -0.0624  0.1696
10119TIP3    H151848   4.328   3.075  11.732 -2.7833  3.2363 -0.2382
10119TIP3    H251849   4.236   3.045  11.616  0.5714 -0.8586 -2.1375
10120TIP3   OH251850   4.137   2.029  15.060  0.0252 -0.2203 -0.1381
10120TIP3    H151851   4.063   1.979  15.095 -0.5641  0.6504 -0.1091
10120TIP3    H251852   4.165   2.085  15.133  0.0478  0.1937 -0.4605
10121TIP3   OH251853   5.712   4.575   3.118  0.0855  0.7683  0.5492
10121TIP3    H151854   5.730   4.500   3.175  0.4519  0.2411 -0.2381
10121TIP3    H251855   5.624   4.604   3.144  0.5772  1.0770  1.9426
10122TIP3   OH251856   6.685   1.473  15.246 -0.0439  0.0496  0.2860
10122TIP3    H151857   6.752   1.415  15.209  0.6023  0.8303  0.2009
10122TIP3    H251858   6.725   1.507  15.327 -1.0690 -0.8976  1.2131
10123TIP3   OH251859   4.590   5.286  10.902  0.0084 -0.3220  0.2607
10123TIP3    H151860   4.631   5.287  10.816  0.3919  1.2261  0.4180
10123TIP3    H251861   4.533   5.210  10.901  0.3166 -0.5672 -1.2094
10124TIP3   OH251862   5.923   0.323  14.571 -0.0303 -0.4164  0.1697
10124TIP3    H151863   5.907   0.233  14.541 -0.5852 -1.0132  2.1582
10124TIP3    H251864   5.957   0.313  14.659 -1.7398  1.3844  1.0984
10125TIP3   OH251865   1.132   7.121  13.916 -0.0016  0.1818  0.2505
10125TIP3    H151866   1.057   7.136  13.858 -0.4591  0.3419  0.8720
10125TIP3    H251867   1.205   7.166  13.872 -0.6617  1.5728  0.5096
10126TIP3   OH251868   7.176   5.574   2.374 -0.5234  0.7903 -0.3790
10126TIP3    H151869   7.116   5.554   2.302  2.3720  0.1834 -2.7852
10126TIP3    H251870   7.204   5.489   2.407  0.5370  1.0083 -0.6731
10127TIP3   OH251871   5.492   4.726   2.120  0.1433 -0.4205  0.3141
10127TIP3    H151872   5.418   4.767   2.075  0.3318  2.0207  2.0104
10127TIP3    H251873   5.453   4.668   2.185 -0.3706  1.1334  1.4498
10128TIP3   OH251874   0.666   6.410  11.666 -0.2162 -0.4250  0.8036
10128TIP3    H151875   0.749   6.369  11.690  0.3725  0.8454  1.0360
10128TIP3    H251876   0.688   6.502  11.653 -0.9419 -0.6001 -2.4188
10129TIP3   OH251877   6.936   7.026  10.239 -0.2418 -0.2246 -0.1189
10129TIP3    H151878   6.978   7.093  10.184  1.0357 -1.7245 -1.0563
10129TIP3    H251879   6.933   7.066  10.326  3.3430 -0.0064  0.0648
10130TIP3   OH251880   2.883   1.118   0.256  0.5228  0.4811 -0.0861
10130TIP3    H151881   2.905   1.097   0.346 -0.8754 -0.2139  0.1223
10130TIP3    H251882   2.834   1.200   0.261 -0.2327  0.0390 -0.1176
10131TIP3   OH251883   3.615   2.029  14.962 -0.0549  0.3632 -0.0491
10131TIP3    H151884   3.653   2.024  15.050  1.9063 -2.7562 -0.9315
10131TIP3    H251885   3.654   2.107  14.923 -1.5087  2.2396  1.9523
10132TIP3   OH251886   6.018   1.867   1.432  1.0480 -0.2298  0.0646
10132TIP3    H151887   5.938   1.829   1.397  1.8684  0.7196 -3.2777
10132TIP3    H251888   5.989   1.941   1.485 -0.3111 -2.0363  2.0008
10133TIP3   OH251889   0.180   6.954   1.567  0.0138 -0.3526 -0.5313
10133TIP3    H151890   0.229   6.888   1.519  1.0856 -0.3166  0.4812
10133TIP3    H251891   0.122   6.904   1.624 -1.4030 -0.3969 -1.9378
10134TIP3   OH251892   6.234   5.295  10.821  0.1578 -0.1537  0.0386
10134TIP3    H151893   6.319   5.336  10.840 -0.7571  0.8975  2.2184
10134TIP3    H251894   6.194   5.353  10.756 -0.5507  1.7745  2.0833
10135TIP3   OH251895   0.468   6.050  10.719  0.8274  0.3867 -0.6275
10135TIP3    H151896   0.459   6.002  10.637 -2.2425  0.2635 -0.3181
10135TIP3    H251897   0.536   6.115  10.701  2.0836 -1.2981 -2.3734
10136TIP3   OH251898   1.908   4.565   3.070 -0.5842 -0.6448 -0.0858
10136TIP3    H151899   1.960   4.531   2.997  1.9233  2.4879  0.0287
10136TIP3    H251900   1.830   4.603   3.028 -0.3752 -1.0326 -0.8370
10137TIP3   OH251901   3.856   6.341   0.246  0.4255 -0.6204 -0.2906
10137TIP3    H151902   3.921   6.410   0.230  1.5400 -1.4839  0.4205
10137TIP3    H251903   3.900   6.260   0.220 -0.7514 -1.1223 -0.8005
10138TIP3   OH251904   0.863   5.717   3.024  0.1153 -0.2658  0.4827
10138TIP3    H151905   0.770   5.722   3.000 -0.0875 -1.0260  1.0875
10138TIP3    H251906   0.907   5.770   2.957 -0.7930  0.4654  0.4382
10139TIP3   OH251907   6.097   3.611  12.758 -0.2732  0.3545  0.0587
10139TIP3    H151908   6.148   3.686  12.787  0.2913 -0.6851  1.9600
10139TIP3    H251909   6.009   3.645  12.743 -0.2388  1.2692  1.7244
10140TIP3   OH251910   3.101   6.230   0.484 -0.3037  0.0842 -0.2364
10140TIP3    H151911   3.164   6.266   0.421 -0.1011  1.4485  0.7053
10140TIP3    H251912   3.016   6.258   0.450 -0.2998 -0.4018 -0.6567
10141TIP3   OH251913   4.699   0.925  12.244 -0.8304  0.6036 -0.2586
10141TIP3    H151914   4.736   0.912  12.331  0.6452  1.0500 -0.8033
10141TIP3    H251915   4.716   0.842  12.198 -1.3478  0.4735 -0.2249
10142TIP3   OH251916   4.028   0.708   1.167 -0.0336  0.6900 -0.6948
10142TIP3    H151917   4.041   0.633   1.226  0.1483  2.4820  1.7018
10142TIP3    H251918   4.116   0.737   1.145 -0.0527  1.4826  0.1942
10143TIP3   OH251919   2.709   6.023  13.351  0.2155  0.0627  0.0626
10143TIP3    H151920   2.793   6.062  13.326 -0.0079  1.1075  0.8356
10143TIP3    H251921   2.717   5.931  13.329  1.4985  0.1884 -0.0530
10144TIP3   OH251922   0.008   5.024  10.173  0.2947  0.5850  0.4773
10144TIP3    H151923   0.030   5.088  10.105  0.0790  0.4715  0.3011
10144TIP3    H251924   0.005   4.940  10.127 -2.7674  0.8487 -0.0079
10145TIP3   OH251925   3.089   1.515   0.231  0.0875  0.0818  0.3330
10145TIP3    H151926   3.112   1.550   0.317  0.4825  0.5693  0.0367
10145TIP3    H251927   2.994   1.514   0.229  0.0764 -0.5610  1.0273
10146TIP3   OH251928   1.483   0.209  13.744  0.3624  0.1755  0.1233
10146TIP3    H151929   1.520   0.292  13.713 -0.0560  0.8215  1.3059
10146TIP3    H251930   1.436   0.174  13.668 -0.5731  1.6844 -0.0354
10147TIP3   OH251931   2.881   3.585   1.440  0.3261 -1.0521 -0.3693
10147TIP3    H151932   2.798   3.549   1.409  1.5661 -2.8822 -1.7939
10147TIP3    H251933   2.882   3.567   1.534 -1.4081  0.1847 -0.0752
10148TIP3   OH251934   4.357   5.065  14.642  0.4662  0.0627 -0.2837
10148TIP3    H151935   4.427   5.120  14.677 -0.9324  2.7655 -1.3961
10148TIP3    H251936   4.288   5.127  14.617 -0.8883 -2.1452 -2.5244
10149TIP3   OH251937   2.607   6.569  14.567  0.2776 -0.2505  0.3977
10149TIP3    H151938   2.669   6.599  14.500 -0.6282 -0.2210 -0.4364
10149TIP3    H251939   2.545   6.641  14.577 -1.7740 -1.6331 -1.4406
10150TIP3   OH251940   2.240   5.759  11.251  0.0962 -0.0874  0.3502
10150TIP3    H151941   2.300   5.765  11.176 -0.0148  0.3846  0.2982
10150TIP3    H251942   2.298   5.746  11.326  0.1233 -4.1498 -0.1405
10151TIP3   OH251943   3.438   6.896  11.447  0.3618  0.4246  0.0641
10151TIP3    H151944   3.407   6.805  11.453 -0.1235  0.5473 -0.4900
10151TIP3    H251945   3.480   6.901  11.362 -1.5759  1.2971 -0.8853
10152TIP3   OH251946   0.386   1.409  13.687  0.7878  0.0160 -0.2176
10152TIP3    H151947   0.315   1.371  13.739  1.3913 -0.9572 -0.0893
10152TIP3    H251948   0.352   1.495  13.660 -0.0167  0.0102  0.7257
10153TIP3   OH251949   3.509   5.976  13.902 -0.1592  0.1271 -0.3053
10153TIP3    H151950   3.595   5.981  13.861 -0.3624 -0.6360 -0.8341
10153TIP3    H251951   3.522   5.918  13.977  0.0656  1.0276  0.3879
10154TIP3   OH251952   0.805   2.357  14.323  0.2446  0.2307  0.0122
10154TIP3    H151953   0.734   2.299  14.353  0.2382  0.5963  0.7185
10154TIP3    H251954   0.876   2.297  14.300  0.7817 -0.0276  2.1552
10155TIP3   OH251955   2.795   4.656  14.446  0.2713 -0.6435  0.5101
10155TIP3    H151956   2.774   4.740  14.405 -0.2449  0.0419  2.1191
10155TIP3    H251957   2.731   4.595  14.410  0.1820 -0.1952 -0.1147
10156TIP3   OH251958   3.489   6.466   1.964 -0.3598 -0.2195  0.2185
10156TIP3    H151959   3.536   6.391   2.000  2.4559  0.7679 -1.0523
10156TIP3    H251960   3.458   6.514   2.041 -0.9024 -1.8601  1.0699
10157TIP3   OH251961   4.136   7.203   5.146  0.1562 -0.4185 -0.0889
10157TIP3    H151962   4.062   7.144   5.132  0.2797 -0.6064  0.0410
10157TIP3    H251963   4.102   7.271   5.204  0.7453 -1.8789  2.1031
10158TIP3   OH251964   4.662   5.881   2.583  0.4399 -0.3412 -0.3017
10158TIP3    H151965   4.664   5.803   2.639  1.5882 -1.8401 -2.2955
10158TIP3    H251966   4.618   5.947   2.636  1.7758 -1.5181  2.5033
10159TIP3   OH251967   4.454   1.448  12.820 -0.0163  0.4291  0.2430
10159TIP3    H151968   4.466   1.542  12.833 -2.4869  0.5441  2.6178
10159TIP3    H251969   4.441   1.438  12.726  0.2528  2.4495 -0.0490
10160TIP3   OH251970   1.082   2.078   4.894 -0.3154 -0.4522  0.2104
10160TIP3    H151971   1.112   2.077   4.803 -0.1868 -1.5429  0.2554
10160TIP3    H251972   1.111   2.163   4.928  1.2722 -0.7869 -0.2256
10161TIP3   OH251973   3.208   3.767   0.407 -0.0665 -0.2028 -0.4180
10161TIP3    H151974   3.159   3.796   0.484  1.1074 -0.9469  0.6411
10161TIP3    H251975   3.146   3.775   0.335 -1.6931 -0.9609  0.8467
10162TIP3   OH251976   3.177   2.214   0.733 -0.1773 -0.2722  0.3407
10162TIP3    H151977   3.210   2.127   0.755  0.3698 -0.0948  0.2365
10162TIP3    H251978   3.237   2.246   0.665 -0.8683 -0.1454 -0.2109
10163TIP3   OH251979   4.469   2.946   0.851 -0.4134  0.1058 -0.4273
10163TIP3    H151980   4.442   2.940   0.759 -0.6013  0.1528 -0.3754
10163TIP3    H251981   4.524   3.024   0.854 -0.4851  0.1588 -0.4809
10164TIP3   OH251982   5.916   4.097   2.040  0.4500 -0.1283  0.1620
10164TIP3    H151983   5.966   4.179   2.043  0.0499  0.0998  0.5716
10164TIP3    H251984   5.939   4.060   1.954 -0.7602  1.3068 -0.8444
10165TIP3   OH251985   2.935   3.332   0.587  0.3375  0.0453 -0.5067
10165TIP3    H151986   2.867   3.368   0.529 -0.4744 -1.1158 -0.3096
10165TIP3    H251987   2.930   3.387   0.666  1.8942  2.0554 -1.7217
10166TIP3   OH251988   2.958   3.121  10.451  0.3060  0.1094 -0.3453
10166TIP3    H151989   3.051   3.122  10.427  1.0546  1.1047  2.2316
10166TIP3    H251990   2.940   3.211  10.480 -1.6672  0.0919 -1.3703
10167TIP3   OH251991   1.832   3.972  11.746 -0.2349  0.3176  0.2379
10167TIP3    H151992   1.825   3.884  11.782  1.3492  0.5849  1.2767
10167TIP3    H251993   1.765   4.022  11.794  0.7339  0.2881  1.6895
10168TIP3   OH251994   1.192   4.192   0.311 -0.3678 -0.4248 -0.3850
10168TIP3    H151995   1.181   4.147   0.227 -0.7900  0.3897 -0.7761
10168TIP3    H251996   1.118   4.252   0.316  0.3541  0.4571 -0.0207
10169TIP3   OH251997   4.987   5.534  14.719  0.3453  0.1931 -0.6993
10169TIP3    H151998   5.052   5.501  14.658 -0.0255  0.0641 -1.0268
10169TIP3    H251999   5.006   5.489  14.801 -0.1376 -0.8282 -1.1322
10170TIP3   OH252000   1.772   5.773  14.156  0.0855  0.0500 -0.0464
10170TIP3    H152001   1.834   5.737  14.093 -0.0798 -2.1631  0.9232
10170TIP3    H252002   1.691   5.785  14.107  0.5063  0.2736 -0.6900
10171TIP3   OH252003   0.705   0.477  10.655  0.5360 -0.6257 -0.7175
10171TIP3    H152004   0.777   0.479  10.719 -0.2924  0.0170  0.2222
10171TIP3    H252005   0.642   0.415  10.691 -0.0082 -0.1410 -0.8244
10172TIP3   OH252006   0.295   2.392  11.135 -0.5639 -0.6695 -0.4162
10172TIP3    H152007   0.266   2.312  11.091 -1.0083 -0.5432 -0.3605
10172TIP3    H252008   0.312   2.453  11.063 -0.9833 -0.5659 -0.4339
10173TIP3   OH252009   1.477   4.290  10.858  0.6331  0.1804  0.0120
10173TIP3    H152010   1.467   4.249  10.944  0.5250 -1.0292 -0.5642
10173TIP3    H252011   1.404   4.351  10.852  0.9183  0.6425  0.9635
10174TIP3   OH252012   4.833   0.023   3.728 -0.4136 -0.4419  0.1237
10174TIP3    H152013   4.923   0.025   3.761 -0.1645 -0.0898 -0.5384
10174TIP3    H252014   4.783  -0.020   3.796  0.4262 -1.4669  0.1180
10175TIP3   OH252015   0.684   1.861   3.228 -0.1850  0.1048 -0.0744
10175TIP3    H152016   0.703   1.796   3.296  1.7205  1.4262  0.7619
10175TIP3    H252017   0.607   1.907   3.260 -0.9459 -1.0445 -0.1830
10176TIP3   OH252018   1.342   3.033  15.392  0.2270 -0.4649  0.2705
10176TIP3    H152019   1.360   2.946  15.355 -1.2206 -0.4816 -0.4639
10176TIP3    H252020   1.256   3.057  15.357 -0.2055  0.5035  1.8768
10177TIP3   OH252021   2.986   5.756  12.759 -0.1281  0.2838 -0.1699
10177TIP3    H152022   2.895   5.758  12.732 -0.9616 -0.4178  2.2813
10177TIP3    H252023   3.019   5.844  12.738 -1.7282  0.9601 -0.0058
10178TIP3   OH252024   4.566   7.105   0.001  0.2376  0.1984 -0.3557
10178TIP3    H152025   4.515   7.038   0.045  0.9749 -0.4139 -0.4162
10178TIP3    H252026   4.555   7.086  -0.093  1.5326 -0.6861 -0.3512
10179TIP3   OH252027   5.703   2.234   3.331 -0.1838  0.2142  0.1688
10179TIP3    H152028   5.793   2.263   3.348  0.2755 -0.4587 -0.9828
10179TIP3    H252029   5.662   2.229   3.417  0.6902  1.1402  0.6554
10180TIP3   OH252030   5.931   5.733   5.537  0.8179 -0.1323  0.4458
10180TIP3    H152031   5.883   5.699   5.613 -1.7597 -0.7195 -1.2890
10180TIP3    H252032   5.970   5.656   5.497 -0.9147 -0.4570 -0.7621
10181TIP3   OH252033   6.830   0.792   2.383 -0.3226  0.0580  0.6749
10181TIP3    H152034   6.781   0.726   2.333 -0.2129  1.0126 -0.7309
10181TIP3    H252035   6.763   0.855   2.411 -0.4351 -0.6192  2.0604
10182TIP3   OH252036   2.811   5.867  11.377 -0.1211  0.5094 -0.1875
10182TIP3    H152037   2.898   5.830  11.364 -0.5714 -1.3802  1.6971
10182TIP3    H252038   2.752   5.792  11.377 -1.6973  1.6739 -0.6822
10183TIP3   OH252039   7.031   3.728  15.123 -0.1968 -0.2025 -0.2963
10183TIP3    H152040   6.996   3.690  15.042 -3.4393  1.1543  0.3286
10183TIP3    H252041   7.004   3.667  15.192  2.5235 -1.3382 -0.0960
10184TIP3   OH252042   4.273   4.132   0.708 -0.2360  0.1757 -0.1965
10184TIP3    H152043   4.279   4.136   0.804  1.3021 -0.9864 -0.1840
10184TIP3    H252044   4.212   4.060   0.691 -2.1064  1.7013 -0.1372
10185TIP3   OH252045   6.015   3.598  13.674  0.0713 -1.1432  0.0804
10185TIP3    H152046   6.056   3.610  13.589 -1.3182  0.8944 -0.3738
10185TIP3    H252047   5.966   3.515  13.665 -0.6908 -0.5770 -1.4023
10186TIP3   OH252048   1.951   3.343   0.676 -0.2545 -0.9918 -0.2657
10186TIP3    H152049   1.863   3.336   0.639  0.0103 -1.7150 -0.7708
10186TIP3    H252050   2.005   3.375   0.604  0.6017 -4.0172 -1.0809
10187TIP3   OH252051   1.526   1.309   2.993  0.4681 -0.3340 -0.5034
10187TIP3    H152052   1.579   1.310   3.072  0.3556 -1.3903 -0.3930
10187TIP3    H252053   1.559   1.382   2.940 -0.7160  1.6133  1.2935
10188TIP3   OH252054   4.605   6.236  13.498 -0.3409 -0.3729  0.0457
10188TIP3    H152055   4.649   6.183  13.432 -0.6133  1.6963 -1.9225
10188TIP3    H252056   4.650   6.321  13.495 -1.3884  0.2711  1.4047
10189TIP3   OH252057   0.177   6.858  15.342 -0.6756 -0.0409  0.3725
10189TIP3    H152058   0.123   6.811  15.279  0.3303  1.4414 -1.7402
10189TIP3    H252059   0.139   6.946  15.345 -0.9056 -0.1741  2.1491
10190TIP3   OH252060   5.343   5.192  15.084  0.2025  0.0261  0.0562
10190TIP3    H152061   5.390   5.127  15.137 -0.4065 -0.9849 -0.6163
10190TIP3    H252062   5.253   5.188  15.116 -0.1472 -0.5182 -0.9725
10191TIP3   OH252063   6.173   1.538  10.386 -0.4405 -0.0362 -0.2644
10191TIP3    H152064   6.264   1.557  10.411 -0.3954 -0.4346 -0.1201
10191TIP3    H252065   6.169   1.559  10.293 -0.8828  2.5082  0.2374
10192TIP3   OH252066   2.333   3.639  12.787  0.4146 -0.4504  0.6173
10192TIP3    H152067   2.284   3.663  12.708  0.1804 -1.5597  0.4041
10192TIP3    H252068   2.290   3.559  12.818  0.2335  0.1889  2.1181
10193TIP3   OH252069   2.229   3.688  14.603 -0.1207  0.4581  0.5979
10193TIP3    H152070   2.250   3.696  14.696  0.2708  0.6551  0.4981
10193TIP3    H252071   2.178   3.608  14.596  1.1690 -0.4059  0.7673
10194TIP3   OH252072   0.654   4.020  11.665  0.5302 -0.1673  0.0403
10194TIP3    H152073   0.725   3.966  11.700  1.4371 -0.0436 -1.4636
10194TIP3    H252074   0.622   3.971  11.589 -2.8708 -1.5108  2.1360
10195TIP3   OH252075   3.409   5.246   9.784 -0.4887  0.0223  0.1659
10195TIP3    H152076   3.364   5.313   9.834  0.3044 -0.0059  0.9355
10195TIP3    H252077   3.498   5.243   9.821 -0.6597 -1.8394  0.5519
10196TIP3   OH252078   2.771   4.687  14.139  0.1821  0.4336 -0.2260
10196TIP3    H152079   2.850   4.738  14.154  0.2970  0.3917 -0.6686
10196TIP3    H252080   2.774   4.664  14.046 -0.9486  1.4592 -0.5458
10197TIP3   OH252081   3.853   4.901   0.231  0.2315 -0.3763 -0.2120
10197TIP3    H152082   3.779   4.851   0.196  1.3009 -0.1364 -3.0170
10197TIP3    H252083   3.920   4.897   0.163  1.4987  2.4150  0.7110
10198TIP3   OH252084   6.386   0.563   5.235 -0.3732  0.6985 -0.0590
10198TIP3    H152085   6.300   0.568   5.192 -0.1413 -0.3988 -0.6775
10198TIP3    H252086   6.424   0.650   5.222 -0.9282  0.8450 -0.7586
10199TIP3   OH252087   0.419   4.416  10.086  0.0234 -0.5789  0.0856
10199TIP3    H152088   0.343   4.372  10.049 -0.9407 -0.2481  1.6015
10199TIP3    H252089   0.401   4.509  10.073  1.1546 -0.5213 -1.3673
10200TIP3   OH252090   1.169   3.184  12.128 -0.0286 -0.9654  0.2397
10200TIP3    H152091   1.234   3.227  12.072 -1.7864  0.7746 -0.6016
10200TIP3    H252092   1.171   3.235  12.209 -0.4651 -0.8003  0.1456
10201TIP3   OH252093   0.750   1.367   2.159 -0.0154 -0.2936 -0.4872
10201TIP3    H152094   0.678   1.319   2.199  0.5800  0.0055  1.0132
10201TIP3    H252095   0.803   1.300   2.116 -0.4092 -0.6983 -0.3463
10202TIP3   OH252096   1.430   5.319  12.642  0.4140 -0.1476  0.7517
10202TIP3    H152097   1.456   5.336  12.733 -0.9158 -0.0627  1.1381
10202TIP3    H252098   1.335   5.325  12.643  0.3228 -1.0106 -0.4798
10203TIP3   OH252099   3.176   2.564   2.151  0.3482 -0.2907  0.3674
10203TIP3    H152100   3.181   2.518   2.068  0.5818 -0.8696  0.6963
10203TIP3    H252101   3.118   2.638   2.134  0.6356 -0.2328 -0.3839
10204TIP3   OH252102   3.115   3.348   3.610  0.1372 -0.2018  0.4816
10204TIP3    H152103   3.205   3.348   3.578 -0.0756  0.5577 -0.1516
10204TIP3    H252104   3.114   3.413   3.680 -0.3203  1.1584 -0.7506
10205TIP3   OH252105   0.934   0.896   2.387 -0.1887  0.3957 -0.3184
10205TIP3    H152106   0.962   0.891   2.295  2.1382 -2.8031  0.4051
10205TIP3    H252107   0.875   0.822   2.398  0.5388  0.0035  1.0497
10206TIP3   OH252108   2.409   1.452  14.522  0.5292 -0.1324  0.1757
10206TIP3    H152109   2.380   1.488  14.606  1.1117  0.4005  0.1511
10206TIP3    H252110   2.359   1.371  14.513 -1.9976  1.3783 -0.4695
10207TIP3   OH252111   4.534   1.491   3.722 -0.7494 -0.4122 -0.0388
10207TIP3    H152112   4.468   1.430   3.754 -0.5743 -0.4436  0.2633
10207TIP3    H252113   4.484   1.564   3.684 -0.9597 -0.7961 -0.5064
10208TIP3   OH252114   4.576   3.826   4.614 -0.0585  0.2430 -0.4692
10208TIP3    H152115   4.539   3.798   4.697  0.6309  0.1559 -0.1880
10208TIP3    H252116   4.644   3.762   4.595  1.4560  1.6178  0.1253
10209TIP3   OH252117   1.372   2.350  13.365  0.5633 -0.2715  0.3245
10209TIP3    H152118   1.320   2.279  13.402 -0.5309  0.1572 -0.3658
10209TIP3    H252119   1.318   2.387  13.296  1.5094  0.6258  0.0337
10210TIP3   OH252120   4.400   2.263  13.999  0.1552  0.7564 -0.1844
10210TIP3    H152121   4.371   2.312  13.922  1.1912  1.4101 -0.1666
10210TIP3    H252122   4.319   2.240  14.044 -0.4140  1.2372 -0.9358
10211TIP3   OH252123   0.270   0.981  14.617  0.1578  0.2363 -0.2200
10211TIP3    H152124   0.184   0.944  14.640  0.3614 -0.0142  0.1518
10211TIP3    H252125   0.329   0.906  14.620  0.4316  0.4519 -0.2511
10212TIP3   OH252126   6.917   2.191   0.473  1.0431  0.0435 -0.0552
10212TIP3    H152127   6.840   2.151   0.431  0.3138  0.5367  0.7822
10212TIP3    H252128   6.942   2.129   0.541  1.7867 -0.4101 -0.7172
10213TIP3   OH252129   4.134   6.336   2.386 -0.2004 -0.1743  0.0819
10213TIP3    H152130   4.184   6.266   2.344  0.0567  0.3664 -0.5360
10213TIP3    H252131   4.080   6.292   2.451 -0.9879 -1.1065 -1.1635
10214TIP3   OH252132   5.070   4.494  14.183  0.1814  0.1826 -0.3981
10214TIP3    H152133   5.060   4.429  14.253  0.1798 -0.6409 -1.1371
10214TIP3    H252134   5.088   4.576  14.229  2.8565 -0.8120  0.5425
10215TIP3   OH252135   5.000   3.477  15.040 -0.1958  0.2286  0.5360
10215TIP3    H152136   5.060   3.407  15.068 -0.8973 -0.7883 -0.4291
10215TIP3    H252137   4.984   3.527  15.120 -1.4221 -2.0265  1.8110
10216TIP3   OH252138   4.739   2.776   3.465  0.4890 -0.3408  0.2475
10216TIP3    H152139   4.666   2.829   3.434  1.9955  1.1434 -0.9505
10216TIP3    H252140   4.743   2.792   3.559 -1.2818 -1.2258  0.5192
10217TIP3   OH252141   5.456   6.509   1.205 -0.0962  0.4065  0.1296
10217TIP3    H152142   5.525   6.454   1.170  0.0243  2.2284 -2.8782
10217TIP3    H252143   5.502   6.584   1.244 -0.3288  0.2320  0.7515
10218TIP3   OH252144   0.553   0.231  12.822  0.0994 -0.4478 -0.4054
10218TIP3    H152145   0.557   0.269  12.910  0.4812 -2.0558  0.2940
10218TIP3    H252146   0.631   0.177  12.815  0.5013  0.3048 -2.0667
10219TIP3   OH252147   6.955   4.027   3.093  0.2380 -0.2454 -0.4125
10219TIP3    H152148   7.021   3.957   3.093 -0.8799 -1.3473 -1.1870
10219TIP3    H252149   6.957   4.061   3.004 -0.5176 -0.5685 -0.5561
10220TIP3   OH252150   6.972   0.913  11.935  0.0496  0.1929 -0.2968
10220TIP3    H152151   6.880   0.890  11.917 -0.2193 -0.1760  1.3433
10220TIP3    H252152   7.012   0.922  11.849 -1.6736  0.9476 -1.0632
10221TIP3   OH252153   5.978   4.160  14.575 -0.6479  0.0366  0.1149
10221TIP3    H152154   6.070   4.184  14.564 -1.1451  2.3797  0.4346
10221TIP3    H252155   5.965   4.157  14.669 -1.1103  0.7696  0.0838
10222TIP3   OH252156   3.260   6.287   4.523 -0.4377 -0.5699  0.2935
10222TIP3    H152157   3.180   6.243   4.550 -1.0810  0.2740 -0.1892
10222TIP3    H252158   3.302   6.225   4.463 -0.1680 -1.4628  1.3712
10223TIP3   OH252159   1.632   1.804   1.289 -0.0777 -0.4731 -0.1483
10223TIP3    H152160   1.590   1.737   1.235  0.2842 -0.3278 -0.6171
10223TIP3    H252161   1.586   1.885   1.267  1.7833  0.1180 -2.2993
10224TIP3   OH252162   4.136   5.033   9.660  0.1835  0.2446 -0.7466
10224TIP3    H152163   4.146   4.940   9.682  0.9013  0.5521  0.3036
10224TIP3    H252164   4.218   5.057   9.617  0.3460  0.5877 -0.2574
10225TIP3   OH252165   4.427   2.645  14.951 -0.2652 -0.9213  0.1832
10225TIP3    H152166   4.383   2.716  14.998  1.4329  0.9433 -0.8590
10225TIP3    H252167   4.428   2.572  15.013 -1.3838  0.2015  1.6072
10226TIP3   OH252168   4.964   6.320   1.309  0.9131  0.0132  0.2107
10226TIP3    H152169   4.888   6.319   1.251 -0.8193  1.1875  2.3196
10226TIP3    H252170   5.021   6.389   1.273  0.6131 -0.2941 -0.9022
10227TIP3   OH252171   1.251   3.283   4.133  0.1016 -0.5740  0.6208
10227TIP3    H152172   1.186   3.349   4.108  0.4643  1.1094  3.6187
10227TIP3    H252173   1.207   3.231   4.201  1.2577 -0.5950  1.3829
10228TIP3   OH252174   3.080   3.120  10.990 -0.0537  0.0548  0.0069
10228TIP3    H152175   3.027   3.180  10.939 -1.0812 -1.0449 -0.2793
10228TIP3    H252176   3.105   3.051  10.929  0.3700 -0.2692  0.5255
10229TIP3   OH252177   1.259   5.598   2.257 -0.3424 -0.4150  0.1457
10229TIP3    H152178   1.196   5.606   2.329 -2.6464 -4.6623 -1.0867
10229TIP3    H252179   1.219   5.646   2.185 -1.5917 -1.9306 -0.2163
10230TIP3   OH252180   5.064   5.095   3.857  0.1398 -0.6616  0.1754
10230TIP3    H152181   4.989   5.106   3.914  1.1959 -0.3684  1.5592
10230TIP3    H252182   5.089   5.003   3.867  0.2443 -0.6452  0.0734
10231TIP3   OH252183   2.130   7.042  14.866 -0.4353 -0.3723  0.0946
10231TIP3    H152184   2.213   7.039  14.915  0.4233  2.9086 -0.9188
10231TIP3    H252185   2.144   6.985  14.791  0.3701 -0.9393  0.6604
10232TIP3   OH252186   6.883   2.484  14.372 -0.0480  0.5065  0.2997
10232TIP3    H152187   6.942   2.431  14.320 -1.0029  0.9771 -1.3315
10232TIP3    H252188   6.926   2.569  14.378  0.0701  0.4475  0.2877
10233TIP3   OH252189   0.306   7.016  14.288  0.1408  0.3232  0.0862
10233TIP3    H152190   0.329   7.007  14.195 -1.1943  0.9227 -0.3285
10233TIP3    H252191   0.315   6.928  14.324  0.5811  0.0638 -0.6350
10234TIP3   OH252192   0.496   0.123   1.765  0.1038  0.2313  0.2846
10234TIP3    H152193   0.426   0.112   1.700  1.0270 -0.7396 -0.5819
10234TIP3    H252194   0.451   0.121   1.849 -0.7181 -2.5004 -0.1277
10235TIP3   OH252195   1.170   6.629   2.028  0.3387  0.3343  0.5369
10235TIP3    H152196   1.113   6.676   2.089  0.5458 -0.6365  1.5131
10235TIP3    H252197   1.182   6.543   2.068  0.4071 -0.3704 -0.9320
10236TIP3   OH252198   3.980   3.589   0.052  0.4218  0.5707  0.1842
10236TIP3    H152199   3.970   3.580  -0.043  1.9014  0.9746 -0.0394
10236TIP3    H252200   4.027   3.510   0.078  0.7773  0.8657  0.4464
10237TIP3   OH252201   1.512   2.715  13.415  0.4266  0.0531 -0.7849
10237TIP3    H152202   1.529   2.650  13.483 -1.7301  0.7413  0.5253
10237TIP3    H252203   1.447   2.674  13.358 -1.6190  1.2250  0.5441
10238TIP3   OH252204   2.764   1.501   1.533  0.0510  0.0996  0.5649
10238TIP3    H152205   2.777   1.499   1.439 -0.2840 -1.3699  0.5173
10238TIP3    H252206   2.849   1.525   1.569  0.5733 -0.7427 -0.0662
10239TIP3   OH252207   4.723   5.083   4.459 -0.3506  0.0573 -0.9063
10239TIP3    H152208   4.812   5.066   4.491 -0.5722  0.7401  0.1202
10239TIP3    H252209   4.694   4.999   4.424  1.1149  0.1084 -2.3496
10240TIP3   OH252210   1.543   6.620   2.367 -0.3774  0.4800 -0.6548
10240TIP3    H152211   1.508   6.635   2.279  0.1486 -1.2272 -1.2095
10240TIP3    H252212   1.582   6.703   2.392  0.5899  0.6639 -2.5843
10241TIP3   OH252213   0.974   2.340   4.232 -0.0124 -0.4379  0.4091
10241TIP3    H152214   0.933   2.256   4.254 -1.2302 -0.1522 -0.7109
10241TIP3    H252215   0.921   2.405   4.277 -1.4084  0.0020 -1.7272
10242TIP3   OH252216   5.845   1.588  10.086 -0.1590 -0.2639 -0.1541
10242TIP3    H152217   5.751   1.571  10.074 -0.6606  1.7302  0.4955
10242TIP3    H252218   5.884   1.566  10.001 -1.7198  1.7051 -1.5068
10243TIP3   OH252219   0.546   1.891  14.358  0.1576  0.2860 -0.1320
10243TIP3    H152220   0.469   1.857  14.402 -0.8408  0.2781 -1.7839
10243TIP3    H252221   0.511   1.946  14.288  1.6851  1.4497 -0.0264
10244TIP3   OH252222   2.983   4.241  12.273  0.1235  0.1585 -0.1805
10244TIP3    H152223   3.061   4.263  12.222 -0.0667  0.1067 -0.4977
10244TIP3    H252224   2.921   4.205  12.208 -0.6414  1.3834 -0.1540
10245TIP3   OH252225   5.552   3.021   3.075  0.2882 -0.0460  0.9667
10245TIP3    H152226   5.484   2.960   3.102  1.5922 -1.4411  1.2691
10245TIP3    H252227   5.511   3.107   3.081 -1.2890 -0.7967  1.5718
10246TIP3   OH252228   3.202   1.747  12.523 -0.3469 -0.1843 -0.0630
10246TIP3    H152229   3.136   1.783  12.465 -0.4906  0.6954  0.6263
10246TIP3    H252230   3.284   1.790  12.497 -0.6431  1.2429  1.2274
10247TIP3   OH252231   1.093   4.369   1.351  0.1532  0.2439 -0.3351
10247TIP3    H152232   1.016   4.354   1.405  2.1964 -0.1006  2.7602
10247TIP3    H252233   1.146   4.290   1.364  1.9757  1.3828 -0.5537
10248TIP3   OH252234   0.209   4.295  14.370 -0.2263 -0.0772 -0.0549
10248TIP3    H152235   0.295   4.254  14.375 -0.3118 -0.2300  0.1868
10248TIP3    H252236   0.224   4.385  14.398  0.4193  0.7934 -2.8270
10249TIP3   OH252237   6.872   6.953  12.532 -0.2614 -0.9002 -0.2778
10249TIP3    H152238   6.860   6.989  12.619 -0.1289 -1.8317  0.1337
10249TIP3    H252239   6.942   7.006  12.493 -0.9159  0.0799 -0.1564
10250TIP3   OH252240   0.176   1.431   1.646 -0.8471 -0.1839 -0.7726
10250TIP3    H152241   0.118   1.507   1.652 -0.9503 -0.3252  0.1522
10250TIP3    H252242   0.194   1.407   1.737  1.4483  0.4557 -1.0034
10251TIP3   OH252243   3.477   6.857   3.182 -0.8182  0.4872  0.2432
10251TIP3    H152244   3.426   6.932   3.152 -1.2331 -0.2024 -0.8216
10251TIP3    H252245   3.555   6.858   3.126 -0.4537  0.5548  0.7417
10252TIP3   OH252246   2.408   1.365  11.772  0.4337  0.1674  0.2090
10252TIP3    H152247   2.332   1.330  11.726  0.0657  0.2798  0.7229
10252TIP3    H252248   2.441   1.435  11.715 -1.4505  1.9488  1.1698
10253TIP3   OH252249   3.164   1.377  14.971 -0.1341 -0.0550  0.3876
10253TIP3    H152250   3.238   1.398  15.028  0.5995 -0.3444 -0.4320
10253TIP3    H252251   3.138   1.289  14.997 -0.3383  0.1248  0.8158
10254TIP3   OH252252   0.209   2.852  14.431  0.3775 -0.2574 -0.6727
10254TIP3    H152253   0.275   2.800  14.385 -0.7796 -1.3852 -1.1600
10254TIP3    H252254   0.191   2.925  14.372 -0.2787 -1.0876 -1.5620
10255TIP3   OH252255   1.215   1.535  15.067  0.5249  0.1294 -0.2055
10255TIP3    H152256   1.308   1.546  15.046  0.3815  0.4460 -0.6915
10255TIP3    H252257   1.185   1.467  15.007  0.4933 -0.1435  0.1153
10256TIP3   OH252258   4.896   3.154   3.807  0.2188 -0.4501  0.2640
10256TIP3    H152259   4.937   3.230   3.849  0.7317  0.3130 -1.5048
10256TIP3    H252260   4.900   3.085   3.873  1.3023  0.5727  1.3211
10257TIP3   OH252261   1.682   6.840   0.986 -0.1730  0.0593 -0.0046
10257TIP3    H152262   1.765   6.793   0.996 -0.6685 -0.5876  1.3572
10257TIP3    H252263   1.708   6.932   0.974  0.7603 -0.3028 -0.9118
10258TIP3   OH252264   2.046   2.458   2.004  0.5929 -0.5254  0.5574
10258TIP3    H152265   2.079   2.373   1.975  0.8900 -0.3725  0.4448
10258TIP3    H252266   1.991   2.438   2.079  1.5205 -0.7226  1.2052
10259TIP3   OH252267   2.830   5.610   0.241 -0.3216 -0.2263 -0.0020
10259TIP3    H152268   2.801   5.701   0.239  1.2292  0.2839 -0.4258
10259TIP3    H252269   2.897   5.604   0.173 -0.7522 -1.8260 -0.3438
10260TIP3   OH252270   3.345   2.133  14.530  0.5167 -0.4825 -0.1559
10260TIP3    H152271   3.270   2.133  14.471  1.2713 -0.1724 -1.1300
10260TIP3    H252272   3.405   2.068  14.492  1.0943 -0.1358  0.1547
10261TIP3   OH252273   3.778   3.534  12.804  0.2575 -0.3858  0.1714
10261TIP3    H152274   3.691   3.558  12.836  1.2982  2.1899  1.3401
10261TIP3    H252275   3.839   3.580  12.862  2.4678 -2.8662 -0.0068
10262TIP3   OH252276   3.414   3.693   1.522  0.7900 -0.2356 -0.2047
10262TIP3    H152277   3.493   3.706   1.575 -0.6046  1.9669  1.5093
10262TIP3    H252278   3.343   3.684   1.586 -0.5943 -0.3884 -1.6994
10263TIP3   OH252279   3.507   4.238  15.010 -0.1758  0.4627  0.0600
10263TIP3    H152280   3.538   4.253  14.921  1.5947 -1.1761  0.3318
10263TIP3    H252281   3.430   4.182  15.000 -0.2702  0.6785 -0.4454
10264TIP3   OH252282   1.525   0.469  14.930  0.0611 -0.1429 -0.3531
10264TIP3    H152283   1.586   0.437  14.863 -0.0125  1.1916 -1.0980
10264TIP3    H252284   1.579   0.523  14.988  0.1763 -1.4899  0.8639
10265TIP3   OH252285   5.917   5.364   2.895  0.2399 -0.6199 -0.1068
10265TIP3    H152286   5.952   5.344   2.982 -0.4978 -1.1989  0.0708
10265TIP3    H252287   5.939   5.287   2.842 -1.7559 -1.5459  0.3198
10266TIP3   OH252288   1.103   6.964   1.878 -1.0152 -0.6375 -0.1484
10266TIP3    H152289   1.179   6.968   1.820 -0.7082  0.0957  0.2960
10266TIP3    H252290   1.065   6.878   1.861 -0.2030 -0.9319 -0.5192
10267TIP3   OH252291   5.211   7.215  12.171 -0.0878  0.2451 -0.0943
10267TIP3    H152292   5.280   7.247  12.229 -1.1493  2.5860  0.0282
10267TIP3    H252293   5.245   7.230  12.083  0.3386 -0.4926 -0.0598
10268TIP3   OH252294   2.210   4.325  13.210  0.4130 -0.0302 -0.8627
10268TIP3    H152295   2.233   4.235  13.185  0.4011 -0.2908  0.0212
10268TIP3    H252296   2.123   4.339  13.171  0.8885  0.0068 -1.9467
10269TIP3   OH252297   0.202   0.166   5.197  0.5471  0.7135 -0.1979
10269TIP3    H152298   0.175   0.198   5.111  0.4553 -0.0079 -0.4418
10269TIP3    H252299   0.126   0.180   5.253 -0.1658 -0.7764 -0.7448
10270TIP3   OH252300   4.118   1.829   3.628 -0.3632 -0.9008  0.1799
10270TIP3    H152301   4.207   1.838   3.662 -0.6865 -0.6794  0.9835
10270TIP3    H252302   4.069   1.788   3.699 -0.8053 -1.4504 -0.4256
10271TIP3   OH252303   2.958   1.802   3.410  0.2407  0.5407 -0.0718
10271TIP3    H152304   2.921   1.729   3.361  0.4263 -0.8351  1.7346
10271TIP3    H252305   3.030   1.833   3.355  1.5317 -2.0378  0.0079
10272TIP3   OH252306   5.907   0.695   5.001  0.0529 -0.1503  1.1413
10272TIP3    H152307   5.815   0.671   5.011  0.1473 -1.2420 -0.3197
10272TIP3    H252308   5.917   0.714   4.908  1.5024 -0.9392  1.1119
10273TIP3   OH252309   5.990   2.487  13.741 -0.2326  0.1543 -0.2174
10273TIP3    H152310   6.003   2.537  13.660  1.1184  0.2159  0.0001
10273TIP3    H252311   5.976   2.397  13.712  0.9066  0.0561 -0.5391
10274TIP3   OH252312   4.514   1.927   1.078 -0.0781  0.0021  0.3324
10274TIP3    H152313   4.462   1.901   1.002  0.2316  0.3152  0.0029
10274TIP3    H252314   4.486   2.017   1.097  0.6446  0.3358 -0.1283
10275TIP3   OH252315   4.161   1.446   1.438 -0.1211 -0.6685 -0.5683
10275TIP3    H152316   4.218   1.475   1.367 -1.4734 -1.6995 -2.1420
10275TIP3    H252317   4.086   1.507   1.435  0.6083  0.4068  1.1922
10276TIP3   OH252318   5.778   3.997   0.875 -0.1118  0.0894 -0.1859
10276TIP3    H152319   5.855   4.039   0.835  1.0012 -0.6757  1.0719
10276TIP3    H252320   5.716   4.069   0.886  1.3994  1.2749  1.0829
10277TIP3   OH252321   1.991   0.301  12.653  0.1988  0.0629 -0.1525
10277TIP3    H152322   1.946   0.384  12.640  1.2735  1.0862  2.1330
10277TIP3    H252323   2.079   0.316  12.617  0.2427 -0.2602 -0.1798
10278TIP3   OH252324   4.993   4.576  11.455  0.8521  0.1918  0.0139
10278TIP3    H152325   4.962   4.524  11.529  2.8206 -0.3240  0.5199
10278TIP3    H252326   4.915   4.587  11.400 -1.2392  2.3444  3.0513
10279TIP3   OH252327   6.689   1.124   3.359 -0.5277  0.0116 -0.2831
10279TIP3    H152328   6.628   1.120   3.432  0.8828  3.7959  1.3259
10279TIP3    H252329   6.637   1.153   3.285 -1.1974  0.3564  0.3170
10280TIP3   OH252330   0.633   1.581   3.073  0.9296  0.0723  0.1517
10280TIP3    H152331   0.677   1.637   3.009  0.1059  2.3981  1.5210
10280TIP3    H252332   0.703   1.527   3.110  1.4134 -1.4704 -2.7216
10281TIP3   OH252333   6.650   1.804   2.204 -0.5841 -0.5099  0.0906
10281TIP3    H152334   6.645   1.796   2.108  1.7127 -0.3993 -0.0944
10281TIP3    H252335   6.639   1.897   2.221 -0.7809 -0.5024 -0.0647
10282TIP3   OH252336   1.755   2.026  13.348 -0.0546  0.4820  0.6516
10282TIP3    H152337   1.761   1.942  13.303  0.9394  0.4330  0.8378
10282TIP3    H252338   1.837   2.032  13.398 -0.4655  1.2075  1.2603
10283TIP3   OH252339   6.000   1.345  14.760 -0.2821 -0.4855  0.0848
10283TIP3    H152340   5.925   1.386  14.804 -0.0150 -1.1378  1.1989
10283TIP3    H252341   6.038   1.414  14.707 -1.1146  0.1111  0.2431
10284TIP3   OH252342   5.567   5.036   3.275 -0.1191  0.1926 -0.2849
10284TIP3    H152343   5.495   5.053   3.335  0.1098  1.4088 -0.3340
10284TIP3    H252344   5.642   5.017   3.333 -0.1379  0.3632 -0.2042
10285TIP3   OH252345   4.497   5.563  10.474  0.6644  0.1563  0.2771
10285TIP3    H152346   4.511   5.598  10.562 -1.3291  1.6880  0.0627
10285TIP3    H252347   4.403   5.547  10.470  0.4924  1.3506 -1.9573
10286TIP3   OH252348   2.282   5.153  11.115  0.2035 -0.2180  0.7885
10286TIP3    H152349   2.301   5.083  11.179  1.4866 -0.9946 -0.3889
10286TIP3    H252350   2.189   5.142  11.094  0.2616 -1.2414  1.0161
10287TIP3   OH252351   0.214   6.420   0.550 -0.6014 -0.6159 -0.0665
10287TIP3    H152352   0.246   6.505   0.520 -3.2693  0.5992  0.2023
10287TIP3    H252353   0.217   6.426   0.645  0.0523 -1.1952 -0.0462
10288TIP3   OH252354   6.990   6.602   2.778 -0.0395  0.2175 -0.0770
10288TIP3    H152355   7.006   6.513   2.809  0.9118  0.0128 -1.0917
10288TIP3    H252356   6.935   6.591   2.701  1.2367  0.3953 -1.0300
10289TIP3   OH252357   6.450   0.422  12.567  0.1096  0.3672  0.4403
10289TIP3    H152358   6.536   0.381  12.572 -0.0891 -0.0758  0.3478
10289TIP3    H252359   6.453   0.476  12.488  0.8688  1.7128  1.3703
10290TIP3   OH252360   4.470   3.716   4.916 -1.0390 -0.2865 -0.2206
10290TIP3    H152361   4.450   3.776   4.988 -1.0966  0.5182 -0.8878
10290TIP3    H252362   4.502   3.637   4.959 -1.5307 -0.0000  0.7032
10291TIP3   OH252363   3.676   1.501  12.997  0.4930 -0.0094 -0.1612
10291TIP3    H152364   3.632   1.497  13.082 -1.2935 -1.8326 -1.0673
10291TIP3    H252365   3.657   1.589  12.964 -2.6013 -0.6686 -0.4606
10292TIP3   OH252366   2.015   2.169  11.798 -0.2603  0.2481  0.2329
10292TIP3    H152367   1.982   2.095  11.849  0.2461  0.8880  1.5481
10292TIP3    H252368   1.940   2.229  11.794 -0.2860  0.2207  0.2857
10293TIP3   OH252369   4.665   6.772  14.766 -0.4526 -0.3716  0.3226
10293TIP3    H152370   4.648   6.850  14.818 -0.2573  0.5054 -0.8917
10293TIP3    H252371   4.646   6.699  14.825 -0.3190  0.5824  1.5814
10294TIP3   OH252372   6.968   0.213  10.130  0.0608  0.0535 -0.1565
10294TIP3    H152373   6.910   0.192  10.203  1.8518  0.5206  1.4909
10294TIP3    H252374   6.998   0.129  10.097 -1.7387 -0.2061 -1.2533
10295TIP3   OH252375   4.348   0.464   2.395 -0.0621 -0.4474  0.8084
10295TIP3    H152376   4.339   0.371   2.415  1.1822 -0.6181  0.6374
10295TIP3    H252377   4.333   0.508   2.478  0.6899 -0.8963  1.1956
10296TIP3   OH252378   2.385   0.652   0.109 -0.1896 -0.2503  0.6625
10296TIP3    H152379   2.434   0.596   0.049 -0.4123  0.8006 -0.5554
10296TIP3    H252380   2.307   0.601   0.131 -0.5245 -0.3344 -0.6365
10297TIP3   OH252381   5.391   1.775   3.117 -0.4623  0.0772 -0.3734
10297TIP3    H152382   5.356   1.785   3.029 -0.8591 -0.1025 -0.2410
10297TIP3    H252383   5.353   1.848   3.166  1.2508  1.3115 -0.7852
10298TIP3   OH252384   1.049   5.451  11.326  0.5268 -0.4510 -0.5893
10298TIP3    H152385   1.126   5.397  11.312  1.1093  0.2173 -0.0306
10298TIP3    H252386   1.013   5.421  11.410  1.4341  0.6662  0.2418
10299TIP3   OH252387   6.831   2.385   3.682 -0.0912  0.2629 -0.1268
10299TIP3    H152388   6.737   2.391   3.663  0.5807  3.2362 -3.5570
10299TIP3    H252389   6.842   2.442   3.759 -0.9109  1.2916 -0.7391
10300TIP3   OH252390   0.901   5.357   0.364  0.1444  0.6377 -0.3966
10300TIP3    H152391   0.949   5.421   0.311  0.2815  1.3729  0.5883
10300TIP3    H252392   0.898   5.395   0.451 -0.4259 -0.3690  0.0451
10301TIP3   OH252393   4.694   6.308   3.321 -0.0177  0.0279 -0.4344
10301TIP3    H152394   4.602   6.292   3.300  0.0247 -0.3466 -0.3349
10301TIP3    H252395   4.727   6.223   3.348  0.5821 -0.0247 -1.2961
10302TIP3   OH252396   0.608   3.992  12.077 -0.5371  0.0241  0.3511
10302TIP3    H152397   0.525   4.039  12.069 -0.3553  0.6559  1.9281
10302TIP3    H252398   0.668   4.055  12.115 -0.4192 -1.5370  3.0463
10303TIP3   OH252399   3.888   0.385   2.194  0.3376  0.4014 -1.1503
10303TIP3    H152400   3.878   0.293   2.220 -1.9872  0.6458 -0.9770
10303TIP3    H252401   3.896   0.382   2.099  1.7009 -0.0313 -1.0499
10304TIP3   OH252402   6.508   4.909   0.105  0.0439  0.5275 -0.4017
10304TIP3    H152403   6.420   4.921   0.069  0.0468  1.0930 -0.2297
10304TIP3    H252404   6.567   4.937   0.035  0.0699  0.8146 -0.2647
10305TIP3   OH252405   1.754   4.482  14.758  0.2152  0.0477  0.7705
10305TIP3    H152406   1.728   4.552  14.817 -1.3515 -1.0604  1.4458
10305TIP3    H252407   1.799   4.419  14.814  1.6825  0.5014  0.1529
10306TIP3   OH252408   6.253   0.055  11.241 -0.0663 -0.2103 -0.3021
10306TIP3    H152409   6.317   0.024  11.305 -0.1033 -0.6943 -0.4929
10306TIP3    H252410   6.236  -0.022  11.185 -0.0785  0.1886 -0.8535
10307TIP3   OH252411   2.231   6.445   9.947  0.0643  0.9801 -0.2308
10307TIP3    H152412   2.238   6.451   9.852 -0.2072 -0.5744 -0.3744
10307TIP3    H252413   2.153   6.496   9.968 -1.2732 -0.5770 -1.1397
10308TIP3   OH252414   5.318   0.911  13.836 -1.1339 -0.1599 -0.5801
10308TIP3    H152415   5.304   0.995  13.878  0.2593  0.5075 -1.3776
10308TIP3    H252416   5.396   0.875  13.879 -3.2932 -2.4688  1.8134
10309TIP3   OH252417   0.742   5.712  14.836  0.1684  0.1669  0.8874
10309TIP3    H152418   0.807   5.691  14.903 -1.8427  1.7667  3.5784
10309TIP3    H252419   0.782   5.781  14.784  1.3625 -0.2954  1.1669
10310TIP3   OH252420   4.611   0.092   0.795 -0.3665 -0.2639  0.2863
10310TIP3    H152421   4.566   0.047   0.866  0.3178 -0.8865  0.3307
10310TIP3    H252422   4.563   0.066   0.716  0.4439 -1.6530  0.2245
10311TIP3   OH252423   4.254   1.257  12.274 -0.3024  0.2854  0.0058
10311TIP3    H152424   4.168   1.283  12.307 -0.1318  2.4864 -1.0888
10311TIP3    H252425   4.240   1.245  12.180  0.1747 -1.4495  0.1137
10312TIP3   OH252426   3.057   7.035   2.888  0.4169 -0.5962  0.0516
10312TIP3    H152427   3.010   6.955   2.866 -0.8621  0.0918  0.1621
10312TIP3    H252428   3.002   7.078   2.954  0.9173  0.5056 -0.2173
10313TIP3   OH252429   0.774   2.116   4.195  0.4622  0.2617  0.0133
10313TIP3    H152430   0.826   2.104   4.115  0.9174  3.6560 -0.3361
10313TIP3    H252431   0.829   2.080   4.265  0.6633 -1.4769 -0.9707
10314TIP3   OH252432   7.045   1.060  12.693  0.4497  0.0843  0.5049
10314TIP3    H152433   7.072   1.064  12.601 -1.9039  0.4060 -0.2218
10314TIP3    H252434   7.102   1.124  12.737  1.2881  0.2646 -0.7888
10315TIP3   OH252435   0.517   5.745   9.885 -0.2753  0.0462  0.3617
10315TIP3    H152436   0.608   5.733   9.914  0.1316 -1.8795 -1.4267
10315TIP3    H252437   0.479   5.658   9.892 -1.1680  0.2513 -1.4082
10316TIP3   OH252438   6.944   0.251  11.685  0.2490 -0.2434  0.7042
10316TIP3    H152439   7.001   0.326  11.704  1.4808 -1.3408  1.5127
10316TIP3    H252440   6.990   0.176  11.724 -2.0351 -1.1104  1.9077
10317TIP3   OH252441   0.543   2.391  10.360  0.4430  0.4368 -0.5355
10317TIP3    H152442   0.618   2.331  10.357 -0.3204 -0.5482 -0.6556
10317TIP3    H252443   0.474   2.341  10.404 -1.0220  0.2584 -2.8421
10318TIP3   OH252444   2.108   6.464  10.347  0.3130  0.2018  0.1042
10318TIP3    H152445   2.023   6.508  10.356 -0.3064 -0.2984 -2.5085
10318TIP3    H252446   2.156   6.517  10.283  1.1135 -0.6986 -0.0663
10319TIP3   OH252447   4.527   0.970   0.188  0.3837 -0.6860  0.3795
10319TIP3    H152448   4.451   1.021   0.161  1.6669  1.2763  0.2523
10319TIP3    H252449   4.549   0.917   0.111 -0.4118 -0.7147  0.1722
10320TIP3   OH252450   0.362   2.452  13.253  0.3303 -0.4201 -0.5281
10320TIP3    H152451   0.355   2.489  13.165 -2.8958  1.1940  0.2558
10320TIP3    H252452   0.425   2.508  13.297  0.0745  0.3758 -1.1323
10321TIP3   OH252453   5.775   5.651   2.653  0.0039  0.5550 -0.2494
10321TIP3    H152454   5.741   5.696   2.576 -1.1147  1.6983  0.8539
10321TIP3    H252455   5.709   5.667   2.721  0.0461 -1.9712  0.4690
10322TIP3   OH252456   4.163   4.112  13.689 -0.6641 -0.3429 -0.2226
10322TIP3    H152457   4.129   4.179  13.629 -1.6204 -0.7339 -0.1329
10322TIP3    H252458   4.139   4.143  13.776  1.7704  0.8402  0.1223
10323TIP3   OH252459   5.765   0.948   9.850  0.7413  0.0413  0.1620
10323TIP3    H152460   5.704   0.875   9.840  0.6729  0.1087  0.0984
10323TIP3    H252461   5.749   1.005   9.775 -1.5613  1.8701  1.8776
10324TIP3   OH252462   3.754   0.622  15.004 -0.3070  0.7688  0.0147
10324TIP3    H152463   3.848   0.619  14.987 -0.3140 -0.0426  0.0754
10324TIP3    H252464   3.740   0.555  15.071 -1.2773 -0.8429 -1.7324
10325TIP3   OH252465   2.006   0.284   2.960  0.3652 -0.1922 -0.6158
10325TIP3    H152466   1.946   0.255   2.892 -0.4483  0.1582 -0.0607
10325TIP3    H252467   2.093   0.277   2.920  0.1019 -2.1114 -0.9383
10326TIP3   OH252468   6.532   1.427   1.038  0.3517 -0.0384 -0.2095
10326TIP3    H152469   6.463   1.462   1.095  1.1408  0.6936  0.3362
10326TIP3    H252470   6.506   1.453   0.950  0.3994  1.0998  0.0883
10327TIP3   OH252471   3.991   4.085   2.300 -0.3393  0.0126 -0.0012
10327TIP3    H152472   3.962   3.999   2.270  0.1896 -0.7085  1.4690
10327TIP3    H252473   3.925   4.145   2.266  0.4458 -0.6365 -2.9564
10328TIP3   OH252474   2.909   5.925  15.021 -0.3796  0.3474  0.4919
10328TIP3    H152475   2.918   5.930  14.926 -0.4810 -0.2275  0.4512
10328TIP3    H252476   2.953   6.004  15.053 -0.7826  0.8051 -0.0559
10329TIP3   OH252477   4.985   0.270  13.071  0.3259 -0.7216 -0.1396
10329TIP3    H152478   4.952   0.197  13.122  2.4812 -0.9879  1.0068
10329TIP3    H252479   4.995   0.341  13.134  2.3895 -0.8493 -0.2455
10330TIP3   OH252480   1.567   2.040  14.762 -0.2351 -0.2420  0.5283
10330TIP3    H152481   1.641   2.096  14.739 -0.3013  0.0086  0.8989
10330TIP3    H252482   1.606   1.961  14.798 -0.1036 -1.1864 -1.5824
10331TIP3   OH252483   1.318   5.626  13.007 -0.5252  0.2792 -0.7833
10331TIP3    H152484   1.413   5.633  13.010 -0.4099 -0.9899 -0.6608
10331TIP3    H252485   1.300   5.572  12.930 -1.1165  0.2285 -0.6175
10332TIP3   OH252486   6.615   7.194  12.959  0.1624 -0.4943 -0.1071
10332TIP3    H152487   6.612   7.102  12.982 -0.6484 -0.4969 -0.1676
10332TIP3    H252488   6.705   7.222  12.977  0.3843 -1.2700 -0.0130
10333TIP3   OH252489   4.658   3.710   1.008  0.0980  0.1381  0.4300
10333TIP3    H152490   4.675   3.793   0.964  2.5109  0.4807  1.8239
10333TIP3    H252491   4.618   3.734   1.091 -0.1698 -0.1831  0.3992
10334TIP3   OH252492   0.893   0.650  13.637 -0.4199  0.2308 -0.0832
10334TIP3    H152493   0.838   0.637  13.715  0.9663  1.9515  1.2798
10334TIP3    H252494   0.863   0.734  13.602  1.2473  1.1736  0.6572
10335TIP3   OH252495   2.912   4.258   0.155 -0.6796  0.2576 -0.0551
10335TIP3    H152496   2.832   4.284   0.109 -1.1789  1.2789  1.3330
10335TIP3    H252497   2.884   4.195   0.220 -0.2087 -0.0119 -0.1032
10336TIP3   OH252498   1.110   0.862  15.313  0.4640  0.3988  0.5526
10336TIP3    H152499   1.188   0.876  15.260 -2.2453 -0.1760 -4.0877
10336TIP3    H252500   1.104   0.767  15.323 -1.3661  0.1063 -2.3616
10337TIP3   OH252501   4.789   5.004   2.878 -0.4739 -0.3058 -0.2922
10337TIP3    H152502   4.708   4.954   2.887  0.6516 -2.3635 -1.1215
10337TIP3    H252503   4.760   5.090   2.845 -2.4661 -0.2334  1.4165
10338TIP3   OH252504   0.395   4.428  12.221  0.0446  0.3595  0.0474
10338TIP3    H152505   0.404   4.393  12.132  1.2023 -0.4908  0.4801
10338TIP3    H252506   0.323   4.378  12.259  1.3601 -1.2775  0.4942
10339TIP3   OH252507   6.958   5.469   4.808  0.2489 -0.0835  0.0757
10339TIP3    H152508   6.982   5.560   4.794 -0.6004  0.3398  1.2114
10339TIP3    H252509   6.994   5.448   4.894  0.6969 -0.9189 -0.3081
10340TIP3   OH252510   5.281   2.901   1.326 -0.0689 -0.3374 -0.9547
10340TIP3    H152511   5.376   2.915   1.329  0.1484 -1.6082  3.0620
10340TIP3    H252512   5.271   2.812   1.292  0.3595 -0.9303  0.4114
10341TIP3   OH252513   3.469   3.179  10.831 -0.5418  0.2889 -0.5250
10341TIP3    H152514   3.444   3.087  10.844 -0.8456  0.6184  1.5927
10341TIP3    H252515   3.387   3.223  10.809 -0.7387  0.3539  0.3241
10342TIP3   OH252516   5.598   4.534  11.162 -0.1593  0.5978  0.6915
10342TIP3    H152517   5.669   4.546  11.225  0.8199  2.3069 -0.6392
10342TIP3    H252518   5.643   4.520  11.078 -1.4078  0.0773  0.0821
10343TIP3   OH252519   4.912   1.560   1.723 -0.2875  0.0190 -0.6999
10343TIP3    H152520   4.884   1.512   1.801 -0.4641  1.0714 -0.0906
10343TIP3    H252521   4.836   1.559   1.665  0.4570 -2.4820 -1.7806
10344TIP3   OH252522   0.403   2.020   2.139  0.1502  0.3686  0.4392
10344TIP3    H152523   0.312   2.002   2.163  0.8428 -2.6599  1.1854
10344TIP3    H252524   0.436   1.937   2.104  3.2284  0.7077  2.1445
10345TIP3   OH252525   6.036   0.926  11.478 -1.1345  0.4383 -0.5546
10345TIP3    H152526   5.977   0.857  11.449 -2.5670  1.5222 -0.3116
10345TIP3    H252527   6.001   0.954  11.563  0.6029  0.1257  0.3353
10346TIP3   OH252528   0.845   6.634   3.253  0.6573  0.2553  0.3843
10346TIP3    H152529   0.937   6.643   3.230  0.3282  0.1924 -1.0110
10346TIP3    H252530   0.810   6.723   3.248  0.7879  0.3951  1.6409
10347TIP3   OH252531   3.987   2.586   2.127 -0.2455 -0.4160  0.4894
10347TIP3    H152532   3.993   2.671   2.085 -1.3045 -0.8072 -0.4994
10347TIP3    H252533   4.039   2.595   2.207  0.5084  0.8241 -0.1133
10348TIP3   OH252534   1.985   6.920  13.047  0.1189 -0.6885 -0.4023
10348TIP3    H152535   1.990   6.920  12.952  0.8626 -1.6585 -0.3828
10348TIP3    H252536   1.973   6.828  13.071  0.3933 -0.5130  0.4578
10349TIP3   OH252537   4.448   0.154   4.436 -0.2166  0.4477  0.1496
10349TIP3    H152538   4.432   0.150   4.342 -1.4632  0.3455  0.3505
10349TIP3    H252539   4.516   0.221   4.446  1.4958 -1.0258 -0.9889
10350TIP3   OH252540   1.576   4.117  14.090 -0.9466  0.1059 -0.2073
10350TIP3    H152541   1.636   4.083  14.023 -1.7891 -0.9109 -0.4624
10350TIP3    H252542   1.582   4.055  14.162 -1.1032  0.4370  0.0949
10351TIP3   OH252543   2.619   6.911  14.193  0.1495 -0.3340 -0.3323
10351TIP3    H152544   2.563   6.839  14.165  0.3965 -0.7405  0.2126
10351TIP3    H252545   2.569   6.954  14.263 -0.5700  0.8213 -1.5176
10352TIP3   OH252546   1.078   6.083  13.290  0.4215 -0.1385 -0.3358
10352TIP3    H152547   1.115   6.122  13.210  1.3890 -0.0512  0.1367
10352TIP3    H252548   1.066   6.157  13.350  0.7792 -0.3437 -0.0022
10353TIP3   OH252549   1.354   5.911   0.855  0.7326 -0.3124 -0.1284
10353TIP3    H152550   1.419   5.849   0.821  0.6505 -0.1356 -0.6199
10353TIP3    H252551   1.332   5.966   0.780 -0.6422 -0.9258 -0.2169
10354TIP3   OH252552   5.368   1.108  14.259 -0.0609  0.0839  0.6264
10354TIP3    H152553   5.448   1.114  14.207  0.4777  2.2775  1.5919
10354TIP3    H252554   5.308   1.170  14.219 -0.6832 -0.3221  0.9105
10355TIP3   OH252555   2.527   6.969  13.716  0.5061 -0.0903 -0.0423
10355TIP3    H152556   2.572   7.052  13.733 -2.7370  2.1899 -1.5540
10355TIP3    H252557   2.521   6.964  13.621 -2.3584 -0.1861  0.0558
10356TIP3   OH252558   2.060   1.784  15.262  0.4468  0.1802 -0.5998
10356TIP3    H152559   2.037   1.696  15.233 -0.5254  0.5712 -1.0406
10356TIP3    H252560   2.008   1.799  15.341 -0.3998  0.8354 -1.2574
10357TIP3   OH252561   5.974   3.539   2.510  0.2638  0.3626 -0.1095
10357TIP3    H152562   6.037   3.558   2.440 -0.1147  0.8060 -0.3330
10357TIP3    H252563   5.947   3.625   2.542 -2.1200  0.3058 -1.7123
10358TIP3   OH252564   5.911   7.056  10.955  0.0806 -0.2935  0.9870
10358TIP3    H152565   5.838   7.026  10.901 -0.4216 -2.5970  2.7874
10358TIP3    H252566   5.904   7.152  10.954 -1.6051 -0.3891 -0.6704
10359TIP3   OH252567   0.553   5.002  13.557 -0.5997  0.0045  0.3174
10359TIP3    H152568   0.561   4.952  13.638  0.7069 -1.3363 -0.5981
10359TIP3    H252569   0.565   5.093  13.585 -0.5440 -0.3958  1.6808
10360TIP3   OH252570   2.257   0.093   0.713  0.0607  0.3202  0.5005
10360TIP3    H152571   2.223   0.102   0.624 -0.9444  0.7331  0.9117
10360TIP3    H252572   2.210   0.159   0.764  0.9859  0.4279  1.2460
10361TIP3   OH252573   5.635   0.928   5.768 -0.1720 -0.0731 -0.2633
10361TIP3    H152574   5.611   1.020   5.778  0.2958  0.1236 -0.8845
10361TIP3    H252575   5.644   0.896   5.858  0.0630  0.5997 -0.0401
10362TIP3   OH252576   5.271   4.947   0.246  0.4452 -0.2511  0.0438
10362TIP3    H152577   5.359   4.978   0.267  0.6306 -1.1251  0.6408
10362TIP3    H252578   5.220   4.966   0.325  0.3997 -0.8202  0.1566
10363TIP3   OH252579   2.638   4.374   1.274 -0.4880  0.2848  0.2687
10363TIP3    H152580   2.566   4.328   1.231 -1.3252 -0.4452  2.3428
10363TIP3    H252581   2.602   4.404   1.357  1.6702 -0.3346  1.5003
10364TIP3   OH252582   3.648   4.716  13.169 -0.1097 -0.9393  0.3028
10364TIP3    H152583   3.600   4.668  13.101  1.4195 -0.3757 -1.2302
10364TIP3    H252584   3.733   4.735  13.131 -0.5755  3.0066  0.7782
10365TIP3   OH252585   2.785   3.013   2.637 -0.0941  0.4160 -1.1902
10365TIP3    H152586   2.740   2.964   2.705  0.1735 -1.2868 -2.1744
10365TIP3    H252587   2.778   2.958   2.559  2.1908  0.8787 -1.7971
10366TIP3   OH252588   0.224   6.416  14.393  0.1076 -0.0168  0.2013
10366TIP3    H152589   0.229   6.396  14.487  0.6486 -0.4313  0.0879
10366TIP3    H252590   0.131   6.427  14.377 -0.0715 -0.7659  0.6308
10367TIP3   OH252591   3.201   4.564  15.074 -0.0334  0.0368  0.0741
10367TIP3    H152592   3.197   4.477  15.036 -0.7373  0.1610 -0.1554
10367TIP3    H252593   3.291   4.572  15.107 -0.2800 -1.2255  1.1657
10368TIP3   OH252594   4.073   4.308   4.177  0.0489  0.3416  0.4286
10368TIP3    H152595   4.080   4.228   4.229 -0.5854 -0.4198 -0.6170
10368TIP3    H252596   4.132   4.294   4.103 -0.4802  0.5934 -0.0511
10369TIP3   OH252597   3.221   2.639   0.192  0.1899 -0.2534  0.0250
10369TIP3    H152598   3.292   2.581   0.167  0.7883  0.4174  0.1387
10369TIP3    H252599   3.224   2.710   0.127 -0.0440  0.0503  0.3443
10370TIP3   OH252600   0.292   2.363   5.695  0.4135  0.9041  0.0824
10370TIP3    H152601   0.375   2.357   5.647 -0.3455 -0.2030 -1.1758
10370TIP3    H252602   0.230   2.314   5.641 -1.3111  2.5087  0.4800
10371TIP3   OH252603   6.686   0.332   4.635  0.0332  0.5217 -0.1476
10371TIP3    H152604   6.600   0.294   4.619 -0.0337  0.9770 -0.9305
10371TIP3    H252605   6.732   0.323   4.551  1.2594 -0.9890  0.6393
10372TIP3   OH252606   5.122   3.649   3.764 -0.5476 -0.3813  0.1873
10372TIP3    H152607   5.031   3.619   3.772 -1.4141  1.4439 -1.8081
10372TIP3    H252608   5.115   3.739   3.734  1.9667 -0.0263  0.4234
10373TIP3   OH252609   1.222   1.541  13.149  0.2921  0.3777 -0.4862
10373TIP3    H152610   1.227   1.453  13.111 -0.4693  0.2362 -0.2888
10373TIP3    H252611   1.301   1.549  13.201 -0.5281 -0.9802  1.0824
10374TIP3   OH252612   2.173   0.657   0.900 -0.2728  0.4836  0.2989
10374TIP3    H152613   2.118   0.586   0.933 -0.0202  0.5954  0.9734
10374TIP3    H252614   2.206   0.700   0.979  1.9456 -0.4824 -0.0210
10375TIP3   OH252615   5.123   5.962   0.555  0.6128  0.0749  0.3167
10375TIP3    H152616   5.143   6.028   0.488  0.0158 -0.8097 -0.7505
10375TIP3    H252617   5.095   5.885   0.506 -0.7397 -0.2998  1.6196
10376TIP3   OH252618   2.500   6.690  14.085 -0.5268  0.5070  0.6723
10376TIP3    H152619   2.532   6.651  14.003 -1.1774  0.6733  0.3297
10376TIP3    H252620   2.406   6.704  14.070 -0.7414  0.1668  1.5931
10377TIP3   OH252621   1.846   5.782   2.246 -0.4483  0.3334  0.2829
10377TIP3    H152622   1.778   5.718   2.222 -0.7486  1.4060 -2.0124
10377TIP3    H252623   1.797   5.863   2.263  0.1344  0.7395  0.0465
10378TIP3   OH252624   2.253   1.790   0.688  0.5133 -0.5239  0.3566
10378TIP3    H152625   2.242   1.773   0.782  0.4638 -1.1646  0.2392
10378TIP3    H252626   2.192   1.731   0.646  1.7856 -1.5212 -0.1542
10379TIP3   OH252627   0.741   2.223  11.669 -0.4325  0.1162  0.2343
10379TIP3    H152628   0.649   2.249  11.665 -1.6638 -3.5164  1.0946
10379TIP3    H252629   0.758   2.181  11.584  0.5683  1.0011 -0.0283
10380TIP3   OH252630   2.952   1.422   0.584  0.0569 -1.1636  0.3141
10380TIP3    H152631   2.903   1.412   0.665 -2.0808  2.3431 -0.3258
10380TIP3    H252632   2.943   1.337   0.540 -1.9469 -1.9592  2.0792
10381TIP3   OH252633   2.709   0.808   3.398  0.2951  0.7544  0.1918
10381TIP3    H152634   2.795   0.772   3.421  0.1149  0.3365  0.2315
10381TIP3    H252635   2.705   0.801   3.303  0.2368  0.6025  0.2039
10382TIP3   OH252636   4.547   3.892   1.895 -0.3176 -0.0891  0.3736
10382TIP3    H152637   4.537   3.893   1.990 -1.3378  0.9575  0.2785
10382TIP3    H252638   4.604   3.817   1.878  0.1946 -0.0686  1.8291
10383TIP3   OH252639   5.868   6.924   2.324 -0.1736 -0.7036 -0.2614
10383TIP3    H152640   5.778   6.893   2.313 -0.7757  0.6048  0.7059
10383TIP3    H252641   5.876   6.943   2.417  0.5223  0.8402 -0.5964
10384TIP3   OH252642   4.237   1.089  13.102 -0.4677 -0.0957 -0.3696
10384TIP3    H152643   4.217   1.183  13.102 -1.6104 -0.2969  1.0421
10384TIP3    H252644   4.242   1.065  13.195 -1.8912 -1.7422 -0.6558
10385TIP3   OH252645   1.061   1.172   1.064  0.0590 -0.8480 -0.0846
10385TIP3    H152646   0.980   1.216   1.041  1.8011  3.6799  1.3493
10385TIP3    H252647   1.044   1.133   1.150 -1.1925 -2.0395 -0.8341
10386TIP3   OH252648   5.416   6.388   4.636  0.0260 -0.1456 -0.1113
10386TIP3    H152649   5.471   6.318   4.600  1.3888  0.6806  0.2767
10386TIP3    H252650   5.436   6.387   4.730 -1.8447 -0.8545  0.3114
10387TIP3   OH252651   6.483   4.131   1.126  0.0408 -0.4043  0.8514
10387TIP3    H152652   6.559   4.107   1.072 -0.9697 -1.9207  0.0470
10387TIP3    H252653   6.461   4.050   1.173 -1.0458  0.0360  1.1148
10388TIP3   OH252654   2.131   2.188   1.996  0.4423 -0.5831  0.2071
10388TIP3    H152655   2.186   2.139   2.057  3.4112 -1.9883 -3.2145
10388TIP3    H252656   2.058   2.128   1.977  0.2110 -0.6653  1.2872
10389TIP3   OH252657   6.306   1.478   1.795 -0.0037  0.7404  0.2388
10389TIP3    H152658   6.211   1.486   1.809 -0.0891  1.8729 -0.8307
10389TIP3    H252659   6.343   1.552   1.842  0.1149  1.7498 -1.3799
10390TIP3   OH252660   2.445   0.118   3.201  0.4347  0.2841  0.3845
10390TIP3    H152661   2.479   0.188   3.146  1.0634 -1.2756 -1.3197
10390TIP3    H252662   2.518   0.093   3.257 -0.3336  2.1715  2.3611
10391TIP3   OH252663   3.723   7.051   2.771  0.2782  0.8993 -0.0690
10391TIP3    H152664   3.786   7.080   2.705  0.3927 -0.8659 -0.8047
10391TIP3    H252665   3.776   7.035   2.849  0.4275  1.3005 -0.0850
10392TIP3   OH252666   2.248   0.741   2.497  0.3040 -0.4875  0.3614
10392TIP3    H152667   2.279   0.711   2.583  0.2687  0.0129  0.5546
10392TIP3    H252668   2.211   0.663   2.456 -0.1471 -0.6256  1.0140
10393TIP3   OH252669   4.256   5.483   2.655  0.0146  0.1022 -0.0653
10393TIP3    H152670   4.282   5.398   2.691  2.1024  0.3500 -0.8379
10393TIP3    H252671   4.162   5.488   2.672 -0.3093 -2.6241 -0.5377
10394TIP3   OH252672   0.061   5.754  10.881 -0.0915  0.0151 -0.2240
10394TIP3    H152673   0.124   5.724  10.947  0.7558 -0.7399 -1.3330
10394TIP3    H252674  -0.024   5.749  10.925  0.4299 -0.6384  0.7526
10395TIP3   OH252675   4.915   5.561  12.937 -0.1513  0.0729 -0.3114
10395TIP3    H152676   4.983   5.503  12.971 -0.1957 -1.4712 -2.6488
10395TIP3    H252677   4.860   5.580  13.014 -1.2199 -4.5049  0.3848
10396TIP3   OH252678   3.484   0.289   0.611  0.3516 -0.4349  0.1015
10396TIP3    H152679   3.391   0.298   0.631  0.6021 -0.0316  1.2060
10396TIP3    H252680   3.518   0.379   0.619  0.2347  0.1175 -3.8301
10397TIP3   OH252681   4.519   3.793   2.686  0.2124  0.0726 -0.3742
10397TIP3    H152682   4.457   3.725   2.660 -0.1357  0.2443  0.0006
10397TIP3    H252683   4.469   3.874   2.681  0.5608  0.2781 -0.5903
10398TIP3   OH252684   2.185   4.165   3.549  0.1660 -0.3494 -0.0904
10398TIP3    H152685   2.179   4.083   3.598 -0.7550  0.2313  0.8115
10398TIP3    H252686   2.270   4.201   3.572  0.3103 -0.7446  0.0027
10399TIP3   OH252687   3.824   0.659  11.091  0.4135 -0.0932 -0.5702
10399TIP3    H152688   3.836   0.611  11.009  3.1256 -0.3432 -0.1139
10399TIP3    H252689   3.846   0.750  11.069  3.6590 -0.5415  0.2660
10400TIP3   OH252690   6.414   0.205   4.239  0.3237 -0.1130 -0.0788
10400TIP3    H152691   6.492   0.231   4.190 -0.3819 -0.0883 -1.2510
10400TIP3    H252692   6.404   0.112   4.219 -0.0336 -0.0768 -0.0738
10401TIP3   OH252693   4.281   0.096  12.021 -0.3854  0.0628  0.2889
10401TIP3    H152694   4.259   0.165  11.958  0.0773 -1.3313 -1.5052
10401TIP3    H252695   4.231   0.117  12.099 -0.2862  2.3897 -0.2128
10402TIP3   OH252696   6.835   1.745  13.641  0.8465  0.3535  0.6373
10402TIP3    H152697   6.874   1.827  13.610  2.9019 -0.5719  0.5780
10402TIP3    H252698   6.890   1.719  13.715 -1.0111  0.0215  1.9799
10403TIP3   OH252699   7.173   1.588   2.269 -0.1844 -0.1343  0.0073
10403TIP3    H152700   7.229   1.573   2.345 -1.5480  2.1239  1.5822
10403TIP3    H252701   7.230   1.631   2.206  0.0753  1.5710  1.3357
10404TIP3   OH252702   7.046   2.834   3.137 -0.2519 -0.0893 -0.2450
10404TIP3    H152703   6.959   2.872   3.122 -0.0379  0.4576 -0.1049
10404TIP3    H252704   7.076   2.872   3.219 -0.6013 -1.6071  0.6246
10405TIP3   OH252705   6.828   6.770  14.315  0.6746  0.1168 -0.2220
10405TIP3    H152706   6.749   6.785  14.367 -1.3770  1.1548 -3.3358
10405TIP3    H252707   6.896   6.821  14.359 -1.2224  1.9146  0.7932
10406TIP3   OH252708   5.153   1.645   5.201  0.0867 -0.0805 -0.2470
10406TIP3    H152709   5.201   1.634   5.284 -0.9921  1.1794  0.5914
10406TIP3    H252710   5.116   1.558   5.184  0.1608 -0.3152  0.7071
10407TIP3   OH252711   0.805   4.335   0.094  0.0280 -0.2409  0.2973
10407TIP3    H152712   0.779   4.298   0.010  0.8546 -2.4160  0.9269
10407TIP3    H252713   0.827   4.426   0.074 -0.2643 -0.5612 -1.7356
10408TIP3   OH252714   0.436   5.601   2.414  0.3390 -0.0497 -0.3966
10408TIP3    H152715   0.522   5.636   2.391  0.3496  1.3898  1.5118
10408TIP3    H252716   0.375   5.673   2.395 -0.3904 -0.8789 -1.2626
10409TIP3   OH252717   4.203   4.384   3.252 -1.3359 -0.6464  0.7507
10409TIP3    H152718   4.150   4.341   3.185  0.2112  0.2328 -1.1209
10409TIP3    H252719   4.294   4.360   3.230 -0.8078 -0.8293  2.9143
10410TIP3   OH252720   6.011   6.843  13.919  0.3875  0.2911  0.0418
10410TIP3    H152721   6.092   6.883  13.952  0.3271  0.5503 -0.1247
10410TIP3    H252722   5.950   6.850  13.992 -0.1525  2.0302 -0.5320
10411TIP3   OH252723   6.533   2.157   4.680 -0.0349 -0.4682 -0.6332
10411TIP3    H152724   6.595   2.084   4.674  0.8516  0.1699  0.3260
10411TIP3    H252725   6.584   2.228   4.720 -0.4170  1.2073 -2.9565
10412TIP3   OH252726   2.635   4.129   4.375 -0.2779 -0.1630 -0.1795
10412TIP3    H152727   2.592   4.184   4.441 -0.9227  0.8544 -1.4100
10412TIP3    H252728   2.582   4.050   4.371 -2.1640  1.0898 -1.7040
10413TIP3   OH252729   2.707   4.126   0.333 -0.0513 -0.2871 -0.2361
10413TIP3    H152730   2.688   4.114   0.426  1.4175  0.6382  0.2216
10413TIP3    H252731   2.667   4.050   0.291 -1.4754 -0.3049  1.0247
10414TIP3   OH252732   1.905   2.818   5.190  0.0819  0.6039 -0.5771
10414TIP3    H152733   1.979   2.802   5.131  0.0641  1.9871 -1.0358
10414TIP3    H252734   1.871   2.904   5.162  0.0815  1.3205  1.4574
10415TIP3   OH252735   0.405   2.583  10.906  0.0895 -0.1588  0.1141
10415TIP3    H152736   0.481   2.526  10.891  0.4682  0.6677 -1.2646
10415TIP3    H252737   0.442   2.672  10.909 -0.8767  0.3122 -1.2103
10416TIP3   OH252738   3.738   2.110   4.501  0.3044 -0.1130 -0.5122
10416TIP3    H152739   3.721   2.161   4.580  2.4979 -0.8754  0.5241
10416TIP3    H252740   3.669   2.137   4.440 -0.7322  1.3874  1.2220
10417TIP3   OH252741   0.516   3.650   0.988  0.7633  0.3997 -0.2963
10417TIP3    H152742   0.578   3.683   0.924  1.3825  0.7670  0.4664
10417TIP3    H252743   0.530   3.555   0.988  0.7801  0.4015 -0.6832
10418TIP3   OH252744   0.112   1.668  15.267 -0.0146  0.3701  0.2778
10418TIP3    H152745   0.180   1.678  15.334  0.9079  0.0096 -0.5834
10418TIP3    H252746   0.038   1.630  15.314  0.1612  1.2992  1.3498
10419TIP3   OH252747   6.773   2.696   1.191 -0.2399  0.1020 -0.0447
10419TIP3    H152748   6.725   2.774   1.166 -1.0902 -0.4311 -0.1003
10419TIP3    H252749   6.802   2.713   1.280  1.7500  1.5063 -0.8792
10420TIP3   OH252750   2.328   2.703  10.977 -0.2880  0.1706 -0.3190
10420TIP3    H152751   2.364   2.624  10.936 -0.9578  0.5393 -1.6635
10420TIP3    H252752   2.353   2.774  10.918 -1.3067  0.7222 -0.1004
10421TIP3   OH252753   5.495   2.947   1.036  0.1534  0.4138  0.2948
10421TIP3    H152754   5.549   3.004   1.090  1.6728  0.7567 -1.4770
10421TIP3    H252755   5.406   2.981   1.046  0.9964  3.1365 -0.6838
10422TIP3   OH252756   6.655   6.994   3.681  0.3238  0.3518 -0.0259
10422TIP3    H152757   6.705   6.912   3.679 -0.8393 -0.4359  1.4853
10422TIP3    H252758   6.566   6.968   3.657  0.0839  1.3189 -0.2404
10423TIP3   OH252759   4.487   3.961   0.045  0.2303 -0.3367 -1.0071
10423TIP3    H152760   4.407   3.908   0.047 -0.8545  1.2403  0.8660
10423TIP3    H252761   4.556   3.903   0.079 -0.4066 -1.2695 -1.2668
10424TIP3   OH252762   4.320   3.619  15.030 -0.9559 -0.1994  0.1801
10424TIP3    H152763   4.349   3.689  14.972  0.7830 -1.0608 -0.0657
10424TIP3    H252764   4.395   3.560  15.035 -2.1889 -1.7812  0.7871
10425TIP3   OH252765   5.232   1.926  10.890  0.1803 -0.2854 -0.0291
10425TIP3    H152766   5.175   1.886  10.956 -1.2459  2.6066  0.6811
10425TIP3    H252767   5.190   1.904  10.806 -0.6779 -0.1459  0.3473
10426TIP3   OH252768   5.851   5.444   4.383 -0.0008  0.3896  0.5800
10426TIP3    H152769   5.848   5.366   4.438  0.5591 -0.2957 -0.3398
10426TIP3    H252770   5.882   5.413   4.298  2.0496  1.8880  0.6944
10427TIP3   OH252771   2.250   6.063  13.202 -0.0764 -0.1921 -0.2977
10427TIP3    H152772   2.304   6.126  13.249 -1.3493 -1.2223  2.8061
10427TIP3    H252773   2.281   5.978  13.232 -2.2358 -0.8359  0.2948
10428TIP3   OH252774   1.145   4.309   3.541 -0.0039  0.3286  0.7735
10428TIP3    H152775   1.121   4.246   3.609  1.9891 -2.6786 -1.0749
10428TIP3    H252776   1.193   4.377   3.588 -0.0963 -0.7964  2.6054
10429TIP3   OH252777   2.047   5.236   5.585 -0.4707  0.1854  0.2821
10429TIP3    H152778   2.013   5.262   5.671  0.4073  0.0880  0.6681
10429TIP3    H252779   2.072   5.144   5.596 -0.3503  0.1728 -0.0786
10430TIP3   OH252780   0.662   6.264   0.306  0.1357 -0.2389 -0.2215
10430TIP3    H152781   0.699   6.335   0.359  0.1405  1.1766 -2.0316
10430TIP3    H252782   0.610   6.309   0.239  1.8339 -1.7837 -2.7404
10431TIP3   OH252783   6.794   2.991   0.357 -0.0301 -0.6666 -0.1355
10431TIP3    H152784   6.724   3.049   0.327  0.2652  0.0834  0.5900
10431TIP3    H252785   6.800   2.923   0.289 -2.9242 -2.0068  0.7799
10432TIP3   OH252786   4.757   5.441   3.089 -0.4556  0.2860 -0.3344
10432TIP3    H152787   4.764   5.519   3.143  1.1052  0.2719 -0.4595
10432TIP3    H252788   4.769   5.368   3.151 -0.1869  0.2180 -0.4632
10433TIP3   OH252789   3.807   0.201  13.791 -0.1296  0.3230 -0.0300
10433TIP3    H152790   3.820   0.118  13.744  0.1605 -0.3869  1.2544
10433TIP3    H252791   3.783   0.174  13.880 -1.4973  1.6344  0.0204
10434TIP3   OH252792   4.308   1.429   0.500 -0.3139 -0.2633 -0.2079
10434TIP3    H152793   4.291   1.453   0.591 -1.0692 -0.6647 -0.2318
10434TIP3    H252794   4.306   1.512   0.452  0.4421 -0.0113  0.1891
10435TIP3   OH252795   6.499   1.610  11.247  0.1055  0.6959  0.4832
10435TIP3    H152796   6.572   1.572  11.197 -0.5203 -2.4832  1.7437
10435TIP3    H252797   6.434   1.632  11.181  0.1877 -1.3307 -0.3512
10436TIP3   OH252798   6.896   6.278  14.008  0.5035 -0.5214 -0.2701
10436TIP3    H152799   6.941   6.361  13.992 -0.3486  0.2804  1.2950
10436TIP3    H252800   6.923   6.252  14.096 -0.9197 -0.7812  0.1137
10437TIP3   OH252801   4.867   1.079   4.609 -0.3258 -0.2119 -0.3223
10437TIP3    H152802   4.885   1.171   4.629  0.1029 -0.3897  0.1472
10437TIP3    H252803   4.779   1.079   4.571 -0.9906  0.2091  1.1585
10438TIP3   OH252804   2.765   5.039   3.634  0.8280 -0.0722  0.1851
10438TIP3    H152805   2.803   5.007   3.552 -0.7787 -0.9538 -0.2519
10438TIP3    H252806   2.698   5.102   3.607  1.4926  0.9720  0.9117
10439TIP3   OH252807   0.561   4.958   2.077 -0.2678  0.0572 -0.7045
10439TIP3    H152808   0.548   4.969   2.171  1.1181  1.0769 -0.5996
10439TIP3    H252809   0.479   4.920   2.046 -0.2819 -1.5558  1.0921
10440TIP3   OH252810   0.601   0.066  14.075  0.9518 -0.4140  0.4999
10440TIP3    H152811   0.627   0.154  14.050  0.9306 -0.5177  0.1066
10440TIP3    H252812   0.506   0.064  14.058  0.9095 -0.4392  0.7315
10441TIP3   OH252813   6.353   6.770  15.361  0.5080  0.3815  0.0171
10441TIP3    H152814   6.421   6.726  15.310 -0.0124 -0.7659  0.2778
10441TIP3    H252815   6.375   6.749  15.452  1.1451  1.9931  0.2720
10442TIP3   OH252816   2.429   0.309   4.268  0.6017 -0.6635 -0.1926
10442TIP3    H152817   2.504   0.369   4.264  1.8763 -2.1822 -0.1325
10442TIP3    H252818   2.405   0.295   4.176  0.5729 -0.4007 -0.2261
10443TIP3   OH252819   3.499   5.957   4.357 -0.4548  0.2866 -0.5914
10443TIP3    H152820   3.580   5.977   4.310 -0.4670 -0.0228 -0.7434
10443TIP3    H252821   3.514   5.990   4.446 -0.5862  1.2514 -0.9097
10444TIP3   OH252822   3.202   5.125   3.273  0.3027  0.4820  0.0145
10444TIP3    H152823   3.165   5.133   3.185  0.6301 -0.8670 -0.2676
10444TIP3    H252824   3.127   5.108   3.329  0.2235  0.1372 -0.1929
10445TIP3   OH252825   6.501   0.908   4.646  0.4078 -0.2074 -0.0864
10445TIP3    H152826   6.540   0.887   4.731  0.3688 -1.0312 -0.2661
10445TIP3    H252827   6.564   0.876   4.582 -0.1078 -0.6702 -0.3709
10446TIP3   OH252828   1.644   1.791   0.904  0.2577 -0.0057 -0.3583
10446TIP3    H152829   1.651   1.846   0.826 -1.3748  0.3342 -0.3195
10446TIP3    H252830   1.626   1.704   0.870  0.1959  0.0189 -0.3911
10447TIP3   OH252831   5.103   5.765   5.149 -0.0956  0.0415  0.1626
10447TIP3    H152832   5.119   5.725   5.064 -0.3210 -1.1806  0.6754
10447TIP3    H252833   5.190   5.775   5.188  0.0583  1.1585 -0.4398
10448TIP3   OH252834   0.633   2.954  12.111  0.0498  0.2395 -0.6364
10448TIP3    H152835   0.545   2.946  12.149 -0.0146 -0.4473 -0.9217
10448TIP3    H252836   0.678   2.874  12.138  1.1330  1.3033  0.8687
10449TIP3   OH252837   3.225   4.330   5.577 -0.8773 -0.2157  0.0487
10449TIP3    H152838   3.173   4.309   5.655 -0.2488  0.1337  0.5668
10449TIP3    H252839   3.196   4.418   5.552 -2.0129 -0.8129 -0.9019
10450TIP3   OH252840   0.876   1.086   1.570 -0.0005  0.0573 -0.1889
10450TIP3    H152841   0.828   1.015   1.613  0.5380 -0.0308  0.2800
10450TIP3    H252842   0.891   1.150   1.640 -1.0822  0.9677 -0.7534
10451TIP3   OH252843   4.350   4.919   3.032 -0.1778 -0.0141  0.4362
10451TIP3    H152844   4.273   4.966   3.002 -0.0953  0.1072  0.4173
10451TIP3    H252845   4.315   4.854   3.094 -0.2415  0.3758  0.8151
10452TIP3   OH252846   6.706   0.772   5.169  0.0157 -0.1757 -0.6614
10452TIP3    H152847   6.625   0.776   5.219  0.0291  0.4070 -0.6841
10452TIP3    H252848   6.770   0.734   5.229  0.0013  0.4052 -0.2777
10453TIP3   OH252849   5.803   2.114  10.736  0.7557  0.9007 -0.2187
10453TIP3    H152850   5.782   2.047  10.801  2.4604  0.4136 -0.1233
10453TIP3    H252851   5.723   2.165  10.727 -0.4617 -0.8842  0.0267
10454TIP3   OH252852   2.214   3.990   3.071  0.5519  1.1798 -0.3206
10454TIP3    H152853   2.152   4.022   3.137  0.0094  1.0107 -0.7376
10454TIP3    H252854   2.166   3.996   2.989  0.7935  0.2472 -0.5402
10455TIP3   OH252855   6.077   3.496   3.651  0.3350  0.1511 -0.3862
10455TIP3    H152856   6.168   3.464   3.646  0.1396 -0.2360 -2.6524
10455TIP3    H252857   6.085   3.591   3.649  0.7242  0.1425  0.5483
10456TIP3   OH252858   6.168   4.296   4.821  0.2559  0.0365 -0.1196
10456TIP3    H152859   6.116   4.218   4.803  1.3681 -0.6195 -0.5765
10456TIP3    H252860   6.200   4.284   4.910  0.5835 -0.1217 -0.2581
10457TIP3   OH252861   1.799   1.128   1.041 -0.1958 -0.2113  0.3711
10457TIP3    H152862   1.794   1.102   1.133  0.3147 -1.1261  0.1489
10457TIP3    H252863   1.713   1.167   1.023 -0.1636  0.3396  1.3348
10458TIP3   OH252864   2.525   5.398   1.648 -0.0109 -0.5766  0.2291
10458TIP3    H152865   2.554   5.457   1.718  1.8875 -1.1100 -0.0550
10458TIP3    H252866   2.543   5.445   1.567  0.1524 -0.9580  0.0411
10459TIP3   OH252867   2.290   0.905   4.897  0.1599  0.3439 -0.0257
10459TIP3    H152868   2.333   0.888   4.980  0.6740  1.5476 -0.0151
10459TIP3    H252869   2.200   0.877   4.910  0.7113 -1.3974  0.2418
10460TIP3   OH252870   4.877   6.831  11.110  0.0517 -0.3126  0.4496
10460TIP3    H152871   4.838   6.745  11.122 -0.2233 -0.1279  0.8820
10460TIP3    H252872   4.810   6.882  11.066  0.5295 -0.5650 -0.6038
10461TIP3   OH252873   6.777   5.449   2.981  0.2317  0.3949 -0.1661
10461TIP3    H152874   6.798   5.356   2.971  0.4011  0.4219 -0.0680
10461TIP3    H252875   6.858   5.494   2.958  1.4832  0.4036  3.5503
10462TIP3   OH252876   5.723   5.783   3.270  0.4402 -0.1806 -0.3012
10462TIP3    H152877   5.722   5.760   3.363 -1.0004 -1.7828 -0.6502
10462TIP3    H252878   5.631   5.776   3.243  0.5647  1.9690 -1.4776
10463TIP3   OH252879   2.366   0.571   5.022 -0.3848  0.4226  0.3017
10463TIP3    H152880   2.332   0.606   5.104 -0.6986 -0.3583  0.5211
10463TIP3    H252881   2.416   0.493   5.048  1.3260  1.3586 -0.0436
10464TIP3   OH252882   1.668   1.784   4.168  0.3421  0.9839 -0.4363
10464TIP3    H152883   1.692   1.709   4.113  1.0344  0.1087  1.0123
10464TIP3    H252884   1.751   1.821   4.197 -0.0053  1.2252  0.2843
10465TIP3   OH252885   2.822   2.578  15.076 -0.5187  0.3975  0.0491
10465TIP3    H152886   2.844   2.499  15.027 -3.1574  1.3356 -3.0117
10465TIP3    H252887   2.881   2.645  15.040 -0.2119  0.4325  0.6050
10466TIP3   OH252888   4.652   0.565  14.121 -0.2594 -0.1284  0.8364
10466TIP3    H152889   4.688   0.643  14.078 -1.8054  0.8632  1.2714
10466TIP3    H252890   4.724   0.535  14.178  1.1330 -0.3625 -0.9595
10467TIP3   OH252891   0.297   0.070  11.393  0.3019 -0.1029 -0.3841
10467TIP3    H152892   0.281   0.163  11.381 -1.3946 -0.5440 -2.0312
10467TIP3    H252893   0.286   0.055  11.486 -3.1450  0.7657 -0.5196
10468TIP3   OH252894   3.961   3.375   4.437 -0.2113 -0.3747 -0.2642
10468TIP3    H152895   3.876   3.355   4.399 -0.6647  0.5861  0.2363
10468TIP3    H252896   3.942   3.423   4.518  0.8103  0.2559 -0.3756
10469TIP3   OH252897   2.804   3.562   0.193 -0.5432  0.2336  0.0107
10469TIP3    H152898   2.869   3.563   0.123 -0.9300  1.0439 -0.3462
10469TIP3    H252899   2.846   3.514   0.264  0.6563  1.2073 -0.0110
10470TIP3   OH252900   0.623   0.983   2.746  0.3062 -0.1723 -0.2008
10470TIP3    H152901   0.574   0.922   2.801 -1.6085  0.8636 -0.6759
10470TIP3    H252902   0.664   1.044   2.808 -0.2878 -0.1319  0.1555
10471TIP3   OH252903   2.365   1.997   5.344  0.1952  0.4863  0.5728
10471TIP3    H152904   2.295   1.966   5.287 -0.3559  1.7246  0.5506
10471TIP3    H252905   2.387   1.922   5.399 -2.0469  0.4504  1.4886
10472TIP3   OH252906   0.921   6.999   2.192 -0.6690 -0.2426 -0.0288
10472TIP3    H152907   0.869   7.051   2.130 -0.7417 -0.3959 -0.0966
10472TIP3    H252908   0.882   7.016   2.277 -1.2984 -0.9437 -0.1763
10473TIP3   OH252909   6.131   7.057  11.096 -0.0603 -0.4077 -0.3797
10473TIP3    H152910   6.063   7.049  11.030 -0.8193  0.1652  0.3151
10473TIP3    H252911   6.168   6.969  11.103  0.3758 -0.3697 -1.9022
10474TIP3   OH252912   1.462   2.559   0.445  0.8514  0.2155 -0.2401
10474TIP3    H152913   1.396   2.566   0.375 -1.0630 -1.9717  1.1854
10474TIP3    H252914   1.440   2.630   0.505  2.2316  1.8305 -1.5518
10475TIP3   OH252915   3.434   0.913   1.570  0.1893 -0.9135  0.3301
10475TIP3    H152916   3.392   0.854   1.632  1.2968 -1.5706  0.4807
10475TIP3    H252917   3.422   0.871   1.485  0.6537 -1.1882  0.3931
10476TIP3   OH252918   3.986   0.321   3.485  0.1181  0.0720  0.3785
10476TIP3    H152919   3.975   0.234   3.524  1.8125 -0.0225  0.6952
10476TIP3    H252920   3.916   0.373   3.525  1.5989 -0.0881  3.4299
10477TIP3   OH252921   6.715   3.339   3.389 -0.2199  0.6392 -0.1061
10477TIP3    H152922   6.764   3.415   3.359 -0.6552  0.6459 -0.8015
10477TIP3    H252923   6.783   3.280   3.424  0.5733 -0.2619 -2.9298
10478TIP3   OH252924   2.176   3.760   3.290  0.7831  0.4124 -0.0102
10478TIP3    H152925   2.087   3.795   3.292 -0.2191 -1.8273 -1.2226
10478TIP3    H252926   2.211   3.790   3.206  0.0388 -1.0982 -0.9039
10479TIP3   OH252927   6.404   6.916   2.679  0.3143  0.2402  0.1729
10479TIP3    H152928   6.420   7.005   2.649 -3.5621  0.6143 -1.3175
10479TIP3    H252929   6.397   6.924   2.774  1.4987  1.1849  0.2074
10480TIP3   OH252930   6.693   4.917   3.167 -0.2779 -0.4114 -0.2525
10480TIP3    H152931   6.780   4.887   3.191  0.6039  0.8676 -1.6708
10480TIP3    H252932   6.660   4.850   3.107  0.4889 -0.0223 -1.1281
10481TIP3   OH252933   4.970   6.640  14.734  0.5734  0.6674 -0.0021
10481TIP3    H152934   4.947   6.582  14.661 -1.6514 -0.5076  1.4775
10481TIP3    H252935   5.054   6.607  14.766  0.3150 -0.4713 -0.4500
10482TIP3   OH252936   6.083   2.344   1.426  0.3739 -0.2562  0.0272
10482TIP3    H152937   6.123   2.359   1.512  0.6323 -1.1394  0.0686
10482TIP3    H252938   6.033   2.263   1.437  0.1729 -0.2182 -0.5782
10483TIP3   OH252939   5.492   0.594  10.596  0.4115 -0.4806 -0.4030
10483TIP3    H152940   5.584   0.615  10.611  0.1446  0.8086 -0.5229
10483TIP3    H252941   5.490   0.558  10.507  0.5810  1.0122 -1.0291
10484TIP3   OH252942   6.210   4.507  10.621 -0.3076 -0.4520  0.1962
10484TIP3    H152943   6.211   4.474  10.531 -1.6986  0.1360 -0.0627
10484TIP3    H252944   6.290   4.559  10.628  0.2781 -1.2409 -0.3980
10485TIP3   OH252945   2.895   6.949   0.127 -0.6975  0.4664  0.1083
10485TIP3    H152946   2.970   7.001   0.099 -0.0582 -0.6555 -0.3317
10485TIP3    H252947   2.871   6.898   0.049 -1.7090  0.5687  0.3416
10486TIP3   OH252948   0.404   0.341   2.942 -0.5106 -0.2158  0.2598
10486TIP3    H152949   0.338   0.305   3.001  0.2400 -0.7070  0.8324
10486TIP3    H252950   0.361   0.347   2.857 -0.8427 -2.0145  0.2603
10487TIP3   OH252951   2.274   4.438   0.044 -0.3979  0.1156  0.4518
10487TIP3    H152952   2.352   4.494   0.046 -0.0688 -0.3385  0.3971
10487TIP3    H252953   2.308   4.349   0.048 -0.9669 -0.0673  1.5329
10488TIP3   OH252954   3.739   4.182   0.699  0.5830 -0.4564  0.6243
10488TIP3    H152955   3.649   4.176   0.729  0.3802  0.2210  0.1825
10488TIP3    H252956   3.732   4.204   0.606  1.2012 -0.7947  0.4877
10489TIP3   OH252957   2.740   2.920   0.346  0.2151 -0.1289 -0.1133
10489TIP3    H152958   2.786   2.971   0.279  0.7454 -0.0523  0.3009
10489TIP3    H252959   2.768   2.830   0.330 -0.3690 -0.2427 -0.5585
10490TIP3   OH252960   7.133   0.479   2.181  0.0070 -0.3179  0.4288
10490TIP3    H152961   7.069   0.539   2.143  0.2639  1.1079  2.1082
10490TIP3    H252962   7.108   0.474   2.273 -0.4053 -3.3864  0.2259
10491TIP3   OH252963   5.441   1.022   5.109  0.3192  0.1658 -0.0233
10491TIP3    H152964   5.479   1.003   5.194  1.6699  2.6827  0.0391
10491TIP3    H252965   5.433   0.937   5.066 -0.6487 -1.1830  2.6732
10492TIP3   OH252966   2.677   3.418   2.533  0.1796  0.0792  0.3892
10492TIP3    H152967   2.655   3.349   2.595 -1.0773 -0.0719 -0.1854
10492TIP3    H252968   2.674   3.376   2.447  0.2824  0.6472  0.0998
10493TIP3   OH252969   0.704   4.921  14.236 -0.0778  0.5521  0.2442
10493TIP3    H152970   0.634   4.869  14.196 -0.0322  0.9204 -0.3310
10493TIP3    H252971   0.707   5.001  14.184  1.4493  0.1174 -0.3967
10494TIP3   OH252972   4.054   1.672  13.320 -0.5600  0.1555 -0.1046
10494TIP3    H152973   4.096   1.590  13.345 -1.3227 -0.1908  0.0677
10494TIP3    H252974   4.025   1.658  13.230 -1.9051 -0.2783  0.3717
10495TIP3   OH252975   2.507   2.281  15.201 -0.3800  0.0288 -0.5539
10495TIP3    H152976   2.427   2.317  15.162 -1.2032 -0.7933  0.3304
10495TIP3    H252977   2.476   2.227  15.274  1.1313  1.8767  1.5693
10496TIP3   OH252978   4.570   6.855   4.286  0.1348 -0.5061 -0.0783
10496TIP3    H152979   4.635   6.880   4.220  0.1311 -0.2019  0.0292
10496TIP3    H252980   4.488   6.892   4.253 -0.0355 -1.0990 -0.3382
10497TIP3   OH252981   4.211   3.427   1.900  0.5327  0.6672  0.1434
10497TIP3    H152982   4.170   3.400   1.983 -0.0768  0.6866 -0.1472
10497TIP3    H252983   4.304   3.409   1.913  1.1422  4.2202  2.3252
10498TIP3   OH252984   0.158   0.014   5.498  0.0559  0.0469 -0.2347
10498TIP3    H152985   0.179   0.093   5.547  2.6307  0.4320 -1.8295
10498TIP3    H252986   0.074   0.034   5.455  0.1337  1.4706  0.2345
10499TIP3   OH252987   1.627   2.934   2.806  0.6979 -0.1828  0.3850
10499TIP3    H152988   1.561   2.985   2.758  1.8367 -1.6636 -3.1319
10499TIP3    H252989   1.623   2.847   2.766  1.4909 -1.7487  3.4529
10500TIP3   OH252990   3.663   0.957  14.132 -0.1399 -0.7164 -0.9797
10500TIP3    H152991   3.717   0.905  14.192 -1.5034 -1.9992 -0.7999
10500TIP3    H252992   3.677   0.918  14.046  0.9961  0.4571 -1.3678
10501TIP3   OH252993   0.982   6.385   2.622 -0.5262 -0.1349 -0.5253
10501TIP3    H152994   1.040   6.355   2.692  0.3858  0.3773 -1.0384
10501TIP3    H252995   1.042   6.418   2.554 -1.4154  0.1747 -1.1731
10502TIP3   OH252996   3.989   1.204   0.270 -0.0523  0.7234  0.2937
10502TIP3    H152997   3.904   1.221   0.230  0.5450  0.9260 -0.9366
10502TIP3    H252998   3.983   1.243   0.357 -1.7711 -0.7053  0.8742
10503TIP3   OH252999   2.059   0.744   4.961  0.0739 -0.4930  0.0203
10503TIP3    H153000   2.076   0.669   5.017 -2.6267 -1.2293 -0.0047
10503TIP3    H253001   2.048   0.707   4.874 -1.9135 -0.2078  0.1086
10504TIP3   OH253002   1.862   0.615  13.265 -0.5060  0.3587 -0.0507
10504TIP3    H153003   1.868   0.528  13.305  0.5754  2.1086  4.1508
10504TIP3    H253004   1.775   0.647  13.289 -0.3772  0.9657 -0.3528
10505TIP3   OH253005   4.613   5.919   3.500 -0.2163  0.2518  0.2440
10505TIP3    H153006   4.646   5.896   3.587  2.9576  0.8976 -0.6469
10505TIP3    H253007   4.598   5.835   3.457  1.5363 -0.1528  0.3354
10506TIP3   OH253008   0.409   1.159  10.645 -0.2565  0.0893  0.4769
10506TIP3    H153009   0.454   1.087  10.690 -1.5544 -0.7128  0.5381
10506TIP3    H253010   0.479   1.222  10.624  0.5044  0.1513  2.9183
10507TIP3   OH253011   1.036   4.151  15.327  0.0224 -0.1266  0.0776
10507TIP3    H153012   1.109   4.200  15.291  0.2086 -0.4688 -0.0201
10507TIP3    H253013   0.961   4.209  15.318  0.2404  0.1426 -0.0232
10508TIP3   OH253014   7.114   6.536   1.820  0.2824 -0.7756  0.5773
10508TIP3    H153015   7.209   6.533   1.816  0.3337 -0.0066  1.0546
10508TIP3    H253016   7.088   6.447   1.844  0.8713 -0.9919  0.4304
10509TIP3   OH253017   3.004   6.552   1.205  0.1404  0.2353  0.8297
10509TIP3    H153018   2.915   6.522   1.223  0.7865 -1.6118  1.1477
10509TIP3    H253019   3.011   6.550   1.109 -0.4081  1.2043  0.7597
10510TIP3   OH253020   1.043   6.309  14.599 -0.6250 -0.0564 -0.9162
10510TIP3    H153021   1.022   6.392  14.641 -0.2293 -0.9358  1.1466
10510TIP3    H253022   1.123   6.326  14.549 -1.5638  1.2266 -2.0202
10511TIP3   OH253023   0.835   4.488   3.548  0.1093 -0.1879  0.3847
10511TIP3    H153024   0.882   4.481   3.465  0.5291 -1.6517  0.7189
10511TIP3    H253025   0.878   4.559   3.595  3.2782 -2.6025  1.4397
10512TIP3   OH253026   1.038   0.484  11.581  0.3256  0.3832 -0.0530
10512TIP3    H153027   1.068   0.562  11.534  0.4442  0.2141 -0.2567
10512TIP3    H253028   0.964   0.452  11.530  0.0411  0.5747  0.2347
10513TIP3   OH253029   6.487   3.721   2.453  0.4172 -0.2082 -0.2650
10513TIP3    H153030   6.471   3.630   2.478  0.4946 -0.2672 -0.4270
10513TIP3    H253031   6.412   3.770   2.487  0.6938 -0.2355  0.3891
10514TIP3   OH253032   1.076   4.888   0.444 -0.2620  0.6288  0.1585
10514TIP3    H153033   1.066   4.839   0.525  1.2567 -1.4677 -0.8268
10514TIP3    H253034   1.166   4.921   0.447 -0.0082  0.0761 -0.8625
10515TIP3   OH253035   5.956   2.233   1.824  0.2665 -0.3938  0.4614
10515TIP3    H153036   5.909   2.264   1.901  1.7729  0.2708  1.1719
10515TIP3    H253037   6.012   2.162   1.858 -0.7323 -1.6925 -0.5025
10516TIP3   OH253038   4.873   1.599  14.370  0.3066 -0.2687  0.1258
10516TIP3    H153039   4.837   1.687  14.360 -0.0440 -0.2663  1.2019
10516TIP3    H253040   4.839   1.549  14.296  1.2521  0.7256 -1.0047
10517TIP3   OH253041   7.076   6.581   5.344 -0.7022 -0.2261 -0.3854
10517TIP3    H153042   7.061   6.604   5.253 -0.2067 -0.2981 -0.4882
10517TIP3    H253043   7.171   6.567   5.350 -0.9912 -2.3378 -0.3428
10518TIP3   OH253044   3.820   1.731   4.873  0.0164 -0.4306  0.3665
10518TIP3    H153045   3.753   1.778   4.824  1.1446 -0.5116 -1.3000
10518TIP3    H253046   3.781   1.718   4.960 -2.0037 -0.2329 -0.4660
10519TIP3   OH253047   5.477   2.387  11.220  0.2931  0.0193 -0.0858
10519TIP3    H153048   5.461   2.376  11.127 -0.1387 -0.0242 -0.0049
10519TIP3    H253049   5.429   2.316  11.262  1.6852 -0.8731  0.0757
10520TIP3   OH253050   4.024   6.667   4.793 -0.0828 -0.1553  0.1504
10520TIP3    H153051   4.050   6.743   4.741  1.9135 -0.7688  0.1558
10520TIP3    H253052   4.004   6.702   4.880  1.2139  0.3392  0.2723
10521TIP3   OH253053   0.544   1.946  13.297 -0.5058 -0.3489  1.0471
10521TIP3    H153054   0.594   1.896  13.233  0.4475  0.1579  1.3789
10521TIP3    H253055   0.574   2.037  13.287 -1.8980  0.1169  0.7443
10522TIP3   OH253056   0.115   2.359   4.839  0.4607  0.2152  0.3479
10522TIP3    H153057   0.036   2.332   4.792  0.8085  1.3118 -0.9697
10522TIP3    H253058   0.092   2.443   4.878  0.6732  0.0687  0.7895
10523TIP3   OH253059   4.506   6.328   0.657 -0.5890  0.0592  0.1230
10523TIP3    H153060   4.590   6.314   0.700  0.0749 -2.8103 -1.7996
10523TIP3    H253061   4.445   6.269   0.702 -1.7736  2.3058  1.6774
10524TIP3   OH253062   4.246   6.441   0.496  0.1702 -0.5252  0.2079
10524TIP3    H153063   4.273   6.483   0.577  1.6216  0.6890 -0.8471
10524TIP3    H253064   4.171   6.387   0.520 -0.3591  0.9503  2.0543
10525TIP3   OH253065   5.027   3.251   3.013 -0.5236 -0.4782 -0.2538
10525TIP3    H153066   4.944   3.232   2.970 -0.0698  0.0784 -1.4307
10525TIP3    H253067   5.020   3.343   3.041 -0.5310 -0.6149  0.2035
10526TIP3   OH253068   3.460   3.805   0.502 -0.0375  0.7316  0.1569
10526TIP3    H153069   3.379   3.795   0.453 -0.5829 -0.7870  1.2919
10526TIP3    H253070   3.469   3.900   0.515  0.1512  1.2012 -2.7919
10527TIP3   OH253071   0.622   2.768  11.511  0.2890  0.3129  0.2148
10527TIP3    H153072   0.536   2.755  11.470  0.0574 -0.5161  0.9503
10527TIP3    H253073   0.629   2.863  11.520 -0.1048  0.4539 -0.7831
10528TIP3   OH253074   4.279   3.408   0.185  0.5862  0.3844  0.2048
10528TIP3    H153075   4.283   3.459   0.105 -0.9525  0.0231 -0.1346
10528TIP3    H253076   4.369   3.378   0.199  1.0628  1.2621 -0.8364
10529TIP3   OH253077   2.466   3.745   5.747 -0.3479 -0.7540  0.4419
10529TIP3    H153078   2.381   3.776   5.776  0.5872  2.2102  0.4064
10529TIP3    H253079   2.455   3.651   5.735 -3.8333 -0.3860 -0.4160
10530TIP3   OH253080   5.122   1.691   2.375 -0.4105 -0.3289 -0.2144
10530TIP3    H153081   5.102   1.597   2.378  0.9499 -0.6856 -1.3381
10530TIP3    H253082   5.213   1.695   2.345 -0.5834  1.3648 -0.5977
10531TIP3   OH253083   6.877   4.812   1.347  0.8486 -0.2518 -0.0090
10531TIP3    H153084   6.850   4.854   1.266  0.2025 -0.2049  0.2287
10531TIP3    H253085   6.852   4.721   1.337 -0.6277  0.0505  0.7415
10532TIP3   OH253086   2.522   0.206   3.801  0.6317  0.7902 -0.1681
10532TIP3    H153087   2.568   0.140   3.749  0.3194 -0.8936  1.5754
10532TIP3    H253088   2.573   0.212   3.882 -1.5395 -0.3393  1.3727
10533TIP3   OH253089   2.054   4.543  15.053  0.4094  0.3229  0.5582
10533TIP3    H153090   2.053   4.601  15.129 -2.3603  0.8844  0.1987
10533TIP3    H253091   2.038   4.456  15.088  1.0453  0.2809  0.7615
10534TIP3   OH253092   3.134   2.767   4.382 -0.2599 -0.2406  0.4356
10534TIP3    H153093   3.121   2.834   4.448 -1.2951  1.4925 -1.4158
10534TIP3    H253094   3.052   2.719   4.379 -0.4115  0.0375  0.0515
10535TIP3   OH253095   3.373   5.229  15.080 -0.2120 -0.0585  1.0120
10535TIP3    H153096   3.375   5.189  15.167 -0.4840 -0.4293  0.8499
10535TIP3    H253097   3.404   5.161  15.021  1.9393  0.8182  1.0386
10536TIP3   OH253098   0.986   5.968  12.590  0.7533 -0.7912  0.3907
10536TIP3    H153099   1.036   6.050  12.585 -1.8095  0.8815  0.3970
10536TIP3    H253100   0.994   5.930  12.503  0.1759  0.6498 -0.3250
10537TIP3   OH253101   3.862   0.451  13.401  0.1870 -0.3867  0.3522
10537TIP3    H153102   3.948   0.488  13.419 -0.4088  0.6801  1.1667
10537TIP3    H253103   3.819   0.447  13.487 -1.5390  1.6959 -0.3275
10538TIP3   OH253104   3.142   3.852   2.103 -0.1957  0.3417  0.0922
10538TIP3    H153105   3.111   3.769   2.067  0.1652 -0.4554  1.5269
10538TIP3    H253106   3.101   3.857   2.190 -0.6734  1.9602 -0.1887
10539TIP3   OH253107   3.180   4.146  13.832  0.4279  0.3683 -0.1775
10539TIP3    H153108   3.130   4.065  13.842  1.2956 -0.0192  1.4974
10539TIP3    H253109   3.141   4.190  13.756 -0.0927 -1.5806 -1.0997
10540TIP3   OH253110   4.660   5.930   2.216 -0.7007 -0.5306  0.0856
10540TIP3    H153111   4.662   5.835   2.205  0.5959 -0.4382 -0.6910
10540TIP3    H253112   4.594   5.945   2.284 -2.2121 -1.8564 -0.9931
10541TIP3   OH253113   0.599   1.594   3.595  0.2132  0.1127  0.0194
10541TIP3    H153114   0.668   1.614   3.532  2.8949  3.2772  3.5165
10541TIP3    H253115   0.534   1.663   3.582  0.8053  0.8137  0.6627
10542TIP3   OH253116   6.970   0.658   2.952  0.1814 -0.0971 -0.1403
10542TIP3    H153117   6.890   0.705   2.928  0.1816 -1.2962 -2.7069
10542TIP3    H253118   7.002   0.705   3.030 -0.7887  3.0234 -1.4414
10543TIP3   OH253119   6.863   3.132   4.149  0.1901  0.1338  0.2536
10543TIP3    H153120   6.895   3.170   4.068 -0.5674  3.2597  1.2961
10543TIP3    H253121   6.796   3.192   4.180 -0.7542 -1.8398  2.3677
10544TIP3   OH253122   2.200   0.583  14.694 -1.0230  0.6052  0.0605
10544TIP3    H153123   2.146   0.513  14.731  0.5540 -1.7838 -1.8063
10544TIP3    H253124   2.163   0.599  14.608  0.9456 -0.9283 -1.1700
10545TIP3   OH253125   5.575   0.707   3.412 -0.5734 -0.0690 -0.0495
10545TIP3    H153126   5.537   0.719   3.325  0.6254 -3.7427 -1.2594
10545TIP3    H253127   5.668   0.692   3.396 -0.3100 -0.7773  1.8966
10546TIP3   OH253128   1.869   4.355   0.363 -0.2033 -0.0933 -0.0505
10546TIP3    H153129   1.853   4.443   0.397  0.2970 -0.2281  0.5332
10546TIP3    H253130   1.947   4.363   0.309  0.7131 -0.4686  1.1854
10547TIP3   OH253131   2.923   2.076   0.702 -0.3544 -0.3405  0.3550
10547TIP3    H153132   3.004   2.122   0.723 -1.1871  1.2993  0.1044
10547TIP3    H253133   2.925   1.998   0.757  1.7261 -0.7259 -0.1869
10548TIP3   OH253134   5.476   0.388   1.155  0.4624 -0.7417  0.2055
10548TIP3    H153135   5.566   0.370   1.180  1.2974  0.3003 -1.8511
10548TIP3    H253136   5.480   0.405   1.061 -1.6986  0.5342  0.2833
10549TIP3   OH253137   4.624   0.346   4.494 -0.5902  0.1537 -0.2177
10549TIP3    H153138   4.602   0.439   4.494  2.9689  1.1913  1.7529
10549TIP3    H253139   4.659   0.329   4.581 -0.1008 -2.7834 -0.8699
10550TIP3   OH253140   1.372   0.128   1.249  0.4398  0.3295 -0.1337
10550TIP3    H153141   1.378   0.181   1.169  1.0445  2.4517  1.2273
10550TIP3    H253142   1.435   0.057   1.236 -1.0107 -0.6748 -2.3764
10551TIP3   OH253143   5.856   6.860   0.003 -0.0035  0.3948  0.4057
10551TIP3    H153144   5.821   6.848   0.090  0.1639 -1.4642  0.2573
10551TIP3    H253145   5.912   6.783  -0.011 -0.1794  0.5493 -1.3909
10552TIP3   OH253146   4.164   2.208  15.280  0.1057 -0.2657 -0.0658
10552TIP3    H153147   4.210   2.272  15.333 -0.1341 -0.6643  0.6374
10552TIP3    H253148   4.135   2.141  15.342 -2.4211  0.5322 -0.3001
10553TIP3   OH253149   2.781   7.082   0.702 -0.3390  0.0268 -0.0908
10553TIP3    H153150   2.758   7.020   0.633 -0.4610  0.8527 -0.8190
10553TIP3    H253151   2.721   7.156   0.689 -0.6594  0.0171  1.1851
10554TIP3   OH253152   0.509   5.520  12.899 -0.6860 -0.2317 -0.0615
10554TIP3    H153153   0.413   5.514  12.905 -0.6723  0.5535  1.2258
10554TIP3    H253154   0.528   5.611  12.918  0.3226 -0.3339 -0.5333
10555TIP3   OH253155   1.183   6.030   2.379  0.6861  0.2534 -0.3727
10555TIP3    H153156   1.244   6.050   2.308 -0.1018 -0.4365 -1.2692
10555TIP3    H253157   1.239   6.021   2.456  1.8401 -1.0935 -1.2952
10556TIP3   OH253158   6.268   1.341  14.375  0.1572  0.1782  0.1153
10556TIP3    H153159   6.243   1.249  14.368  0.9915  0.0660 -2.2913
10556TIP3    H253160   6.276   1.356  14.469 -0.2955 -2.1219  0.5911
10557TIP3   OH253161   5.283   0.430  15.393  0.4308 -0.2209  0.2957
10557TIP3    H153162   5.240   0.364  15.340  0.5507 -1.7366  1.9864
10557TIP3    H253163   5.365   0.449  15.346 -0.3488 -0.0243 -1.0370
10558TIP3   OH253164   2.291   0.108  14.949 -0.3485 -0.2075  0.2061
10558TIP3    H153165   2.251   0.040  14.896 -1.1428 -0.1187  0.6801
10558TIP3    H253166   2.218   0.159  14.982  0.2073  0.4941  0.3717
10559TIP3   OH253167   1.848   6.080   2.789  1.0609  0.5017 -0.0678
10559TIP3    H153168   1.821   6.141   2.857  1.1353  0.0522  0.3724
10559TIP3    H253169   1.944   6.078   2.796  0.9845 -0.7653  0.9059
10560TIP3   OH253170   2.341   3.263   0.488 -0.1136 -0.1433  0.2398
10560TIP3    H153171   2.337   3.213   0.569 -0.0406  1.6354  1.4067
10560TIP3    H253172   2.435   3.276   0.473 -0.1337 -0.2732  0.0067
10561TIP3   OH253173   4.315   0.533   0.271  0.1314 -0.0115  0.3090
10561TIP3    H153174   4.331   0.487   0.354  1.2404 -1.4988 -0.6810
10561TIP3    H253175   4.357   0.618   0.282 -0.0477 -0.0483  1.3932
10562TIP3   OH253176   2.116   1.181  13.938 -0.9354 -0.4967 -0.7504
10562TIP3    H153177   2.060   1.252  13.906 -0.5669  0.3411  0.3966
10562TIP3    H253178   2.055   1.116  13.972 -1.4015  1.8871  3.7313
10563TIP3   OH253179   1.767   3.191   1.423  0.2594 -0.0623  0.3065
10563TIP3    H153180   1.713   3.180   1.345 -0.8620 -0.1530  1.0756
10563TIP3    H253181   1.857   3.186   1.390 -0.1810  0.1469 -1.0065
10564TIP3   OH253182   6.986   6.609   0.292  0.6919 -0.2528  0.1565
10564TIP3    H153183   6.923   6.553   0.336  1.5618 -2.8306 -1.6479
10564TIP3    H253184   7.027   6.553   0.226  3.1329  1.9628 -0.4096
10565TIP3   OH253185   6.035   1.723   1.138 -0.3643  0.3064 -0.3093
10565TIP3    H153186   5.945   1.693   1.145 -0.0493 -1.0303 -1.4009
10565TIP3    H253187   6.077   1.694   1.220 -0.7776  0.3996 -0.0639
10566TIP3   OH253188   1.438   3.158  13.014 -0.0069 -0.3644 -0.0549
10566TIP3    H153189   1.434   3.176  13.108  0.7223 -0.2919 -0.0305
10566TIP3    H253190   1.366   3.210  12.977  1.1887  1.5690  0.1896
10567TIP3   OH253191   6.414   2.752  15.233  0.0637  0.5183 -0.2021
10567TIP3    H153192   6.382   2.777  15.320  0.6569  1.8402 -0.3331
10567TIP3    H253193   6.461   2.670  15.247 -1.6792 -0.4208  0.3294
10568TIP3   OH253194   6.665   4.144  14.854 -0.6309  0.0272 -0.3080
10568TIP3    H153195   6.681   4.147  14.759  0.1112  0.6343 -0.1753
10568TIP3    H253196   6.724   4.210  14.890 -2.5895  1.4765  0.3645
10569TIP3   OH253197   0.525   2.254   5.506 -0.5540 -0.3067  0.4293
10569TIP3    H153198   0.575   2.203   5.570 -1.2771  0.2263  1.4607
10569TIP3    H253199   0.548   2.217   5.421  3.5837  1.5199  0.5065
10570TIP3   OH253200   0.354   6.034   3.497 -0.1370  0.1430 -0.1963
10570TIP3    H153201   0.421   6.090   3.458 -0.1361  0.1402 -0.1987
10570TIP3    H253202   0.403   5.958   3.530  0.2671  1.4404  2.4229
10571TIP3   OH253203   0.087   0.832   2.571  0.2951 -0.1615  0.7218
10571TIP3    H153204  -0.004   0.804   2.563  1.1828 -3.0209 -0.5781
10571TIP3    H253205   0.109   0.868   2.485  0.2644  1.1179  1.2243
10572TIP3   OH253206   3.239   1.324   3.496 -0.0009  0.1951 -0.6634
10572TIP3    H153207   3.197   1.266   3.559  0.2524  0.5776 -0.1364
10572TIP3    H253208   3.290   1.265   3.439  2.6297  0.0544  1.6385
10573TIP3   OH253209   5.186   3.906   1.214 -0.2887 -0.0003  0.4563
10573TIP3    H153210   5.204   3.864   1.131  0.7055  0.4282  0.4447
10573TIP3    H253211   5.104   3.867   1.244  0.7936 -2.2683  0.6581
10574TIP3   OH253212   4.832   1.294  13.488 -0.1744  0.1624  0.3375
10574TIP3    H153213   4.807   1.212  13.530  3.0424 -1.1378  0.0062
10574TIP3    H253214   4.786   1.293  13.404 -1.6384 -0.3043  1.1006
10575TIP3   OH253215   3.454   3.146   0.279 -0.2659 -0.4032 -0.1003
10575TIP3    H153216   3.525   3.083   0.291  0.3962  0.2156 -0.6769
10575TIP3    H253217   3.390   3.123   0.346  0.6707 -0.7042  0.7181
10576TIP3   OH253218   1.549   0.998   4.395 -0.2823 -0.2650 -0.0398
10576TIP3    H153219   1.566   0.905   4.378 -0.1320 -0.9416  3.1627
10576TIP3    H253220   1.634   1.040   4.388  0.5436 -1.2475  2.7694
10577TIP3   OH253221   3.045   2.718  15.143 -0.5417  0.6503 -0.0981
10577TIP3    H153222   3.091   2.789  15.187  0.7351  0.0216 -0.3569
10577TIP3    H253223   3.055   2.643  15.201  0.4808  0.0135 -1.0447
10578TIP3   OH253224   2.361   5.483  15.406 -0.0515 -0.2370  0.0969
10578TIP3    H153225   2.291   5.476  15.341  0.6952 -2.6957 -0.5613
10578TIP3    H253226   2.435   5.522  15.359 -0.6134  1.4582  0.5378
10579TIP3   OH253227   2.685   0.697  14.956 -0.0332 -0.5787  0.2479
10579TIP3    H153228   2.595   0.666  14.966 -0.7353  0.8812 -1.0647
10579TIP3    H253229   2.720   0.648  14.881  0.2483 -1.1073  0.7240
10580TIP3   OH253230   5.397   2.839  13.726  0.4397  0.4632 -0.2273
10580TIP3    H153231   5.415   2.933  13.727  0.6592  0.4193 -0.1123
10580TIP3    H253232   5.466   2.802  13.671  0.2560  0.3874 -0.4134
10581TIP3   OH253233   3.797   6.623   2.232 -0.4236  0.1349  0.3116
10581TIP3    H153234   3.888   6.648   2.242  0.3249 -2.2002 -0.0504
10581TIP3    H253235   3.769   6.663   2.150  0.3333  0.7110  0.3366
10582TIP3   OH253236   1.876   4.030   4.986 -0.2465  0.5993  0.6516
10582TIP3    H153237   1.835   3.943   4.979 -0.8814  0.9127  0.3989
10582TIP3    H253238   1.959   4.013   5.030  0.1587 -0.3049 -0.3796
10583TIP3   OH253239   6.946   3.765   4.454  0.1325  0.4445 -0.2580
10583TIP3    H153240   6.911   3.823   4.387  0.7242  0.7774 -0.2788
10583TIP3    H253241   6.874   3.705   4.473 -0.2055  0.6635 -0.8252
10584TIP3   OH253242   1.679   6.998   3.726 -0.1025  0.2247 -0.8583
10584TIP3    H153243   1.682   7.020   3.633  1.1606  0.1628 -0.8541
10584TIP3    H253244   1.765   6.960   3.744 -0.0163  0.9955  0.5089
10585TIP3   OH253245   0.569   3.741  12.183  0.2789 -0.1909 -0.0059
10585TIP3    H153246   0.658   3.709  12.198  0.3582  0.1789  0.3274
10585TIP3    H253247   0.581   3.820  12.130  0.1258 -0.3363 -0.2592
10586TIP3   OH253248   1.559   5.444   3.560 -0.0509 -0.6124 -0.1265
10586TIP3    H153249   1.626   5.388   3.598 -0.2748 -0.1802  0.9278
10586TIP3    H253250   1.605   5.491   3.489  0.0747 -2.2538 -1.1722
10587TIP3   OH253251   1.237   2.413  15.220 -0.0651  0.0841 -0.4714
10587TIP3    H153252   1.200   2.438  15.136 -0.4929  0.7352 -0.0998
10587TIP3    H253253   1.204   2.325  15.236  1.2051 -0.6267 -1.6591
10588TIP3   OH253254   1.724   1.900  15.200 -1.0513 -0.2101 -0.6113
10588TIP3    H153255   1.789   1.920  15.132 -1.2326 -2.7001 -1.6186
10588TIP3    H253256   1.680   1.822  15.168 -1.6793 -1.0384  2.0538
10589TIP3   OH253257   5.036   1.187  12.449 -0.2788 -0.0711  0.1527
10589TIP3    H153258   5.042   1.275  12.487 -2.4054 -0.8359  2.5404
10589TIP3    H253259   4.988   1.201  12.367 -0.9685  0.9803  0.7067
10590TIP3   OH253260   3.222   3.550   4.106 -0.1289 -0.0962 -0.4088
10590TIP3    H153261   3.152   3.501   4.147  0.5527  0.0614  1.0096
10590TIP3    H253262   3.216   3.637   4.145  0.1563  0.2505 -1.1214
10591TIP3   OH253263   0.954   3.286   5.832 -0.3686  0.3576  0.3107
10591TIP3    H153264   0.918   3.225   5.897 -0.6254  0.6597  0.4521
10591TIP3    H253265   0.996   3.229   5.767 -1.4797 -0.0304 -0.0940
10592TIP3   OH253266   7.145   4.832   1.298 -0.2847 -0.3746  0.3784
10592TIP3    H153267   7.053   4.830   1.326 -0.9298 -0.0756 -1.6082
10592TIP3    H253268   7.155   4.753   1.245 -0.4167  1.2965 -2.2933
10593TIP3   OH253269   6.543   2.218  15.273  0.4157 -0.0009 -0.1453
10593TIP3    H153270   6.451   2.218  15.245  0.0455  0.3848  1.0090
10593TIP3    H253271   6.539   2.195  15.366  1.4988 -0.0557 -0.1090
10594TIP3   OH253272   1.050   4.096  12.971 -0.2575 -0.0879  0.2416
10594TIP3    H153273   1.067   4.156  12.899  1.2022  0.2228  0.8224
10594TIP3    H253274   1.058   4.009  12.933  2.1952  0.0448  0.3526
10595TIP3   OH253275   6.081   4.179  11.850 -0.8688 -0.3545 -0.2378
10595TIP3    H153276   6.039   4.230  11.919 -2.0462  0.3499 -1.4137
10595TIP3    H253277   6.101   4.095  11.891 -2.4605 -0.3274  0.7009
10596TIP3   OH253278   6.126   6.432  12.506 -0.0535  0.5610 -0.4225
10596TIP3    H153279   6.193   6.464  12.445  0.8241 -1.1488 -0.4047
10596TIP3    H253280   6.168   6.434  12.591 -0.2307  0.0035 -0.3224
10597TIP3   OH253281   5.125   2.815  14.963  0.1554  0.5922  0.8070
10597TIP3    H153282   5.168   2.900  14.977 -0.1954  0.8630  0.2769
10597TIP3    H253283   5.195   2.757  14.933 -0.1322  1.5183 -1.9095
10598TIP3   OH253284   3.364   0.244  14.670  0.5750 -0.3005 -0.8902
10598TIP3    H153285   3.390   0.215  14.757 -0.5165  0.4024 -0.3087
10598TIP3    H253286   3.326   0.166  14.629 -3.0188  0.3121  0.9204
10599TIP3   OH253287   3.668   6.832   1.636 -0.0948  0.5121  0.6885
10599TIP3    H153288   3.617   6.819   1.556  0.0270  2.6897  0.1772
10599TIP3    H253289   3.755   6.798   1.616  0.3476  2.3086 -0.6704
10600TIP3   OH253290   0.172   1.216   3.120  0.1166 -0.3863 -0.2455
10600TIP3    H153291   0.154   1.135   3.167 -0.5045 -0.2810 -0.2915
10600TIP3    H253292   0.266   1.229   3.128  0.2207 -1.1347 -0.2708
10601TIP3   OH253293   5.487   3.591  12.928 -0.0017  0.3854  0.6918
10601TIP3    H153294   5.414   3.629  12.977 -0.0785  1.6440 -0.3373
10601TIP3    H253295   5.559   3.587  12.991 -0.8100 -0.4419  1.5968
10602TIP3   OH253296   1.317   5.022   0.515 -0.3258  0.0091  0.5136
10602TIP3    H153297   1.334   5.077   0.439  0.4635 -0.7461  0.1323
10602TIP3    H253298   1.263   5.077   0.573  0.5218  1.2175  0.2019
10603TIP3   OH253299   2.764   4.737   2.912 -0.6440  0.1029 -0.2412
10603TIP3    H153300   2.805   4.824   2.909 -1.4404  0.4694 -0.7536
10603TIP3    H253301   2.670   4.755   2.909 -0.8116 -0.7806 -0.4393
10604TIP3   OH253302   5.244   4.494  10.069  0.1572 -0.0562  0.4495
10604TIP3    H153303   5.221   4.563  10.131  2.2642  1.4203 -0.3279
10604TIP3    H253304   5.215   4.526   9.984  3.0989  1.0250 -0.2721
10605TIP3   OH253305   5.153   2.913   2.378 -0.0851 -0.0572  0.1483
10605TIP3    H153306   5.093   2.973   2.334 -1.2006 -0.3295  1.2414
10605TIP3    H253307   5.176   2.848   2.312 -1.1719 -0.0801 -0.2143
10606TIP3   OH253308   7.145   2.592   1.555  0.0676  0.0799  0.1536
10606TIP3    H153309   7.175   2.507   1.522  0.4747 -0.5590  2.0200
10606TIP3    H253310   7.225   2.641   1.572 -0.1104  0.2465  0.5198
10607TIP3   OH253311   6.040   2.427   2.332  0.0015 -0.1971  0.0245
10607TIP3    H153312   6.110   2.445   2.269  0.2025 -0.0683  0.2860
10607TIP3    H253313   5.980   2.500   2.323  1.1487  1.0039  1.5615
10608TIP3   OH253314   1.470   6.383   3.453  0.1412 -0.3429 -0.6378
10608TIP3    H153315   1.413   6.308   3.435 -1.6099  0.8092 -0.2466
10608TIP3    H253316   1.423   6.458   3.416  2.4170  0.4541 -2.1139
10609TIP3   OH253317   2.885   6.802   3.794  0.3958  0.2882 -0.0674
10609TIP3    H153318   2.864   6.870   3.730  1.1308  0.5439 -0.0390
10609TIP3    H253319   2.823   6.732   3.775  1.5147 -0.2454 -2.0264
10610TIP3   OH253320   0.615   0.804  13.376  0.0309  0.3418 -0.0499
10610TIP3    H153321   0.653   0.787  13.462 -0.5419  0.2300  0.1851
10610TIP3    H253322   0.531   0.846  13.395 -0.1369  0.2361 -0.5546
10611TIP3   OH253323   0.387   0.550  12.888  0.0349 -0.4340  0.2615
10611TIP3    H153324   0.479   0.575  12.882 -0.8723  3.3246 -1.0777
10611TIP3    H253325   0.359   0.538  12.797 -1.0059 -0.6568  0.5926
10612TIP3   OH253326   1.231   3.500  13.400  0.4570  0.6395  0.0013
10612TIP3    H153327   1.217   3.491  13.305  0.4183  2.0078 -0.1439
10612TIP3    H253328   1.246   3.594  13.413  1.3585  0.3542  1.2358
10613TIP3   OH253329   5.112   0.211   2.576 -0.3796  0.2045  0.3670
10613TIP3    H153330   5.150   0.183   2.493  1.8004  3.3073  0.1220
10613TIP3    H253331   5.085   0.130   2.619  2.8475 -1.9738 -1.2810
10614TIP3   OH253332   5.193   4.422  15.050  0.0495 -0.3899 -0.3901
10614TIP3    H153333   5.106   4.460  15.053 -1.0232 -2.5759 -1.6105
10614TIP3    H253334   5.231   4.454  14.968 -0.5516 -1.2672 -1.0305
10615TIP3   OH253335   0.703   0.822   1.782  0.1855 -0.2004  0.0682
10615TIP3    H153336   0.683   0.895   1.841  0.6546  1.1799 -1.4109
10615TIP3    H253337   0.636   0.757   1.801 -0.0276  0.4515  1.6862
10616TIP3   OH253338   0.447   4.483   2.545  0.0723 -0.4061 -0.7532
10616TIP3    H153339   0.480   4.415   2.487 -1.2231 -0.7925 -1.0682
10616TIP3    H253340   0.485   4.463   2.630  1.4754 -0.2098 -1.3000
10617TIP3   OH253341   2.417   7.124  11.321  0.3703 -0.5117  0.4471
10617TIP3    H153342   2.462   7.041  11.336 -0.9046 -0.8424  3.0654
10617TIP3    H253343   2.429   7.173  11.403 -1.4397  0.6125  0.1013
10618TIP3   OH253344   5.271   5.127   1.429 -0.0672  0.0865  0.5748
10618TIP3    H153345   5.353   5.080   1.419 -0.1371  0.2074 -0.7677
10618TIP3    H253346   5.209   5.062   1.464  0.7029  0.1398  2.1330
10619TIP3   OH253347   3.204   0.926   2.818  0.1027  0.6273 -0.2771
10619TIP3    H153348   3.217   0.859   2.885  0.8899  0.6269 -0.4288
10619TIP3    H253349   3.164   0.879   2.745  1.3711  0.1391 -0.6877
10620TIP3   OH253350   0.443   6.384  10.426 -0.3485 -0.4930 -0.4947
10620TIP3    H153351   0.525   6.430  10.408 -0.1933  0.2590  1.8085
10620TIP3    H253352   0.436   6.383  10.521 -2.6168 -1.2813 -0.6018
10621TIP3   OH253353   3.556   3.660   1.925  0.1921 -0.6570 -0.1518
10621TIP3    H153354   3.609   3.595   1.880 -1.1729 -2.6729  0.9889
10621TIP3    H253355   3.525   3.615   2.003 -1.7916  0.9866  0.0820
10622TIP3   OH253356   4.035   3.968   3.454  0.6075 -0.0691  0.0218
10622TIP3    H153357   4.033   3.900   3.387  0.8237 -1.2150  1.1286
10622TIP3    H253358   3.947   4.006   3.451 -0.3798 -2.0536  0.9412
10623TIP3   OH253359   4.636   3.030  13.992  0.2515  0.0690  0.5620
10623TIP3    H153360   4.617   2.956  14.051  2.0410 -2.2704 -1.5835
10623TIP3    H253361   4.719   3.065  14.025  1.7469 -1.8366 -0.9454
10624TIP3   OH253362   2.029   4.532   2.830 -0.2825  0.5744 -0.2863
10624TIP3    H153363   2.045   4.449   2.786 -0.3439  1.1631 -1.4641
10624TIP3    H253364   1.965   4.577   2.775 -2.3692  0.2889  1.7785
10625TIP3   OH253365   4.617   6.189  11.500  0.3445  0.2621 -0.7519
10625TIP3    H153366   4.634   6.282  11.509  0.3522  0.2753 -0.9107
10625TIP3    H253367   4.649   6.166  11.413  0.2650  0.1289 -0.7470
10626TIP3   OH253368   1.268   3.912  11.501 -0.4392  0.3684 -0.4524
10626TIP3    H153369   1.308   3.985  11.454 -1.9230  0.7348 -1.1995
10626TIP3    H253370   1.285   3.931  11.593  1.0321  0.5160 -0.7279
10627TIP3   OH253371   6.408   2.966  12.051  0.0238 -0.2992 -0.4716
10627TIP3    H153372   6.452   2.990  11.970 -2.4006  0.3833 -1.6639
10627TIP3    H253373   6.447   3.022  12.118  0.2023  1.0398 -1.6706
10628TIP3   OH253374   3.824   5.167   0.249  0.7387 -0.1229  0.0548
10628TIP3    H153375   3.858   5.078   0.259 -0.6807 -0.6001  1.0271
10628TIP3    H253376   3.751   5.158   0.188  0.9867  0.4993 -0.3415
10629TIP3   OH253377   6.851   2.229  10.091  0.2276  0.2947  0.7023
10629TIP3    H153378   6.900   2.311  10.091 -1.5129  1.4138 -0.4274
10629TIP3    H253379   6.761   2.255  10.111 -0.6222 -1.1123 -1.0230
10630TIP3   OH253380   4.392   0.265   3.888 -0.0489  0.3075  0.3879
10630TIP3    H153381   4.365   0.212   3.813 -0.6920  2.5393 -1.0588
10630TIP3    H253382   4.333   0.340   3.887  1.1136  1.3162  2.0371
10631TIP3   OH253383   0.197   6.563   0.212 -0.4476  0.6621  0.1812
10631TIP3    H153384   0.113   6.604   0.189  0.5673  1.7903 -1.6923
10631TIP3    H253385   0.174   6.471   0.229 -2.2432  1.2045  0.9868
10632TIP3   OH253386   6.506   4.434  12.467  0.3457 -0.5392 -0.4432
10632TIP3    H153387   6.558   4.411  12.390 -1.3685  0.9026 -2.1199
10632TIP3    H253388   6.459   4.353  12.489 -0.9016 -0.4176 -2.3980
10633TIP3   OH253389   5.961   2.487   2.617  0.4806 -0.2014  0.1713
10633TIP3    H153390   6.036   2.545   2.614  1.4029 -1.3986 -1.0964
10633TIP3    H253391   5.947   2.460   2.526 -0.2735 -1.5005  0.6304
10634TIP3   OH253392   4.103   0.729   2.926 -0.1026  0.3062  0.3541
10634TIP3    H153393   4.049   0.681   2.987 -0.1389 -0.4987 -0.2974
10634TIP3    H253394   4.145   0.662   2.871 -0.2294  1.0015 -0.6327
10635TIP3   OH253395   2.715   2.541   0.211 -0.1481  0.4766 -0.9741
10635TIP3    H153396   2.714   2.461   0.263  0.9420  0.9075 -0.2670
10635TIP3    H253397   2.739   2.512   0.123  2.6566  0.2490 -0.2284
10636TIP3   OH253398   4.540   0.452   3.544  0.1226 -0.6099 -0.1359
10636TIP3    H153399   4.480   0.463   3.617  0.1480 -1.4500  0.0243
10636TIP3    H253400   4.522   0.364   3.511 -1.1365  0.3569 -2.2627
10637TIP3   OH253401   6.400   0.656   0.976 -0.3554  0.2215 -0.1334
10637TIP3    H153402   6.320   0.685   1.020 -0.2197  0.2325  0.1143
10637TIP3    H253403   6.470   0.685   1.035 -0.1273  0.9700 -0.7703
10638TIP3   OH253404   6.542   5.036   3.407  0.5689 -0.3303  0.0643
10638TIP3    H153405   6.595   4.974   3.458  1.4210  0.5694  0.3004
10638TIP3    H253406   6.580   5.034   3.319  0.5468 -0.2064  0.0517
10639TIP3   OH253407   0.377   4.815  12.006  0.1130  0.0929  0.0209
10639TIP3    H153408   0.450   4.771  11.961 -2.8747 -2.8859 -2.4762
10639TIP3    H253409   0.385   4.788  12.097  2.0175 -0.2540 -0.2046
10640TIP3   OH253410   2.645   5.219  14.550  0.4653  0.2366 -0.2103
10640TIP3    H153411   2.664   5.134  14.589  0.4436  0.1049 -0.4841
10640TIP3    H253412   2.550   5.225  14.551  0.3316 -0.6893 -2.1501
10641TIP3   OH253413   1.531   0.951   1.098  0.0309 -0.3579 -0.3542
10641TIP3    H153414   1.449   0.922   1.057  0.0007 -1.0947  0.2108
10641TIP3    H253415   1.565   0.873   1.142  0.4336  0.2308  0.4118
10642TIP3   OH253416   5.825   4.263   4.312  0.1834  0.2647 -0.5068
10642TIP3    H153417   5.730   4.267   4.312  0.0653 -0.7657  1.6181
10642TIP3    H253418   5.847   4.231   4.400  2.3031 -3.1368 -2.0695
10643TIP3   OH253419   6.860   1.071   2.229 -0.5347  0.1797 -0.2913
10643TIP3    H153420   6.888   1.159   2.202 -0.3157  0.3677  0.5332
10643TIP3    H253421   6.866   1.072   2.324  0.1423 -0.9468 -0.2980
10644TIP3   OH253422   2.042   6.210  15.202  0.3036 -0.0854  0.9968
10644TIP3    H153423   2.077   6.228  15.114 -1.0361  0.4617  0.5512
10644TIP3    H253424   1.961   6.261  15.207 -0.0686 -0.7499  2.2515
10645TIP3   OH253425   0.203   6.729  14.104  0.0402 -0.0954  0.0742
10645TIP3    H153426   0.107   6.729  14.105  0.0129  1.6993  1.0038
10645TIP3    H253427   0.228   6.717  14.195  0.6379  1.7651  0.1935
10646TIP3   OH253428   7.122   0.775  15.218  0.6132  0.2208 -0.5957
10646TIP3    H153429   7.033   0.747  15.239  0.5256  1.3354  0.7559
10646TIP3    H253430   7.170   0.695  15.201 -0.3623 -0.4981 -0.0544
10647TIP3   OH253431   6.435   3.091   4.037 -0.3777 -0.2591 -0.1912
10647TIP3    H153432   6.373   3.165   4.039  0.4744  0.4740 -0.3755
10647TIP3    H253433   6.441   3.068   3.944  1.3949  1.2284 -0.5059
10648TIP3   OH253434   3.264   3.447   2.109  0.0266 -0.0393  0.4151
10648TIP3    H153435   3.210   3.381   2.066 -1.2678  1.0401  0.3017
10648TIP3    H253436   3.322   3.480   2.040  0.5524 -0.9038  0.4320
10649TIP3   OH253437   6.725   4.629   3.481 -0.6228  0.0192 -0.4197
10649TIP3    H153438   6.704   4.700   3.543 -0.9237 -0.6571  0.2753
10649TIP3    H253439   6.737   4.552   3.537  0.2861 -0.3570 -1.1138
10650TIP3   OH253440   0.645   6.061   0.608  0.3257  0.3984  0.6706
10650TIP3    H153441   0.568   6.118   0.597  0.3046  0.0232 -1.5550
10650TIP3    H253442   0.608   5.975   0.629  0.0653  0.1614 -0.6275
10651TIP3   OH253443   5.197   2.937   3.874  0.6274 -0.2041 -0.5510
10651TIP3    H153444   5.171   2.917   3.784 -0.0883 -0.2252 -0.3466
10651TIP3    H253445   5.270   2.997   3.865 -1.0036  1.7951 -1.1640
10652TIP3   OH253446   4.942   0.041  10.592 -0.1367  0.3587 -0.2692
10652TIP3    H153447   5.022   0.095  10.599  0.5110 -0.3048 -2.0145
10652TIP3    H253448   4.916   0.049  10.500  0.0178 -2.3341 -0.6155
10653TIP3   OH253449   5.132   0.972   3.257  0.7202 -0.1460 -0.1768
10653TIP3    H153450   5.077   0.899   3.286 -0.1402  0.6614  0.2883
10653TIP3    H253451   5.180   0.999   3.335 -0.7820  1.3274  0.2901
10654TIP3   OH253452   2.726   0.794   0.688 -0.0378 -0.7473 -0.0331
10654TIP3    H153453   2.763   0.716   0.646  1.6385 -0.8903  1.5967
10654TIP3    H253454   2.683   0.761   0.767 -0.5440 -0.1617 -0.0578
10655TIP3   OH253455   3.061   3.912  11.719 -0.0397 -0.0313  0.0709
10655TIP3    H153456   3.067   4.005  11.696 -0.2549 -0.2371 -0.8482
10655TIP3    H253457   2.969   3.897  11.737  0.1219  0.1256  1.1395
10656TIP3   OH253458   5.090   0.789   4.478  0.3329 -0.3133  0.6225
10656TIP3    H153459   5.173   0.742   4.484 -1.6554 -4.4579 -0.6763
10656TIP3    H253460   5.070   0.813   4.568  2.3818 -0.1858  1.0980
10657TIP3   OH253461   3.860   5.008   1.580  0.0417  0.4763  0.1673
10657TIP3    H153462   3.880   5.090   1.535 -1.5778  1.4274  1.0942
10657TIP3    H253463   3.863   4.942   1.512  2.1951  1.1273 -0.4665
10658TIP3   OH253464   1.617   1.019  11.418 -0.3443  1.0009 -0.7042
10658TIP3    H153465   1.583   1.107  11.400  0.1059  1.2175 -0.5372
10658TIP3    H253466   1.712   1.032  11.425 -0.0951  0.2175 -2.3355
10659TIP3   OH253467   5.523   1.066   5.463  0.0284 -0.3438  0.1668
10659TIP3    H153468   5.593   1.031   5.408 -0.5211  0.2690 -0.9820
10659TIP3    H253469   5.559   1.147   5.499  0.2922 -0.5946  0.4622
10660TIP3   OH253470   4.828   2.192   1.793 -0.0910  0.4763 -0.3529
10660TIP3    H153471   4.742   2.215   1.759  0.4064 -1.6402 -3.4409
10660TIP3    H253472   4.890   2.242   1.740  0.6519 -1.5695 -1.5425
10661TIP3   OH253473   2.624   2.478   3.008  0.0152  0.1015  0.2255
10661TIP3    H153474   2.544   2.504   3.054 -0.1971 -0.4266  0.1621
10661TIP3    H253475   2.631   2.539   2.935  0.0659  0.6102  0.6501
10662TIP3   OH253476   3.910   5.085   3.050 -0.3419 -0.3655 -0.3864
10662TIP3    H153477   3.983   5.025   3.063 -1.4745 -1.4798  1.0997
10662TIP3    H253478   3.855   5.041   2.985 -0.8811 -0.6618  0.2695
10663TIP3   OH253479   1.846   4.169   3.758  0.4300  0.2967 -0.1880
10663TIP3    H153480   1.900   4.248   3.749 -0.6012  1.0033 -0.3066
10663TIP3    H253481   1.891   4.118   3.825  1.8726  0.3194 -1.0745
10664TIP3   OH253482   1.421   1.183   3.735  0.2233  0.2785  0.1573
10664TIP3    H153483   1.420   1.217   3.645 -0.6268  0.5998  0.2755
10664TIP3    H253484   1.390   1.093   3.727 -0.3514  0.4725  0.1882
10665TIP3   OH253485   1.519   3.143   4.278 -0.1994  0.2055 -0.6127
10665TIP3    H153486   1.433   3.127   4.239  0.4746 -1.5807 -1.4834
10665TIP3    H253487   1.507   3.119   4.371 -0.8533  0.8232 -0.5315
10666TIP3   OH253488   1.065   2.171  11.870  0.3798  0.2364 -0.3817
10666TIP3    H153489   1.068   2.261  11.837  0.5280  0.3247 -0.1339
10666TIP3    H253490   1.069   2.180  11.965  0.2477 -0.0280 -0.3488
10667TIP3   OH253491   4.515   2.624   9.915  0.0587 -0.5822  0.2241
10667TIP3    H153492   4.513   2.595  10.007  0.4848  1.2956  0.8780
10667TIP3    H253493   4.595   2.586   9.880 -0.7214 -2.3148  0.2575
10668TIP3   OH253494   2.229   3.152  13.402 -0.4428  0.0883  0.3303
10668TIP3    H153495   2.228   3.089  13.475  0.3466 -1.1237 -0.6594
10668TIP3    H253496   2.214   3.098  13.324  1.5025  0.9149 -0.6825
10669TIP3   OH253497   1.489   2.065  13.447  0.0869 -0.3253  0.1102
10669TIP3    H153498   1.490   2.155  13.416 -0.5748 -0.7215 -1.1060
10669TIP3    H253499   1.581   2.037  13.444  0.7592  1.0821  3.0148
10670TIP3   OH253500   4.721   3.974   2.819 -0.4545  0.5544 -0.1037
10670TIP3    H153501   4.642   3.927   2.793  0.0368 -0.1003 -0.4495
10670TIP3    H253502   4.740   3.941   2.907  0.5256 -0.7928 -0.7754
10671TIP3   OH253503   2.527   0.786  11.571  0.0496  0.3708  0.8276
10671TIP3    H153504   2.484   0.867  11.546  0.2345  0.3764  0.5307
10671TIP3    H253505   2.613   0.789  11.529 -0.5561 -0.7355 -0.5784
10672TIP3   OH253506   6.524   1.062   2.945 -0.7792  0.1036 -0.0565
10672TIP3    H153507   6.437   1.102   2.937  0.3852  2.5539 -1.5052
10672TIP3    H253508   6.577   1.127   2.990  0.4677 -1.1250  0.3309
10673TIP3   OH253509   6.564   5.466   4.100  0.0498 -0.4343  0.3606
10673TIP3    H153510   6.580   5.446   4.192  3.6745 -1.3568 -0.2892
10673TIP3    H253511   6.652   5.474   4.062 -1.2911 -0.2503 -3.0739
10674TIP3   OH253512   0.181   3.143  13.891  0.1558  0.4388  0.1926
10674TIP3    H153513   0.097   3.097  13.894  0.5943 -0.6474 -2.0490
10674TIP3    H253514   0.164   3.227  13.934 -1.5438 -0.5116  1.4994
10675TIP3   OH253515   5.825   4.877   1.049 -0.1123  0.1531  0.2166
10675TIP3    H153516   5.866   4.888   1.135  0.8108  0.4516 -0.2549
10675TIP3    H253517   5.731   4.874   1.068  0.1338 -1.2910  1.3882
10676TIP3   OH253518   2.973   1.571  14.207  0.2327  0.4829  0.2618
10676TIP3    H153519   2.878   1.568  14.197  0.1507  2.0066  0.2472
10676TIP3    H253520   3.007   1.516  14.137 -0.5868  2.0904 -1.4905
10677TIP3   OH253521   5.990   5.348  14.378  0.0992 -0.4687 -0.0665
10677TIP3    H153522   5.909   5.378  14.419  0.8064  1.2341  0.1966
10677TIP3    H253523   6.037   5.303  14.448  0.2691  0.3539  0.3593
10678TIP3   OH253524   1.232   0.675   3.580  0.1518  0.0005  0.3124
10678TIP3    H153525   1.163   0.741   3.582  0.8472  0.7245  1.6497
10678TIP3    H253526   1.243   0.655   3.486 -0.2969  1.5458 -0.0958
10679TIP3   OH253527   5.827   4.488   1.557  0.0755 -0.1783  0.6213
10679TIP3    H153528   5.915   4.455   1.537 -0.1910 -1.0962  0.9029
10679TIP3    H253529   5.772   4.452   1.488  0.0707  1.2084 -0.1234
10680TIP3   OH253530   1.119   2.242   2.340  0.7407 -0.1122 -0.9007
10680TIP3    H153531   1.124   2.155   2.380 -0.5385  0.5218  0.7163
10680TIP3    H253532   1.142   2.303   2.410 -2.4715  1.0966 -0.6990
10681TIP3   OH253533   0.188   5.259   5.483 -0.4681  0.0764  0.1094
10681TIP3    H153534   0.269   5.227   5.523 -0.0506 -0.2165 -0.9421
10681TIP3    H253535   0.151   5.318   5.548 -0.1073 -0.8347  1.1698
10682TIP3   OH253536   3.358   5.976   0.831  0.0681 -0.8534  0.3478
10682TIP3    H153537   3.315   5.970   0.917  0.0109 -0.6991  0.3291
10682TIP3    H253538   3.291   5.947   0.769  1.0056 -3.9435  0.6084
10683TIP3   OH253539   6.773   6.485   0.070  0.0644 -0.6531  0.2173
10683TIP3    H153540   6.813   6.403   0.095 -0.1501 -1.6039 -2.2909
10683TIP3    H253541   6.683   6.478   0.102 -0.1775 -1.7586 -0.6497
10684TIP3   OH253542   6.766   3.821   2.498 -0.4927 -0.1897  0.4096
10684TIP3    H153543   6.681   3.798   2.461 -0.7109  1.8072 -0.4704
10684TIP3    H253544   6.811   3.737   2.510 -1.7616 -1.1457 -1.1569
10685TIP3   OH253545   2.282   2.215   0.436 -0.2625  0.0815 -0.3866
10685TIP3    H153546   2.360   2.249   0.479  0.3154  0.9111 -1.9833
10685TIP3    H253547   2.213   2.277   0.457 -0.2976 -0.1995  0.3424
10686TIP3   OH253548   1.237   3.828   1.366  0.3671  0.0643 -0.3711
10686TIP3    H153549   1.184   3.886   1.421  1.7120 -0.0693  1.1167
10686TIP3    H253550   1.312   3.882   1.339  0.7588 -0.4783 -0.3799
10687TIP3   OH253551   6.217   1.097   5.652  0.3275  0.4435 -0.1198
10687TIP3    H153552   6.239   1.029   5.589 -0.4165 -1.6710  1.7381
10687TIP3    H253553   6.130   1.127   5.626  0.7553  0.8505 -1.0897
10688TIP3   OH253554   1.404   2.003   3.244  0.3203 -0.3945 -0.3864
10688TIP3    H153555   1.447   2.041   3.320  0.1475 -1.0888  0.0678
10688TIP3    H253556   1.336   2.067   3.220  0.3156 -0.2151  0.0972
10689TIP3   OH253557   2.905   3.397  10.536  0.2666 -0.4207  0.4450
10689TIP3    H153558   2.908   3.423  10.628 -0.0401 -1.2051  0.6872
10689TIP3    H253559   2.821   3.431  10.504 -0.5325 -1.7986  0.9917
10690TIP3   OH253560   2.797   5.754   4.076  0.0926  0.4425 -0.5377
10690TIP3    H153561   2.742   5.740   4.152  1.5414  0.4485  0.5507
10690TIP3    H253562   2.747   5.717   4.003 -1.0728 -0.0739  0.4907
10691TIP3   OH253563   2.540   6.734  13.374 -0.0295  0.0592 -0.0072
10691TIP3    H153564   2.558   6.682  13.295  0.4327  0.0293  0.1125
10691TIP3    H253565   2.505   6.671  13.437 -1.1511  0.2307 -0.4451
10692TIP3   OH253566   6.627   6.482  14.323  0.2152  0.5085 -0.0083
10692TIP3    H153567   6.599   6.572  14.340  0.7672  0.7206 -0.1891
10692TIP3    H253568   6.604   6.466  14.232  0.3739  0.5667 -0.0588
10693TIP3   OH253569   0.406   5.332   0.569  0.7449 -0.3954  0.0403
10693TIP3    H153570   0.314   5.358   0.564  0.9665  0.2907 -0.6855
10693TIP3    H253571   0.448   5.378   0.496  1.4805 -1.4837 -0.2520
10694TIP3   OH253572   0.508   5.365   2.173 -0.3511  0.4358 -0.4625
10694TIP3    H153573   0.578   5.389   2.232 -0.7662  0.8699 -0.1404
10694TIP3    H253574   0.427   5.382   2.222 -0.6842 -1.6656 -0.1699
10695TIP3   OH253575   4.859   5.232   1.952 -0.0868 -0.0370 -0.6248
10695TIP3    H153576   4.857   5.321   1.918  0.3364  0.5577  0.8362
10695TIP3    H253577   4.941   5.226   2.000  0.9448 -1.9167 -2.4434
10696TIP3   OH253578   3.204   0.672   1.579  0.1400  0.6308 -0.3625
10696TIP3    H153579   3.236   0.661   1.489 -2.0699  0.2037 -1.1632
10696TIP3    H253580   3.109   0.683   1.569 -0.3822 -1.0434  2.0369
10697TIP3   OH253581   0.213   0.212  15.158  0.1935 -0.1085  0.0288
10697TIP3    H153582   0.293   0.264  15.165  0.1972 -0.0449 -0.4096
10697TIP3    H253583   0.146   0.266  15.200  0.1862  0.2841 -0.4739
10698TIP3   OH253584   1.657   4.755   2.259  0.1357 -0.3874  0.1310
10698TIP3    H153585   1.705   4.673   2.267 -1.1786 -1.1639  0.4166
10698TIP3    H253586   1.570   4.736   2.294  0.2318  1.5488  1.6505
10699TIP3   OH253587   5.037   0.440   4.683  0.3314 -0.0384 -0.7835
10699TIP3    H153588   5.083   0.413   4.763 -1.2025 -1.5394 -0.3392
10699TIP3    H253589   5.106   0.452   4.618  1.5729  0.7142  0.6183
10700TIP3   OH253590   1.935   5.074  15.330 -0.1862 -0.6568 -0.3169
10700TIP3    H153591   1.950   5.001  15.391 -1.7681 -0.8200 -0.0792
10700TIP3    H253592   2.023   5.099  15.301  0.4224 -2.5005 -0.2284
10701TIP3   OH253593   4.063   5.630  12.441  0.4673  0.0686  0.4394
10701TIP3    H153594   4.123   5.676  12.381 -0.9540  1.7335  0.1993
10701TIP3    H253595   4.101   5.543  12.451  0.2784 -0.6945 -3.7108
10702TIP3   OH253596   1.183   4.704   2.604 -0.3982 -0.1078 -0.5081
10702TIP3    H153597   1.115   4.769   2.620 -2.4031 -1.8678 -1.4081
10702TIP3    H253598   1.175   4.683   2.511  0.8111 -0.9905 -0.4372
10703TIP3   OH253599   3.573   5.655   3.019  0.2236 -0.1133 -0.4516
10703TIP3    H153600   3.588   5.604   3.098 -0.9307  1.0176  0.5459
10703TIP3    H253601   3.493   5.618   2.981 -0.4178  0.6792  0.0855
10704TIP3   OH253602   1.252   2.705  13.566 -0.4436  0.3487 -0.4999
10704TIP3    H153603   1.176   2.726  13.620  0.4811  0.5121  0.7832
10704TIP3    H253604   1.262   2.780  13.507 -2.3713 -0.4911 -2.0380
10705TIP3   OH253605   6.447   0.986   2.167 -0.2969  0.3593  0.2232
10705TIP3    H153606   6.501   0.951   2.238  1.2052 -0.1926 -1.1534
10705TIP3    H253607   6.364   1.008   2.210  0.1154 -1.1162  1.9071
10706TIP3   OH253608   4.065   6.934   4.402  0.2631 -0.0766  0.0014
10706TIP3    H153609   4.095   7.024   4.392 -0.6144  0.2440  0.1680
10706TIP3    H253610   4.104   6.905   4.484 -1.2890  0.9413  1.1617
10707TIP3   OH253611   0.068   6.514   3.056 -0.5457  1.3588  0.2051
10707TIP3    H153612  -0.021   6.518   3.020  0.3590  0.4186 -2.4213
10707TIP3    H253613   0.123   6.555   2.989  1.4826 -1.9081 -0.3890
10708TIP3   OH253614   4.327   2.356   1.349  0.5276 -0.6369  0.3493
10708TIP3    H153615   4.363   2.405   1.423  0.9482  1.2790 -1.0447
10708TIP3    H253616   4.248   2.405   1.325 -0.7009 -2.3612  0.7067
10709TIP3   OH253617   1.400   6.486  14.154 -0.4424  0.1266 -0.6257
10709TIP3    H153618   1.308   6.458  14.157 -0.8742  1.4224 -1.1793
10709TIP3    H253619   1.397   6.581  14.163  0.6434  0.4710 -3.0452
10710TIP3   OH253620   2.586   2.624  15.221  0.5641 -0.8399  0.5842
10710TIP3    H153621   2.603   2.531  15.202 -0.3222 -0.7566 -0.7563
10710TIP3    H253622   2.622   2.671  15.145  2.0707  0.0447  1.7935
10711TIP3   OH253623   6.612   1.651   4.438  0.6657 -0.2126  0.2280
10711TIP3    H153624   6.597   1.731   4.387 -2.9909 -1.1055 -0.3731
10711TIP3    H253625   6.620   1.681   4.528 -0.3526  0.8724 -0.0233
10712TIP3   OH253626   0.365   0.638  13.627  0.6645  0.1061  0.5011
10712TIP3    H153627   0.400   0.727  13.625  1.3951 -0.1173  2.0792
10712TIP3    H253628   0.303   0.638  13.700 -2.2005  0.2750 -1.7157
10713TIP3   OH253629   4.679   3.671  13.582 -0.9816 -0.2468  0.3426
10713TIP3    H153630   4.661   3.586  13.542  0.1263 -0.8019  0.9627
10713TIP3    H253631   4.593   3.710  13.596 -1.6273 -1.9827  1.5622
10714TIP3   OH253632   6.592   4.693   0.622  0.3835  0.5861  0.1523
10714TIP3    H153633   6.557   4.759   0.563  1.0021  0.2809 -0.5835
10714TIP3    H253634   6.518   4.667   0.677 -0.3311  0.5412 -0.8045
10715TIP3   OH253635   2.369   0.893  14.643 -0.2802 -0.4181 -1.0380
10715TIP3    H153636   2.359   0.834  14.568 -0.4879  0.4767 -1.7279
10715TIP3    H253637   2.280   0.904  14.677  0.0484 -2.5242  0.7104
10716TIP3   OH253638   3.257   5.951   0.057 -0.7090 -0.4971  0.0246
10716TIP3    H153639   3.334   5.936   0.003 -1.4725 -0.3603 -1.1409
10716TIP3    H253640   3.290   5.999   0.133  0.6272 -1.9701  0.4327
10717TIP3   OH253641   1.189   3.910  14.832 -0.4458  0.4080 -0.2193
10717TIP3    H153642   1.157   3.865  14.910 -0.2562 -1.7811 -1.3343
10717TIP3    H253643   1.123   3.894  14.765  0.6037  0.0177 -1.1998
10718TIP3   OH253644   4.761   5.614  12.095  0.7418 -0.3653 -0.3008
10718TIP3    H153645   4.724   5.702  12.102  0.3762 -0.5938  0.8420
10718TIP3    H253646   4.845   5.627  12.051  0.6650  0.5479 -0.1989
10719TIP3   OH253647   3.143   7.043   5.508 -0.0822 -0.4241 -0.0663
10719TIP3    H153648   3.224   7.063   5.554 -1.7888  1.6642  2.2735
10719TIP3    H253649   3.092   6.991   5.571 -0.6830 -1.5555 -1.4282
10720TIP3   OH253650   4.227   3.062  13.338 -0.0447 -0.0841 -0.3596
10720TIP3    H153651   4.166   3.123  13.380 -0.0121 -0.1513 -0.2120
10720TIP3    H253652   4.313   3.093  13.365 -0.0420 -0.3972 -0.0085
10721TIP3   OH253653   2.414   2.908   2.342 -0.5766  0.7374  0.5254
10721TIP3    H153654   2.419   2.986   2.287  2.3802 -0.0719 -0.5798
10721TIP3    H253655   2.471   2.928   2.416 -1.7211  0.4868  1.4933
10722TIP3   OH253656   3.100   4.321  13.321 -0.4443  0.4131  0.0692
10722TIP3    H153657   3.151   4.285  13.249 -0.0275 -0.5410  0.8118
10722TIP3    H253658   3.038   4.381  13.280 -0.8448 -0.8244 -1.1641
10723TIP3   OH253659   4.470   5.030  13.478 -0.1963 -0.5881  0.1896
10723TIP3    H153660   4.564   5.023  13.457 -0.2518 -1.1494  0.1078
10723TIP3    H253661   4.429   4.960  13.427 -0.9661  1.0146 -1.5316
10724TIP3   OH253662   0.895   1.962   1.370 -0.1948  0.2924  0.2963
10724TIP3    H153663   0.943   1.977   1.452  0.6341  0.8631 -0.2775
10724TIP3    H253664   0.937   1.886   1.331  1.1967  1.5713 -0.8538
10725TIP3   OH253665   3.185   5.055  13.584  0.4000 -0.1510  1.0692
10725TIP3    H153666   3.277   5.053  13.609  0.4080  1.0900  1.2223
10725TIP3    H253667   3.176   4.989  13.516  1.3710 -0.3754  1.1550
10726TIP3   OH253668   6.643   4.304  13.239  0.0126  0.6185 -0.0363
10726TIP3    H153669   6.611   4.265  13.321 -0.4571  1.8181  0.3736
10726TIP3    H253670   6.719   4.251  13.215 -0.6173 -0.5528  0.4809
10727TIP3   OH253671   2.074   0.435   0.415  0.0825  0.3896 -0.3564
10727TIP3    H153672   2.056   0.466   0.326  2.3779  1.6038 -0.4561
10727TIP3    H253673   2.021   0.356   0.423 -1.8752  1.4404 -2.0000
10728TIP3   OH253674   1.611   3.463   2.496 -0.0780 -0.4468  0.0101
10728TIP3    H153675   1.574   3.504   2.574  0.0281 -0.1018 -0.1192
10728TIP3    H253676   1.535   3.445   2.441 -0.0913 -0.0901 -0.0894
10729TIP3   OH253677   6.827   2.355   1.139 -0.2054  0.1102 -0.0321
10729TIP3    H153678   6.904   2.359   1.195  0.4390  0.5693 -0.9242
10729TIP3    H253679   6.861   2.334   1.052 -0.7400  2.8720 -1.0293
10730TIP3   OH253680   1.215   0.094  10.065  0.3942 -0.0664 -0.0580
10730TIP3    H153681   1.122   0.076  10.078  0.6425 -1.4462 -0.0009
10730TIP3    H253682   1.255   0.007  10.051  1.7412  0.4409  0.4288
10731TIP3   OH253683   6.474   4.379  10.069  0.1531 -0.2311 -0.3958
10731TIP3    H153684   6.477   4.471  10.043  1.8279  0.1713  1.0286
10731TIP3    H253685   6.388   4.348  10.040 -0.2534  1.6521 -1.3053
10732TIP3   OH253686   1.120   0.544  11.971  0.2667 -0.0152 -0.4904
10732TIP3    H153687   1.081   0.521  12.055 -2.3077  1.3432 -1.2152
10732TIP3    H253688   1.176   0.620  11.991 -2.6941  2.3052 -0.3353
10733TIP3   OH253689   1.514   4.375   2.278 -0.0159 -0.0131 -0.0090
10733TIP3    H153690   1.607   4.394   2.261  0.2861  0.7391  2.2016
10733TIP3    H253691   1.512   4.346   2.369 -2.1146  1.2835  0.4146
10734TIP3   OH253692   2.619   3.348   2.957 -0.1432 -0.6835 -0.0197
10734TIP3    H153693   2.614   3.258   2.989  0.0466 -0.9027 -0.5903
10734TIP3    H253694   2.564   3.398   3.018  0.2094 -1.0813  0.6447
10735TIP3   OH253695   2.955   5.920   2.198  0.2383  0.5257  0.2903
10735TIP3    H153696   2.860   5.915   2.197  0.2564 -1.5191  1.8188
10735TIP3    H253697   2.984   5.831   2.218  2.4701  1.1878  0.3700
10736TIP3   OH253698   4.481   5.389   1.162  0.1211  0.3635  0.3839
10736TIP3    H153699   4.456   5.355   1.248 -1.4926  1.1429  0.2439
10736TIP3    H253700   4.399   5.412   1.120  0.9340  0.6353 -1.1244
10737TIP3   OH253701   5.623   6.891   1.912  0.6065 -0.5217  0.1253
10737TIP3    H153702   5.660   6.809   1.877  2.0960 -0.9608  2.4966
10737TIP3    H253703   5.699   6.949   1.921 -0.0171  0.1942  0.8484
10738TIP3   OH253704   2.974   6.581  15.239 -0.2454  0.2188  0.0040
10738TIP3    H153705   2.945   6.667  15.269  2.3764  1.0358  0.4325
10738TIP3    H253706   2.967   6.525  15.317  2.0919  1.1817  1.0111
10739TIP3   OH253707   5.953   0.074  11.977 -0.2776  0.3485 -0.2401
10739TIP3    H153708   6.020   0.007  11.959 -0.4632 -0.0612  0.5396
10739TIP3    H253709   5.895   0.033  12.041 -0.4786  1.2023  0.1437
10740TIP3   OH253710   5.886   4.946   1.324 -0.3195 -0.1648  0.2221
10740TIP3    H153711   5.844   4.860   1.331 -2.1062  0.6850  0.3223
10740TIP3    H253712   5.848   4.997   1.395  0.3087  0.8823 -0.1780
10741TIP3   OH253713   6.413   2.702   2.694 -0.3930  0.8985  0.3403
10741TIP3    H153714   6.460   2.785   2.693  1.2136  0.0377 -0.0066
10741TIP3    H253715   6.435   2.661   2.610 -2.2349  0.6670 -0.0898
10742TIP3   OH253716   0.591   0.070   2.350 -0.0788  0.4680  0.1007
10742TIP3    H153717   0.662   0.130   2.373 -0.1868  0.5885  0.1208
10742TIP3    H253718   0.514   0.106   2.394 -0.2551  0.6159 -0.3315
10743TIP3   OH253719   1.175   6.131   5.334 -0.5770 -0.4825 -0.0756
10743TIP3    H153720   1.142   6.131   5.423 -2.1403  0.9439 -0.6170
10743TIP3    H253721   1.129   6.202   5.290 -1.1083 -2.1797 -2.4818
10744TIP3   OH253722   3.121   4.989   5.393 -0.4308 -1.0553  0.5312
10744TIP3    H153723   3.167   4.932   5.456 -0.4867 -1.0339  0.5918
10744TIP3    H253724   3.188   5.011   5.328 -0.3432 -0.9880  0.6436
10745TIP3   OH253725   3.710   4.482   2.491 -0.3253 -0.4750  0.4653
10745TIP3    H153726   3.633   4.531   2.521 -1.1116 -2.2455  1.5136
10745TIP3    H253727   3.766   4.548   2.450 -2.1529  0.9644  0.1455
10746TIP3   OH253728   1.540   0.580  11.682 -0.0803 -0.1185  0.2401
10746TIP3    H153729   1.529   0.675  11.675 -1.4025 -0.3225 -0.9161
10746TIP3    H253730   1.598   0.557  11.609  3.1238  0.1370  2.4879
10747TIP3   OH253731   0.547   4.678   1.895  0.0864 -0.4702  0.1351
10747TIP3    H153732   0.603   4.630   1.957  0.8329 -1.7549 -1.4695
10747TIP3    H253733   0.501   4.742   1.950  1.1148 -1.1796  1.9291
10748TIP3   OH253734   4.488   6.660   3.408  0.1051 -0.2696  0.2317
10748TIP3    H153735   4.528   6.743   3.384 -0.8999 -0.2404 -1.4631
10748TIP3    H253736   4.557   6.612   3.453  1.7157  0.1804 -1.6779
10749TIP3   OH253737   0.724   5.759   1.459 -0.8962  0.1184 -0.0242
10749TIP3    H153738   0.755   5.678   1.418  1.2971  1.3367 -0.9505
10749TIP3    H253739   0.728   5.742   1.553 -0.1356 -0.7536 -0.1964
10750TIP3   OH253740   3.100   6.197   2.734  0.1280 -0.5905  0.2401
10750TIP3    H153741   3.129   6.130   2.672  0.5297 -0.1672 -0.0295
10750TIP3    H253742   3.019   6.161   2.771  0.8043 -1.6181  0.7455
10751TIP3   OH253743   0.002   6.645   3.373 -0.6591 -0.0556  0.0482
10751TIP3    H153744   0.038   6.557   3.382  0.7639  0.7259  4.2754
10751TIP3    H253745  -0.092   6.634   3.384 -0.3879 -1.0276  1.7746
10752TIP3   OH253746   0.043   6.872   4.044  0.1902  0.2493  0.0550
10752TIP3    H153747   0.066   6.781   4.064  0.3122 -0.0251 -1.2370
10752TIP3    H253748   0.020   6.870   3.951  0.9238  1.6895 -0.1750
10753TIP3   OH253749   0.820   1.678   2.113  0.4806  0.0503  0.0578
10753TIP3    H153750   0.812   1.596   2.064 -2.6425  0.0146  0.3819
10753TIP3    H253751   0.881   1.658   2.184 -1.0415 -2.4087  0.7881
10754TIP3   OH253752   2.859   0.671   4.184 -0.1730  0.2883  0.0231
10754TIP3    H153753   2.771   0.693   4.212  0.2244  0.2396  1.3837
10754TIP3    H253754   2.880   0.590   4.230  1.0537  0.9943  0.7703
10755TIP3   OH253755   0.952   6.772   4.384  0.0859  0.2341  0.2264
10755TIP3    H153756   1.021   6.821   4.338 -0.6523  1.0440 -0.0286
10755TIP3    H253757   0.941   6.693   4.331 -0.3615  0.8950 -0.6989
10756TIP3   OH253758   2.443   6.178   3.229 -0.3627 -0.0965  0.0647
10756TIP3    H153759   2.387   6.124   3.173 -2.7717 -1.0465  3.0976
10756TIP3    H253760   2.423   6.268   3.204 -1.4240 -0.4811 -0.5260
10757TIP3   OH253761   1.325   0.246   2.694 -0.0830  0.3058 -0.4611
10757TIP3    H153762   1.231   0.263   2.689  0.2290  3.1155  1.1663
10757TIP3    H253763   1.364   0.306   2.630  0.7361  1.1847  0.8270
10758TIP3   OH253764   1.414   2.982   5.056  0.9757  0.3215 -0.5185
10758TIP3    H153765   1.452   2.984   5.144 -1.3704 -0.1972  0.5644
10758TIP3    H253766   1.377   3.069   5.044  1.8744  0.6126 -1.3032
10759TIP3   OH253767   3.938   5.006   3.335 -0.3539 -0.0566 -0.2888
10759TIP3    H153768   3.980   4.971   3.257  1.8987  3.3252 -0.7944
10759TIP3    H253769   4.007   5.055   3.380 -1.2981 -2.4142  4.3752
10760TIP3   OH253770   2.516   6.921  10.132  0.2607 -0.6438 -0.0173
10760TIP3    H153771   2.490   6.831  10.149 -1.6764 -0.4921 -1.8451
10760TIP3    H253772   2.481   6.941  10.046  0.4723  1.9277  0.4084
10761TIP3   OH253773   0.339   7.022   3.644 -0.3204  0.0754 -0.0522
10761TIP3    H153774   0.308   6.997   3.557  1.1482 -1.5823 -0.1675
10761TIP3    H253775   0.434   7.030   3.634 -0.3532  2.4353  0.8522
10762TIP3   OH253776   0.660   5.643   0.013 -0.1771  0.3681  0.3990
10762TIP3    H153777   0.692   5.690  -0.064  0.4822 -0.7176 -0.0258
10762TIP3    H253778   0.671   5.704   0.086  2.5415  0.2317  0.2077
10763TIP3   OH253779   0.372   1.511   2.976 -0.3766  0.2099 -0.3000
10763TIP3    H153780   0.386   1.459   2.897 -0.5520 -0.7824  0.3130
10763TIP3    H253781   0.458   1.515   3.017 -0.1554  1.2320 -0.8291
10764TIP3   OH253782   6.133   6.363   0.017  0.5480 -0.4145 -0.3530
10764TIP3    H153783   6.155   6.428   0.084  0.8670 -1.9280  1.0602
10764TIP3    H253784   6.070   6.408  -0.040 -0.2741  0.6977  1.3569
10765TIP3   OH253785   2.612   1.688   0.188 -0.2052 -0.2995  0.4857
10765TIP3    H153786   2.536   1.645   0.226 -0.4674  0.7473  1.2047
10765TIP3    H253787   2.597   1.684   0.093 -1.9518  1.2144  0.6393
10766TIP3   OH253788   4.943   2.787  13.564  0.0010 -0.4474  0.1887
10766TIP3    H153789   4.861   2.788  13.612 -0.3273 -0.4918 -0.3641
10766TIP3    H253790   5.006   2.828  13.623 -0.6976  0.7956  0.0943
10767TIP3   OH253791   2.501   0.865   2.762 -0.0828 -0.4059 -0.0257
10767TIP3    H153792   2.471   0.919   2.689 -1.3828  1.1472  1.5640
10767TIP3    H253793   2.538   0.927   2.824  1.5633 -1.7488  0.4125
10768TIP3   OH253794   3.419   1.739   4.001 -0.6657 -0.7067  0.0421
10768TIP3    H153795   3.364   1.680   4.052 -0.7992 -0.0394  0.6912
10768TIP3    H253796   3.356   1.793   3.952 -0.6276  0.2748  1.0298
10769TIP3   OH253797   5.340   5.152   4.704  0.4925 -0.5953  0.2548
10769TIP3    H153798   5.392   5.230   4.682 -0.7159  0.0046 -0.6001
10769TIP3    H253799   5.383   5.117   4.782  1.2563  0.7470  0.4884
10770TIP3   OH253800   3.841   3.625   0.971  0.1913 -0.3548 -0.1743
10770TIP3    H153801   3.874   3.607   1.059 -1.3646  0.3311  0.5737
10770TIP3    H253802   3.811   3.716   0.974 -0.0537 -0.3762 -1.3701
10771TIP3   OH253803   1.129   3.647   2.475  0.2059 -0.4084  0.0155
10771TIP3    H153804   1.190   3.605   2.536  0.9060 -1.0457 -1.0783
10771TIP3    H253805   1.185   3.675   2.402 -0.7710 -0.7149 -0.8658
10772TIP3   OH253806   6.162   0.325  13.790 -0.4936  0.1413 -0.1555
10772TIP3    H153807   6.070   0.317  13.765 -0.6506  0.0387  0.4487
10772TIP3    H253808   6.169   0.279  13.874  0.3446 -0.8499 -0.7347
10773TIP3   OH253809   7.129   5.687   3.337 -0.0866  0.3814 -0.0987
10773TIP3    H153810   7.099   5.733   3.415  0.1649  1.3216 -0.5384
10773TIP3    H253811   7.224   5.683   3.347  0.0725  1.5829 -0.9023
10774TIP3   OH253812   7.046   5.822   1.010  0.4915 -0.1594 -0.0089
10774TIP3    H153813   6.975   5.807   1.072 -0.3787 -1.2756 -1.2163
10774TIP3    H253814   7.072   5.913   1.024 -1.0199  0.2040  0.6289
10775TIP3   OH253815   3.195   1.123   4.158 -0.1102 -0.1240  0.3585
10775TIP3    H153816   3.190   1.161   4.070  1.9519 -3.3767 -1.3568
10775TIP3    H253817   3.116   1.070   4.166  0.5361 -1.2288 -0.3339
10776TIP3   OH253818   0.986   6.168  13.894 -0.2267 -0.2747  0.2937
10776TIP3    H153819   1.067   6.165  13.843  0.0876  0.7285  0.7231
10776TIP3    H253820   0.990   6.090  13.949  1.2409  0.5935  1.4849
10777TIP3   OH253821   4.521   4.500   1.889  0.4903 -0.1739 -0.1811
10777TIP3    H153822   4.614   4.515   1.876  0.0784  2.5955 -0.5041
10777TIP3    H253823   4.482   4.511   1.803 -0.1529 -1.6175 -0.1094
10778TIP3   OH253824   3.118   0.685  10.037  0.4622 -0.2340  0.1056
10778TIP3    H153825   3.101   0.634   9.958 -0.1756 -0.9671  0.7030
10778TIP3    H253826   3.035   0.686  10.084  0.3227  1.7448 -0.0918
10779TIP3   OH253827   6.416   5.486   2.299  0.6365 -0.1369 -0.3105
10779TIP3    H153828   6.343   5.424   2.304  0.7208 -0.3525 -1.4526
10779TIP3    H253829   6.375   5.570   2.277  0.5859  0.0945  0.6238
10780TIP3   OH253830   1.412   3.184   1.380  0.1575 -0.2054  0.3310
10780TIP3    H153831   1.501   3.203   1.353 -0.2059 -1.6208 -2.1910
10780TIP3    H253832   1.389   3.104   1.332 -3.1745  1.2941 -0.8706
10781TIP3   OH253833   4.214   6.027   4.673  0.3719  0.4012 -0.4005
10781TIP3    H153834   4.234   6.072   4.591  1.7325  1.2791  0.3719
10781TIP3    H253835   4.251   6.083   4.741 -1.0784 -0.0992  0.8668
10782TIP3   OH253836   2.268   1.088   1.433 -0.0640  0.3077 -0.2583
10782TIP3    H153837   2.286   1.021   1.499 -1.0125 -0.3605 -0.6548
10782TIP3    H253838   2.333   1.156   1.450  0.6466 -0.5103  0.4298
10783TIP3   OH253839   5.996   2.667  13.948 -0.2184 -0.6174 -0.1067
10783TIP3    H153840   5.974   2.610  13.875  0.0752  0.1496 -0.8017
10783TIP3    H253841   5.987   2.755  13.913 -2.2127 -0.1541  1.3722
10784TIP3   OH253842   5.078   2.452  15.026  0.8131  0.4096 -0.2040
10784TIP3    H153843   5.071   2.369  14.978  1.0449 -0.4840  1.2594
10784TIP3    H253844   4.988   2.483  15.034  0.6501 -0.0896 -0.0894
10785TIP3   OH253845   0.233   5.529   1.492 -0.0945 -0.5100  0.0518
10785TIP3    H153846   0.292   5.460   1.460  0.2757 -0.0117 -0.3671
10785TIP3    H253847   0.213   5.503   1.582  1.1986 -0.4232  0.3891
10786TIP3   OH253848   2.391   3.655   1.830  0.2832  1.0022  0.4470
10786TIP3    H153849   2.370   3.742   1.865 -2.6428  0.0601  1.3607
10786TIP3    H253850   2.338   3.649   1.750  0.5327  0.0917  0.3412
10787TIP3   OH253851   4.060   3.142  11.840  0.0620 -0.0338 -0.5297
10787TIP3    H153852   4.057   3.079  11.768 -0.4868  0.2287 -0.7409
10787TIP3    H253853   3.986   3.118  11.896 -0.3286  0.5893 -0.7612
10788TIP3   OH253854   4.393   3.319  11.563 -0.1095  0.2446  0.8376
10788TIP3    H153855   4.365   3.244  11.616  0.6776 -0.3981  0.3741
10788TIP3    H253856   4.347   3.308  11.480  1.9586 -1.2233 -0.1956
10789TIP3   OH253857   3.627   2.319  12.369  0.0596  1.0225 -0.3600
10789TIP3    H153858   3.549   2.326  12.315 -2.4160  0.8234  2.8533
10789TIP3    H253859   3.642   2.409  12.401  1.8742  1.2708 -1.7373
10790TIP3   OH253860   4.895   4.773   5.030 -0.0595  0.4636  0.2364
10790TIP3    H153861   4.906   4.680   5.049  0.9743  0.6230  0.4753
10790TIP3    H253862   4.896   4.815   5.116 -0.9926  0.6678  0.1652
10791TIP3   OH253863   3.833   5.129  13.864  0.2912 -0.6053 -0.3577
10791TIP3    H153864   3.859   5.065  13.931 -1.8392  0.6487  1.8493
10791TIP3    H253865   3.740   5.142  13.879 -0.0025  0.6770 -2.8484
10792TIP3   OH253866   1.324   4.041  13.470  0.2780 -0.3172  0.4388
10792TIP3    H153867   1.317   4.123  13.519  0.1906 -0.0109 -0.0763
10792TIP3    H253868   1.400   4.054  13.414 -0.1064 -0.3456 -0.0935
10793TIP3   OH253869   6.742   0.564  13.840 -0.2939 -0.3555 -0.1056
10793TIP3    H153870   6.786   0.595  13.761 -0.9483 -0.7495 -0.6458
10793TIP3    H253871   6.812   0.533  13.897  0.1403 -0.7489 -0.8408
10794TIP3   OH253872   1.204   3.645   3.465 -0.0951  0.1634 -0.1313
10794TIP3    H153873   1.153   3.570   3.497  0.3067 -0.5308 -1.0792
10794TIP3    H253874   1.274   3.655   3.528  1.1038 -1.6370 -1.0798
10795TIP3   OH253875   4.199   0.474   3.802  0.2520  0.2350 -0.5541
10795TIP3    H153876   4.274   0.529   3.823  1.0718 -1.2463  0.5982
10795TIP3    H253877   4.165   0.509   3.719  1.3320  1.8095 -0.3560
10796TIP3   OH253878   7.152   1.951  12.968  0.2575 -0.4945  0.0630
10796TIP3    H153879   7.228   1.935  13.023  0.1983 -0.4656  0.1536
10796TIP3    H253880   7.085   1.984  13.029  0.5470  0.6300 -0.2038
10797TIP3   OH253881   0.043   3.491   2.494  0.1025 -0.1609  0.0977
10797TIP3    H153882  -0.026   3.533   2.545 -0.2196 -0.9133  0.3095
10797TIP3    H253883   0.022   3.512   2.403 -0.7589 -0.8726  0.1192
10798TIP3   OH253884   0.526   4.313  13.595 -0.1210 -0.1633 -0.1647
10798TIP3    H153885   0.591   4.321  13.526  0.0884  2.3582  0.2531
10798TIP3    H253886   0.572   4.335  13.675 -1.0559 -0.1478  0.3863
10799TIP3   OH253887   6.861   2.131   4.155  0.1421 -0.1541 -0.0475
10799TIP3    H153888   6.791   2.160   4.097 -1.0941  0.4944  1.6560
10799TIP3    H253889   6.848   2.037   4.163  0.5033 -0.2950 -1.0179
10800TIP3   OH253890   0.588   1.413   1.186  0.0339  0.6481 -0.8848
10800TIP3    H153891   0.549   1.464   1.257 -0.0904 -1.4388  0.6449
10800TIP3    H253892   0.669   1.377   1.223 -0.7147 -1.5945 -1.2397
10801TIP3   OH253893   4.135   4.307   1.393 -0.0208 -0.8600 -0.1831
10801TIP3    H153894   4.164   4.276   1.479 -2.0604 -0.5908  0.6548
10801TIP3    H253895   4.062   4.366   1.412 -0.0845 -0.2617 -2.0821
10802TIP3   OH253896   0.547   5.491   2.860  0.4999 -0.5057 -0.6100
10802TIP3    H153897   0.636   5.455   2.867  0.1382 -1.2539  0.5954
10802TIP3    H253898   0.524   5.514   2.950 -0.2464  0.3923 -1.0235
10803TIP3   OH253899   7.173   1.991  15.191  0.0052  0.7124  0.3408
10803TIP3    H153900   7.136   1.904  15.204  0.3013  0.6983  1.1800
10803TIP3    H253901   7.106   2.039  15.143 -0.0864 -0.0303 -0.2827
10804TIP3   OH253902   4.968   3.349  12.845  0.4465 -0.5951  0.3528
10804TIP3    H153903   5.020   3.288  12.793 -0.6291  0.2665 -1.8654
10804TIP3    H253904   4.898   3.296  12.882 -1.1292 -0.6651 -2.4586
10805TIP3   OH253905   4.279   2.894   5.109 -0.3514 -0.1753  0.0663
10805TIP3    H153906   4.332   2.834   5.056  1.3109  1.2514  0.0252
10805TIP3    H253907   4.248   2.840   5.182 -0.0202 -1.4014 -0.6712
10806TIP3   OH253908   4.998   6.346   2.988 -0.3984  0.0917 -0.7828
10806TIP3    H153909   5.026   6.363   2.898  1.8483 -1.1373 -0.3956
10806TIP3    H253910   5.064   6.389   3.042 -0.0161 -1.6671  0.2212
10807TIP3   OH253911   2.755   2.352   1.431  0.0691 -0.1135  0.9645
10807TIP3    H153912   2.682   2.415   1.424  0.4928  0.2819  0.0186
10807TIP3    H253913   2.726   2.290   1.498 -0.7597  0.5535  1.2438
10808TIP3   OH253914   2.541   4.960   5.208  0.4241 -0.1953  0.0160
10808TIP3    H153915   2.597   4.998   5.140  0.2896  1.1231  0.6080
10808TIP3    H253916   2.524   4.871   5.179  1.1883  0.0338 -1.1744
10809TIP3   OH253917   6.680   2.963   1.146 -0.1961  0.5982 -0.5266
10809TIP3    H153918   6.657   3.025   1.077 -1.9315 -0.1158 -0.6235
10809TIP3    H253919   6.610   2.970   1.210  1.4785  1.3852  1.3230
10810TIP3   OH253920   5.200   1.298   3.352 -0.1989  0.1014 -0.0291
10810TIP3    H153921   5.246   1.340   3.279  0.3241  0.0803  0.2919
10810TIP3    H253922   5.152   1.370   3.393 -1.1886 -0.0227 -0.8940
10811TIP3   OH253923   5.571   0.734  14.963 -0.0110  0.2798 -0.3813
10811TIP3    H153924   5.664   0.730  14.941  0.1116 -0.3968  0.2017
10811TIP3    H253925   5.562   0.813  15.016 -0.0788  1.2270 -1.7621
10812TIP3   OH253926   5.109   0.620  14.943 -0.0690 -0.3257 -0.2985
10812TIP3    H153927   5.136   0.530  14.963  0.9108 -0.2957 -1.4148
10812TIP3    H253928   5.178   0.655  14.887 -0.3468  1.1910  0.2386
10813TIP3   OH253929   5.764   5.140   0.218  0.0238  0.2190 -0.2387
10813TIP3    H153930   5.848   5.095   0.211 -0.3938 -0.3741 -1.6757
10813TIP3    H253931   5.786   5.232   0.202  0.6016  0.2954  0.8813
10814TIP3   OH253932   0.316   2.240  10.457  0.0295  0.0469 -0.3312
10814TIP3    H153933   0.243   2.192  10.497  0.0397 -0.4156 -0.8670
10814TIP3    H253934   0.274   2.304  10.400  0.0216 -1.5577 -2.2376
10815TIP3   OH253935   0.278   4.922   0.497 -0.0266  0.5041 -0.2498
10815TIP3    H153936   0.262   4.850   0.435 -0.3100  0.7130 -0.4262
10815TIP3    H253937   0.325   4.988   0.445  2.1898 -0.4269  0.4690
10816TIP3   OH253938   4.744   3.808  14.876  0.2346 -0.0211 -0.0835
10816TIP3    H153939   4.694   3.838  14.952  1.3741  2.3344 -0.1804
10816TIP3    H253940   4.717   3.865  14.804  1.0152 -0.5559 -0.8248
10817TIP3   OH253941   4.972   1.279  14.341  0.1550 -0.3081  0.0562
10817TIP3    H153942   4.977   1.191  14.378  3.7610  0.3406  1.5339
10817TIP3    H253943   4.926   1.331  14.407  1.7798 -0.2754  1.2058
10818TIP3   OH253944   6.633   1.451   3.239 -0.0528  0.5123 -0.4522
10818TIP3    H153945   6.593   1.374   3.198  1.0183 -0.4151  0.1594
10818TIP3    H253946   6.599   1.451   3.329 -0.2669  0.9253 -0.5306
10819TIP3   OH253947   0.674   1.461   0.912 -0.2860  0.2646  0.0618
10819TIP3    H153948   0.655   1.447   1.005 -0.6488 -0.4542 -0.1188
10819TIP3    H253949   0.596   1.430   0.866 -0.0751  0.5424 -0.4920
10820TIP3   OH253950   4.215   1.650   0.334  0.1115  0.3689 -0.0862
10820TIP3    H153951   4.122   1.672   0.328  0.5012  1.7985 -1.2114
10820TIP3    H253952   4.259   1.732   0.356  1.1884 -0.1333 -0.2605
10821TIP3   OH253953   1.713   2.843   2.491  0.4684 -0.3295  0.0929
10821TIP3    H153954   1.804   2.864   2.473  0.4460 -0.6625 -0.4097
10821TIP3    H253955   1.663   2.893   2.426  0.3540 -1.0081 -0.3504
10822TIP3   OH253956   2.407   1.968   4.253  0.9290  0.5150 -0.6856
10822TIP3    H153957   2.498   1.948   4.273  1.2399  0.2666 -2.2219
10822TIP3    H253958   2.380   2.028   4.322  2.5990  1.4781 -0.8015
10823TIP3   OH253959   2.687   0.297  11.011  0.0136  0.0580 -0.0821
10823TIP3    H153960   2.662   0.266  11.098  1.9549 -1.1072  0.1392
10823TIP3    H253961   2.622   0.259  10.952 -0.6644 -0.0942  0.7446
10824TIP3   OH253962   2.699   2.434  10.874 -0.4021  0.3269 -0.0332
10824TIP3    H153963   2.789   2.442  10.842  0.3784  1.0064  2.1288
10824TIP3    H253964   2.703   2.364  10.940 -1.4149  0.5293  0.2631
10825TIP3   OH253965   3.191   5.383  11.183  0.0375  0.4516 -0.4746
10825TIP3    H153966   3.097   5.383  11.169  0.1932 -1.1155 -1.8338
10825TIP3    H253967   3.221   5.467  11.147 -0.8732  1.2340  0.5348
10826TIP3   OH253968   5.124   1.576   9.580 -0.2408  0.3914  0.0510
10826TIP3    H153969   5.107   1.653   9.635 -0.1380  1.6977 -1.6275
10826TIP3    H253970   5.041   1.560   9.535 -0.7917 -1.6372  1.6577
10827TIP3   OH253971   5.613   0.770   5.986  0.1548  0.2729  0.5507
10827TIP3    H153972   5.605   0.681   5.951 -0.6282  1.5070 -2.7451
10827TIP3    H253973   5.552   0.771   6.060 -1.4903 -1.3560 -0.6727
10828TIP3   OH253974   0.689   7.007  15.392 -0.0215 -0.0419 -0.2539
10828TIP3    H153975   0.763   7.059  15.361  0.2222 -0.7592 -0.9145
10828TIP3    H253976   0.712   6.982  15.481 -0.2683  1.1941  0.1837
10829TIP3   OH253977   6.277   1.293   0.928 -0.2410  0.4276  0.3079
10829TIP3    H153978   6.319   1.343   0.858 -0.0062 -1.0757 -0.6781
10829TIP3    H253979   6.230   1.358   0.979  0.7584  1.7611 -0.3915
10830TIP3   OH253980   2.613   5.035   4.015 -0.6401  0.1360  0.3887
10830TIP3    H153981   2.663   5.094   4.070  1.6488 -0.2674 -1.1310
10830TIP3    H253982   2.676   5.001   3.952 -2.5040 -1.6695 -0.6428
10831TIP3   OH253983   4.222   4.564   3.485  0.0183  0.4528 -0.4519
10831TIP3    H153984   4.220   4.470   3.468  2.2884  0.2460  0.0978
10831TIP3    H253985   4.133   4.586   3.512 -0.4572 -1.6028 -0.2146
10832TIP3   OH253986   4.638   4.168   4.365  0.5038  0.1605  0.3758
10832TIP3    H153987   4.661   4.194   4.455  0.2471  0.5593  0.3338
10832TIP3    H253988   4.647   4.249   4.314 -1.4522  0.4835  0.4527
10833TIP3   OH253989   6.543   3.754   0.165  0.8015  0.2572 -0.6037
10833TIP3    H153990   6.545   3.848   0.180 -1.2809  0.4233 -1.0174
10833TIP3    H253991   6.451   3.735   0.145  0.4634 -2.3700  2.6377
10834TIP3   OH253992   6.842   4.454   4.783  0.0514  0.3255  0.2206
10834TIP3    H153993   6.760   4.445   4.735  0.6941 -1.2170 -0.6685
10834TIP3    H253994   6.870   4.364   4.800  3.1869  0.6195 -2.4653
10835TIP3   OH253995   5.275   2.994   4.943  0.3977 -0.0393 -0.0722
10835TIP3    H153996   5.198   3.042   4.915  0.4270  0.2577  0.3409
10835TIP3    H253997   5.348   3.054   4.928  0.6382 -0.5562 -1.0705
10836TIP3   OH253998   4.262   0.061   3.450  0.6166  0.0529 -0.5853
10836TIP3    H153999   4.245   0.125   3.380  1.4622  0.4156 -0.4732
10836TIP3    H254000   4.179   0.016   3.462  0.0130  1.0896 -0.7173
10837TIP3   OH254001   6.400   2.286  14.308 -0.1621  0.4483 -0.4556
10837TIP3    H154002   6.330   2.348  14.328 -1.2783 -0.9464  0.1827
10837TIP3    H254003   6.460   2.335  14.252 -0.7495  2.2262  0.3805
10838TIP3   OH254004   7.124   3.187  14.781  0.4921  0.0610 -0.0427
10838TIP3    H154005   7.039   3.187  14.738  0.4748 -0.2226 -0.0132
10838TIP3    H254006   7.121   3.111  14.839  0.7233  0.1151  0.0407
10839TIP3   OH254007   1.409   4.261   2.794  0.7484  0.2418 -0.2332
10839TIP3    H154008   1.458   4.285   2.715 -0.3579 -0.7571 -1.2795
10839TIP3    H254009   1.336   4.323   2.796  0.9285  0.4425  0.1775
10840TIP3   OH254010   1.883   0.421  13.993 -1.1014 -0.5165  0.6035
10840TIP3    H154011   1.941   0.496  13.981 -1.1497 -0.5359  0.2507
10840TIP3    H254012   1.937   0.355  14.038 -0.7522 -0.6584 -0.0194
10841TIP3   OH254013   6.692   4.387   0.951  0.1507  0.0515  1.3030
10841TIP3    H154014   6.728   4.410   0.866 -0.2764  0.1972  1.1575
10841TIP3    H254015   6.763   4.342   0.996  0.5471  0.4288  1.0646
10842TIP3   OH254016   3.761   6.247  14.547 -0.0582  0.0943 -0.4452
10842TIP3    H154017   3.796   6.278  14.630  0.7042  1.5119 -1.2588
10842TIP3    H254018   3.669   6.229  14.565  0.3074 -0.5193  0.9205
10843TIP3   OH254019   3.758   0.578   0.470 -0.2795  0.1962 -0.3140
10843TIP3    H154020   3.686   0.567   0.532 -0.4302 -2.2250 -0.8237
10843TIP3    H254021   3.798   0.662   0.494 -2.6074  1.1280  0.6378
10844TIP3   OH254022   0.767   4.613  14.185 -0.0782 -0.2206 -0.7265
10844TIP3    H154023   0.757   4.658  14.269 -0.4142 -0.4308 -0.6529
10844TIP3    H254024   0.755   4.682  14.119 -2.8171 -0.5574 -0.6758
10845TIP3   OH254025   0.780   2.794  12.711  0.3509 -0.0004  0.6575
10845TIP3    H154026   0.847   2.736  12.676  1.2470 -0.0478  2.3095
10845TIP3    H254027   0.793   2.791  12.806 -1.2825  0.8704  0.9563
10846TIP3   OH254028   1.444   0.854   0.523 -0.1252  0.4476  0.4934
10846TIP3    H154029   1.489   0.770   0.532 -2.1130 -0.4476  3.2187
10846TIP3    H254030   1.389   0.844   0.446  0.1078 -0.5325  0.4456
10847TIP3   OH254031   5.648   0.616   4.904  0.3096  0.3958  0.5026
10847TIP3    H154032   5.647   0.638   4.811  0.4163  0.7717  0.5880
10847TIP3    H254033   5.616   0.526   4.908  3.0162 -0.7009 -0.1655
10848TIP3   OH254034   1.039   0.010  13.496  0.3232 -0.0269 -0.0307
10848TIP3    H154035   0.986   0.090  13.493  0.9035  0.4111  0.9977
10848TIP3    H254036   1.085   0.009  13.412  0.9979  1.2190  0.2967
10849TIP3   OH254037   0.115   4.705   2.019  0.1408 -0.0279  0.6862
10849TIP3    H154038   0.069   4.687   2.101  0.6457 -2.7009  0.4706
10849TIP3    H254039   0.053   4.680   1.950  0.1280  1.1307  0.2544
10850TIP3   OH254040   6.822   0.948   0.573  0.2207  0.2768  0.5487
10850TIP3    H154041   6.905   0.925   0.616 -0.0352  1.5865  1.8275
10850TIP3    H254042   6.814   1.042   0.586 -1.9212  0.0414  1.2725
10851TIP3   OH254043   0.291   4.186   4.295 -0.5045  0.4190  0.7230
10851TIP3    H154044   0.292   4.092   4.314  0.0096  0.3082  0.1750
10851TIP3    H254045   0.316   4.227   4.378 -0.8825  0.0801  1.0072
10852TIP3   OH254046   2.048   2.596  12.227  0.5813 -0.4977 -0.0180
10852TIP3    H154047   2.104   2.548  12.288  0.9095 -0.4446 -0.2747
10852TIP3    H254048   2.053   2.546  12.145  0.6887 -0.1877 -0.1996
10853TIP3   OH254049   4.293   2.278  13.115  0.0370 -0.0165  0.2951
10853TIP3    H154050   4.306   2.268  13.020 -0.2265 -0.4125  0.2984
10853TIP3    H254051   4.316   2.370  13.132 -0.0212  0.0913 -0.1716
10854TIP3   OH254052   4.958   5.377   1.099 -0.3568  0.6051 -0.3135
10854TIP3    H154053   4.983   5.336   1.182  0.5223 -0.1325 -0.9209
10854TIP3    H254054   4.905   5.453   1.124 -0.7420 -0.0457  0.8826
10855TIP3   OH254055   0.838   6.316  14.933  0.2103  0.1735 -0.3610
10855TIP3    H154056   0.883   6.279  15.009 -0.6194 -0.8985 -0.3646
10855TIP3    H254057   0.757   6.265  14.926  0.2181  0.3320 -1.9058
10856TIP3   OH254058   3.142   3.411  14.615 -0.0335  0.3585 -0.3590
10856TIP3    H154059   3.148   3.318  14.591  0.7456  1.1791 -4.0080
10856TIP3    H254060   3.048   3.430  14.615 -0.3865 -0.8749  2.9647
10857TIP3   OH254061   0.890   6.190   0.652  0.3178 -0.3020 -0.1113
10857TIP3    H154062   0.798   6.166   0.643  0.4688 -0.4413 -1.4586
10857TIP3    H254063   0.920   6.204   0.562  1.2980  0.9520  0.3831
10858TIP3   OH254064   3.280   6.334   0.305  0.9298 -0.5175 -0.0018
10858TIP3    H154065   3.304   6.424   0.286 -1.4840 -0.3524 -3.0670
10858TIP3    H254066   3.356   6.283   0.276  1.7620  0.4068  0.4739
10859TIP3   OH254067   4.609   5.322  11.708 -0.0778  0.0172  0.0853
10859TIP3    H154068   4.632   5.230  11.718 -0.5960 -0.1919 -0.5727
10859TIP3    H254069   4.681   5.358  11.654  0.4419  0.1476  0.8529
10860TIP3   OH254070   4.891   1.317   2.781 -0.4126 -0.8913  0.1979
10860TIP3    H154071   4.881   1.312   2.876 -2.2954 -1.0478  0.0191
10860TIP3    H254072   4.958   1.384   2.767 -0.4302 -0.5577  1.6180
10861TIP3   OH254073   4.943   1.597  10.269 -1.1341 -0.1136 -0.2427
10861TIP3    H154074   4.936   1.682  10.226 -2.2966  0.8668  1.7242
10861TIP3    H254075   5.037   1.579  10.273 -0.9095  0.7510 -1.2536
10862TIP3   OH254076   4.367   0.501  11.229  0.0991  0.1651 -0.4456
10862TIP3    H154077   4.379   0.470  11.318 -2.1034  1.6146  0.4366
10862TIP3    H254078   4.335   0.425  11.181 -0.3117 -0.2160  0.4171
10863TIP3   OH254079   5.096   0.648  14.374 -0.0738  0.9449 -0.3117
10863TIP3    H154080   5.142   0.632  14.457 -1.4899 -0.1389  0.3062
10863TIP3    H254081   5.143   0.721  14.335  1.8025  0.2559  0.5434
10864TIP3   OH254082   6.001   0.705  13.127  0.2944  0.3369  0.0987
10864TIP3    H154083   5.945   0.733  13.055  0.7755  0.3482 -0.2771
10864TIP3    H254084   6.063   0.776  13.139  1.7864 -0.6889 -1.1450
10865TIP3   OH254085   3.252   4.978   4.207 -0.1219  0.0442 -0.1467
10865TIP3    H154086   3.346   4.993   4.210 -0.2833  0.9682  1.2379
10865TIP3    H254087   3.237   4.935   4.123  1.7233 -1.4830  0.2414
10866TIP3   OH254088   3.846   1.996  11.069  0.2518 -0.0838 -0.1933
10866TIP3    H154089   3.851   1.991  11.164 -0.2903 -2.4768 -0.2094
10866TIP3    H254090   3.937   2.006  11.041  0.3639  1.2011  0.5667
10867TIP3   OH254091   2.987   7.096  14.662  0.1715 -0.0555  0.2164
10867TIP3    H154092   2.952   7.007  14.661  0.1744 -0.1354  2.5983
10867TIP3    H254093   3.060   7.094  14.600 -0.5793 -1.3496 -0.6759
10868TIP3   OH254094   5.843   0.085  11.721  0.3059  0.0791  0.5090
10868TIP3    H154095   5.880   0.089  11.809  0.2263 -0.8011  0.5917
10868TIP3    H254096   5.781   0.158  11.718 -1.2287 -1.0733  1.9103
10869TIP3   OH254097   2.329   5.880  13.846 -0.2380 -0.1095 -0.2314
10869TIP3    H154098   2.418   5.868  13.878  0.4196  1.1358 -1.4397
10869TIP3    H254099   2.313   5.974  13.854 -2.2791 -0.5639  1.9386
10870TIP3   OH254100   1.405   4.286  13.656  0.1247  0.2694  0.0990
10870TIP3    H154101   1.360   4.292  13.741 -0.8582  0.1820 -0.4064
10870TIP3    H254102   1.481   4.230  13.674 -0.8471 -0.9492  0.6285
10871TIP3   OH254103   0.562   2.871   0.050  0.4539  0.0985 -0.6520
10871TIP3    H154104   0.556   2.961   0.018  0.9332 -0.1663 -1.4960
10871TIP3    H254105   0.635   2.833   0.002  1.5079 -0.1731  1.0970
10872TIP3   OH254106   0.886   5.025   1.145 -0.8972 -0.0244  0.5151
10872TIP3    H154107   0.974   5.046   1.176 -0.5679 -1.7494  0.8450
10872TIP3    H254108   0.867   4.940   1.184 -2.2921 -0.1590 -0.4100
10873TIP3   OH254109   6.637   1.128  12.027  0.2031 -0.0383  0.1372
10873TIP3    H154110   6.595   1.045  12.006 -1.4569  0.6863  0.4320
10873TIP3    H254111   6.582   1.167  12.095  0.6218  1.5534 -0.3821
10874TIP3   OH254112   5.787   7.204   4.907  0.1114  0.0020  0.2192
10874TIP3    H154113   5.736   7.152   4.969  1.3150 -0.1753  1.1029
10874TIP3    H254114   5.866   7.229   4.955 -1.0760  4.1222  0.4565
10875TIP3   OH254115   0.578   3.987   9.933 -0.5091  0.0858 -0.1407
10875TIP3    H154116   0.591   4.068   9.982  0.2909  0.2792 -0.6373
10875TIP3    H254117   0.665   3.968   9.896 -1.0034 -0.2365 -1.1751
10876TIP3   OH254118   0.758   4.259  12.675 -0.4238 -0.8007  0.2142
10876TIP3    H154119   0.755   4.329  12.609  0.5503 -0.5176  0.4577
10876TIP3    H254120   0.685   4.279  12.734  0.8097  0.9940  1.2279
10877TIP3   OH254121   6.911   4.106  10.688 -0.1522  0.1526 -0.4017
10877TIP3    H154122   6.839   4.169  10.679  0.6575  1.0081 -1.1471
10877TIP3    H254123   6.956   4.109  10.603 -1.4666 -3.2106 -1.3986
10878TIP3   OH254124   4.653   0.937  14.838 -0.1030  0.5134 -0.1627
10878TIP3    H154125   4.644   0.905  14.748  0.4111 -0.1885  0.0284
10878TIP3    H254126   4.746   0.956  14.848 -0.1650  0.6353  0.2114
10879TIP3   OH254127   5.519   2.788   2.247 -0.5359 -0.2768 -0.4101
10879TIP3    H154128   5.565   2.806   2.329  0.3309  0.2986 -1.0033
10879TIP3    H254129   5.479   2.872   2.224 -1.7606 -0.7336  0.0150
10880TIP3   OH254130   6.049   0.547   1.132  0.0174 -0.1000 -0.5270
10880TIP3    H154131   6.115   0.571   1.198 -2.3022 -0.8387  2.2813
10880TIP3    H254132   6.043   0.623   1.075  2.4132  0.4412 -0.1630
10881TIP3   OH254133   6.843   5.339  15.403 -0.6126  0.3877  0.2464
10881TIP3    H154134   6.763   5.355  15.354 -0.4713 -1.7526 -0.7717
10881TIP3    H254135   6.824   5.371  15.491 -2.8932 -0.7431  0.2257
10882TIP3   OH254136   4.383   4.127  15.283 -0.6171 -0.1223  0.2919
10882TIP3    H154137   4.406   4.062  15.349  2.9091  1.0143  0.4201
10882TIP3    H254138   4.463   4.180  15.273 -2.0433  1.7545 -2.5860
10883TIP3   OH254139   5.552   2.709   1.650 -0.1664 -1.0426  0.1816
10883TIP3    H154140   5.485   2.659   1.696 -0.4660 -1.3072 -0.5312
10883TIP3    H254141   5.546   2.797   1.687 -0.0771 -1.3668  0.9785
10884TIP3   OH254142   4.194   0.501   3.427 -0.6134  0.2621 -0.8691
10884TIP3    H154143   4.139   0.579   3.438 -1.2093 -0.2693  0.0324
10884TIP3    H254144   4.137   0.428   3.452  0.5615 -0.2788  0.3087
10885TIP3   OH254145   5.612   0.158   2.066  0.2931 -0.3171 -0.0276
10885TIP3    H154146   5.558   0.079   2.071 -0.7265  0.3486 -0.1003
10885TIP3    H254147   5.594   0.204   2.148 -1.1078  1.0417 -1.0266
10886TIP3   OH254148   1.770   4.075  12.155 -0.2485  0.1427 -0.0245
10886TIP3    H154149   1.730   4.019  12.222 -1.2595 -0.7149 -1.2947
10886TIP3    H254150   1.828   4.016  12.107 -0.7152  0.3617 -0.8752
10887TIP3   OH254151   3.885   2.047   0.107 -0.3718 -0.0589 -0.4869
10887TIP3    H154152   3.966   2.005   0.080 -1.1708 -1.2798 -1.0720
10887TIP3    H254153   3.894   2.138   0.077 -0.0183 -0.6527 -2.2969
10888TIP3   OH254154   4.080   1.165   0.654 -0.3194 -0.4643 -0.1457
10888TIP3    H154155   4.021   1.218   0.600  0.2279  1.0412  0.6619
10888TIP3    H254156   4.124   1.108   0.592 -0.4752  0.4892 -1.1635
10889TIP3   OH254157   4.193   6.197  10.443 -0.3599 -0.4049 -0.1164
10889TIP3    H154158   4.195   6.137  10.369  2.4544 -0.9635  0.2846
10889TIP3    H254159   4.145   6.273  10.411  2.0791  0.0688 -3.1924
10890TIP3   OH254160   2.433   1.179   1.106 -0.0434  0.0429 -0.3485
10890TIP3    H154161   2.412   1.256   1.159 -1.0863  0.9887 -2.0374
10890TIP3    H254162   2.406   1.203   1.017 -0.8308 -2.4396 -0.8691
10891TIP3   OH254163   6.517   0.590  13.434  0.2994  0.0642 -0.2426
10891TIP3    H154164   6.524   0.656  13.366  1.2160  1.8911  1.4989
10891TIP3    H254165   6.480   0.513  13.391 -1.3581  1.8924 -2.2494
10892TIP3   OH254166   6.293   6.358   0.866  0.3887 -0.6753 -0.0740
10892TIP3    H154167   6.289   6.448   0.897  0.9796  0.1438 -2.2160
10892TIP3    H254168   6.209   6.320   0.893 -0.2151  0.7589  0.1842
10893TIP3   OH254169   3.671   5.767  14.602 -0.1910 -0.1720 -0.0863
10893TIP3    H154170   3.648   5.806  14.687 -0.2926 -1.6526  0.5919
10893TIP3    H254171   3.634   5.679  14.606 -3.4115  0.8025 -3.0625
10894TIP3   OH254172   0.264   0.472  12.636  0.6999  0.1481  0.2774
10894TIP3    H154173   0.175   0.441  12.650  0.5159  0.8894  0.8598
10894TIP3    H254174   0.256   0.538  12.567  0.4326  1.7423  1.7685
10895TIP3   OH254175   1.809   1.631   2.340  0.0164  0.3881 -0.5669
10895TIP3    H154176   1.856   1.671   2.267  0.6653  1.1861  0.2825
10895TIP3    H254177   1.718   1.629   2.311  0.2488  0.8025 -1.3477
10896TIP3   OH254178   0.558   4.932   1.266 -0.0440 -0.2476 -0.6589
10896TIP3    H154179   0.623   4.928   1.336 -0.4002 -0.6744 -0.3407
10896TIP3    H254180   0.587   4.865   1.203 -0.3388 -0.6573 -0.3658
10897TIP3   OH254181   2.199   0.030   4.405 -0.7378  0.2241  0.3368
10897TIP3    H154182   2.113   0.033   4.447 -0.1654 -1.2666  1.7505
10897TIP3    H254183   2.245   0.107   4.439 -1.1002  0.3634  0.5209
10898TIP3   OH254184   2.149   5.575   4.735  0.1259  0.3810 -0.1159
10898TIP3    H154185   2.054   5.571   4.727  0.1914  0.7093 -1.1153
10898TIP3    H254186   2.169   5.669   4.743  0.2222  0.2374  2.3350
10899TIP3   OH254187   1.302   3.780  13.436  1.1367 -0.7126  0.4647
10899TIP3    H154188   1.378   3.769  13.378  1.3976 -1.3282  0.9168
10899TIP3    H254189   1.289   3.875  13.440  1.7483 -0.6135  0.1997
10900TIP3   OH254190   3.139   4.736  10.744  0.1575  0.8006  0.1251
10900TIP3    H154191   3.079   4.713  10.673 -0.3037  2.1672  0.0482
10900TIP3    H254192   3.181   4.653  10.768 -2.7575 -0.5297  1.1384
10901TIP3   OH254193   3.500   2.223   1.091  0.2047 -0.1684 -0.4617
10901TIP3    H154194   3.409   2.196   1.077  0.3107 -0.4343 -0.6394
10901TIP3    H254195   3.495   2.291   1.158  0.0187 -1.3441  0.7607
10902TIP3   OH254196   1.470   1.024   0.262  0.0424  0.1004  0.0832
10902TIP3    H154197   1.487   1.097   0.202 -0.2108  0.1075  0.0228
10902TIP3    H254198   1.479   1.063   0.349  0.6968  0.0286  0.0591
10903TIP3   OH254199   2.170   2.554   0.359  0.4519  0.8447 -0.2184
10903TIP3    H154200   2.208   2.559   0.446 -0.9388  1.1497  0.4056
10903TIP3    H254201   2.205   2.631   0.313  0.4587  1.2051  0.3804
10904TIP3   OH254202   3.765   5.200   3.260 -0.0330  0.0116  0.0834
10904TIP3    H154203   3.804   5.126   3.308  1.3062  0.3271 -0.4582
10904TIP3    H254204   3.839   5.238   3.213 -1.1458  0.2251 -1.5586
10905TIP3   OH254205   6.912   0.485   3.855 -0.2407  0.0474 -0.2209
10905TIP3    H154206   6.840   0.529   3.900  0.6056 -0.2262  1.4519
10905TIP3    H254207   6.898   0.392   3.874  0.2691 -0.0549 -0.3398
10906TIP3   OH254208   3.477   0.081   3.228 -0.7482 -0.1223 -0.3282
10906TIP3    H154209   3.445   0.024   3.299  0.3112  0.9736  1.1027
10906TIP3    H254210   3.554   0.034   3.194  0.0705  0.3516  0.7896
10907TIP3   OH254211   3.380   6.316  12.966  0.6083  0.1479  0.5245
10907TIP3    H154212   3.464   6.354  12.942  0.9270 -0.9445 -0.1781
10907TIP3    H254213   3.315   6.371  12.921  1.0113  0.3257  0.1574
10908TIP3   OH254214   5.935   4.892  13.629  0.1378  0.6019 -0.1749
10908TIP3    H154215   5.865   4.839  13.666  1.4790 -0.2452  1.2779
10908TIP3    H254216   6.011   4.833  13.625  0.8179  1.5124 -1.5812
10909TIP3   OH254217   6.449   7.204   1.084 -0.0523  0.0566 -0.4592
10909TIP3    H154218   6.364   7.199   1.042 -1.1207  0.3823  1.5466
10909TIP3    H254219   6.439   7.273   1.150  2.0063  0.6371 -0.6695
10910TIP3   OH254220   5.252   0.226   2.140  0.6400  0.1480 -0.2156
10910TIP3    H154221   5.261   0.139   2.181 -0.8853 -0.3076 -0.7959
10910TIP3    H254222   5.158   0.242   2.138  0.8473  1.3787 -1.0422
10911TIP3   OH254223   6.286   3.292   3.332  0.3610 -0.1086  0.2031
10911TIP3    H154224   6.289   3.340   3.415  0.0003 -0.1540  0.2436
10911TIP3    H254225   6.362   3.324   3.284  1.9251 -1.7384  1.4484
10912TIP3   OH254226   5.006   0.367   3.657 -0.2764  0.2382  0.2469
10912TIP3    H154227   4.953   0.346   3.733 -1.0445 -0.4799 -0.4652
10912TIP3    H254228   5.067   0.294   3.649 -0.4803  0.0980 -0.0628
10913TIP3   OH254229   0.848   3.534  14.076  0.1075 -0.5204  0.3614
10913TIP3    H154230   0.807   3.620  14.067  0.7280 -0.1680  0.7897
10913TIP3    H254231   0.903   3.542  14.154  0.1783 -1.3028  0.3967
10914TIP3   OH254232   0.136   1.955   4.512 -0.3139  0.0578  0.2251
10914TIP3    H154233   0.103   2.043   4.530 -2.5701  0.0777 -2.9457
10914TIP3    H254234   0.090   1.899   4.574 -2.8430  0.6936 -0.9168
10915TIP3   OH254235   0.451   0.815   5.371  0.2505  0.0912 -0.4145
10915TIP3    H154236   0.389   0.887   5.366  0.2210 -0.0185 -3.1744
10915TIP3    H254237   0.537   0.857   5.377  0.1476  0.3097 -0.4719
10916TIP3   OH254238   0.041   3.766   3.893 -0.0329 -0.1058 -0.2004
10916TIP3    H154239   0.025   3.684   3.938 -0.1824 -1.0223 -1.8433
10916TIP3    H254240  -0.013   3.762   3.814  0.4035  1.3096 -0.6097
10917TIP3   OH254241   4.619   5.460   5.397 -0.3591  0.2043  0.3435
10917TIP3    H154242   4.595   5.489   5.309  0.1909  0.4953  0.2826
10917TIP3    H254243   4.557   5.390   5.417 -1.9886  1.6707  0.6652
10918TIP3   OH254244   1.739   6.600   2.724 -0.0148 -0.1520 -0.0104
10918TIP3    H154245   1.819   6.574   2.678  1.4907  0.7369  1.9813
10918TIP3    H254246   1.730   6.694   2.705  0.4577  0.1564  1.2201
10919TIP3   OH254247   0.750   3.406   1.329 -0.0963  0.4066 -0.3086
10919TIP3    H154248   0.704   3.401   1.412  1.7144  1.9121  0.8815
10919TIP3    H254249   0.687   3.375   1.264 -2.1341  0.7476  1.4051
10920TIP3   OH254250   6.462   1.178   3.540  0.3193  0.0073 -0.1642
10920TIP3    H154251   6.368   1.170   3.555  0.4979  0.3506  1.3625
10920TIP3    H254252   6.474   1.268   3.510  0.2289  0.2079  0.3851
10921TIP3   OH254253   1.540   4.403   3.284 -0.5913  0.0303  0.9241
10921TIP3    H154254   1.576   4.343   3.349 -0.6274 -1.8605 -0.7170
10921TIP3    H254255   1.506   4.476   3.335  2.2970  0.2234  2.8024
10922TIP3   OH254256   0.992   0.880   2.676  0.3501  0.4675 -0.3671
10922TIP3    H154257   0.988   0.886   2.580 -1.0603  2.1666 -0.2531
10922TIP3    H254258   0.909   0.839   2.701 -0.1180  1.6993  0.1896
10923TIP3   OH254259   4.545   1.504   2.301  0.7397  0.0951 -0.4650
10923TIP3    H154260   4.601   1.575   2.270  1.7940  0.3363  1.8021
10923TIP3    H254261   4.489   1.544   2.367  0.9069 -1.0310  0.3894
10924TIP3   OH254262   1.226   4.865   0.795  1.0985  0.1592 -0.5239
10924TIP3    H154263   1.195   4.776   0.778 -2.9178  1.1644  0.4371
10924TIP3    H254264   1.281   4.887   0.720  1.5820 -2.7918 -1.1587
10925TIP3   OH254265   6.319   2.977   5.036  0.2763  0.4588  0.2618
10925TIP3    H154266   6.314   2.908   4.970 -0.2073 -1.4530  2.1695
10925TIP3    H254267   6.392   2.952   5.093  0.2336  1.6443  0.8808
10926TIP3   OH254268   6.472   6.419   9.430  0.0999  0.4068  0.0886
10926TIP3    H154269   6.560   6.392   9.458  0.6737  1.6039 -0.4580
10926TIP3    H254270   6.482   6.513   9.411 -1.0641  0.3340 -0.9315
10927TIP3   OH254271   1.716   1.907  12.554  0.1492  0.0412  0.3381
10927TIP3    H154272   1.717   1.882  12.647 -0.1411  2.2329  0.9796
10927TIP3    H254273   1.795   1.960  12.543 -0.5060  0.9007 -0.3237
10928TIP3   OH254274   0.321   1.565  13.985 -0.3674  0.3169  0.0018
10928TIP3    H154275   0.247   1.517  13.947  0.9135 -2.5764  0.8545
10928TIP3    H254276   0.339   1.519  14.067  0.0878  3.2845  1.7026
10929TIP3   OH254277   2.152   2.385   2.706 -0.3484 -0.3747 -0.4717
10929TIP3    H154278   2.106   2.304   2.683 -0.3093 -0.6305  0.3159
10929TIP3    H254279   2.213   2.399   2.634  0.9340 -2.0517  0.2158
10930TIP3   OH254280   6.698   5.146  12.264 -0.3844  0.6613 -0.4037
10930TIP3    H154281   6.767   5.164  12.200 -0.7074  0.0452 -0.9430
10930TIP3    H254282   6.666   5.059  12.241 -1.4442  0.9954 -0.2559
10931TIP3   OH254283   0.593   6.663   4.188 -0.3582  0.2367 -0.1706
10931TIP3    H154284   0.622   6.704   4.107 -0.7455  0.0376 -0.4157
10931TIP3    H254285   0.546   6.732   4.235  1.0967  0.7616  0.5563
10932TIP3   OH254286   0.341   1.052  14.193  0.3478  0.0941 -0.0728
10932TIP3    H154287   0.260   1.010  14.165  1.2589 -1.6520 -0.2601
10932TIP3    H254288   0.388   1.071  14.111  0.4749  0.3374  0.0571
10933TIP3   OH254289   5.998   0.177   1.707 -0.1260 -0.1093  0.5111
10933TIP3    H154290   5.948   0.147   1.783 -0.4966  3.2346  1.7454
10933TIP3    H254291   6.089   0.174   1.736  0.0645 -1.9357 -0.1526
10934TIP3   OH254292   3.814   5.004   2.786  0.5050  0.5720  0.5080
10934TIP3    H154293   3.740   5.065   2.783 -0.4756 -0.6214 -0.6769
10934TIP3    H254294   3.774   4.917   2.794  1.8618  0.0328  2.0565
10935TIP3   OH254295   0.353   2.899  12.422  0.0708  0.2991 -0.1238
10935TIP3    H154296   0.290   2.833  12.452  1.2168 -0.1505  1.4049
10935TIP3    H254297   0.299   2.974  12.396 -1.0825  0.6486  2.9473
10936TIP3   OH254298   1.047   1.911  10.674  0.4369  0.2545 -0.0178
10936TIP3    H154299   1.034   1.961  10.755 -0.8818  0.0389 -0.0678
10936TIP3    H254300   1.099   1.968  10.618 -3.3933  2.9927 -1.2351
10937TIP3   OH254301   1.932   4.972   4.480 -0.9002  0.7002 -0.1418
10937TIP3    H154302   1.873   4.968   4.405 -0.4147  3.5594 -0.7713
10937TIP3    H254303   1.877   5.003   4.552 -1.0533 -0.7513  0.4137
10938TIP3   OH254304   2.485   3.872   4.269  0.2646 -0.5575 -0.6883
10938TIP3    H154305   2.446   3.874   4.182  0.7758 -0.7100 -0.9215
10938TIP3    H254306   2.412   3.847   4.327 -0.2281  0.1912 -0.9781
10939TIP3   OH254307   5.862   4.566   2.313 -0.2594  0.7771  0.4124
10939TIP3    H154308   5.936   4.524   2.271 -1.0334  0.6891 -0.9182
10939TIP3    H254309   5.868   4.540   2.405  1.0316  0.3261  0.2127
10940TIP3   OH254310   5.414   1.979   1.383 -0.2241 -0.1462 -0.4744
10940TIP3    H154311   5.432   1.902   1.329  1.5498 -0.4753  0.5176
10940TIP3    H254312   5.322   1.999   1.366  0.4059  0.2754 -4.2534
10941TIP3   OH254313   4.293   1.368  14.999  0.2094 -0.3614  0.3630
10941TIP3    H154314   4.229   1.330  15.060 -1.0280  1.2768  0.1511
10941TIP3    H254315   4.240   1.414  14.934  1.5463 -1.1399 -1.3536
10942TIP3   OH254316   0.456   5.944  11.754 -0.4923 -0.6201 -0.5538
10942TIP3    H154317   0.510   5.878  11.712 -0.0378 -0.6419  0.0593
10942TIP3    H254318   0.373   5.899  11.773 -0.5759 -0.7062 -1.0923
10943TIP3   OH254319   1.959   6.762   2.375  0.1298 -0.7637 -0.0446
10943TIP3    H154320   1.976   6.853   2.353  1.6015 -0.5383  1.8359
10943TIP3    H254321   1.942   6.762   2.469 -0.1854 -2.3822 -0.0661
10944TIP3   OH254322   5.921   4.036   1.514  0.5316  0.5587  0.3323
10944TIP3    H154323   5.880   4.119   1.489 -0.8614 -0.0445  0.5283
10944TIP3    H254324   6.011   4.059   1.535  1.5361  1.3371 -3.9605
10945TIP3   OH254325   2.639   3.994   4.913  0.2314 -0.2498 -0.2838
10945TIP3    H154326   2.699   3.933   4.956 -0.6004 -0.7558  0.2037
10945TIP3    H254327   2.583   3.938   4.858 -0.4935  0.0712  0.1124
10946TIP3   OH254328   5.942   3.071  14.427  0.3184 -0.1772 -0.5939
10946TIP3    H154329   5.989   3.007  14.481  0.8237  0.5711 -0.1255
10946TIP3    H254330   6.011   3.125  14.388 -0.1173  1.0992  0.3030
10947TIP3   OH254331   2.789   1.426   2.528  0.1770 -0.0998 -0.1357
10947TIP3    H154332   2.696   1.421   2.506  0.0472  0.6711  0.1787
10947TIP3    H254333   2.800   1.515   2.563  0.8410 -0.5044  0.7172
10948TIP3   OH254334   0.393   5.289  11.772  0.4012  0.3359 -0.0953
10948TIP3    H154335   0.369   5.342  11.695 -0.3909 -1.0524 -0.8499
10948TIP3    H254336   0.369   5.200  11.748 -1.2722  0.0257  2.3186
10949TIP3   OH254337   4.435   0.471  13.918 -0.3437 -0.0568 -0.1713
10949TIP3    H154338   4.495   0.496  13.988 -0.5695  0.0054  0.0039
10949TIP3    H254339   4.490   0.458  13.841  0.0038 -0.8439  0.1963
10950TIP3   OH254340   6.774   6.073   3.832 -0.7139 -0.4669 -0.4059
10950TIP3    H154341   6.741   6.156   3.799 -0.1819 -0.4884 -1.0053
10950TIP3    H254342   6.844   6.098   3.893  0.6568 -0.4874 -1.9055
10951TIP3   OH254343   2.845   5.497   3.101  0.4029  0.3497 -0.4102
10951TIP3    H154344   2.795   5.556   3.157 -2.7001 -2.1665 -0.2741
10951TIP3    H254345   2.820   5.520   3.012  0.6162  0.4133 -0.4549
10952TIP3   OH254346   1.486   5.282   4.413  0.3705  0.5600 -0.3287
10952TIP3    H154347   1.423   5.336   4.460 -1.4514 -1.3493 -0.4202
10952TIP3    H254348   1.433   5.236   4.348  2.0403 -0.4372 -1.0398
10953TIP3   OH254349   0.547   0.385   4.138  0.1522  0.0930  0.3897
10953TIP3    H154350   0.640   0.380   4.114 -0.1331  0.4245 -0.8561
10953TIP3    H254351   0.521   0.295   4.156  0.1868 -0.3099 -1.4204
10954TIP3   OH254352   4.377   4.111   2.754  0.6613 -0.0696 -0.5817
10954TIP3    H154353   4.299   4.163   2.769 -0.2489 -1.0104 -1.8362
10954TIP3    H254354   4.392   4.065   2.836  0.0263  0.2723 -0.2703
10955TIP3   OH254355   4.385   1.216  11.404 -0.1479  0.2212 -0.0750
10955TIP3    H154356   4.436   1.164  11.342 -2.0640  0.4359 -1.9447
10955TIP3    H254357   4.412   1.306  11.387 -0.3554  0.2454 -0.2676
10956TIP3   OH254358   1.711   2.807   4.767  0.3582  0.2326 -0.2146
10956TIP3    H154359   1.662   2.743   4.715  0.7954 -0.6018  0.3797
10956TIP3    H254360   1.722   2.882   4.708 -1.3980  0.3655 -0.4500
10957TIP3   OH254361   5.859   1.704   4.378  0.3701 -0.6575  0.2818
10957TIP3    H154362   5.835   1.693   4.470 -0.1862  0.7378  0.3316
10957TIP3    H254363   5.942   1.752   4.380  1.0273 -1.7499  0.0524
10958TIP3   OH254364   6.619   4.009  12.925 -0.4673 -0.0594 -0.0996
10958TIP3    H154365   6.574   3.951  12.987 -0.2427 -0.2550 -0.1152
10958TIP3    H254366   6.550   4.064  12.888 -0.7730 -0.6698 -0.4643
10959TIP3   OH254367   6.641   3.234   0.348  0.2107 -0.1654 -0.5382
10959TIP3    H154368   6.608   3.227   0.438 -0.5875  0.0760 -0.7960
10959TIP3    H254369   6.580   3.295   0.306  1.5673  1.0496 -0.7948
10960TIP3   OH254370   2.670   0.810  13.882 -0.1385 -0.3462  0.1197
10960TIP3    H154371   2.650   0.843  13.970  0.2820  1.3884 -0.4058
10960TIP3    H254372   2.589   0.823  13.833 -0.1650 -0.6987  0.0667
10961TIP3   OH254373   4.787   0.700  11.804 -0.3240 -0.2844 -0.0402
10961TIP3    H154374   4.695   0.725  11.802 -0.2287  0.0251 -1.8081
10961TIP3    H254375   4.787   0.609  11.773 -0.1363 -0.7336  1.2100
10962TIP3   OH254376   2.342   6.389   1.873 -0.7397  0.4401  0.2161
10962TIP3    H154377   2.387   6.364   1.953  1.3374 -0.6367 -1.1940
10962TIP3    H254378   2.371   6.325   1.808 -3.3311  0.4981 -1.1486
10963TIP3   OH254379   4.258   1.331   5.623  0.1013  0.1092  0.2885
10963TIP3    H154380   4.329   1.269   5.640 -0.1600 -1.1125 -2.6001
10963TIP3    H254381   4.192   1.280   5.576 -0.9474  2.1600 -0.5843
10964TIP3   OH254382   3.881   1.509  11.227 -0.2436  0.2780 -0.5022
10964TIP3    H154383   3.926   1.582  11.186  0.6785 -0.7621 -1.4258
10964TIP3    H254384   3.908   1.432  11.176  0.4232 -1.0037  1.6174
10965TIP3   OH254385   0.925   4.743   1.569  0.6095  0.0786 -0.6859
10965TIP3    H154386   0.831   4.730   1.579  0.5670  1.3777  0.9878
10965TIP3    H254387   0.964   4.689   1.637  0.9650  0.7320 -0.3579
10966TIP3   OH254388   5.998   1.503   0.093  0.2157  0.7415 -0.4652
10966TIP3    H154389   6.005   1.433   0.158 -4.5243 -0.3003 -0.7473
10966TIP3    H254390   6.013   1.584   0.143 -0.8376 -0.1631  1.4229
10967TIP3   OH254391   1.255   0.030   2.422 -0.2912 -0.0572 -0.1259
10967TIP3    H154392   1.320  -0.035   2.397  0.4038  0.7525 -0.4672
10967TIP3    H254393   1.279   0.108   2.373 -1.3967  0.3259 -0.0971
10968TIP3   OH254394   4.448   3.022   1.182 -0.0934  0.3542  0.3667
10968TIP3    H154395   4.513   3.022   1.112 -1.7905  3.4479 -1.4463
10968TIP3    H254396   4.495   3.054   1.259  1.1563 -0.2398 -0.1252
10969TIP3   OH254397   7.193   4.949   4.505 -0.0204 -0.0615  0.2518
10969TIP3    H154398   7.152   4.862   4.510 -3.3200  1.3100 -0.0976
10969TIP3    H254399   7.240   4.958   4.587 -1.0731 -1.5344  1.0717
10970TIP3   OH254400   0.888   2.844   3.049  0.2039  0.1501  0.2360
10970TIP3    H154401   0.925   2.775   2.994  0.6737 -1.0243  1.9318
10970TIP3    H254402   0.963   2.899   3.072  0.0356  0.5503 -0.1618
10971TIP3   OH254403   2.330   6.020   2.145  0.4963  0.0926 -0.4785
10971TIP3    H154404   2.392   6.041   2.076  1.9682 -1.2262  0.3994
10971TIP3    H254405   2.367   5.944   2.189 -1.8965 -0.9366 -0.0929
10972TIP3   OH254406   4.360   5.325  11.728  0.1211 -0.0179  0.2739
10972TIP3    H154407   4.341   5.247  11.779  2.2445 -0.0971  1.0590
10972TIP3    H254408   4.456   5.327  11.722  0.0410  1.4622 -1.4123
10973TIP3   OH254409   6.677   3.502   0.605  0.6107 -0.0410 -0.3634
10973TIP3    H154410   6.722   3.561   0.665 -0.5817  0.6676 -0.1184
10973TIP3    H254411   6.677   3.548   0.521  0.4504 -0.0832 -0.3869
10974TIP3   OH254412   6.890   4.936   2.103  0.0702 -0.0782  0.2709
10974TIP3    H154413   6.890   4.871   2.173  0.8098  0.8043  1.1182
10974TIP3    H254414   6.853   4.890   2.027  1.2684 -1.7102  0.6300
10975TIP3   OH254415   0.100   4.700  15.146 -0.4209  0.5760 -0.1821
10975TIP3    H154416   0.088   4.776  15.202  3.5292  1.9448 -0.8303
10975TIP3    H254417   0.129   4.736  15.062  1.9851 -1.5287 -0.3983
10976TIP3   OH254418   1.739   1.521  12.224  0.6776 -0.1214  0.0755
10976TIP3    H154419   1.670   1.479  12.172  1.0579 -0.5872 -0.0555
10976TIP3    H254420   1.699   1.602  12.255  0.1317 -0.2963 -0.1586
10977TIP3   OH254421   5.361   5.662  13.650  0.1438 -0.3522  0.5768
10977TIP3    H154422   5.369   5.628  13.739  0.6396 -0.8411  0.3527
10977TIP3    H254423   5.444   5.638  13.608 -0.7505 -1.6341 -0.5344
10978TIP3   OH254424   5.807   3.092  15.271  0.0144  0.0945  0.6020
10978TIP3    H154425   5.790   3.186  15.278  1.2868  0.3926  0.0537
10978TIP3    H254426   5.900   3.087  15.250 -0.7952 -1.0458 -3.9624
10979TIP3   OH254427   3.726   5.391  10.436 -0.0821  0.1384 -0.7596
10979TIP3    H154428   3.691   5.480  10.435 -1.1770 -0.2773 -1.5796
10979TIP3    H254429   3.681   5.346  10.364  0.0211 -1.2433 -0.0036
10980TIP3   OH254430   3.127   6.409   1.422 -0.0554  0.0144  0.6595
10980TIP3    H154431   3.114   6.470   1.495  1.0230 -0.0319  0.9095
10980TIP3    H254432   3.104   6.460   1.344 -1.2159  0.0627  1.0109
10981TIP3   OH254433   1.125   4.588  14.495 -0.1591  0.7031  0.1749
10981TIP3    H154434   1.093   4.498  14.490 -0.5475  0.8875 -0.8541
10981TIP3    H254435   1.047   4.640  14.511  0.0650  0.8662  0.7666
10982TIP3   OH254436   2.311   0.570  13.798 -0.0726  0.1111 -0.3671
10982TIP3    H154437   2.334   0.663  13.793  1.0167 -0.1625 -0.7602
10982TIP3    H254438   2.362   0.529  13.728 -0.7747 -0.7420 -0.3916
10983TIP3   OH254439   2.360   1.579   2.785 -0.1636  0.2885  0.1763
10983TIP3    H154440   2.280   1.599   2.832 -1.3060 -0.2664 -1.4493
10983TIP3    H254441   2.358   1.636   2.708  0.1815 -0.8580 -0.7147
10984TIP3   OH254442   1.473   2.035  12.454  0.0693 -0.3914  0.2419
10984TIP3    H154443   1.393   1.986  12.471 -0.1199  0.1078  0.8278
10984TIP3    H254444   1.543   1.972  12.469 -0.1341 -0.2928  1.8296
10985TIP3   OH254445   6.972   3.199  13.256 -0.5204  0.5765 -0.1675
10985TIP3    H154446   6.904   3.259  13.225 -1.0967  0.7949  1.4009
10985TIP3    H254447   7.040   3.256  13.292 -0.0989  0.3293 -0.5699
10986TIP3   OH254448   0.642   2.718  10.908  0.3049  0.2629 -0.2435
10986TIP3    H154449   0.631   2.788  10.844  0.9686  1.3777  0.8201
10986TIP3    H254450   0.620   2.758  10.992  4.3308  0.4375  0.9599
10987TIP3   OH254451   0.902   0.502   0.648  0.0099  0.0140  0.2230
10987TIP3    H154452   0.942   0.563   0.710  0.9604  0.5994 -0.9085
10987TIP3    H254453   0.946   0.521   0.565 -0.8763 -1.0740 -0.5240
10988TIP3   OH254454   5.011   0.018  15.415  0.0356 -0.4135  0.5114
10988TIP3    H154455   5.092  -0.032  15.424  1.6974  1.8193 -1.1015
10988TIP3    H254456   5.032   0.087  15.353 -3.6212 -0.7125 -1.3120
10989TIP3   OH254457   0.584   3.288  14.258  0.2614 -0.0220 -0.4176
10989TIP3    H154458   0.531   3.292  14.338 -0.7440 -1.5820 -0.9545
10989TIP3    H254459   0.650   3.221  14.277 -1.0938 -1.7266 -1.4733
10990TIP3   OH254460   3.097   5.026   6.097 -0.3578  0.0769 -0.4810
10990TIP3    H154461   3.072   5.079   6.021 -1.7738 -0.5076 -0.4397
10990TIP3    H254462   3.031   4.958   6.102 -0.7202  0.5206  1.7114
10991TIP3   OH254463   3.105   7.152  10.452 -0.1504  0.5778  0.0194
10991TIP3    H154464   3.036   7.101  10.495 -0.3400 -0.0680 -1.0153
10991TIP3    H254465   3.129   7.218  10.516  0.1658 -0.8654  1.4458
10992TIP3   OH254466   2.530   5.203   2.285  0.3093  0.1746 -0.1612
10992TIP3    H154467   2.469   5.133   2.261  2.5558 -2.0889  0.2858
10992TIP3    H254468   2.576   5.223   2.203  1.1902 -0.4891  0.1586
10993TIP3   OH254469   2.586   6.291   2.348 -0.2786 -0.1599 -0.6721
10993TIP3    H154470   2.577   6.333   2.434 -1.3972  0.0628 -0.8877
10993TIP3    H254471   2.588   6.197   2.367  2.5704 -0.0856 -0.1536
10994TIP3   OH254472   2.051   5.310  13.367 -0.2295 -0.3176  0.0700
10994TIP3    H154473   2.009   5.321  13.452  0.4488 -1.4081  0.5603
10994TIP3    H254474   2.001   5.240  13.325  0.3913 -0.8518  0.2077
10995TIP3   OH254475   1.036   3.022   4.611  0.0378  0.1542  0.0641
10995TIP3    H154476   1.117   3.019   4.662 -0.4633  0.8879  0.9313
10995TIP3    H254477   0.967   3.000   4.674 -0.3326 -1.9281 -0.9804
10996TIP3   OH254478   2.031   3.616   3.893  0.4568  0.1707  0.2964
10996TIP3    H154479   2.023   3.529   3.932  2.3060  0.2681  0.9840
10996TIP3    H254480   2.098   3.660   3.946  1.0074  1.3008 -1.2705
10997TIP3   OH254481   5.586   4.400   9.775  0.0446 -0.3831  0.1746
10997TIP3    H154482   5.644   4.392   9.850  0.3585  1.5035  0.1740
10997TIP3    H254483   5.644   4.416   9.701 -0.3534 -0.8028 -0.2398
10998TIP3   OH254484   4.146   3.690   0.293  0.1283 -0.6812 -0.5666
10998TIP3    H154485   4.125   3.647   0.210 -0.4287  0.2656 -0.9336
10998TIP3    H254486   4.165   3.618   0.353 -2.6437 -1.5948 -0.6414
10999TIP3   OH254487   2.352   3.452  10.854  0.5957  0.3623  0.4720
10999TIP3    H154488   2.258   3.437  10.845  0.6379 -0.8524  1.8415
10999TIP3    H254489   2.364   3.477  10.946  1.9986 -3.0972  1.3785
11000TIP3   OH254490   7.088   0.607  13.676  0.3849  0.3633  0.1223
11000TIP3    H154491   7.132   0.670  13.619  1.3273  0.5516  1.0400
11000TIP3    H254492   7.057   0.539  13.616 -1.5715  2.1424 -1.0463
11001TIP3   OH254493   5.602   0.800   2.096  0.2990 -0.1167 -0.5990
11001TIP3    H154494   5.553   0.798   2.013 -1.0068  1.8569  0.0483
11001TIP3    H254495   5.666   0.870   2.084 -0.4871  0.7992  0.3130
11002TIP3   OH254496   4.486   0.920  11.303  0.0447 -0.0751  0.4437
11002TIP3    H154497   4.520   0.942  11.389  1.0098  2.4505 -0.4802
11002TIP3    H254498   4.552   0.861  11.266  0.8791  0.7404  0.5769
11003TIP3   OH254499   5.097   4.047  14.397 -0.5822  0.5815  0.2802
11003TIP3    H154500   5.110   4.128  14.447  0.8311  1.5251 -1.5194
11003TIP3    H254501   5.184   4.008  14.391 -0.7494  0.4125 -1.2936
11004TIP3   OH254502   5.239   2.601   5.690  0.1176  0.8426  0.4494
11004TIP3    H154503   5.279   2.654   5.759  0.4436  1.6844 -0.3723
11004TIP3    H254504   5.146   2.621   5.694 -0.1481 -0.4483  1.7796
11005TIP3   OH254505   3.730   5.839  10.734  0.4879 -0.1810 -0.7552
11005TIP3    H154506   3.683   5.815  10.815  1.6556  0.4592  0.1380
11005TIP3    H254507   3.704   5.771  10.671 -0.4305 -0.7112  0.1568
11006TIP3   OH254508   6.767   2.889   3.080  0.1121  0.5157 -0.0362
11006TIP3    H154509   6.746   2.980   3.102 -0.9831  0.1332  0.5442
11006TIP3    H254510   6.710   2.868   3.007  0.7152  0.4398 -0.4914
11007TIP3   OH254511   0.055   5.292  13.787 -0.8101  0.1961 -0.1513
11007TIP3    H154512   0.086   5.311  13.698 -2.3314 -1.9263 -1.2184
11007TIP3    H254513   0.076   5.371  13.836 -1.1404  2.0312 -2.7299
11008TIP3   OH254514   1.495   6.734   1.130 -0.2069  0.0608  0.3894
11008TIP3    H154515   1.569   6.750   1.072 -1.7356  2.5553 -1.0617
11008TIP3    H254516   1.528   6.753   1.218  1.2482 -0.4983 -0.0024
11009TIP3   OH254517   0.362   2.599   1.471  0.1006 -0.1529  0.0978
11009TIP3    H154518   0.443   2.573   1.428 -0.2004  0.3413 -0.8008
11009TIP3    H254519   0.298   2.534   1.442 -0.4727  1.0687 -1.5303
11010TIP3   OH254520   3.064   5.811   1.861  0.4186 -0.4241 -0.8103
11010TIP3    H154521   3.160   5.811   1.856  0.5458 -1.0590  0.8327
11010TIP3    H254522   3.043   5.724   1.894 -0.5702  0.4159  0.8692
11011TIP3   OH254523   6.383   0.272  11.433 -0.7251  0.9165  0.2379
11011TIP3    H154524   6.388   0.176  11.440 -0.2437  1.0461  2.4419
11011TIP3    H254525   6.327   0.288  11.357  0.9625 -1.0868 -1.5527
11012TIP3   OH254526   1.131   4.691  15.164 -0.2559  0.2389 -0.6668
11012TIP3    H154527   1.062   4.755  15.179 -0.8943 -0.5216 -0.2531
11012TIP3    H254528   1.197   4.738  15.113 -2.0339  0.4202 -2.9929
11013TIP3   OH254529   3.074   6.628  11.890  0.7895  0.1930  0.0241
11013TIP3    H154530   3.128   6.685  11.944  0.4706  1.3150 -0.8064
11013TIP3    H254531   2.984   6.659  11.905  0.5925 -0.2003 -0.3025
11014TIP3   OH254532   3.687   4.908   3.109  0.1210 -0.1368 -0.1333
11014TIP3    H154533   3.749   4.976   3.136  0.3148 -0.4412  0.2079
11014TIP3    H254534   3.601   4.949   3.117  0.0874 -0.4772  1.8615
11015TIP3   OH254535   0.221   1.135  13.535 -0.5831  0.1734 -0.1654
11015TIP3    H154536   0.213   1.230  13.525 -2.7840  0.0820  0.3778
11015TIP3    H254537   0.218   1.120  13.629  2.1779 -0.3156 -0.0730
11016TIP3   OH254538   2.040   0.828   3.287 -0.0951 -0.1546  0.4809
11016TIP3    H154539   1.984   0.757   3.320  0.0850 -0.0106  1.1053
11016TIP3    H254540   2.122   0.819   3.336  0.6242 -0.6514 -0.7501
11017TIP3   OH254541   3.160   0.550  11.062  0.2398  0.5374 -0.3292
11017TIP3    H154542   3.146   0.464  11.100  2.3237  0.1398 -0.3138
11017TIP3    H254543   3.234   0.538  11.002  0.3315  2.2183 -0.6066
11018TIP3   OH254544   7.162   1.031  15.375 -0.2878 -0.2545 -0.0441
11018TIP3    H154545   7.248   1.029  15.415 -0.2027 -0.9134 -0.2521
11018TIP3    H254546   7.164   0.961  15.309 -1.3787 -1.1025  0.7789
11019TIP3   OH254547   5.260   0.477   2.993 -0.1192  0.1894 -0.0876
11019TIP3    H154548   5.300   0.547   2.941 -0.5495  0.4336 -0.0984
11019TIP3    H254549   5.307   0.398   2.967  0.8323  0.5646  0.4055
11020TIP3   OH254550   5.214   3.916   3.627  0.0924 -0.1608 -0.0320
11020TIP3    H154551   5.299   3.959   3.635 -0.0841  0.1416  0.2366
11020TIP3    H254552   5.235   3.825   3.608  0.4825  0.3404 -2.3176
11021TIP3   OH254553   4.637   0.180  13.037 -0.6750  0.4226 -0.1455
11021TIP3    H154554   4.713   0.156  12.983 -2.1405  0.5088 -2.3505
11021TIP3    H254555   4.601   0.258  12.994 -0.7452  1.7714  2.1904
11022TIP3   OH254556   0.037   1.041  11.203 -0.4956 -0.1035 -0.1301
11022TIP3    H154557  -0.006   0.957  11.183  1.0709 -0.7546 -0.9063
11022TIP3    H254558   0.061   1.077  11.118  2.2373 -0.7457  0.2699
11023TIP3   OH254559   0.291   3.919  15.425  0.3529 -0.1131 -0.8245
11023TIP3    H154560   0.261   4.008  15.444 -0.0537  0.3042 -3.1131
11023TIP3    H254561   0.234   3.863  15.476 -1.4200  0.8598 -1.6434
11024TIP3   OH254562   0.160   0.199   0.068  0.1053  0.0314 -0.5182
11024TIP3    H154563   0.234   0.197   0.007  0.7464  0.3328  0.2261
11024TIP3    H254564   0.142   0.292   0.081  0.8321  0.0111  0.7468
11025TIP3   OH254565   6.588   5.921   3.708  0.1690  0.0925  0.2730
11025TIP3    H154566   6.584   5.970   3.790  0.8097  0.4499  0.0917
11025TIP3    H254567   6.664   5.956   3.662 -0.1056 -0.1985 -0.4175
11026TIP3   OH254568   5.407   4.816   4.470  0.3513  0.3082 -0.4944
11026TIP3    H154569   5.349   4.781   4.403 -0.6850  0.7881  0.1326
11026TIP3    H254570   5.407   4.910   4.456 -0.4524  0.4963  0.5941
11027TIP3   OH254571   2.408   5.707   1.415 -0.5900 -0.3211 -0.0834
11027TIP3    H154572   2.499   5.728   1.436 -0.3343 -1.4229  0.0095
11027TIP3    H254573   2.364   5.791   1.412  0.0764  0.1297  1.5570
11028TIP3   OH254574   0.518   7.109   0.488 -0.4056  0.7564 -0.6605
11028TIP3    H154575   0.595   7.115   0.545  0.4654  1.1806 -1.8384
11028TIP3    H254576   0.447   7.150   0.538 -0.4200 -1.4725  1.3009
11029TIP3   OH254577   0.354   2.429   3.788 -0.5905 -0.0427 -0.3579
11029TIP3    H154578   0.405   2.386   3.857 -0.6046 -0.1687 -0.4274
11029TIP3    H254579   0.300   2.359   3.751 -0.1134 -0.1093 -0.9364
11030TIP3   OH254580   4.105   2.491   1.466 -0.0929 -0.1008  0.4970
11030TIP3    H154581   4.128   2.487   1.559  0.4512  1.9080  0.4829
11030TIP3    H254582   4.015   2.459   1.463 -0.8220  1.5952  2.0187
11031TIP3   OH254583   4.187   3.135   2.772  0.3234 -0.2393  0.2727
11031TIP3    H154584   4.124   3.126   2.843 -0.8462  0.6775 -0.5919
11031TIP3    H254585   4.213   3.046   2.750  0.1412 -0.5658  1.3580
11032TIP3   OH254586   6.608   2.261   4.398  0.4660  0.4055  0.0578
11032TIP3    H154587   6.538   2.306   4.446  0.4402 -2.1817  2.8024
11032TIP3    H254588   6.569   2.239   4.314  0.0124  3.9693 -0.8234
11033TIP3   OH254589   1.826   6.735  15.238 -0.4245 -0.1409  0.0243
11033TIP3    H154590   1.795   6.752  15.149 -0.4048 -3.2434 -0.7067
11033TIP3    H254591   1.752   6.693  15.282 -0.2273  0.7775  1.2952
11034TIP3   OH254592   0.244   2.032   3.923 -1.0422 -0.1192  0.5052
11034TIP3    H154593   0.248   1.955   3.866 -2.1965  1.8191 -2.4636
11034TIP3    H254594   0.334   2.047   3.949 -0.3525 -0.8500 -1.2918
11035TIP3   OH254595   5.352   2.702   1.865  0.2750 -0.0962 -0.2851
11035TIP3    H154596   5.351   2.786   1.912  1.0469 -0.2630  0.0496
11035TIP3    H254597   5.424   2.653   1.906  0.3728 -0.5937 -1.0440
11036TIP3   OH254598   4.572   6.581  14.947  1.0392 -0.1491 -0.0326
11036TIP3    H154599   4.563   6.514  15.015  1.5098  0.7949  0.9905
11036TIP3    H254600   4.503   6.644  14.967  0.5442 -0.3535 -1.0430
11037TIP3   OH254601   2.416   5.254   1.448 -0.2407  0.0369  0.3194
11037TIP3    H154602   2.395   5.319   1.380 -1.3457  1.4379  1.9002
11037TIP3    H254603   2.415   5.305   1.529  2.0532 -1.3695  1.3159
11038TIP3   OH254604   4.550   4.885   1.103 -0.2697 -0.1041  0.5329
11038TIP3    H154605   4.635   4.895   1.146  0.8970 -0.4763 -1.4998
11038TIP3    H254606   4.511   4.972   1.105  0.0193  0.0126  1.7337
11039TIP3   OH254607   0.591   1.158   4.569  0.1861  0.0098  0.2236
11039TIP3    H154608   0.501   1.182   4.590  0.8725  1.0675  2.1350
11039TIP3    H254609   0.604   1.192   4.480 -0.5166  2.2009  0.8938
11040TIP3   OH254610   2.386   2.812   1.318 -0.3345  0.4351 -0.2349
11040TIP3    H154611   2.317   2.859   1.272 -1.1584  0.0422  0.5822
11040TIP3    H254612   2.385   2.847   1.407 -0.9342 -1.0698  0.3805
11041TIP3   OH254613   3.026   5.689   0.975 -0.7458 -0.3276 -0.3094
11041TIP3    H154614   2.934   5.695   0.951 -0.9570 -2.4668 -0.2173
11041TIP3    H254615   3.045   5.596   0.974  1.5119  0.0725 -0.6017
11042TIP3   OH254616   5.023   1.283  10.536 -0.3516  0.0731  0.3585
11042TIP3    H154617   5.112   1.292  10.573 -0.0006  0.6555 -0.5846
11042TIP3    H254618   4.986   1.208  10.581 -0.9736  2.2704  3.9334
11043TIP3   OH254619   0.782   3.197   1.947 -0.0302  0.3594 -0.3521
11043TIP3    H154620   0.765   3.179   2.040  0.8038 -0.6883 -0.3909
11043TIP3    H254621   0.866   3.241   1.946 -0.3768  1.0206 -0.5605
11044TIP3   OH254622   0.252   6.277   0.079 -0.3813 -0.1342  0.1493
11044TIP3    H154623   0.274   6.187   0.103 -0.7345 -0.1577  0.3931
11044TIP3    H254624   0.191   6.306   0.147 -0.7272  0.0864 -0.2501
11045TIP3   OH254625   0.987   4.808   0.198  0.2927 -0.4457 -0.0152
11045TIP3    H154626   1.032   4.841   0.275 -0.2320 -0.6593  0.3852
11045TIP3    H254627   0.994   4.713   0.204 -1.4785 -0.5529  0.8384
11046TIP3   OH254628   7.131   4.186  13.077  0.2584  0.3762  0.5835
11046TIP3    H154629   7.143   4.259  13.016 -1.2146  0.4359  0.3314
11046TIP3    H254630   7.158   4.109  13.029  1.1910  0.6645  0.6234
11047TIP3   OH254631   1.667   2.300   3.536 -0.2768 -0.4511  0.4481
11047TIP3    H154632   1.692   2.359   3.465 -1.4145 -0.1608  0.2790
11047TIP3    H254633   1.703   2.341   3.614 -1.5296  0.7947  0.4106
11048TIP3   OH254634   4.329   6.170   0.810 -0.1482  0.1878 -0.1578
11048TIP3    H154635   4.325   6.197   0.902  0.9912 -3.1013  1.0036
11048TIP3    H254636   4.241   6.138   0.790  0.1974 -1.3577  0.6453
11049TIP3   OH254637   6.925   1.427   2.479  0.1187 -0.0516 -0.0200
11049TIP3    H154638   6.971   1.488   2.422 -0.0845  1.7904  1.6652
11049TIP3    H254639   6.886   1.483   2.547 -1.1763 -1.9475  0.8804
11050TIP3   OH254640   6.008   6.938   5.735 -0.3245  0.3163  0.2301
11050TIP3    H154641   5.924   6.892   5.747  0.2673 -0.7569  0.3483
11050TIP3    H254642   6.053   6.927   5.818  0.7522 -0.8328 -0.4801
11051TIP3   OH254643   3.420   5.887   4.682 -0.3619 -0.1764 -0.9033
11051TIP3    H154644   3.492   5.930   4.637 -0.6622 -1.4324 -2.7099
11051TIP3    H254645   3.461   5.843   4.757  0.3163  1.1730 -0.4597
11052TIP3   OH254646   3.361   3.778   4.795 -0.1559 -0.3525 -0.2698
11052TIP3    H154647   3.313   3.754   4.715 -0.2643 -0.9228 -0.0362
11052TIP3    H254648   3.406   3.859   4.772  1.4951 -1.5707 -1.6220
11053TIP3   OH254649   6.658   4.214   3.247 -0.3673 -0.0452  0.0206
11053TIP3    H154650   6.625   4.303   3.257  0.1529  0.1134  0.3726
11053TIP3    H254651   6.752   4.221   3.265 -0.3214 -0.6631  0.0519
11054TIP3   OH254652   1.703   3.076   4.888 -0.0728  0.1595 -0.1177
11054TIP3    H154653   1.647   3.136   4.838 -0.0110  1.0647  0.8724
11054TIP3    H254654   1.654   2.994   4.889 -1.1649  0.7919  0.3158
11055TIP3   OH254655   4.123   6.470  10.344 -0.1633 -0.1724 -0.3824
11055TIP3    H154656   4.218   6.474  10.352 -0.1753 -0.0648 -0.3010
11055TIP3    H254657   4.108   6.433  10.257 -0.0803  2.5068 -1.6182
11056TIP3   OH254658   0.534   5.371  10.027  0.2508 -0.0653 -0.0439
11056TIP3    H154659   0.538   5.333   9.939 -0.7533  0.4454 -0.3206
11056TIP3    H254660   0.473   5.445  10.019  2.7966  2.2135  0.2763
11057TIP3   OH254661   4.301   4.495   0.307  0.1756 -0.0521  0.4675
11057TIP3    H154662   4.323   4.444   0.384  2.1982  0.1831  0.0954
11057TIP3    H254663   4.227   4.449   0.268  0.0266 -0.9586  1.7730
11058TIP3   OH254664   6.014   1.836   5.297 -0.3127 -0.4520  0.8279
11058TIP3    H154665   6.097   1.794   5.316  1.1226  0.9305 -1.7604
11058TIP3    H254666   6.035   1.930   5.291 -1.5879 -0.2234 -1.6858
11059TIP3   OH254667   5.042   5.348   4.624  0.4055  0.4430  0.1233
11059TIP3    H154668   5.062   5.264   4.582  0.6435  0.2890  0.5320
11059TIP3    H254669   4.958   5.374   4.587 -0.3670 -0.6693  1.0376
11060TIP3   OH254670   0.751   4.026  12.541 -0.1636 -0.0083  0.0633
11060TIP3    H154671   0.740   3.970  12.617 -1.3403 -0.3779 -0.3531
11060TIP3    H254672   0.741   4.115  12.574 -1.3905 -0.1944  0.2534
11061TIP3   OH254673   2.990   2.732   0.858  0.5821 -0.2291  0.1683
11061TIP3    H154674   2.974   2.724   0.764  2.2310 -0.4767 -0.1286
11061TIP3    H254675   2.907   2.708   0.899 -0.5770  1.1692 -1.2400
11062TIP3   OH254676   4.413   3.263   3.618 -0.3579  0.9511 -0.1107
11062TIP3    H154677   4.460   3.321   3.678  0.1760  4.0724 -3.2587
11062TIP3    H254678   4.321   3.284   3.631 -0.2064  2.0704 -0.7409
11063TIP3   OH254679   2.076   6.514   0.494  0.3860  0.0299 -0.1285
11063TIP3    H154680   2.026   6.584   0.535  0.9062  0.5304 -0.3373
11063TIP3    H254681   2.103   6.550   0.410  0.3551 -0.5553 -0.3971
11064TIP3   OH254682   4.861   6.321   4.103  0.0267 -0.1926  0.2443
11064TIP3    H154683   4.845   6.232   4.071  0.5195 -0.3459  0.4214
11064TIP3    H254684   4.775   6.351   4.134 -0.9151  0.6147 -2.7679
11065TIP3   OH254685   0.457   1.373   4.941  0.2864 -0.0411 -0.1523
11065TIP3    H154686   0.454   1.417   5.026  0.6225  1.4861 -0.9037
11065TIP3    H254687   0.485   1.284   4.961 -0.0223  0.1772  1.3727
11066TIP3   OH254688   6.085   6.849  14.359 -0.2991  0.1629  0.1096
11066TIP3    H154689   6.069   6.773  14.303 -0.1634  1.0260 -1.1420
11066TIP3    H254690   5.999   6.873  14.393 -0.5935  0.4195 -0.7962
11067TIP3   OH254691   4.559   5.539   0.133  0.2164 -0.5202  0.1053
11067TIP3    H154692   4.468   5.525   0.110  0.4147  0.0754 -1.1243
11067TIP3    H254693   4.566   5.633   0.149  0.4156 -0.7036  1.2008
11068TIP3   OH254694   2.529   5.413   4.790  0.2180 -0.1363 -0.3406
11068TIP3    H154695   2.585   5.335   4.784  0.4322 -0.0758  0.6849
11068TIP3    H254696   2.581   5.476   4.839 -0.0480  0.5798 -0.9640
11069TIP3   OH254697   6.548   6.041  12.279  0.1973  0.4195  0.1989
11069TIP3    H154698   6.634   6.081  12.265  0.9259 -1.8153 -2.9648
11069TIP3    H254699   6.486   6.107  12.248  1.0614  0.7602 -0.8855
11070TIP3   OH254700   4.848   2.064   2.238  0.1031  0.6237 -0.5379
11070TIP3    H154701   4.895   1.984   2.261 -0.4340  0.6365  0.6910
11070TIP3    H254702   4.887   2.092   2.155  2.0534  0.4725  0.2653
11071TIP3   OH254703   6.738   0.927  13.213 -0.4410 -0.9779  0.1530
11071TIP3    H154704   6.773   0.974  13.138 -3.9943  1.1099 -0.3963
11071TIP3    H254705   6.781   0.967  13.289  0.7315 -0.8067 -0.5845
11072TIP3   OH254706   0.497   0.939  14.867  0.4335  0.1540 -0.7933
11072TIP3    H154707   0.414   0.948  14.914  0.3117 -1.5329 -0.6522
11072TIP3    H254708   0.552   0.886  14.924  1.8754  1.7284 -0.6105
11073TIP3   OH254709   2.407   7.012   3.231  0.9439  0.3482  0.1974
11073TIP3    H154710   2.439   7.003   3.142 -1.9124  1.4866 -1.0754
11073TIP3    H254711   2.386   7.105   3.240  0.9294  0.2176  1.9695
11074TIP3   OH254712   7.085   3.165   9.329 -0.4251  0.1183  0.2853
11074TIP3    H154713   7.045   3.129   9.408 -0.3755  1.3361  0.8864
11074TIP3    H254714   7.109   3.254   9.352 -1.7001  1.0041 -1.5290
11075TIP3   OH254715   1.875   2.755   0.437  0.5865  0.3875 -0.9237
11075TIP3    H154716   1.969   2.745   0.424  1.0293  1.7705  0.7489
11075TIP3    H254717   1.867   2.828   0.499 -1.3483 -2.2042  2.2366
11076TIP3   OH254718   2.699   0.911   2.081 -0.7450  0.3974 -0.5209
11076TIP3    H154719   2.700   1.001   2.112 -1.2478  0.3197 -0.2552
11076TIP3    H254720   2.788   0.894   2.051 -0.1599  0.4153  1.0999
11077TIP3   OH254721   3.132   5.644   1.625 -0.3451  0.2282  0.3332
11077TIP3    H154722   3.107   5.710   1.561  0.2213 -2.2111 -2.6427
11077TIP3    H254723   3.207   5.682   1.671  0.1684  1.5629 -1.5079
11078TIP3   OH254724   0.022   0.545   1.624  0.7030  0.2875  0.1296
11078TIP3    H154725   0.025   0.638   1.604  0.8975  0.4672  0.9337
11078TIP3    H254726   0.103   0.509   1.587  0.8057  0.5117  0.1372
11079TIP3   OH254727   3.189   1.959   5.374  0.0142  0.1677  0.4036
11079TIP3    H154728   3.265   1.900   5.376  0.7483  0.9484 -1.4210
11079TIP3    H254729   3.171   1.978   5.466  0.3082 -2.1525  1.0152
11080TIP3   OH254730   6.995   0.728   4.647  0.1905 -0.3527 -0.0429
11080TIP3    H154731   7.083   0.726   4.609  0.2534  1.8465 -0.1387
11080TIP3    H254732   6.986   0.817   4.681 -2.0883 -0.4594 -0.2456
11081TIP3   OH254733   1.482   1.307  13.740 -0.8671 -0.3692  0.0263
11081TIP3    H154734   1.410   1.323  13.801 -0.5053 -0.2337  0.4162
11081TIP3    H254735   1.465   1.218  13.707 -0.9864 -0.4999  0.4298
11082TIP3   OH254736   4.964   3.077  13.228  0.2827  0.0082 -0.2857
11082TIP3    H154737   5.041   3.021  13.219  0.6884  0.5172 -0.0146
11082TIP3    H254738   4.916   3.065  13.146 -0.2907 -1.6999  0.2554
11083TIP3   OH254739   4.971   4.699   2.374 -0.2396  0.2239  0.0169
11083TIP3    H154740   4.948   4.608   2.360 -0.8764  0.1906  1.2250
11083TIP3    H254741   4.919   4.727   2.449 -2.4428  2.4711 -2.1480
11084TIP3   OH254742   4.870   4.518  11.193 -0.3444 -0.1511 -0.3274
11084TIP3    H154743   4.846   4.498  11.102 -0.9096  2.8474 -0.9318
11084TIP3    H254744   4.882   4.613  11.195  2.7202 -0.4492  2.0792
11085TIP3   OH254745   1.150   0.801   4.997 -0.2445 -0.1253 -0.1686
11085TIP3    H154746   1.208   0.728   5.017 -0.3655 -0.2348 -0.2230
11085TIP3    H254747   1.162   0.862   5.070 -0.9953 -0.7088  0.4471
11086TIP3   OH254748   1.741   1.832   1.627 -0.0370 -0.3422  0.0727
11086TIP3    H154749   1.823   1.838   1.579 -0.6465  1.6659 -0.7943
11086TIP3    H254750   1.757   1.880   1.708 -0.7389  1.3017 -0.7224
11087TIP3   OH254751   0.813   3.135  15.349 -0.7579  0.8741  0.1974
11087TIP3    H154752   0.842   3.088  15.427 -0.1443  0.9928  0.0465
11087TIP3    H254753   0.773   3.068  15.294  1.0660  0.3018 -0.4924
11088TIP3   OH254754   4.652   1.356   4.347  0.2740  0.2641 -0.2748
11088TIP3    H154755   4.733   1.357   4.295  0.1455 -0.2397 -0.4917
11088TIP3    H254756   4.671   1.412   4.422  0.2536  1.5097 -1.1818
11089TIP3   OH254757   6.907   6.241  13.533  0.2471 -0.5375 -0.2673
11089TIP3    H154758   6.829   6.199  13.495  0.5854 -1.4118 -0.0341
11089TIP3    H254759   6.909   6.211  13.624 -0.0188  0.7662  0.1885
11090TIP3   OH254760   0.580   1.233  12.924 -0.2302 -0.2910 -0.2973
11090TIP3    H154761   0.515   1.263  12.861 -0.4214 -0.0911 -0.0094
11090TIP3    H254762   0.644   1.304  12.928  0.1725 -0.6178 -0.8067
11091TIP3   OH254763   3.901   6.441   1.879  0.0140 -0.0369 -0.2618
11091TIP3    H154764   3.947   6.516   1.841  0.2464 -0.4026 -0.7083
11091TIP3    H254765   3.951   6.421   1.958  0.2902 -0.0783 -0.4443
11092TIP3   OH254766   1.285   6.690   0.836 -0.1264 -0.2392 -0.2871
11092TIP3    H154767   1.344   6.765   0.844  0.3928 -0.7469  0.8141
11092TIP3    H254768   1.202   6.721   0.874 -1.0303  0.8710 -2.8908
11093TIP3   OH254769   2.051   2.874  13.299 -0.0645  0.0175  0.4533
11093TIP3    H154770   2.117   2.922  13.248 -0.8842  1.0331  0.3039
11093TIP3    H254771   1.979   2.860  13.237 -0.5654  0.1757  0.9947
11094TIP3   OH254772   2.563   6.843   0.806 -0.4468 -0.5538  0.3123
11094TIP3    H154773   2.558   6.922   0.751 -0.1391 -1.3395 -0.8865
11094TIP3    H254774   2.478   6.800   0.793  0.4251 -1.8826 -1.3735
11095TIP3   OH254775   2.671   5.848  10.809 -0.4354  0.8612 -0.4439
11095TIP3    H154776   2.629   5.821  10.728  2.5996 -0.2697 -1.8074
11095TIP3    H254777   2.630   5.932  10.832 -2.6030  0.3211 -2.1269
11096TIP3   OH254778   0.918   5.092   5.072 -0.1168  0.2334 -0.2725
11096TIP3    H154779   0.950   5.111   5.160  0.6687 -2.1358  0.0174
11096TIP3    H254780   0.995   5.098   5.016 -0.8984  3.5205 -1.2402
11097TIP3   OH254781   0.183   0.864  15.326  0.0953 -0.4679 -0.0587
11097TIP3    H154782   0.146   0.777  15.312 -0.9530 -0.0087 -0.1920
11097TIP3    H254783   0.177   0.877  15.421  2.1717 -1.3570  0.2541
11098TIP3   OH254784   5.299   1.192   2.253 -0.3886 -0.6461 -0.1414
11098TIP3    H154785   5.214   1.212   2.215 -1.3010 -2.8080  0.6251
11098TIP3    H254786   5.306   1.096   2.249  2.3358 -0.5275 -0.8602
11099TIP3   OH254787   7.149   5.891   4.416  0.2146 -0.0784 -0.1152
11099TIP3    H154788   7.210   5.952   4.375  0.4586 -0.3753 -0.2013
11099TIP3    H254789   7.144   5.817   4.355  0.1802 -0.2930  0.1415
11100TIP3   OH254790   5.203   6.753  15.136  0.3563  0.3248  0.2017
11100TIP3    H154791   5.259   6.727  15.210 -0.3726  0.3999  0.7892
11100TIP3    H254792   5.165   6.836  15.164  0.3226  0.5124 -0.3993
11101TIP3   OH254793   6.229   6.439  12.787 -0.0737  0.4933 -0.1486
11101TIP3    H154794   6.314   6.466  12.822 -0.0684  1.7779 -1.1177
11101TIP3    H254795   6.177   6.519  12.786 -0.7039  0.0785 -1.2669
11102TIP3   OH254796   3.243   3.716  15.401 -0.2188 -0.0990 -0.0202
11102TIP3    H154797   3.321   3.741  15.352 -0.6664  0.0427 -0.6832
11102TIP3    H254798   3.170   3.740  15.343 -0.7475 -0.3080  0.5488
11103TIP3   OH254799   3.439   3.798   1.263 -0.2815 -0.1001  0.7096
11103TIP3    H154800   3.397   3.759   1.340  0.6898 -2.7489 -0.0226
11103TIP3    H254801   3.532   3.795   1.282 -0.1397  2.1587  0.6780
11104TIP3   OH254802   2.243   5.930   5.892  0.3725 -0.3765  0.1387
11104TIP3    H154803   2.304   5.889   5.830  1.4549 -0.0218  0.9341
11104TIP3    H254804   2.254   6.024   5.878 -0.3807 -0.3116 -0.0564
11105TIP3   OH254805   5.130   4.607  14.489  0.0732  0.0408  0.5013
11105TIP3    H154806   5.174   4.659  14.556 -2.1744 -0.9244  2.9232
11105TIP3    H254807   5.067   4.667  14.450  1.6367  0.7088 -1.1325
11106TIP3   OH254808   4.897   7.095   0.222 -0.7644  0.3426 -0.2705
11106TIP3    H154809   4.840   7.033   0.176  0.8663 -1.3506 -0.1230
11106TIP3    H254810   4.935   7.148   0.152 -1.4691  0.5852 -0.4803
11107TIP3   OH254811   4.677   3.560   2.652  0.0502 -0.0240  0.4078
11107TIP3    H154812   4.666   3.652   2.677 -2.3287  0.3852 -1.6976
11107TIP3    H254813   4.631   3.511   2.719  0.2964  0.4170  0.9049
11108TIP3   OH254814   2.246   0.074  10.279  0.4111 -0.1344 -0.3650
11108TIP3    H154815   2.276   0.135  10.213 -1.0516 -0.3234 -1.2480
11108TIP3    H254816   2.152   0.091  10.287 -0.1293 -2.4522 -0.8957
11109TIP3   OH254817   5.829   4.285  11.380 -0.3174 -0.7324  0.3707
11109TIP3    H154818   5.839   4.378  11.401 -0.2397 -0.8496  0.8773
11109TIP3    H254819   5.886   4.272  11.304 -0.0083 -0.4528  0.5476
11110TIP3   OH254820   0.107   0.417   4.606 -0.1513 -0.1466  0.0378
11110TIP3    H154821   0.184   0.395   4.659  0.3313 -0.7295 -0.8893
11110TIP3    H254822   0.063   0.487   4.656 -0.6683 -1.8300  2.0720
11111TIP3   OH254823   4.313   0.050   1.717 -0.1757  0.0073 -0.0853
11111TIP3    H154824   4.403   0.084   1.720  0.7870 -2.3366 -0.6115
11111TIP3    H254825   4.307  -0.009   1.792 -0.8720 -0.7748 -0.7348
11112TIP3   OH254826   0.503   5.631   1.262  0.1500  0.6783  0.3976
11112TIP3    H154827   0.416   5.601   1.234  1.2853 -1.3658 -1.1650
11112TIP3    H254828   0.518   5.585   1.345 -0.1420  0.8155  0.5272
11113TIP3   OH254829   4.727   4.910   2.383  0.0208 -0.0528  0.0155
11113TIP3    H154830   4.707   4.999   2.353 -0.9008 -0.1608  0.2945
11113TIP3    H254831   4.794   4.923   2.450  0.8949  0.3146 -0.8935
11114TIP3   OH254832   4.209   3.194  14.115 -0.2692 -0.0708  0.7477
11114TIP3    H154833   4.230   3.101  14.124  1.2923  0.3118  1.3494
11114TIP3    H254834   4.120   3.201  14.149 -0.5076 -1.3849  0.4486
11115TIP3   OH254835   2.291   0.377   0.807  0.0324 -0.4342 -0.0459
11115TIP3    H154836   2.281   0.464   0.846 -0.7147 -0.4142 -0.2674
11115TIP3    H254837   2.266   0.317   0.877  0.6438 -0.4771  0.1382
11116TIP3   OH254838   1.199   2.587   3.224  0.0690 -0.4567  0.1437
11116TIP3    H154839   1.106   2.598   3.204  0.3103 -0.5979 -1.0910
11116TIP3    H254840   1.208   2.495   3.248 -0.0029 -0.5829 -0.3184
11117TIP3   OH254841   3.149   0.304   2.952  0.0455 -0.0390 -0.4676
11117TIP3    H154842   3.204   0.229   2.928  0.1727  0.0851 -0.5658
11117TIP3    H254843   3.177   0.374   2.894 -1.5943 -0.5297 -1.9450
11118TIP3   OH254844   5.279   1.019  15.027  0.1830  0.2961  0.5362
11118TIP3    H154845   5.224   1.042  14.952  0.4567  2.0589  0.8497
11118TIP3    H254846   5.224   0.962  15.081  0.1090 -1.3266 -1.1576
11119TIP3   OH254847   1.067   0.895   3.599 -0.5407 -0.3273 -0.0830
11119TIP3    H154848   0.979   0.919   3.626 -0.4414 -0.7455  0.6341
11119TIP3    H254849   1.067   0.908   3.504 -1.9336 -2.0111 -0.3781
11120TIP3   OH254850   3.185   5.722  14.187  0.0625  0.6023 -0.1192
11120TIP3    H154851   3.202   5.642  14.238 -0.6977  0.7475  0.3734
11120TIP3    H254852   3.260   5.729  14.129 -0.2499 -0.9475 -0.7630
11121TIP3   OH254853   2.172   1.365   4.647  0.3700  0.0976 -0.2054
11121TIP3    H154854   2.170   1.458   4.626 -1.4574 -0.0334 -0.8242
11121TIP3    H254855   2.165   1.321   4.562  2.6761 -0.6855 -0.0763
11122TIP3   OH254856   6.144   4.179   1.337 -0.1275 -0.1647  0.1297
11122TIP3    H154857   6.169   4.258   1.288 -0.3508 -0.8721 -1.1672
11122TIP3    H254858   6.083   4.133   1.279  1.0733 -1.9931  0.2491
11123TIP3   OH254859   1.681   2.249  11.952  0.5557 -0.1734 -0.4550
11123TIP3    H154860   1.621   2.216  12.018  0.4941 -1.1915 -1.0005
11123TIP3    H254861   1.741   2.307  12.000 -1.3357  1.5664 -0.0288
11124TIP3   OH254862   3.886   4.481   1.440 -0.2387 -0.7258  0.1675
11124TIP3    H154863   3.848   4.493   1.353 -0.1416 -1.1734  0.0629
11124TIP3    H254864   3.814   4.447   1.493 -0.6687  0.7827  0.6043
11125TIP3   OH254865   3.077   6.846   1.371 -0.0385  0.0777  0.1107
11125TIP3    H154866   3.012   6.832   1.302 -2.6258 -0.7809  2.5363
11125TIP3    H254867   3.063   6.936   1.400 -2.7202 -1.0085  2.8322
11126TIP3   OH254868   3.327   6.599  13.121  0.5363 -0.2295  0.5505
11126TIP3    H154869   3.303   6.509  13.140 -0.5172  0.2473  1.5823
11126TIP3    H254870   3.261   6.652  13.166 -0.9443  1.0636 -2.8539
11127TIP3   OH254871   7.199   4.370   1.972  0.6056  0.3479 -0.7340
11127TIP3    H154872   7.170   4.461   1.978  2.7421  1.0362  0.9739
11127TIP3    H254873   7.157   4.327   2.047 -0.0487  0.0281 -1.2793
11128TIP3   OH254874   7.027   5.343   5.536  0.5377  0.1180 -0.2932
11128TIP3    H154875   7.091   5.379   5.475  1.2789  2.1800  1.5521
11128TIP3    H254876   6.943   5.377   5.507  0.6505 -0.2169 -1.0404
11129TIP3   OH254877   1.827   2.481  10.812  0.2411 -0.5301 -0.0028
11129TIP3    H154878   1.806   2.511  10.900 -0.4479  0.3206 -0.4425
11129TIP3    H254879   1.745   2.491  10.763  0.1771 -2.4337 -0.3690
11130TIP3   OH254880   4.523   3.975   0.668 -0.2696  0.2409 -0.2520
11130TIP3    H154881   4.428   3.977   0.660 -0.4255 -1.6951  0.5107
11130TIP3    H254882   4.554   3.935   0.587 -0.1815 -0.0046 -0.0978
11131TIP3   OH254883   2.350   5.113   3.278  0.1153 -0.2991  0.1756
11131TIP3    H154884   2.273   5.062   3.302  1.3978 -1.7277  1.4553
11131TIP3    H254885   2.321   5.204   3.285 -2.0548 -0.7624 -1.6080
11132TIP3   OH254886   1.808   5.502  13.116 -0.6551 -0.1167  0.0302
11132TIP3    H154887   1.859   5.439  13.066  0.6962  0.6027  0.4726
11132TIP3    H254888   1.793   5.458  13.200  1.2456  0.5371  0.7566
11133TIP3   OH254889   4.753   1.534   3.341  0.3078 -0.0307 -0.1151
11133TIP3    H154890   4.699   1.576   3.273  0.0124  0.3262  0.3394
11133TIP3    H254891   4.761   1.600   3.410 -0.9875 -1.0418  1.0540
11134TIP3   OH254892   0.649   5.449  12.173 -0.4518 -0.4462  0.3279
11134TIP3    H154893   0.564   5.453  12.130  0.3341  1.9241 -1.2538
11134TIP3    H254894   0.638   5.499  12.254 -0.1659  1.7360 -0.8801
11135TIP3   OH254895   3.312   0.835   3.149 -0.0355  0.2741 -0.0840
11135TIP3    H154896   3.396   0.880   3.136  1.3513 -1.8739  1.0516
11135TIP3    H254897   3.333   0.742   3.148 -2.3541 -0.3326  0.7106
11136TIP3   OH254898   3.252   3.747  13.706 -0.0384 -0.1154 -0.3491
11136TIP3    H154899   3.256   3.831  13.660  0.8278 -1.1010 -2.1844
11136TIP3    H254900   3.338   3.738  13.748 -1.3630  1.5636  3.1526
11137TIP3   OH254901   0.605   6.149  15.218  0.0580 -0.1351 -0.4637
11137TIP3    H154902   0.523   6.100  15.226 -0.7346  1.3313  1.2360
11137TIP3    H254903   0.670   6.083  15.198 -0.8340 -2.0785  2.3518
11138TIP3   OH254904   4.243   4.652   0.630 -1.0023  0.1536 -0.1568
11138TIP3    H154905   4.333   4.636   0.659 -0.3606  1.7384 -1.1006
11138TIP3    H254906   4.221   4.576   0.577 -1.0139 -1.2377  1.7601
11139TIP3   OH254907   1.069   0.219   0.595 -0.2198  0.0718  0.2942
11139TIP3    H154908   1.094   0.260   0.512  2.0622 -0.9645  0.3867
11139TIP3    H254909   1.043   0.291   0.651  0.9552  1.1056 -0.4390
11140TIP3   OH254910   4.054   5.622   5.255 -0.0681  0.1613 -0.4150
11140TIP3    H154911   4.015   5.536   5.272 -1.3638  0.9276  0.7763
11140TIP3    H254912   4.148   5.609   5.264 -0.2430 -1.1289 -0.3086
11141TIP3   OH254913   5.598   5.668  11.115 -0.0217 -0.7458 -0.0636
11141TIP3    H154914   5.541   5.717  11.056  0.6733  0.2592  0.0582
11141TIP3    H254915   5.632   5.735  11.175  1.5508 -1.2368 -0.3639
11142TIP3   OH254916   1.431   7.079  12.134 -0.3921  0.4937  0.6460
11142TIP3    H154917   1.399   6.995  12.101  2.0211  0.4913 -2.0631
11142TIP3    H254918   1.365   7.143  12.107 -0.9182 -0.1893  0.2998
11143TIP3   OH254919   2.484   1.045   3.140  0.2158 -0.2380 -0.3205
11143TIP3    H154920   2.390   1.027   3.133  0.2008 -0.4339  0.3470
11143TIP3    H254921   2.500   1.054   3.234  0.8952 -0.3748 -0.4178
11144TIP3   OH254922   0.914   4.215  10.133 -0.0763 -0.5724  1.0633
11144TIP3    H154923   0.854   4.181  10.067 -1.2834 -0.5225  2.1027
11144TIP3    H254924   1.001   4.197  10.098 -0.6863 -0.6415 -0.4832
11145TIP3   OH254925   0.809   4.373   1.849  0.4296  0.0449  0.1734
11145TIP3    H154926   0.747   4.342   1.783  0.0791 -0.2422  0.6345
11145TIP3    H254927   0.766   4.449   1.888  1.5121  1.5147 -1.3273
11146TIP3   OH254928   6.461   0.789   1.974  0.1357  0.1834 -0.4229
11146TIP3    H154929   6.433   0.871   2.016 -0.3995  0.3184 -1.0285
11146TIP3    H254930   6.518   0.748   2.039  1.7825  1.8171 -0.7376
11147TIP3   OH254931   3.217   0.499   0.859  0.1190 -0.1677  0.3001
11147TIP3    H154932   3.225   0.429   0.793  1.2269  0.4551 -0.2556
11147TIP3    H254933   3.300   0.497   0.906  0.1843  0.8051  0.2442
11148TIP3   OH254934   1.465   2.515  15.343 -0.3827  0.2654 -0.0213
11148TIP3    H154935   1.387   2.469  15.312 -0.0248 -1.4428  1.4041
11148TIP3    H254936   1.483   2.475  15.428 -0.4838  3.6351  1.7533
11149TIP3   OH254937   1.166   1.801  14.484 -0.2633  0.2848  0.0948
11149TIP3    H154938   1.131   1.820  14.397  0.5207  1.7024  0.0699
11149TIP3    H254939   1.185   1.886  14.522 -0.0406 -0.3361  1.4449
11150TIP3   OH254940   6.808   3.833   0.693 -0.6191  0.1301  0.5171
11150TIP3    H154941   6.771   3.803   0.610  1.7151 -0.5206 -0.3744
11150TIP3    H254942   6.886   3.883   0.668 -1.1286  1.9586  2.2585
11151TIP3   OH254943   2.642   0.822   3.075  0.1378 -0.3809  0.3602
11151TIP3    H154944   2.592   0.904   3.084  1.2113  0.4639 -0.9792
11151TIP3    H254945   2.577   0.753   3.091 -0.7707  0.7123  1.6491
11152TIP3   OH254946   1.793   3.818   1.670  0.2988 -0.2751  0.7709
11152TIP3    H154947   1.773   3.725   1.677  2.6316 -0.9796 -0.8806
11152TIP3    H254948   1.865   3.832   1.730 -0.5310  0.6743  1.5785
11153TIP3   OH254949   4.236   6.848   4.672 -0.0963 -0.3468 -0.0266
11153TIP3    H154950   4.324   6.836   4.638 -0.1138  0.9917 -0.5858
11153TIP3    H254951   4.249   6.885   4.760 -0.0984 -1.0680  0.2847
11154TIP3   OH254952   3.208   5.673   3.811 -0.0400 -0.0313 -0.4283
11154TIP3    H154953   3.149   5.740   3.845 -0.6975 -0.2674 -1.0557
11154TIP3    H254954   3.153   5.594   3.804  0.4369 -0.3470 -0.7034
11155TIP3   OH254955   7.186   3.246  11.716  0.2743  0.2267  0.0986
11155TIP3    H154956   7.153   3.247  11.626 -0.5326  1.5258  0.3777
11155TIP3    H254957   7.193   3.153  11.738  1.4611 -0.1392 -1.6387
11156TIP3   OH254958   7.186   6.190   3.307  0.3069 -0.1559 -0.9860
11156TIP3    H154959   7.188   6.273   3.259  1.0559 -0.0893 -0.8446
11156TIP3    H254960   7.183   6.124   3.238  1.9726 -0.0795 -1.1563
11157TIP3   OH254961   2.464   3.785   0.882 -0.4041  0.7762  0.0509
11157TIP3    H154962   2.445   3.876   0.859  0.8438  1.2784  0.8864
11157TIP3    H254963   2.508   3.749   0.805 -0.1789  1.1333  0.0103
11158TIP3   OH254964   4.991   2.402   4.972 -0.6371  0.2840 -0.4867
11158TIP3    H154965   5.035   2.337   4.917 -0.3765 -0.5662  0.6789
11158TIP3    H254966   4.946   2.459   4.911  0.0694 -0.3176 -1.5991
11159TIP3   OH254967   3.943   5.208   0.751 -0.0852 -0.1262 -0.3337
11159TIP3    H154968   3.921   5.231   0.661 -1.0119 -0.8291 -0.2959
11159TIP3    H254969   4.010   5.140   0.743 -0.1048 -0.1265 -0.4907
11160TIP3   OH254970   5.446   3.053   2.231  0.1064 -0.0581  0.1617
11160TIP3    H154971   5.499   3.044   2.311 -0.7577  0.6709  0.8426
11160TIP3    H254972   5.402   3.137   2.241 -0.3230 -0.1377 -0.9170
11161TIP3   OH254973   6.801   6.523  12.609  0.4131  0.7067  0.3392
11161TIP3    H154974   6.774   6.532  12.700  3.1777  0.0487  1.3322
11161TIP3    H254975   6.820   6.429  12.599  3.8350  1.2519  0.3781
11162TIP3   OH254976   2.021   4.879   0.061 -0.0240 -0.8720  0.3038
11162TIP3    H154977   1.998   4.852   0.150 -0.2829  0.4422  0.6617
11162TIP3    H254978   2.117   4.884   0.062  0.0211 -1.6869  0.2517
11163TIP3   OH254979   2.428   5.838   5.666  0.4447 -0.3961  0.3445
11163TIP3    H154980   2.400   5.768   5.607 -0.5750  0.2371  0.0498
11163TIP3    H254981   2.502   5.878   5.621 -1.7672  1.6541 -1.8186
11164TIP3   OH254982   6.984   6.211   1.007 -0.0947 -0.6320  0.5054
11164TIP3    H154983   7.070   6.200   0.967 -0.4194  0.4742 -0.5266
11164TIP3    H254984   6.999   6.193   1.100  1.5375  0.7742  0.5632
11165TIP3   OH254985   0.294   0.632   4.816  0.2039  0.2143 -1.1371
11165TIP3    H154986   0.348   0.618   4.738 -0.5617 -2.0155 -1.3518
11165TIP3    H254987   0.293   0.547   4.860 -1.8725  0.5965 -0.3416
11166TIP3   OH254988   1.256   3.223  13.541  0.1176  0.2256  0.3068
11166TIP3    H154989   1.296   3.230  13.628 -1.7452 -0.4677  1.2657
11166TIP3    H254990   1.203   3.302  13.533  0.9470  0.7043 -0.5786
11167TIP3   OH254991   2.516   0.644  13.182  0.0296 -0.4942  0.0084
11167TIP3    H154992   2.484   0.678  13.265 -0.2062 -1.3982  0.3012
11167TIP3    H254993   2.590   0.701  13.159  1.3413 -1.3610  1.7997
11168TIP3   OH254994   6.856   6.565   2.534 -0.0874  0.6771 -0.1501
11168TIP3    H154995   6.914   6.537   2.463 -0.9846 -0.4979 -0.4455
11168TIP3    H254996   6.774   6.588   2.490  0.3738  3.2676  0.1457
11169TIP3   OH254997   1.005   5.975   0.247 -0.2856  0.7866  0.0699
11169TIP3    H154998   0.976   5.940   0.331  0.0077  0.1212 -0.1042
11169TIP3    H254999   1.061   6.049   0.270 -0.9510  1.1852  0.4352
11170TIP3   OH255000   0.188   5.598   0.630 -0.1816  0.2357 -0.5376
11170TIP3    H155001   0.220   5.611   0.719 -1.2550 -0.1000 -0.0955
11170TIP3    H255002   0.174   5.687   0.596  0.7016  0.3771 -0.5678
11171TIP3   OH255003   0.203   1.724  13.143 -0.2466  0.3749 -0.8309
11171TIP3    H155004   0.254   1.654  13.182 -0.0925  0.5549 -0.7042
11171TIP3    H255005   0.113   1.709  13.173 -0.1993  0.2813 -0.7374
11172TIP3   OH255006   3.457   4.488  14.106  0.3039  0.4975 -0.8605
11172TIP3    H155007   3.420   4.408  14.068 -2.8258  0.5597  1.7022
11172TIP3    H255008   3.391   4.555  14.091  0.8356  1.4901  0.9640
11173TIP3   OH255009   4.219   3.257   0.575  0.1057  0.0830 -0.5108
11173TIP3    H155010   4.252   3.182   0.526  2.1469  1.1404 -0.9008
11173TIP3    H255011   4.129   3.235   0.596  0.4491 -2.1891 -1.1409
11174TIP3   OH255012   4.567   3.565   1.526 -0.3099  0.0144 -0.4519
11174TIP3    H155013   4.543   3.516   1.605  0.4685  1.0022  0.4266
11174TIP3    H255014   4.652   3.529   1.500 -0.2870  0.0987 -0.4930
11175TIP3   OH255015   6.333   3.898  15.096  0.0786  0.0976 -0.4819
11175TIP3    H155016   6.331   3.803  15.104  0.9347  0.1397  0.3943
11175TIP3    H255017   6.411   3.917  15.043 -0.6905  0.2769 -1.5927
11176TIP3   OH255018   6.721   1.845   1.239  0.0936  0.3563  0.0471
11176TIP3    H155019   6.774   1.784   1.188 -2.0228  0.9148 -3.1449
11176TIP3    H255020   6.782   1.913   1.267  1.6437 -0.8056 -0.3980
11177TIP3   OH255021   7.157   1.511   3.263 -0.2408 -0.6603 -0.2233
11177TIP3    H155022   7.168   1.487   3.171 -1.9730 -0.0866 -0.6295
11177TIP3    H255023   7.080   1.568   3.263  0.6265  0.5783  1.3897
11178TIP3   OH255024   6.650   5.046  10.191  1.1013  0.4982 -0.0299
11178TIP3    H155025   6.575   5.099  10.166 -1.6357 -2.1132  1.8665
11178TIP3    H255026   6.683   5.086  10.271 -0.4768 -0.1315  0.9802
11179TIP3   OH255027   6.803   6.778  15.122  0.2568  0.1494 -0.1357
11179TIP3    H155028   6.862   6.715  15.163 -0.3151  0.9431  1.9908
11179TIP3    H255029   6.858   6.853  15.101  0.3138  0.2259  0.2971
11180TIP3   OH255030   0.771   1.865   2.409 -0.2261  0.2326  0.3865
11180TIP3    H155031   0.827   1.889   2.483 -0.1357 -0.9371  0.7204
11180TIP3    H255032   0.796   1.925   2.339  1.9304 -0.6486  0.3196
11181TIP3   OH255033   6.743   4.511   2.855  0.0842 -0.1969 -0.1392
11181TIP3    H155034   6.724   4.470   2.770  0.2286 -0.2138 -0.1640
11181TIP3    H255035   6.697   4.456   2.919  0.0581 -0.2435 -0.1976
11182TIP3   OH255036   0.139   3.040   2.049  0.0638  0.7726  0.2420
11182TIP3    H155037   0.134   3.128   2.085  0.4417  0.7547  0.3468
11182TIP3    H255038   0.191   3.049   1.969  2.9279  0.1836  1.8899
11183TIP3   OH255039   5.393   4.422  14.562  0.4156 -0.2355 -0.1275
11183TIP3    H155040   5.372   4.504  14.517  0.0191 -0.7526 -0.9273
11183TIP3    H255041   5.388   4.443  14.655 -0.4901  0.4539 -0.3181
11184TIP3   OH255042   6.756   4.998  15.408 -0.4462 -0.7444  0.2349
11184TIP3    H155043   6.836   5.048  15.423 -0.2483 -1.1052  0.3967
11184TIP3    H255044   6.733   5.015  15.317 -0.5703 -0.0891  0.3829
11185TIP3   OH255045   6.403   4.211   0.382  0.1718 -0.9474  0.3746
11185TIP3    H155046   6.434   4.142   0.441  1.9850 -2.2458 -1.9718
11185TIP3    H255047   6.482   4.242   0.337 -0.8714  1.3920  0.0067
11186TIP3   OH255048   2.542   6.094   1.979  0.2752  0.4702 -0.3079
11186TIP3    H155049   2.535   6.059   1.890  2.5886  0.4043 -0.5270
11186TIP3    H255050   2.588   6.177   1.968  0.9491  0.2692  0.8538
11187TIP3   OH255051   6.423   5.934  14.740 -0.6281 -0.5098  0.2274
11187TIP3    H155052   6.406   6.028  14.743  0.3732 -0.3380  1.8506
11187TIP3    H255053   6.357   5.900  14.680 -0.8539  1.2508 -0.5987
11188TIP3   OH255054   1.722   1.281  11.568  0.2057 -0.3676  0.2110
11188TIP3    H155055   1.780   1.209  11.543 -0.1264 -0.9965  1.1974
11188TIP3    H255056   1.707   1.329  11.487  1.7506 -0.4403 -0.1515
11189TIP3   OH255057   3.366   0.656  13.010 -0.1177  0.2583 -0.2755
11189TIP3    H155058   3.309   0.593  12.966  1.0515 -1.6890  0.8368
11189TIP3    H255059   3.453   0.640  12.973  0.6651 -0.5778  1.7645
11190TIP3   OH255060   2.569   0.926  13.429  0.1125  0.0773  0.5356
11190TIP3    H155061   2.561   0.836  13.459  0.1686 -0.5054 -1.0932
11190TIP3    H255062   2.493   0.971  13.465 -0.0180 -0.6589  1.1937
11191TIP3   OH255063   4.298   7.037   2.334 -0.2070  0.2458  0.2907
11191TIP3    H155064   4.259   7.088   2.262 -1.9499 -0.8151  0.4181
11191TIP3    H255065   4.228   7.030   2.398  0.8613 -0.0853  1.4512
11192TIP3   OH255066   6.252   1.583  12.919 -0.0177  0.2432 -0.4037
11192TIP3    H155067   6.186   1.520  12.888 -1.2852  0.8575  0.9435
11192TIP3    H255068   6.324   1.528  12.951 -0.2475 -0.4607 -1.0542
11193TIP3   OH255069   5.114   2.976   5.209 -0.0557  0.1804 -0.1383
11193TIP3    H155070   5.173   2.958   5.135 -1.1792 -0.7366 -0.8380
11193TIP3    H255071   5.027   2.983   5.170 -0.9125 -1.8354  1.2104
11194TIP3   OH255072   4.330   3.894   0.399 -0.0259 -0.0322 -0.1594
11194TIP3    H155073   4.298   3.829   0.335  1.8604 -1.7932  0.5752
11194TIP3    H255074   4.416   3.862   0.425 -0.6584  0.6257  3.2349
11195TIP3   OH255075   5.773   2.684   0.869  0.1218 -0.6133  0.0693
11195TIP3    H155076   5.765   2.604   0.817  0.6875  0.1080 -1.1454
11195TIP3    H255077   5.758   2.755   0.808  0.1225  0.2434  1.0374
11196TIP3   OH255078   0.203   2.245   5.112 -0.0662 -0.0058  0.3106
11196TIP3    H155079   0.200   2.301   5.035 -0.6446 -1.6886 -0.9690
11196TIP3    H255080   0.255   2.293   5.176  0.4120  1.4527 -1.1255
11197TIP3   OH255081   2.278   4.918  11.282 -0.3103 -0.3893  0.0778
11197TIP3    H155082   2.250   4.926  11.374 -0.5174  1.7371 -0.1208
11197TIP3    H255083   2.348   4.854  11.284  0.0283 -0.0143  1.8176
11198TIP3   OH255084   6.579   3.141  13.240 -0.3987 -0.6105  0.6403
11198TIP3    H155085   6.553   3.186  13.160 -0.1658 -0.4129  0.6735
11198TIP3    H255086   6.498   3.132  13.291 -0.4467 -0.2373  0.6288
11199TIP3   OH255087   0.025   6.995  14.566  0.4019  0.2043  0.1430
11199TIP3    H155088   0.094   6.929  14.572  0.1411 -0.0644  0.1902
11199TIP3    H255089   0.021   7.032  14.654  1.4249  1.1846 -0.1898
11200TIP3   OH255090   5.219   6.442   3.686  0.7794 -0.2100  0.1420
11200TIP3    H155091   5.240   6.415   3.597 -0.0465 -0.8278  0.1162
11200TIP3    H255092   5.127   6.469   3.682  0.9963  0.6356  0.6160
11201TIP3   OH255093   1.853   4.075  13.589  0.1956  0.3722 -0.1676
11201TIP3    H155094   1.877   4.017  13.661 -2.1918  2.2356  2.3384
11201TIP3    H255095   1.931   4.130  13.577  0.8447 -0.3376  0.5983
11202TIP3   OH255096   0.878   0.355   1.504 -0.0962 -0.3759  0.1878
11202TIP3    H155097   0.963   0.341   1.545  0.7010  1.8399 -0.5829
11202TIP3    H255098   0.831   0.413   1.564  0.2409  1.1067 -0.9353
11203TIP3   OH255099   0.423   2.735  14.308 -0.1440 -0.1630  0.3016
11203TIP3    H155100   0.410   2.653  14.262 -1.0355  0.5990 -0.8623
11203TIP3    H255101   0.485   2.784  14.254  0.5075 -0.1196  1.0714
11204TIP3   OH255102   3.078   2.876  11.141  0.1029  0.1102 -0.4777
11204TIP3    H155103   3.054   2.968  11.128  0.3182  0.2264 -0.0848
11204TIP3    H255104   2.997   2.827  11.126  0.3544  0.2103 -2.3201
11205TIP3   OH255105   1.144   6.986   4.892  0.6765 -0.2891  0.0037
11205TIP3    H155106   1.074   7.050   4.880  1.1093 -0.2638 -3.0808
11205TIP3    H255107   1.103   6.901   4.878  0.5663 -0.6167  1.9430
11206TIP3   OH255108   0.839   3.185   2.204 -0.1441 -0.4225  0.1141
11206TIP3    H155109   0.781   3.211   2.276 -1.6119 -2.5359 -0.2120
11206TIP3    H255110   0.918   3.154   2.247 -0.4532 -0.3518  0.7537
11207TIP3   OH255111   6.554   4.363   1.248  0.4277 -0.3716  0.7721
11207TIP3    H155112   6.579   4.428   1.183 -2.6391 -0.2702 -0.4296
11207TIP3    H255113   6.519   4.290   1.197 -2.6989 -0.0227  2.2163
11208TIP3   OH255114   5.829   0.371   4.553  0.0440  0.4441  0.1765
11208TIP3    H155115   5.833   0.288   4.601  0.7516  1.3020  1.6328
11208TIP3    H255116   5.920   0.392   4.535 -0.1620  0.6809 -0.6246
11209TIP3   OH255117   0.966   7.006   1.619  0.1865 -0.0329  0.5387
11209TIP3    H155118   0.980   7.048   1.703  0.0001  0.3867  0.3677
11209TIP3    H255119   0.910   7.068   1.571 -0.8230 -0.8637  0.5933
11210TIP3   OH255120   5.452   1.453  14.749 -0.2063  0.6163  0.2848
11210TIP3    H155121   5.457   1.411  14.835  2.4029  1.5976  0.6846
11210TIP3    H255122   5.375   1.412  14.708 -0.4280 -1.2480  2.3281
11211TIP3   OH255123   2.963   1.634   1.968 -0.2636 -0.2109  0.1998
11211TIP3    H155124   2.919   1.700   2.022  2.1299  2.0650 -0.4123
11211TIP3    H255125   2.945   1.660   1.878 -0.5617 -1.3463 -0.0802
11212TIP3   OH255126   1.605   0.738   4.300 -0.0218  0.7828 -0.1926
11212TIP3    H155127   1.579   0.753   4.209  0.4288 -0.6449 -0.5862
11212TIP3    H255128   1.678   0.675   4.294 -0.8296 -0.3468  1.2036
11213TIP3   OH255129   6.384   0.545   2.631 -0.1902  0.0307  0.4046
11213TIP3    H155130   6.427   0.579   2.553 -1.2847 -0.8716 -0.6454
11213TIP3    H255131   6.354   0.458   2.606  1.0836 -1.0846  2.4596
11214TIP3   OH255132   3.510   0.532  13.645  0.2695  0.3574  0.0859
11214TIP3    H155133   3.431   0.514  13.695  0.6747 -1.5021  0.1517
11214TIP3    H255134   3.488   0.508  13.555  0.6711  0.0694  0.0603
11215TIP3   OH255135   3.000   1.156   0.004  0.2047  0.3822 -0.0888
11215TIP3    H155136   2.981   1.132   0.095  0.5036  0.9278  0.1222
11215TIP3    H255137   2.921   1.201  -0.026 -1.1736 -2.5126 -1.1250
11216TIP3   OH255138   1.156   2.284   5.083 -0.1665  0.0457 -0.1329
11216TIP3    H155139   1.219   2.217   5.057  0.1117 -0.5070  1.7743
11216TIP3    H255140   1.209   2.354   5.120 -0.5918 -0.2271  1.0679
11217TIP3   OH255141   3.329   1.931   2.132 -0.7540 -0.2946  0.0331
11217TIP3    H155142   3.396   1.872   2.097 -0.5608  1.1764 -2.3219
11217TIP3    H255143   3.302   1.890   2.214  3.6763 -0.4824  1.6964
11218TIP3   OH255144   3.323   2.815   0.014 -0.1309 -0.0420 -0.2344
11218TIP3    H155145   3.299   2.904   0.040  0.6495  0.0642  0.1403
11218TIP3    H255146   3.368   2.826  -0.069  3.7056  0.4410  1.6854
11219TIP3   OH255147   1.606   3.007   5.693 -0.2887  0.7848 -0.5180
11219TIP3    H155148   1.550   3.029   5.618  0.1051  3.3783 -0.1605
11219TIP3    H255149   1.547   3.005   5.768 -0.4753 -0.4502 -0.6861
11220TIP3   OH255150   1.986   3.039   1.073  0.0539  0.4338 -0.0708
11220TIP3    H155151   1.893   3.017   1.067  0.7158 -3.2593  0.4611
11220TIP3    H255152   2.003   3.094   0.997 -2.3244  0.1991 -0.8520
11221TIP3   OH255153   1.831   1.528   0.149  0.4012 -0.4571  0.1286
11221TIP3    H155154   1.888   1.457   0.179  0.7748  0.3686  1.4607
11221TIP3    H255155   1.747   1.511   0.190  0.0370 -0.9801 -0.8182
11222TIP3   OH255156   6.967   1.704   1.412  0.1561 -0.2826  0.8456
11222TIP3    H155157   6.903   1.668   1.474  1.3264 -0.2263  2.1188
11222TIP3    H255158   6.951   1.799   1.415 -0.2013 -0.3339  0.5899
11223TIP3   OH255159   3.674   2.269   5.143 -0.3972 -0.0027 -0.1642
11223TIP3    H155160   3.752   2.319   5.120  1.7853 -2.3156  1.5946
11223TIP3    H255161   3.638   2.240   5.059  1.6360 -0.2588 -0.9945
11224TIP3   OH255162   6.777   0.003   4.293 -0.0021  0.0354 -0.0234
11224TIP3    H155163   6.793  -0.072   4.351 -1.4861 -0.3049 -0.0322
11224TIP3    H255164   6.696  -0.019   4.248  2.2583 -0.9121 -4.1487
11225TIP3   OH255165   3.944   0.633   3.462 -0.7105 -0.3494  0.6512
11225TIP3    H155166   3.942   0.728   3.462 -1.6524 -0.2929  2.9404
11225TIP3    H255167   3.907   0.607   3.378 -2.4175  1.3320  0.8242
11226TIP3   OH255168   5.212   2.110   2.533 -0.3632  0.1169  0.0848
11226TIP3    H155169   5.165   2.192   2.518 -1.1597  0.0956  2.1920
11226TIP3    H255170   5.179   2.050   2.465 -1.8712  0.7154  0.2559
11227TIP3   OH255171   2.511   4.820  12.475  0.6136 -0.4904  0.5940
11227TIP3    H155172   2.558   4.764  12.413 -0.2058  0.4386 -0.9416
11227TIP3    H255173   2.458   4.760  12.527  2.5632 -1.4481  1.5740
11228TIP3   OH255174   3.453   3.294  12.327 -0.3652 -0.3338 -0.1412
11228TIP3    H155175   3.375   3.347  12.342 -0.4444 -0.4088 -0.2872
11228TIP3    H255176   3.521   3.337  12.379 -0.9935 -1.5142  1.7711
11229TIP3   OH255177   0.832   1.967  14.311  0.5407  0.2691  0.1777
11229TIP3    H155178   0.743   1.939  14.334  0.8305 -0.1424  0.8130
11229TIP3    H255179   0.862   2.017  14.386  0.8453  0.4249 -0.0453
11230TIP3   OH255180   2.048   5.775  11.552 -0.0825 -0.2700 -0.2713
11230TIP3    H155181   1.985   5.704  11.561 -0.4832  0.1997  0.8849
11230TIP3    H255182   2.118   5.739  11.498  0.7009 -2.2442  1.9344
11231TIP3   OH255183   4.977   3.009   4.045  0.1295 -0.1553  0.1732
11231TIP3    H155184   5.015   3.056   4.119 -1.6882  1.7658 -0.0179
11231TIP3    H255185   5.052   2.990   3.988  1.0634  2.0077  0.5637
11232TIP3   OH255186   4.880   1.655   4.098 -0.4020 -0.3847  0.0268
11232TIP3    H155187   4.809   1.622   4.044 -0.0673 -0.0892 -0.5982
11232TIP3    H255188   4.929   1.577   4.125 -0.5256 -0.5230 -0.1563
11233TIP3   OH255189   4.357   5.810   5.100  0.3339  0.7509  0.5024
11233TIP3    H155190   4.275   5.859   5.090  1.6361  2.8360 -0.8120
11233TIP3    H255191   4.404   5.824   5.018  0.8460 -2.8419  0.0311
11234TIP3   OH255192   6.861   5.241   2.100  0.1725 -0.3178 -0.8290
11234TIP3    H155193   6.883   5.251   2.008  0.3496  0.1602 -0.7377
11234TIP3    H255194   6.767   5.222   2.101 -0.6318  2.9603 -0.9641
11235TIP3   OH255195   1.741   5.890  11.953  0.0777 -0.0216 -0.6188
11235TIP3    H155196   1.752   5.892  12.049  0.8157  0.7059 -0.7044
11235TIP3    H255197   1.829   5.910  11.919 -0.2333 -0.0354 -1.4440
11236TIP3   OH255198   4.831   5.547  10.801  0.0658 -0.4720 -0.3837
11236TIP3    H155199   4.912   5.576  10.759 -0.8235  0.1187 -1.7344
11236TIP3    H255200   4.768   5.617  10.784 -0.3185 -0.0985  2.1262
11237TIP3   OH255201   0.044   3.367   0.704  0.3663  0.6031  0.0461
11237TIP3    H155202   0.139   3.375   0.710  0.6117 -0.9040 -1.2554
11237TIP3    H255203   0.027   3.355   0.611 -1.0436  0.2293  0.3355
11238TIP3   OH255204   3.388   2.583   0.852 -0.1097  0.4223  0.7212
11238TIP3    H155205   3.342   2.666   0.868 -0.8215 -0.2382  2.3269
11238TIP3    H255206   3.333   2.517   0.893 -0.9910 -1.3054 -2.8268
11239TIP3   OH255207   4.916   1.082   4.168  0.0087 -0.1307 -0.3410
11239TIP3    H155208   4.920   1.177   4.158  0.6514 -0.0524  0.5613
11239TIP3    H255209   4.860   1.053   4.096 -0.7763  0.9898 -0.2025
11240TIP3   OH255210   5.467   1.569   5.091  0.4015 -0.4414  0.3592
11240TIP3    H155211   5.442   1.659   5.067 -0.0321 -0.3786  1.0066
11240TIP3    H255212   5.475   1.523   5.008 -1.6078 -0.3797  0.0920
11241TIP3   OH255213   3.307   3.032  14.346  0.0690  0.1640 -0.5834
11241TIP3    H155214   3.235   3.091  14.324 -1.3199  0.1261  3.1315
11241TIP3    H255215   3.268   2.945  14.343  0.9380 -0.2246 -1.7185
11242TIP3   OH255216   4.307   0.272   0.837 -0.2996  0.3870  0.1676
11242TIP3    H155217   4.376   0.279   0.904 -0.5176  1.4713  0.3108
11242TIP3    H255218   4.251   0.200   0.867 -0.9654  1.4948  1.7401
11243TIP3   OH255219   2.603   5.126   0.067  0.6420  0.5389 -0.4321
11243TIP3    H155220   2.638   5.198   0.118 -0.0345 -0.0898  0.9877
11243TIP3    H255221   2.578   5.165  -0.017 -1.4862  2.4256  0.9471
11244TIP3   OH255222   2.240   4.590   0.812  0.5084 -0.6954  0.1760
11244TIP3    H155223   2.202   4.516   0.765  2.0455 -0.9625 -0.6925
11244TIP3    H255224   2.276   4.551   0.892 -0.9569 -0.4359  1.0212
11245TIP3   OH255225   3.856   5.421  14.009 -0.4545  0.0416 -0.5249
11245TIP3    H155226   3.830   5.339  13.969 -0.1645 -0.7298  0.8210
11245TIP3    H255227   3.945   5.436  13.977  0.6122 -1.6715  1.3950
11246TIP3   OH255228   3.463   0.084  10.897 -0.6466  0.0640 -0.3916
11246TIP3    H155229   3.383   0.134  10.879  0.1284  1.4924 -0.0921
11246TIP3    H255230   3.508   0.135  10.965 -0.2185 -1.5408  0.5876
11247TIP3   OH255231   5.044   3.846  14.170  0.0892  0.1447 -0.2303
11247TIP3    H155232   5.023   3.937  14.191 -1.5271  0.1810 -1.7265
11247TIP3    H255233   5.132   3.833  14.204 -1.1582  0.9437  3.8539
11248TIP3   OH255234   0.619   5.013   1.579 -0.3808  0.3222 -0.2911
11248TIP3    H155235   0.568   5.094   1.590 -0.6649  0.1720 -0.5071
11248TIP3    H255236   0.701   5.042   1.538 -0.5739  0.4722 -0.5757
11249TIP3   OH255237   0.916   0.600   2.940  0.5261 -0.0429 -0.4267
11249TIP3    H155238   0.824   0.573   2.952 -0.0746  1.6819 -0.8663
11249TIP3    H255239   0.937   0.648   3.019  0.0880  1.9907 -1.4763
11250TIP3   OH255240   5.342   2.227   2.748  0.2773 -0.1572  0.1466
11250TIP3    H155241   5.346   2.313   2.789 -0.8698 -0.0834  0.1248
11250TIP3    H255242   5.257   2.225   2.704 -0.4130 -1.8798  1.4369
11251TIP3   OH255243   1.896   0.365  13.371  0.1962 -0.0633 -0.0842
11251TIP3    H155244   1.929   0.367  13.460  1.2370  0.3324 -0.4617
11251TIP3    H255245   1.928   0.281  13.335  0.6439  0.2270 -0.3841
11252TIP3   OH255246   5.393   0.077   0.846  0.5137  1.0856  0.2600
11252TIP3    H155247   5.321   0.014   0.839  1.0216  0.6447 -1.6635
11252TIP3    H255248   5.427   0.084   0.757  0.7483  3.8231  0.4839
11253TIP3   OH255249   1.994   5.253   1.322 -0.0296  0.0556 -0.0832
11253TIP3    H155250   1.920   5.258   1.382  0.7695 -0.2693  0.9490
11253TIP3    H255251   2.061   5.204   1.370  2.0767  3.0763  0.3212
11254TIP3   OH255252   4.292   3.532  10.586  0.0545  0.8042  0.1020
11254TIP3    H155253   4.289   3.465  10.654 -0.5793  1.5582  0.8367
11254TIP3    H255254   4.304   3.483  10.505  1.4014 -0.0624  0.8028
11255TIP3   OH255255   4.418   6.115  12.900  0.0258 -0.6788  0.4891
11255TIP3    H155256   4.366   6.044  12.937 -0.6733 -1.0989 -1.1819
11255TIP3    H255257   4.508   6.081  12.901 -0.3802 -1.9237 -0.8929
11256TIP3   OH255258   7.048   4.747   3.994 -0.1546  0.0395 -0.1217
11256TIP3    H155259   7.055   4.703   4.079 -0.1298 -0.9774 -0.6238
11256TIP3    H255260   6.986   4.818   4.008  1.2964  1.1203  1.2130
11257TIP3   OH255261   2.046   1.325  12.513  0.1941 -0.0312  0.4712
11257TIP3    H155262   1.984   1.302  12.581  0.3520  0.5466  0.8226
11257TIP3    H255263   2.112   1.256  12.515  0.5888  0.3485  1.4073
11258TIP3   OH255264   2.829   3.949   1.552  0.4069 -0.5783 -0.4016
11258TIP3    H155265   2.889   3.908   1.615  0.7011  2.2148  1.2998
11258TIP3    H255266   2.742   3.928   1.586  0.3997 -2.5430 -1.4815
11259TIP3   OH255267   2.911   3.600  15.207  0.4882  0.4952 -0.3489
11259TIP3    H155268   2.832   3.590  15.260  0.7774  1.5748  0.3294
11259TIP3    H255269   2.937   3.511  15.185 -1.1151  0.1383 -0.8967
11260TIP3   OH255270   5.341   2.310  15.102 -0.0786 -0.6338 -0.0931
11260TIP3    H155271   5.258   2.357  15.092 -0.5468 -1.1846  1.0327
11260TIP3    H255272   5.354   2.267  15.018 -1.4266 -1.3129  0.0146
11261TIP3   OH255273   1.242   1.553   2.525  0.3985 -0.2643 -0.7539
11261TIP3    H155274   1.173   1.584   2.466  0.2976 -0.6286 -0.8302
11261TIP3    H255275   1.241   1.458   2.514  0.0388 -0.3793  0.2088
11262TIP3   OH255276   3.913   2.140  12.840 -0.8468 -0.9080 -0.0695
11262TIP3    H155277   3.953   2.071  12.893 -0.4376 -1.3322 -0.9002
11262TIP3    H255278   3.837   2.168  12.890  0.0861 -0.5903  1.2035
11263TIP3   OH255279   2.699   6.418   1.657  0.3171  0.3160  0.0931
11263TIP3    H155280   2.735   6.422   1.569 -0.4983 -0.7160 -0.3085
11263TIP3    H255281   2.770   6.384   1.711  0.3947 -0.3548 -0.4218
11264TIP3   OH255282   6.048   6.647   2.121  0.9504 -0.0602 -0.4465
11264TIP3    H155283   6.086   6.568   2.158  0.1816 -0.0040  0.5118
11264TIP3    H255284   6.075   6.718   2.180 -0.6137 -0.0279  0.2972
11265TIP3   OH255285   2.005   2.122  12.882  0.5462 -0.0276 -0.0297
11265TIP3    H155286   2.019   2.194  12.822 -0.5989 -0.6079 -1.0302
11265TIP3    H255287   1.912   2.124  12.902  0.4255 -1.4193 -0.3369
11266TIP3   OH255288   4.762   4.179   1.920  0.3300 -0.1677  0.2863
11266TIP3    H155289   4.834   4.132   1.878  2.3826  1.8716  1.2916
11266TIP3    H255290   4.792   4.270   1.925 -2.3282  0.7755  0.8035
11267TIP3   OH255291   6.627   1.658   3.073 -0.2469  0.3591 -0.0404
11267TIP3    H155292   6.619   1.598   3.148 -0.4687 -1.1138 -1.1857
11267TIP3    H255293   6.575   1.616   3.004  1.0474  0.9717 -1.4386
11268TIP3   OH255294   2.475   3.857   4.721 -0.1770  0.7542  0.5402
11268TIP3    H155295   2.498   3.937   4.673  0.2421  0.7055  0.6584
11268TIP3    H255296   2.483   3.787   4.656  3.0943  0.2811  1.2555
11269TIP3   OH255297   5.140   0.164   4.311  0.3523 -0.1111 -0.4178
11269TIP3    H155298   5.222   0.212   4.325  1.0277 -0.8672 -1.6554
11269TIP3    H255299   5.123   0.121   4.395  1.8159 -0.8152 -0.4498
11270TIP3   OH255300   0.157   6.590   1.062 -0.4375 -0.1931  0.1136
11270TIP3    H155301   0.071   6.631   1.072 -0.3890 -0.1661  0.4256
11270TIP3    H255302   0.220   6.658   1.088 -0.3681 -0.5492  0.9283
11271TIP3   OH255303   6.038   2.522   1.738 -0.3814  0.5228  0.3693
11271TIP3    H155304   5.946   2.537   1.720 -0.7932 -1.3440  0.6680
11271TIP3    H255305   6.043   2.429   1.762  1.4588  0.7531  1.0731
11272TIP3   OH255306   1.463   5.177   3.558  0.0988  0.8549 -0.2578
11272TIP3    H155307   1.556   5.157   3.549  0.4120  1.6117  1.0614
11272TIP3    H255308   1.456   5.270   3.540 -0.1942  1.0711  0.9073
11273TIP3   OH255309   5.384   4.882   4.164 -0.0974 -0.2608  0.4148
11273TIP3    H155310   5.345   4.810   4.115  0.0629 -0.6526  0.8601
11273TIP3    H255311   5.312   4.921   4.213 -0.3209  0.3332 -0.3649
11274TIP3   OH255312   5.628   3.177   4.534 -0.2939  0.2804 -0.4394
11274TIP3    H155313   5.633   3.089   4.499  1.4968 -0.4355  1.3498
11274TIP3    H255314   5.681   3.230   4.474  0.3787 -0.3258 -0.3991
11275TIP3   OH255315   6.839   0.550  14.444  0.4060  0.4465  0.2401
11275TIP3    H155316   6.797   0.592  14.368  2.3993  2.0475 -0.0650
11275TIP3    H255317   6.800   0.593  14.520 -0.6325 -0.2194  0.1058
11276TIP3   OH255318   3.927   3.658   1.502 -0.1468  0.3982  0.0038
11276TIP3    H155319   4.008   3.703   1.526  1.2774 -2.6649  1.4058
11276TIP3    H255320   3.860   3.727   1.507  2.0533  2.6672  0.4769
11277TIP3   OH255321   6.885   2.772   4.333  0.2398 -0.4277  0.3844
11277TIP3    H155322   6.840   2.701   4.379 -0.6889 -0.7469 -0.9560
11277TIP3    H255323   6.816   2.815   4.282  1.2854 -0.4015 -1.0682
11278TIP3   OH255324   3.863   2.950   9.884  0.5248  0.1054 -0.1643
11278TIP3    H155325   3.854   3.036   9.843  1.6068  0.9492  1.2404
11278TIP3    H255326   3.775   2.927   9.914  0.2221  0.7097 -0.5911
11279TIP3   OH255327   4.658   6.581  15.352 -0.6394  0.2029  0.2483
11279TIP3    H155328   4.604   6.526  15.296 -0.3728 -0.3327  0.5163
11279TIP3    H255329   4.683   6.655  15.295  0.2224 -0.6900 -0.5700
11280TIP3   OH255330   3.563   2.027   0.254 -0.2976 -0.1623  0.3995
11280TIP3    H155331   3.472   2.042   0.279 -0.7475 -1.3554 -0.4044
11280TIP3    H255332   3.614   2.072   0.321 -1.4772 -0.7669  1.7653
11281TIP3   OH255333   2.267   3.709  13.862 -0.3546 -0.0003 -0.1498
11281TIP3    H155334   2.291   3.622  13.830  1.6177  0.7501 -0.8198
11281TIP3    H255335   2.254   3.697  13.956 -2.3925 -1.4422 -0.5441
11282TIP3   OH255336   4.418   5.420   4.015 -0.1039  0.3527  0.1257
11282TIP3    H155337   4.353   5.352   4.027  1.3379 -0.9543  0.9082
11282TIP3    H255338   4.411   5.475   4.094 -0.3653  0.3171  0.1266
11283TIP3   OH255339   2.782   7.014  12.923  0.2024  0.0138 -0.0963
11283TIP3    H155340   2.773   6.932  12.971 -0.6665  0.1053 -0.0977
11283TIP3    H255341   2.721   7.006  12.850  0.6773  0.3500 -0.5374
11284TIP3   OH255342   6.405   5.779   1.892  0.2457 -0.5477  0.4297
11284TIP3    H155343   6.344   5.768   1.819  1.6434 -1.5762 -0.6442
11284TIP3    H255344   6.401   5.873   1.912  1.1049  0.1354 -2.1880
11285TIP3   OH255345   5.953   6.506   4.795 -0.3059 -0.0024  0.8428
11285TIP3    H155346   5.899   6.581   4.818  0.8296  0.4571  2.1285
11285TIP3    H255347   5.967   6.515   4.700  1.6657  2.7324  1.2649
11286TIP3   OH255348   3.633   2.330  13.746 -0.3015  0.4667  0.2840
11286TIP3    H155349   3.652   2.417  13.711 -2.0139  0.4730 -0.7361
11286TIP3    H255350   3.555   2.342  13.801 -0.0962 -0.2886  0.7573
11287TIP3   OH255351   0.011   5.483  11.817 -0.2115  0.8455  0.6405
11287TIP3    H155352   0.010   5.452  11.727 -1.6910 -1.6239  1.4097
11287TIP3    H255353  -0.081   5.482  11.844  0.1650  1.8577  2.0883
11288TIP3   OH255354   0.341   2.993   0.328 -0.0372  0.6671  0.1904
11288TIP3    H155355   0.345   3.032   0.416 -1.2546  1.3676 -0.0492
11288TIP3    H255356   0.388   3.055   0.272  3.0967 -1.0331  0.7075
11289TIP3   OH255357   6.772   5.895  14.945 -1.0224 -0.0154  0.1749
11289TIP3    H155358   6.721   5.815  14.958 -1.4382 -0.2510 -2.3774
11289TIP3    H255359   6.709   5.960  14.916 -0.1531  0.0446 -1.7798
11290TIP3   OH255360   1.245   3.088  10.460  0.2413 -0.3595  0.0191
11290TIP3    H155361   1.152   3.081  10.439 -0.0591  3.0374 -0.4411
11290TIP3    H255362   1.248   3.148  10.535  2.0543  1.3648 -1.3258
11291TIP3   OH255363   4.956   0.535   1.035  0.1960 -0.2748 -0.5432
11291TIP3    H155364   5.024   0.597   1.062 -1.7296  1.2974  1.0148
11291TIP3    H255365   4.982   0.452   1.074  1.9155 -0.0651 -1.1551
11292TIP3   OH255366   5.952   6.919  12.905 -0.5688  0.2203 -0.1428
11292TIP3    H155367   5.857   6.933  12.910 -0.5624  0.1348  0.1914
11292TIP3    H255368   5.990   7.003  12.931 -0.5404 -0.1448  1.0092
11293TIP3   OH255369   3.541   4.645   9.416  0.0305  0.6996  0.3231
11293TIP3    H155370   3.618   4.610   9.371 -0.1989  0.6217 -0.0110
11293TIP3    H255371   3.544   4.605   9.503  0.6570  1.1044  0.4970
11294TIP3   OH255372   6.844   2.934  11.096 -0.4779  0.1790  0.2243
11294TIP3    H155373   6.930   2.964  11.065 -1.2607  0.1501 -2.1913
11294TIP3    H255374   6.855   2.923  11.191  1.7251  1.6678  0.2193
11295TIP3   OH255375   0.755   5.694  15.173  0.2721  0.6934  0.9993
11295TIP3    H155376   0.824   5.654  15.120  0.5767 -0.3002  2.0823
11295TIP3    H255377   0.678   5.641  15.156  0.2142  0.7472  1.0941
11296TIP3   OH255378   0.131   1.839  10.611 -0.2549  0.4114 -0.7800
11296TIP3    H155379   0.201   1.818  10.549 -1.2091 -1.0506 -1.4128
11296TIP3    H255380   0.051   1.821  10.563 -1.1195  2.3753 -0.1801
11297TIP3   OH255381   3.606   6.549   2.423 -0.2206  0.0608  0.4447
11297TIP3    H155382   3.657   6.485   2.472  0.5547  1.0220  0.9405
11297TIP3    H255383   3.652   6.557   2.339 -1.6748 -1.7504 -0.6013
11298TIP3   OH255384   6.554   4.004  11.440  0.0927 -0.4237 -0.3143
11298TIP3    H155385   6.566   3.947  11.364  1.8236  1.4071 -1.5069
11298TIP3    H255386   6.539   4.091  11.402 -0.4777  0.2880  1.4596
11299TIP3   OH255387   6.474   3.111   2.306  0.3602 -0.3531 -0.3465
11299TIP3    H155388   6.503   3.091   2.217  0.7491  0.8946 -0.5131
11299TIP3    H255389   6.379   3.097   2.303  0.3925 -0.5083 -0.8983
11300TIP3   OH255390   2.669   1.662   4.411 -0.2065  0.4579  0.2834
11300TIP3    H155391   2.600   1.714   4.452 -1.8226 -0.2555 -1.3745
11300TIP3    H255392   2.642   1.571   4.425  0.5755  0.1626 -0.1068
11301TIP3   OH255393   1.144   4.870   4.312  0.3540 -0.3554 -1.0377
11301TIP3    H155394   1.075   4.936   4.317  0.4006 -0.3919  1.1237
11301TIP3    H255395   1.216   4.906   4.365  0.7246 -1.7298 -0.5667
11302TIP3   OH255396   3.757   4.222  12.651 -0.9028 -0.2164 -0.4042
11302TIP3    H155397   3.718   4.172  12.580  1.2102 -1.6134 -0.6748
11302TIP3    H255398   3.812   4.159  12.698 -1.5993  0.8656  1.9890
11303TIP3   OH255399   6.496   4.736   3.327 -0.0765 -0.8024  0.1753
11303TIP3    H155400   6.460   4.711   3.412  1.2389 -0.0427  0.9968
11303TIP3    H255401   6.585   4.766   3.347  0.0384 -0.0140 -1.3877
11304TIP3   OH255402   4.696   0.539   0.925 -0.3190  0.1451  0.3229
11304TIP3    H155403   4.784   0.527   0.963 -0.5557 -0.5895  0.6457
11304TIP3    H255404   4.713   0.561   0.833  0.1976 -0.1204  0.3506
11305TIP3   OH255405   3.353   1.595  13.995 -0.5766 -0.2191  0.3956
11305TIP3    H155406   3.421   1.655  13.963  1.0275 -2.6823 -1.1105
11305TIP3    H255407   3.273   1.647  13.992  0.5895  1.6583 -1.5023
11306TIP3   OH255408   2.150   6.509   1.694 -0.0988 -0.5610  0.0383
11306TIP3    H155409   2.124   6.584   1.749  1.3063  1.2947 -1.6758
11306TIP3    H255410   2.211   6.460   1.749  2.2053  1.9088 -0.1023
11307TIP3   OH255411   3.516   6.200   0.758 -0.0151  0.1608  1.0955
11307TIP3    H155412   3.471   6.126   0.800 -0.1377  0.2840  1.1824
11307TIP3    H255413   3.523   6.266   0.827  0.6314  0.0003  1.1843
11308TIP3   OH255414   3.837   5.315   2.958 -0.3568 -0.0508  0.4312
11308TIP3    H155415   3.875   5.317   2.870 -1.1176 -1.4682  0.0390
11308TIP3    H255416   3.854   5.227   2.990  0.8158  0.7285  2.1679
11309TIP3   OH255417   0.785   1.909   0.043  0.0279 -0.7361  0.0738
11309TIP3    H155418   0.823   1.853   0.111 -1.2940 -1.4543  0.2642
11309TIP3    H255419   0.791   1.856  -0.037 -0.4169 -0.7987  0.0788
11310TIP3   OH255420   1.935   5.562   3.718  0.3302  0.3548  0.2054
11310TIP3    H155421   1.965   5.653   3.719 -1.2483  0.9228 -0.0888
11310TIP3    H255422   1.974   5.522   3.796  1.5871  1.0813 -0.0296
11311TIP3   OH255423   2.134   3.971   5.078  0.5362 -0.2338 -0.6020
11311TIP3    H155424   2.201   3.950   5.143  1.5303  1.1216 -1.1435
11311TIP3    H255425   2.183   3.991   4.998 -0.4948  0.8792 -0.9885
11312TIP3   OH255426   2.539   6.358   3.810 -0.1091  0.0298 -0.2876
11312TIP3    H155427   2.570   6.438   3.854  0.6043  0.4014 -1.4158
11312TIP3    H255428   2.574   6.287   3.864  0.2226  0.4693  0.0967
11313TIP3   OH255429   6.357   2.321   0.411 -0.1659 -0.5967  0.3446
11313TIP3    H155430   6.315   2.316   0.497 -1.6505 -3.0928 -0.4328
11313TIP3    H255431   6.382   2.231   0.391 -1.5721 -0.4697 -2.5881
11314TIP3   OH255432   5.838   6.518  14.780  0.3077  0.4273 -0.0303
11314TIP3    H155433   5.865   6.474  14.860  1.8603 -0.5071 -1.0143
11314TIP3    H255434   5.765   6.466  14.747 -0.6281  1.0690  0.9668
11315TIP3   OH255435   7.155   1.199   1.786 -0.2140 -0.0104 -0.2514
11315TIP3    H155436   7.249   1.195   1.802 -0.4432 -1.4981  1.0524
11315TIP3    H255437   7.143   1.160   1.700  0.1858 -2.1062  0.5970
11316TIP3   OH255438   3.121   0.691   0.170  0.1710  0.0800  0.3334
11316TIP3    H155439   3.159   0.744   0.241 -0.1398  0.0875  0.4954
11316TIP3    H255440   3.196   0.662   0.119  0.5007 -0.8837  1.3269
11317TIP3   OH255441   2.134   0.811  12.571 -0.2025  0.1504 -0.7081
11317TIP3    H155442   2.054   0.862  12.585 -0.1969 -0.3817  1.5087
11317TIP3    H255443   2.202   0.859  12.618  0.5033 -0.1410 -1.4129
11318TIP3   OH255444   6.647   5.249   0.237  0.3323 -0.2727 -0.5936
11318TIP3    H155445   6.604   5.250   0.152  0.3485 -0.0859 -0.5991
11318TIP3    H255446   6.691   5.334   0.243  2.1946 -1.1288 -1.3555
11319TIP3   OH255447   2.438   3.455   4.351 -0.6477 -0.1060 -0.1094
11319TIP3    H155448   2.375   3.432   4.284  0.0582 -0.3838 -0.6876
11319TIP3    H255449   2.405   3.413   4.431  0.0110 -2.2194 -0.8924
11320TIP3   OH255450   0.406   1.408   0.838  0.0957  0.4143 -0.0472
11320TIP3    H155451   0.327   1.360   0.864 -0.5405  1.4468 -0.0437
11320TIP3    H255452   0.396   1.422   0.744  0.4797  0.2023 -0.1243
11321TIP3   OH255453   2.853   0.508  15.177 -0.6625  0.7218  0.1460
11321TIP3    H155454   2.845   0.593  15.134 -0.4719  1.0707  0.7895
11321TIP3    H255455   2.795   0.450  15.126 -0.4082  1.1067 -0.5996
11322TIP3   OH255456   0.630   5.801   2.104 -0.3887  0.5653  0.4765
11322TIP3    H155457   0.620   5.719   2.057 -1.3775  0.9897 -0.0832
11322TIP3    H255458   0.696   5.850   2.055 -0.3738  0.4226  0.3569
11323TIP3   OH255459   0.704   2.678  13.796  0.2345  0.1181 -0.1268
11323TIP3    H155460   0.643   2.709  13.864 -0.5380 -0.3969 -0.5749
11323TIP3    H255461   0.726   2.757  13.747  1.7043  0.7204  1.3875
11324TIP3   OH255462   6.132   4.068   3.658 -0.1485 -0.0321 -0.0301
11324TIP3    H155463   6.136   4.138   3.723  0.9542 -0.9242  0.8979
11324TIP3    H255464   6.137   4.113   3.573 -1.0240  1.1014  0.4865
11325TIP3   OH255465   5.640   6.137   0.744 -0.0014  0.3405 -0.2019
11325TIP3    H155466   5.646   6.052   0.787 -0.7548  0.6881  0.6249
11325TIP3    H255467   5.553   6.169   0.765 -0.3355  0.6180 -1.8720
11326TIP3   OH255468   6.871   4.656   9.831  0.0648  0.1494 -0.0335
11326TIP3    H155469   6.929   4.681   9.758 -1.2846  0.7038 -0.9651
11326TIP3    H255470   6.846   4.740   9.870 -2.1663  0.1734 -1.3276
11327TIP3   OH255471   3.234   6.815   0.278  0.0363 -0.2400  0.3752
11327TIP3    H155472   3.162   6.783   0.225  0.5662 -0.8571  0.0212
11327TIP3    H255473   3.216   6.909   0.289 -1.9143 -0.7439  2.0410
11328TIP3   OH255474   4.080   1.256   5.196  0.5189 -0.0540 -0.6731
11328TIP3    H155475   4.080   1.291   5.285 -0.8527 -0.9613 -0.2892
11328TIP3    H255476   4.093   1.333   5.140  1.4835  0.5106  0.2906
11329TIP3   OH255477   3.908   3.240   3.391  1.0317  0.0455  0.4283
11329TIP3    H155478   3.976   3.252   3.457  1.1876  2.0332 -0.0222
11329TIP3    H255479   3.838   3.300   3.417  0.7402  0.2400 -0.7287
11330TIP3   OH255480   1.301   4.211   3.847  0.2322 -0.4002  0.4816
11330TIP3    H155481   1.336   4.132   3.889  0.5154 -1.4509 -1.5913
11330TIP3    H255482   1.378   4.252   3.807  0.1757  1.2660  1.9643
11331TIP3   OH255483   5.280   6.373   4.905 -0.3588 -0.1756  0.2410
11331TIP3    H155484   5.309   6.287   4.873 -0.1745 -0.8297  2.0449
11331TIP3    H255485   5.192   6.384   4.869 -0.4458 -1.1982  0.1103
11332TIP3   OH255486   0.320   1.749   0.615  1.0793 -0.0100  0.0016
11332TIP3    H155487   0.266   1.804   0.672  1.4611 -0.2984  0.6511
11332TIP3    H255488   0.312   1.790   0.528 -1.2359 -0.7826 -0.2374
11333TIP3   OH255489   4.129   3.655  13.483 -0.1714  0.0779 -0.0657
11333TIP3    H155490   4.162   3.677  13.396 -0.1722 -0.3285 -0.1733
11333TIP3    H255491   4.168   3.721  13.541  2.2230 -1.3334  0.0732
11334TIP3   OH255492   1.148   6.486   4.103  0.2030 -0.4406  0.2170
11334TIP3    H155493   1.229   6.528   4.128 -0.0760  0.1912  0.0682
11334TIP3    H255494   1.173   6.423   4.035  0.7236 -1.0347  0.9436
11335TIP3   OH255495   1.241   3.850   1.855 -0.0607  0.2492  0.9446
11335TIP3    H155496   1.298   3.894   1.792  0.5402  0.3387  1.5445
11335TIP3    H255497   1.183   3.796   1.801  0.6118  0.1328  0.3258
11336TIP3   OH255498   1.533   1.600  14.555 -0.0658  0.8196 -0.1820
11336TIP3    H155499   1.552   1.687  14.521 -0.4535  1.4903  1.2336
11336TIP3    H255500   1.461   1.614  14.617  0.6919 -0.3086  0.9932
11337TIP3   OH255501   2.813   0.210  10.572 -0.0570 -0.0602 -0.5126
11337TIP3    H155502   2.874   0.214  10.499 -1.1457 -0.4248 -1.4884
11337TIP3    H255503   2.802   0.300  10.600  1.5115 -0.0600  0.2224
11338TIP3   OH255504   0.933   4.804  13.941 -0.1249 -0.5828  0.3065
11338TIP3    H155505   0.998   4.742  13.975 -2.1292 -2.0609  1.7302
11338TIP3    H255506   0.849   4.759  13.954 -1.7797  2.6971  2.1540
11339TIP3   OH255507   7.104   3.027   2.934  0.3986  0.8704  0.4730
11339TIP3    H155508   7.031   2.967   2.917  1.3325 -0.1435 -0.0691
11339TIP3    H255509   7.163   2.977   2.990  1.4537  1.0812 -0.4311
11340TIP3   OH255510   5.514   6.549  12.701 -0.7716 -0.1906  0.3553
11340TIP3    H155511   5.567   6.478  12.664 -1.1887  0.6083 -1.9466
11340TIP3    H255512   5.453   6.504  12.760 -1.5303 -1.9006 -1.6004
11341TIP3   OH255513   3.269   4.548  14.333  0.2808  0.0480  0.0220
11341TIP3    H155514   3.337   4.560  14.267 -1.2229  3.7471 -1.1220
11341TIP3    H255515   3.317   4.535  14.415  2.2214 -1.7686 -1.3023
11342TIP3   OH255516   2.038   5.782   3.812  0.1043 -0.1306  0.0263
11342TIP3    H155517   2.027   5.822   3.899  2.6908  0.4399  0.1703
11342TIP3    H255518   2.046   5.857   3.752 -1.2398 -0.5203 -0.6848
11343TIP3   OH255519   2.917   3.428  13.378  0.1768 -0.1114  0.1779
11343TIP3    H155520   2.852   3.460  13.440 -2.1948 -1.7180 -1.2741
11343TIP3    H255521   2.984   3.385  13.432 -0.1761  1.1950  1.7159
11344TIP3   OH255522   7.030   5.929  13.605  0.3286 -0.5256  0.2413
11344TIP3    H155523   6.956   5.872  13.581 -0.3493  0.6115 -0.4218
11344TIP3    H255524   6.996   5.984  13.675  1.3868 -1.7832  1.8179
11345TIP3   OH255525   3.814   7.169   4.772  0.0558  0.3754 -0.0579
11345TIP3    H155526   3.789   7.198   4.685  1.3929  0.6317 -0.3770
11345TIP3    H255527   3.732   7.143   4.814 -0.3497 -2.9538 -2.5307
11346TIP3   OH255528   4.745   2.859  13.768 -0.0550  0.0963  0.1191
11346TIP3    H155529   4.708   2.920  13.831  0.6863  1.1941 -0.4691
11346TIP3    H255530   4.768   2.782  13.819 -1.8332 -0.0827  0.7319
11347TIP3   OH255531   4.701   3.875  13.348 -0.5152 -0.5890 -0.4024
11347TIP3    H155532   4.700   3.851  13.441 -1.1329 -1.4489 -0.6133
11347TIP3    H255533   4.784   3.841  13.315  0.2463  0.7400  0.0699
11348TIP3   OH255534   4.191   4.523   2.722 -0.3326  0.3624  0.2231
11348TIP3    H155535   4.200   4.617   2.741  1.1024  0.3862 -0.4409
11348TIP3    H255536   4.135   4.520   2.645 -1.4472  0.5875  1.0062
11349TIP3   OH255537   0.103   0.248  14.083 -0.2568 -0.4106 -0.8068
11349TIP3    H155538   0.022   0.251  14.034 -0.7793  0.3534  0.0727
11349TIP3    H255539   0.076   0.235  14.174  0.3976  2.6746 -0.0609
11350TIP3   OH255540   3.528   4.909   0.962  0.4693 -0.0821 -0.7071
11350TIP3    H155541   3.496   4.820   0.977 -0.7298  0.4859  0.3777
11350TIP3    H255542   3.533   4.948   1.049  1.0447  0.8914 -1.1555
11351TIP3   OH255543   2.058   4.723  11.215 -0.7961  0.3046  0.1550
11351TIP3    H155544   2.099   4.808  11.197 -1.7800  1.1026  1.5387
11351TIP3    H255545   2.090   4.667  11.144 -0.5690  1.9602 -1.1450
11352TIP3   OH255546   0.508   3.690  15.020  0.0845 -0.0494 -0.5229
11352TIP3    H155547   0.493   3.613  15.075  2.4625 -0.9352 -0.9852
11352TIP3    H255548   0.556   3.751  15.076 -5.0610  3.0324  1.1809
11353TIP3   OH255549   1.635   4.999   5.308 -0.6245  0.4689  0.0582
11353TIP3    H155550   1.696   5.039   5.370  0.7045  0.8707 -1.4421
11353TIP3    H255551   1.610   5.070   5.249 -1.2538 -0.0753 -0.3480
11354TIP3   OH255552   3.240   7.004   2.074 -0.2488  0.1034 -0.1006
11354TIP3    H155553   3.257   7.059   1.997  1.5142 -0.6107 -0.2613
11354TIP3    H255554   3.243   6.914   2.040  0.2630 -0.2055  0.7399
11355TIP3   OH255555   0.465   2.280   4.519  0.0738  0.3683  0.3265
11355TIP3    H155556   0.429   2.208   4.467 -0.2437 -0.4697  1.6546
11355TIP3    H255557   0.449   2.359   4.466  0.4145 -0.5195 -1.1397
11356TIP3   OH255558   3.350   4.549   0.238 -0.3311 -0.2037  0.5948
11356TIP3    H155559   3.382   4.503   0.316 -1.5167 -2.8906 -0.3808
11356TIP3    H255560   3.414   4.529   0.170 -0.1405  0.7938  0.4631
11357TIP3   OH255561   0.109   4.769  13.910 -0.2527  0.7050 -0.2982
11357TIP3    H155562   0.068   4.759  13.824  0.9148  1.3048 -0.9492
11357TIP3    H255563   0.053   4.832  13.956 -1.3280 -0.2147 -0.3040
11358TIP3   OH255564   6.047   1.408   3.343  0.3721  0.9507 -0.7504
11358TIP3    H155565   5.967   1.388   3.392  0.1250  2.0443 -0.6826
11358TIP3    H255566   6.117   1.394   3.406  0.3675 -1.2112 -1.1519
11359TIP3   OH255567   1.241   6.186   0.131 -0.4830 -0.1639 -0.2628
11359TIP3    H155568   1.324   6.182   0.180 -1.1331  1.6321  1.1074
11359TIP3    H255569   1.247   6.268   0.082 -2.3920  1.3163  1.7982
11360TIP3   OH255570   7.205   5.256  12.718  0.1730 -0.0908 -0.4208
11360TIP3    H155571   7.153   5.335  12.715  1.6544  0.9259 -0.4377
11360TIP3    H255572   7.295   5.285  12.699  0.7605 -1.7497 -0.3759
11361TIP3   OH255573   3.323   1.430   2.355  0.7166 -0.4107 -0.1879
11361TIP3    H155574   3.338   1.339   2.329  1.4344 -0.4104  0.2210
11361TIP3    H255575   3.238   1.452   2.316  0.4661 -1.3023 -0.1600
11362TIP3   OH255576   1.518   0.846  11.940 -0.2939 -0.1572  0.2921
11362TIP3    H155577   1.563   0.913  11.888 -0.1019  0.0979  0.7715
11362TIP3    H255578   1.584   0.777  11.952 -0.4956 -0.4403 -0.2118
11363TIP3   OH255579   6.650   7.058   1.830  0.2019 -1.1744  0.0896
11363TIP3    H155580   6.701   7.139   1.837  0.0143 -0.9031 -1.3608
11363TIP3    H255581   6.681   7.004   1.903  1.0486 -0.1939  0.4859
11364TIP3   OH255582   2.707   2.030   2.065 -0.0999 -0.4361 -0.2887
11364TIP3    H155583   2.724   1.955   2.122  0.2551 -0.5945 -0.6001
11364TIP3    H255584   2.674   2.098   2.124 -0.8406 -0.9691 -0.0630
11365TIP3   OH255585   5.642   4.126  14.114  0.4239  0.0452 -0.1545
11365TIP3    H155586   5.655   4.037  14.147  0.3945  0.2138  0.3170
11365TIP3    H255587   5.632   4.179  14.193  0.8449  0.5291 -0.4231
11366TIP3   OH255588   3.774   0.230  10.840 -0.3028  0.8846 -0.7043
11366TIP3    H155589   3.794   0.318  10.872  0.2397  0.3883  0.3784
11366TIP3    H255590   3.770   0.239  10.745 -0.5306  2.1280 -0.5906
11367TIP3   OH255591   5.945   1.435   1.044 -0.5087 -0.1012 -0.0024
11367TIP3    H155592   6.025   1.439   1.097  0.0626  0.9326 -0.8940
11367TIP3    H255593   5.968   1.481   0.963 -2.0064  0.1710 -0.2938
11368TIP3   OH255594   5.896   0.516  15.024 -0.0722 -0.2759  0.1568
11368TIP3    H155595   5.928   0.599  14.988  1.0475 -0.9635 -0.4906
11368TIP3    H255596   5.930   0.514  15.114  0.9268 -0.5714 -0.2204
11369TIP3   OH255597   3.333   2.958  13.089 -0.0975  0.2372  0.5408
11369TIP3    H155598   3.298   2.915  13.010 -1.6377  2.7397 -0.2511
11369TIP3    H255599   3.258   2.965  13.148  1.0178 -1.5180  2.3078
11370TIP3   OH255600   1.038   3.033   1.826 -0.1406 -0.2388 -0.1013
11370TIP3    H155601   0.959   3.076   1.861  0.5137  1.5851 -0.7073
11370TIP3    H255602   1.093   3.017   1.903 -0.5706 -0.3501  0.1847
11371TIP3   OH255603   4.969   1.544   3.620  0.1273  0.2555  0.2895
11371TIP3    H155604   5.020   1.563   3.541  0.6490  2.1734  1.0175
11371TIP3    H255605   4.893   1.601   3.613  0.4289  0.8253  1.3669
11372TIP3   OH255606   2.405   2.137   0.773  0.4852  0.3059 -0.0899
11372TIP3    H155607   2.465   2.190   0.721  2.3688  0.7413  2.3194
11372TIP3    H255608   2.438   2.047   0.763  1.8616  0.5746  1.4400
11373TIP3   OH255609   2.697   4.047  13.501  0.3978 -0.1206 -0.2111
11373TIP3    H155610   2.699   4.045  13.405 -0.2555  0.6997 -0.2579
11373TIP3    H255611   2.770   3.992  13.528  1.4944  0.7754 -1.2082
11374TIP3   OH255612   5.366   1.378   0.143 -0.3562  0.5014 -0.0503
11374TIP3    H155613   5.385   1.467   0.174  2.4669  0.4355 -1.3177
11374TIP3    H255614   5.270   1.377   0.133 -0.4649  3.6087 -0.5423
11375TIP3   OH255615   6.372   5.410  15.422 -0.1329  0.1177  0.8443
11375TIP3    H155616   6.345   5.324  15.453  0.7645 -0.6312 -0.3601
11375TIP3    H255617   6.291   5.461  15.416 -0.9048 -1.1960 -0.0976
11376TIP3   OH255618   5.802   1.973   5.391  0.1495 -0.0699 -0.1408
11376TIP3    H155619   5.867   1.909   5.360  0.6050 -1.3309  3.0223
11376TIP3    H255620   5.841   2.058   5.374  1.0301 -0.7157 -1.4766
11377TIP3   OH255621   2.260   3.022   0.638  0.2269  0.0177  0.0479
11377TIP3    H155622   2.219   2.956   0.694  0.1281 -0.0096 -0.0564
11377TIP3    H255623   2.327   2.974   0.590  1.4923  0.3743  1.3940
11378TIP3   OH255624   3.604   2.990   1.145  0.1200  0.7492  0.2097
11378TIP3    H155625   3.609   2.895   1.138 -0.2676  0.6615  0.9656
11378TIP3    H255626   3.650   3.023   1.068 -1.4058 -0.0618 -1.1027
11379TIP3   OH255627   2.419   2.714  14.700  0.1387  0.0768 -0.6568
11379TIP3    H155628   2.422   2.802  14.663 -0.5620  0.1374 -0.5943
11379TIP3    H255629   2.332   2.708  14.740  0.3461 -0.4862 -0.2713
11380TIP3   OH255630   1.490   1.923   3.859  0.8170 -1.0068  0.1199
11380TIP3    H155631   1.447   1.843   3.829 -0.6881 -0.7832  1.5146
11380TIP3    H255632   1.434   1.993   3.825  0.7077 -0.6585  1.0050
11381TIP3   OH255633   1.664   5.007  13.145  0.3582 -0.2237 -0.0145
11381TIP3    H155634   1.574   4.985  13.118  0.1402  0.3223  0.2511
11381TIP3    H255635   1.716   4.992  13.066  0.4174 -2.6736  0.4141
11382TIP3   OH255636   4.281   3.992   1.319  0.4250 -0.1191  0.1357
11382TIP3    H155637   4.364   3.974   1.363  0.1224  0.8165  1.1348
11382TIP3    H255638   4.272   4.087   1.324 -0.1004 -0.0825 -1.1160
11383TIP3   OH255639   1.325   2.454   3.929  0.0398  0.0034  0.3680
11383TIP3    H155640   1.381   2.408   3.991  0.0114  1.5830  1.6496
11383TIP3    H255641   1.236   2.424   3.950  0.1254 -0.2117  0.4180
11384TIP3   OH255642   6.787   7.090   1.509  0.0020  0.2561  0.7673
11384TIP3    H155643   6.778   7.009   1.558  0.2076 -0.1160  0.2038
11384TIP3    H255644   6.872   7.125   1.535  0.7405 -0.6482 -0.3310
11385TIP3   OH255645   4.070   2.670  10.085  0.1128 -0.5307 -0.7821
11385TIP3    H155646   4.009   2.619  10.138  0.2822  1.4674  1.4860
11385TIP3    H255647   4.020   2.693  10.007 -2.3119  1.3497  1.1604
11386TIP3   OH255648   6.499   6.326   1.548  0.6950  0.4953 -0.1674
11386TIP3    H155649   6.436   6.383   1.505  1.5029 -1.8784 -5.1463
11386TIP3    H255650   6.584   6.366   1.531  1.0697 -0.7417 -1.3917
11387TIP3   OH255651   7.158   6.833   4.424  0.3222  0.1401  0.3823
11387TIP3    H155652   7.208   6.912   4.405 -1.2893  0.7049 -1.8749
11387TIP3    H255653   7.092   6.861   4.487 -0.4511  0.7110 -0.6579
11388TIP3   OH255654   0.709   3.347   2.386 -0.0223 -0.0980 -0.7727
11388TIP3    H155655   0.642   3.386   2.442 -0.6055 -1.7465 -0.2617
11388TIP3    H255656   0.792   3.367   2.429 -0.4304 -0.8864  0.4131
11389TIP3   OH255657   2.641   4.279  14.017 -0.6395 -0.4360 -0.4754
11389TIP3    H155658   2.580   4.206  14.003 -1.0469 -0.3886  0.8502
11389TIP3    H255659   2.690   4.286  13.936 -1.2680 -1.5627 -0.9732
11390TIP3   OH255660   0.192   7.170  14.735 -0.4345 -0.1714 -0.4322
11390TIP3    H155661   0.212   7.180  14.641 -1.4446  3.1690 -0.4291
11390TIP3    H255662   0.221   7.253  14.774 -2.5458 -0.3703  1.7331
11391TIP3   OH255663   2.285   6.568  13.528 -0.0210 -0.2249 -0.2879
11391TIP3    H155664   2.240   6.503  13.582 -0.4822  1.6434  1.7319
11391TIP3    H255665   2.360   6.595  13.581 -0.7409  2.0065 -0.3079
11392TIP3   OH255666   5.375   2.969  15.200 -0.2420 -0.0192  1.0462
11392TIP3    H155667   5.351   3.006  15.115 -1.5407  0.1951  1.4887
11392TIP3    H255668   5.466   2.941  15.189  1.0071  3.6156  0.7727
11393TIP3   OH255669   4.227   6.116   4.091 -0.3358  0.1363  0.3521
11393TIP3    H155670   4.156   6.053   4.103  1.0422 -1.5228  0.1243
11393TIP3    H255671   4.244   6.116   3.997 -1.0037  1.6743  0.2020
11394TIP3   OH255672   0.010   4.209   5.219  0.0245  0.1447  0.3552
11394TIP3    H155673   0.065   4.263   5.162  2.0560  0.1975  2.2375
11394TIP3    H255674   0.047   4.121   5.209 -0.4072 -0.0706  0.6617
11395TIP3   OH255675   1.795   2.880  13.190 -0.2498  0.5971  0.0847
11395TIP3    H155676   1.759   2.936  13.121 -1.2464 -0.4735 -0.2943
11395TIP3    H255677   1.771   2.791  13.164  0.7332  0.0285  1.0094
11396TIP3   OH255678   2.171   3.482   4.204  0.4889  0.2874 -1.1262
11396TIP3    H155679   2.143   3.425   4.132 -0.2803 -0.9028  0.0893
11396TIP3    H255680   2.114   3.558   4.198  0.3546  0.1440 -1.7034
11397TIP3   OH255681   5.304   1.873   2.096  0.2755 -0.6615  0.2923
11397TIP3    H155682   5.368   1.869   2.166 -1.5625  0.8431  2.2173
11397TIP3    H255683   5.267   1.785   2.091  0.6854 -0.8757  0.9767
11398TIP3   OH255684   0.486   5.609  14.098  0.3841  0.7725  0.0262
11398TIP3    H155685   0.574   5.575  14.078  1.1870  2.3006  0.7292
11398TIP3    H255686   0.434   5.587  14.022  1.6995  0.8481 -0.9331
11399TIP3   OH255687   1.592   2.540  14.522  0.0481 -1.0109  0.2047
11399TIP3    H155688   1.670   2.577  14.480  1.3462 -2.7383  0.9781
11399TIP3    H255689   1.612   2.544  14.616 -1.0849 -0.8800  0.4476
11400TIP3   OH255690   2.318   7.074   0.535 -0.4744  0.4655 -0.0685
11400TIP3    H155691   2.338   6.998   0.590  1.5301  0.3996 -0.7943
11400TIP3    H255692   2.294   7.143   0.596 -2.7411 -0.8160  0.5914
11401TIP3   OH255693   2.989   3.799   0.210  0.3966 -0.1475  0.7167
11401TIP3    H155694   2.945   3.833   0.132  0.0528 -0.6255  0.6968
11401TIP3    H255695   2.991   3.704   0.197  2.6030 -0.0687  0.1165
11402TIP3   OH255696   0.899   1.291  12.881  0.6029  0.3858  0.3101
11402TIP3    H155697   0.832   1.359  12.869  1.2227  0.7833 -1.0630
11402TIP3    H255698   0.867   1.216  12.833  0.3282 -0.0209  1.1139
11403TIP3   OH255699   5.862   2.211  14.155  0.3996  0.1389 -0.3134
11403TIP3    H155700   5.801   2.175  14.220 -0.0211  0.9223 -0.2573
11403TIP3    H255701   5.805   2.251  14.089  0.8475  0.4968 -0.4869
11404TIP3   OH255702   3.338   1.952  14.827 -0.7423  0.4810  0.2282
11404TIP3    H155703   3.365   2.043  14.838  3.7643 -0.1061 -3.2516
11404TIP3    H255704   3.266   1.955  14.764 -1.4461  1.6398  1.0639
11405TIP3   OH255705   2.868   2.218   2.310  0.7604 -0.1420 -0.5279
11405TIP3    H155706   2.909   2.134   2.328  1.6397 -0.1622 -2.4645
11405TIP3    H255707   2.940   2.278   2.296  0.2303  1.5192  2.7671
11406TIP3   OH255708   4.070   6.949  14.288 -0.1586  0.2260 -1.1259
11406TIP3    H155709   4.023   6.869  14.264 -0.1568  0.2836 -1.3227
11406TIP3    H255710   4.015   7.020  14.255 -1.3772  0.4171  1.1031
11407TIP3   OH255711   5.004   0.304   1.842 -0.2341  0.7078  0.2024
11407TIP3    H155712   4.998   0.325   1.935  1.4848  1.0637  0.2669
11407TIP3    H255713   5.047   0.381   1.803  1.5087 -0.5221 -0.4083
11408TIP3   OH255714   1.706   4.141   4.101  0.1019  0.8163  0.4311
11408TIP3    H155715   1.666   4.223   4.071 -2.8372 -0.9881 -1.0507
11408TIP3    H255716   1.689   4.139   4.195 -0.0949  1.7822  0.4259
11409TIP3   OH255717   4.458   6.878   0.046 -0.0676  0.2477  0.6848
11409TIP3    H155718   4.407   6.884  -0.035  1.7940  1.3675 -0.4823
11409TIP3    H255719   4.435   6.793   0.083 -3.1409  0.9168  0.5348
11410TIP3   OH255720   1.812   2.421  12.137  0.3383 -0.0577 -0.3410
11410TIP3    H155721   1.853   2.404  12.221 -0.2280  0.2942  0.0178
11410TIP3    H255722   1.885   2.437  12.077  0.8045 -1.7295 -0.2572
11411TIP3   OH255723   5.334   5.605  11.804  0.4714 -0.0508  0.4569
11411TIP3    H155724   5.382   5.687  11.800 -3.5601  2.5517  0.2075
11411TIP3    H255725   5.289   5.599  11.720 -0.5402 -1.7553  1.0622
11412TIP3   OH255726   5.657   6.505   5.950 -0.2608  0.0091 -0.8668
11412TIP3    H155727   5.649   6.594   5.915  0.4137 -0.1176 -1.3794
11412TIP3    H255728   5.567   6.471   5.951 -0.6082  0.9125 -0.0526
11413TIP3   OH255729   3.737   0.895   1.652  0.4590 -0.0309  0.5785
11413TIP3    H155730   3.662   0.876   1.596  0.6538 -1.7453  0.8391
11413TIP3    H255731   3.813   0.886   1.594  0.5378  0.4367  0.6064
11414TIP3   OH255732   2.838   2.099  14.941  0.0597 -0.5604 -0.4360
11414TIP3    H155733   2.844   2.184  14.898 -0.5443 -1.2145 -1.8639
11414TIP3    H255734   2.779   2.114  15.015  0.0572  0.2861 -0.6001
11415TIP3   OH255735   4.394   1.014  14.041  0.2385 -1.6139  0.1031
11415TIP3    H155736   4.367   0.927  14.012 -1.9279 -0.0742 -3.1637
11415TIP3    H255737   4.316   1.068  14.030  2.1839  1.2712 -0.6570
11416TIP3   OH255738   2.742   1.172   3.787 -0.0984  0.5443  0.0276
11416TIP3    H155739   2.687   1.240   3.825 -0.9615  1.1947 -2.2778
11416TIP3    H255740   2.691   1.136   3.715  2.0899  0.5236 -1.6169
11417TIP3   OH255741   3.826   4.473  11.496 -0.2716 -0.4893  0.0821
11417TIP3    H155742   3.845   4.454  11.589 -1.4399  0.9988  0.6500
11417TIP3    H255743   3.789   4.391  11.463 -0.5101 -0.8175  1.1151
11418TIP3   OH255744   7.027   4.268   0.015  0.3168 -0.4697  0.5688
11418TIP3    H155745   7.072   4.185   0.001  0.0074 -0.3172 -1.7758
11418TIP3    H255746   6.948   4.262  -0.038 -0.7195  0.5998  1.8955
11419TIP3   OH255747   4.497   6.372   2.229  0.3443  0.3031  0.1215
11419TIP3    H155748   4.520   6.284   2.258 -1.3176 -0.3980 -0.5529
11419TIP3    H255749   4.480   6.421   2.309  0.4374 -0.2336  0.4706
11420TIP3   OH255750   3.287   4.109  15.113  0.1255 -0.0498  0.4627
11420TIP3    H155751   3.367   4.110  15.167  0.1842 -0.4635  0.3881
11420TIP3    H255752   3.250   4.022  15.128 -0.0933 -0.0058  0.1770
11421TIP3   OH255753   6.694   3.364   2.389 -0.5015 -0.0018 -0.3501
11421TIP3    H155754   6.684   3.290   2.329  0.7447 -0.2388 -0.2936
11421TIP3    H255755   6.606   3.401   2.396 -1.2690 -1.7953  0.0531
11422TIP3   OH255756   4.325   0.759  13.987 -0.0588 -0.4314  0.2808
11422TIP3    H155757   4.402   0.706  14.007 -1.3003 -1.8077  1.6524
11422TIP3    H255758   4.256   0.724  14.043 -1.6471  0.9016 -0.7371
11423TIP3   OH255759   4.942   5.384  14.947 -0.1907  0.3071 -0.0985
11423TIP3    H155760   4.948   5.473  14.982 -0.0900 -0.0021  0.6670
11423TIP3    H255761   4.855   5.355  14.971  0.3564 -0.4038  1.1105
11424TIP3   OH255762   3.458   5.367  14.147 -0.1386  0.8546 -0.3344
11424TIP3    H155763   3.416   5.310  14.211 -1.0209  0.0839 -1.5682
11424TIP3    H255764   3.386   5.408  14.099  0.5002  1.2263 -1.0074
11425TIP3   OH255765   3.412   5.742  14.905 -0.0420  0.1686 -0.3801
11425TIP3    H155766   3.395   5.705  14.818  0.4221 -0.2738 -0.2907
11425TIP3    H255767   3.343   5.806  14.918 -1.2567 -1.0974 -0.2867
11426TIP3   OH255768   5.530   7.184   2.605 -0.2268  0.2118 -0.0922
11426TIP3    H155769   5.527   7.094   2.572  0.4980  0.7835 -1.8230
11426TIP3    H255770   5.500   7.177   2.696  0.1303 -1.8212 -0.0805
11427TIP3   OH255771   3.487   4.930  13.934  0.0494  0.0891 -0.1704
11427TIP3    H155772   3.563   4.878  13.960  0.2015  1.3001  2.0993
11427TIP3    H255773   3.519   5.020  13.932 -1.1234  0.5347  0.0447
11428TIP3   OH255774   2.505   3.630  10.273 -0.2116  0.1024  0.0666
11428TIP3    H155775   2.477   3.665  10.357 -1.1293 -1.5470  0.4876
11428TIP3    H255776   2.499   3.705  10.213  0.6419  1.3464  1.4662
11429TIP3   OH255777   3.073   4.091   3.098 -0.3639 -0.2817  0.2026
11429TIP3    H155778   2.995   4.074   3.045 -0.4432  0.3519  0.1055
11429TIP3    H255779   3.132   4.138   3.039  0.8545 -2.3151 -0.2964
11430TIP3   OH255780   6.291   5.270   0.554 -0.4005  0.1035 -0.0871
11430TIP3    H155781   6.212   5.264   0.607  0.1326  2.2842  1.0481
11430TIP3    H255782   6.343   5.338   0.595  1.8313 -0.8549 -1.1602
11431TIP3   OH255783   0.480   2.948  13.074  0.7335 -0.0222  0.9187
11431TIP3    H155784   0.494   2.971  12.982  1.5135 -0.4085  0.9335
11431TIP3    H255785   0.566   2.921  13.106  0.4223 -0.1360  1.6993
11432TIP3   OH255786   3.561   6.371   2.889 -0.4610  0.6230  0.3902
11432TIP3    H155787   3.514   6.406   2.814 -0.1930 -0.4534 -0.3058
11432TIP3    H255788   3.642   6.422   2.893 -0.5794  0.8343  0.0789
11433TIP3   OH255789   5.980   6.068  13.792 -0.2494 -0.3529  0.0469
11433TIP3    H155790   6.052   6.102  13.740 -0.6833 -0.3931 -0.5955
11433TIP3    H255791   5.965   5.980  13.757 -1.1747 -0.0215 -0.4186
11434TIP3   OH255792   0.011   2.083   4.054  0.2297 -0.2767 -0.0754
11434TIP3    H155793   0.099   2.078   4.016  1.2565 -2.5029  2.3235
11434TIP3    H255794  -0.041   2.020   4.003  1.6136 -3.2934  1.9154
11435TIP3   OH255795   6.598   6.701   4.487  0.0879  0.0138  0.2191
11435TIP3    H155796   6.536   6.649   4.537  1.7462 -1.3266  0.9808
11435TIP3    H255797   6.552   6.784   4.471 -1.5692 -0.6128  1.4220
11436TIP3   OH255798   2.949   6.380   5.470  0.0739 -0.2333  0.0040
11436TIP3    H155799   2.934   6.312   5.404  1.4434 -1.2017  0.6668
11436TIP3    H255800   3.043   6.394   5.470  0.2612 -1.0801  2.5563
11437TIP3   OH255801   2.638   3.233   0.467  0.1418 -0.1730 -0.7943
11437TIP3    H155802   2.662   3.229   0.374  1.7934 -0.6380 -0.3888
11437TIP3    H255803   2.650   3.144   0.499 -1.3168 -0.2297 -0.3056
11438TIP3   OH255804   1.720   0.818  12.794 -0.4919 -0.0925  0.1816
11438TIP3    H155805   1.685   0.898  12.832  0.6093 -0.2760  1.7210
11438TIP3    H255806   1.667   0.748  12.832  0.3648 -0.2519  1.1398
11439TIP3   OH255807   1.611   2.163   0.998  0.2460 -0.3588  0.0413
11439TIP3    H155808   1.611   2.257   1.013  0.5718 -0.4446  0.6258
11439TIP3    H255809   1.640   2.153   0.907 -1.3893  0.1628 -0.5630
11440TIP3   OH255810   4.710   1.250   2.413  0.1433 -0.6003 -0.6897
11440TIP3    H155811   4.671   1.198   2.485  2.1447 -1.4787 -0.1780
11440TIP3    H255812   4.635   1.291   2.371 -1.3066 -1.8288  0.5427
11441TIP3   OH255813   3.179   5.093  10.655  0.2566  0.1887 -0.4477
11441TIP3    H155814   3.183   5.000  10.678  0.0522  0.0582 -0.9321
11441TIP3    H255815   3.211   5.138  10.733 -1.5394 -0.1762  0.5561
11442TIP3   OH255816   0.012   4.439   4.145 -0.2013 -0.0216 -0.0389
11442TIP3    H155817  -0.018   4.350   4.163 -1.0350 -0.0549 -1.4213
11442TIP3    H255818  -0.052   4.496   4.187 -0.0906 -0.0777  0.2053
11443TIP3   OH255819   5.610   6.672   3.722  0.1924  0.2944  0.3554
11443TIP3    H155820   5.624   6.729   3.646 -3.4263  0.9137 -0.0255
11443TIP3    H255821   5.589   6.587   3.684  0.7733 -0.0295  0.7554
11444TIP3   OH255822   6.307   3.854   2.115 -0.3275 -0.3093  1.0455
11444TIP3    H155823   6.220   3.853   2.074 -0.5126 -0.8304  1.4458
11444TIP3    H255824   6.340   3.765   2.103  0.4403  0.0701  0.2915
11445TIP3   OH255825   2.706   4.686  14.717 -0.5875 -0.5510 -0.6851
11445TIP3    H155826   2.723   4.664  14.626  1.0907 -0.8265 -0.3252
11445TIP3    H255827   2.680   4.778  14.714  0.4431 -0.2611 -1.3578
11446TIP3   OH255828   4.780   6.123   4.347 -0.1600  0.2527 -0.3876
11446TIP3    H155829   4.742   6.036   4.351  0.1963  0.1007 -0.2195
11446TIP3    H255830   4.728   6.170   4.282  1.2528 -0.8950 -2.4789
11447TIP3   OH255831   2.904   6.407   4.397  0.2296 -0.0023 -0.5136
11447TIP3    H155832   2.947   6.324   4.419  1.2559  0.5707 -0.2805
11447TIP3    H255833   2.830   6.412   4.457 -1.5743 -2.0607 -2.3897
11448TIP3   OH255834   5.020   4.447   3.925 -0.0996 -0.1749 -0.2144
11448TIP3    H155835   4.952   4.380   3.922  1.0316 -1.3198 -1.3653
11448TIP3    H255836   5.036   4.468   3.833  1.5330 -0.3867 -0.0011
11449TIP3   OH255837   6.831   2.281  10.379 -0.1973  0.4422  0.3104
11449TIP3    H155838   6.745   2.311  10.407 -0.5533  1.3666 -1.5655
11449TIP3    H255839   6.873   2.359  10.343  0.6867 -0.3579 -0.4602
11450TIP3   OH255840   3.448   6.010   1.280 -0.0034  0.6050 -0.2672
11450TIP3    H155841   3.448   5.926   1.326 -0.1089  0.1949 -1.0050
11450TIP3    H255842   3.359   6.042   1.290 -0.2043  0.2002 -0.7557
11451TIP3   OH255843   0.974   6.160  14.228 -0.1890  0.5146 -0.7418
11451TIP3    H155844   0.936   6.082  14.188  1.5237 -0.3692 -0.7017
11451TIP3    H255845   0.944   6.157  14.319  1.6045 -1.3214 -0.1515
11452TIP3   OH255846   5.587   1.097   2.352 -0.2084  0.8088 -0.3037
11452TIP3    H155847   5.559   1.026   2.409 -0.0459 -1.3772 -2.7498
11452TIP3    H255848   5.507   1.146   2.335 -0.2466  1.5475  1.7445
11453TIP3   OH255849   2.042   2.717   4.678 -0.1269 -0.0952  0.4462
11453TIP3    H155850   1.988   2.783   4.635 -1.3815 -1.9878 -1.0368
11453TIP3    H255851   2.131   2.734   4.645 -0.4230  0.8635  0.1126
11454TIP3   OH255852   2.218   3.258  10.674 -0.9665  0.4433 -0.2797
11454TIP3    H155853   2.309   3.252  10.646 -1.1475  0.1041 -0.8081
11454TIP3    H255854   2.175   3.184  10.632 -1.1734 -0.3134  1.2106
11455TIP3   OH255855   0.201   0.298   3.143  0.4668 -0.1246  0.6073
11455TIP3    H155856   0.177   0.360   3.212 -0.9224  0.0012  0.0358
11455TIP3    H255857   0.122   0.246   3.129  0.7765 -0.2467 -0.7954
11456TIP3   OH255858   3.599   5.189  11.679  0.1267  0.1635  0.2248
11456TIP3    H155859   3.634   5.101  11.692  1.3885  0.5056 -0.7181
11456TIP3    H255860   3.520   5.176  11.626  0.9827 -0.3228 -0.9763
11457TIP3   OH255861   0.491   0.119  14.829  0.2922  0.2415  0.4518
11457TIP3    H155862   0.400   0.147  14.815 -0.1776 -1.4071  0.0587
11457TIP3    H255863   0.493   0.088  14.919  0.3783 -0.0490  0.3511
11458TIP3   OH255864   2.558   1.095  14.975 -0.4275  0.5272 -0.9888
11458TIP3    H155865   2.607   1.070  15.052 -0.7736  1.1452 -0.5619
11458TIP3    H255866   2.587   1.033  14.907 -0.0521  0.0450 -0.4021
11459TIP3   OH255867   3.577   5.177   4.497  0.2208 -0.0298  0.6737
11459TIP3    H155868   3.622   5.128   4.566  1.7651 -1.0216 -0.9403
11459TIP3    H255869   3.622   5.262   4.495  1.2093 -0.5490 -0.0713
11460TIP3   OH255870   2.189   2.664  13.012 -0.1248 -0.3189 -0.2064
11460TIP3    H155871   2.206   2.577  13.048  0.3294 -1.7823 -3.5319
11460TIP3    H255872   2.116   2.652  12.952 -0.6786  1.8454 -0.0593
11461TIP3   OH255873   4.939   2.924   5.571 -0.1902  0.6810  0.0286
11461TIP3    H155874   4.977   2.901   5.656  0.8517 -0.2085 -0.6510
11461TIP3    H255875   4.975   2.859   5.511 -0.1446  1.8812 -1.2756
11462TIP3   OH255876   1.455   1.135   5.755  0.2027  0.2709  0.0474
11462TIP3    H155877   1.493   1.117   5.669  0.0883  0.1351  0.0250
11462TIP3    H255878   1.524   1.182   5.802  1.5184 -2.4376  1.0163
11463TIP3   OH255879   5.667   2.351   4.841 -0.0604  0.2196 -0.2427
11463TIP3    H155880   5.635   2.440   4.857 -1.9669 -0.1342 -1.6182
11463TIP3    H255881   5.735   2.362   4.775 -0.8102  0.6193 -0.9706
11464TIP3   OH255882   3.102   6.609  14.723 -0.3559 -0.3218  0.4165
11464TIP3    H155883   3.196   6.622  14.737 -0.1911 -0.2570 -0.6382
11464TIP3    H255884   3.064   6.614  14.810  0.4417  1.1685  0.7092
11465TIP3   OH255885   6.628   2.547  15.315 -0.4613  0.0357 -0.1416
11465TIP3    H155886   6.720   2.547  15.289 -0.1975  1.7158  0.6589
11465TIP3    H255887   6.597   2.458  15.295  1.4827 -0.7595  0.1567
11466TIP3   OH255888   3.477   4.009   6.074  0.1259 -0.5066  0.3492
11466TIP3    H155889   3.460   4.074   6.006  0.2593  0.9679  1.6446
11466TIP3    H255890   3.398   3.955   6.076  0.0201 -0.4199 -0.7772
11467TIP3   OH255891   5.297   4.567   3.520  0.1355 -0.0097 -0.6560
11467TIP3    H155892   5.332   4.651   3.552 -0.9515 -0.0775  0.8194
11467TIP3    H255893   5.340   4.501   3.575 -2.3534 -0.0815  1.4276
11468TIP3   OH255894   0.633   0.628  14.114 -0.2600  0.0323  0.5446
11468TIP3    H155895   0.553   0.622  14.167  0.1283  0.5722  1.2116
11468TIP3    H255896   0.704   0.613  14.176  0.2463  1.4685  0.3559
11469TIP3   OH255897   0.087   4.475   0.186 -0.5750 -0.1015  0.3672
11469TIP3    H155898   0.139   4.538   0.136 -1.3875  0.3034  0.0082
11469TIP3    H255899  -0.001   4.514   0.189 -1.4216 -1.7625 -0.9053
11470TIP3   OH255900   3.822   3.137  14.005 -0.0105 -0.0552 -0.3468
11470TIP3    H155901   3.877   3.115  14.080 -0.3641 -0.2138 -0.1368
11470TIP3    H255902   3.872   3.105  13.929  1.0591  1.4270 -0.3240
11471TIP3   OH255903   7.080   2.849  14.053 -0.0129  0.1327  0.5353
11471TIP3    H155904   7.123   2.916  14.107  1.0722 -0.9001  1.0015
11471TIP3    H255905   7.144   2.779  14.046 -0.7209 -0.4239 -0.8434
11472TIP3   OH255906   5.598   2.790  13.524 -0.4214 -0.3518  0.5402
11472TIP3    H155907   5.668   2.837  13.478 -0.2280  0.1664  1.3591
11472TIP3    H255908   5.642   2.715  13.564 -0.4458 -0.3528  0.5653
11473TIP3   OH255909   0.661   3.957   0.250 -0.2779  0.1438  0.2229
11473TIP3    H155910   0.612   4.035   0.224 -1.6248 -0.6416  0.3664
11473TIP3    H255911   0.716   3.987   0.323 -0.6646  0.9893  0.1849
11474TIP3   OH255912   4.768   3.198   1.722  0.6321 -0.4264 -0.2888
11474TIP3    H155913   4.784   3.289   1.698 -2.0136 -0.3213 -2.0954
11474TIP3    H255914   4.710   3.203   1.798 -0.6653 -0.5086 -1.2342
11475TIP3   OH255915   3.606   1.812   2.112 -0.4823  0.3448  0.5683
11475TIP3    H155916   3.606   1.907   2.122  0.5524  0.5275 -0.8319
11475TIP3    H255917   3.647   1.779   2.192 -0.2938  1.1128  0.7930
11476TIP3   OH255918   4.183   6.631  11.942 -0.3048 -0.0937  0.2996
11476TIP3    H155919   4.209   6.593  11.858 -1.7001  0.0885 -0.2441
11476TIP3    H255920   4.226   6.576  12.007 -1.0870 -1.7128 -0.4856
11477TIP3   OH255921   4.535   3.888   2.184 -0.0256  0.6381  0.1787
11477TIP3    H155922   4.577   3.868   2.268  2.0866 -0.9058 -1.1811
11477TIP3    H255923   4.578   3.968   2.154  2.1766 -0.9843 -1.2498
11478TIP3   OH255924   5.460   4.132   0.159 -0.3247 -0.3294  0.3131
11478TIP3    H155925   5.381   4.172   0.197  0.0687  0.0465  0.7536
11478TIP3    H255926   5.497   4.080   0.231  0.8205  0.9605  0.6973
11479TIP3   OH255927   6.274   6.923  12.319  0.1971  0.5372  0.1443
11479TIP3    H155928   6.180   6.906  12.331  0.1548  0.7316  0.0812
11479TIP3    H255929   6.292   6.999  12.374  0.0676  1.2542 -0.7789
11480TIP3   OH255930   5.750   2.639   3.770 -0.3912 -0.0913  0.2411
11480TIP3    H155931   5.741   2.668   3.860  0.3276 -0.2282  0.3583
11480TIP3    H255932   5.724   2.547   3.771  1.6674 -0.7054  0.7268
11481TIP3   OH255933   5.289   3.343   0.365  0.3901  0.3116  0.2498
11481TIP3    H155934   5.378   3.337   0.398  0.1773 -0.0717  0.7688
11481TIP3    H255935   5.234   3.338   0.443 -0.0647  1.4756  0.0357
11482TIP3   OH255936   4.265   3.385   0.819 -0.4166 -0.3489 -0.5957
11482TIP3    H155937   4.234   3.359   0.732  1.9052 -2.6693 -0.8556
11482TIP3    H255938   4.249   3.309   0.874  1.1696 -0.1960  0.1395
11483TIP3   OH255939   1.358   6.322  14.720 -0.1533 -0.1805  0.0164
11483TIP3    H155940   1.288   6.269  14.758  0.3843 -0.0074  1.2670
11483TIP3    H255941   1.438   6.290  14.761  0.6273 -0.8140 -1.8618
11484TIP3   OH255942   7.102   3.621   3.394  0.0039  0.4927  0.0560
11484TIP3    H155943   7.152   3.566   3.334 -0.3387 -0.2618  0.4484
11484TIP3    H255944   7.151   3.703   3.398  0.7597  0.0602 -0.1976
11485TIP3   OH255945   3.017   6.682   0.167  0.3374  0.3236  0.0403
11485TIP3    H155946   3.059   6.608   0.123 -2.0183 -2.2061  1.6804
11485TIP3    H255947   2.927   6.680   0.135 -0.4625  0.7616  2.1256
11486TIP3   OH255948   2.483   5.463  13.350 -0.4517  0.3450  0.2393
11486TIP3    H155949   2.485   5.382  13.402  0.0738 -0.6171 -1.2086
11486TIP3    H255950   2.505   5.532  13.412  0.1950 -0.7652  1.2883
11487TIP3   OH255951   3.071   3.464   1.279 -0.4009  0.0563 -0.1543
11487TIP3    H155952   3.033   3.510   1.354 -1.5505 -0.2626 -0.5289
11487TIP3    H255953   3.006   3.397   1.256  0.0676 -0.0371 -1.2624
11488TIP3   OH255954   3.034   7.092   4.867  0.0258  0.1621  0.3479
11488TIP3    H155955   3.005   7.047   4.787 -1.9597 -1.0605  1.6541
11488TIP3    H255956   2.970   7.163   4.878  0.9846  1.0558  0.2609
11489TIP3   OH255957   7.178   0.613   0.021 -0.1203 -0.0298  0.2136
11489TIP3    H155958   7.086   0.589   0.006  0.3123 -1.3104 -0.5921
11489TIP3    H255959   7.174   0.688   0.079 -1.7525  1.2173 -1.3904
11490TIP3   OH255960   4.711   5.807   1.748  0.1696 -0.2909 -0.7406
11490TIP3    H155961   4.736   5.775   1.661 -0.3692 -1.3797 -0.5158
11490TIP3    H255962   4.620   5.780   1.758  0.2770 -0.3292  0.2325
11491TIP3   OH255963   2.295   1.227  11.200 -0.6100 -0.2613 -0.6476
11491TIP3    H155964   2.386   1.204  11.178 -0.3929  1.0607 -1.2442
11491TIP3    H255965   2.301   1.317  11.233 -1.3535 -1.0554  1.9230
11492TIP3   OH255966   2.211   2.568   2.266  0.1285  0.3998  0.2551
11492TIP3    H155967   2.286   2.572   2.206  0.5366 -0.8846  0.6442
11492TIP3    H255968   2.142   2.527   2.214  0.0590  0.5032  0.2653
11493TIP3   OH255969   2.482   4.734   0.586  0.3418 -0.2474  0.2097
11493TIP3    H155970   2.496   4.780   0.669  0.6214 -0.1591  0.1139
11493TIP3    H255971   2.501   4.800   0.519 -1.5542  0.2218  0.0543
11494TIP3   OH255972   5.449   0.598  13.178  0.2325  0.2042 -0.5406
11494TIP3    H155973   5.413   0.514  13.209  1.6819 -0.6453 -1.0629
11494TIP3    H255974   5.389   0.664  13.212 -0.2195 -0.9478  1.0041
11495TIP3   OH255975   4.537   4.231  11.189  0.1738 -0.2193 -0.4112
11495TIP3    H155976   4.601   4.200  11.126  3.5950 -0.1655  2.6789
11495TIP3    H255977   4.491   4.152  11.218  1.0893 -0.7700 -0.4416
11496TIP3   OH255978   4.184   1.773   1.871 -0.1439  0.3409 -0.1307
11496TIP3    H155979   4.276   1.778   1.899 -0.4673  2.0873  0.7417
11496TIP3    H255980   4.171   1.851   1.816 -0.8139 -0.5164 -1.2369
11497TIP3   OH255981   1.091   2.201  14.899  0.4658  0.7400 -0.3134
11497TIP3    H155982   1.178   2.226  14.868  0.6731  1.5052  0.8335
11497TIP3    H255983   1.033   2.215  14.824  1.6006 -1.6661 -1.7358
11498TIP3   OH255984   2.567   5.767  13.922  0.0586  0.1591  0.3481
11498TIP3    H155985   2.556   5.756  14.016  1.5892  0.0908  0.5347
11498TIP3    H255986   2.560   5.678  13.886  2.8685 -0.3317  0.8089
11499TIP3   OH255987   1.698   0.847   1.337 -0.1771 -0.2424  0.5121
11499TIP3    H155988   1.706   0.931   1.381  1.4580 -0.6013  0.9577
11499TIP3    H255989   1.675   0.786   1.407 -0.0605 -0.3924  0.4199
11500TIP3   OH255990   3.805   0.911   0.305  0.7269 -0.9133 -0.2582
11500TIP3    H155991   3.833   0.862   0.227  1.3340 -1.1783  0.1125
11500TIP3    H255992   3.854   0.993   0.300  1.0932 -1.1066  0.0545
11501TIP3   OH255993   1.271   0.780   0.984  0.1243  0.0183  0.2691
11501TIP3    H155994   1.200   0.775   1.047  0.0378 -1.1577  0.1097
11501TIP3    H255995   1.234   0.828   0.910 -1.3904 -2.6075 -0.8440
11502TIP3   OH255996   1.007   6.244   3.425  0.3327 -0.0401  0.5799
11502TIP3    H155997   1.084   6.193   3.450 -1.0519 -2.8695 -0.5194
11502TIP3    H255998   0.946   6.234   3.499 -0.0836 -0.2852  0.2103
11503TIP3   OH255999   4.240   3.484   3.680 -0.1970  0.2098  0.3388
11503TIP3    H156000   4.243   3.516   3.770  0.0846  0.0933  0.3723
11503TIP3    H256001   4.293   3.548   3.630 -1.9489  1.3867 -0.0981
11504TIP3   OH256002   4.487   5.066   3.221 -0.0186  0.3762 -0.2247
11504TIP3    H156003   4.547   4.999   3.253 -2.1940 -0.6273  2.1161
11504TIP3    H256004   4.435   5.022   3.154 -2.5118 -0.9910  2.3900
11505TIP3   OH256005   4.580   5.299   9.737  0.1095 -0.4701 -0.3279
11505TIP3    H156006   4.517   5.338   9.676 -0.1860 -2.0491 -1.0890
11505TIP3    H256007   4.644   5.368   9.753 -0.7637  0.5406 -1.0594
11506TIP3   OH256008   0.103   1.825   3.362 -0.0008  0.4581 -0.0582
11506TIP3    H156009   0.145   1.823   3.276 -0.2403  0.4602 -0.1741
11506TIP3    H256010   0.120   1.739   3.400 -1.8740 -0.3728 -1.0410
11507TIP3   OH256011   1.271   0.782  11.983  0.4671  0.0255 -0.0671
11507TIP3    H156012   1.246   0.874  11.995  0.3313  0.0903 -0.7973
11507TIP3    H256013   1.358   0.785  11.945 -0.2315 -0.0907 -1.7504
11508TIP3   OH256014   3.354   2.241   2.101  0.1276  0.2441 -0.2649
11508TIP3    H156015   3.345   2.202   2.188  1.2806  0.9319  0.1916
11508TIP3    H256016   3.417   2.185   2.055  2.5875  1.9909  0.7422
11509TIP3   OH256017   4.018   2.570   4.859  0.3311  0.0824  0.0296
11509TIP3    H156018   3.963   2.508   4.907 -1.0307  1.7583  0.7200
11509TIP3    H256019   3.974   2.580   4.774  0.6728 -0.0256 -0.1658
11510TIP3   OH256020   0.590   1.495   5.637 -0.7952  0.5915 -0.2665
11510TIP3    H156021   0.648   1.423   5.609  0.9737  1.6684  0.4381
11510TIP3    H256022   0.606   1.564   5.573 -0.7752  1.1446  0.3266
11511TIP3   OH256023   5.630   1.887   2.952 -0.0396  0.5886  0.5602
11511TIP3    H156024   5.625   1.791   2.954  0.0881  0.5696  0.1362
11511TIP3    H256025   5.635   1.913   3.044 -0.3078  0.2011  0.6863
11512TIP3   OH256026   3.608   3.620   2.743  0.5345  0.1933  0.1950
11512TIP3    H156027   3.580   3.635   2.833  0.5013 -1.5584  0.5064
11512TIP3    H256028   3.530   3.636   2.690 -0.0806 -0.9845  0.7115
11513TIP3   OH256029   5.338   4.510   0.415 -0.1998  0.2823 -0.1913
11513TIP3    H156030   5.263   4.560   0.446 -0.2696  0.0913 -0.0551
11513TIP3    H256031   5.308   4.470   0.333  0.2317  1.4129 -0.9152
11514TIP3   OH256032   2.954   4.535  14.761  0.7869  0.1900  0.4565
11514TIP3    H156033   2.913   4.622  14.763  1.3363  0.4620  0.2081
11514TIP3    H256034   2.981   4.523  14.670 -2.0277 -1.5804 -0.2675
11515TIP3   OH256035   5.538   6.117   5.853  0.0106  0.0456  0.1736
11515TIP3    H156036   5.542   6.057   5.778  1.4996 -0.4840  0.6419
11515TIP3    H256037   5.604   6.083   5.914  0.4730  1.8255  0.7200
11516TIP3   OH256038   1.698   0.319  15.302 -0.6145  0.3855 -0.4866
11516TIP3    H156039   1.744   0.241  15.270  0.1485  0.4221  0.4739
11516TIP3    H256040   1.659   0.291  15.385 -2.8293  0.2030 -1.5325
11517TIP3   OH256041   3.628   5.488   3.826 -0.1668  0.1905 -0.3249
11517TIP3    H156042   3.534   5.479   3.813 -0.6073 -0.6916  2.7336
11517TIP3    H256043   3.664   5.405   3.794 -0.6506 -0.1692  0.0448
11518TIP3   OH256044   4.742   2.907   0.613  0.0834 -0.1113 -0.6617
11518TIP3    H156045   4.733   2.886   0.520 -0.3100 -0.4762 -0.5501
11518TIP3    H256046   4.705   2.830   0.658  0.8371 -0.2099 -0.1949
11519TIP3   OH256047   0.391   1.399   1.492 -0.6625 -0.4051  0.0548
11519TIP3    H156048   0.384   1.488   1.459 -0.9346 -0.1015  0.9102
11519TIP3    H256049   0.332   1.396   1.567  1.4300 -0.4831  1.8005
11520TIP3   OH256050   6.326   1.637  14.950  0.1634  0.1132 -0.2885
11520TIP3    H156051   6.383   1.564  14.925 -1.9074 -0.7546 -2.9821
11520TIP3    H256052   6.367   1.713  14.910  0.8270 -0.0462  0.0762
11521TIP3   OH256053   3.192   6.925  15.346 -0.1260  0.4491 -0.0712
11521TIP3    H156054   3.244   6.846  15.360  1.8553  1.3036 -2.0292
11521TIP3    H256055   3.107   6.904  15.384  1.3734 -1.2738  2.6785
11522TIP3   OH256056   4.430   1.870   0.037  0.1778  0.6484 -0.1087
11522TIP3    H156057   4.389   1.805  -0.020 -2.3470  1.9690  0.0416
11522TIP3    H256058   4.476   1.929  -0.023 -0.8639  0.9439 -0.6378
11523TIP3   OH256059   3.854   5.823   1.946  1.1126 -0.1804 -0.4582
11523TIP3    H156060   3.787   5.757   1.927  0.5798  0.5893 -1.3574
11523TIP3    H256061   3.825   5.864   2.028  1.4116 -0.9874  0.0691
11524TIP3   OH256062   3.275   4.913  15.002  0.6698 -0.5752 -0.4497
11524TIP3    H156063   3.206   4.976  15.026  3.3329  1.6240  2.1831
11524TIP3    H256064   3.244   4.829  15.036 -1.5680 -0.1264 -1.2107
11525TIP3   OH256065   5.426   1.917  12.893  0.3235 -0.3367  0.2934
11525TIP3    H156066   5.456   1.827  12.883  1.7762  0.1768 -0.2906
11525TIP3    H256067   5.459   1.944  12.979 -2.1346 -1.0603  1.5462
11526TIP3   OH256068   4.343   5.564  15.015 -0.2881  0.5929  0.0257
11526TIP3    H156069   4.266   5.525  14.972  0.1054 -0.1582 -0.0209
11526TIP3    H256070   4.409   5.495  15.011  0.2184  1.0436  0.5488
11527TIP3   OH256071   4.444   1.643  14.101  0.1201  0.6652 -0.7193
11527TIP3    H156072   4.402   1.585  14.164 -0.6337  1.4611 -0.4749
11527TIP3    H256073   4.525   1.599  14.078 -0.0155 -0.0511  0.1452
11528TIP3   OH256074   3.050   5.855  14.395 -0.2287  0.0002 -0.3557
11528TIP3    H156075   2.973   5.898  14.358 -0.9218 -0.4484  0.5040
11528TIP3    H256076   3.088   5.806  14.323 -0.5913  0.4495 -0.8593
11529TIP3   OH256077   1.768   4.909   0.416 -0.0910  0.2654 -0.3408
11529TIP3    H156078   1.687   4.860   0.428 -0.1627  0.3507 -0.4636
11529TIP3    H256079   1.741   5.001   0.416 -0.0580  0.2814 -0.8157
11530TIP3   OH256080   2.275   0.154   3.672 -0.1604  0.0995  0.8301
11530TIP3    H156081   2.275   0.166   3.577 -1.8364 -1.3826  0.5947
11530TIP3    H256082   2.368   0.152   3.696  0.2983  2.1313 -0.5060
11531TIP3   OH256083   5.633   2.039   1.078 -0.6327  0.3073 -0.0858
11531TIP3    H156084   5.643   2.037   0.983 -0.8431 -1.3907 -0.0981
11531TIP3    H256085   5.601   1.951   1.101 -0.6786  0.7183  1.5416
11532TIP3   OH256086   6.502   1.739   3.512  0.9496 -0.1466  0.8253
11532TIP3    H156087   6.466   1.792   3.584  0.3895 -0.1741  0.5698
11532TIP3    H256088   6.591   1.717   3.541  0.4281 -0.9231  1.9233
11533TIP3   OH256089   6.008   1.446  12.904 -0.2139 -0.3403  0.8801
11533TIP3    H156090   6.001   1.380  12.835  1.1527  2.3482 -2.1059
11533TIP3    H256091   5.917   1.464  12.929 -0.9227 -0.2471 -1.5051
11534TIP3   OH256092   5.572   1.898   2.689  0.3079 -0.4662  0.0298
11534TIP3    H156093   5.604   1.814   2.654 -0.0697 -0.2702 -0.8078
11534TIP3    H256094   5.603   1.899   2.780 -1.3459 -2.4170  0.6869
11535TIP3   OH256095   2.704   1.907   5.451 -0.1696  0.5798  0.0745
11535TIP3    H156096   2.629   1.952   5.490  0.0816  1.2352 -0.1851
11535TIP3    H256097   2.779   1.936   5.503  0.1165  1.1788 -0.6468
11536TIP3   OH256098   3.446   3.710  10.134 -0.0583 -0.6097  0.3010
11536TIP3    H156099   3.502   3.650  10.085  0.2959 -0.1139  0.0867
11536TIP3    H256100   3.364   3.662  10.146  0.1161 -1.0238 -0.1184
11537TIP3   OH256101   3.906   1.524  14.471 -0.5837 -0.1284 -0.2691
11537TIP3    H156102   3.906   1.433  14.440 -1.6252 -0.4535  0.5983
11537TIP3    H256103   3.926   1.517  14.564  0.6721  0.6710 -0.4578
11538TIP3   OH256104   2.236   5.363   3.333 -0.1112  0.4320 -0.2527
11538TIP3    H156105   2.239   5.363   3.429  0.3122 -2.3654 -0.1739
11538TIP3    H256106   2.299   5.430   3.307 -0.5031  1.5105  1.3824
11539TIP3   OH256107   4.183   1.384   3.493  0.1970 -0.2099 -0.0480
11539TIP3    H156108   4.203   1.345   3.578 -0.3694  0.8687  0.5994
11539TIP3    H256109   4.155   1.310   3.440  1.7068 -1.0801  0.3186
11540TIP3   OH256110   6.684   1.566   5.836 -0.2309  0.8045 -0.4780
11540TIP3    H156111   6.679   1.656   5.869 -1.1563 -0.1702  2.2941
11540TIP3    H256112   6.707   1.514   5.912 -1.3276 -1.5368 -1.6428
11541TIP3   OH256113   4.966   6.562   4.005 -0.1574 -0.1655 -0.4000
11541TIP3    H156114   4.900   6.507   4.048 -1.3881  1.7398  0.3022
11541TIP3    H256115   4.918   6.606   3.935  0.4015  1.0833 -0.0286
11542TIP3   OH256116   3.435   5.377   0.620 -0.4633  0.2226 -0.5444
11542TIP3    H156117   3.501   5.316   0.654 -0.6964  0.2702  0.0137
11542TIP3    H256118   3.480   5.425   0.551 -0.7173 -1.6572 -2.1230
11543TIP3   OH256119   6.015   1.956  15.044 -0.9899  0.3185  0.0090
11543TIP3    H156120   6.094   1.934  15.095 -2.6803 -0.7662  2.3664
11543TIP3    H256121   6.018   2.051  15.036  1.8368  0.1995 -2.3471
11544TIP3   OH256122   4.872   3.624   3.903 -0.0695  0.2501 -0.4740
11544TIP3    H156123   4.830   3.552   3.949  1.7144 -0.7564 -0.3448
11544TIP3    H256124   4.802   3.664   3.852 -1.2843 -0.9992  0.1599
11545TIP3   OH256125   4.633   1.288  13.269 -0.1773 -0.5986  0.2008
11545TIP3    H156126   4.634   1.193  13.256 -0.8478 -0.7036  0.8528
11545TIP3    H256127   4.594   1.323  13.188 -0.8631 -0.9608  0.3658
11546TIP3   OH256128   4.307   5.835   0.859  0.8880  0.2194 -0.7511
11546TIP3    H156129   4.395   5.872   0.851  1.2222 -0.2420  0.5091
11546TIP3    H256130   4.264   5.890   0.925  0.5893 -0.2053 -0.5881
11547TIP3   OH256131   5.494   3.550   2.659 -0.6767 -0.2028 -0.1411
11547TIP3    H156132   5.562   3.491   2.628 -1.7062 -1.2208 -0.5626
11547TIP3    H256133   5.448   3.500   2.727 -0.6452  0.6816  0.5517
11548TIP3   OH256134   4.878   1.578   0.022  0.1137 -0.1259 -0.5715
11548TIP3    H156135   4.859   1.571  -0.072  0.3854  1.9046 -0.8281
11548TIP3    H256136   4.911   1.668   0.033  0.8695 -0.5840  1.3371
11549TIP3   OH256137   7.063   4.168   2.124  0.0831 -0.4448  0.0813
11549TIP3    H156138   7.074   4.087   2.075  1.5720 -1.2431  1.6299
11549TIP3    H256139   6.991   4.150   2.184 -0.4187 -0.1595 -0.4241
11550TIP3   OH256140   6.636   6.444  13.174  0.1076 -0.1199  0.6809
11550TIP3    H156141   6.704   6.503  13.208 -0.7443  2.2789 -1.3997
11550TIP3    H256142   6.565   6.450  13.237 -0.2706  1.8266  0.1582
11551TIP3   OH256143   1.656   4.165   4.366 -0.1471  0.7023 -0.0684
11551TIP3    H156144   1.672   4.172   4.460  1.4665  4.5970 -0.4537
11551TIP3    H256145   1.567   4.198   4.354  0.8061  3.4849 -0.0931
11552TIP3   OH256146   3.088   2.471  15.294  0.3556  0.1359  0.5896
11552TIP3    H156147   3.158   2.467  15.360  1.1204 -0.8549 -0.2524
11552TIP3    H256148   3.108   2.400  15.233 -0.7068  0.6152 -0.3550
11553TIP3   OH256149   2.648   5.662   3.219  0.1361 -0.3294  0.1303
11553TIP3    H156150   2.617   5.681   3.130  1.9950 -1.6297 -0.8870
11553TIP3    H256151   2.659   5.749   3.259  0.1447  0.3482 -1.2515
11554TIP3   OH256152   4.093   2.070   1.136  0.0457 -0.5871 -0.0065
11554TIP3    H156153   4.130   2.157   1.151  0.7082 -0.8796  0.0692
11554TIP3    H256154   4.004   2.076   1.170 -0.1355  0.2496 -0.5848
11555TIP3   OH256155   1.713   0.353   2.564  0.0215 -0.1462 -0.0578
11555TIP3    H156156   1.625   0.391   2.563  0.3195  0.5750 -1.2617
11555TIP3    H256157   1.715   0.294   2.489  0.1479 -1.1885  0.7547
11556TIP3   OH256158   6.910   5.336  14.115 -0.2723  0.0224 -0.6752
11556TIP3    H156159   6.862   5.417  14.100  0.2602  0.4345 -0.1638
11556TIP3    H256160   6.878   5.304  14.200 -0.3443 -0.2074 -0.7873
11557TIP3   OH256161   4.376   5.439   4.596  0.1751  0.2296 -0.0205
11557TIP3    H156162   4.419   5.355   4.615 -1.4650 -0.6778 -0.1318
11557TIP3    H256163   4.396   5.455   4.503 -1.2358 -1.1618 -0.6156
11558TIP3   OH256164   2.045   2.608   1.257  0.3453 -0.2782  0.7840
11558TIP3    H156165   2.129   2.562   1.252  0.3182 -0.1808 -0.9755
11558TIP3    H256166   1.985   2.545   1.297  0.6246 -1.3183 -0.3926
11559TIP3   OH256167   1.235   2.611  13.927 -0.3541  0.0280 -0.3356
11559TIP3    H156168   1.162   2.568  13.973 -0.6537  0.0062 -0.8261
11559TIP3    H256169   1.198   2.693  13.895  0.2608  0.7409  0.7295
11560TIP3   OH256170   2.335   1.734   1.271 -0.6277  0.3101 -0.1397
11560TIP3    H156171   2.396   1.758   1.201  1.0810 -0.3394  1.0523
11560TIP3    H256172   2.388   1.737   1.351 -2.2339 -0.0599  0.9826
11561TIP3   OH256173   1.250   6.029   5.013  0.3186  0.5160  0.2910
11561TIP3    H156174   1.274   5.955   4.957  0.3547  1.5068 -1.0580
11561TIP3    H256175   1.329   6.046   5.065  0.4915 -0.0493  0.2155
11562TIP3   OH256176   6.434   2.307   3.274 -0.0767 -0.2783  0.3527
11562TIP3    H156177   6.428   2.283   3.367 -1.5200  1.6094  0.8211
11562TIP3    H256178   6.375   2.382   3.265  1.0600  0.4507 -1.8091
11563TIP3   OH256179   6.105   5.513   4.740 -0.7092 -0.9020 -0.0210
11563TIP3    H156180   6.122   5.592   4.791 -2.7062 -0.4327 -0.0126
11563TIP3    H256181   6.103   5.442   4.804 -2.3171 -0.4392  0.4755
11564TIP3   OH256182   1.888   4.065   2.582  0.2220 -0.2499  0.3601
11564TIP3    H156183   1.828   4.067   2.508 -0.2322  1.4689  0.7196
11564TIP3    H256184   1.949   3.995   2.562 -2.1614 -2.4286  0.2218
11565TIP3   OH256185   0.686   3.510   1.757 -0.6457 -0.3123  0.3074
11565TIP3    H156186   0.647   3.506   1.845 -2.4381  1.9493 -0.2836
11565TIP3    H256187   0.705   3.602   1.743  0.3124 -0.7264 -1.4281
11566TIP3   OH256188   1.559   6.363  13.269  0.6318  0.0069 -0.1045
11566TIP3    H156189   1.521   6.328  13.188  0.7002  1.9769 -1.0561
11566TIP3    H256190   1.485   6.374  13.328  0.4529 -0.6471 -0.2010
11567TIP3   OH256191   5.036   1.924  13.756  0.5948 -0.1246 -0.1251
11567TIP3    H156192   5.039   2.019  13.745  0.6337 -0.1810 -0.6037
11567TIP3    H256193   5.109   1.891  13.704  0.0033 -0.4867 -0.7532
11568TIP3   OH256194   5.928   6.763   3.766  0.3032 -0.1274  0.3510
11568TIP3    H156195   5.861   6.782   3.831 -0.5303  2.1955 -1.0743
11568TIP3    H256196   6.009   6.801   3.801  0.2291 -0.3490  0.7596
11569TIP3   OH256197   3.429   1.565   0.146  0.2093  0.2998  0.1409
11569TIP3    H156198   3.359   1.631   0.150  0.9421  1.0465  3.4998
11569TIP3    H256199   3.500   1.602   0.198  1.2970 -2.4661  0.8040
11570TIP3   OH256200   3.808   1.083   4.745 -0.3626  0.2395  0.3446
11570TIP3    H156201   3.795   1.006   4.800  0.4016  0.7478  1.2547
11570TIP3    H256202   3.765   1.060   4.662 -1.0020 -0.7694  0.9308
11571TIP3   OH256203   0.150   0.620   9.632  0.3895  0.2304 -0.5862
11571TIP3    H156204   0.196   0.623   9.548  0.0155  0.3123 -0.7915
11571TIP3    H256205   0.067   0.666   9.616  0.1597 -0.0670 -0.2711
11572TIP3   OH256206   5.217   5.946   0.087  0.3419  0.3984 -0.3237
11572TIP3    H156207   5.194   5.939  -0.006  1.9529  0.7250 -0.7815
11572TIP3    H256208   5.285   6.014   0.089  1.4730 -0.7271  0.8713
11573TIP3   OH256209   4.361   2.384   3.853  0.8064  0.3023 -0.1971
11573TIP3    H156210   4.345   2.477   3.868  0.3724  0.0784  0.8402
11573TIP3    H256211   4.335   2.342   3.935 -1.6751 -1.0491 -1.5526
11574TIP3   OH256212   4.966   5.493  10.231 -0.1830  0.7131  0.3212
11574TIP3    H156213   4.945   5.409  10.273  2.6325  0.1400  0.8185
11574TIP3    H256214   4.962   5.475  10.137 -0.4749  0.2726  0.4151
11575TIP3   OH256215   1.724   3.376   0.518  0.4578  0.4245  0.3699
11575TIP3    H156216   1.632   3.358   0.538  0.6599 -2.1307 -0.5706
11575TIP3    H256217   1.736   3.343   0.429  2.5315 -0.3156  0.8554
11576TIP3   OH256218   1.338   2.390  11.590  0.1009 -0.0345  1.1248
11576TIP3    H156219   1.335   2.382  11.685 -0.3158 -0.3080  1.0923
11576TIP3    H256220   1.247   2.380  11.562  0.2552 -0.2180  0.6760
11577TIP3   OH256221   3.924   2.883   0.394 -0.2553 -0.1296  0.1855
11577TIP3    H156222   4.011   2.898   0.358 -1.0688 -0.3224 -2.0034
11577TIP3    H256223   3.919   2.789   0.409 -0.7941 -0.4546 -1.7870
11578TIP3   OH256224   4.792   6.666  14.042  0.2259  0.4383  0.5922
11578TIP3    H156225   4.787   6.738  14.105  2.0548  0.2967  0.9362
11578TIP3    H256226   4.700   6.642  14.028 -0.2690 -0.3372  4.1053
11579TIP3   OH256227   1.891   7.003   1.159  0.2226 -0.5273 -0.2858
11579TIP3    H156228   1.977   7.006   1.116  1.1559  1.4104  1.5039
11579TIP3    H256229   1.901   6.938   1.229  0.8623  0.8772  0.9924
11580TIP3   OH256230   4.676   4.866   0.815  0.6365  0.2262 -0.0280
11580TIP3    H156231   4.623   4.790   0.838  1.8043 -0.3606  0.8145
11580TIP3    H256232   4.614   4.939   0.814 -0.3740 -0.6079 -0.1630
11581TIP3   OH256233   3.817   4.669   3.016  0.7061  0.0098 -0.6110
11581TIP3    H156234   3.778   4.635   2.935  0.6491  1.1632 -1.0887
11581TIP3    H256235   3.774   4.754   3.029  1.8112  0.5226 -0.1963
11582TIP3   OH256236   5.701   5.372   1.844  0.0111 -0.4917 -0.4372
11582TIP3    H156237   5.783   5.413   1.816  0.2076  0.1792  1.0199
11582TIP3    H256238   5.729   5.297   1.897 -0.2507  0.5344  1.2279
11583TIP3   OH256239   6.606   0.018  14.554 -0.2315 -0.2715  0.1200
11583TIP3    H156240   6.591  -0.044  14.624 -1.3687  1.0971  1.1433
11583TIP3    H256241   6.651   0.092  14.596  0.9032 -0.2602 -1.0150
11584TIP3   OH256242   6.646   0.847   4.867 -0.9650 -0.2231  0.1799
11584TIP3    H156243   6.585   0.827   4.938 -0.0968  0.9089  1.2927
11584TIP3    H256244   6.695   0.924   4.898 -0.3364  0.1052 -1.5154
11585TIP3   OH256245   1.476   5.088  15.420 -0.0155 -0.4701 -0.4459
11585TIP3    H156246   1.553   5.131  15.382 -0.6191  0.4695 -0.6207
11585TIP3    H256247   1.513   5.027  15.485  0.8213  1.5270  1.0752
11586TIP3   OH256248   1.676   5.621  15.056 -0.0489  0.3999  0.0861
11586TIP3    H156249   1.721   5.570  15.124  0.4094  0.6921  0.0104
11586TIP3    H256250   1.735   5.617  14.981 -0.3894  0.3729 -0.1825
11587TIP3   OH256251   2.197   0.324  13.543  0.3719  0.0365  0.5524
11587TIP3    H156252   2.156   0.247  13.503 -0.6155  0.2814  1.0692
11587TIP3    H256253   2.246   0.364  13.471  0.3311 -0.6933  0.1072
11588TIP3   OH256254   5.942   0.726   0.133 -0.0604 -0.4843 -0.0196
11588TIP3    H156255   5.851   0.758   0.132  0.2791  0.5582  0.8015
11588TIP3    H256256   5.939   0.646   0.185  0.0711  1.5337  3.3425
11589TIP3   OH256257   6.705   1.669  13.979 -0.0582 -0.3023 -0.4836
11589TIP3    H156258   6.682   1.576  13.984 -1.5812  0.0185 -1.0778
11589TIP3    H256259   6.767   1.674  13.907 -0.0759 -0.8377 -0.5414
11590TIP3   OH256260   0.919   5.994   3.256  0.0535 -0.0084 -0.2464
11590TIP3    H156261   0.991   6.039   3.210 -0.9261  2.6282  0.6135
11590TIP3    H256262   0.855   5.977   3.187 -0.0150  0.9396 -0.4356
11591TIP3   OH256263   4.524   0.699  12.903  0.3164 -0.1854 -0.2724
11591TIP3    H156264   4.432   0.694  12.929  0.3485 -1.6062 -0.3369
11591TIP3    H256265   4.554   0.784  12.935 -0.8292 -0.0078  0.3766
11592TIP3   OH256266   5.075   1.751  13.088  1.0707  0.2315 -0.4210
11592TIP3    H156267   5.128   1.735  13.166  2.1425  1.0049 -0.9678
11592TIP3    H256268   5.067   1.666  13.046 -0.8949 -0.5380  1.3348
11593TIP3   OH256269   5.138   3.566   1.646  0.3601 -0.3135  0.0165
11593TIP3    H156270   5.100   3.654   1.651 -0.4592 -0.6649  0.1661
11593TIP3    H256271   5.147   3.550   1.552 -0.7929 -0.6020 -0.0590
11594TIP3   OH256272   4.289   0.559   2.129  0.2735 -0.0070 -0.1156
11594TIP3    H156273   4.234   0.637   2.137 -0.3528 -0.5886  1.9206
11594TIP3    H256274   4.306   0.532   2.220  0.0608 -2.4941 -0.7302
11595TIP3   OH256275   5.422   4.721  12.566 -0.1760  0.4690 -0.6379
11595TIP3    H156276   5.476   4.679  12.499 -1.0419  0.4627 -1.3512
11595TIP3    H256277   5.345   4.753  12.518 -2.0131 -1.6312  0.6762
11596TIP3   OH256278   5.110   4.830   3.793 -0.3359  0.0525  0.2913
11596TIP3    H156279   5.117   4.753   3.736  0.1661  0.8047 -0.6912
11596TIP3    H256280   5.197   4.839   3.832 -0.3530  0.2032  0.2956
11597TIP3   OH256281   5.293   0.639  12.572 -0.5775  0.1095  0.0721
11597TIP3    H156282   5.271   0.730  12.594  0.9256  0.2097  1.2730
11597TIP3    H256283   5.370   0.619  12.624 -0.5547 -1.7047 -0.5805
11598TIP3   OH256284   3.017   6.102  14.124 -0.8480 -0.2589 -0.1983
11598TIP3    H156285   3.104   6.102  14.084 -1.1696 -1.5554 -0.9764
11598TIP3    H256286   2.995   6.194  14.135 -0.1163  0.1177 -1.6542
11599TIP3   OH256287   0.328   0.357  11.042  0.2550  0.1806 -0.1012
11599TIP3    H156288   0.243   0.332  11.078 -0.3054  0.9375 -0.8619
11599TIP3    H256289   0.368   0.409  11.111  0.7701 -1.4190  0.8672
11600TIP3   OH256290   4.069   0.857  10.528 -0.1846 -0.2942 -0.4884
11600TIP3    H156291   4.136   0.915  10.493 -0.4941  0.6833  0.4864
11600TIP3    H256292   4.092   0.770  10.494  1.5673  0.0102 -0.1716
11601TIP3   OH256293   0.449   6.620  13.377 -0.3151 -0.1137  0.3452
11601TIP3    H156294   0.493   6.676  13.441 -1.3102  0.3990  0.6055
11601TIP3    H256295   0.398   6.559  13.430 -2.8663  1.6757  0.1377
11602TIP3   OH256296   3.340   5.870   1.964  0.0986 -0.7666  0.5945
11602TIP3    H156297   3.369   5.788   2.005  1.1615 -1.1046 -0.7241
11602TIP3    H256298   3.417   5.926   1.965 -0.0238 -0.5579 -0.3164
11603TIP3   OH256299   1.276   3.956  14.437  0.0057 -0.0981 -0.3901
11603TIP3    H156300   1.326   4.023  14.389 -0.3950 -0.5192 -1.4198
11603TIP3    H256301   1.316   3.873  14.410  1.0128 -0.2893  1.4670
11604TIP3   OH256302   0.785   5.281   9.636  0.6163 -0.0830  0.1199
11604TIP3    H156303   0.708   5.279   9.579  1.5410  1.4050 -1.2637
11604TIP3    H256304   0.787   5.371   9.668  2.6881  0.3975 -1.2104
11605TIP3   OH256305   3.001   5.059  14.210  0.0318 -0.0136  0.2195
11605TIP3    H156306   2.988   4.965  14.199  2.3238 -0.3717 -0.0999
11605TIP3    H256307   2.991   5.073  14.305 -0.3153 -0.5822  0.2717
11606TIP3   OH256308   4.629   1.914   0.415 -0.2060 -0.5536  0.1801
11606TIP3    H156309   4.698   1.864   0.458 -0.3602  0.1291  1.2687
11606TIP3    H256310   4.566   1.933   0.484 -1.6186 -1.3339 -0.8237
11607TIP3   OH256311   0.903   1.770   1.181 -0.2910 -0.3679 -0.2138
11607TIP3    H156312   0.983   1.793   1.133 -0.3135  0.0305 -0.0668
11607TIP3    H256313   0.834   1.775   1.115 -0.2994  0.0252 -0.1778
11608TIP3   OH256314   5.061   2.208  13.493 -0.0970 -0.6810 -0.0940
11608TIP3    H156315   5.022   2.268  13.556 -0.9106  0.7800 -1.8842
11608TIP3    H256316   5.116   2.265  13.438  0.4034 -1.8540 -0.8383
11609TIP3   OH256317   4.808   5.255   3.271 -0.0773  0.1885 -0.2461
11609TIP3    H156318   4.789   5.177   3.324  1.1638  0.7346  1.0535
11609TIP3    H256319   4.871   5.224   3.206  0.5772  0.1380  0.3992
11610TIP3   OH256320   3.693   1.801   0.326  0.4001  0.2189 -0.5781
11610TIP3    H156321   3.637   1.865   0.282 -0.6205  0.4364  0.9742
11610TIP3    H256322   3.639   1.767   0.397  0.9904 -2.2194 -1.1959
11611TIP3   OH256323   0.286   4.550  10.575  0.2426 -0.4028 -0.6726
11611TIP3    H156324   0.370   4.596  10.579  0.3009 -0.6020  0.6392
11611TIP3    H256325   0.305   4.473  10.522  1.3881 -1.4061  1.0891
11612TIP3   OH256326   1.780   3.328   4.647  0.0406 -0.3440  0.1661
11612TIP3    H156327   1.865   3.288   4.627  0.1151  0.0686 -0.3585
11612TIP3    H256328   1.785   3.416   4.609 -0.5485 -0.2466  0.3065
11613TIP3   OH256329   4.800   4.058   4.673  0.0257  0.2037 -0.1066
11613TIP3    H156330   4.834   4.101   4.595 -1.0136 -1.3598 -1.4876
11613TIP3    H256331   4.749   4.126   4.718  0.1859  0.9853 -1.0818
11614TIP3   OH256332   6.938   0.797   3.430 -0.3355 -0.0697  0.0499
11614TIP3    H156333   6.873   0.831   3.492  1.1312  2.4959  0.2999
11614TIP3    H256334   6.886   0.774   3.352 -1.7542  0.2547  0.8587
11615TIP3   OH256335   5.206   4.862  12.464 -0.3440  0.0090  0.1896
11615TIP3    H156336   5.115   4.878  12.490 -0.1222  0.9775  0.3947
11615TIP3    H256337   5.204   4.865  12.368 -0.0934  2.7606  0.2034
11616TIP3   OH256338   6.405   3.451   2.487 -0.2750  0.5775 -0.6431
11616TIP3    H156339   6.463   3.447   2.562 -1.1283  0.4005  0.0224
11616TIP3    H256340   6.321   3.417   2.519 -0.4599 -0.2026 -1.8577
11617TIP3   OH256341   6.453   3.075  12.761  0.2088  0.0989 -0.0316
11617TIP3    H156342   6.454   2.986  12.726  0.4513  0.0157  0.1879
11617TIP3    H256343   6.413   3.066  12.848 -0.3254  0.2954 -0.2522
11618TIP3   OH256344   4.940   6.875   3.896 -0.2152  0.0219 -0.4441
11618TIP3    H156345   5.028   6.898   3.867 -0.0103 -0.5748 -0.3134
11618TIP3    H256346   4.895   6.847   3.817  0.3415 -1.6034 -0.2230
11619TIP3   OH256347   3.412   5.711  14.041 -0.2416  0.4544  0.5255
11619TIP3    H156348   3.437   5.780  14.103 -0.4505 -1.0034  2.3114
11619TIP3    H256349   3.486   5.651  14.042 -0.1927  0.4597 -0.7862
11620TIP3   OH256350   1.757   2.192   4.466 -0.0593  0.5528 -0.3998
11620TIP3    H156351   1.812   2.186   4.388 -1.0381 -3.3642 -0.9890
11620TIP3    H256352   1.672   2.161   4.438 -1.2855  1.8241  1.6372
11621TIP3   OH256353   1.738   6.798   2.157  0.0986 -0.2044 -0.7105
11621TIP3    H156354   1.656   6.847   2.148  0.0816 -0.4255 -1.8727
11621TIP3    H256355   1.751   6.790   2.252 -1.4303 -0.5076 -0.5005
11622TIP3   OH256356   6.705   0.667   0.173  0.4528  0.1060 -0.0142
11622TIP3    H156357   6.746   0.653   0.088  0.4334 -0.5210  0.0754
11622TIP3    H256358   6.622   0.619   0.167  0.5594 -0.1339  0.4423
11623TIP3   OH256359   0.814   3.207  11.467 -0.4835  0.2422 -0.5673
11623TIP3    H156360   0.771   3.241  11.545  0.1102 -2.5126  1.0927
11623TIP3    H256361   0.848   3.121  11.494  1.3133 -0.0391 -3.3512
11624TIP3   OH256362   6.423   1.580  12.179 -0.3159  0.1972  1.0085
11624TIP3    H156363   6.396   1.612  12.265 -0.8605  1.8078  0.2896
11624TIP3    H256364   6.348   1.600  12.122  0.5005  0.2696 -0.0663
11625TIP3   OH256365   0.027   1.214  13.999 -0.4324  0.9311 -0.9186
11625TIP3    H156366   0.005   1.294  14.048 -3.6039 -1.2454  1.6510
11625TIP3    H256367  -0.031   1.216  13.923 -3.1396 -0.2885  0.9154
11626TIP3   OH256368   6.824   0.846   5.742 -0.0842  0.3474  0.6884
11626TIP3    H156369   6.750   0.872   5.798 -0.8688 -0.8413  0.2488
11626TIP3    H256370   6.839   0.753   5.764  1.7260  0.7249  1.2399
11627TIP3   OH256371   6.057   6.594  10.683 -0.0525  0.6481  0.0306
11627TIP3    H156372   6.026   6.683  10.669  3.0744  2.0668  1.0879
11627TIP3    H256373   6.138   6.588  10.633 -0.8269 -2.1592 -1.1257
11628TIP3   OH256374   2.939   0.759  12.113 -0.6922  0.1608 -0.6570
11628TIP3    H156375   2.916   0.777  12.205 -0.5205 -1.1249 -0.3384
11628TIP3    H256376   2.983   0.674  12.116 -1.1918 -0.1723 -2.0062
11629TIP3   OH256377   3.005   4.745  15.080  0.0231 -0.3265  0.3516
11629TIP3    H156378   3.025   4.781  15.166 -2.7673 -0.5574  1.2125
11629TIP3    H256379   3.080   4.690  15.059  0.3988 -0.9908  3.0520
11630TIP3   OH256380   6.457   2.659  12.415  0.5260 -0.1832 -0.0341
11630TIP3    H156381   6.552   2.661  12.398  0.7150  1.8373  0.9030
11630TIP3    H256382   6.418   2.694  12.335  0.6803  0.1794  0.0459
11631TIP3   OH256383   6.624   3.798  12.706  0.3528  0.7955 -0.7602
11631TIP3    H156384   6.553   3.844  12.660  0.3192 -0.2855 -1.8180
11631TIP3    H256385   6.597   3.800  12.798 -1.5482 -0.3733 -1.2259
11632TIP3   OH256386   1.426   7.080  15.264 -0.2772 -0.1071  0.1502
11632TIP3    H156387   1.377   7.026  15.202  0.2491  0.3349 -0.6628
11632TIP3    H256388   1.366   7.150  15.288  0.6446  1.8282 -2.6795
11633TIP3   OH256389   0.719   1.265  12.132  0.0292  1.0846 -0.9503
11633TIP3    H156390   0.750   1.294  12.046 -0.6443  2.7817 -0.6455
11633TIP3    H256391   0.638   1.315  12.146 -0.0010  0.6378  0.5772
11634TIP3   OH256392   0.877   1.165  11.661 -0.6024  0.0110 -0.2578
11634TIP3    H156393   0.960   1.191  11.700  0.2366 -1.0546 -1.2827
11634TIP3    H256394   0.858   1.233  11.597  0.0614 -0.3279 -0.8220
11635TIP3   OH256395   2.168   4.829   0.685  0.3336  0.4569 -0.2069
11635TIP3    H156396   2.143   4.903   0.742 -0.2073 -0.1177  0.3140
11635TIP3    H256397   2.200   4.762   0.746  1.3241  0.4485 -0.7173
11636TIP3   OH256398   6.556   4.699   2.046 -0.0064 -0.3953 -0.1082
11636TIP3    H156399   6.569   4.756   1.970 -2.6779 -0.1152 -0.4259
11636TIP3    H256400   6.630   4.720   2.104  3.1299 -1.7841 -3.1802
11637TIP3   OH256401   2.988   0.406   1.017  0.2198 -0.1180  0.3874
11637TIP3    H156402   3.053   0.423   0.949 -2.0945 -1.4048 -2.3883
11637TIP3    H256403   2.951   0.492   1.037  0.8841  0.2732 -0.0220
11638TIP3   OH256404   6.048   3.822   2.540  0.1483 -0.0014  0.1730
11638TIP3    H156405   6.002   3.849   2.461  1.4872 -2.7013 -1.7171
11638TIP3    H256406   6.141   3.832   2.518  0.5898  2.1286  2.6285
11639TIP3   OH256407   2.863   3.425  14.636 -0.5559  0.2617  0.0994
11639TIP3    H156408   2.810   3.488  14.686 -0.4104 -0.4807  1.2358
11639TIP3    H256409   2.826   3.340  14.658 -0.4704 -0.0940 -1.0749
11640TIP3   OH256410   1.194   6.159  12.783 -0.4125  0.0057 -0.2619
11640TIP3    H156411   1.152   6.245  12.791  2.2877  1.3835  0.2615
11640TIP3    H256412   1.178   6.133  12.692 -2.7809  0.1541  0.0489
11641TIP3   OH256413   2.657   5.646   5.019  0.2001  0.7153 -0.1375
11641TIP3    H156414   2.653   5.649   5.115 -0.9507 -0.0926 -0.1412
11641TIP3    H256415   2.567   5.665   4.991  0.3458  0.1365 -1.0237
11642TIP3   OH256416   5.102   0.006   3.795  0.2542  0.2526  0.1057
11642TIP3    H156417   5.122   0.012   3.888 -1.3934  0.1690  0.4933
11642TIP3    H256418   5.114  -0.087   3.775 -0.6845  0.0164  0.5719
11643TIP3   OH256419   0.160   5.378  12.576 -0.0620 -0.4264  0.5364
11643TIP3    H156420   0.158   5.469  12.605 -1.5961  0.2811 -1.4857
11643TIP3    H256421   0.171   5.384  12.481  1.7128 -2.4477  0.5443
11644TIP3   OH256422   7.171   2.452  14.607 -0.2639 -0.9374  0.6568
11644TIP3    H156423   7.215   2.444  14.692 -0.3405  0.3013  0.8230
11644TIP3    H256424   7.111   2.526  14.618 -1.0102 -1.4023 -0.1691
11645TIP3   OH256425   3.590   0.603  14.793 -0.0939 -0.0611 -0.4973
11645TIP3    H156426   3.500   0.597  14.826 -0.5574 -2.6740 -1.9432
11645TIP3    H256427   3.644   0.601  14.872 -1.2431 -2.9808  0.3683
11646TIP3   OH256428   4.408   1.082   3.085 -0.2248 -0.0503  0.2316
11646TIP3    H156429   4.503   1.072   3.078 -0.1337  1.0943 -0.3335
11646TIP3    H256430   4.392   1.094   3.179  0.3608  1.2189  0.1887
11647TIP3   OH256431   2.611   7.091   5.187  0.1067 -0.7054  0.1413
11647TIP3    H156432   2.524   7.092   5.227 -0.4885  1.7386 -1.0209
11647TIP3    H256433   2.671   7.093   5.262 -0.7629 -2.7026  0.9682
11648TIP3   OH256434   0.539   3.487  12.936  0.2334  0.0334 -0.3542
11648TIP3    H156435   0.522   3.410  12.991  0.6906  0.9569  1.1633
11648TIP3    H256436   0.577   3.452  12.856 -0.6367 -1.3918 -0.1836
11649TIP3   OH256437   2.412   2.787   1.877 -0.7673 -0.1434  0.6041
11649TIP3    H156438   2.332   2.742   1.849  0.7346 -2.3682 -0.4112
11649TIP3    H256439   2.436   2.743   1.958 -1.5022  1.8005  1.9617
11650TIP3   OH256440   6.002   1.296  13.934  0.3043  0.7735  0.4216
11650TIP3    H156441   5.917   1.340  13.927  0.7736  1.6562  0.1305
11650TIP3    H256442   6.028   1.280  13.844  0.0719 -0.2614  0.5272
11651TIP3   OH256443   4.706   2.664   4.077  0.3496 -0.4819  0.1325
11651TIP3    H156444   4.655   2.586   4.054 -0.0184  0.1171 -1.2129
11651TIP3    H256445   4.707   2.665   4.172 -3.2800  0.1531  0.3042
11652TIP3   OH256446   7.052   6.499   4.547 -0.7284 -0.1455  0.4227
11652TIP3    H156447   7.035   6.592   4.559  1.4710  0.3030  0.3851
11652TIP3    H256448   7.033   6.460   4.632 -0.5776  0.5061  0.7585
11653TIP3   OH256449   5.444   3.542   1.040  0.0650 -0.1403 -0.0380
11653TIP3    H156450   5.421   3.479   1.109  0.4466 -1.4776 -1.0764
11653TIP3    H256451   5.522   3.586   1.072  0.5252 -1.0961  0.1877
11654TIP3   OH256452   0.558   1.694  10.593 -0.3097  0.2093 -0.1301
11654TIP3    H156453   0.508   1.646  10.659 -0.7260  1.2591  0.3521
11654TIP3    H256454   0.491   1.741  10.542 -0.1141 -1.6536 -2.2293
11655TIP3   OH256455   6.914   6.467  14.323 -0.2948  0.0837  0.4858
11655TIP3    H156456   6.834   6.474  14.375 -0.5455 -2.9272  0.7193
11655TIP3    H256457   6.903   6.531  14.253 -3.1533 -0.4996  0.2731
11656TIP3   OH256458   3.688   7.091  10.145  0.4918 -0.1940 -0.2440
11656TIP3    H156459   3.728   7.014  10.185  0.5625 -1.0553 -1.9146
11656TIP3    H256460   3.741   7.109  10.068  1.0600  2.1384  0.5974
11657TIP3   OH256461   1.970   0.114   4.528  0.0016  0.2332  0.0388
11657TIP3    H156462   1.979   0.062   4.607 -0.8365 -0.3145 -0.2133
11657TIP3    H256463   1.964   0.204   4.560  0.7319  0.1163  0.5220
11658TIP3   OH256464   4.562   4.378  15.224 -1.0488  0.4220  0.2040
11658TIP3    H156465   4.651   4.402  15.249  0.3892 -2.2473 -1.9247
11658TIP3    H256466   4.559   4.391  15.129 -3.0115  0.5678  0.2391
11659TIP3   OH256467   1.783   3.269   3.633  0.3791 -0.0382  0.7625
11659TIP3    H156468   1.873   3.281   3.662  0.3739 -0.8984  1.1634
11659TIP3    H256469   1.745   3.208   3.696  0.4352 -2.1547 -1.1167
11660TIP3   OH256470   5.152   1.861  14.661  0.2376  0.7778 -0.1757
11660TIP3    H156471   5.150   1.877  14.756  0.3251 -0.8614  0.1366
11660TIP3    H256472   5.061   1.841  14.638  0.4683 -0.4380 -0.1027
11661TIP3   OH256473   6.596   1.954  12.271  0.0371 -0.3998  0.4472
11661TIP3    H156474   6.534   2.016  12.233 -0.7694 -0.2635  1.9120
11661TIP3    H256475   6.614   1.892  12.201 -2.7208 -1.1626  0.3115
11662TIP3   OH256476   1.574   1.288  11.293  0.1615  0.0129 -0.0958
11662TIP3    H156477   1.625   1.267  11.214  0.5926 -0.8185  0.3876
11662TIP3    H256478   1.483   1.279  11.265  0.2876 -2.4382 -0.0030
11663TIP3   OH256479   3.682   2.377   1.938  0.1605 -0.1188 -0.0538
11663TIP3    H156480   3.741   2.323   1.990 -0.2167 -0.6153 -0.1355
11663TIP3    H256481   3.734   2.402   1.861  1.1793  1.7400  1.1624
11664TIP3   OH256482   4.891   4.531   1.534  0.3559 -0.7261  0.0523
11664TIP3    H156483   4.971   4.480   1.522 -0.3911 -1.8184 -0.5388
11664TIP3    H256484   4.897   4.601   1.469  0.4372 -1.3337 -0.6097
11665TIP3   OH256485   6.881   1.530   5.597  0.0659  0.0240  0.4443
11665TIP3    H156486   6.940   1.595   5.560 -1.5639  0.4090 -1.6585
11665TIP3    H256487   6.807   1.581   5.631  0.1808 -0.5412  1.5841
11666TIP3   OH256488   5.332   2.905   3.221 -0.8070 -0.3954 -0.2969
11666TIP3    H156489   5.267   2.913   3.291 -0.6810 -0.1757 -0.2032
11666TIP3    H256490   5.292   2.947   3.145  0.7481  3.4645  0.7799
11667TIP3   OH256491   5.388   1.516   1.869 -0.0136 -0.4611  0.2972
11667TIP3    H156492   5.455   1.457   1.834  0.7102  1.0773 -1.0153
11667TIP3    H256493   5.326   1.526   1.797  0.5420  1.3300  0.0168
11668TIP3   OH256494   2.889   1.121   4.616 -0.2236  0.0521 -0.2951
11668TIP3    H156495   2.862   1.197   4.667 -0.8812 -0.0617 -0.4675
11668TIP3    H256496   2.868   1.045   4.671 -0.4059 -0.0457 -0.4983
11669TIP3   OH256497   1.299   1.874  10.406 -0.1027 -0.1438 -0.4313
11669TIP3    H156498   1.334   1.924  10.333 -1.0774  1.3460  0.0910
11669TIP3    H256499   1.374   1.864  10.465  0.5563 -0.9121 -1.3645
11670TIP3   OH256500   4.754   5.769  13.593  0.0297 -0.2407 -0.0205
11670TIP3    H156501   4.786   5.755  13.682 -2.5110  3.0122  1.5999
11670TIP3    H256502   4.790   5.854  13.568 -1.5288  0.1802 -0.9449
11671TIP3   OH256503   0.996   1.203   4.086 -0.2872  0.4820  0.0682
11671TIP3    H156504   0.904   1.215   4.110 -0.6086  2.1365 -1.7451
11671TIP3    H256505   1.021   1.122   4.130 -2.4780  0.2015  0.9611
11672TIP3   OH256506   1.753   3.875   4.678  0.3025  0.1996 -0.0132
11672TIP3    H156507   1.752   3.848   4.769 -0.5214 -1.5320 -0.4845
11672TIP3    H256508   1.705   3.957   4.676  0.3286  0.2483  1.0977
11673TIP3   OH256509   0.754   1.636   3.354  0.1986  0.0768 -0.3004
11673TIP3    H156510   0.836   1.603   3.390  0.3671  0.8090  0.0111
11673TIP3    H256511   0.718   1.562   3.304  0.3895 -0.6737  0.6511
11674TIP3   OH256512   5.313   3.782  14.273  0.6243 -0.2687  0.3290
11674TIP3    H156513   5.392   3.782  14.328 -0.2722 -2.8077  1.7953
11674TIP3    H256514   5.317   3.865  14.225  2.5566  1.1546  2.6918
11675TIP3   OH256515   0.793   0.012   1.770 -0.0204 -0.2513  0.0929
11675TIP3    H156516   0.703   0.040   1.750 -0.0436 -0.2529  0.1972
11675TIP3    H256517   0.842   0.030   1.690  0.0416  0.4080  0.2784
11676TIP3   OH256518   6.460   4.829   4.076 -0.1793  0.5885  0.0586
11676TIP3    H156519   6.372   4.839   4.040 -0.7349  0.3198  1.2553
11676TIP3    H256520   6.471   4.734   4.085 -0.4019  0.6559  1.3108
11677TIP3   OH256521   2.807   1.406   4.674 -0.2515 -0.4945  0.4626
11677TIP3    H156522   2.712   1.409   4.669 -0.2253  1.8379  0.1414
11677TIP3    H256523   2.827   1.441   4.761  0.3018  1.4260 -0.3719
11678TIP3   OH256524   7.031   2.722  14.588  0.6189  0.1721  0.0372
11678TIP3    H156525   6.985   2.744  14.669 -0.2475  0.1413 -0.4316
11678TIP3    H256526   7.028   2.802  14.536 -2.8820 -0.9502 -1.8356
11679TIP3   OH256527   0.887   6.139   1.815  0.0043  0.3123 -0.2939
11679TIP3    H156528   0.914   6.138   1.724 -0.3135  0.4253 -0.3897
11679TIP3    H256529   0.893   6.048   1.843 -0.5310  0.1780 -0.6133
11680TIP3   OH256530   0.393   6.334  14.203 -0.0035 -0.2075 -0.6252
11680TIP3    H156531   0.374   6.386  14.282  1.2191 -1.5540  0.6248
11680TIP3    H256532   0.324   6.267  14.202  0.4737 -0.7226 -0.1657
11681TIP3   OH256533   3.516   4.485   3.023 -0.1233  0.0035 -0.2495
11681TIP3    H156534   3.525   4.557   3.085  1.5059  0.4149 -0.9006
11681TIP3    H256535   3.450   4.516   2.960 -1.5418 -0.2861  1.0473
11682TIP3   OH256536   0.530   2.046   4.044  0.8271 -0.6677 -0.1185
11682TIP3    H156537   0.576   1.968   4.012  0.6320 -1.1729  0.7920
11682TIP3    H256538   0.566   2.061   4.131 -0.9648 -1.3271  0.7988
11683TIP3   OH256539   5.700   1.193  13.483 -0.1757  0.5788  0.0534
11683TIP3    H156540   5.793   1.195  13.457 -0.0944  1.2871  0.3690
11683TIP3    H256541   5.679   1.100  13.489  0.7946  0.3902  0.9419
11684TIP3   OH256542   5.184   5.748   4.736  0.3085  0.3173  0.2613
11684TIP3    H156543   5.245   5.815   4.767  1.5241  0.5099 -2.2822
11684TIP3    H256544   5.241   5.674   4.712 -0.8082 -0.8040  0.9733
11685TIP3   OH256545   3.819   2.660  13.927  0.2222 -0.2027 -0.0137
11685TIP3    H156546   3.848   2.617  14.007  1.4850  0.7722  0.0862
11685TIP3    H256547   3.888   2.642  13.863  0.7666  1.5568  0.0136
11686TIP3   OH256548   3.783   4.597  12.485 -0.0449  0.0347  0.4412
11686TIP3    H156549   3.816   4.533  12.549  1.1069 -0.0092 -0.1699
11686TIP3    H256550   3.858   4.613  12.428 -1.1040 -0.0594 -1.0135
11687TIP3   OH256551   4.181   0.092  12.709  0.1429 -0.7459  0.9728
11687TIP3    H156552   4.117   0.024  12.728 -2.3218  1.1035 -0.0966
11687TIP3    H256553   4.153   0.128  12.625  0.5245  2.4016  2.0558
11688TIP3   OH256554   3.535   2.747   5.210 -0.6247 -0.3306 -0.1378
11688TIP3    H156555   3.599   2.798   5.160  0.4540 -1.2611  0.2343
11688TIP3    H256556   3.543   2.780   5.299 -1.1231 -0.0258 -0.2021
11689TIP3   OH256557   3.506   4.670   3.223  0.3546  0.1173  0.3696
11689TIP3    H156558   3.559   4.749   3.229  1.3321 -0.5821  1.3720
11689TIP3    H256559   3.416   4.701   3.227  0.6869  1.2556 -0.4445
11690TIP3   OH256560   4.548   4.464   2.657  0.1120 -0.1388 -0.3226
11690TIP3    H156561   4.485   4.494   2.723  0.4211 -2.0207  0.9196
11690TIP3    H256562   4.498   4.461   2.575 -1.1019 -0.4513  0.4028
11691TIP3   OH256563   3.695   3.394   1.753  0.4731  0.6557  0.3767
11691TIP3    H156564   3.774   3.385   1.806  0.5521  1.0089  0.3201
11691TIP3    H256565   3.623   3.378   1.815  0.5712  0.8649  0.5471
11692TIP3   OH256566   0.313   1.106   0.899  0.3484  0.5564 -0.1043
11692TIP3    H156567   0.282   1.157   0.824 -0.1636 -1.0214 -1.0048
11692TIP3    H256568   0.249   1.124   0.968 -1.3198 -0.7972 -1.2047
11693TIP3   OH256569   1.850   0.712   3.653  0.2386  0.1261  0.0326
11693TIP3    H156570   1.870   0.619   3.643 -1.5314 -0.3347  0.4110
11693TIP3    H256571   1.782   0.714   3.721  1.0911  1.8052  0.8891
11694TIP3   OH256572   0.592   1.546  11.057 -0.6508  0.1542  0.3278
11694TIP3    H156573   0.667   1.531  11.000 -0.8713  0.8338 -0.1536
11694TIP3    H256574   0.629   1.568  11.142 -0.3028  0.5462  0.0763
11695TIP3   OH256575   7.145   1.333  14.338 -0.4907 -0.3582 -0.0657
11695TIP3    H156576   7.149   1.382  14.256  0.3299 -0.3041 -0.0049
11695TIP3    H256577   7.234   1.298  14.349 -0.6405 -0.5055  0.7126
11696TIP3   OH256578   3.330   1.316  13.878  1.1278  0.5022  0.1187
11696TIP3    H156579   3.370   1.399  13.904 -0.6378  0.5818  2.9915
11696TIP3    H256580   3.288   1.334  13.794  0.4205  2.6734  0.8889
11697TIP3   OH256581   3.530   3.928  10.953  0.1541  1.0029  0.1189
11697TIP3    H156582   3.601   3.956  10.896 -1.1209  3.8666 -0.2899
11697TIP3    H256583   3.524   3.998  11.019 -1.6920  0.4213  0.6302
11698TIP3   OH256584   1.183   1.145   5.787 -0.3065 -0.1272 -0.0501
11698TIP3    H156585   1.183   1.235   5.821  0.2913 -0.3407  0.5344
11698TIP3    H256586   1.273   1.115   5.800 -0.0188 -0.1878 -1.9584
11699TIP3   OH256587   2.296   0.871   3.968  0.3406 -0.3629 -0.1013
11699TIP3    H156588   2.238   0.843   3.898 -0.0156  2.1083 -0.8594
11699TIP3    H256589   2.380   0.886   3.925  0.0130  1.5769 -0.1400
11700TIP3   OH256590   2.628   2.116   4.535 -0.2874  0.1386 -0.2752
11700TIP3    H156591   2.615   2.061   4.458 -0.6415  1.8146 -1.4865
11700TIP3    H256592   2.649   2.055   4.605  0.2763 -1.4412 -1.7391
11701TIP3   OH256593   4.235   2.643   0.446 -0.4375 -0.1535  0.1515
11701TIP3    H156594   4.237   2.613   0.537  1.4537 -1.0909 -0.1531
11701TIP3    H256595   4.325   2.669   0.427 -0.7390 -0.2037 -1.5176
11702TIP3   OH256596   6.203   1.410   4.951 -0.0956  0.1934 -0.1258
11702TIP3    H156597   6.183   1.500   4.976 -0.0692  0.4161 -0.8679
11702TIP3    H256598   6.237   1.369   5.031 -0.4897  0.7250  0.3170
11703TIP3   OH256599   6.423   2.118  11.611 -0.1974  0.4394 -0.1888
11703TIP3    H156600   6.426   2.146  11.702 -0.9054  0.3241 -0.1258
11703TIP3    H256601   6.345   2.159  11.575 -0.8309 -0.7988 -0.2971
11704TIP3   OH256602   0.752   1.385   3.929 -0.2272  0.2247 -0.1270
11704TIP3    H156603   0.787   1.427   4.008 -1.2111  2.2208 -0.6940
11704TIP3    H256604   0.782   1.441   3.857 -1.1276 -0.3568 -0.9762
11705TIP3   OH256605   4.238   4.054  13.235  0.2171  0.2605 -0.1548
11705TIP3    H156606   4.165   4.025  13.289  1.1441 -0.5485  0.6915
11705TIP3    H256607   4.243   3.990  13.164  0.9866 -0.5252  0.5877
11706TIP3   OH256608   2.277   2.063   2.598  0.1883  0.3106 -0.1009
11706TIP3    H156609   2.188   2.030   2.582  0.3629  0.3048 -1.1381
11706TIP3    H256610   2.290   2.053   2.692 -0.7003 -0.2250 -0.0261
11707TIP3   OH256611   6.184   0.296  14.310 -0.0006  0.0013  0.5608
11707TIP3    H156612   6.211   0.209  14.338 -0.7838 -0.4191  0.0660
11707TIP3    H256613   6.167   0.344  14.391  0.4283 -0.3097  0.8343
11708TIP3   OH256614   5.526   2.449   4.375 -0.0556 -0.0848  0.1323
11708TIP3    H156615   5.532   2.543   4.357 -1.1613 -0.0441 -0.1225
11708TIP3    H256616   5.616   2.418   4.370  0.3644  1.0197  0.5388
11709TIP3   OH256617   2.464   6.395   4.551  0.3128 -0.1841 -0.5219
11709TIP3    H156618   2.377   6.366   4.580 -0.2539  2.8218  1.2483
11709TIP3    H256619   2.523   6.368   4.622  0.2469  0.4332 -0.2182
11710TIP3   OH256620   0.066   2.969  13.115 -0.0661  0.5763  0.1324
11710TIP3    H156621   0.049   3.003  13.203 -2.2779 -1.8317  0.7611
11710TIP3    H256622   0.053   2.875  13.123  1.6673  0.0214 -2.3849
11711TIP3   OH256623   5.837   1.065   2.229  0.4345  0.1968 -0.3629
11711TIP3    H156624   5.900   1.041   2.297  0.1405 -1.8836 -0.7669
11711TIP3    H256625   5.752   1.047   2.269 -0.0426  3.4370  0.3560
11712TIP3   OH256626   5.276   1.030  10.564 -0.1059 -0.0156 -0.3366
11712TIP3    H156627   5.365   1.019  10.598 -0.4185 -1.2729  0.1539
11712TIP3    H256628   5.221   1.038  10.642 -0.4349  0.6677 -0.6336
11713TIP3   OH256629   5.885   5.136   2.729  0.1141 -0.3290  0.3105
11713TIP3    H156630   5.838   5.098   2.655 -0.2236 -1.0015  0.8511
11713TIP3    H256631   5.977   5.135   2.703  0.1296 -1.6968  0.3640
11714TIP3   OH256632   5.596   1.441  10.598 -0.4832 -0.2734 -0.0361
11714TIP3    H156633   5.580   1.503  10.526  0.9495  1.4602  1.0418
11714TIP3    H256634   5.645   1.370  10.557  0.4281  0.7495 -0.7998
11715TIP3   OH256635   6.925   0.435   0.138  0.4354  0.1810  0.7729
11715TIP3    H156636   6.916   0.484   0.056 -0.1670 -0.3354  0.5201
11715TIP3    H256637   6.955   0.500   0.202 -0.0449  0.8063  0.3781
11716TIP3   OH256638   5.110   6.017   3.961 -0.2207 -0.0116  0.0959
11716TIP3    H156639   5.121   6.109   3.935  1.0459 -0.2135 -0.1067
11716TIP3    H256640   5.170   5.969   3.905  1.2432 -0.6717  2.1381
11717TIP3   OH256641   2.649   6.538   0.302  0.0569 -0.2333  0.1332
11717TIP3    H156642   2.675   6.601   0.235 -0.6853  0.1414  0.1830
11717TIP3    H256643   2.647   6.454   0.257 -1.2413  0.1320 -0.5374
11718TIP3   OH256644   2.037   2.582  15.012 -0.2719 -0.0609 -0.3534
11718TIP3    H156645   1.969   2.583  15.079 -1.3217  1.5211 -1.3656
11718TIP3    H256646   2.117   2.558  15.059 -1.3726 -1.2344  1.0134
11719TIP3   OH256647   0.080   6.038  12.965  0.7278  0.5950  0.4876
11719TIP3    H156648   0.067   6.002  12.878  0.9614  1.8749 -0.0926
11719TIP3    H256649   0.174   6.057  12.970  0.8791 -0.2917  1.3585
11720TIP3   OH256650   5.342   0.001   0.351 -0.2150 -0.0733  0.2367
11720TIP3    H156651   5.294  -0.073   0.312 -0.0539 -0.4610  0.7644
11720TIP3    H256652   5.427   0.001   0.307  0.1199 -0.7639  0.8586
11721TIP3   OH256653   3.240   5.371  13.893  0.3529  0.1975 -0.1874
11721TIP3    H156654   3.295   5.296  13.917  3.6573  2.3483 -0.2916
11721TIP3    H256655   3.167   5.333  13.845  0.1085 -3.1666  2.4451
11722TIP3   OH256656   0.487   1.769   2.045 -0.0129 -0.0797  0.0492
11722TIP3    H156657   0.581   1.771   2.066 -0.3483 -1.8868  2.0242
11722TIP3    H256658   0.477   1.694   1.987 -0.4207 -0.8968  1.1396
11723TIP3   OH256659   2.361   1.651  11.087  0.1051  0.0256  0.1302
11723TIP3    H156660   2.377   1.630  10.995 -0.8408  1.2654 -0.3452
11723TIP3    H256661   2.449   1.669  11.122  0.3152  1.6836 -1.1115
11724TIP3   OH256662   4.802   6.113   2.044  0.0636 -0.0006  0.6500
11724TIP3    H156663   4.747   6.037   2.063 -0.2538  0.2892  0.9052
11724TIP3    H256664   4.765   6.150   1.963  1.2992 -1.1248 -0.4785
11725TIP3   OH256665   3.332   4.801  15.400 -0.4147 -0.0891 -0.3472
11725TIP3    H156666   3.409   4.849  15.371 -0.6997 -0.2384 -1.3931
11725TIP3    H256667   3.354   4.709  15.386 -1.8156 -0.0578 -3.5103
11726TIP3   OH256668   5.031   3.636  15.261  0.2876  0.6820  0.4172
11726TIP3    H156669   5.088   3.617  15.335  0.4724  0.1527  0.1422
11726TIP3    H256670   5.085   3.687  15.201 -0.4964  3.0538  1.5988
11727TIP3   OH256671   6.900   4.800   3.303 -0.5264  0.3883  0.1069
11727TIP3    H156672   6.847   4.732   3.344  0.6102 -0.3420  0.4125
11727TIP3    H256673   6.920   4.862   3.374 -1.1385  0.7889 -0.0597
11728TIP3   OH256674   2.004   3.701   1.478 -0.3441 -0.4227 -0.1724
11728TIP3    H156675   1.953   3.780   1.493 -0.6511 -0.7175  0.4329
11728TIP3    H256676   1.978   3.671   1.391 -1.2073 -0.5578  0.1170
11729TIP3   OH256677   0.779   2.609   4.765  0.2086  0.1384 -0.0266
11729TIP3    H156678   0.795   2.523   4.726  1.3094  0.1594  0.3266
11729TIP3    H256679   0.814   2.601   4.854  1.6580  1.3673 -0.4476
11730TIP3   OH256680   6.799   1.152  13.683  0.7310 -0.9285 -0.3136
11730TIP3    H156681   6.782   1.089  13.752  2.6188 -1.0960  0.0657
11730TIP3    H256682   6.770   1.236  13.718  0.4502 -1.2139  0.1381
11731TIP3   OH256683   6.833   5.227   1.113 -0.1190  0.2012  0.4395
11731TIP3    H156684   6.787   5.308   1.139 -1.0193 -0.0391 -0.3267
11731TIP3    H256685   6.844   5.236   1.018  3.5408  1.2930  0.8405
11732TIP3   OH256686   5.252   6.947  14.801  0.6464 -0.3379  0.1519
11732TIP3    H156687   5.157   6.933  14.800  0.6682 -0.4882 -0.0917
11732TIP3    H256688   5.267   7.012  14.733  0.7942 -0.8683 -0.3359
11733TIP3   OH256689   7.135   4.339   3.092  0.1076 -0.2889 -0.3816
11733TIP3    H156690   7.121   4.431   3.069  0.6256 -0.3075 -0.7895
11733TIP3    H256691   7.192   4.342   3.169 -0.8579 -0.2500  0.3545
11734TIP3   OH256692   1.735   1.564  15.260 -0.2002  0.2950  0.2779
11734TIP3    H156693   1.796   1.576  15.187 -0.7801 -0.7852 -0.4142
11734TIP3    H256694   1.775   1.495  15.313 -0.4381  0.1335  0.2475
11735TIP3   OH256695   5.849   1.502   2.268  0.3866  0.9576  0.3711
11735TIP3    H156696   5.782   1.511   2.201 -1.3680 -1.6024  1.6098
11735TIP3    H256697   5.800   1.485   2.349  2.4837  0.3693  1.6009
11736TIP3   OH256698   3.195   0.305   4.396 -0.0959  0.0410  0.0949
11736TIP3    H156699   3.195   0.395   4.363 -0.5654 -0.1688 -0.5086
11736TIP3    H256700   3.286   0.289   4.423  0.2052  0.3853 -0.6830
11737TIP3   OH256701   0.053   1.344  14.847  0.1512  0.3033 -0.3861
11737TIP3    H156702   0.119   1.410  14.830 -1.5249  2.4061  0.8157
11737TIP3    H256703   0.002   1.378  14.921 -2.6589 -0.8608 -1.6264
11738TIP3   OH256704   6.734   2.524   2.941 -0.2378 -0.1884  0.2919
11738TIP3    H156705   6.808   2.537   3.000  0.7634 -0.5493 -0.8505
11738TIP3    H256706   6.684   2.452   2.980 -1.6566  1.8810  2.6174
11739TIP3   OH256707   5.489   2.959  11.507  0.2613 -0.2541 -0.2170
11739TIP3    H156708   5.467   2.927  11.420 -2.4309 -3.3292  1.3614
11739TIP3    H256709   5.415   3.015  11.531 -0.4818 -1.7093  1.0532
11740TIP3   OH256710   2.544   4.078   4.025  0.1385 -0.0555  0.1621
11740TIP3    H156711   2.567   4.085   4.117 -0.8507  0.7109  0.3698
11740TIP3    H256712   2.585   4.155   3.984 -2.1070  1.4498  0.5761
11741TIP3   OH256713   0.683   0.056   1.148  0.0029  0.2950 -0.4920
11741TIP3    H156714   0.706   0.144   1.179 -0.3021  0.0070  0.6016
11741TIP3    H256715   0.587   0.053   1.155  0.1530 -1.0737  2.2685
11742TIP3   OH256716   3.496   6.497  15.158  0.2903 -0.2492 -0.0864
11742TIP3    H156717   3.574   6.525  15.207  1.1818 -1.8874 -0.5072
11742TIP3    H256718   3.461   6.578  15.121 -0.9306  1.2679  3.8206
11743TIP3   OH256719   5.655   3.879   4.393 -0.0997 -0.7667  0.3142
11743TIP3    H156720   5.627   3.812   4.455  1.0624  0.2655  2.0461
11743TIP3    H256721   5.589   3.947   4.399  0.7941  0.0215  1.6300
11744TIP3   OH256722   2.383   5.451   2.516 -0.5641 -0.0828 -0.4636
11744TIP3    H156723   2.338   5.461   2.432  0.1668  0.6943 -0.7720
11744TIP3    H256724   2.317   5.413   2.573 -1.5703  0.8576 -0.9554
11745TIP3   OH256725   3.849   2.442   1.709  0.0512  0.1923 -0.3332
11745TIP3    H156726   3.888   2.431   1.622  1.6484  1.1497  0.2261
11745TIP3    H256727   3.803   2.526   1.704 -0.2240  0.0393 -0.3806
11746TIP3   OH256728   1.702   0.492   3.378 -0.9689  0.1127 -0.0007
11746TIP3    H156729   1.651   0.563   3.339  0.4614  2.3589  1.9280
11746TIP3    H256730   1.654   0.468   3.457 -0.5816  0.1283  0.2413
11747TIP3   OH256731   6.367   3.191  13.657 -0.7657  0.0817  0.0263
11747TIP3    H156732   6.362   3.121  13.723 -0.3800 -2.1145 -2.1293
11747TIP3    H256733   6.278   3.201  13.626 -0.6861 -0.0769 -0.2594
11748TIP3   OH256734   1.814   2.985   0.612  0.5073 -0.4244  0.6213
11748TIP3    H156735   1.868   3.056   0.577 -0.7281  0.4703  0.4493
11748TIP3    H256736   1.739   2.981   0.553 -2.2821  1.9632  3.6366
11749TIP3   OH256737   1.032   1.711   2.372 -0.0643 -0.2759  0.2514
11749TIP3    H156738   0.941   1.727   2.400 -0.1761  0.2541 -0.3923
11749TIP3    H256739   1.066   1.798   2.353 -0.7859 -0.6753 -3.7043
11750TIP3   OH256740   6.351   6.590   9.767 -0.0027  0.1449  0.1430
11750TIP3    H156741   6.303   6.513   9.736  0.0357  0.7326 -1.4595
11750TIP3    H256742   6.441   6.577   9.737 -0.1188  1.0666 -0.6476
11751TIP3   OH256743   4.246   2.411   3.290  0.0667  0.4600 -0.1221
11751TIP3    H156744   4.316   2.475   3.307  0.7644  0.1101 -1.5213
11751TIP3    H256745   4.165   2.461   3.296  0.5985  1.4757 -1.0888
11752TIP3   OH256746   4.625   6.317  14.250  0.2155  0.7852  0.8709
11752TIP3    H156747   4.598   6.266  14.174  3.3406 -0.1703  0.2454
11752TIP3    H256748   4.578   6.278  14.324 -3.3030  2.0837 -0.4993
11753TIP3   OH256749   0.185   7.187   0.237  0.5705 -0.5670 -0.0738
11753TIP3    H156750   0.165   7.130   0.163 -4.0648 -1.2788  1.4183
11753TIP3    H256751   0.211   7.270   0.196  0.7830 -1.6915 -2.4027
11754TIP3   OH256752   4.591   2.904  12.138 -0.7480  0.1760 -0.5112
11754TIP3    H156753   4.518   2.852  12.105 -3.1848  2.4733  0.9033
11754TIP3    H256754   4.583   2.899  12.233  1.0991  0.3568 -0.3025
11755TIP3   OH256755   3.563   6.094   2.940 -0.2475  0.1937  0.1398
11755TIP3    H156756   3.632   6.062   2.882  1.7440  0.2468  2.3633
11755TIP3    H256757   3.562   6.189   2.925 -0.4152  0.1042 -0.4605
11756TIP3   OH256758   5.344   0.101   1.533  0.3217 -0.1609  0.2878
11756TIP3    H156759   5.314   0.191   1.519  0.8677  0.0891  0.6750
11756TIP3    H256760   5.295   0.071   1.610  0.5333 -0.0019  0.4867
11757TIP3   OH256761   0.953   6.390   2.162  0.5719 -0.0224  0.5248
11757TIP3    H156762   1.043   6.391   2.130  0.2179  3.8402 -0.8331
11757TIP3    H256763   0.941   6.475   2.203 -2.3909 -0.5294  0.9526
11758TIP3   OH256764   4.637   5.386  15.082 -0.8528 -0.0969 -0.2130
11758TIP3    H156765   4.656   5.292  15.084 -1.3987 -0.2104 -0.1157
11758TIP3    H256766   4.612   5.406  15.173  3.2457  1.0142  0.8576
11759TIP3   OH256767   6.347   3.346   4.317 -0.1585  0.8361  0.2851
11759TIP3    H156768   6.282   3.277   4.302 -0.3031  1.2259 -1.0159
11759TIP3    H256769   6.325   3.414   4.253  0.9189  1.4118  0.4996
11760TIP3   OH256770   2.459   5.348   5.164 -0.3889  0.1140 -0.3069
11760TIP3    H156771   2.549   5.348   5.131 -0.6186  1.5342 -1.0147
11760TIP3    H256772   2.405   5.336   5.085 -0.8604  0.6499 -0.0670
11761TIP3   OH256773   6.544   2.480   1.331  0.1790 -0.5114  0.2139
11761TIP3    H156774   6.509   2.532   1.402 -1.6034 -0.3831 -0.6947
11761TIP3    H256775   6.529   2.389   1.358  1.0786 -0.5187  0.7306
11762TIP3   OH256776   1.187   4.056  14.107 -0.0289 -0.2540 -0.5730
11762TIP3    H156777   1.189   4.145  14.143  0.6235 -0.2304 -0.6706
11762TIP3    H256778   1.109   4.016  14.148 -0.2214  0.2982 -0.3906
11763TIP3   OH256779   2.451   5.042   3.538 -0.6521  0.1502  0.1229
11763TIP3    H156780   2.385   5.020   3.472 -1.9811  0.3940  1.3183
11763TIP3    H256781   2.514   4.970   3.534 -0.3354  0.4909 -1.8354
11764TIP3   OH256782   2.418   5.318  11.919  0.3817  0.4444 -0.0177
11764TIP3    H156783   2.430   5.304  12.013  2.7453  0.6671 -0.2192
11764TIP3    H256784   2.506   5.309  11.882 -0.4251  0.7519 -2.1738
11765TIP3   OH256785   4.037   4.273  13.489 -0.8480  0.9712 -0.5697
11765TIP3    H156786   3.991   4.347  13.450  1.1554  0.9923 -3.1990
11765TIP3    H256787   4.014   4.198  13.434 -1.8380 -0.1573  1.2800
11766TIP3   OH256788   2.967   6.179   5.048  0.4137 -0.2575 -0.1123
11766TIP3    H156789   2.979   6.085   5.060  2.4164 -0.0888 -0.4874
11766TIP3    H256790   2.934   6.210   5.132  2.5896 -0.8928  1.0617
11767TIP3   OH256791   5.336   1.291   1.497 -0.2380  0.2598 -0.7080
11767TIP3    H156792   5.363   1.271   1.586 -1.3672  0.2721 -0.3524
11767TIP3    H256793   5.416   1.320   1.453  0.1849  0.9583  0.4962
11768TIP3   OH256794   1.605   4.085   2.112 -0.5680 -0.0567  0.1896
11768TIP3    H156795   1.696   4.108   2.095 -0.4031 -0.3837  0.6052
11768TIP3    H256796   1.554   4.161   2.085  0.0727  1.6154  3.2893
11769TIP3   OH256797   1.051   2.827   1.142 -0.3923 -0.4691 -0.2549
11769TIP3    H156798   1.125   2.803   1.197 -0.1507  0.3529 -0.2008
11769TIP3    H256799   1.027   2.915   1.172 -1.0117 -0.4941 -0.6677
11770TIP3   OH256800   6.332   4.903  13.303 -0.1688 -0.3847  0.1604
11770TIP3    H156801   6.407   4.962  13.294  1.4183 -2.0878  1.5072
11770TIP3    H256802   6.359   4.840  13.370 -3.2505 -0.4227  1.5139
11771TIP3   OH256803   2.375   6.956   1.092  0.0605 -0.2994 -0.2345
11771TIP3    H156804   2.362   6.941   0.998 -0.7491 -0.2295 -0.1386
11771TIP3    H256805   2.308   6.903   1.134  0.7419 -0.7310  0.3380
11772TIP3   OH256806   2.347   2.660  14.263 -0.2121 -0.1209  0.3921
11772TIP3    H156807   2.275   2.704  14.309 -0.5975 -0.2014 -0.1205
11772TIP3    H256808   2.324   2.668  14.170  1.0174  0.8606  0.1465
11773TIP3   OH256809   3.764   3.805  15.412  0.4819 -0.0976 -0.0055
11773TIP3    H156810   3.773   3.877  15.474  0.9713 -0.9670  0.9513
11773TIP3    H256811   3.838   3.747  15.431 -0.9095 -1.7772  0.5026
11774TIP3   OH256812   4.287   6.000  13.670  0.9071  0.0333 -0.0797
11774TIP3    H156813   4.350   5.999  13.742  3.3785 -0.7647 -2.0737
11774TIP3    H256814   4.342   6.009  13.591 -1.5562 -0.1507 -1.9308
11775TIP3   OH256815   3.990   1.149   1.534 -0.2952  0.1199  0.2870
11775TIP3    H156816   3.900   1.182   1.530 -0.7771 -1.0392  1.0831
11775TIP3    H256817   3.981   1.054   1.533  0.8667 -0.0239  1.3504
11776TIP3   OH256818   0.342   0.935   4.796 -0.1066 -0.2708 -0.4593
11776TIP3    H156819   0.346   0.840   4.783  1.3765 -0.1456 -1.1580
11776TIP3    H256820   0.328   0.970   4.708 -1.0795  0.1449 -0.1433
11777TIP3   OH256821   4.118   5.031  13.060 -0.1162  0.1083  0.0072
11777TIP3    H156822   4.059   5.059  13.129 -0.1009 -3.7982  1.8864
11777TIP3    H256823   4.203   5.067  13.084 -0.1225 -1.1433  2.1395
11778TIP3   OH256824   6.970   5.739  13.339 -0.1526 -0.6118 -0.3799
11778TIP3    H156825   6.974   5.657  13.290  2.4591  0.0950 -1.5596
11778TIP3    H256826   6.975   5.807  13.272 -4.1968  0.7074  0.3894
11779TIP3   OH256827   4.446   0.598   3.818 -0.5893  0.6165 -0.4406
11779TIP3    H156828   4.443   0.691   3.796 -0.5173  0.7767  0.2167
11779TIP3    H256829   4.537   0.582   3.845 -0.1165 -0.0543 -2.2749
11780TIP3   OH256830   1.221   6.322  13.136  0.0096 -0.3336  0.1321
11780TIP3    H156831   1.246   6.408  13.170  0.8282 -1.1343  1.6956
11780TIP3    H256832   1.169   6.340  13.058  0.6669  1.5533  0.0929
11781TIP3   OH256833   1.699   3.922  12.380 -0.3356  0.4256  0.5473
11781TIP3    H156834   1.685   3.889  12.469  0.0962 -1.4408 -0.0216
11781TIP3    H256835   1.656   3.857  12.324  0.3516  0.9737 -0.6492
11782TIP3   OH256836   4.720   2.146  12.938 -0.5505  0.0590 -0.1163
11782TIP3    H156837   4.657   2.217  12.927  0.5486  0.8486 -1.6533
11782TIP3    H256838   4.804   2.189  12.950  0.0428 -0.9719 -0.4047
11783TIP3   OH256839   6.099   6.969   3.834 -0.2646 -0.0433 -0.1170
11783TIP3    H156840   6.172   7.002   3.887  0.2268 -1.1717 -0.0634
11783TIP3    H256841   6.037   7.042   3.830  1.0890  1.1383 -0.5951
11784TIP3   OH256842   2.825   4.957   0.212 -0.3315 -0.4581 -0.1950
11784TIP3    H156843   2.730   4.962   0.203 -0.4554 -2.2416 -0.3593
11784TIP3    H256844   2.842   4.978   0.304 -1.1825 -2.4568  0.4959
11785TIP3   OH256845   0.410   0.219   1.467  0.6860  0.0545 -0.7423
11785TIP3    H156846   0.495   0.208   1.425 -0.1020 -0.9184 -2.1472
11785TIP3    H256847   0.349   0.169   1.413 -0.5236 -0.6259  1.1336
11786TIP3   OH256848   5.616   3.900   0.100  0.4632 -1.1758 -0.2134
11786TIP3    H156849   5.611   3.918   0.194 -1.0317 -1.6428 -0.1778
11786TIP3    H256850   5.579   3.978   0.059  1.2478 -0.9097 -0.4450
11787TIP3   OH256851   6.716   3.168   0.965  0.0451  0.0301 -0.4475
11787TIP3    H156852   6.670   3.251   0.971 -1.2394 -0.6600 -0.5003
11787TIP3    H256853   6.808   3.191   0.979 -0.4104  1.3031  0.7421
11788TIP3   OH256854   0.290   3.004  14.646 -0.3263 -0.1599  0.2536
11788TIP3    H156855   0.255   2.948  14.577 -0.1633 -0.6895  0.5981
11788TIP3    H256856   0.321   2.943  14.714 -2.5642  0.3377  1.8432
11789TIP3   OH256857   6.292   0.362  13.282  0.3826 -0.4414 -0.2022
11789TIP3    H156858   6.292   0.322  13.369  0.3826 -1.2800 -0.5771
11789TIP3    H256859   6.384   0.370  13.259  0.3674 -1.1698 -0.5421
11790TIP3   OH256860   2.277   7.148  13.473 -0.1931  0.7504  0.2083
11790TIP3    H156861   2.256   7.065  13.516 -0.0823  0.3237 -0.5441
11790TIP3    H256862   2.371   7.157  13.482 -0.2240  0.8687  0.4179
11791TIP3   OH256863   4.672   0.661   2.602  0.1187 -0.2721  0.2175
11791TIP3    H156864   4.664   0.576   2.645 -0.3770  0.8161  2.4489
11791TIP3    H256865   4.752   0.654   2.549 -0.3841 -2.3623 -0.3556
11792TIP3   OH256866   1.980   1.663   2.628 -0.2734  0.2263 -0.0523
11792TIP3    H156867   1.887   1.689   2.627 -0.5797 -0.8454 -0.9041
11792TIP3    H256868   1.999   1.640   2.537  0.0069 -2.3827  0.6094
11793TIP3   OH256869   4.138   2.931   5.627 -0.0137 -0.1797  0.2123
11793TIP3    H156870   4.137   3.021   5.593  0.7221  0.2945  1.4055
11793TIP3    H256871   4.136   2.941   5.722  1.4836 -1.3811  0.4063
11794TIP3   OH256872   4.104   2.875   3.931 -0.1057  0.3203  0.1133
11794TIP3    H156873   4.036   2.827   3.978  0.4203  0.4668  1.0440
11794TIP3    H256874   4.111   2.959   3.977 -1.1773  1.4299 -1.6368
11795TIP3   OH256875   5.332   3.163  14.734 -0.3996  0.7270  0.3615
11795TIP3    H156876   5.329   3.131  14.644  0.3997  0.6401  0.3561
11795TIP3    H256877   5.419   3.138  14.765 -0.3914  1.4042  0.9107
11796TIP3   OH256878   4.743   5.727   5.027  0.0524  0.0246 -0.2219
11796TIP3    H156879   4.775   5.690   5.109 -0.6820 -0.8385 -0.3078
11796TIP3    H256880   4.820   5.764   4.985  0.8357 -1.4757 -0.1643
11797TIP3   OH256881   5.639   6.377   5.149  0.4739 -0.1952  0.1030
11797TIP3    H156882   5.664   6.454   5.200 -0.9101  1.3103 -1.3686
11797TIP3    H256883   5.549   6.358   5.176 -0.6539  1.2328 -2.3138
11798TIP3   OH256884   6.942   2.813   2.862 -0.6548 -0.6138  0.1319
11798TIP3    H156885   6.935   2.769   2.946 -2.4633 -0.6906 -0.0231
11798TIP3    H256886   6.853   2.839   2.840  0.0895  1.5639 -0.6330
11799TIP3   OH256887   4.120   1.231  10.227 -0.1847 -0.2684 -0.1890
11799TIP3    H156888   4.154   1.317  10.252 -0.9936 -0.1610  0.6023
11799TIP3    H256889   4.171   1.169  10.279 -1.1780 -0.1043  1.0347
11800TIP3   OH256890   1.838   0.618   0.260  0.6443 -0.2758  0.0175
11800TIP3    H156891   1.811   0.548   0.319 -0.0751  0.5271  0.6709
11800TIP3    H256892   1.756   0.649   0.221  0.7933  1.0981  0.7607
11801TIP3   OH256893   3.965   0.758   2.624 -0.2260 -0.0068 -0.2083
11801TIP3    H156894   4.036   0.756   2.560  0.2978  0.6806  0.3331
11801TIP3    H256895   3.986   0.833   2.681 -1.6974  0.5820 -0.3953
11802TIP3   OH256896   6.160   6.984  10.787 -0.3590  0.2030  0.1366
11802TIP3    H156897   6.065   6.974  10.786 -0.4998  1.3300 -0.7645
11802TIP3    H256898   6.186   6.958  10.875 -1.5670  0.3874  0.5757
11803TIP3   OH256899   1.721   3.489   4.299  0.8944  0.1476 -0.2366
11803TIP3    H156900   1.655   3.420   4.302 -1.2110  2.0399  2.8479
11803TIP3    H256901   1.684   3.557   4.244  0.2637  1.0995  1.2798
11804TIP3   OH256902   5.361   5.116   3.457 -0.7769 -0.3011  0.2598
11804TIP3    H156903   5.386   5.206   3.480 -0.0599  0.3694 -2.6931
11804TIP3    H256904   5.281   5.100   3.507  0.1084  1.2400  2.3030
11805TIP3   OH256905   1.923   2.979   2.425 -0.1155 -0.3714 -0.2347
11805TIP3    H156906   1.932   3.074   2.418 -0.7937 -0.3759 -1.3228
11805TIP3    H256907   2.004   2.944   2.388 -0.4573 -0.2383 -1.1161
11806TIP3   OH256908   6.170   0.947  13.137  0.2255 -0.1085 -0.3099
11806TIP3    H156909   6.152   1.022  13.081  0.5108 -0.4620 -0.8835
11806TIP3    H256910   6.195   0.985  13.222  0.5315  0.4411 -0.6449
11807TIP3   OH256911   3.107   0.936  14.673  0.0799  0.1047 -0.2288
11807TIP3    H156912   3.049   1.012  14.675  1.8475  1.5159 -0.1235
11807TIP3    H256913   3.155   0.945  14.590  0.8206 -0.5040  0.1226
11808TIP3   OH256914   1.686   1.006  11.770 -0.2973  0.1893 -0.2831
11808TIP3    H156915   1.710   0.931  11.716  1.2580  2.1340 -2.4212
11808TIP3    H256916   1.755   1.070  11.756 -1.3187  1.8970  1.8483
11809TIP3   OH256917   3.099   0.273  11.871  0.4932  0.3202  0.3641
11809TIP3    H156918   3.081   0.218  11.794  0.3149  1.2242 -0.2483
11809TIP3    H256919   3.108   0.210  11.943  0.9043 -0.5667 -0.4284
11810TIP3   OH256920   3.665   1.793  14.713 -0.3226 -0.4401  0.7043
11810TIP3    H156921   3.620   1.877  14.704  0.1177  0.0381  2.5480
11810TIP3    H256922   3.705   1.777  14.627 -1.5140  0.5668 -0.0649
11811TIP3   OH256923   4.646   5.532   9.972 -0.3865  0.2090  0.0014
11811TIP3    H156924   4.580   5.501  10.035  0.4098 -2.1257 -0.2278
11811TIP3    H256925   4.597   5.589   9.913 -2.1563 -1.1310  0.0753
11812TIP3   OH256926   3.664   2.187   1.568  0.2092  0.4199 -0.0873
11812TIP3    H156927   3.604   2.247   1.613  1.0938 -0.3535  2.3013
11812TIP3    H256928   3.607   2.117   1.536 -0.3962  0.6043  0.5517
11813TIP3   OH256929   2.183   2.410  12.365  0.2080 -0.3074 -0.8279
11813TIP3    H156930   2.259   2.466  12.352 -0.1675  0.2286 -0.7675
11813TIP3    H256931   2.215   2.321  12.351  0.9876 -0.1366 -0.1838
11814TIP3   OH256932   2.140   1.407   1.565  0.3220  0.5841  0.0318
11814TIP3    H156933   2.096   1.336   1.519  0.4224 -1.1790  2.4646
11814TIP3    H256934   2.069   1.458   1.604  0.3117  0.4845  0.1431
11815TIP3   OH256935   2.250   7.056   3.761 -0.1763  0.2552 -0.5569
11815TIP3    H156936   2.289   6.971   3.782  1.4512  0.7446 -1.3988
11815TIP3    H256937   2.282   7.115   3.829 -0.9127  0.3144 -0.2501
11816TIP3   OH256938   4.859   3.364  14.047  0.3195 -0.0672  0.3755
11816TIP3    H156939   4.874   3.389  14.138 -0.9896 -0.0897  0.6117
11816TIP3    H256940   4.821   3.441  14.006 -1.6573 -0.8804  0.5566
11817TIP3   OH256941   0.863   2.031  14.585  0.5817 -0.6749 -0.8068
11817TIP3    H156942   0.838   2.100  14.646 -1.4551 -0.6803 -1.5630
11817TIP3    H256943   0.908   1.966  14.639 -0.4367 -0.3129  0.5284
11818TIP3   OH256944   0.562   3.128  14.707 -0.2869  0.4547  1.2754
11818TIP3    H156945   0.585   3.043  14.746  0.5327  0.1836  0.2424
11818TIP3    H256946   0.503   3.168  14.771 -1.3136 -1.2154  1.4517
11819TIP3   OH256947   1.376   2.369  13.935 -0.1362  0.0283  0.0549
11819TIP3    H156948   1.344   2.459  13.932 -0.8543 -0.2226 -0.0666
11819TIP3    H256949   1.296   2.316  13.945  0.2088 -0.6365 -0.6396
11820TIP3   OH256950   6.880   5.757   4.569  0.4251 -0.5652 -0.4853
11820TIP3    H156951   6.848   5.843   4.541 -0.2254 -0.1208  1.4454
11820TIP3    H256952   6.927   5.723   4.493  2.2111  2.2369 -0.7980
11821TIP3   OH256953   0.248   6.368  13.163 -0.6371  0.5172 -0.0887
11821TIP3    H156954   0.245   6.453  13.207 -0.2418  1.3241 -1.5518
11821TIP3    H256955   0.166   6.325  13.188  0.3596  0.1369  2.8998
11822TIP3   OH256956   2.186   3.855  10.837 -0.1551 -0.4040  0.7956
11822TIP3    H156957   2.129   3.929  10.817  0.6947  0.0221 -0.1451
11822TIP3    H256958   2.194   3.807  10.754  0.6414 -0.6010  0.9723
11823TIP3   OH256959   2.423   5.494   1.089  0.7908  0.4982 -0.4140
11823TIP3    H156960   2.357   5.497   1.158  1.6512 -0.7806  0.5089
11823TIP3    H256961   2.391   5.555   1.023 -1.7263 -0.6340 -0.3711
11824TIP3   OH256962   1.136   5.441   4.117 -0.3342 -0.0547  0.0717
11824TIP3    H156963   1.163   5.381   4.048  0.8428 -0.5418  0.9142
11824TIP3    H256964   1.070   5.392   4.167  0.6104 -0.6795  0.7454
11825TIP3   OH256965   2.243   2.663   3.993  0.3435 -1.1521  0.5685
11825TIP3    H156966   2.251   2.722   4.069 -0.2862 -0.7427  0.3280
11825TIP3    H256967   2.231   2.722   3.919 -1.4011 -1.5761  0.4653
11826TIP3   OH256968   7.025   5.486  14.729  0.1558 -0.4334 -0.2528
11826TIP3    H156969   7.065   5.512  14.646 -0.0642 -1.3659 -0.6598
11826TIP3    H256970   7.033   5.564  14.784 -0.2074  0.4013 -1.3315
11827TIP3   OH256971   5.556   3.226  13.080 -0.1569 -0.0893  0.3667
11827TIP3    H156972   5.640   3.260  13.109 -0.3211  1.9027 -1.3070
11827TIP3    H256973   5.494   3.252  13.149 -0.1529  2.5705 -0.5251
11828TIP3   OH256974   3.775   5.529  15.388 -0.1999 -0.1038  0.1550
11828TIP3    H156975   3.723   5.577  15.453  0.1551 -0.0344  0.3893
11828TIP3    H256976   3.714   5.465  15.352 -1.0218  1.2772 -0.9961
11829TIP3   OH256977   4.708   4.961  14.611  0.3888  0.1717 -0.5134
11829TIP3    H156978   4.671   5.029  14.668  0.3504 -0.1916 -0.0924
11829TIP3    H256979   4.757   5.009  14.545  0.1209  0.6192 -0.3919
11830TIP3   OH256980   2.492   1.074   1.758  0.4996  0.4240  0.3004
11830TIP3    H156981   2.435   1.022   1.701  0.3032 -0.0536  0.9199
11830TIP3    H256982   2.485   1.032   1.844  2.0126  0.1874  0.3310
11831TIP3   OH256983   0.658   0.331   1.954  0.8982 -0.2529 -0.8959
11831TIP3    H156984   0.655   0.314   1.860  1.7983  1.1520 -1.1992
11831TIP3    H256985   0.568   0.348   1.978  0.5539 -1.3209 -1.3465
11832TIP3   OH256986   2.950   5.413   0.939 -0.3179 -0.2294 -0.2761
11832TIP3    H156987   2.948   5.408   0.844 -1.5768  0.8024 -0.3383
11832TIP3    H256988   2.858   5.403   0.965 -0.2355  1.2849  0.6987
11833TIP3   OH256989   2.297   4.016  14.857  0.1888 -0.2913  0.0203
11833TIP3    H156990   2.239   3.944  14.883 -0.6319  1.3315  3.2449
11833TIP3    H256991   2.385   3.978  14.859 -0.4569 -2.2336 -2.7777
11834TIP3   OH256992   0.675   3.805  13.146  0.0037  0.3850  0.3832
11834TIP3    H156993   0.726   3.877  13.183  0.5617  0.5441 -0.6755
11834TIP3    H256994   0.732   3.766  13.080 -0.9438  0.0638 -0.2665
11835TIP3   OH256995   5.192   6.962   4.493 -0.4513  0.7618 -0.5898
11835TIP3    H156996   5.146   7.002   4.567  1.7044  1.6318  0.3503
11835TIP3    H256997   5.171   6.869   4.499 -1.1587  0.9738  0.4806
11836TIP3   OH256998   1.579   4.587   3.811 -0.7511  0.1323 -0.3684
11836TIP3    H156999   1.529   4.622   3.884  0.0768  2.3735 -0.7984
11836TIP3    H257000   1.604   4.663   3.759  2.9120 -0.8176 -0.3036
11837TIP3   OH257001   1.155   6.912  11.622 -0.0157 -0.4197 -0.6532
11837TIP3    H157002   1.062   6.893  11.623 -0.4308  1.3056 -2.1905
11837TIP3    H257003   1.163   6.998  11.663  1.2055 -1.4784  1.5192
11838TIP3   OH257004   2.213   3.104   3.593  0.8329 -0.2716 -0.0159
11838TIP3    H157005   2.133   3.123   3.546  0.9428 -1.2784 -0.6347
11838TIP3    H257006   2.275   3.171   3.564 -0.4437  2.1794  2.4138
11839TIP3   OH257007   4.255   4.808  13.687 -0.0003 -0.8126  0.5916
11839TIP3    H157008   4.316   4.875  13.718 -1.4391 -0.3191  2.5063
11839TIP3    H257009   4.221   4.843  13.605  0.3500  0.1383  0.8377
11840TIP3   OH257010   3.298   2.378   0.073  0.1234  0.5570 -0.2270
11840TIP3    H157011   3.293   2.322  -0.004  1.9690 -4.6591  2.9598
11840TIP3    H257012   3.387   2.413   0.072  0.7643 -1.0065  0.3780
11841TIP3   OH257013   6.843   3.456   2.108  0.0460 -0.3703  0.2423
11841TIP3    H157014   6.758   3.441   2.149  0.0288  1.4995  0.9911
11841TIP3    H257015   6.865   3.372   2.068 -1.5949 -1.2395  1.0382
11842TIP3   OH257016   4.289   6.768   4.283 -0.1364  0.1173  0.4361
11842TIP3    H157017   4.194   6.774   4.287 -0.1199  0.9623 -0.2415
11842TIP3    H257018   4.319   6.796   4.369 -0.4664  0.6651  0.3727
11843TIP3   OH257019   5.292   7.174  12.735  0.3046  0.2394 -0.7599
11843TIP3    H157020   5.329   7.192  12.821 -1.8000  1.8289 -0.1058
11843TIP3    H257021   5.212   7.124  12.753  0.4022 -0.3697 -1.8839
11844TIP3   OH257022   6.515   3.020   2.023  0.4585 -0.0341 -0.3481
11844TIP3    H157023   6.502   3.025   1.928 -0.2854 -0.9069 -0.3103
11844TIP3    H257024   6.483   2.933   2.046  0.4742  0.2412  0.7357
11845TIP3   OH257025   3.704   1.408  13.398 -0.1581 -0.9734  0.3070
11845TIP3    H157026   3.793   1.373  13.403 -0.7518 -2.5215  0.4956
11845TIP3    H257027   3.659   1.371  13.474 -1.1134 -0.6732 -0.0943
11846TIP3   OH257028   0.254   4.142  11.094 -0.0572 -0.2042 -0.0968
11846TIP3    H157029   0.332   4.097  11.124 -0.6873 -1.4031 -0.2143
11846TIP3    H257030   0.215   4.179  11.173 -1.4098 -2.8734  0.5885
11847TIP3   OH257031   4.668   7.185  14.696  0.0580  0.5199 -0.7458
11847TIP3    H157032   4.575   7.201  14.711  0.1674  0.8422 -0.4012
11847TIP3    H257033   4.701   7.265  14.656  0.3261  0.6640 -0.2467
11848TIP3   OH257034   2.865   4.419  11.189 -0.1904  0.1815 -0.3671
11848TIP3    H157035   2.916   4.500  11.198  0.5735 -0.2300 -0.8130
11848TIP3    H257036   2.931   4.352  11.174 -0.8372 -0.4871 -0.2689
11849TIP3   OH257037   2.519   2.170  14.825 -0.0815 -0.1692 -0.1207
11849TIP3    H157038   2.507   2.080  14.857 -0.0622  0.4531  1.7760
11849TIP3    H257039   2.542   2.159  14.733  0.9911 -2.1868  0.3042
11850TIP3   OH257040   0.396   0.050  10.170  0.0303  0.1063 -0.0069
11850TIP3    H157041   0.376  -0.037  10.205  0.1821 -0.9406 -2.3149
11850TIP3    H257042   0.490   0.049  10.154  0.2075  1.0918  0.8762
11851TIP3   OH257043   5.781   2.248   3.028  0.2546 -0.2342  0.4225
11851TIP3    H157044   5.718   2.230   3.098  0.3565 -0.2539  0.5096
11851TIP3    H257045   5.805   2.161   2.994  0.4464 -0.2428  0.5777
11852TIP3   OH257046   5.257   1.791  13.669  0.3889  0.2512 -0.3071
11852TIP3    H157047   5.345   1.757  13.686 -0.0031 -0.0993  1.2245
11852TIP3    H257048   5.199   1.720  13.696 -0.3902 -0.3552 -3.2321
11853TIP3   OH257049   0.391   2.496   2.255 -0.0693  0.0571  0.4034
11853TIP3    H157050   0.395   2.430   2.186  1.1066  0.5050  0.0126
11853TIP3    H257051   0.303   2.487   2.292 -1.1003  0.4267 -1.7826
11854TIP3   OH257052   4.450   7.188  11.636 -0.0124  0.1981 -0.4300
11854TIP3    H157053   4.361   7.170  11.665 -0.2942  0.0171 -1.3740
11854TIP3    H257054   4.502   7.190  11.716 -0.9915  1.0418  0.1968
11855TIP3   OH257055   0.552   2.058  13.888  0.1582 -0.1208  0.6300
11855TIP3    H157056   0.531   2.044  13.980  1.6778  4.2814  1.8600
11855TIP3    H257057   0.498   2.132  13.862  3.5150  2.2284 -0.2653
11856TIP3   OH257058   0.138   4.290   0.369 -0.1907  0.1041 -0.4318
11856TIP3    H157059   0.228   4.266   0.346 -0.3182 -0.2063 -0.6130
11856TIP3    H257060   0.126   4.377   0.330  0.5599  0.8763  0.9636
11857TIP3   OH257061   5.770   3.238  14.215 -0.2878  0.0126  0.0746
11857TIP3    H157062   5.820   3.166  14.251 -0.1433  0.6847  1.2662
11857TIP3    H257063   5.679   3.218  14.235 -0.1412  0.8619  1.7936
11858TIP3   OH257064   5.134   1.978   1.132  0.7653  0.5639 -0.3384
11858TIP3    H157065   5.196   2.014   1.070 -0.6724  0.5230 -1.8702
11858TIP3    H257066   5.099   1.900   1.088 -0.1687  0.4359  0.5945
11859TIP3   OH257067   2.668   7.050   0.228 -0.3773  0.2209 -0.1519
11859TIP3    H157068   2.752   7.011   0.203 -1.0399 -0.7924 -0.8554
11859TIP3    H257069   2.666   7.133   0.180  0.1046  0.1203 -0.3519
11860TIP3   OH257070   5.955   3.738  14.268  0.4165 -0.0176  0.2182
11860TIP3    H157071   5.930   3.765  14.357 -1.7018  1.3539 -0.7225
11860TIP3    H257072   5.976   3.645  14.277 -1.6327 -0.3985  1.8500
11861TIP3   OH257073   6.887   5.852   0.787  0.4494 -0.0347  0.6409
11861TIP3    H157074   6.906   5.943   0.768  2.1050 -0.5933 -0.6203
11861TIP3    H257075   6.935   5.833   0.867 -0.0180  0.2218  0.9869
11862TIP3   OH257076   5.378   3.934  12.343 -0.2446  0.2924 -0.3144
11862TIP3    H157077   5.460   3.924  12.295  1.1148  1.3315  1.6397
11862TIP3    H257078   5.361   4.028  12.342 -0.9188  0.1780  0.0629
11863TIP3   OH257079   3.344   4.121   1.252  0.5103 -0.2739  0.2576
11863TIP3    H157080   3.278   4.147   1.187  0.5475 -0.6962  0.0410
11863TIP3    H257081   3.308   4.041   1.291  0.0443  0.4831  1.4399
11864TIP3   OH257082   1.057   2.559   0.439 -0.5143  0.1655  0.4870
11864TIP3    H157083   1.027   2.468   0.430  0.0733  0.0849 -0.8014
11864TIP3    H257084   1.115   2.556   0.516 -2.1217 -0.0836  1.7552
11865TIP3   OH257085   5.777   0.326   1.571 -0.4559  0.5200  0.3704
11865TIP3    H157086   5.850   0.292   1.621 -1.1992  0.6417  1.5912
11865TIP3    H257087   5.738   0.393   1.628 -2.0210 -0.1334  0.1244
11866TIP3   OH257088   5.948   5.824  12.725 -0.3637 -0.2336  0.1357
11866TIP3    H157089   6.030   5.867  12.699 -0.1066 -0.0125  1.2683
11866TIP3    H257090   5.960   5.732  12.701 -0.4264  0.0799 -1.1710
11867TIP3   OH257091   6.075   0.503   0.360  0.4516  0.2494 -0.6642
11867TIP3    H157092   6.098   0.592   0.389  1.2080 -0.3830  0.7618
11867TIP3    H257093   6.118   0.445   0.422 -0.9200 -1.1148 -0.9106
11868TIP3   OH257094   1.954   6.698   3.942  0.6437 -0.3836  0.4811
11868TIP3    H157095   1.887   6.729   4.002  0.2636  1.8829 -0.9876
11868TIP3    H257096   1.913   6.624   3.896  0.1344 -0.6910  1.4009
11869TIP3   OH257097   2.556   1.779   1.093 -0.3560 -0.0335  0.2440
11869TIP3    H157098   2.637   1.822   1.119 -1.1551  0.9613  1.1957
11869TIP3    H257099   2.584   1.695   1.056  1.1030  0.3582  0.4048
11870TIP3   OH257100   5.494   5.671   0.696  0.2853 -0.4591  0.5715
11870TIP3    H157101   5.567   5.642   0.641  0.1822  0.6585 -0.1938
11870TIP3    H257102   5.508   5.627   0.780  1.0060 -1.4201 -0.0234
11871TIP3   OH257103   6.257   1.103  13.366 -1.1187 -0.6033  0.0492
11871TIP3    H157104   6.302   1.095  13.450  1.3077 -0.4033 -1.1535
11871TIP3    H257105   6.281   1.190  13.334 -0.7579 -1.2464 -1.5119
11872TIP3   OH257106   0.004   1.490  12.931  0.2192 -0.2330 -0.4084
11872TIP3    H157107   0.045   1.478  12.846 -0.8030  1.6982 -1.2493
11872TIP3    H257108  -0.050   1.569  12.921  1.0391  0.8331  2.3597
11873TIP3   OH257109   5.280   2.088   5.158 -0.5920  0.5278  0.0431
11873TIP3    H157110   5.212   2.065   5.220 -3.8114  2.1422 -2.5939
11873TIP3    H257111   5.291   2.183   5.167  2.4674  0.1880  1.3250
11874TIP3   OH257112   5.140   0.564   5.392  0.5163  0.2560 -0.2352
11874TIP3    H157113   5.226   0.525   5.378  0.3426 -0.5358  0.7812
11874TIP3    H257114   5.146   0.606   5.478 -0.8449 -2.0374  1.0790
11875TIP3   OH257115   0.395   6.132  14.607 -0.2614  0.0594  0.1282
11875TIP3    H157116   0.428   6.067  14.546  4.6448  0.2441  2.1481
11875TIP3    H257117   0.344   6.082  14.671 -1.8776 -0.7054 -1.6499
11876TIP3   OH257118   4.149   2.167  12.094 -0.1569  0.2263  0.0363
11876TIP3    H157119   4.099   2.169  12.012 -0.9096 -2.5126  0.3453
11876TIP3    H257120   4.082   2.160  12.162  0.5628 -1.0764  0.6348
11877TIP3   OH257121   2.012   6.184   5.146  0.1254 -0.2404 -0.1307
11877TIP3    H157122   2.090   6.236   5.166 -1.2535  1.3148  1.6875
11877TIP3    H257123   2.028   6.100   5.189  0.3483  0.4773  1.2565
11878TIP3   OH257124   2.212   4.765   1.437  0.1287  0.6272  0.0185
11878TIP3    H157125   2.186   4.716   1.359 -0.6158 -0.1456  0.7256
11878TIP3    H257126   2.159   4.845   1.434 -0.8565  0.0063  0.3820
11879TIP3   OH257127   4.148   0.243  14.732 -0.3114  0.3765  0.0331
11879TIP3    H157128   4.127   0.151  14.750 -1.3832  0.5862 -0.1267
11879TIP3    H257129   4.065   0.289  14.739 -0.3212  0.9208 -2.7101
11880TIP3   OH257130   5.658   6.217   5.471  0.5653  0.2138 -0.4911
11880TIP3    H157131   5.639   6.300   5.426 -2.3819 -0.1725 -0.1636
11880TIP3    H257132   5.576   6.168   5.466  0.9517 -1.0296  2.8304
11881TIP3   OH257133   4.807   2.751  14.643  0.8315 -0.0199 -0.4392
11881TIP3    H157134   4.820   2.817  14.711 -1.6405  0.3913 -0.2849
11881TIP3    H257135   4.824   2.667  14.686  0.2920  0.3012  0.4087
11882TIP3   OH257136   0.605   2.849  12.459  0.2315 -0.1389  0.2069
11882TIP3    H157137   0.512   2.844  12.436 -0.0667  1.4118  0.9791
11882TIP3    H257138   0.613   2.793  12.537 -0.1674  0.1817  0.4780
11883TIP3   OH257139   3.513   4.178   2.249 -0.0388  0.0433  0.0033
11883TIP3    H157140   3.428   4.154   2.213 -0.4375 -0.8712  1.4533
11883TIP3    H257141   3.509   4.273   2.260 -1.0707 -0.0523  0.5111
11884TIP3   OH257142   4.327   0.077  15.379 -0.0918 -0.7700 -0.0240
11884TIP3    H157143   4.410   0.031  15.371 -0.6522 -1.6723 -1.0435
11884TIP3    H257144   4.345   0.166  15.347  0.6159 -0.7603  0.3879
11885TIP3   OH257145   4.574   0.844  14.591  0.3701  0.0785 -0.1128
11885TIP3    H157146   4.646   0.875  14.536 -0.3809 -0.5370 -1.4855
11885TIP3    H257147   4.533   0.774  14.540 -2.0759  1.3317 -0.0103
11886TIP3   OH257148   3.438   6.479  14.384 -0.4751  0.5929 -0.1435
11886TIP3    H157149   3.467   6.558  14.430 -0.3210  0.2496  0.3557
11886TIP3    H257150   3.380   6.435  14.447 -1.3157  0.7811 -0.7667
11887TIP3   OH257151   1.018   3.433  11.551 -0.5238  0.1179 -0.3549
11887TIP3    H157152   0.996   3.381  11.474 -2.2360 -1.1149  0.8917
11887TIP3    H257153   0.933   3.459  11.587  0.2359  0.8065  1.0313
11888TIP3   OH257154   4.454   7.054  11.055  0.0762  0.0172  0.5683
11888TIP3    H157155   4.490   6.966  11.058 -0.5179 -0.2686 -0.2321
11888TIP3    H257156   4.371   7.048  11.102 -0.9898 -0.3876 -1.2622
11889TIP3   OH257157   6.071   3.077   1.861  0.1218  0.0843 -0.7159
11889TIP3    H157158   6.003   3.125   1.908  0.5626  0.4581 -0.4558
11889TIP3    H257159   6.150   3.128   1.875  0.3941 -0.1774 -1.2868
11890TIP3   OH257160   3.650   6.709   9.879 -0.4368 -0.9389  0.3364
11890TIP3    H157161   3.728   6.653   9.886  0.9390  1.0303  1.6019
11890TIP3    H257162   3.631   6.735   9.969 -0.9231  0.7447 -0.2279
11891TIP3   OH257163   3.503   5.544  13.196 -0.2016 -0.0035  0.0881
11891TIP3    H157164   3.444   5.615  13.222 -0.5668 -0.6617  1.1100
11891TIP3    H257165   3.445   5.470  13.177  0.2725 -0.5834  0.8575
11892TIP3   OH257166   2.697   0.248  12.499 -0.3669  0.0894  0.4611
11892TIP3    H157167   2.775   0.233  12.552 -0.3852 -1.3252  0.1102
11892TIP3    H257168   2.731   0.277  12.414 -0.3589  3.7481  1.5446
11893TIP3   OH257169   5.494   6.639   2.688 -0.1206  0.1970  0.2116
11893TIP3    H157170   5.563   6.662   2.750 -0.2462 -0.0148  0.4350
11893TIP3    H257171   5.526   6.670   2.603 -0.6463  1.9022  0.6087
11894TIP3   OH257172   1.963   2.160   0.037  0.4408  0.0505 -0.0182
11894TIP3    H157173   1.908   2.214   0.095  1.3561  0.1498  0.7855
11894TIP3    H257174   1.922   2.073   0.041 -1.6329  0.8245 -2.1013
11895TIP3   OH257175   2.953   0.282   0.768  0.2273  0.1776 -0.2904
11895TIP3    H157176   2.866   0.283   0.726  0.0959 -0.5832 -0.0379
11895TIP3    H257177   2.940   0.330   0.850 -0.3496 -1.2464  0.4939
11896TIP3   OH257178   1.747   0.325   5.103 -0.3183  0.2807  0.4226
11896TIP3    H157179   1.737   0.338   5.198  0.0479 -0.6238  0.5894
11896TIP3    H257180   1.784   0.408   5.072 -1.0144  0.8150  0.9690
11897TIP3   OH257181   2.486   2.566   1.408  0.2231  0.4199  0.3530
11897TIP3    H157182   2.452   2.495   1.353 -0.1712  0.5002  0.4907
11897TIP3    H257183   2.457   2.646   1.364  0.6869  0.4980  0.1849
11898TIP3   OH257184   2.382   3.385  14.485  0.0005  0.4486  0.1314
11898TIP3    H157185   2.437   3.462  14.495  0.9128 -0.1670  0.0226
11898TIP3    H257186   2.311   3.397  14.548 -0.1956  1.6490 -0.3079
11899TIP3   OH257187   6.529   3.389   3.203 -0.1544 -0.2746  0.2724
11899TIP3    H157188   6.557   3.474   3.171  1.0276 -0.8506 -0.2731
11899TIP3    H257189   6.585   3.371   3.278  0.0953 -0.8856 -0.0537
11900TIP3   OH257190   3.650   4.528   2.089 -0.2497  0.1623  0.2160
11900TIP3    H157191   3.721   4.464   2.081 -1.4759 -1.0620 -2.3300
11900TIP3    H257192   3.692   4.613   2.079  0.9227 -0.5159 -0.8691
11901TIP3   OH257193   0.029   5.170   1.882 -0.6509  0.9486 -0.8340
11901TIP3    H157194   0.087   5.171   1.806 -0.2268 -1.1603 -0.6013
11901TIP3    H257195  -0.025   5.091   1.871 -0.9078  0.8511  0.7938
11902TIP3   OH257196   3.470   3.375  14.822  0.3868 -0.6110 -0.0251
11902TIP3    H157197   3.474   3.457  14.773  0.7632 -0.9621 -0.6001
11902TIP3    H257198   3.506   3.397  14.908 -0.4669  0.0617  0.1765
11903TIP3   OH257199   7.066   2.396   2.409 -0.0074 -0.0581  0.3996
11903TIP3    H157200   7.089   2.426   2.496  0.3970 -0.8296  0.5732
11903TIP3    H257201   7.082   2.301   2.411  0.1701 -0.0633 -0.5566
11904TIP3   OH257202   4.914   2.064  11.059  0.4251  0.4217 -0.2094
11904TIP3    H157203   4.842   2.114  11.098  0.6896  0.6956 -0.0723
11904TIP3    H257204   4.987   2.126  11.054  0.4805  0.3061 -0.8749
11905TIP3   OH257205   3.616   2.720   4.251 -0.2017 -0.1461  0.0509
11905TIP3    H157206   3.648   2.697   4.339  1.4888  0.1381 -0.4534
11905TIP3    H257207   3.687   2.695   4.193 -0.8945  0.5950 -1.1464
11906TIP3   OH257208   4.015   6.945  13.252 -0.2762  0.4414 -0.3974
11906TIP3    H157209   4.093   6.902  13.217  0.6794 -0.8487  2.8878
11906TIP3    H257210   3.964   6.874  13.290 -0.6986  1.7426  1.5974
11907TIP3   OH257211   4.389   0.343   5.135  0.1404 -0.3655 -0.3273
11907TIP3    H157212   4.395   0.275   5.202 -1.4426 -0.5745 -0.3665
11907TIP3    H257213   4.360   0.297   5.056 -0.4504  0.2606 -0.4898
11908TIP3   OH257214   3.547   0.371  11.432  0.1831 -0.2841 -0.2420
11908TIP3    H157215   3.608   0.419  11.487 -1.6457  0.9183  0.8451
11908TIP3    H257216   3.579   0.281  11.434  2.4703  0.4468 -0.5768
11909TIP3   OH257217   0.026   6.552   6.016  0.5528  0.1373  0.5522
11909TIP3    H157218   0.017   6.646   5.998 -2.4327 -0.3607 -1.1388
11909TIP3    H257219   0.064   6.516   5.936  0.8881 -0.2427  0.8788
11910TIP3   OH257220   3.678   2.360   3.995 -0.1030 -0.1551  0.7178
11910TIP3    H157221   3.704   2.369   3.903 -0.3131 -0.9670  0.5786
11910TIP3    H257222   3.583   2.358   3.993 -0.0994 -1.8739  0.7720
11911TIP3   OH257223   0.429   2.985   0.738 -0.4012 -0.1946 -0.3956
11911TIP3    H157224   0.495   3.051   0.758 -0.6923 -0.4130  1.4395
11911TIP3    H257225   0.479   2.909   0.709  0.1167 -0.1104  0.2510
11912TIP3   OH257226   5.680   7.047   0.616 -0.3014 -0.0510  0.0825
11912TIP3    H157227   5.750   6.987   0.640 -0.7120 -0.4736  0.2545
11912TIP3    H257228   5.603   7.014   0.664 -0.7576  0.0405 -0.5652
11913TIP3   OH257229   5.533   3.436  13.564  0.3264 -0.0217  0.3984
11913TIP3    H157230   5.542   3.409  13.473  0.1129  0.5664  0.1979
11913TIP3    H257231   5.475   3.512  13.561  0.1149 -0.1469  1.0491
11914TIP3   OH257232   4.609   2.326   4.029  0.1697  0.5541 -0.0623
11914TIP3    H157233   4.591   2.234   4.014  0.1920  0.6592 -0.7783
11914TIP3    H257234   4.698   2.339   3.994  0.6787  0.5753  1.1911
11915TIP3   OH257235   5.416   5.241  14.238  0.1670  0.0701 -0.7391
11915TIP3    H157236   5.465   5.322  14.220  0.6128 -0.1765 -0.6505
11915TIP3    H257237   5.326   5.262  14.214  0.0259  1.0183  0.5366
11916TIP3   OH257238   7.125   2.534   3.385  0.7477  0.4978 -0.1893
11916TIP3    H157239   7.181   2.480   3.442  1.9746 -3.1193 -4.2918
11916TIP3    H257240   7.186   2.581   3.329 -0.3690  1.3095 -0.7650
11917TIP3   OH257241   5.725   4.701  15.026 -0.3760 -0.5444 -0.0470
11917TIP3    H157242   5.731   4.654  14.943  0.6937 -2.1145  0.8687
11917TIP3    H257243   5.815   4.716  15.052 -0.7023  0.2823  0.6488
11918TIP3   OH257244   0.647   1.650  12.011 -0.2003  0.6362 -0.0398
11918TIP3    H157245   0.605   1.670  11.928  0.2541 -1.0921 -0.7239
11918TIP3    H257246   0.731   1.696  12.008  0.0457  0.1501 -0.7823
11919TIP3   OH257247   0.530   2.414   1.675 -0.3088 -0.3823 -0.4506
11919TIP3    H157248   0.497   2.480   1.615  0.4877 -0.7627 -1.3222
11919TIP3    H257249   0.618   2.444   1.697 -0.8638  0.1726  1.1763
11920TIP3   OH257250   6.144   5.549  11.958  0.0180  0.1502  0.5485
11920TIP3    H157251   6.069   5.492  11.943  0.2025 -0.0670  0.4433
11920TIP3    H257252   6.205   5.528  11.887 -0.6739  1.7896 -0.6093
11921TIP3   OH257253   5.084   3.207   5.344  0.3996  0.0309  0.4095
11921TIP3    H157254   5.102   3.127   5.294 -0.6937 -0.1910  0.3489
11921TIP3    H257255   5.161   3.262   5.330  1.1037 -0.9595  0.3455
11922TIP3   OH257256   3.023   2.535  12.155 -0.1974 -0.2783 -0.2311
11922TIP3    H157257   2.968   2.468  12.115  1.0010 -0.8980 -0.8820
11922TIP3    H257258   3.019   2.609  12.095 -1.1080  0.0680  0.2310
11923TIP3   OH257259   1.689   4.465  12.937  0.0667 -0.6179  0.0110
11923TIP3    H157260   1.753   4.504  12.877 -1.7207  0.6366 -1.1921
11923TIP3    H257261   1.713   4.499  13.023  0.4309  0.6375 -0.5659
11924TIP3   OH257262   4.375   3.842  14.883  0.0903 -0.3845  0.2907
11924TIP3    H157263   4.464   3.853  14.850 -0.3133 -0.5908 -0.9416
11924TIP3    H257264   4.351   3.930  14.914 -0.0931  0.2969 -1.6006
11925TIP3   OH257265   0.258   1.768   3.101 -0.0355 -0.6272 -0.2615
11925TIP3    H157266   0.244   1.811   3.017 -0.5533  0.1874  0.2277
11925TIP3    H257267   0.318   1.696   3.082  1.7948  1.0125 -0.9052
11926TIP3   OH257268   6.125   3.193   5.357 -0.0234 -0.1952  0.2533
11926TIP3    H157269   6.101   3.136   5.284  1.0827 -0.6220  0.2011
11926TIP3    H257270   6.174   3.137   5.417  0.6106  0.5608  0.4641
11927TIP3   OH257271   0.405   6.985   1.997  0.0691 -0.1526  0.5338
11927TIP3    H157272   0.325   7.008   2.046  1.3004  0.4348  2.3859
11927TIP3    H257273   0.470   7.050   2.026  1.5217 -1.2888 -0.0702
11928TIP3   OH257274   2.521   6.704   0.507  0.0227  0.0249 -0.5528
11928TIP3    H157275   2.426   6.696   0.495  0.1141 -1.2921 -0.5011
11928TIP3    H257276   2.558   6.644   0.443  0.6988 -2.5032  2.0309
11929TIP3   OH257277   4.088   1.680   3.023 -0.5287  0.3028 -0.3411
11929TIP3    H157278   4.159   1.726   2.977 -0.9378 -0.1272 -1.4100
11929TIP3    H257279   4.011   1.692   2.968 -0.3571 -2.9279 -1.4771
11930TIP3   OH257280   7.040   0.757  14.407 -0.1847 -0.2109 -0.0191
11930TIP3    H157281   6.985   0.682  14.427 -1.4393  0.9496  1.0294
11930TIP3    H257282   7.130   0.722  14.407 -0.6739 -1.5292  1.2389
11931TIP3   OH257283   4.910   2.704  12.813 -0.3285 -0.4391 -0.3070
11931TIP3    H157284   4.993   2.685  12.857 -1.3133  1.3911  2.6263
11931TIP3    H257285   4.886   2.622  12.770  1.4681 -1.9796  1.4375
11932TIP3   OH257286   6.443   2.847   1.647 -0.0782 -0.0340  0.5895
11932TIP3    H157287   6.423   2.940   1.649 -3.3451 -0.6417  1.5751
11932TIP3    H257288   6.399   2.811   1.724  1.9637 -2.2959  0.8264
11933TIP3   OH257289   1.883   1.129   2.926 -0.2110  0.1125  0.7308
11933TIP3    H157290   1.849   1.089   3.007 -0.8862  0.9852  0.8988
11933TIP3    H257291   1.818   1.196   2.904 -0.0916 -0.1957 -0.6143
11934TIP3   OH257292   7.151   1.837  14.881 -0.4051  0.1051  0.2139
11934TIP3    H157293   7.231   1.874  14.919  0.3724 -1.0069 -0.2797
11934TIP3    H257294   7.159   1.853  14.787  0.7071 -2.5485 -0.2301
11935TIP3   OH257295   7.211   1.397   0.725 -0.2715 -0.3010  0.5221
11935TIP3    H157296   7.283   1.455   0.748 -0.1424 -1.0912  2.2799
11935TIP3    H257297   7.142   1.417   0.789 -0.4108 -1.7053  0.8541
11936TIP3   OH257298   1.073   3.467   2.745  0.8310 -0.1009 -0.0335
11936TIP3    H157299   1.146   3.527   2.754 -0.3341  1.3305  0.2507
11936TIP3    H257300   1.103   3.386   2.786  2.3446  0.3638 -0.1920
11937TIP3   OH257301   3.129   0.169   3.883 -0.3028  0.0651  0.5556
11937TIP3    H157302   3.171   0.202   3.804  1.1262 -1.9947  0.3722
11937TIP3    H257303   3.198   0.170   3.949 -1.4689  1.7459  1.8535
11938TIP3   OH257304   2.801   2.323   0.407 -0.3477 -0.1261  0.0584
11938TIP3    H157305   2.878   2.359   0.452  0.2143  1.3610 -1.9412
11938TIP3    H257306   2.831   2.239   0.372  0.0565 -0.0115  0.1268
11939TIP3   OH257307   4.056   0.743  13.322 -0.6683 -0.2463 -0.4918
11939TIP3    H157308   4.090   0.691  13.250  1.1588  0.5390 -0.2371
11939TIP3    H257309   4.043   0.680  13.394  0.6332 -0.5136 -0.4779
11940TIP3   OH257310   5.898   6.481   2.949 -0.0565  0.4169  0.0076
11940TIP3    H157311   5.951   6.406   2.977 -0.4478  0.5692  1.1839
11940TIP3    H257312   5.810   6.460   2.979 -0.1249  1.4598  0.5575
11941TIP3   OH257313   2.262   2.438   1.260  0.1539 -0.3495  0.2270
11941TIP3    H157314   2.226   2.349   1.252  0.2636 -0.2985 -1.0192
11941TIP3    H257315   2.324   2.445   1.188 -0.6916  1.1373 -0.4064
11942TIP3   OH257316   1.830   4.767  15.263 -0.0827 -0.4355  0.1649
11942TIP3    H157317   1.747   4.815  15.259  0.3748  0.2680 -2.0171
11942TIP3    H257318   1.880   4.813  15.330 -0.7064  0.3804  0.0894
11943TIP3   OH257319   1.376   5.945   0.383  0.2338 -0.0544  0.0332
11943TIP3    H157320   1.459   5.984   0.354 -1.1799  1.8821 -1.7067
11943TIP3    H257321   1.362   5.872   0.323  0.8906 -0.7322  0.6758
11944TIP3   OH257322   1.410   2.461   4.702  0.1153 -0.7081 -0.1734
11944TIP3    H157323   1.492   2.478   4.656  0.8441 -0.7561  1.0547
11944TIP3    H257324   1.428   2.384   4.756 -0.9631 -1.1448 -0.4042
11945TIP3   OH257325   1.615   5.846  14.349  0.2572 -0.3658  0.4830
11945TIP3    H157326   1.681   5.826  14.282  1.8947 -0.2200  1.9960
11945TIP3    H257327   1.539   5.877  14.299  1.6426  0.3481 -1.2779
11946TIP3   OH257328   2.341   5.042  14.316  0.8705 -0.0692  0.1691
11946TIP3    H157329   2.390   4.971  14.273  2.1916  0.4296  0.8088
11946TIP3    H257330   2.308   5.003  14.397  1.2689 -0.0612  0.3354
11947TIP3   OH257331   6.677   1.976   4.449 -0.2136 -0.1134  0.6593
11947TIP3    H157332   6.688   1.971   4.544 -0.2960 -0.3959  0.6566
11947TIP3    H257333   6.655   2.067   4.432 -0.0778 -0.0349  0.8988
11948TIP3   OH257334   5.129   1.176  12.110 -0.1127  0.2383  0.2693
11948TIP3    H157335   5.085   1.138  12.034  0.6982 -3.4406  1.4386
11948TIP3    H257336   5.057   1.206  12.166 -1.1356 -2.4343  0.5640
11949TIP3   OH257337   3.067   0.321  14.957 -0.4948  0.1182  0.0254
11949TIP3    H157338   3.076   0.384  14.886 -1.3371 -0.5049 -0.6548
11949TIP3    H257339   3.019   0.247  14.918  2.6231 -2.1056  0.0540
11950TIP3   OH257340   3.507   2.549   4.983 -0.8784  0.0168  0.2764
11950TIP3    H157341   3.592   2.507   4.982 -1.1074 -0.4555  0.3034
11950TIP3    H257342   3.520   2.629   5.034 -0.6102 -0.3919  0.8624
11951TIP3   OH257343   3.858   5.423   1.373  0.1299 -0.3043  0.8829
11951TIP3    H157344   3.868   5.416   1.278  1.0238 -0.6726  0.9965
11951TIP3    H257345   3.861   5.517   1.392  0.4435 -0.2555  0.5946
11952TIP3   OH257346   2.983   0.942  11.606 -0.1366 -0.0899  0.1903
11952TIP3    H157347   3.063   0.993  11.619 -0.6398  0.7202  0.1761
11952TIP3    H257348   2.977   0.931  11.511 -1.0220  1.5235  0.0025
11953TIP3   OH257349   0.928   4.077   4.107 -0.3726 -0.3556  0.1292
11953TIP3    H157350   0.837   4.107   4.104 -0.5314 -0.6655  1.2150
11953TIP3    H257351   0.951   4.060   4.016 -1.2017  0.3099 -0.2168
11954TIP3   OH257352   4.831   2.605   0.365  0.1593 -0.0356  0.2451
11954TIP3    H157353   4.856   2.627   0.454  3.4085  0.0806 -0.5810
11954TIP3    H257354   4.856   2.682   0.313  1.0872 -1.1979 -1.1230
11955TIP3   OH257355   3.024   1.184  11.888  0.0466 -0.1171  0.0735
11955TIP3    H157356   3.023   1.089  11.898 -0.9209 -0.1323 -0.0419
11955TIP3    H257357   2.943   1.213  11.930 -0.6923  0.4657 -1.6552
11956TIP3   OH257358   4.407   3.255   2.486  0.4093  0.4442 -0.2778
11956TIP3    H157359   4.430   3.169   2.451 -0.6563 -0.5787  1.4051
11956TIP3    H257360   4.377   3.305   2.410 -1.5961 -1.5998 -0.9301
11957TIP3   OH257361   5.611   4.215   0.835 -0.1853  0.1173 -0.3247
11957TIP3    H157362   5.581   4.186   0.748  1.0911 -1.6162 -0.2491
11957TIP3    H257363   5.596   4.309   0.835  0.2948  0.2671 -2.6670
11958TIP3   OH257364   4.098   0.075   1.387  0.6419 -0.3926 -0.0985
11958TIP3    H157365   4.130   0.164   1.404 -0.5836 -0.1226  0.9866
11958TIP3    H257366   4.070   0.077   1.295 -0.6147  0.7750  0.2724
11959TIP3   OH257367   2.851   5.639  13.685  0.1168  0.2034 -0.4201
11959TIP3    H157368   2.892   5.583  13.619  0.8805 -1.4679  1.3946
11959TIP3    H257369   2.893   5.615  13.767 -2.2010  0.8039  1.0340
11960TIP3   OH257370   3.393   6.941   4.758 -0.6294 -0.3121  0.0956
11960TIP3    H157371   3.334   6.930   4.683 -0.5745  2.8433 -0.5611
11960TIP3    H257372   3.335   6.971   4.829 -0.1235  1.0929 -0.0492
11961TIP3   OH257373   5.049   6.087   4.231  0.1997  0.2473 -0.1158
11961TIP3    H157374   4.957   6.111   4.240 -0.4364 -2.4188  1.3855
11961TIP3    H257375   5.061   6.073   4.137 -1.0787  0.0715 -0.2707
11962TIP3   OH257376   3.159   5.998   0.615 -0.0516  0.4024  0.0029
11962TIP3    H157377   3.150   6.079   0.565  0.0430  0.8435  0.6874
11962TIP3    H257378   3.079   5.948   0.595  0.9574 -0.4282 -2.3009
11963TIP3   OH257379   1.748   1.243  13.782 -0.0378 -0.3780  0.0024
11963TIP3    H157380   1.775   1.163  13.736  0.8198  0.0023 -0.1811
11963TIP3    H257381   1.653   1.234  13.792  0.3135 -2.6908  2.3951
11964TIP3   OH257382   3.153   1.938   3.246  0.0474  0.2480 -0.3163
11964TIP3    H157383   3.101   1.989   3.184  1.0068  1.2060 -0.3441
11964TIP3    H257384   3.214   2.000   3.284  0.0538 -0.5065  0.9756
11965TIP3   OH257385   6.068   2.554   3.775 -0.6752 -0.4287  0.7530
11965TIP3    H157386   6.017   2.505   3.840 -0.9365  0.7922  1.4978
11965TIP3    H257387   6.154   2.512   3.776 -0.8027 -0.6967  1.5867
11966TIP3   OH257388   6.843   1.173  14.171 -0.7134 -0.2302  0.1656
11966TIP3    H157389   6.837   1.086  14.132  0.9974 -0.0795 -0.5558
11966TIP3    H257390   6.933   1.201  14.152 -0.7705  1.1023  1.6453
11967TIP3   OH257391   5.841   5.406   0.084  0.1440  0.0323 -0.3008
11967TIP3    H157392   5.786   5.461   0.028  1.4375  0.9236 -0.7601
11967TIP3    H257393   5.816   5.430   0.173 -1.5702 -1.0190 -0.4588
11968TIP3   OH257394   3.262   2.962  14.059  0.1559 -0.1933 -0.0984
11968TIP3    H157395   3.208   2.962  14.138  0.2989  0.3066  0.0035
11968TIP3    H257396   3.305   2.877  14.058  0.5967  0.0160  0.6644
11969TIP3   OH257397   6.060   2.737  12.416  0.4005 -0.0656  0.5615
11969TIP3    H157398   6.033   2.800  12.483  0.6410  0.9712 -0.2932
11969TIP3    H257399   6.107   2.790  12.351 -1.1480 -0.7634 -1.2022
11970TIP3   OH257400   0.529   5.827   0.721 -0.2316 -0.3749 -0.1493
11970TIP3    H157401   0.531   5.744   0.672  2.8118 -1.3646  1.3830
11970TIP3    H257402   0.513   5.801   0.811 -0.4909  0.8601  0.1776
11971TIP3   OH257403   6.766   6.148   5.889  0.1155 -0.1062  0.4930
11971TIP3    H157404   6.756   6.080   5.821 -0.2853 -0.4444  0.8798
11971TIP3    H257405   6.703   6.216   5.864 -0.0190 -0.2225  0.5127
11972TIP3   OH257406   1.087   4.204   1.647  0.4938  0.5714 -0.7711
11972TIP3    H157407   0.999   4.235   1.629  0.5312  0.1900 -1.6396
11972TIP3    H257408   1.109   4.242   1.732 -0.1065  1.5151 -1.0298
11973TIP3   OH257409   4.403   4.285   3.558 -1.0941 -0.1921  0.1012
11973TIP3    H157410   4.313   4.318   3.565 -1.1786 -0.3752 -0.1129
11973TIP3    H257411   4.415   4.231   3.636 -0.8187  0.6584  0.6691
11974TIP3   OH257412   3.362   4.933   0.705  0.4784  0.2168  0.3074
11974TIP3    H157413   3.339   5.023   0.683 -1.7316 -0.2137  0.5750
11974TIP3    H257414   3.400   4.938   0.793  0.8498  0.9434  0.1036
11975TIP3   OH257415   2.797   2.781  15.295 -0.0385  0.2177  0.0415
11975TIP3    H157416   2.860   2.744  15.232  1.9986  0.6462  1.7204
11975TIP3    H257417   2.728   2.715  15.300  2.0116 -2.0801  0.7109
11976TIP3   OH257418   6.843   2.612  13.736 -0.1631 -0.0569 -0.4013
11976TIP3    H157419   6.758   2.644  13.765 -0.0408  1.9908 -2.1047
11976TIP3    H257420   6.902   2.687  13.744  1.2263 -1.1187 -0.2942
11977TIP3   OH257421   5.091   3.976   3.092 -0.7414  0.1319  0.3181
11977TIP3    H157422   5.046   4.033   3.031  1.0675  1.2899 -0.0271
11977TIP3    H257423   5.112   4.032   3.167 -0.3301 -0.4901  0.6786
11978TIP3   OH257424   5.743   3.574   4.798  0.1919  0.5436  0.2498
11978TIP3    H157425   5.782   3.491   4.770 -0.1374 -1.0765  3.9533
11978TIP3    H257426   5.664   3.548   4.845 -1.6329  3.2743 -1.0616
11979TIP3   OH257427   3.489   4.625   0.894 -0.3917 -0.1549 -0.1179
11979TIP3    H157428   3.464   4.559   0.830 -1.5415 -0.0501  0.2031
11979TIP3    H257429   3.428   4.613   0.967 -0.6964  1.3251 -0.0976
11980TIP3   OH257430   0.195   3.238   4.969  0.2736  0.1250 -0.1694
11980TIP3    H157431   0.268   3.214   5.026  0.2585 -2.2564 -1.0448
11980TIP3    H257432   0.209   3.187   4.889 -1.6049  0.6684 -0.8977
11981TIP3   OH257433   0.007   5.209  15.106  0.2124 -0.8958  0.1599
11981TIP3    H157434   0.060   5.283  15.136  1.2799 -1.8887  0.8020
11981TIP3    H257435  -0.048   5.246  15.037  0.4089  0.5896  0.7513
11982TIP3   OH257436   3.147   6.212   1.745  0.2624 -0.1044  0.5711
11982TIP3    H157437   3.168   6.293   1.791  0.4304 -0.2227  0.7073
11982TIP3    H257438   3.116   6.153   1.814  0.0741 -0.1328  0.4622
11983TIP3   OH257439   5.007   2.881  15.404 -0.4232 -0.1795 -0.2461
11983TIP3    H157440   4.929   2.826  15.390  0.8554 -2.1654  0.0563
11983TIP3    H257441   5.034   2.861  15.494  0.6909  0.1275 -0.5030
11984TIP3   OH257442   1.833   1.742   9.851  0.1856 -0.2679  0.0232
11984TIP3    H157443   1.894   1.775   9.785  0.3105  0.3250  0.4229
11984TIP3    H257444   1.760   1.804   9.848  0.9053  0.7217  1.5321
11985TIP3   OH257445   4.187   0.047   4.518 -0.5285  0.0888  0.2229
11985TIP3    H157446   4.222  -0.042   4.523  0.7412  0.4499 -1.3383
11985TIP3    H257447   4.261   0.103   4.542 -0.8054  0.7834 -0.5120
11986TIP3   OH257448   6.825   3.173  10.273  0.4381  0.0433  0.8316
11986TIP3    H157449   6.831   3.079  10.259 -0.2991 -0.1348  1.6165
11986TIP3    H257450   6.909   3.207  10.242 -0.4586 -0.4316 -2.5609
11987TIP3   OH257451   5.379   0.509  13.681  0.1408  0.8032  0.7323
11987TIP3    H157452   5.415   0.514  13.770 -0.7571  1.3808  1.0882
11987TIP3    H257453   5.429   0.572  13.631 -0.3106  1.5543  1.2041
11988TIP3   OH257454   3.759   6.309   3.159  0.3647  0.3480  0.2066
11988TIP3    H157455   3.757   6.401   3.130 -1.3049 -0.5575 -3.0692
11988TIP3    H257456   3.668   6.290   3.181  0.2479 -1.0380 -1.2928
11989TIP3   OH257457   0.135   5.943   3.935 -0.2790 -0.5443  0.3064
11989TIP3    H157458   0.206   5.908   3.880  0.3042  0.3619  0.4737
11989TIP3    H257459   0.121   5.875   4.001 -0.4875 -1.3245 -0.5120
11990TIP3   OH257460   6.978   4.935   4.740  0.0552 -0.2790 -0.1194
11990TIP3    H157461   6.928   4.971   4.667 -0.4557 -1.1693 -0.2178
11990TIP3    H257462   6.968   4.999   4.811 -1.6457 -0.6703  0.0290
11991TIP3   OH257463   3.225   4.842   4.476 -0.2889  0.0955  0.2979
11991TIP3    H157464   3.223   4.878   4.387 -2.1730  0.1989  0.3304
11991TIP3    H257465   3.298   4.886   4.519 -0.0477  0.8686 -0.8663
11992TIP3   OH257466   4.860   4.580   4.553  0.0119 -0.0796 -0.7563
11992TIP3    H157467   4.765   4.572   4.558  0.1424 -1.8457 -0.6547
11992TIP3    H257468   4.883   4.544   4.467  0.6694 -0.6002 -0.3697
11993TIP3   OH257469   6.048   7.014   1.484 -0.4837  0.1019  0.1392
11993TIP3    H157470   6.129   7.056   1.512 -1.3150  1.8179  0.0654
11993TIP3    H257471   6.009   6.981   1.565  0.0935 -0.4111  0.2154
11994TIP3   OH257472   2.211   1.405  12.773 -0.2400  0.1167 -0.0736
11994TIP3    H157473   2.137   1.349  12.749  0.0431  0.5060 -2.0289
11994TIP3    H257474   2.191   1.490  12.733 -0.8037  1.6017  3.0640
11995TIP3   OH257475   1.553   5.754   3.712  0.5077 -0.0939 -0.0450
11995TIP3    H157476   1.555   5.764   3.807  1.4334 -0.9660  0.0437
11995TIP3    H257477   1.637   5.786   3.682  0.7356 -0.9983 -0.4219
11996TIP3   OH257478   5.839   3.883   3.643 -0.3732  0.1580 -0.4272
11996TIP3    H157479   5.801   3.966   3.672  0.1620  0.2076  0.1441
11996TIP3    H257480   5.874   3.844   3.722 -0.5851 -0.6031 -0.7027
11997TIP3   OH257481   6.781   1.078   4.954  0.0664 -0.6854  0.3548
11997TIP3    H157482   6.721   1.117   4.891  0.5799 -0.8393 -0.2471
11997TIP3    H257483   6.805   1.150   5.013 -2.0210 -1.0105  1.6821
11998TIP3   OH257484   5.370   3.790  15.304 -0.1929  0.0337 -0.1835
11998TIP3    H157485   5.365   3.745  15.220 -1.4184 -0.9259  0.3663
11998TIP3    H257486   5.462   3.815  15.313  0.1106 -0.5640 -1.4323
11999TIP3   OH257487   3.830   2.231  14.606  0.3328 -0.3713 -0.3534
11999TIP3    H157488   3.913   2.241  14.561  0.1572  0.2826 -0.5412
11999TIP3    H257489   3.798   2.145  14.579  2.0156 -1.6661  1.5174
12000TIP3   OH257490   1.809   3.960  14.007  0.1615  0.1291  0.5414
12000TIP3    H157491   1.875   4.001  14.063  1.2591  0.9362 -1.2827
12000TIP3    H257492   1.851   3.951  13.922 -1.7918 -0.1748 -0.4476
12001TIP3   OH257493   0.989   5.818  13.369 -0.5105  0.3059  0.0346
12001TIP3    H157494   0.905   5.862  13.383 -0.2889  0.0595  2.4387
12001TIP3    H257495   0.968   5.725  13.367 -0.3074  0.2473  0.5546
12002TIP3   OH257496   0.153   3.789   0.213  0.5083  0.1617  1.0905
12002TIP3    H157497   0.104   3.714   0.177 -1.6603  1.3660  1.3786
12002TIP3    H257498   0.192   3.755   0.294 -0.1640 -0.7479  1.0499
12003TIP3   OH257499   4.794   2.995  15.223  0.7232  0.2646 -0.5568
12003TIP3    H157500   4.756   3.081  15.240  0.5021  0.2436 -0.9220
12003TIP3    H257501   4.887   3.011  15.213  0.4931  0.7331 -2.3126
12004TIP3   OH257502   6.584   1.455   5.610 -0.0274 -0.0286  0.3602
12004TIP3    H157503   6.496   1.421   5.623  0.4782 -0.7882  2.0725
12004TIP3    H257504   6.607   1.495   5.694  1.1273  0.4737 -0.1772
12005TIP3   OH257505   5.098   4.329  14.411 -0.1917 -0.8375  0.6568
12005TIP3    H157506   5.114   4.414  14.451  0.0442 -0.8240  0.5327
12005TIP3    H257507   5.006   4.310  14.431 -0.7568  0.2062 -0.7396
12006TIP3   OH257508   6.873   6.275   3.143  0.0971  0.2512 -0.3113
12006TIP3    H157509   6.809   6.230   3.088  0.0113 -0.5682  0.4368
12006TIP3    H257510   6.954   6.225   3.131  0.0676  0.0467  0.3191
12007TIP3   OH257511   6.070   6.847   0.265 -0.3169  0.1458  0.0662
12007TIP3    H157512   6.074   6.942   0.279 -2.7863  0.8422 -2.7661
12007TIP3    H257513   6.013   6.815   0.334 -1.5741  1.2203 -0.4258
12008TIP3   OH257514   3.862   2.499  12.095  0.2079  0.5875  0.6098
12008TIP3    H157515   3.925   2.485  12.166  0.1759 -2.0515  0.2193
12008TIP3    H257516   3.909   2.474  12.015 -1.2362 -1.4510  0.3133
12009TIP3   OH257517   2.547   2.321   1.145 -0.4026 -0.4347  0.0437
12009TIP3    H157518   2.623   2.268   1.122 -0.5224 -0.4871 -0.2396
12009TIP3    H257519   2.472   2.263   1.129 -0.4502 -0.7567  1.3577
12010TIP3   OH257520   3.211   0.217  10.908 -0.5196  0.2838  0.1203
12010TIP3    H157521   3.133   0.224  10.963 -0.3689 -0.9870  0.5182
12010TIP3    H257522   3.241   0.307  10.898 -1.0671  0.6303  1.3807
12011TIP3   OH257523   3.887   5.346  14.879 -0.4514  0.3348  0.4124
12011TIP3    H157524   3.904   5.326  14.786  3.4055 -2.9841  1.5218
12011TIP3    H257525   3.810   5.293  14.901 -0.6447  0.1637 -0.6250
12012TIP3   OH257526   3.200   0.194   1.601 -0.3813 -0.0170  0.1139
12012TIP3    H157527   3.200   0.274   1.653  2.1923  0.7377 -0.8685
12012TIP3    H257528   3.250   0.216   1.522  1.7642 -2.9178  0.4651
12013TIP3   OH257529   4.634   2.467   4.775  0.4358 -0.4203  0.0230
12013TIP3    H157530   4.595   2.415   4.845 -0.5334  0.2183 -0.0307
12013TIP3    H257531   4.705   2.515   4.818 -0.2546  0.0902  0.6259
12014TIP3   OH257532   5.070   2.744   5.380 -0.7003  0.4053 -0.8671
12014TIP3    H157533   5.115   2.790   5.309 -0.3762  0.2566 -0.7606
12014TIP3    H257534   5.055   2.656   5.346 -1.0943  0.5127 -0.9769
12015TIP3   OH257535   3.500   2.857  11.531 -0.3065  0.0965 -0.1768
12015TIP3    H157536   3.511   2.845  11.625  0.0463  0.6827 -0.1381
12015TIP3    H257537   3.471   2.771  11.499 -0.3679 -0.1229  0.4538
12016TIP3   OH257538   7.036   5.309  14.941 -0.8156 -0.4867  0.0609
12016TIP3    H157539   7.043   5.371  14.868  1.8055 -0.1525  0.5005
12016TIP3    H257540   6.977   5.352  15.003  0.5565  1.4320  0.1355
12017TIP3   OH257541   4.370   5.211  15.361  0.1824 -0.1399  0.1261
12017TIP3    H157542   4.409   5.137  15.407 -0.2776 -1.3395 -1.3337
12017TIP3    H257543   4.442   5.273  15.349  0.9557 -1.0415  0.0037
12018TIP3   OH257544   4.686   3.215  13.285  0.1728 -0.2689  0.0728
12018TIP3    H157545   4.769   3.170  13.301 -0.8106 -1.1485  3.8047
12018TIP3    H257546   4.689   3.292  13.341 -1.3761 -0.1476  0.0501
12019TIP3   OH257547   7.096   0.955  13.819 -0.0561 -0.4720 -0.3227
12019TIP3    H157548   7.065   0.937  13.730 -1.7602 -0.0949  0.1474
12019TIP3    H257549   7.191   0.954  13.812 -0.1458 -0.8279 -2.0674
12020TIP3   OH257550   6.604   7.051  14.036 -0.0233  0.2617  0.0294
12020TIP3    H157551   6.649   6.968  14.023  2.5348  1.1999  1.9461
12020TIP3    H257552   6.608   7.065  14.131 -3.1522  1.1777  0.1368
12021TIP3   OH257553   5.124   1.757  12.359  0.7906  0.0984  0.0617
12021TIP3    H157554   5.073   1.692  12.310 -0.8596  0.9201  0.6273
12021TIP3    H257555   5.108   1.840  12.314  1.0373  0.4943  0.6834
12022TIP3   OH257556   0.596   6.119   3.310  0.3152  0.2635 -0.1512
12022TIP3    H157557   0.642   6.137   3.229  1.2325  1.8528  0.6707
12022TIP3    H257558   0.665   6.097   3.373 -0.3226 -0.3778  0.3505
12023TIP3   OH257559   1.907   2.655  14.770 -0.1357  0.0410  0.0969
12023TIP3    H157560   1.937   2.645  14.861 -0.6145  0.5856  0.3214
12023TIP3    H257561   1.975   2.708  14.728 -1.5830  2.8624  1.0806
12024TIP3   OH257562   5.092   1.025  14.448 -0.7346 -0.1576  0.2914
12024TIP3    H157563   5.167   1.006  14.392 -0.7048  0.3097  0.1693
12024TIP3    H257564   5.093   0.955  14.513  0.0661  0.0690  0.5502
12025TIP3   OH257565   5.446   4.434   0.811 -0.1890  0.1716  0.7178
12025TIP3    H157566   5.414   4.428   0.901 -3.1148  1.2613 -0.1395
12025TIP3    H257567   5.466   4.527   0.800 -0.5567  0.1677  0.0241
12026TIP3   OH257568   4.037   1.912   4.997  0.1871 -0.0346  0.1950
12026TIP3    H157569   4.058   1.989   4.944 -1.1353  0.3102  0.1433
12026TIP3    H257570   4.001   1.849   4.935 -0.3221 -0.0502  0.5017
12027TIP3   OH257571   0.946   5.716   3.344  0.4787 -0.0599  0.1506
12027TIP3    H157572   0.940   5.812   3.342 -0.8176 -0.1464 -1.5096
12027TIP3    H257573   0.859   5.687   3.369  0.8384 -0.8417  0.5455
12028TIP3   OH257574   5.760   7.033  12.537  0.1942 -0.2407 -0.0583
12028TIP3    H157575   5.841   7.070  12.572  1.3348 -2.3417 -0.3232
12028TIP3    H257576   5.729   6.974  12.605 -1.0487  0.4234 -0.0310
12029TIP3   OH257577   5.790   2.271   4.510  0.0296  0.2342  0.2315
12029TIP3    H157578   5.841   2.344   4.547 -0.6418  1.4166 -1.0514
12029TIP3    H257579   5.853   2.223   4.456  0.3860  0.1152  0.7509
12030TIP3   OH257580   4.539   3.905  13.669  0.5675 -0.2038 -0.0968
12030TIP3    H157581   4.492   3.937  13.592  2.0104  0.4488 -0.7527
12030TIP3    H257582   4.536   3.977  13.731  1.1365  0.0435 -0.3487
12031TIP3   OH257583   6.443   5.187   3.119 -0.3202  0.3801 -0.3993
12031TIP3    H157584   6.521   5.151   3.077  0.6947  0.0038  1.6771
12031TIP3    H257585   6.466   5.277   3.141 -1.4206  1.1057 -1.9867
12032TIP3   OH257586   5.891   1.584   0.452  0.5202  0.2108 -0.2509
12032TIP3    H157587   5.836   1.660   0.471  1.2236  0.6269  0.1286
12032TIP3    H257588   5.838   1.532   0.391 -0.0044  0.9505 -0.4425
12033TIP3   OH257589   5.543   3.000  14.930  0.2145 -0.4058  0.2335
12033TIP3    H157590   5.557   2.972  14.839  2.0278  1.7000 -0.2270
12033TIP3    H257591   5.629   2.994  14.971  1.0218  4.4936 -0.0580
12034TIP3   OH257592   3.259   1.109   9.842  0.5064  0.0318 -0.3398
12034TIP3    H157593   3.185   1.081   9.789 -1.2625  1.0038  1.4476
12034TIP3    H257594   3.336   1.084   9.792 -1.0164 -1.1913 -2.2097
12035TIP3   OH257595   0.768   0.857   0.892  0.3736 -0.2423 -0.1502
12035TIP3    H157596   0.819   0.893   0.965  0.6711 -0.5839 -0.1887
12035TIP3    H257597   0.682   0.836   0.930  0.9016 -1.5136  0.3833
12036TIP3   OH257598   3.119   6.280  10.735  0.4695  0.2726  0.4930
12036TIP3    H157599   3.212   6.290  10.718  0.3687  0.2504 -0.1044
12036TIP3    H257600   3.092   6.363  10.774  0.3970  0.9266 -0.9192
12037TIP3   OH257601   3.179   1.646   5.934 -0.1820 -0.5394 -0.3381
12037TIP3    H157602   3.188   1.737   5.963  0.0381 -1.2590  2.0714
12037TIP3    H257603   3.269   1.615   5.925 -0.2086 -1.2462  1.4847
12038TIP3   OH257604   2.194   6.762   1.139  0.0559  0.0004 -0.0074
12038TIP3    H157605   2.142   6.710   1.077 -1.0353  0.5675  0.4157
12038TIP3    H257606   2.136   6.776   1.214  0.9819  0.2566  0.6821
12039TIP3   OH257607   6.536   2.432   0.678  0.0410  0.0142  0.1411
12039TIP3    H157608   6.603   2.466   0.619  0.1735 -0.7376 -0.1419
12039TIP3    H257609   6.472   2.390   0.621 -0.3680  0.1944  0.4570
12040TIP3   OH257610   6.504   5.453   4.809 -0.2986  0.4592  0.6102
12040TIP3    H157611   6.555   5.475   4.731  0.5043  1.5045  1.3904
12040TIP3    H257612   6.557   5.484   4.882 -1.5162  0.4929  1.5239
12041TIP3   OH257613   5.486   0.020  12.242 -0.2722  0.5161 -0.1783
12041TIP3    H157614   5.521   0.082  12.306  2.1470 -0.3844 -0.5329
12041TIP3    H257615   5.492  -0.065  12.285 -0.1496  0.0974 -1.0193
12042TIP3   OH257616   0.363   5.505   2.669 -0.0101  0.8961  0.5749
12042TIP3    H157617   0.402   5.521   2.583 -0.9457  0.5995  0.0899
12042TIP3    H257618   0.434   5.523   2.731  1.8879 -2.5321 -0.3880
12043TIP3   OH257619   5.368   6.702  13.818  0.0722 -0.1182 -0.2266
12043TIP3    H157620   5.302   6.760  13.778 -0.9349  0.7040  2.3757
12043TIP3    H257621   5.438   6.761  13.846  0.1112 -0.4635  0.4220
12044TIP3   OH257622   0.727   0.320  14.542  0.3734  0.3405  0.3717
12044TIP3    H157623   0.725   0.286  14.452  0.2691  0.3619  0.3652
12044TIP3    H257624   0.728   0.242  14.597 -2.6684  0.2244  0.4496
12045TIP3   OH257625   7.157   2.841   4.396  0.4408 -0.0754 -0.3152
12045TIP3    H157626   7.067   2.828   4.365 -0.4414  1.9895  1.1248
12045TIP3    H257627   7.171   2.769   4.457 -0.3379 -0.2800 -0.3570
12046TIP3   OH257628   2.763   6.862  14.820 -0.2036  0.0534  0.0130
12046TIP3    H157629   2.668   6.856  14.822 -0.4871  2.6242 -1.8857
12046TIP3    H257630   2.788   6.824  14.736  0.5180 -0.9121  0.6408
12047TIP3   OH257631   7.134   6.863   0.028  0.3839 -0.6703  0.1970
12047TIP3    H157632   7.118   6.807  -0.048  0.3413 -1.6367  0.8953
12047TIP3    H257633   7.153   6.949  -0.009 -0.5647 -0.8935 -0.8720
12048TIP3   OH257634   6.794   3.317   1.238  0.3287  0.3373 -0.2268
12048TIP3    H157635   6.783   3.315   1.143  1.3537 -0.3186 -0.3512
12048TIP3    H257636   6.706   3.328   1.273  0.1316  2.9332 -1.2966
12049TIP3   OH257637   6.223   5.098   2.496  0.3981 -0.5779  0.1461
12049TIP3    H157638   6.193   5.053   2.575  0.7278 -1.2420 -0.1038
12049TIP3    H257639   6.179   5.183   2.499 -1.3870 -1.4641 -0.1517
12050TIP3   OH257640   0.157   3.242  14.675 -0.3295 -0.1249 -0.0490
12050TIP3    H157641   0.075   3.209  14.639 -0.1186  0.6070 -1.2390
12050TIP3    H257642   0.219   3.170  14.663 -0.3867 -0.0696 -0.6738
12051TIP3   OH257643   3.446   0.088  13.848  0.9086  0.0453 -0.1353
12051TIP3    H157644   3.428  -0.005  13.830 -0.1064  0.3957 -1.0539
12051TIP3    H257645   3.432   0.131  13.763  0.5487  1.1452  0.4719
12052TIP3   OH257646   1.239   0.555   3.331 -0.4345  0.6517 -0.3831
12052TIP3    H157647   1.284   0.580   3.251 -1.2325  1.3654 -0.6258
12052TIP3    H257648   1.234   0.459   3.327  1.0949  0.5431 -0.3019
12053TIP3   OH257649   1.550   0.990  14.150 -0.3593  0.3572  0.3794
12053TIP3    H157650   1.611   1.062  14.161 -1.2435  1.1900  0.0347
12053TIP3    H257651   1.466   1.025  14.181 -1.3641  0.3767 -2.1088
12054TIP3   OH257652   2.889   3.815   1.258  0.0477  0.1329  0.2575
12054TIP3    H157653   2.837   3.895   1.268 -1.3544 -0.7528  0.3721
12054TIP3    H257654   2.860   3.758   1.329  3.1912  0.5661  2.0591
12055TIP3   OH257655   5.696   5.575   3.498 -0.1133  0.5268 -0.1522
12055TIP3    H157656   5.732   5.499   3.454  0.0304  0.0060  0.8475
12055TIP3    H257657   5.662   5.542   3.581  0.5525  1.6548  0.5983
12056TIP3   OH257658   2.981   5.255  15.266  0.3296 -0.4182 -0.1286
12056TIP3    H157659   2.973   5.180  15.324  0.4418 -0.0947  0.3173
12056TIP3    H257660   2.912   5.315  15.295  0.7404 -0.0195  0.0356
12057TIP3   OH257661   2.036   3.692   4.540  0.2081  0.2736 -0.8282
12057TIP3    H157662   2.023   3.785   4.560 -1.7748 -0.0597 -0.3263
12057TIP3    H257663   1.947   3.656   4.535  0.7977 -1.1009 -3.5352
12058TIP3   OH257664   4.801   4.722   2.956 -0.7572  0.0243 -0.7884
12058TIP3    H157665   4.885   4.744   2.916 -1.0567  0.7921 -1.0056
12058TIP3    H257666   4.737   4.775   2.908 -1.4416 -0.9656 -1.0074
12059TIP3   OH257667   6.432   5.231   3.897  0.4173 -0.0311  0.2762
12059TIP3    H157668   6.515   5.232   3.849  0.5785 -1.2690  0.4743
12059TIP3    H257669   6.430   5.314   3.943  0.7246  0.7659 -1.0904
12060TIP3   OH257670   5.215   7.174   1.077 -0.0727 -0.0770 -0.1758
12060TIP3    H157671   5.266   7.247   1.110  1.7825 -0.1346 -2.6279
12060TIP3    H257672   5.261   7.096   1.109 -1.7402 -0.2643  1.9852
12061TIP3   OH257673   1.343   0.246   3.329 -0.1521 -0.3646 -0.3151
12061TIP3    H157674   1.350   0.263   3.235 -0.3301  1.5276 -0.0241
12061TIP3    H257675   1.418   0.190   3.349  1.3188  1.1860 -1.1909
12062TIP3   OH257676   5.973   3.223   9.325 -0.4129  0.0929  0.0338
12062TIP3    H157677   6.006   3.270   9.401 -1.0946 -0.9377  1.0052
12062TIP3    H257678   5.902   3.278   9.292 -0.2081  0.4796  0.2273
12063TIP3   OH257679   1.790   5.790   2.986 -0.0705 -0.1943 -0.3323
12063TIP3    H157680   1.751   5.768   3.070  0.1098 -2.0350 -0.6780
12063TIP3    H257681   1.735   5.860   2.951 -0.1883  0.5557  1.2501
12064TIP3   OH257682   3.266   1.669   3.205  0.0591  0.0374  0.1468
12064TIP3    H157683   3.198   1.608   3.235  0.9149 -1.2964 -0.5007
12064TIP3    H257684   3.232   1.756   3.226 -1.9422 -0.5700 -0.3425
12065TIP3   OH257685   5.097   5.582  12.132  0.0973  0.0542 -0.3900
12065TIP3    H157686   5.086   5.528  12.210  1.1016  1.3411  0.6994
12065TIP3    H257687   5.159   5.533  12.077 -0.3635 -0.7061 -0.2390
12066TIP3   OH257688   2.054   0.212  15.004  0.1014 -0.0945 -0.4364
12066TIP3    H157689   2.004   0.167  15.072  0.8488 -0.7808 -0.3314
12066TIP3    H257690   2.061   0.302  15.035  1.4683 -0.6596  1.0151
12067TIP3   OH257691   0.893   5.471   3.168  0.8880 -0.8589 -0.2103
12067TIP3    H157692   0.881   5.534   3.097 -0.8786 -1.0970 -0.1672
12067TIP3    H257693   0.847   5.509   3.243  1.1320 -1.4787  0.2661
12068TIP3   OH257694   5.031   1.055  13.322 -0.2683 -0.1284  0.2129
12068TIP3    H157695   5.112   1.102  13.343 -0.7181  0.9334 -0.3649
12068TIP3    H257696   4.991   1.105  13.252 -0.3709 -1.8606 -1.0286
12069TIP3   OH257697   4.979   4.176   2.951  0.4598  0.4069 -0.1266
12069TIP3    H157698   4.895   4.190   2.908  1.3017  0.2123 -1.9203
12069TIP3    H257699   5.036   4.243   2.914  1.2639  0.1233  0.5875
12070TIP3   OH257700   0.507   2.561   2.832 -0.0555  0.2500  0.3116
12070TIP3    H157701   0.574   2.570   2.899 -0.1832  2.2900  0.2315
12070TIP3    H257702   0.427   2.541   2.880  0.8118 -4.4318  0.2887
12071TIP3   OH257703   4.438   4.240   3.168 -0.0449 -0.3175 -0.2428
12071TIP3    H157704   4.513   4.292   3.141 -0.2320  0.1068  0.0290
12071TIP3    H257705   4.440   4.162   3.113  0.7293 -0.4213 -0.0727
12072TIP3   OH257706   0.358   5.330   3.515  0.0579 -0.6236  0.1711
12072TIP3    H157707   0.351   5.311   3.421 -0.4032 -3.3318  0.6728
12072TIP3    H257708   0.446   5.301   3.539  0.2878  0.3505  0.5223
12073TIP3   OH257709   5.098   0.519  13.184  0.2006 -0.5170 -0.2335
12073TIP3    H157710   5.118   0.612  13.175 -0.6312 -0.0811  1.9299
12073TIP3    H257711   5.183   0.476  13.186  0.5886  0.0569 -2.0091
12074TIP3   OH257712   6.434   5.954  15.109  0.2837  1.0346 -0.3023
12074TIP3    H157713   6.493   6.003  15.051 -0.3999  1.4019 -0.7040
12074TIP3    H257714   6.440   5.864  15.078  0.2408  1.1582 -0.6831
12075TIP3   OH257715   6.473   4.329  15.055  0.8266 -1.0024 -0.4128
12075TIP3    H157716   6.483   4.328  15.150  1.9385  0.1014 -0.5049
12075TIP3    H257717   6.562   4.317  15.021  1.0658  2.3559 -1.2884
12076TIP3   OH257718   3.675   2.693  14.413 -0.8432 -0.0690  0.0895
12076TIP3    H157719   3.663   2.729  14.325 -0.4765 -0.6064 -0.1803
12076TIP3    H257720   3.649   2.765  14.471 -2.3957 -0.1337 -0.4516
12077TIP3   OH257721   0.998   4.552   1.765 -0.0898  0.1328  0.2957
12077TIP3    H157722   0.941   4.486   1.805  1.7880 -2.0808 -0.4249
12077TIP3    H257723   1.064   4.570   1.832 -1.0749  2.0127  0.8074
12078TIP3   OH257724   3.471   3.416   4.078 -0.1072  0.2579 -0.4734
12078TIP3    H157725   3.392   3.464   4.054 -0.0786  0.7541  0.3854
12078TIP3    H257726   3.518   3.403   3.996 -0.2382  1.4805 -0.7492
12079TIP3   OH257727   2.759   6.693   1.415  0.1022  0.4657  0.5594
12079TIP3    H157728   2.779   6.600   1.404 -0.1202  0.2522  1.8116
12079TIP3    H257729   2.668   6.695   1.445 -1.0253  1.2889 -2.5819
12080TIP3   OH257730   1.001   6.446  13.884 -0.2387 -0.0682 -0.3601
12080TIP3    H157731   0.918   6.492  13.893 -0.4258 -0.6924  1.3555
12080TIP3    H257732   0.977   6.356  13.860  0.0049  0.0030 -0.8967
12081TIP3   OH257733   4.307   0.779  11.135 -0.0469 -0.7783 -0.3486
12081TIP3    H157734   4.370   0.840  11.173 -1.8581 -0.1304  1.8849
12081TIP3    H257735   4.344   0.692  11.151  1.7395 -0.4006 -2.0158
12082TIP3   OH257736   5.993   5.723   5.192 -0.5273  0.4556  0.1613
12082TIP3    H157737   6.078   5.763   5.170 -0.4984 -0.3232 -1.2920
12082TIP3    H257738   6.005   5.688   5.280  0.3107  1.2824  0.3964
12083TIP3   OH257739   2.016   2.218   3.896 -0.2438  0.4403 -0.3304
12083TIP3    H157740   2.062   2.287   3.943 -0.8235  0.6978 -0.1380
12083TIP3    H257741   1.980   2.260   3.819 -0.4835  0.3254 -0.2834
12084TIP3   OH257742   5.823   1.192   1.003 -0.2014  0.1542 -0.0487
12084TIP3    H157743   5.807   1.136   1.079  1.9234 -2.0394 -1.1022
12084TIP3    H257744   5.872   1.266   1.038 -1.4023  0.4615  1.0726
12085TIP3   OH257745   6.655   6.665   3.564  0.1035 -0.3158 -0.6160
12085TIP3    H157746   6.673   6.576   3.536  0.8609 -0.2417 -0.3863
12085TIP3    H257747   6.565   6.681   3.537 -0.2760 -1.3911 -0.0216
12086TIP3   OH257748   7.086   0.454   2.779  0.0193 -0.1320  0.0750
12086TIP3    H157749   7.174   0.490   2.772 -1.1072  2.4323 -2.7846
12086TIP3    H257750   7.034   0.525   2.817 -1.6561  0.2214 -2.6715
12087TIP3   OH257751   3.620   5.496  14.697 -0.3361 -0.2444 -0.5661
12087TIP3    H157752   3.573   5.490  14.780  0.1806  0.7876 -0.1729
12087TIP3    H257753   3.690   5.431  14.704  0.3019  0.5065  0.2327
12088TIP3   OH257754   2.082   0.025  12.791 -0.5044 -0.0945 -0.0488
12088TIP3    H157755   2.135  -0.001  12.716  0.1481  0.0335  0.3665
12088TIP3    H257756   2.036   0.104  12.762  0.7535  0.7173  0.1241
12089TIP3   OH257757   2.528   0.916   0.041  0.3770  0.1798 -0.2415
12089TIP3    H157758   2.470   0.840   0.048 -0.3442  0.7696  0.4065
12089TIP3    H257759   2.588   0.908   0.115  1.5283 -0.7351 -1.2352
12090TIP3   OH257760   1.421   4.244  15.378 -0.4143 -0.2104 -0.0559
12090TIP3    H157761   1.456   4.326  15.413  0.3142 -1.2835  1.8621
12090TIP3    H257762   1.493   4.181  15.388 -0.3375 -0.7861 -3.0572
12091TIP3   OH257763   3.834   1.377  12.551 -0.6276  0.2274 -0.3506
12091TIP3    H157764   3.814   1.330  12.470 -0.6278 -1.6519  0.6833
12091TIP3    H257765   3.765   1.442  12.559 -2.7893 -1.9769 -0.0421
12092TIP3   OH257766   0.860   4.067   0.837 -0.0304  0.2236 -0.1145
12092TIP3    H157767   0.845   4.147   0.785  0.8537 -0.0079 -0.7557
12092TIP3    H257768   0.909   4.010   0.778  1.4264  0.1326  1.1148
12093TIP3   OH257769   3.231   2.820   2.638  0.3464  0.9017 -0.4124
12093TIP3    H157770   3.135   2.815   2.641  0.4041 -0.6883  2.2920
12093TIP3    H257771   3.254   2.785   2.552 -1.4595 -2.2565  0.2253
12094TIP3   OH257772   6.260   1.941  15.147 -0.2636  0.4580  0.0050
12094TIP3    H157773   6.266   1.975  15.237 -1.5919 -0.1580  0.3587
12094TIP3    H257774   6.303   2.007  15.094  0.7291  0.7447  1.1140
12095TIP3   OH257775   5.149   1.668  14.363  0.1298  0.3738 -0.2705
12095TIP3    H157776   5.219   1.610  14.391  0.1661  0.3027 -0.5090
12095TIP3    H257777   5.083   1.610  14.325  0.5371  0.5557 -1.2848
12096TIP3   OH257778   3.283   5.112   5.176  0.4640  0.0836 -0.0075
12096TIP3    H157779   3.220   5.175   5.141 -0.2020  0.9872  2.5356
12096TIP3    H257780   3.364   5.129   5.127  0.0081  2.2655 -0.1187
12097TIP3   OH257781   1.519   1.124   2.677 -0.9982 -0.6993 -0.2164
12097TIP3    H157782   1.440   1.160   2.719 -0.6162 -0.2121  0.0972
12097TIP3    H257783   1.558   1.198   2.631  1.3564  0.1059  2.7721
12098TIP3   OH257784   3.504   0.308  13.981 -0.0476 -0.1156  0.0616
12098TIP3    H157785   3.471   0.219  13.971 -2.2799  0.5973  0.4291
12098TIP3    H257786   3.442   0.362  13.932 -0.7150  1.5573  2.5817
12099TIP3   OH257787   4.854   2.637   4.871 -0.0636  0.2466  0.4236
12099TIP3    H157788   4.892   2.627   4.783 -1.6996  2.4754 -0.6311
12099TIP3    H257789   4.843   2.731   4.882 -2.5988 -0.1279  1.7895
12100TIP3   OH257790   6.955   2.206   9.827  0.5620  0.5255 -0.2005
12100TIP3    H157791   6.871   2.218   9.871  1.3618 -1.1262  1.9290
12100TIP3    H257792   6.960   2.112   9.810  2.0639  0.5685 -0.1117
12101TIP3   OH257793   1.876   3.895   3.240  0.5607  0.7806 -0.2697
12101TIP3    H157794   1.802   3.879   3.299  0.5185  1.5696 -0.0942
12101TIP3    H257795   1.897   3.988   3.254  2.9110  0.0977  1.1932
12102TIP3   OH257796   2.698   1.220   1.606  0.2507  0.0565 -0.2894
12102TIP3    H157797   2.685   1.313   1.590  1.5473  0.9194  2.9655
12102TIP3    H257798   2.612   1.188   1.633  0.0986  0.6106 -0.1102
12103TIP3   OH257799   2.081   0.580  10.858 -0.0282  0.6050  0.0050
12103TIP3    H157800   2.022   0.506  10.871  0.6794 -0.1276 -0.8110
12103TIP3    H257801   2.071   0.633  10.937 -1.0528  0.0041  0.3034
12104TIP3   OH257802   6.866   3.891  12.930  0.3662 -0.1579 -0.0856
12104TIP3    H157803   6.777   3.923  12.911  0.2394 -1.7442 -2.6493
12104TIP3    H257804   6.853   3.821  12.994 -0.1149  0.2096  0.2333
12105TIP3   OH257805   0.458   6.723   2.962 -0.1732  0.1983  0.2013
12105TIP3    H157806   0.494   6.806   2.930 -1.8088  0.2421 -1.7026
12105TIP3    H257807   0.516   6.656   2.926 -0.4933  0.3981 -0.7243
12106TIP3   OH257808   6.593   0.901   1.138 -0.6871  0.5988  0.2688
12106TIP3    H157809   6.524   0.959   1.106  0.4701  1.2632 -1.0778
12106TIP3    H257810   6.620   0.939   1.222 -1.2183  0.9235  0.2957
12107TIP3   OH257811   1.155   6.658   4.570 -0.0471 -0.2857 -0.5220
12107TIP3    H157812   1.207   6.591   4.526  1.7536  0.9201 -0.3340
12107TIP3    H257813   1.120   6.711   4.499  1.6428  0.7819 -0.5974
12108TIP3   OH257814   2.843   6.449   2.716 -0.3654 -0.9686  0.5432
12108TIP3    H157815   2.834   6.398   2.636 -2.7984 -1.1082  0.8351
12108TIP3    H257816   2.798   6.398   2.783 -0.5462  0.3167  1.4500
12109TIP3   OH257817   4.907   0.261   0.404  0.4892  0.0644 -0.1579
12109TIP3    H157818   4.888   0.223   0.490  0.3802 -0.8245 -0.5731
12109TIP3    H257819   4.821   0.272   0.364  0.6539 -1.6765 -1.0612
12110TIP3   OH257820   1.435   3.169  13.290  0.2224  0.0962  0.2798
12110TIP3    H157821   1.373   3.220  13.342  0.2697  0.4838 -0.0436
12110TIP3    H257822   1.470   3.105  13.352  0.6849  0.9054  0.8673
12111TIP3   OH257823   3.870   2.174   2.027 -0.3865  0.3459  0.1656
12111TIP3    H157824   3.930   2.181   2.101  0.7937 -0.2230 -0.6955
12111TIP3    H257825   3.895   2.092   1.984 -2.1019 -0.1348  0.0304
12112TIP3   OH257826   4.325   6.315  13.436  0.2833 -0.4445  0.4119
12112TIP3    H157827   4.412   6.275  13.438  0.0232 -1.1786 -1.0379
12112TIP3    H257828   4.306   6.325  13.342 -0.5899  1.0603  0.7281
12113TIP3   OH257829   2.206   0.765   1.164  0.0773 -0.1093  0.0358
12113TIP3    H157830   2.130   0.823   1.174  1.0547  1.6135 -1.8201
12113TIP3    H257831   2.278   0.813   1.204  0.4421 -1.2152  0.7405
12114TIP3   OH257832   5.775   3.160   1.750 -1.1258  0.5984  0.3558
12114TIP3    H157833   5.784   3.212   1.671 -1.9965  2.1768  1.2491
12114TIP3    H257834   5.806   3.217   1.820  3.6363 -2.1174  0.8823
12115TIP3   OH257835   6.986   3.226   3.400  0.4419 -0.4108  0.4356
12115TIP3    H157836   7.011   3.289   3.332  1.5607 -0.1968  1.0273
12115TIP3    H257837   7.027   3.144   3.374  1.7611 -0.0771  1.3701
12116TIP3   OH257838   4.205   1.985   3.349 -0.0254 -0.3514 -0.1571
12116TIP3    H157839   4.282   1.961   3.297 -0.2454  0.1541 -0.7269
12116TIP3    H257840   4.237   2.049   3.412  0.1842 -0.7539  0.1506
12117TIP3   OH257841   0.655   6.639  15.010 -0.8365 -0.1519  0.1723
12117TIP3    H157842   0.572   6.594  15.024 -0.5228 -0.5486  0.7667
12117TIP3    H257843   0.638   6.729  15.038 -1.1590 -0.1473 -0.0295
12118TIP3   OH257844   6.997   0.019  13.931  0.1989  0.3393  0.2344
12118TIP3    H157845   7.027   0.009  13.841  0.4587 -0.8320  0.4319
12118TIP3    H257846   7.064  -0.023  13.984 -0.4232  0.1572  0.9037
12119TIP3   OH257847   3.695   3.376   3.479  0.3449  0.3233 -0.0652
12119TIP3    H157848   3.650   3.301   3.517  0.3157  1.5459  2.5587
12119TIP3    H257849   3.625   3.435   3.451  0.3708 -0.3835 -1.7204
12120TIP3   OH257850   0.719   6.551   1.305 -0.3991  0.2006  0.4841
12120TIP3    H157851   0.652   6.552   1.237 -0.3335  0.9994  0.4189
12120TIP3    H257852   0.686   6.610   1.373 -0.0111  0.1808  0.6958
12121TIP3   OH257853   3.831   5.676   4.394 -0.6433  0.2141 -0.0877
12121TIP3    H157854   3.906   5.618   4.411 -0.1852  0.5688 -0.8316
12121TIP3    H257855   3.800   5.650   4.307  0.2493  1.7760 -0.9178
12122TIP3   OH257856   1.985   0.145   5.431 -0.6866 -0.1799  0.3395
12122TIP3    H157857   1.924   0.214   5.403 -0.8793  0.7758  2.8436
12122TIP3    H257858   1.947   0.112   5.512  1.6068 -0.2203  1.4676
12123TIP3   OH257859   7.122   6.103   4.666  0.2678  0.4529 -0.2641
12123TIP3    H157860   7.031   6.133   4.659 -0.1020 -0.4665  0.5425
12123TIP3    H257861   7.136   6.051   4.587 -0.1539 -0.0358 -0.0229
12124TIP3   OH257862   6.627   0.112  15.055  0.1336 -0.0918  0.2610
12124TIP3    H157863   6.583   0.067  14.983  1.7467  1.3370 -1.7286
12124TIP3    H257864   6.556   0.157  15.101 -1.0063 -1.4714 -0.0771
12125TIP3   OH257865   1.056   2.376  11.532  0.0211 -0.5239 -0.3765
12125TIP3    H157866   1.039   2.282  11.540  0.3052 -0.4525  2.1343
12125TIP3    H257867   1.001   2.415  11.600  0.2900  1.0901 -1.0500
12126TIP3   OH257868   5.964   4.234  15.235 -0.2588 -0.4649 -0.3222
12126TIP3    H157869   6.023   4.304  15.264  0.9826 -1.5486 -0.1268
12126TIP3    H257870   5.879   4.277  15.226  0.5036  1.1186 -0.4340
12127TIP3   OH257871   1.509   5.288  13.026  0.6252 -0.3592 -0.2422
12127TIP3    H157872   1.561   5.287  13.106 -0.4399  0.5307  0.4871
12127TIP3    H257873   1.560   5.340  12.964  0.4419  0.8189  0.5823
12128TIP3   OH257874   2.066   2.793  14.591 -0.3779  0.2215 -0.1162
12128TIP3    H157875   2.120   2.837  14.525  2.4126 -1.1608  1.0561
12128TIP3    H257876   2.122   2.791  14.669 -2.2095 -1.2230  1.2373
12129TIP3   OH257877   0.056   2.086   0.462 -0.3427 -0.1014  0.6778
12129TIP3    H157878   0.041   2.145   0.535 -0.2257 -0.2436  0.8174
12129TIP3    H257879   0.113   2.135   0.402  1.5003 -0.8112  1.7634
12130TIP3   OH257880   3.055   3.065  14.929 -0.1257  0.1660  0.0570
12130TIP3    H157881   3.132   3.017  14.959  0.1473  0.5047 -0.0996
12130TIP3    H257882   3.080   3.157  14.934 -1.1692  0.3924  1.8388
12131TIP3   OH257883   5.788   4.697   1.304 -1.0994 -0.0410 -0.0296
12131TIP3    H157884   5.839   4.666   1.229  0.0822 -1.6861  1.3890
12131TIP3    H257885   5.697   4.675   1.282 -0.7794 -0.4393 -1.0076
12132TIP3   OH257886   6.203   4.114   4.336 -0.1254  0.7195  0.2080
12132TIP3    H157887   6.210   4.195   4.388 -0.5386  0.5109  0.5961
12132TIP3    H257888   6.258   4.051   4.383  0.1736  0.7627 -0.0796
12133TIP3   OH257889   0.764   3.150   5.168  0.1385 -0.4556  0.0882
12133TIP3    H157890   0.817   3.217   5.126 -0.8419  0.2185 -0.0887
12133TIP3    H257891   0.729   3.098   5.095  0.7046 -1.0205  0.2136
12134TIP3   OH257892   1.506   3.806  13.252 -0.4320 -0.3284  0.3824
12134TIP3    H157893   1.521   3.743  13.181 -0.8647  0.0399 -0.0387
12134TIP3    H257894   1.587   3.802  13.304 -0.9166 -2.1262  1.0742
12135TIP3   OH257895   0.351   1.999  10.260 -0.3167  0.1754  0.0222
12135TIP3    H157896   0.405   1.978  10.183  0.2863 -0.6844  0.6522
12135TIP3    H257897   0.370   2.090  10.279  0.8656 -0.0858  0.1720
12136TIP3   OH257898   6.074   6.329   0.434 -0.8616  0.0931 -0.0131
12136TIP3    H157899   6.159   6.287   0.421 -0.1368  0.3713  3.1545
12136TIP3    H257900   6.024   6.306   0.355  1.9255 -0.4878 -1.7566
12137TIP3   OH257901   1.413   3.447   2.257  0.1899  0.4101  0.0268
12137TIP3    H157902   1.448   3.381   2.197  0.5887 -0.0390  0.7371
12137TIP3    H257903   1.328   3.413   2.284  0.2413  0.3583  0.1229
12138TIP3   OH257904   6.933   6.771  13.273 -0.1822 -0.3317 -0.5215
12138TIP3    H157905   6.894   6.824  13.203  1.0508  1.4278  0.0593
12138TIP3    H257906   6.964   6.835  13.337 -0.0359 -1.8453  0.9887
12139TIP3   OH257907   3.014   6.172   4.581 -0.6790 -0.6235 -0.0270
12139TIP3    H157908   3.016   6.238   4.651  1.5495  0.0364 -0.6384
12139TIP3    H257909   2.989   6.091   4.625 -0.9116  0.0989  1.2199
12140TIP3   OH257910   5.803   4.323   1.788 -0.5363  0.6513  0.0773
12140TIP3    H157911   5.862   4.337   1.863 -0.8421 -0.7951  0.6385
12140TIP3    H257912   5.816   4.399   1.732 -0.4912  1.9235  1.7317
12141TIP3   OH257913   1.386   2.117   5.110  0.2299  0.3752  0.2924
12141TIP3    H157914   1.481   2.113   5.097  0.2978 -0.7938  0.9766
12141TIP3    H257915   1.376   2.130   5.204 -0.2731 -2.4222  0.6963
12142TIP3   OH257916   3.966   6.472  15.032  0.3090 -0.2533  0.2312
12142TIP3    H157917   3.951   6.508  14.945  2.1668  1.7782  0.6509
12142TIP3    H257918   4.061   6.463  15.038  0.2910  0.4752  2.3176
12143TIP3   OH257919   7.061   0.885  11.655 -0.1362  0.5343 -0.0194
12143TIP3    H157920   7.088   0.952  11.593  0.6707  0.7870  0.5779
12143TIP3    H257921   6.970   0.867  11.634  0.0467  0.8153 -1.0858
12144TIP3   OH257922   5.660   2.154  14.968 -0.2065 -0.0823 -0.5176
12144TIP3    H157923   5.644   2.233  15.021  1.4442  0.5691 -0.9437
12144TIP3    H257924   5.573   2.128  14.938 -1.0745  0.1090  1.6757
12145TIP3   OH257925   1.270   1.100  14.534 -0.2119 -0.2318 -1.0865
12145TIP3    H157926   1.307   1.013  14.519 -0.8384 -0.5062 -1.0592
12145TIP3    H257927   1.177   1.091  14.514 -0.2220  0.5236 -1.4223
12146TIP3   OH257928   1.217   4.600   1.295  0.2712 -0.1884 -0.6506
12146TIP3    H157929   1.214   4.601   1.199 -0.0481 -1.6815 -0.6671
12146TIP3    H257930   1.161   4.527   1.320 -1.1195  1.2813  0.7535
12147TIP3   OH257931   5.531   0.798   1.293  0.0786 -0.4169  0.7728
12147TIP3    H157932   5.623   0.781   1.312  0.3304  1.4042  1.4175
12147TIP3    H257933   5.506   0.868   1.354 -0.8995  1.1515 -1.2774
12148TIP3   OH257934   0.830   5.096  11.853  0.3757 -0.2164 -0.6642
12148TIP3    H157935   0.925   5.103  11.859  0.3208 -0.3054  0.3862
12148TIP3    H257936   0.805   5.040  11.926 -0.5093 -0.0109 -0.7945
12149TIP3   OH257937   6.875   6.170  11.049 -0.1397  0.0087 -0.4031
12149TIP3    H157938   6.969   6.177  11.065  0.1171  0.8119 -2.0555
12149TIP3    H257939   6.837   6.154  11.135  1.4727 -0.0361  0.3338
12150TIP3   OH257940   4.927   0.589  12.926  0.4621 -0.3234  0.2106
12150TIP3    H157941   4.900   0.593  13.018  1.8372  1.6255  0.5805
12150TIP3    H257942   4.927   0.680  12.896  0.9878 -0.8220 -1.4429
12151TIP3   OH257943   6.294   6.557  12.323  0.2271 -0.2756  0.2772
12151TIP3    H157944   6.351   6.634  12.325 -0.5188  0.2792  1.3316
12151TIP3    H257945   6.333   6.500  12.257  0.6508  1.1150 -0.7166
12152TIP3   OH257946   6.653   4.955   3.874  0.5972  0.5856  0.5543
12152TIP3    H157947   6.708   5.014   3.924  1.7384  0.6090 -0.6889
12152TIP3    H257948   6.579   4.937   3.932  1.3484  1.4286  1.8227
12153TIP3   OH257949   6.879   6.105  13.778  0.2753 -0.5583 -0.3643
12153TIP3    H157950   6.879   6.038  13.846  0.0150 -0.7290 -0.5331
12153TIP3    H257951   6.862   6.187  13.826 -0.2777 -0.7271 -0.2728
12154TIP3   OH257952   3.863   5.054  10.990  0.4047 -0.1757  0.0966
12154TIP3    H157953   3.924   5.016  11.052  0.6748 -0.9110 -0.6015
12154TIP3    H257954   3.783   5.002  11.000  0.8200 -1.0682 -0.9598
12155TIP3   OH257955   2.246   1.475   9.903 -0.3339  0.2373  0.0954
12155TIP3    H157956   2.266   1.383   9.887 -1.7006  0.0225 -0.5235
12155TIP3    H257957   2.241   1.514   9.816  1.9163  1.3340  0.3656
12156TIP3   OH257958   5.987   5.097   3.354 -0.3702  0.0518 -0.3432
12156TIP3    H157959   5.941   5.014   3.369 -1.0814  0.3014 -1.0806
12156TIP3    H257960   6.078   5.078   3.374 -0.7517 -0.5134  0.9506
12157TIP3   OH257961   2.574   3.132   4.999 -0.1366 -0.3164  0.1616
12157TIP3    H157962   2.636   3.061   5.016 -0.1045 -0.1222  0.8896
12157TIP3    H257963   2.562   3.132   4.904  1.6200  0.1658 -0.1022
12158TIP3   OH257964   4.337   1.935   3.772  0.9482  0.1264 -0.2429
12158TIP3    H157965   4.275   2.004   3.796 -0.2732 -0.4659 -1.5508
12158TIP3    H257966   4.410   1.982   3.732 -0.0200  0.6884 -1.4321
12159TIP3   OH257967   5.769   1.810   3.903 -0.4932  0.2461 -0.3056
12159TIP3    H157968   5.769   1.727   3.856  1.3240 -1.5615  2.5522
12159TIP3    H257969   5.679   1.820   3.934 -0.1673 -2.3768  1.8530
12160TIP3   OH257970   2.713   0.882   0.235 -0.5898 -0.4105 -0.1205
12160TIP3    H157971   2.792   0.936   0.239 -0.1589 -1.0851  0.6321
12160TIP3    H257972   2.745   0.792   0.227 -1.3063 -0.5575 -1.6087
12161TIP3   OH257973   7.088   5.095   2.648  0.1491  0.8486 -0.4840
12161TIP3    H157974   7.104   5.187   2.629  2.5319  0.7766  0.7964
12161TIP3    H257975   7.115   5.084   2.739  0.4030 -1.2095 -0.7608
12162TIP3   OH257976   6.363   2.453   2.843  0.2945 -0.3039 -0.5379
12162TIP3    H157977   6.270   2.429   2.849  0.4940 -1.2369 -1.0103
12162TIP3    H257978   6.363   2.549   2.846 -0.7079 -0.2822 -0.8186
12163TIP3   OH257979   5.393   0.242   4.747  0.1283  0.4802  0.0918
12163TIP3    H157980   5.376   0.158   4.790 -1.2950  0.1563 -1.0101
12163TIP3    H257981   5.316   0.296   4.768  0.5323  1.1432 -0.0837
12164TIP3   OH257982   2.009   4.040   0.048 -0.2444  0.0032 -0.3297
12164TIP3    H157983   2.034   4.106   0.112 -3.4982  0.4014  0.7070
12164TIP3    H257984   1.934   4.078   0.002 -0.9602 -2.1519 -1.0884
12165TIP3   OH257985   5.066   4.301   1.459 -0.7221  0.4564 -0.2096
12165TIP3    H157986   5.018   4.320   1.378  0.6619  0.8357 -0.9779
12165TIP3    H257987   5.024   4.223   1.494 -1.0051 -0.0337 -1.5904
12166TIP3   OH257988   5.941   4.310   3.843 -0.0001 -0.2696  0.2840
12166TIP3    H157989   5.932   4.378   3.775  0.6967  0.8614  1.2750
12166TIP3    H257990   6.035   4.305   3.859 -0.2203  0.3829  2.0140
12167TIP3   OH257991   0.005   3.491   3.172  0.0156 -0.7407  0.2598
12167TIP3    H157992   0.083   3.546   3.166 -0.6390  0.1429 -0.6915
12167TIP3    H257993   0.038   3.402   3.179  1.1094 -0.2941  1.1466
12168TIP3   OH257994   1.099   3.008  14.472 -0.6373 -0.0638 -0.4796
12168TIP3    H157995   1.130   3.013  14.563 -1.2585 -1.4739 -0.1667
12168TIP3    H257996   1.176   3.031  14.420  0.6862 -2.3215  0.3214
12169TIP3   OH257997   3.855   6.128  14.271  0.3211 -0.1521 -0.3514
12169TIP3    H157998   3.795   6.171  14.210 -2.5344 -1.4231  1.3382
12169TIP3    H257999   3.802   6.060  14.313  2.4156 -0.1072  2.6976
12170TIP3   OH258000   0.144   4.158   4.757 -0.4579 -0.5122  0.3580
12170TIP3    H158001   0.152   4.063   4.748  1.2091 -0.3869  0.2922
12170TIP3    H258002   0.198   4.194   4.687 -0.7020  0.4967  0.6699
12171TIP3   OH258003   3.542   2.539  14.866  0.0775 -0.1993  0.1526
12171TIP3    H158004   3.594   2.559  14.944 -0.2108 -0.0028  0.2959
12171TIP3    H258005   3.607   2.528  14.796  0.3181 -0.0703  0.3532
12172TIP3   OH258006   3.627   2.839   4.929 -0.1101  0.3416  0.3994
12172TIP3    H158007   3.589   2.915   4.886 -1.7876 -1.0271 -0.6670
12172TIP3    H258008   3.626   2.770   4.862 -0.2036 -1.0883  1.8048
12173TIP3   OH258009   7.020   2.678   0.961 -0.0035  0.0838 -0.2658
12173TIP3    H158010   6.986   2.766   0.944 -2.4819 -1.0105 -1.4127
12173TIP3    H258011   6.945   2.620   0.948  1.4658 -2.1974  0.8029
12174TIP3   OH258012   0.316   6.616  15.397  0.6168 -0.4086  0.5479
12174TIP3    H158013   0.292   6.586  15.484 -0.2792 -0.7554  0.1922
12174TIP3    H258014   0.296   6.710  15.398  0.3705 -0.4618  0.6337
12175TIP3   OH258015   5.842   1.732  15.047 -0.0843  0.2325  0.4329
12175TIP3    H158016   5.909   1.800  15.035  0.8575 -0.8225 -0.5974
12175TIP3    H258017   5.765   1.766  15.002  0.0858  1.0023  0.7056
12176TIP3   OH258018   4.113   3.258   3.628  0.1724 -0.4682 -0.3605
12176TIP3    H158019   4.070   3.204   3.694  0.8060 -0.6735 -0.1070
12176TIP3    H258020   4.144   3.335   3.675  1.0480 -0.8370 -0.3024
12177TIP3   OH258021   0.043   5.146   5.141  0.3537 -0.5245 -0.4652
12177TIP3    H158022   0.130   5.141   5.180 -0.1140  0.5368  0.7910
12177TIP3    H258023   0.021   5.239   5.144 -1.0870 -0.8525 -0.1640
12178TIP3   OH258024   6.938   0.211  10.624  0.0588 -0.1194 -0.3767
12178TIP3    H158025   6.958   0.176  10.711  0.0815  0.1816 -0.2569
12178TIP3    H258026   6.927   0.305  10.639  0.2505 -0.0391 -0.7339
12179TIP3   OH258027   5.939   2.833   2.368 -0.4263  0.1999 -0.2835
12179TIP3    H158028   5.855   2.857   2.406 -0.2891  0.7520 -0.3237
12179TIP3    H258029   6.003   2.889   2.412 -0.1818  0.3576 -0.8341
12180TIP3   OH258030   4.420   2.935   4.716 -0.7884  0.2335  0.2487
12180TIP3    H158031   4.350   2.921   4.652 -1.2044 -0.7034  0.8861
12180TIP3    H258032   4.434   2.849   4.755  2.0411 -0.0325 -1.1409
12181TIP3   OH258033   0.924   5.557  13.456 -0.1790 -0.3661 -0.2234
12181TIP3    H158034   0.869   5.479  13.465  0.2693 -0.8043 -1.1634
12181TIP3    H258035   0.965   5.568  13.542 -1.8144  0.0470  0.5370
12182TIP3   OH258036   4.549   4.602   0.635 -0.4763  0.4308 -0.6186
12182TIP3    H158037   4.508   4.521   0.607  0.4503  0.4175 -2.0854
12182TIP3    H258038   4.555   4.655   0.555  0.8161  1.0850 -0.1234
12183TIP3   OH258039   2.818   4.503  12.464  0.1964  0.2757  0.0439
12183TIP3    H158040   2.751   4.563  12.431 -1.2239 -1.6354 -0.8047
12183TIP3    H258041   2.883   4.498  12.394 -0.4690 -0.3039 -0.5487
12184TIP3   OH258042   1.990   5.337   3.562  0.3292 -0.2231  0.2632
12184TIP3    H158043   1.962   5.407   3.621  1.3945  0.1630  0.3404
12184TIP3    H258044   2.079   5.317   3.590  1.6480  1.3465 -2.4179
12185TIP3   OH258045   5.021   6.911  14.535 -0.1218  0.1447 -0.4041
12185TIP3    H158046   5.007   7.005  14.528 -0.6401  0.0746 -0.2991
12185TIP3    H258047   4.934   6.874  14.546  0.2317 -0.1747  1.5643
12186TIP3   OH258048   1.730   4.652   0.154 -0.4135  0.4449 -0.2883
12186TIP3    H158049   1.808   4.601   0.130 -0.0327  1.3864 -1.1028
12186TIP3    H258050   1.721   4.638   0.248 -0.4393 -1.2776 -0.5056
12187TIP3   OH258051   5.231   2.636  13.559  0.0748 -0.6304  0.0472
12187TIP3    H158052   5.282   2.717  13.549  1.6868 -1.6212 -0.0885
12187TIP3    H258053   5.239   2.614  13.652 -0.5991 -0.4841  0.1393
12188TIP3   OH258054   2.788   5.906   1.879  0.2584 -0.1928  0.6160
12188TIP3    H158055   2.720   5.842   1.902 -0.0198  0.1667  0.7942
12188TIP3    H258056   2.870   5.860   1.895  0.0810 -1.1090 -0.8628
12189TIP3   OH258057   1.434   3.534  14.020  0.0947  0.7869 -0.5184
12189TIP3    H158058   1.343   3.558  14.039  0.1221  1.5831 -1.3375
12189TIP3    H258059   1.470   3.508  14.104 -1.5817 -1.9603 -0.5205
12190TIP3   OH258060   1.329   0.492  13.176 -0.1278  0.6070  0.5424
12190TIP3    H158061   1.368   0.445  13.250  1.0845  1.3843  0.4255
12190TIP3    H258062   1.289   0.570  13.215 -0.4118  0.4884  0.4934
12191TIP3   OH258063   4.195   6.595  15.403  0.1969 -0.2326 -0.7701
12191TIP3    H158064   4.286   6.622  15.417 -0.6618  2.9261 -0.7587
12191TIP3    H258065   4.193   6.568  15.311  0.4961  3.0373 -1.8466
12192TIP3   OH258066   3.473   1.573   3.043  0.1376  0.4885 -0.5023
12192TIP3    H158067   3.553   1.606   3.083  0.7739 -1.2763 -0.2233
12192TIP3    H258068   3.404   1.596   3.106  1.0905 -2.0217  1.6435
12193TIP3   OH258069   2.811   4.259  13.811 -0.0094  0.0893  0.0683
12193TIP3    H158070   2.796   4.165  13.820 -0.9238  0.3024  0.9379
12193TIP3    H258071   2.852   4.269  13.725 -2.5885 -0.8557 -1.3741
12194TIP3   OH258072   5.958   3.858  12.142 -0.5689 -0.3920  0.2868
12194TIP3    H158073   5.872   3.896  12.159  0.6414  2.0829  1.3713
12194TIP3    H258074   5.972   3.797  12.215 -1.0539 -0.1667  0.5730
12195TIP3   OH258075   2.797   0.095  14.601 -0.7823 -0.2023  0.4071
12195TIP3    H158076   2.838   0.156  14.539  0.8914  0.1727  1.7955
12195TIP3    H258077   2.868   0.035  14.625 -1.5657 -0.7433  1.4271
12196TIP3   OH258078   4.826   3.305  11.910 -0.0632  0.2488 -0.8498
12196TIP3    H158079   4.795   3.268  11.827 -2.0240 -2.0764  0.7824
12196TIP3    H258080   4.896   3.365  11.885  1.2150 -2.2728 -3.9896
12197TIP3   OH258081   5.869   1.111  12.989 -0.1935  0.1355  0.4347
12197TIP3    H158082   5.871   1.150  13.076 -0.7460  1.8283 -0.2864
12197TIP3    H258083   5.790   1.147  12.948  0.6388  0.2332 -1.1502
12198TIP3   OH258084   0.484   0.095   2.787  0.0951  0.0371  0.4655
12198TIP3    H158085   0.444   0.044   2.857 -1.0269  0.9003  0.4915
12198TIP3    H258086   0.488   0.184   2.822 -3.2003  1.1424 -1.5077
12199TIP3   OH258087   0.263   4.122   1.984 -0.1206  0.1042 -0.2276
12199TIP3    H158088   0.220   4.138   2.068 -0.4188  1.2077 -0.5762
12199TIP3    H258089   0.199   4.149   1.919  0.3883 -0.0271 -0.7939
12200TIP3   OH258090   6.168   3.360   2.065  0.3100  0.3118 -0.2057
12200TIP3    H158091   6.164   3.386   2.157 -0.0303 -0.3418 -0.0313
12200TIP3    H258092   6.138   3.437   2.017  1.1220  0.8834  0.1851
12201TIP3   OH258093   7.198   0.389  15.142 -0.5608 -0.3517  0.3716
12201TIP3    H158094   7.143   0.383  15.221 -1.2954  1.3886  0.0507
12201TIP3    H258095   7.135   0.391  15.070  0.0625 -0.9655 -0.1934
12202TIP3   OH258096   5.374   3.931   3.293  0.1762  0.1730  0.4260
12202TIP3    H158097   5.288   3.970   3.274  0.6220  0.8378 -0.2685
12202TIP3    H258098   5.353   3.850   3.339 -0.9129 -0.6273 -1.3571
12203TIP3   OH258099   4.738   3.797   1.688 -0.1718  0.1059 -0.3959
12203TIP3    H158100   4.752   3.734   1.760  0.6366 -2.2166 -2.4444
12203TIP3    H258101   4.675   3.754   1.631  0.6362  1.0136 -2.0452
12204TIP3   OH258102   6.901   5.313   0.858 -0.0550 -0.7350  0.3728
12204TIP3    H158103   6.947   5.233   0.833 -0.5008 -1.7553  2.5486
12204TIP3    H258104   6.970   5.375   0.881  0.2891 -1.5223  1.5396
12205TIP3   OH258105   5.871   7.116   3.886 -0.2855  0.2753 -0.0667
12205TIP3    H158106   5.813   7.040   3.890 -0.6459  0.5434 -0.1257
12205TIP3    H258107   5.825   7.178   3.829 -0.5084  0.9585  0.8288
12206TIP3   OH258108   1.862   5.707   9.423 -0.3705  0.6413  0.2954
12206TIP3    H158109   1.810   5.765   9.479 -3.4534 -0.0475 -1.5565
12206TIP3    H258110   1.802   5.684   9.351  2.1754 -1.3019 -1.3992
12207TIP3   OH258111   5.542   1.704  13.041  0.0419  0.1562  0.1295
12207TIP3    H158112   5.544   1.757  13.120  0.2253 -0.4270  0.5176
12207TIP3    H258113   5.516   1.617  13.070 -0.2729  0.0271 -0.5065
12208TIP3   OH258114   4.485   0.082   1.217  0.2709 -0.0047 -0.1574
12208TIP3    H158115   4.478   0.175   1.239 -1.0530  0.4839 -2.3317
12208TIP3    H258116   4.408   0.065   1.162 -2.2464 -3.6043  3.8986
12209TIP3   OH258117   3.391   2.003  13.807  0.7670  0.9950 -0.3918
12209TIP3    H158118   3.439   2.057  13.745 -0.6508  1.0894 -1.4711
12209TIP3    H258119   3.300   2.010  13.779 -0.0243  1.4821  2.0488
12210TIP3   OH258120   2.270   5.311  13.190  0.2067 -0.3386 -0.1139
12210TIP3    H158121   2.293   5.390  13.239 -0.1493 -0.2597 -0.0775
12210TIP3    H258122   2.189   5.280  13.230  0.5437 -0.9331  0.1181
12211TIP3   OH258123   5.607   0.437  11.145 -0.2664 -0.4824  0.1207
12211TIP3    H158124   5.512   0.446  11.148 -0.3880 -1.3192 -0.6074
12211TIP3    H258125   5.636   0.447  11.235 -0.7572  2.4201  0.0488
12212TIP3   OH258126   2.676   0.096   2.006 -0.1315 -0.4395 -0.3262
12212TIP3    H158127   2.680   0.099   2.101  1.1183  1.0414 -0.3913
12212TIP3    H258128   2.598   0.145   1.983  0.5447  0.7687 -0.1049
12213TIP3   OH258129   2.165   5.006   2.405 -0.2592  0.2270 -0.4543
12213TIP3    H158130   2.085   4.965   2.372 -0.3576  1.4212 -1.8191
12213TIP3    H258131   2.142   5.098   2.418  1.2481  0.9740 -2.4336
12214TIP3   OH258132   2.359   5.069   5.731  0.2116 -0.3739 -0.1039
12214TIP3    H158133   2.432   5.059   5.792 -0.1013  0.0597  0.3409
12214TIP3    H258134   2.401   5.080   5.646  0.6499 -3.0125 -0.3159
12215TIP3   OH258135   5.027   2.766   9.585 -0.5907 -0.2736  0.3845
12215TIP3    H158136   4.940   2.765   9.546 -0.1485 -1.0498 -0.6170
12215TIP3    H258137   5.070   2.842   9.546 -0.9289  0.3316  1.1633
12216TIP3   OH258138   6.260   5.145   4.330 -0.6089 -0.1625 -0.3053
12216TIP3    H158139   6.338   5.129   4.277  0.2876  0.7162  0.6954
12216TIP3    H258140   6.271   5.087   4.406  0.1844  1.4519  0.8837
12217TIP3   OH258141   1.372   1.603  11.378  0.3201 -0.1993 -0.1744
12217TIP3    H158142   1.393   1.512  11.358  0.4944 -0.2249  0.1181
12217TIP3    H258143   1.350   1.641  11.293 -1.0289 -0.8417 -0.1395
12218TIP3   OH258144   5.194   6.944   3.260 -0.3158 -0.2484 -0.2385
12218TIP3    H158145   5.110   6.927   3.303 -0.0959  0.1823  0.3787
12218TIP3    H258146   5.212   7.036   3.279  0.6620 -0.5393  0.2777
12219TIP3   OH258147   1.971   3.061  14.516  0.7267  0.6219 -0.3532
12219TIP3    H158148   1.962   3.151  14.550 -4.6526  0.4363 -0.3343
12219TIP3    H258149   1.971   3.006  14.594  0.7533  0.5159 -0.4276
12220TIP3   OH258150   5.110   1.596  12.856 -0.3764  0.2860 -0.4961
12220TIP3    H158151   5.095   1.690  12.848  1.2772  0.7994  1.6051
12220TIP3    H258152   5.200   1.584  12.823  0.0418 -0.2622  0.7930
12221TIP3   OH258153   3.876   5.582   3.878  0.2570 -0.0366  0.5480
12221TIP3    H158154   3.783   5.575   3.853  0.2376 -1.7576  0.9983
12221TIP3    H258155   3.901   5.493   3.901  1.9793  0.4567  0.6620
12222TIP3   OH258156   5.834   0.722   5.395 -0.0318  0.1073  0.9004
12222TIP3    H158157   5.835   0.634   5.358 -1.1586  0.4504 -0.0236
12222TIP3    H258158   5.778   0.715   5.473  0.0724 -0.0450  0.9620
12223TIP3   OH258159   1.343   0.414  11.813 -0.0652  0.2628  0.4740
12223TIP3    H158160   1.279   0.474  11.851  0.8043  1.1555  0.5619
12223TIP3    H258161   1.419   0.469  11.796 -0.0627 -0.3161 -1.6073
12224TIP3   OH258162   2.113   3.977  14.564 -0.2580  0.0166  0.0738
12224TIP3    H158163   2.070   4.059  14.590  1.1842  1.4015 -1.6755
12224TIP3    H258164   2.134   3.934  14.647 -2.0366  0.8484  1.0155
12225TIP3   OH258165   2.799   3.863  10.325  0.0647  0.1801  0.2385
12225TIP3    H158166   2.819   3.946  10.281  0.3353 -0.2259 -0.4185
12225TIP3    H258167   2.828   3.796  10.264  1.0337 -0.4111  1.2980
12226TIP3   OH258168   1.110   4.706   2.346 -0.5574 -0.3316  0.0796
12226TIP3    H158169   1.155   4.784   2.313 -0.2165 -0.3702  0.4562
12226TIP3    H258170   1.018   4.720   2.321 -0.1891 -0.7418 -1.5912
12227TIP3   OH258171   2.243   5.438   1.286  0.1519  0.1140 -0.1189
12227TIP3    H158172   2.195   5.519   1.299 -0.4942  0.0451 -1.7807
12227TIP3    H258173   2.204   5.377   1.348  0.1862  0.8887  0.6764
12228TIP3   OH258174   2.830   6.179  15.334  0.3285 -0.0332 -0.7303
12228TIP3    H158175   2.813   6.273  15.342 -1.1262 -0.4257  2.0457
12228TIP3    H258176   2.896   6.161  15.400 -0.0637 -1.0773 -0.6046
12229TIP3   OH258177   5.965   5.856  12.397 -0.0033  0.7699 -0.2973
12229TIP3    H158178   6.010   5.825  12.319  1.2782  1.0035  0.3153
12229TIP3    H258179   5.980   5.951  12.398  1.1734  0.6092  0.9068
12230TIP3   OH258180   1.367   1.259   3.480  0.3084  0.1367  0.1008
12230TIP3    H158181   1.310   1.241   3.405  0.3592  0.8830 -0.1252
12230TIP3    H258182   1.386   1.353   3.473  1.6872 -0.1240  0.0844
12231TIP3   OH258183   7.011   5.904   1.660  0.1018  0.2117 -0.5292
12231TIP3    H158184   7.039   5.939   1.576  1.8586  0.6094  0.1696
12231TIP3    H258185   6.992   5.812   1.642  0.4137  0.3005 -1.3804
12232TIP3   OH258186   1.055   4.061   3.844  0.1120 -0.4100 -0.5302
12232TIP3    H158187   0.991   4.117   3.800  0.4942  0.0252 -0.5369
12232TIP3    H258188   1.118   4.122   3.883  0.3689 -0.8248 -0.2874
12233TIP3   OH258189   7.022   1.923   4.617  0.2633 -0.5182 -0.1254
12233TIP3    H158190   6.930   1.941   4.636  0.0628 -1.3058 -0.3310
12233TIP3    H258191   7.035   1.956   4.528  0.7156  1.4197  0.5853
12234TIP3   OH258192   2.627   3.266   4.377 -0.6244  0.1312  0.2667
12234TIP3    H158193   2.570   3.215   4.435  1.2267  1.2102  3.2532
12234TIP3    H258194   2.582   3.350   4.368 -0.0150  0.6632  1.8765
12235TIP3   OH258195   2.663   1.610   2.744 -0.1103 -0.7005 -0.2880
12235TIP3    H158196   2.652   1.585   2.836 -3.1050 -0.4272 -0.4548
12235TIP3    H258197   2.624   1.538   2.695  0.2033 -0.2060 -1.2809
12236TIP3   OH258198   4.081   3.195  14.629  0.4285 -0.0646 -0.6834
12236TIP3    H158199   3.996   3.151  14.624  1.3290 -1.8601 -0.8836
12236TIP3    H258200   4.063   3.285  14.603 -1.3439 -0.4912 -1.0575
12237TIP3   OH258201   3.550   6.687  14.499 -0.7537 -0.6806  0.3013
12237TIP3    H158202   3.528   6.780  14.497  2.1143  0.0651  0.0107
12237TIP3    H258203   3.585   6.673  14.587 -1.0044 -1.4747  0.2822
12238TIP3   OH258204   2.804   2.895  13.470  0.1554  0.6289  0.0495
12238TIP3    H158205   2.807   2.811  13.424  0.3664 -0.2071  1.4979
12238TIP3    H258206   2.721   2.934  13.445 -0.4482 -0.5294  0.1824
12239TIP3   OH258207   4.040   3.745  10.444  0.0561 -0.1769  0.1687
12239TIP3    H158208   3.961   3.721  10.395  0.2181 -0.6939  0.1458
12239TIP3    H258209   4.112   3.731  10.381  0.2643 -0.8287  0.5365
12240TIP3   OH258210   1.092   5.932   3.940  0.7829 -0.6488 -0.1643
12240TIP3    H158211   1.068   5.880   4.017  1.1768 -1.2780 -0.4655
12240TIP3    H258212   1.122   5.868   3.876 -0.6807 -0.2657 -1.2968
12241TIP3   OH258213   0.045   3.965  14.407  0.0605  0.7218 -0.0242
12241TIP3    H158214  -0.032   4.013  14.437  0.4657  2.9226 -2.2015
12241TIP3    H258215   0.047   3.979  14.313  1.5331 -1.7505 -0.4536
12242TIP3   OH258216   4.515   2.594  12.623 -0.2128  0.3622 -0.3045
12242TIP3    H158217   4.428   2.635  12.622  0.1900  1.2709  0.2726
12242TIP3    H258218   4.558   2.632  12.700 -0.0146 -1.6191  0.6240
12243TIP3   OH258219   5.442   0.692   1.562  0.3837  0.0119  0.3520
12243TIP3    H158220   5.530   0.728   1.548 -0.9989  3.0786 -1.5728
12243TIP3    H258221   5.401   0.694   1.476 -1.9568 -0.1621  1.3721
12244TIP3   OH258222   2.754   1.430   0.204  0.0515 -0.1457  0.2389
12244TIP3    H158223   2.663   1.409   0.227  0.2690 -1.1442  0.2490
12244TIP3    H258224   2.752   1.522   0.178 -0.6429  0.3314  1.8835
12245TIP3   OH258225   6.440   2.816   5.240 -0.0016  0.1917 -0.1497
12245TIP3    H158226   6.448   2.749   5.308  0.3453  0.5556  0.1767
12245TIP3    H258227   6.492   2.782   5.167 -0.0436 -0.0159 -0.0845
12246TIP3   OH258228   1.618   5.937  12.979 -0.5437 -0.5359  0.1831
12246TIP3    H158229   1.558   5.994  12.931 -0.7672 -1.4154 -0.6278
12246TIP3    H258230   1.652   5.878  12.912  0.1000 -0.9903  0.9050
12247TIP3   OH258231   4.896   7.194  10.865 -0.0242  0.0738  0.0728
12247TIP3    H158232   4.918   7.194  10.772 -0.1462  1.8095  0.0253
12247TIP3    H258233   4.970   7.236  10.908 -0.4914  0.3618  0.6183
12248TIP3   OH258234   0.994   0.040  11.953  0.4788  0.8002 -0.1106
12248TIP3    H158235   0.934   0.081  11.890  0.0748  0.4595  0.0474
12248TIP3    H258236   0.973   0.082  12.036 -1.0501 -0.7985  0.3809
12249TIP3   OH258237   3.463   3.322   1.897 -0.1459  0.3384 -0.4026
12249TIP3    H158238   3.459   3.229   1.919  0.2281  0.3871 -0.1158
12249TIP3    H258239   3.379   3.341   1.855 -0.1662 -0.1602 -0.5885
12250TIP3   OH258240   6.947   3.323  11.800 -0.0482  0.1196  0.4065
12250TIP3    H158241   6.926   3.231  11.819  0.4589 -0.3272 -1.0509
12250TIP3    H258242   7.041   3.324  11.788 -0.1579  0.6471 -0.5027
12251TIP3   OH258243   3.918   6.764   5.026  0.2119 -0.0870 -0.1847
12251TIP3    H158244   3.948   6.838   5.079 -1.3562  0.8059 -0.4786
12251TIP3    H258245   3.846   6.799   4.974 -0.9866 -1.9566  0.0884
12252TIP3   OH258246   4.550   5.549   5.131  0.1807 -0.6658 -0.4497
12252TIP3    H158247   4.570   5.631   5.085  1.4168 -0.4810  0.3649
12252TIP3    H258248   4.576   5.481   5.070  2.3978 -0.4254  0.1073
12253TIP3   OH258249   6.941   6.334   1.286  0.2018 -0.2049 -0.4904
12253TIP3    H158250   6.994   6.304   1.360  1.2213 -0.8184 -1.4401
12253TIP3    H258251   6.858   6.361   1.326  1.7413  2.3612  1.2616
12254TIP3   OH258252   1.350   4.249   4.537 -0.3648  0.3492  0.2994
12254TIP3    H158253   1.435   4.286   4.513 -0.0878  0.0019  0.7294
12254TIP3    H258254   1.287   4.299   4.486  0.0918  0.6739  0.0467
12255TIP3   OH258255   5.304   1.527  10.809 -0.2264 -0.1803  0.2019
12255TIP3    H158256   5.261   1.466  10.750 -0.5880 -0.5998  0.8830
12255TIP3    H258257   5.298   1.612  10.765 -1.0601 -0.3713 -0.0708
12256TIP3   OH258258   5.702   2.556  13.663  0.2443  0.1497  0.1097
12256TIP3    H158259   5.708   2.502  13.585  0.9426 -0.5524  0.6352
12256TIP3    H258260   5.788   2.548  13.705 -0.5296 -0.5382  1.6361
12257TIP3   OH258261   3.436   4.835  10.850 -0.3183 -0.2969  0.4086
12257TIP3    H158262   3.383   4.828  10.929 -0.6167  0.3927  0.2780
12257TIP3    H258263   3.444   4.746  10.818 -1.5497 -0.3960  0.3413
12258TIP3   OH258264   4.232   2.349  12.746 -0.1074 -0.5278  0.6238
12258TIP3    H158265   4.156   2.375  12.798  0.2778  0.2713  0.7907
12258TIP3    H258266   4.208   2.372  12.656 -0.2839 -0.7979  0.5990
12259TIP3   OH258267   1.853   2.934   2.979  0.6365 -0.6769 -0.3008
12259TIP3    H158268   1.766   2.922   2.942  1.2110  2.4720 -3.2115
12259TIP3    H258269   1.912   2.929   2.904  2.6987 -0.3541  1.2080
12260TIP3   OH258270   5.876   2.932  14.211  0.3952  0.0139  0.0642
12260TIP3    H158271   5.794   2.884  14.221  1.3164 -1.5946  0.3965
12260TIP3    H258272   5.878   2.992  14.285 -2.1140  2.7722 -1.9085
12261TIP3   OH258273   2.122   2.465   4.549 -0.1399 -0.2818 -0.3638
12261TIP3    H158274   2.129   2.542   4.606 -1.1536  0.5922 -1.3714
12261TIP3    H258275   2.205   2.419   4.560  0.9037  1.4859 -0.4965
12262TIP3   OH258276   2.223   2.910  11.154 -0.2581 -0.2379 -0.0788
12262TIP3    H158277   2.283   2.983  11.169 -0.7835  0.1119  0.3467
12262TIP3    H258278   2.278   2.841  11.116  0.2049  0.4394 -0.6586
12263TIP3   OH258279   4.508   4.603   0.102  0.4122  0.6971  0.0775
12263TIP3    H158280   4.435   4.629   0.047 -0.5312  0.0269  0.9788
12263TIP3    H258281   4.468   4.555   0.175  1.8421 -1.0402 -0.1993
12264TIP3   OH258282   1.681   4.084  11.452 -0.0407 -0.3424 -0.2059
12264TIP3    H158283   1.590   4.108  11.433  0.1047  1.6984  1.4004
12264TIP3    H258284   1.676   3.993  11.481 -1.3293 -0.7816 -1.6623
12265TIP3   OH258285   5.865   1.406   4.060 -0.0885 -0.2896 -0.2567
12265TIP3    H158286   5.873   1.340   3.991 -0.3496 -0.4096 -0.1740
12265TIP3    H258287   5.951   1.449   4.062  0.5610 -1.5520  0.6283
12266TIP3   OH258288   3.056   1.774   1.317 -0.2646 -0.2422 -0.9475
12266TIP3    H158289   2.979   1.775   1.374  0.0209  1.7780 -0.5412
12266TIP3    H258290   3.080   1.681   1.312 -1.1382 -0.6376  1.0685
12267TIP3   OH258291   5.652   6.051  10.867  0.1891  0.4773 -0.2308
12267TIP3    H158292   5.665   6.105  10.946 -0.1204  2.1792 -1.2784
12267TIP3    H258293   5.670   5.962  10.895  2.0186  1.2685  1.2919
12268TIP3   OH258294   0.740   1.794   0.971  0.6902 -0.1886  0.2923
12268TIP3    H158295   0.654   1.754   0.981  0.2687  0.7184  0.4086
12268TIP3    H258296   0.758   1.790   0.877  1.5467 -2.4145  0.4992
12269TIP3   OH258297   4.771   5.473   5.631  1.0895 -0.5327  0.4159
12269TIP3    H158298   4.830   5.547   5.617  0.8374 -0.6049 -1.2372
12269TIP3    H258299   4.726   5.462   5.547  0.6234 -2.1268  0.8412
12270TIP3   OH258300   5.494   1.387   4.031 -0.7652  0.3444 -0.5780
12270TIP3    H158301   5.554   1.442   4.081 -0.9156  0.2061 -0.2474
12270TIP3    H258302   5.448   1.335   4.096 -1.9244  1.1138 -0.7479
12271TIP3   OH258303   6.289   3.766   5.771  0.2399 -0.7179 -0.2352
12271TIP3    H158304   6.333   3.845   5.801 -0.3307 -0.9538  1.3339
12271TIP3    H258305   6.219   3.797   5.713  0.9559 -0.1971 -0.8384
12272TIP3   OH258306   5.022   4.390   2.008 -0.1229 -0.5765  0.1667
12272TIP3    H158307   5.059   4.443   1.938 -0.5484 -2.1026 -1.2756
12272TIP3    H258308   5.097   4.344   2.046  0.2964  1.2032  1.6443
12273TIP3   OH258309   4.819   6.026   0.002  0.0713  0.6302 -0.1627
12273TIP3    H158310   4.759   6.100   0.003 -0.5032  0.2429 -1.7369
12273TIP3    H258311   4.792   5.972   0.076  1.1278  2.4261  1.5995
12274TIP3   OH258312   5.363   0.049   2.375 -0.3322  0.1597  0.0619
12274TIP3    H158313   5.388   0.023   2.464  0.6016  1.2955  0.1517
12274TIP3    H258314   5.372  -0.032   2.324 -0.6938 -0.4639  0.9468
12275TIP3   OH258315   3.734   1.685  12.211  0.1942 -0.1368 -0.1801
12275TIP3    H158316   3.801   1.753  12.219  0.3463 -0.1298 -1.3442
12275TIP3    H258317   3.783   1.606  12.190 -0.1252 -0.1871 -0.7772
12276TIP3   OH258318   1.047   1.862   4.598  0.5115  0.5824  0.0565
12276TIP3    H158319   1.000   1.831   4.675  0.6457  0.3739  0.0543
12276TIP3    H258320   1.119   1.915   4.633  1.2932 -0.5017  0.1177
12277TIP3   OH258321   4.214   0.622   1.740 -0.5250  0.1560 -0.0189
12277TIP3    H158322   4.204   0.672   1.821  0.0350  1.2070 -0.5761
12277TIP3    H258323   4.238   0.534   1.769  1.9886  1.0694  0.9507
12278TIP3   OH258324   2.691   3.837   0.213 -0.0051  0.8548  0.7875
12278TIP3    H158325   2.712   3.851   0.121 -0.8445 -2.0548  0.0468
12278TIP3    H258326   2.730   3.752   0.234 -1.4722  0.5501  2.5534
12279TIP3   OH258327   0.110   4.412   1.024 -0.0810  0.0468  0.1401
12279TIP3    H158328   0.166   4.460   0.963 -0.1490 -0.4085 -0.2865
12279TIP3    H258329   0.085   4.477   1.090  2.3102 -0.1441  1.3045
12280TIP3   OH258330   5.744   0.691   4.620  0.0148 -0.0145 -0.5874
12280TIP3    H158331   5.760   0.613   4.568  1.2433  0.4564 -0.9549
12280TIP3    H258332   5.672   0.736   4.575  1.8417  1.0038 -2.6572
12281TIP3   OH258333   4.658   2.639  14.349 -0.3287 -0.0084 -0.3991
12281TIP3    H158334   4.725   2.578  14.319 -2.5054 -3.2283  0.7941
12281TIP3    H258335   4.688   2.668  14.435  0.1922 -0.2492 -0.4983
12282TIP3   OH258336   1.129   6.246   0.961 -0.1168 -0.1739  0.2054
12282TIP3    H158337   1.106   6.175   0.901 -1.6344 -0.2434  0.8226
12282TIP3    H258338   1.124   6.325   0.908 -0.3351 -0.3419 -0.0264
12283TIP3   OH258339   2.921   0.191   1.878  1.2023  0.0955  0.1653
12283TIP3    H158340   2.896   0.264   1.821  0.0699 -0.2622  0.1917
12283TIP3    H258341   2.839   0.162   1.917  1.4820 -1.8505 -0.6149
12284TIP3   OH258342   4.482   4.760  10.740  0.0999  0.5070 -0.4479
12284TIP3    H158343   4.551   4.816  10.705 -0.8122  0.9092 -1.6663
12284TIP3    H258344   4.451   4.710  10.664 -1.9277  1.3885 -0.2546
12285TIP3   OH258345   6.089   5.284   4.187  0.4630  0.1864 -0.0631
12285TIP3    H158346   6.115   5.372   4.214 -2.7361  1.0191  0.7932
12285TIP3    H258347   6.137   5.225   4.245  1.3904  1.4543  0.4930
12286TIP3   OH258348   2.838   2.073   3.481 -0.5222  0.1405  0.5502
12286TIP3    H158349   2.903   2.026   3.533  0.4883 -1.9509 -2.2991
12286TIP3    H258350   2.754   2.049   3.520  0.2397  2.1782  3.7541
12287TIP3   OH258351   3.692   3.004  14.314  0.5419 -0.5442  0.3559
12287TIP3    H158352   3.671   2.943  14.243  3.2049 -2.4065  0.9662
12287TIP3    H258353   3.670   3.090  14.280 -1.7669 -1.6509 -1.2388
12288TIP3   OH258354   0.808   1.142  10.325  0.8844 -0.2234  0.0556
12288TIP3    H158355   0.776   1.052  10.322  0.7024 -0.1667  0.2820
12288TIP3    H258356   0.899   1.136  10.296  0.9126 -0.4989  0.1982
12289TIP3   OH258357   1.767   0.108  14.870  0.7085 -0.7697  0.1481
12289TIP3    H158358   1.731   0.149  14.948 -0.8257  1.0053 -1.3797
12289TIP3    H258359   1.816   0.032  14.902  0.6299  0.2201  2.8334
12290TIP3   OH258360   0.398   0.749  12.270  0.4341  0.3166  0.1338
12290TIP3    H158361   0.478   0.697  12.258  0.8408  0.5470  1.5894
12290TIP3    H258362   0.415   0.831  12.224  1.1669  0.4662  0.6492
12291TIP3   OH258363   4.141   0.293  11.338  0.2684  0.6114  0.1399
12291TIP3    H158364   4.137   0.234  11.263  0.8281  1.9855 -1.0088
12291TIP3    H258365   4.060   0.344  11.333 -0.2121 -0.0184  1.1254
12292TIP3   OH258366   1.813   3.771   4.926 -0.1078  0.0058 -0.3794
12292TIP3    H158367   1.768   3.748   5.007 -0.5092 -0.5060 -0.7434
12292TIP3    H258368   1.857   3.691   4.898 -0.6473 -0.0540 -1.0945
12293TIP3   OH258369   5.573   2.217  11.552  0.4180  0.1793 -0.1254
12293TIP3    H158370   5.481   2.232  11.529  0.1685  0.2074  0.8677
12293TIP3    H258371   5.583   2.256  11.639  1.3844  0.2193 -0.2473
12294TIP3   OH258372   4.877   4.803   0.165  0.1856 -0.1574  0.0618
12294TIP3    H158373   4.812   4.753   0.214  1.4555 -2.7954 -0.8106
12294TIP3    H258374   4.936   4.738   0.129  0.9834  1.8609 -2.6091
12295TIP3   OH258375   6.220   3.844   9.523 -0.1372  0.4206 -0.1374
12295TIP3    H158376   6.173   3.880   9.598  0.6537  0.0481  0.5504
12295TIP3    H258377   6.303   3.813   9.558  0.7289  1.2395 -1.3671
12296TIP3   OH258378   5.470   4.494  14.866 -0.1262  0.3125 -0.5485
12296TIP3    H158379   5.542   4.538  14.821 -0.0074  0.7003  0.0041
12296TIP3    H258380   5.474   4.529  14.956 -0.0510 -0.7908 -0.1092
12297TIP3   OH258381   6.252   5.870  14.537 -0.6126 -0.8817 -0.1132
12297TIP3    H158382   6.213   5.867  14.449  1.3210  0.1918 -1.0629
12297TIP3    H258383   6.180   5.899  14.593 -1.7845 -1.1610 -1.3950
12298TIP3   OH258384   0.224   0.513  11.926 -0.0588  0.6733 -0.2964
12298TIP3    H158385   0.218   0.591  11.983 -0.1018  1.9077 -1.9201
12298TIP3    H258386   0.261   0.546  11.844 -0.5407 -0.9406 -1.2027
12299TIP3   OH258387   1.616   2.663   4.121  0.0940  0.6071  0.7626
12299TIP3    H158388   1.615   2.713   4.039  1.4170 -0.7275 -0.1336
12299TIP3    H258389   1.531   2.681   4.161 -0.3645  1.7521 -0.6292
12300TIP3   OH258390   0.522   5.712   0.968  0.3626  0.1165 -0.5550
12300TIP3    H158391   0.566   5.636   0.931  1.5820  0.2644  0.5403
12300TIP3    H258392   0.520   5.696   1.062 -0.3420  0.9445 -0.4173
12301TIP3   OH258393   1.375   3.071   0.698 -0.0441  0.2031  0.4294
12301TIP3    H158394   1.293   3.029   0.671  0.0366  1.0461 -1.2804
12301TIP3    H258395   1.350   3.127   0.772 -0.4115 -1.7139  1.8472
12302TIP3   OH258396   3.112   4.927  15.287  0.2702 -0.0364  0.4774
12302TIP3    H158397   3.180   4.865  15.314 -0.6302 -1.6800 -0.8295
12302TIP3    H258398   3.089   4.974  15.367  2.4971  0.1596  1.0762
12303TIP3   OH258399   2.636   5.477   2.631 -0.5588 -0.0475 -0.0221
12303TIP3    H158400   2.685   5.430   2.564  0.4057  1.2223 -0.2634
12303TIP3    H258401   2.544   5.465   2.607 -0.2586 -0.3414 -1.0765
12304TIP3   OH258402   3.396   6.709   2.451  0.5474 -0.3949 -0.2464
12304TIP3    H158403   3.471   6.650   2.454  0.3323 -0.6783 -0.3598
12304TIP3    H258404   3.416   6.778   2.513  0.8221 -0.5669 -0.1454
12305TIP3   OH258405   2.722   2.195   0.018 -0.4348 -0.4563  0.3835
12305TIP3    H158406   2.630   2.189  -0.006 -0.3123 -3.2390  0.3297
12305TIP3    H258407   2.769   2.150  -0.052  0.7625 -0.8713  1.4153
12306TIP3   OH258408   6.414   2.055   0.576  0.8349 -0.0262  0.2053
12306TIP3    H158409   6.438   2.068   0.668 -0.0904  2.1159  0.1988
12306TIP3    H258410   6.342   1.993   0.578  0.4161  0.4647  1.0133
12307TIP3   OH258411   2.424   1.711   4.529 -0.7793 -0.4799  0.0366
12307TIP3    H158412   2.405   1.777   4.596 -0.5357 -1.1242  0.7516
12307TIP3    H258413   2.339   1.689   4.493 -0.8092  0.6307 -0.6052
12308TIP3   OH258414   2.785   5.446   5.303 -0.2707  0.4723  0.3213
12308TIP3    H158415   2.787   5.370   5.245 -1.5055  1.9276 -1.7607
12308TIP3    H258416   2.876   5.476   5.307 -0.1827  0.4155 -1.0046
12309TIP3   OH258417   2.255   3.969  13.690  0.3852  0.0115 -0.4699
12309TIP3    H158418   2.264   3.876  13.668  1.1663  0.0708 -0.4507
12309TIP3    H258419   2.295   4.014  13.616  2.1261  0.2456  0.5569
12310TIP3   OH258420   4.344   0.304  11.831 -0.6016 -0.3775  0.1475
12310TIP3    H158421   4.435   0.282  11.811 -0.5361 -0.4219  0.4809
12310TIP3    H258422   4.302   0.311  11.746  0.4794  2.9945 -0.2375
12311TIP3   OH258423   6.433   1.892   3.761 -0.1104 -0.5954  0.9323
12311TIP3    H158424   6.345   1.930   3.761  0.5182  0.9917 -0.1729
12311TIP3    H258425   6.450   1.870   3.852 -0.1634  2.8109  1.8929
12312TIP3   OH258426   6.168   2.035   1.874  0.2256 -0.6231  0.1983
12312TIP3    H158427   6.193   1.987   1.952 -0.8017 -2.2523 -0.4006
12312TIP3    H258428   6.249   2.047   1.825  0.3434 -3.5536 -0.5300
12313TIP3   OH258429   4.841   6.734   1.213  0.2335 -0.2798  0.4800
12313TIP3    H158430   4.919   6.764   1.260 -0.9586  1.3672  1.5172
12313TIP3    H258431   4.776   6.719   1.282 -0.9104  0.1369 -0.4773
12314TIP3   OH258432   5.904   0.416   5.607 -0.2952 -0.0839  0.0053
12314TIP3    H158433   5.829   0.381   5.655 -2.0540  1.0473 -1.7800
12314TIP3    H258434   5.915   0.506   5.641 -0.1446 -0.0233 -0.2021
12315TIP3   OH258435   5.236   7.114  10.312 -0.7316 -0.0863 -0.2162
12315TIP3    H158436   5.230   7.062  10.393  0.8521 -1.8143 -1.1319
12315TIP3    H258437   5.231   7.205  10.342 -1.0160 -0.6854  1.7327
12316TIP3   OH258438   1.272   2.059   2.948 -0.5107  0.4993  0.1119
12316TIP3    H158439   1.334   2.132   2.941 -1.3579  1.3127  0.7177
12316TIP3    H258440   1.313   1.999   3.010 -0.0055  0.6897 -0.0327
12317TIP3   OH258441   5.286   2.431   1.882 -0.0489  0.1937 -0.5285
12317TIP3    H158442   5.358   2.432   1.819 -0.0162  1.5580 -0.4987
12317TIP3    H258443   5.254   2.522   1.884 -0.4552  0.0474  0.9492
12318TIP3   OH258444   3.562   3.281   4.489 -0.3956  0.2641 -1.0336
12318TIP3    H158445   3.488   3.224   4.513 -1.4794  1.4935 -1.3298
12318TIP3    H258446   3.577   3.334   4.567  0.8483 -0.6359 -0.6332
12319TIP3   OH258447   5.821   4.141   2.356 -0.4210 -0.3148  0.1977
12319TIP3    H158448   5.846   4.148   2.264  0.3365 -2.0577  0.2396
12319TIP3    H258449   5.773   4.059   2.362 -0.7459 -0.0608  1.3175
12320TIP3   OH258450   3.462   2.121   3.874  0.0150 -0.3166  0.1347
12320TIP3    H158451   3.550   2.083   3.868 -0.2268 -1.0238  0.9304
12320TIP3    H258452   3.406   2.062   3.824 -0.3249 -0.9204  1.1999
12321TIP3   OH258453   5.657   7.218  15.197 -0.0101 -0.4820 -0.1567
12321TIP3    H158454   5.634   7.228  15.104 -0.6301  0.7702  0.1103
12321TIP3    H258455   5.574   7.224  15.243  0.3730 -0.4163  0.5314
12322TIP3   OH258456   7.121   5.775   0.347 -0.0983  0.0919  0.3230
12322TIP3    H158457   7.085   5.724   0.274  2.1671 -1.1547 -0.0151
12322TIP3    H258458   7.045   5.798   0.400 -1.4328 -2.1025 -0.5100
12323TIP3   OH258459   2.299   6.127  11.715 -0.0648 -0.2301  0.0580
12323TIP3    H158460   2.384   6.086  11.730  0.5415  0.1952 -1.9583
12323TIP3    H258461   2.240   6.080  11.774  1.5578 -0.4679  1.5836
12324TIP3   OH258462   4.881   2.625  13.853 -0.0940  0.1563  0.5081
12324TIP3    H158463   4.957   2.622  13.912  1.3623  1.1553 -1.2157
12324TIP3    H258464   4.811   2.580  13.901  1.3329 -0.0444  2.5102
12325TIP3   OH258465   1.241   1.917   9.937 -0.2992  0.4792  0.5290
12325TIP3    H158466   1.255   1.958  10.023  2.6024 -0.8165  0.7722
12325TIP3    H258467   1.191   1.837   9.957 -1.1003  1.0195  0.7512
12326TIP3   OH258468   3.604   3.478   5.286  0.5395 -0.7880  0.6513
12326TIP3    H158469   3.654   3.558   5.272 -1.5305  0.4560 -0.1145
12326TIP3    H258470   3.659   3.408   5.249  1.4385  0.5664 -0.6787
12327TIP3   OH258471   3.459   5.935  14.208  0.4005 -0.4895 -0.9254
12327TIP3    H158472   3.537   5.941  14.264  0.9465 -0.7650 -1.6399
12327TIP3    H258473   3.392   5.985  14.255  0.6627 -1.2353  0.2791
12328TIP3   OH258474   0.057   4.492  13.299 -0.1524  0.6978  0.3460
12328TIP3    H158475   0.069   4.417  13.241 -0.1747  0.6118  0.4521
12328TIP3    H258476  -0.036   4.513  13.293 -0.9672 -1.4930  2.9854
12329TIP3   OH258477   2.899   4.144  11.416  0.0448 -0.3510  0.5407
12329TIP3    H158478   2.945   4.228  11.415 -1.8084  0.8164 -2.9528
12329TIP3    H258479   2.831   4.154  11.483  0.1486  0.7217  0.4925
12330TIP3   OH258480   3.241   1.023  11.234  0.2595  0.3309  0.4155
12330TIP3    H158481   3.150   1.013  11.261 -0.0399  0.3451 -0.5703
12330TIP3    H258482   3.291   0.980  11.304 -0.6877 -3.2235 -0.8528
12331TIP3   OH258483   6.639   4.230   0.215 -0.1377 -0.8987 -0.7746
12331TIP3    H158484   6.697   4.238   0.290 -0.6751  2.2928 -0.5468
12331TIP3    H258485   6.696   4.211   0.141  0.8552 -0.4917 -0.1241
12332TIP3   OH258486   5.255   3.719  12.479 -0.0767 -0.4617 -0.1489
12332TIP3    H158487   5.298   3.804  12.475  0.1775 -0.5427  0.6662
12332TIP3    H258488   5.203   3.715  12.399 -0.4934  0.6690  0.0442
12333TIP3   OH258489   5.292   5.643  10.033 -0.0019  0.4632  0.0560
12333TIP3    H158490   5.272   5.550  10.023 -1.4324  0.9798 -2.8635
12333TIP3    H258491   5.207   5.686  10.033  0.6968  1.8934 -0.2276
12334TIP3   OH258492   0.809   6.573   4.652  0.3291  0.3528 -0.0075
12334TIP3    H158493   0.745   6.576   4.580 -0.2609  0.8396  0.5160
12334TIP3    H258494   0.875   6.510   4.623 -0.7732 -0.7369 -0.2569
12335TIP3   OH258495   0.172   5.754   0.358  0.4921 -0.1182 -0.4481
12335TIP3    H158496   0.083   5.767   0.325 -0.8289 -0.7842  2.5210
12335TIP3    H258497   0.199   5.841   0.389  1.4465  0.3486 -2.4030
12336TIP3   OH258498   1.428   1.074  15.298 -1.0160 -0.2628  0.2749
12336TIP3    H158499   1.363   1.123  15.347 -0.4949  0.0182  0.6948
12336TIP3    H258500   1.504   1.068  15.357 -0.8069 -0.9422 -0.0429
12337TIP3   OH258501   1.437   5.157  10.053 -0.5090  0.4508  0.0606
12337TIP3    H158502   1.532   5.159  10.063 -0.4046  1.5299 -0.8238
12337TIP3    H258503   1.403   5.180  10.139  0.1093  2.0304 -0.0773
12338TIP3   OH258504   2.525   6.569  11.670 -0.4007 -0.1816 -0.2207
12338TIP3    H158505   2.494   6.627  11.601 -0.1863  2.1884  1.5282
12338TIP3    H258506   2.466   6.494  11.667 -1.9122  0.9940 -1.3993
12339TIP3   OH258507   5.422   0.582   5.337 -0.1247  0.3380  0.3912
12339TIP3    H158508   5.372   0.662   5.349 -0.4867  0.2419 -0.4330
12339TIP3    H258509   5.509   0.612   5.311  0.0696  0.4815  1.1604
12340TIP3   OH258510   6.129   1.400  10.610 -0.1726  0.5437 -0.1557
12340TIP3    H158511   6.075   1.457  10.665 -2.7540 -1.3451 -0.5488
12340TIP3    H258512   6.143   1.450  10.530  1.5114  2.3391  1.1697
12341TIP3   OH258513   6.477   1.809   4.015 -0.6816  0.1253 -0.1863
12341TIP3    H158514   6.427   1.735   4.048 -3.2556  1.3902 -0.9647
12341TIP3    H258515   6.511   1.852   4.094 -0.3378 -1.0674  0.3376
12342TIP3   OH258516   2.843   3.886  15.402  0.8366 -0.0354 -0.3772
12342TIP3    H158517   2.798   3.953  15.351  1.0767  0.5354  0.1483
12342TIP3    H258518   2.920   3.863  15.350  0.1238 -0.7765 -1.1214
12343TIP3   OH258519   5.180   0.077  13.380 -0.4625  0.5582 -0.5523
12343TIP3    H158520   5.131   0.041  13.454  0.8928 -0.5686 -0.1610
12343TIP3    H258521   5.227   0.002  13.344  1.4134  1.6643 -0.5465
12344TIP3   OH258522   6.933   5.429  12.147 -0.7769  0.1163  0.0480
12344TIP3    H158523   6.936   5.411  12.241  0.3854  0.2320  0.0471
12344TIP3    H258524   6.953   5.522  12.139 -0.9542  0.1282 -0.3064
12345TIP3   OH258525   6.422   3.581  14.058  0.3212 -0.2797  0.3235
12345TIP3    H158526   6.427   3.491  14.027 -0.2883 -0.1945 -0.0321
12345TIP3    H258527   6.364   3.625  13.996 -1.6405 -0.3124  2.0485
12346TIP3   OH258528   4.815   0.372   2.264 -0.2768  0.5194  0.4005
12346TIP3    H158529   4.875   0.427   2.314  0.1707 -0.5569  1.0777
12346TIP3    H258530   4.776   0.314   2.329 -0.0789 -0.5538 -0.4176
12347TIP3   OH258531   5.465   2.960  14.043 -0.5978 -0.1361 -0.2879
12347TIP3    H158532   5.501   3.006  13.967 -0.7994  1.2602  0.4300
12347TIP3    H258533   5.524   2.886  14.056 -0.4257 -0.2690 -1.6476
12348TIP3   OH258534   0.566   3.969  15.388  0.5015  0.1369 -0.7607
12348TIP3    H158535   0.596   3.941  15.475 -0.2591  2.1534  0.1970
12348TIP3    H258536   0.471   3.957  15.390  0.4629  0.3215 -1.2821
12349TIP3   OH258537   0.482   0.352   0.401 -0.1119  0.2800  0.3809
12349TIP3    H158538   0.505   0.392   0.485  0.3872  0.1071  0.3290
12349TIP3    H258539   0.453   0.263   0.425 -1.0104  0.5903  0.4743
12350TIP3   OH258540   6.840   6.363  14.937 -0.2341 -0.0127  0.4029
12350TIP3    H158541   6.768   6.413  14.899  0.3947  0.1449 -0.6286
12350TIP3    H258542   6.825   6.273  14.908  0.5428  0.1964 -0.7523
12351TIP3   OH258543   7.170   7.135  12.389  0.6453 -0.2288  0.4562
12351TIP3    H158544   7.232   7.064  12.403  0.8362 -0.5569 -1.7780
12351TIP3    H258545   7.224   7.209  12.360  0.1903  0.1064  0.4512
12352TIP3   OH258546   2.735   6.982  11.329 -0.6613  0.3556  0.4525
12352TIP3    H158547   2.818   6.997  11.374  0.8515  0.4254 -2.1326
12352TIP3    H258548   2.748   6.899  11.282 -1.2581  1.3165 -1.5359
12353TIP3   OH258549   5.591   4.342   5.006 -0.5583 -0.5513 -0.2950
12353TIP3    H158550   5.595   4.350   4.911 -1.3701 -0.8392 -0.3643
12353TIP3    H258551   5.497   4.342   5.026 -0.3975  0.3564  0.5789
12354TIP3   OH258552   0.202   6.077  11.968  0.3183 -0.1572 -0.1167
12354TIP3    H158553   0.283   6.076  12.019  2.0652 -2.3124 -2.6828
12354TIP3    H258554   0.225   6.123  11.888 -1.3449  0.0807 -0.4948
12355TIP3   OH258555   1.342   3.645   3.202  0.4516  0.4722  0.2140
12355TIP3    H158556   1.296   3.643   3.286 -0.0748  2.9433  0.0582
12355TIP3    H258557   1.435   3.640   3.226  0.3625  2.2661  1.0641
12356TIP3   OH258558   6.806   4.927  10.012 -0.3057 -0.0030 -0.2081
12356TIP3    H158559   6.749   4.967  10.078  1.1841  0.5633  0.8139
12356TIP3    H258560   6.872   4.881  10.064 -0.6255 -1.8394 -1.3583
12357TIP3   OH258561   0.944   4.895   3.286  0.1632  0.7458  0.3769
12357TIP3    H158562   0.869   4.923   3.339 -1.1390  1.3442 -1.6564
12357TIP3    H258563   1.009   4.866   3.349 -1.4441  1.0654  2.2633
12358TIP3   OH258564   4.386   4.598  12.412  0.1526 -0.6467  0.4038
12358TIP3    H158565   4.361   4.542  12.486  0.8644 -0.9832  0.3913
12358TIP3    H258566   4.376   4.688  12.446 -0.5036 -0.7809  0.5814
12359TIP3   OH258567   0.785   5.279   4.727  0.2908  0.1450  0.8148
12359TIP3    H158568   0.750   5.190   4.728  0.3777  0.0864 -0.0476
12359TIP3    H258569   0.710   5.335   4.747 -0.2381 -0.0001 -0.6517
12360TIP3   OH258570   0.243   1.684  15.025  0.9645  0.0389 -0.2056
12360TIP3    H158571   0.307   1.745  15.062 -0.3745  2.5041 -1.6832
12360TIP3    H258572   0.178   1.673  15.094  2.4872 -1.8431  1.0070
12361TIP3   OH258573   3.354   2.527  13.566  0.2455  0.5839  0.4691
12361TIP3    H158574   3.350   2.623  13.557  1.0300  0.7906  1.9902
12361TIP3    H258575   3.263   2.499  13.559  0.1274  1.2705 -1.3997
12362TIP3   OH258576   6.317   1.941  14.786  0.3905 -0.2267 -0.6520
12362TIP3    H158577   6.254   2.012  14.798  0.2011 -0.2419 -1.4966
12362TIP3    H258578   6.378   1.950  14.860 -0.3448  0.0507 -0.0712
12363TIP3   OH258579   4.616   6.713   1.717 -0.4627 -0.0045  0.7146
12363TIP3    H158580   4.584   6.631   1.680 -0.2015  0.3434 -0.3386
12363TIP3    H258581   4.652   6.689   1.802  1.0249 -1.2787 -0.2201
12364TIP3   OH258582   5.207   6.261  13.043  0.2623 -0.0832 -0.6899
12364TIP3    H158583   5.290   6.295  13.008 -0.5070  1.3006 -1.2459
12364TIP3    H258584   5.151   6.252  12.966 -0.9813  1.6120 -0.0518
12365TIP3   OH258585   4.352   3.179   5.263 -0.3521 -0.6779  0.3695
12365TIP3    H158586   4.347   3.222   5.177  1.2535 -0.2553  0.4598
12365TIP3    H258587   4.327   3.247   5.325 -0.4392 -0.6564  0.3111
12366TIP3   OH258588   2.624   3.062  14.180 -0.0209  0.4507 -0.0402
12366TIP3    H158589   2.564   3.134  14.160  0.2642  0.6204 -0.2890
12366TIP3    H258590   2.576   3.008  14.242 -1.0062 -0.1772 -1.3096
12367TIP3   OH258591   5.672   4.302   4.731  0.2256 -0.3907 -0.1231
12367TIP3    H158592   5.732   4.373   4.709 -0.3542 -0.0467 -0.6254
12367TIP3    H258593   5.701   4.229   4.676 -0.2684  0.0026 -0.9303
12368TIP3   OH258594   2.375   4.986   2.226  0.0578 -0.0365  0.4292
12368TIP3    H158595   2.302   4.969   2.285  1.4410  1.0487  2.5874
12368TIP3    H258596   2.443   4.924   2.253  0.0124 -1.0320 -1.5415
12369TIP3   OH258597   3.178   6.401   2.571 -0.1558  0.1085 -0.4849
12369TIP3    H158598   3.147   6.331   2.629  1.3934  0.1866  0.4999
12369TIP3    H258599   3.202   6.357   2.490  0.8126 -0.5246  0.1282
12370TIP3   OH258600   6.948   3.263   0.697 -0.1597  0.4436  0.1673
12370TIP3    H158601   6.854   3.273   0.707 -0.2785 -0.3483 -0.0972
12370TIP3    H258602   6.983   3.276   0.785 -0.4876  0.9709  0.2243
12371TIP3   OH258603   4.175   5.699   4.140  0.3041  0.3417 -0.4417
12371TIP3    H158604   4.206   5.716   4.228  0.8672  1.0279 -0.7561
12371TIP3    H258605   4.154   5.606   4.138  1.5430  0.0454  0.0240
12372TIP3   OH258606   6.246   6.574  13.867 -0.3062  0.2833  0.1620
12372TIP3    H158607   6.263   6.501  13.807  2.2487  1.6411 -0.9361
12372TIP3    H258608   6.332   6.596  13.903 -0.5549  3.9810 -1.0920
12373TIP3   OH258609   3.194   6.953   4.542 -0.3038 -0.1536 -0.0759
12373TIP3    H158610   3.113   6.924   4.583 -0.6286  0.0631 -0.5473
12373TIP3    H258611   3.182   6.934   4.449  0.0211  0.2514 -0.2039
12374TIP3   OH258612   4.593   6.383   4.168 -0.3790 -0.0032 -0.1743
12374TIP3    H158613   4.575   6.303   4.118 -1.8648  0.2067 -0.0057
12374TIP3    H258614   4.555   6.367   4.254  1.0901  0.1193  0.5310
12375TIP3   OH258615   2.369   4.547  11.284 -0.0828  0.4064  0.0275
12375TIP3    H158616   2.364   4.583  11.195  1.2599  0.1954 -0.1648
12375TIP3    H258617   2.304   4.477  11.286  1.4877 -1.2348 -1.6318
12376TIP3   OH258618   6.610   3.400  14.266 -0.2101 -0.0992 -0.0021
12376TIP3    H158619   6.639   3.388  14.175  0.8039 -0.4305  0.3565
12376TIP3    H258620   6.681   3.364  14.319 -1.0362 -0.4081  0.9214
12377TIP3   OH258621   3.772   0.214  10.181  0.9106 -0.4889 -0.1310
12377TIP3    H158622   3.697   0.247  10.131  2.4946  1.6790 -1.2304
12377TIP3    H258623   3.734   0.150  10.241 -1.9874  1.1554 -0.0120
12378TIP3   OH258624   5.314   2.945   0.033 -0.6607 -0.6960 -0.3917
12378TIP3    H158625   5.332   2.969  -0.058  1.6641  0.0400  0.2021
12378TIP3    H258626   5.307   2.850   0.032 -0.8810 -0.6826 -1.3613
12379TIP3   OH258627   1.119   2.861  15.267  0.1809  0.6066 -0.3731
12379TIP3    H158628   1.055   2.818  15.211 -0.3295 -0.2442  0.8238
12379TIP3    H258629   1.160   2.790  15.317 -0.0605  1.4020  1.0099
12380TIP3   OH258630   4.884   0.464  12.212  0.2962 -0.0438  0.2777
12380TIP3    H158631   4.903   0.387  12.265  0.6810 -1.5551 -1.9405
12380TIP3    H258632   4.790   0.460  12.197  0.3180 -0.0633  0.1492
12381TIP3   OH258633   5.718   0.463  12.294  0.1285 -0.0128 -0.3871
12381TIP3    H158634   5.676   0.547  12.311  1.8253  1.5926 -3.3412
12381TIP3    H258635   5.801   0.468  12.342  1.1412  0.9470 -2.1485
12382TIP3   OH258636   5.022   3.722  14.881  0.1240  0.6483  0.0414
12382TIP3    H158637   4.933   3.757  14.870 -0.2399 -0.8833 -3.2628
12382TIP3    H258638   5.009   3.635  14.918  0.4544  1.1662  1.4259
12383TIP3   OH258639   6.742   2.327   5.081  0.0626 -0.0804 -0.4378
12383TIP3    H158640   6.666   2.284   5.122 -0.9718  1.2684 -0.8629
12383TIP3    H258641   6.792   2.362   5.155 -0.7155  0.6020 -0.2195
12384TIP3   OH258642   6.501   5.718  10.408  0.2195  0.1515 -0.7235
12384TIP3    H158643   6.457   5.633  10.394  0.6365 -0.8230  2.9794
12384TIP3    H258644   6.429   5.780  10.421 -0.2157 -0.7897  1.9514
12385TIP3   OH258645   3.105   2.974   1.451 -0.4705  0.1137  0.5952
12385TIP3    H158646   3.066   2.895   1.489  1.0668 -0.5272  0.9424
12385TIP3    H258647   3.071   2.977   1.362  1.2147 -2.3278 -0.2400
12386TIP3   OH258648   1.015   2.030   5.171 -0.1196  0.0989 -0.1639
12386TIP3    H158649   1.053   2.006   5.086  0.8689  0.8056  0.0637
12386TIP3    H258650   1.045   2.119   5.186  0.7215 -0.4292  1.4871
12387TIP3   OH258651   5.434   1.965   0.049  0.3447  0.0641 -0.3651
12387TIP3    H158652   5.493   1.955  -0.026  1.9602 -1.3832  0.9979
12387TIP3    H258653   5.459   1.894   0.108 -1.4116  0.6714  1.1972
12388TIP3   OH258654   3.753   3.038   0.914 -0.2151  0.6547  0.1488
12388TIP3    H158655   3.723   3.079   0.833  0.2086 -2.7715 -1.9938
12388TIP3    H258656   3.841   3.006   0.892 -0.0416 -0.2500  2.0059
12389TIP3   OH258657   5.169   4.171   4.492 -0.7581  0.1457 -0.6125
12389TIP3    H158658   5.073   4.173   4.492 -0.8068 -0.5194 -2.1402
12389TIP3    H258659   5.191   4.087   4.453  0.5003 -0.7509  1.8866
12390TIP3   OH258660   1.691   7.194   0.413 -0.8460 -1.0870  0.7905
12390TIP3    H158661   1.702   7.244   0.494 -1.5016 -0.6824  0.6339
12390TIP3    H258662   1.627   7.127   0.435  0.7342 -2.5174  1.2839
12391TIP3   OH258663   3.180   1.127  12.531 -0.2199  0.1832  0.0092
12391TIP3    H158664   3.171   1.169  12.616  0.1579  1.6830 -0.6611
12391TIP3    H258665   3.273   1.134  12.511 -0.1131 -1.1559 -0.0528
12392TIP3   OH258666   2.847   0.034  15.110  0.6654 -0.1421  0.5067
12392TIP3    H158667   2.919   0.090  15.140 -0.8009  1.6138  0.9372
12392TIP3    H258668   2.869   0.012  15.020  1.7858  0.2805  0.6622
12393TIP3   OH258669   2.232   3.817   4.050  0.2976  1.0128 -0.3453
12393TIP3    H158670   2.213   3.910   4.038 -0.5133  1.0680  1.1787
12393TIP3    H258671   2.176   3.790   4.122  0.2540 -0.7642 -0.9969
12394TIP3   OH258672   6.347   1.684   3.267  0.1465  0.6117  0.0451
12394TIP3    H158673   6.329   1.778   3.274 -0.3940  0.5823 -0.8069
12394TIP3    H258674   6.402   1.665   3.343 -0.6191  1.3956  0.8233
12395TIP3   OH258675   1.588   1.669  13.419  0.0412  0.3940  0.7774
12395TIP3    H158676   1.636   1.586  13.421  0.9245  0.7423 -1.7392
12395TIP3    H258677   1.619   1.716  13.496  2.9001  0.0692 -0.0290
12396TIP3   OH258678   4.353   6.868   3.051  0.1432  0.7934 -0.8531
12396TIP3    H158679   4.319   6.875   3.140  2.1524  1.1192 -0.0422
12396TIP3    H258680   4.434   6.818   3.060 -0.7906 -1.2297 -2.8786
12397TIP3   OH258681   6.508   4.429   3.349  1.0526 -0.5380  0.3566
12397TIP3    H158682   6.543   4.514   3.323  3.5552 -1.6165 -0.0578
12397TIP3    H258683   6.543   4.414   3.436  1.1064 -1.3945  0.1943
12398TIP3   OH258684   4.081   5.727   1.090 -0.7287 -0.1316 -0.0912
12398TIP3    H158685   4.153   5.689   1.141 -1.4980 -0.3923  0.8356
12398TIP3    H258686   4.097   5.697   1.001  0.0876 -0.5220  0.1695
12399TIP3   OH258687   0.702   4.795   4.906  0.1269  0.5830 -0.5739
12399TIP3    H158688   0.696   4.705   4.874 -0.4059  0.4190 -0.0311
12399TIP3    H258689   0.633   4.802   4.972  0.7271  1.1229  0.0192
12400TIP3   OH258690   6.539   2.654  14.014  0.3136  0.4977  0.5611
12400TIP3    H158691   6.444   2.650  14.024  0.2225 -1.9098 -0.5095
12400TIP3    H258692   6.552   2.683  13.923  0.5671  0.2816  0.5249
12401TIP3   OH258693   4.271   0.624  14.914  0.3187 -0.3558  0.4672
12401TIP3    H158694   4.302   0.547  14.962 -1.1109 -1.5905 -0.5135
12401TIP3    H258695   4.237   0.682  14.982  0.9717 -0.7772  1.1780
12402TIP3   OH258696   4.254   3.576   3.305 -0.1174 -0.2034 -0.0393
12402TIP3    H158697   4.170   3.532   3.291  0.2981 -0.8140 -0.6649
12402TIP3    H258698   4.231   3.668   3.312 -0.6796 -0.1169 -2.1317
12403TIP3   OH258699   5.920   2.209  13.666  0.1627 -0.0770 -0.1246
12403TIP3    H158700   5.843   2.193  13.720 -0.7184  1.1900 -0.9451
12403TIP3    H258701   5.887   2.208  13.576  1.3544 -0.8312 -0.5831
12404TIP3   OH258702   1.877   4.118  10.947 -0.4286 -0.5562 -0.5467
12404TIP3    H158703   1.869   4.191  11.008 -0.5048 -0.3307 -0.8246
12404TIP3    H258704   1.965   4.128  10.910 -0.3299 -0.7729 -0.3712
12405TIP3   OH258705   0.077   1.929   0.809  0.1514  0.0240 -0.1021
12405TIP3    H158706   0.104   1.981   0.733 -0.6546 -0.3856 -0.6884
12405TIP3    H258707   0.114   1.974   0.884  0.8664  0.5073 -0.7326
12406TIP3   OH258708   2.242   5.275   1.845  0.2778  0.2062  0.1435
12406TIP3    H158709   2.176   5.217   1.807  1.3883 -0.2793 -1.1121
12406TIP3    H258710   2.299   5.217   1.895  1.3317  0.1857 -1.0332
12407TIP3   OH258711   2.606   3.318  14.009  0.2374 -0.2926 -0.0715
12407TIP3    H158712   2.670   3.342  13.941 -0.9306  1.4610 -0.6277
12407TIP3    H258713   2.537   3.384  14.001 -0.3530 -0.5405  2.2800
12408TIP3   OH258714   1.163   2.635  10.460 -0.3876 -0.0893  0.7085
12408TIP3    H158715   1.145   2.618  10.367  0.3811 -0.6470  0.6508
12408TIP3    H258716   1.237   2.577  10.481  0.7911  1.4936  1.1251
12409TIP3   OH258717   5.214   5.223  12.165  0.1836  0.8473 -0.3079
12409TIP3    H158718   5.277   5.286  12.131  0.8562  0.5524  0.3549
12409TIP3    H258719   5.133   5.242  12.118  0.5995  1.6427 -0.7261
12410TIP3   OH258720   3.164   6.433  15.105 -0.1926 -0.3271  0.0920
12410TIP3    H158721   3.234   6.498  15.103  0.5425 -0.9992  1.9496
12410TIP3    H258722   3.098   6.471  15.164 -1.1887  0.0665 -1.2331
12411TIP3   OH258723   2.011   0.886   2.295  0.3787  0.1401  0.6310
12411TIP3    H158724   1.979   0.972   2.322 -0.2311 -0.0029  0.3747
12411TIP3    H258725   1.954   0.824   2.341 -0.3602 -0.1093 -0.5958
12412TIP3   OH258726   4.837   0.946   0.120  0.2888 -0.1033 -0.3019
12412TIP3    H158727   4.777   0.987   0.058  0.1955  1.3883  0.7208
12412TIP3    H258728   4.920   0.991   0.107  0.1964  0.4345  0.8155
12413TIP3   OH258729   4.774   1.276   1.597  0.3158  0.0052  0.0428
12413TIP3    H158730   4.839   1.208   1.578 -0.5273 -0.7196 -0.3265
12413TIP3    H258731   4.709   1.267   1.527 -1.1767 -0.5432  1.4406
12414TIP3   OH258732   1.463   1.879   2.720 -0.4551 -1.3120  0.4558
12414TIP3    H158733   1.414   1.849   2.797 -1.4118  1.0417  0.8470
12414TIP3    H258734   1.530   1.938   2.755 -1.6683  0.7497 -0.5359
12415TIP3   OH258735   1.683   4.971   1.776  0.2505 -0.6317 -0.1815
12415TIP3    H158736   1.749   5.032   1.745  0.3289  0.2555  1.6488
12415TIP3    H258737   1.724   4.926   1.850 -1.2824  0.2594  1.2854
12416TIP3   OH258738   2.563   6.192  10.533 -0.0163 -0.0274  0.6219
12416TIP3    H158739   2.498   6.171  10.467 -0.0180  0.8354  0.3407
12416TIP3    H258740   2.522   6.169  10.616 -1.0186  1.2823  0.5191
12417TIP3   OH258741   2.972   1.126   0.526 -0.5445 -0.1385  0.1955
12417TIP3    H158742   2.905   1.142   0.592  0.3469  1.3471  0.7876
12417TIP3    H258743   3.022   1.052   0.560 -2.3468 -1.8554 -0.6722
12418TIP3   OH258744   4.899   3.357   3.554  0.0284 -0.1126 -0.5835
12418TIP3    H158745   4.875   3.449   3.549 -0.0699 -0.1652 -1.1492
12418TIP3    H258746   4.824   3.311   3.516 -0.3279 -0.4946  0.5367
12419TIP3   OH258747   6.621   0.405   5.097  0.5639  0.3390 -0.9387
12419TIP3    H158748   6.556   0.462   5.137 -0.0429 -0.4610 -0.7735
12419TIP3    H258749   6.700   0.419   5.149 -0.7832 -2.3646  2.1194
12420TIP3   OH258750   1.398   5.104  14.896  0.5979 -0.3175 -0.4308
12420TIP3    H158751   1.341   5.180  14.889  0.9404 -0.2006 -2.5644
12420TIP3    H258752   1.367   5.058  14.974  0.5534  2.0988  1.0614
12421TIP3   OH258753   6.290   2.899   3.441 -0.2416 -0.1356 -0.2714
12421TIP3    H158754   6.205   2.856   3.447 -0.2891 -0.0547 -0.3663
12421TIP3    H258755   6.301   2.921   3.348 -0.6908  0.9958 -0.0761
12422TIP3   OH258756   4.256   2.733   1.884 -0.2143  0.2660  0.8746
12422TIP3    H158757   4.216   2.801   1.829  5.1893  0.9685 -2.9537
12422TIP3    H258758   4.292   2.781   1.958 -0.1119  0.8150  0.4738
12423TIP3   OH258759   0.758   0.666   1.561  0.1211 -0.0338 -0.4019
12423TIP3    H158760   0.709   0.724   1.618  1.0609  2.1749 -1.7272
12423TIP3    H258761   0.839   0.647   1.609  0.3991  0.8667 -0.4997
12424TIP3   OH258762   5.726   3.400   2.163  0.6881  0.4094  0.1601
12424TIP3    H158763   5.766   3.481   2.134 -0.0533  1.0070  0.7747
12424TIP3    H258764   5.642   3.426   2.200  0.6001 -0.5891  0.7025
12425TIP3   OH258765   1.543   4.836   1.555 -0.1686  0.1865  0.1054
12425TIP3    H158766   1.464   4.791   1.583  0.1193 -0.7070 -0.5051
12425TIP3    H258767   1.570   4.886   1.632 -0.7577 -0.2971  0.6357
12426TIP3   OH258768   6.639   2.427  13.876 -1.0293 -0.2151  0.5380
12426TIP3    H158769   6.601   2.429  13.789  1.1141  0.5579 -0.4463
12426TIP3    H258770   6.599   2.501  13.922 -1.3556  0.0312 -0.1357
12427TIP3   OH258771   2.806   6.081  13.958 -0.1212 -0.3951 -0.3133
12427TIP3    H158772   2.840   6.019  13.894  1.0020 -0.0612 -0.0508
12427TIP3    H258773   2.876   6.092  14.021 -0.6019  0.5489  0.0770
12428TIP3   OH258774   5.202   6.363   0.991 -0.1369  0.1522  0.2627
12428TIP3    H158775   5.195   6.425   0.918  0.4530  0.3744  0.3927
12428TIP3    H258776   5.175   6.279   0.954  0.8598  0.1182 -0.4077
12429TIP3   OH258777   2.603   0.121   4.436  0.2549  0.3995  0.0997
12429TIP3    H158778   2.555   0.106   4.518 -0.5259  1.2779 -0.1641
12429TIP3    H258779   2.567   0.204   4.403  1.1301  0.4686 -0.7250
12430TIP3   OH258780   3.264   6.128  14.314  0.1605  0.0992  0.3333
12430TIP3    H158781   3.194   6.062  14.315 -0.6242  0.8867 -0.6416
12430TIP3    H258782   3.278   6.147  14.221 -0.3814  2.0770  0.6217
12431TIP3   OH258783   3.066   6.463   2.934  0.1081  0.0281  0.2140
12431TIP3    H158784   3.025   6.456   2.848  0.8664  0.0392 -0.1557
12431TIP3    H258785   3.118   6.382   2.942  1.2448  0.7197  0.0057
12432TIP3   OH258786   6.224   3.601  10.432  0.2506  0.3639 -0.1227
12432TIP3    H158787   6.188   3.533  10.488 -1.7044  0.5964 -1.0077
12432TIP3    H258788   6.316   3.579  10.423  0.0940 -0.9868  1.2625
12433TIP3   OH258789   5.881   7.001  14.455 -0.2764 -0.0236  0.1148
12433TIP3    H158790   5.793   7.037  14.468  0.3674  2.1243 -0.9904
12433TIP3    H258791   5.923   7.007  14.541 -1.2092 -1.2452  0.6996
12434TIP3   OH258792   5.058   1.911   1.695 -0.3254 -0.1475 -0.3172
12434TIP3    H158793   5.055   1.852   1.620  1.4458 -0.7558  0.0497
12434TIP3    H258794   5.069   1.998   1.656  1.8014 -0.5790 -0.7951
12435TIP3   OH258795   0.838   2.994   2.791  0.7247  0.2714  0.5233
12435TIP3    H158796   0.755   3.007   2.746  1.1345  2.0551  0.1932
12435TIP3    H258797   0.875   2.915   2.751  0.5038  1.0905 -1.4491
12436TIP3   OH258798   3.837   5.862   5.076 -0.5668 -0.0313  0.5962
12436TIP3    H158799   3.826   5.940   5.023 -1.8434 -1.0545 -0.7332
12436TIP3    H258800   3.769   5.870   5.143 -1.1128 -0.2853  0.0806
12437TIP3   OH258801   4.816   6.771   0.305 -0.2894 -0.8240 -0.1778
12437TIP3    H158802   4.908   6.744   0.307  0.4569  1.4958  1.9676
12437TIP3    H258803   4.810   6.829   0.229 -0.3993 -2.0495 -1.1501
12438TIP3   OH258804   1.931   0.691   1.852 -0.7753 -0.6067  0.0091
12438TIP3    H158805   1.983   0.670   1.929  0.5294 -0.9288 -0.9256
12438TIP3    H258806   1.842   0.702   1.885  0.1245  1.8327  1.9942
12439TIP3   OH258807   1.554   1.876   2.146 -0.1982 -0.3282 -0.3867
12439TIP3    H158808   1.468   1.918   2.148  0.0945  0.2387  0.7195
12439TIP3    H258809   1.538   1.787   2.178 -0.2232  0.0779  0.7532
12440TIP3   OH258810   5.387   5.621  13.937  0.6315  0.2266  0.5885
12440TIP3    H158811   5.445   5.690  13.970  0.6303 -0.2506  1.5970
12440TIP3    H258812   5.308   5.628  13.990 -0.0733  0.5762 -0.4801
12441TIP3   OH258813   3.966   4.622   3.557 -0.3100  0.3552  1.0235
12441TIP3    H158814   3.882   4.623   3.603 -0.3095  0.6404  1.0160
12441TIP3    H258815   4.010   4.702   3.584 -1.0600  1.4626 -0.8497
12442TIP3   OH258816   3.982   1.729   4.494  0.1663 -0.1248  0.5257
12442TIP3    H158817   4.008   1.651   4.445 -2.0268 -0.2119 -0.6267
12442TIP3    H258818   3.994   1.705   4.586  0.5392 -1.4132  0.1604
12443TIP3   OH258819   2.042   3.255   3.452  0.6498  0.0176  0.6350
12443TIP3    H158820   2.033   3.207   3.370  2.2351  0.9588 -0.1312
12443TIP3    H258821   1.956   3.295   3.467  0.4780  0.2218 -0.8205
12444TIP3   OH258822   2.110   2.038   0.636  0.6639  0.2212  0.1648
12444TIP3    H158823   2.126   2.109   0.575  0.1936  1.1805  1.1192
12444TIP3    H258824   2.196   1.999   0.651  0.7884 -0.0015 -1.0522
12445TIP3   OH258825   1.326   4.016   0.754  0.3725  0.3303  0.4235
12445TIP3    H158826   1.250   3.966   0.722  0.2287  1.0250 -0.3765
12445TIP3    H258827   1.308   4.031   0.847 -0.9795  1.3514  0.0226
12446TIP3   OH258828   4.594   2.883  12.416 -0.1805  0.2519 -0.5879
12446TIP3    H158829   4.526   2.945  12.441  1.5644  1.2450  2.1183
12446TIP3    H258830   4.596   2.819  12.487  2.2047  0.7433 -0.1302
12447TIP3   OH258831   0.662   4.934   0.808  0.1720 -0.0476  0.2813
12447TIP3    H158832   0.596   4.870   0.780  1.4265 -0.2239 -2.5340
12447TIP3    H258833   0.742   4.884   0.818  1.0295  0.9082 -1.3608
12448TIP3   OH258834   6.065   3.009  13.061 -0.1167  0.1801 -0.5131
12448TIP3    H158835   6.138   2.962  13.100  0.8962  0.5854 -1.8439
12448TIP3    H258836   6.002   2.940  13.038  0.5124 -0.3362 -0.7234
12449TIP3   OH258837   5.481   5.336   1.655 -0.2214 -0.1277 -0.5427
12449TIP3    H158838   5.565   5.362   1.695  0.5148  0.9019 -2.6001
12449TIP3    H258839   5.505   5.268   1.592 -0.3411  2.1362 -3.2535
12450TIP3   OH258840   3.986   4.997   2.581 -0.2933  0.2709 -0.4324
12450TIP3    H158841   3.950   5.074   2.538 -0.0206  0.3456 -0.5241
12450TIP3    H258842   3.949   4.999   2.670  0.2628  0.8842 -0.2096
12451TIP3   OH258843   4.922   6.045  13.688 -0.2650  0.1455 -0.8194
12451TIP3    H158844   4.847   6.045  13.747 -0.3452 -0.2387 -0.9189
12451TIP3    H258845   4.969   5.964  13.709  0.3444  0.5710 -0.4773
12452TIP3   OH258846   7.147   4.190  10.839  0.4498 -0.1372  0.6052
12452TIP3    H158847   7.079   4.154  10.781 -1.6575 -1.7666  3.8032
12452TIP3    H258848   7.100   4.252  10.895  2.1978  0.7186  1.1880
12453TIP3   OH258849   3.707   0.834  12.493  0.0932 -0.8029 -0.3262
12453TIP3    H158850   3.715   0.880  12.577 -0.5262  2.0876 -1.7421
12453TIP3    H258851   3.707   0.741  12.517 -1.6732 -0.0953  3.0132
12454TIP3   OH258852   3.274   6.564   1.625  0.2879 -0.2567 -0.2490
12454TIP3    H158853   3.216   6.525   1.691  0.6021  1.4165  1.0813
12454TIP3    H258854   3.276   6.657   1.647  0.6470  0.3122 -2.4782
12455TIP3   OH258855   2.764   3.915   2.043 -0.0464  0.0861  0.5196
12455TIP3    H158856   2.741   3.840   2.098  0.9794 -0.9383 -0.4025
12455TIP3    H258857   2.730   3.893   1.957  0.9005  0.3386  0.0693
12456TIP3   OH258858   5.303   6.726   3.758 -0.5908 -0.0451 -0.1964
12456TIP3    H158859   5.391   6.755   3.735 -0.5457  1.2270  1.3948
12456TIP3    H258860   5.310   6.631   3.766  0.5471  0.0125 -0.3804
12457TIP3   OH258861   5.780   0.925   3.474 -0.8460 -0.1940 -0.2063
12457TIP3    H158862   5.722   0.907   3.401  2.2781 -2.0548 -2.4543
12457TIP3    H258863   5.778   1.020   3.484 -2.7134 -0.0566 -1.4730
12458TIP3   OH258864   3.738   2.660   4.003  0.0100  0.2882  0.0357
12458TIP3    H158865   3.819   2.633   3.958  0.3829  0.3101  0.6820
12458TIP3    H258866   3.679   2.586   3.993 -0.0171  0.4033 -0.7349
12459TIP3   OH258867   5.451   0.929   3.592  0.0748  0.2817 -0.4923
12459TIP3    H158868   5.433   0.860   3.527 -0.8675 -1.8819  1.8854
12459TIP3    H258869   5.546   0.939   3.592  0.3458 -1.8533 -0.1785
12460TIP3   OH258870   5.166   1.745   4.362 -0.1399 -0.5023  0.3498
12460TIP3    H158871   5.146   1.802   4.288 -3.7928 -1.0301  0.7526
12460TIP3    H258872   5.183   1.805   4.435  2.4271  0.0033 -0.5788
12461TIP3   OH258873   6.001   6.634  10.025 -0.4233  0.2439 -0.3316
12461TIP3    H158874   5.919   6.671  10.057 -0.5329 -0.4744  0.2597
12461TIP3    H258875   5.974   6.570   9.959 -0.3715 -0.2121  0.0790
12462TIP3   OH258876   3.771   6.785  13.409 -0.4672  0.0206  0.0760
12462TIP3    H158877   3.802   6.703  13.448 -0.9575 -0.5577 -0.6974
12462TIP3    H258878   3.682   6.765  13.381 -0.6649  0.8944  0.0709
12463TIP3   OH258879   2.416   6.753  14.440  0.0521 -0.1724 -0.2261
12463TIP3    H158880   2.385   6.835  14.401 -1.7996 -0.1716  1.1394
12463TIP3    H258881   2.467   6.781  14.516  0.3003 -0.2757 -0.3536
12464TIP3   OH258882   1.221   4.103   4.249  1.0439  0.0733  0.0096
12464TIP3    H158883   1.145   4.069   4.201  0.0576  1.7022  0.3330
12464TIP3    H258884   1.258   4.026   4.292 -1.5713 -0.5140  1.4059
12465TIP3   OH258885   1.960   2.551   0.756  0.1864  0.5572  0.2941
12465TIP3    H158886   2.006   2.596   0.685  0.7985  1.8949  1.5060
12465TIP3    H258887   1.965   2.458   0.732  0.8838  0.9257 -1.1123
12466TIP3   OH258888   5.009   0.123   9.314  0.1261 -0.9454 -0.5961
12466TIP3    H158889   4.990   0.085   9.400 -1.3973 -0.1436 -0.5453
12466TIP3    H258890   5.015   0.048   9.255  0.1055 -1.4287  0.0097
12467TIP3   OH258891   2.029   4.351   4.672  0.2411  0.3913 -0.3247
12467TIP3    H158892   2.005   4.278   4.729 -0.6231  1.9685  1.4393
12467TIP3    H258893   1.947   4.396   4.655  0.7147  0.7917 -1.6474
12468TIP3   OH258894   4.120   0.951  13.630 -0.2954  0.0394  0.2171
12468TIP3    H158895   4.049   0.887  13.621 -1.1178  1.1903 -2.7412
12468TIP3    H258896   4.198   0.904  13.601 -0.4641 -0.3113  0.3237
12469TIP3   OH258897   6.688   5.009  15.126 -0.1020  0.2357 -0.0458
12469TIP3    H158898   6.652   5.028  15.039 -0.8478  0.8742  0.3853
12469TIP3    H258899   6.649   4.925  15.150  0.0149  0.1134 -0.2795
12470TIP3   OH258900   1.593   7.180   0.067 -0.4297 -0.1983  0.7011
12470TIP3    H158901   1.531   7.157  -0.002  1.5229 -1.6250 -0.6846
12470TIP3    H258902   1.585   7.109   0.131 -1.7465  0.7693  1.6628
12471TIP3   OH258903   1.898   7.036  10.657  0.0278  0.0838  0.5080
12471TIP3    H158904   1.888   7.019  10.563 -0.4677 -0.7436  0.6971
12471TIP3    H258905   1.972   7.096  10.663  1.1866 -1.1944 -0.3088
12472TIP3   OH258906   4.992   0.223   2.124 -0.0547 -0.3308  0.1949
12472TIP3    H158907   4.921   0.286   2.137  0.1060 -0.1665  0.2911
12472TIP3    H258908   4.949   0.138   2.126 -0.0193 -0.3488  2.1947
12473TIP3   OH258909   6.348   6.476  11.168 -0.3710  0.0809  0.2806
12473TIP3    H158910   6.323   6.512  11.083 -2.1936 -0.3349  0.5833
12473TIP3    H258911   6.291   6.521  11.231 -0.0771 -0.6545  1.1046
12474TIP3   OH258912   4.211   2.141   3.979 -0.8171  0.0657  0.2143
12474TIP3    H158913   4.304   2.126   3.999 -0.0674  2.4376 -1.1083
12474TIP3    H258914   4.165   2.107   4.056  1.3401  1.2518  2.1846
12475TIP3   OH258915   6.848   3.530  15.262  0.6723 -0.2795  0.5122
12475TIP3    H158916   6.771   3.578  15.230 -0.2276 -0.4096  2.3475
12475TIP3    H258917   6.822   3.437  15.256  0.5452 -0.3120  1.3933
12476TIP3   OH258918   0.744   6.652   5.192 -0.2164  0.1112  0.3479
12476TIP3    H158919   0.839   6.650   5.197 -0.0838 -0.5034 -1.5443
12476TIP3    H258920   0.721   6.744   5.201  0.2994  0.0512  3.4359
12477TIP3   OH258921   0.493   0.027   2.094  0.5235  0.0451 -0.8546
12477TIP3    H158922   0.422   0.091   2.090 -0.4691 -0.8730  0.9228
12477TIP3    H258923   0.531   0.039   2.181  1.4822 -0.6034 -1.1664
12478TIP3   OH258924   6.304   3.121  13.351  0.8156 -0.0680  0.6485
12478TIP3    H158925   6.288   3.028  13.336  0.5750  0.1114 -0.2855
12478TIP3    H258926   6.271   3.138  13.439 -1.9189 -0.2359 -0.2733
12479TIP3   OH258927   6.780   5.479   0.232  0.1403 -0.2448  0.2977
12479TIP3    H158928   6.860   5.532   0.233  0.4476 -0.6992  0.2355
12479TIP3    H258929   6.711   5.540   0.206  0.6707 -0.1175 -0.8641
12480TIP3   OH258930   3.276   2.715  12.026  0.4739 -0.0378 -0.1533
12480TIP3    H158931   3.191   2.718  11.984  0.0083 -0.2478  0.7336
12480TIP3    H258932   3.310   2.804  12.020 -0.2207  0.2615  0.2899
12481TIP3   OH258933   3.499   3.608   2.204 -0.3923 -0.3677  0.3049
12481TIP3    H158934   3.568   3.544   2.217 -0.8235 -0.6728  1.1765
12481TIP3    H258935   3.423   3.571   2.249 -0.6159  0.8090  0.9237
12482TIP3   OH258936   1.494   2.714  10.352 -0.8392 -0.1540 -0.6666
12482TIP3    H158937   1.491   2.768  10.431  2.1786 -1.0764  0.2103
12482TIP3    H258938   1.474   2.626  10.382 -1.6812 -0.2171 -1.3558
12483TIP3   OH258939   6.739   6.358   3.823 -0.0626 -0.4583  0.0535
12483TIP3    H158940   6.719   6.449   3.845 -2.1653 -0.4443 -1.6111
12483TIP3    H258941   6.791   6.327   3.897 -0.0725  1.7998  1.1138
12484TIP3   OH258942   2.119   3.140  14.260  0.1586  0.0714 -0.0848
12484TIP3    H158943   2.070   3.111  14.337  0.9237 -3.1257 -0.6528
12484TIP3    H258944   2.058   3.193  14.210 -1.8145 -1.4031  0.6352
12485TIP3   OH258945   6.862   2.868  14.792  0.7818  0.3520  0.4562
12485TIP3    H158946   6.840   2.778  14.816 -2.0187  0.5312 -0.9259
12485TIP3    H258947   6.865   2.915  14.875 -1.7039 -0.3305  1.0435
12486TIP3   OH258948   1.052   0.550  14.138  0.3752  0.0470 -0.1678
12486TIP3    H158949   1.059   0.550  14.233 -1.2080  1.8868  0.0030
12486TIP3    H258950   1.140   0.572  14.108  0.2327  2.5812  1.0371
12487TIP3   OH258951   1.850   2.776  12.177 -0.4776 -0.6420 -0.0669
12487TIP3    H158952   1.786   2.774  12.248  0.1774 -2.3895  0.5283
12487TIP3    H258953   1.917   2.713  12.203  0.2477 -0.6625 -1.8149
12488TIP3   OH258954   6.931   1.950   5.561  0.0066  0.0172 -0.5115
12488TIP3    H158955   6.861   1.912   5.614  0.7861 -0.2668  0.3442
12488TIP3    H258956   6.985   1.875   5.536  0.6541  0.3690 -0.1791
12489TIP3   OH258957   0.666   0.432   1.699 -0.0767 -0.3278 -0.2845
12489TIP3    H158958   0.581   0.397   1.672 -0.0678 -2.3281  1.8901
12489TIP3    H258959   0.663   0.525   1.676 -3.1384 -0.1769  0.3141
12490TIP3   OH258960   4.152   2.945   1.145  0.1587 -1.0845  0.2018
12490TIP3    H158961   4.090   3.008   1.181  2.5219  1.6462 -0.0882
12490TIP3    H258962   4.230   2.954   1.201  1.4362 -1.9230 -1.3600
12491TIP3   OH258963   2.926   1.851   2.166 -0.3297  0.1800  0.1110
12491TIP3    H158964   2.940   1.932   2.216 -3.7177  1.3375 -0.5299
12491TIP3    H258965   2.900   1.787   2.231 -2.9169  1.1852  0.1925
12492TIP3   OH258966   3.243   1.060  14.045  0.2014 -0.1146 -0.2491
12492TIP3    H158967   3.300   1.120  13.996  1.2308 -1.0797 -0.2867
12492TIP3    H258968   3.219   1.108  14.124 -0.6383  1.0870 -1.2016
12493TIP3   OH258969   6.416   2.836  14.501  0.1433  0.8313  0.4129
12493TIP3    H158970   6.368   2.864  14.579 -1.6001  0.0810 -0.3336
12493TIP3    H258971   6.479   2.907  14.485 -1.2053  2.2342  1.0300
12494TIP3   OH258972   2.144   2.393  13.863 -0.2362 -0.0396 -0.1430
12494TIP3    H158973   2.190   2.315  13.832  0.6995  0.1933  0.6329
12494TIP3    H258974   2.064   2.396  13.810  0.2944 -0.8422 -1.0141
12495TIP3   OH258975   2.923   2.565   1.203 -0.2595 -0.0617  0.2579
12495TIP3    H158976   2.985   2.627   1.165  0.9481 -0.8538  0.8716
12495TIP3    H258977   2.895   2.511   1.130 -0.0802  0.1780  0.0122
12496TIP3   OH258978   3.178   1.038  14.934  0.5561  0.2683 -0.2968
12496TIP3    H158979   3.085   1.056  14.948  1.0245  1.0387  2.4064
12496TIP3    H258980   3.179   0.951  14.894 -1.3364  0.8807 -1.8449
12497TIP3   OH258981   0.085   2.552  13.824  0.6314 -0.3048 -0.3475
12497TIP3    H158982  -0.001   2.532  13.861  0.0781  1.0173 -0.8657
12497TIP3    H258983   0.097   2.487  13.755  0.5361 -1.1665  0.4256
12498TIP3   OH258984   3.441   1.898   2.481  0.6397  0.4609 -0.3599
12498TIP3    H158985   3.451   1.881   2.575  0.2057  0.6162 -0.2838
12498TIP3    H258986   3.470   1.817   2.439  0.7581  0.3605 -0.0893
12499TIP3   OH258987   2.691   4.948  15.086  0.3135  0.2861  0.9493
12499TIP3    H158988   2.671   5.029  15.133  0.5184  1.2128 -0.5107
12499TIP3    H258989   2.777   4.922  15.119 -0.1545  0.1358  2.0938
12500TIP3   OH258990   6.500   6.693  13.949  0.7469 -0.3703  0.3383
12500TIP3    H158991   6.519   6.689  13.855  1.7607 -1.6772  0.5768
12500TIP3    H258992   6.561   6.758  13.983 -0.1181  0.6501  0.0066
12501TIP3   OH258993   6.825   6.535  13.356  0.4887  0.2897  0.5509
12501TIP3    H158994   6.906   6.508  13.399  1.5490  0.2178 -1.3480
12501TIP3    H258995   6.845   6.621  13.319 -0.7216  0.8198  1.0720
12502TIP3   OH258996   7.059   6.088  11.479  0.1047  0.2225 -0.2842
12502TIP3    H158997   7.130   6.109  11.420 -0.4101 -0.5462 -1.2092
12502TIP3    H258998   7.016   6.172  11.497  0.8778  0.5989 -0.1859
12503TIP3   OH258999   2.096   2.004   5.709 -0.4222 -0.0435 -0.3756
12503TIP3    H159000   2.045   2.067   5.760  0.3509  1.5280 -1.4772
12503TIP3    H259001   2.173   2.052   5.680  0.4475 -1.6486 -0.8643
12504TIP3   OH259002   3.078   3.685  10.923  0.3344  0.4644 -0.0414
12504TIP3    H159003   3.069   3.766  10.974  0.0538  1.0519 -0.9955
12504TIP3    H259004   3.002   3.632  10.948  1.2732 -0.1650  1.6800
12505TIP3   OH259005   6.946   1.963  11.472  0.5921  0.2845 -0.5287
12505TIP3    H159006   7.032   1.925  11.493 -0.1754 -1.0660  0.3502
12505TIP3    H259007   6.955   1.994  11.382  2.3498  1.2513 -0.0607
12506TIP3   OH259008   2.596   5.001   3.208  0.5645  0.1096 -0.2947
12506TIP3    H159009   2.516   5.051   3.221  0.9844  0.2533  1.9903
12506TIP3    H259010   2.667   5.064   3.218  1.0276 -0.4546  0.0439
12507TIP3   OH259011   0.786   3.591  14.492 -0.3613  0.5352  0.0742
12507TIP3    H159012   0.692   3.581  14.507 -0.2564 -2.0317 -0.4894
12507TIP3    H259013   0.827   3.534  14.557  0.6939 -0.1295 -1.1363
12508TIP3   OH259014   0.946   2.602  13.893  0.0771 -0.5205  0.2875
12508TIP3    H159015   0.951   2.561  13.979  0.8167  1.6000  1.3463
12508TIP3    H259016   0.853   2.607  13.874 -0.1188 -0.7672  1.1268
12509TIP3   OH259017   2.713   2.134  15.173 -0.6263 -0.7618  0.2445
12509TIP3    H159018   2.649   2.204  15.179  0.3019  0.0150  1.9336
12509TIP3    H259019   2.663   2.054  15.188 -1.3300 -0.2506  0.6741
12510TIP3   OH259020   2.407   4.498   2.446  0.0749 -0.2037 -0.1141
12510TIP3    H159021   2.434   4.411   2.477  0.7442 -0.4759 -1.3857
12510TIP3    H259022   2.324   4.515   2.492 -1.4375 -2.6566 -1.6955
12511TIP3   OH259023   3.114   3.126  14.633  0.1675  0.3527 -0.6152
12511TIP3    H159024   3.181   3.060  14.648  1.2465  1.6092  0.2985
12511TIP3    H259025   3.032   3.084  14.660  1.1334  0.1929  2.4330
12512TIP3   OH259026   1.685   4.826  14.149 -0.5141  0.0484  0.1366
12512TIP3    H159027   1.663   4.751  14.205 -1.1168 -0.6026 -0.9440
12512TIP3    H259028   1.631   4.815  14.071  0.6305  0.6854 -0.7819
12513TIP3   OH259029   5.729   0.498   0.123 -0.3849  0.0712  0.4162
12513TIP3    H159030   5.688   0.538   0.047 -2.5454 -0.6082  1.1334
12513TIP3    H259031   5.818   0.477   0.095 -0.3848  1.8922 -1.1475
12514TIP3   OH259032   6.106   5.526   0.027 -0.2519 -0.0052  0.5549
12514TIP3    H159033   6.018   5.492   0.009 -0.0453 -0.2332 -0.0543
12514TIP3    H259034   6.116   5.518   0.122 -0.2966 -1.4549  0.4646
12515TIP3   OH259035   3.762   2.720  15.072 -0.1477 -0.4709  0.9254
12515TIP3    H159036   3.791   2.672  14.995 -1.5703 -0.2917  0.2448
12515TIP3    H259037   3.766   2.812  15.047 -3.3806 -0.4652 -0.0869
12516TIP3   OH259038   2.224   6.753   9.918  0.4157 -0.0596 -0.3450
12516TIP3    H159039   2.252   6.840   9.888 -0.4029  0.3854  0.1335
12516TIP3    H259040   2.224   6.699   9.839 -1.5010  1.0312 -1.1754
12517TIP3   OH259041   6.329   2.215  15.103 -0.1224  0.4432  0.5145
12517TIP3    H159042   6.242   2.249  15.123 -0.7921 -0.0544 -1.2816
12517TIP3    H259043   6.345   2.241  15.012  1.3630  0.0382  0.6281
12518TIP3   OH259044   5.214   0.401  14.277  0.6445  0.1811  0.2927
12518TIP3    H159045   5.260   0.484  14.271 -0.2000  0.5749 -1.3981
12518TIP3    H259046   5.156   0.400  14.201 -0.6334 -1.1989  1.2155
12519TIP3   OH259047   1.278   3.400   3.111  0.7498 -0.1312 -0.0809
12519TIP3    H159048   1.322   3.482   3.134 -0.9181  0.4143  1.3748
12519TIP3    H259049   1.318   3.334   3.168  1.2476 -0.1100 -0.3970
12520TIP3   OH259050   2.994   6.176  15.028  0.7210 -0.4591  0.4943
12520TIP3    H159051   2.943   6.234  15.084  1.3070  3.2884 -2.4028
12520TIP3    H259052   3.086   6.197  15.048  0.9524 -0.8443 -0.1142
12521TIP3   OH259053   3.972   3.459   2.507  0.9006  0.1129  0.4720
12521TIP3    H159054   4.062   3.428   2.494  0.4328 -0.7355 -0.8626
12521TIP3    H259055   3.954   3.441   2.599  1.9512 -0.0912  0.6544
12522TIP3   OH259056   1.291   5.845  12.087 -0.0418 -0.1578 -0.0055
12522TIP3    H159057   1.304   5.799  12.170 -2.1188  1.7047  1.4740
12522TIP3    H259058   1.260   5.777  12.027 -0.4504 -1.1986  1.3324
12523TIP3   OH259059   3.452   0.066   1.802 -0.4659 -0.2215 -0.0527
12523TIP3    H159060   3.487   0.140   1.751  1.4303  0.0369  1.5031
12523TIP3    H259061   3.368   0.098   1.835 -0.5622  0.5138 -0.9549
12524TIP3   OH259062   2.420   1.312   5.073  0.0487  0.1409  0.3834
12524TIP3    H159063   2.401   1.257   5.149 -0.9573  0.3346  0.2951
12524TIP3    H259064   2.375   1.269   5.000 -0.1334  0.6697  0.1718
12525TIP3   OH259065   6.749   3.859   4.309 -0.2298  0.1982  0.5779
12525TIP3    H159066   6.725   3.898   4.225 -1.4030  0.4145  0.9917
12525TIP3    H259067   6.681   3.794   4.324  0.8442 -0.9414  0.6336
12526TIP3   OH259068   6.787   1.022  14.636  0.1013  0.1864  0.1622
12526TIP3    H159069   6.826   1.057  14.716 -0.7034  0.8878  0.2587
12526TIP3    H259070   6.798   1.092  14.571 -1.5576  0.6654  0.3646
12527TIP3   OH259071   3.859   3.863   2.197 -0.1186 -0.3437  0.1369
12527TIP3    H159072   3.863   3.789   2.258 -0.0700 -0.4089  0.0536
12527TIP3    H259073   3.773   3.856   2.155  0.6223 -1.4474 -1.2612
12528TIP3   OH259074   0.480   2.825   0.515  0.5490  0.0211  0.3489
12528TIP3    H159075   0.495   2.743   0.562  1.0830 -0.3021 -0.3639
12528TIP3    H259076   0.513   2.808   0.426 -0.0341  0.7559 -0.0212
12529TIP3   OH259077   3.129   4.388   2.652  0.1255 -0.0946  0.7655
12529TIP3    H159078   3.126   4.473   2.608 -0.8346 -0.2500  0.5115
12529TIP3    H259079   3.140   4.324   2.581 -2.5112 -0.4396  0.5618
12530TIP3   OH259080   1.266   1.424   0.736 -0.1151 -0.4634 -0.3368
12530TIP3    H159081   1.204   1.352   0.721  0.3678 -0.7987 -0.7826
12530TIP3    H259082   1.341   1.382   0.778  0.1116 -0.1941 -0.4724
12531TIP3   OH259083   6.393   0.009   2.305  0.3811  0.4688 -0.0174
12531TIP3    H159084   6.428   0.013   2.216  0.8979  0.3273  0.1753
12531TIP3    H259085   6.298   0.015   2.293  0.1649 -2.4802 -0.8346
12532TIP3   OH259086   0.944   2.280   1.845  0.7009 -0.1668  0.7558
12532TIP3    H159087   1.000   2.320   1.911  1.5142  1.8270 -1.0178
12532TIP3    H259088   0.870   2.339   1.837  2.1810  1.5286 -2.2985
12533TIP3   OH259089   4.797   1.835   4.980 -0.3104  0.0876  0.7604
12533TIP3    H159090   4.866   1.803   5.039 -2.4551  0.8922  4.0119
12533TIP3    H259091   4.766   1.915   5.022 -2.2276  0.5474 -1.3578
12534TIP3   OH259092   2.807   4.602   3.500 -0.2936  0.3359  0.4253
12534TIP3    H159093   2.745   4.673   3.515  0.5026  0.9391  0.9826
12534TIP3    H259094   2.884   4.627   3.552  0.2318 -0.6242  0.1259
12535TIP3   OH259095   2.496   3.505   0.099 -0.2773 -0.0237  0.3608
12535TIP3    H159096   2.476   3.485   0.008  0.5988  0.0660  0.1332
12535TIP3    H259097   2.413   3.496   0.145 -0.1474 -3.4469  0.1743
12536TIP3   OH259098   1.071   0.620   3.894 -0.0637  0.1798 -0.1362
12536TIP3    H159099   1.119   0.696   3.861  0.6657  0.1377  0.7888
12536TIP3    H259100   1.099   0.611   3.985 -0.5758 -0.8510 -0.0625
12537TIP3   OH259101   5.588   6.844   0.314  0.7781  0.0351  0.0600
12537TIP3    H159102   5.618   6.767   0.265 -0.1125 -0.2781 -0.0163
12537TIP3    H259103   5.590   6.916   0.251 -3.0749 -0.8925 -1.4150
12538TIP3   OH259104   1.246   5.842   1.333  0.1322  0.0190 -0.5681
12538TIP3    H159105   1.226   5.831   1.240 -0.1599 -0.1612 -0.4873
12538TIP3    H259106   1.160   5.849   1.376  0.2394  3.3461 -0.6522
12539TIP3   OH259107   4.110   3.817  14.544 -0.1768  0.1886  0.1161
12539TIP3    H159108   4.105   3.824  14.639  0.8186 -1.7027  0.3397
12539TIP3    H259109   4.197   3.850  14.522  0.2561 -0.9650  0.0569
12540TIP3   OH259110   6.328   2.418  10.061  0.4069 -0.1085  0.3082
12540TIP3    H159111   6.292   2.360   9.994 -2.3787  0.4994  1.1448
12540TIP3    H259112   6.344   2.501  10.016  2.4167 -0.8123 -0.4133
12541TIP3   OH259113   1.221   1.801  13.138  0.0841  0.0551 -0.1505
12541TIP3    H159114   1.218   1.706  13.129 -0.8734 -0.0324  0.8160
12541TIP3    H259115   1.287   1.816  13.206  0.5067  0.1155 -0.5677
12542TIP3   OH259116   4.621   2.721  12.859 -0.5861 -0.0138  0.3974
12542TIP3    H159117   4.695   2.755  12.809 -0.7072 -1.3353 -0.7272
12542TIP3    H259118   4.658   2.699  12.945  0.5146 -1.3033 -0.3763
12543TIP3   OH259119   1.331   4.978  15.119 -1.0211  0.4213 -0.1994
12543TIP3    H159120   1.407   4.965  15.175 -0.7047 -1.2503 -0.9888
12543TIP3    H259121   1.329   4.902  15.062 -1.8635  1.6472 -1.8776
12544TIP3   OH259122   0.910   1.752  12.038  0.6402  0.4742  0.3019
12544TIP3    H159123   0.977   1.694  12.073  1.4283  1.7124  0.9070
12544TIP3    H259124   0.921   1.834  12.086  0.3025  1.5097 -1.2846
12545TIP3   OH259125   4.921   5.445   3.674 -0.1325 -0.2879  0.2687
12545TIP3    H159126   4.989   5.457   3.608 -1.0749 -1.9171 -1.0827
12545TIP3    H259127   4.967   5.448   3.758  1.0993  1.8795 -0.4074
12546TIP3   OH259128   4.148   2.663  12.898  1.1919  0.0422  0.8224
12546TIP3    H159129   4.105   2.581  12.923  0.3014  1.0028  2.6818
12546TIP3    H259130   4.178   2.701  12.981 -0.0228  2.4403  0.2728
12547TIP3   OH259131   0.787   2.211   3.875 -0.3900  0.3102  0.7770
12547TIP3    H159132   0.881   2.213   3.896  0.1113  0.7435 -1.2416
12547TIP3    H259133   0.750   2.286   3.922  0.4119  0.5438  1.0574
12548TIP3   OH259134   2.956   3.058   9.593  0.2787  0.2481  0.5327
12548TIP3    H159135   2.933   3.014   9.511 -0.1406 -1.9769  1.7898
12548TIP3    H259136   3.037   3.106   9.572  0.0573 -0.0844 -1.2317
12549TIP3   OH259137   5.736   1.556  14.772  0.3863 -0.0841  0.4088
12549TIP3    H159138   5.688   1.488  14.725  0.8154  1.2669 -2.1763
12549TIP3    H259139   5.669   1.605  14.819 -0.2182 -0.8367  0.3522
12550TIP3   OH259140   5.976   6.332  13.294 -0.0595 -0.4340 -0.4070
12550TIP3    H159141   5.913   6.403  13.289 -0.8019 -1.0773 -0.3860
12550TIP3    H259142   5.936   6.268  13.353  0.0562 -1.3881 -1.3256
12551TIP3   OH259143   2.122   5.930  15.185  0.1099 -0.0787 -0.3053
12551TIP3    H159144   2.107   6.007  15.130 -0.3903 -1.4032 -2.1274
12551TIP3    H259145   2.216   5.928  15.199 -0.0135  1.7838  1.2537
12552TIP3   OH259146   1.666   4.096   0.634 -0.7960  0.5287  0.0159
12552TIP3    H159147   1.634   4.170   0.582  0.8549  1.0769 -0.2854
12552TIP3    H259148   1.703   4.136   0.712  1.0711  0.1486 -0.6385
12553TIP3   OH259149   5.217   4.809   2.107 -0.6085 -0.3073 -0.4128
12553TIP3    H159150   5.131   4.792   2.069 -0.5653  1.8534 -1.6048
12553TIP3    H259151   5.199   4.842   2.195 -1.0814  1.2500 -1.0794
12554TIP3   OH259152   2.508   2.430  13.812 -0.4361 -0.0383 -0.2585
12554TIP3    H159153   2.537   2.340  13.824  0.9298  0.3143 -0.7126
12554TIP3    H259154   2.564   2.481  13.870 -0.5331  0.6161 -0.7322
12555TIP3   OH259155   1.498   6.833  15.353 -0.5974 -0.1199 -0.6438
12555TIP3    H159156   1.522   6.870  15.438 -2.8594 -1.3924  0.6553
12555TIP3    H259157   1.476   6.909  15.299 -2.3459  0.6685  1.0301
12556TIP3   OH259158   2.859   6.234  13.023 -0.1475  0.1012  0.2358
12556TIP3    H159159   2.867   6.184  12.942  1.5488  0.9710 -0.1821
12556TIP3    H259160   2.769   6.219  13.052  0.0573 -2.5318 -0.2543
12557TIP3   OH259161   5.959   2.293  14.504 -0.2759  0.1980 -0.3528
12557TIP3    H159162   6.044   2.336  14.516  0.4684 -1.1544 -0.5494
12557TIP3    H259163   5.928   2.275  14.593  0.9944 -1.7731 -0.2366
12558TIP3   OH259164   5.722   4.311   3.247 -0.3027  0.0230  0.2445
12558TIP3    H159165   5.774   4.341   3.321 -1.0114 -0.1991  0.8458
12558TIP3    H259166   5.727   4.215   3.251  0.8101  0.0110 -0.8399
12559TIP3   OH259167   5.902   4.816  12.169 -0.0459  0.1480 -0.0870
12559TIP3    H159168   5.827   4.865  12.136  0.4351  0.2543 -1.0481
12559TIP3    H259169   5.885   4.726  12.142 -0.6076 -0.1284  1.1093
12560TIP3   OH259170   0.942   2.688  12.504 -0.1315  0.3836  0.7341
12560TIP3    H159171   1.030   2.653  12.493 -0.1679  0.3027  0.6920
12560TIP3    H259172   0.942   2.771  12.457 -0.6766 -0.5973 -1.1113
12561TIP3   OH259173   3.288   5.137  12.103  0.1463 -0.2421  0.0493
12561TIP3    H159174   3.267   5.047  12.079  1.8018 -1.0017  1.2459
12561TIP3    H259175   3.376   5.132  12.140  2.0892  2.4697 -3.4994
12562TIP3   OH259176   0.598   5.816  13.552 -0.3152 -0.2222  0.2322
12562TIP3    H159177   0.658   5.749  13.518 -0.2461  1.1372 -2.6091
12562TIP3    H259178   0.650   5.864  13.616  1.6272  0.6644 -1.8749
12563TIP3   OH259179   3.605   5.740   4.868 -0.0433 -0.0659 -0.0497
12563TIP3    H159180   3.602   5.832   4.894 -0.5036 -0.6131  1.9953
12563TIP3    H259181   3.671   5.736   4.799  0.1950  1.7372  0.0418
12564TIP3   OH259182   3.463   4.020   4.721  0.4311  0.0711 -0.4046
12564TIP3    H159183   3.491   4.053   4.806 -1.8350 -1.8165  1.2464
12564TIP3    H259184   3.413   4.092   4.682 -2.0604 -0.2770  1.8483
12565TIP3   OH259185   1.248   1.451   1.632  0.3749  0.3066  0.1252
12565TIP3    H159186   1.270   1.473   1.542  0.0937 -1.6222 -0.4586
12565TIP3    H259187   1.164   1.493   1.648  0.5016  0.7856 -0.4554
12566TIP3   OH259188   3.122   3.834   4.975 -0.3940 -0.2473  0.2515
12566TIP3    H159189   3.167   3.891   4.912  0.6711  0.7450  1.8238
12566TIP3    H259190   3.030   3.840   4.951 -0.1358  0.9572 -0.5534
12567TIP3   OH259191   0.023   2.370   9.750  0.6506 -0.1358 -0.4599
12567TIP3    H159192   0.019   2.464   9.733  2.4509  0.2121  0.7180
12567TIP3    H259193   0.116   2.353   9.766  0.3907 -2.1689 -0.8765
12568TIP3   OH259194   5.280   5.062   4.461 -0.4831  0.2228  0.7332
12568TIP3    H159195   5.306   5.119   4.389  1.9119 -0.0683  1.2716
12568TIP3    H259196   5.298   5.113   4.540 -1.2601 -0.1704  1.1843
12569TIP3   OH259197   4.308   6.711  11.299  0.4784  0.2971 -0.1225
12569TIP3    H159198   4.235   6.763  11.330  0.3843 -0.3592  0.8063
12569TIP3    H259199   4.287   6.691  11.208 -0.4265  0.2438  0.0920
12570TIP3   OH259200   2.996   4.498   3.829 -0.2026  0.3210  0.2109
12570TIP3    H159201   3.085   4.500   3.863 -0.1736  0.9614  0.1194
12570TIP3    H259202   2.998   4.435   3.758  0.0650 -0.0132  0.5140
12571TIP3   OH259203   6.574   4.425  11.664 -0.4552 -0.7589 -0.0785
12571TIP3    H159204   6.516   4.452  11.735 -0.3261  0.2568 -0.3495
12571TIP3    H259205   6.640   4.495  11.658 -0.4404 -0.8424 -1.1693
12572TIP3   OH259206   1.673   1.776   1.910  0.1194  0.1433 -0.0115
12572TIP3    H159207   1.747   1.801   1.966 -0.2627  1.0309  0.1082
12572TIP3    H259208   1.597   1.783   1.967 -0.3383  1.5533 -0.7707
12573TIP3   OH259209   6.240   3.880   4.884 -0.9762 -0.2977  0.5599
12573TIP3    H159210   6.173   3.943   4.855 -0.6098 -0.1980 -0.0863
12573TIP3    H259211   6.314   3.935   4.911 -1.5006 -0.3543  2.2690
12574TIP3   OH259212   1.780   0.328   5.366  0.7755  0.1924 -0.0878
12574TIP3    H159213   1.806   0.411   5.406  0.0521  0.1837  0.4064
12574TIP3    H259214   1.703   0.300   5.415  0.2782 -0.1609 -1.0422
12575TIP3   OH259215   5.442   2.559  14.397  0.2034  0.1607 -0.2354
12575TIP3    H159216   5.438   2.499  14.322  0.0576 -1.0633  0.7216
12575TIP3    H259217   5.457   2.502  14.472 -0.0044  1.3312  0.7180
12576TIP3   OH259218   2.972   4.744   5.175 -0.3371 -0.0284 -0.2500
12576TIP3    H159219   2.911   4.670   5.176 -1.3161  0.7609  1.0060
12576TIP3    H259220   2.935   4.805   5.111 -1.0165  0.5452  0.6667
12577TIP3   OH259221   2.514   6.311  13.926 -0.1093 -0.5559  0.3699
12577TIP3    H159222   2.580   6.320  13.857  0.2440 -0.7131  0.6844
12577TIP3    H259223   2.564   6.310  14.007 -0.3520 -2.4239  0.5205
12578TIP3   OH259224   4.728   1.489  10.392  0.2942 -0.1271  0.3759
12578TIP3    H159225   4.806   1.535  10.362 -0.5822  0.5621 -0.9352
12578TIP3    H259226   4.691   1.451  10.313 -0.2427 -1.1912  1.1096
12579TIP3   OH259227   0.127   4.388  12.111 -0.9710  0.0306 -0.5620
12579TIP3    H159228   0.124   4.448  12.036  0.9266  1.4745  0.4354
12579TIP3    H259229   0.133   4.445  12.187  0.6934 -1.3941  0.4450
12580TIP3   OH259230   4.035   5.517   0.642 -0.1934 -0.4114 -0.7090
12580TIP3    H159231   3.969   5.449   0.627  0.2453 -0.3643 -3.4807
12580TIP3    H259232   4.049   5.555   0.555  1.4308  1.5070  0.3227
12581TIP3   OH259233   4.199   5.215   5.163 -0.0042  0.0682 -0.1300
12581TIP3    H159234   4.110   5.181   5.171 -1.0175  2.0201 -1.9473
12581TIP3    H259235   4.231   5.223   5.253 -2.1754  0.5601  0.6409
12582TIP3   OH259236   6.375   3.301   4.708 -0.5849  0.1317  0.0508
12582TIP3    H159237   6.350   3.225   4.655 -1.3944  0.1182  0.4454
12582TIP3    H259238   6.396   3.265   4.794 -0.6155  0.3202  0.1376
12583TIP3   OH259239   3.922   6.520  12.776 -0.2630  0.1703  0.4320
12583TIP3    H159240   3.915   6.510  12.682  0.1996  1.3059  0.2623
12583TIP3    H259241   3.971   6.443  12.805  0.6518  0.4111 -0.4120
12584TIP3   OH259242   2.481   6.823  14.785 -0.0823 -0.1672 -0.0564
12584TIP3    H159243   2.454   6.812  14.876  1.1514  0.8760  0.4716
12584TIP3    H259244   2.449   6.910  14.761  1.6965  0.6174  0.2303
12585TIP3   OH259245   3.208   0.645  11.971 -0.0032  0.2453 -0.0760
12585TIP3    H159246   3.146   0.611  11.905  0.7765 -1.0524 -0.1710
12585TIP3    H259247   3.268   0.700  11.920 -1.3548  1.9681  0.0992
12586TIP3   OH259248   3.460   7.096   4.005  0.1313 -0.2217  0.7348
12586TIP3    H159249   3.508   7.018   4.033 -1.4122 -1.7357 -0.6174
12586TIP3    H259250   3.368   7.069   4.007 -0.4579  1.6814  0.5468
12587TIP3   OH259251   6.915   6.298   0.288  0.0471  0.5500 -0.4262
12587TIP3    H159252   6.841   6.257   0.243  1.0239 -0.9356 -0.7391
12587TIP3    H259253   6.955   6.228   0.338  1.2116  1.3401 -0.2081
12588TIP3   OH259254   4.797   1.359  11.944 -0.2039  0.4445  0.5084
12588TIP3    H159255   4.843   1.442  11.951  0.8408 -0.0322 -0.3629
12588TIP3    H259256   4.707   1.379  11.967 -0.3899  2.2255 -1.5013
12589TIP3   OH259257   6.260   1.656   5.333  0.7568  0.8990 -0.3584
12589TIP3    H159258   6.334   1.666   5.393 -0.5566  0.1065  1.4906
12589TIP3    H259259   6.229   1.567   5.349  0.1667  0.7763 -2.0420
12590TIP3   OH259260   6.434   3.229   2.973 -0.0728 -0.0336 -0.0962
12590TIP3    H159261   6.445   3.254   3.065  1.1362 -0.3197 -0.1493
12590TIP3    H259262   6.506   3.274   2.928 -0.4324 -0.2072 -0.8442
12591TIP3   OH259263   7.139   1.472   5.108 -1.0210 -0.4300 -0.3721
12591TIP3    H159264   7.166   1.390   5.151 -0.1846  0.2237  0.3769
12591TIP3    H259265   7.217   1.502   5.062 -1.3681 -0.1154 -0.7687
12592TIP3   OH259266   1.310   4.044   2.573 -0.1919 -0.1320 -0.1867
12592TIP3    H159267   1.220   4.064   2.602  0.4775  2.2611  0.5068
12592TIP3    H259268   1.349   3.997   2.647 -1.0056 -1.7217 -0.7267
12593TIP3   OH259269   2.765   6.231  14.626  0.2287 -0.4552  0.3163
12593TIP3    H159270   2.843   6.250  14.677  0.1821  0.5522  0.0434
12593TIP3    H259271   2.796   6.228  14.535 -0.0395 -0.0801  0.2112
12594TIP3   OH259272   6.069   5.253  10.438 -0.1927  0.4968  0.2128
12594TIP3    H159273   6.137   5.271  10.374 -0.5725  1.6406  0.1169
12594TIP3    H259274   6.097   5.171  10.480 -0.2273 -0.5729 -1.7644
12595TIP3   OH259275   5.795   2.667   1.440 -0.6382 -0.5367  0.2906
12595TIP3    H159276   5.810   2.707   1.354  0.5431  1.3611  1.3120
12595TIP3    H259277   5.784   2.574   1.421 -2.7260  0.0935 -2.1434
12596TIP3   OH259278   5.289   2.647   9.528  0.1971 -0.2272 -0.1485
12596TIP3    H159279   5.200   2.668   9.556  0.0603 -0.0875 -0.6759
12596TIP3    H259280   5.281   2.565   9.480  0.7032 -1.4488  1.7452
12597TIP3   OH259281   3.884   2.561   3.522  0.1601 -0.5253  0.3816
12597TIP3    H159282   3.813   2.526   3.576  0.9880  0.0607  1.8992
12597TIP3    H259283   3.889   2.502   3.447 -3.2496  0.5087 -0.8815
12598TIP3   OH259284   0.837   0.847   4.475  0.1388 -0.5050 -0.1839
12598TIP3    H159285   0.879   0.796   4.405 -1.4469  0.3982 -1.8805
12598TIP3    H259286   0.910   0.884   4.524  1.3242 -1.0173 -1.4771
12599TIP3   OH259287   6.955   1.441  14.770 -0.5372  0.5643 -0.1700
12599TIP3    H159288   6.977   1.496  14.695  1.2960  0.8080  0.4828
12599TIP3    H259289   6.951   1.503  14.844 -0.5267  0.0922  0.2286
12600TIP3   OH259290   4.342   0.040   2.124  0.1468  0.2684  0.0816
12600TIP3    H159291   4.394   0.099   2.068  0.7545 -0.2624  0.0695
12600TIP3    H259292   4.322  -0.034   2.067  0.4413 -0.0990  0.4477
12601TIP3   OH259293   2.424   5.469   3.547 -0.4333 -0.0597  0.4982
12601TIP3    H159294   2.403   5.545   3.600  0.9556  0.2449  0.6570
12601TIP3    H259295   2.422   5.501   3.457 -0.6880 -0.0544  0.5043
12602TIP3   OH259296   5.404   6.137   2.175 -0.1046 -0.1857 -0.2005
12602TIP3    H159297   5.453   6.208   2.216 -1.2329  0.2547  0.4491
12602TIP3    H259298   5.471   6.077   2.142  0.8620  0.7786 -0.0629
12603TIP3   OH259299   2.079   4.687   3.294 -0.8760  0.0703  0.1014
12603TIP3    H159300   2.013   4.658   3.231 -2.0981 -0.6023  1.6271
12603TIP3    H259301   2.042   4.664   3.380  0.7289  0.9466  1.0728
12604TIP3   OH259302   1.408   4.071   0.467  1.0837  0.1099 -0.0783
12604TIP3    H159303   1.355   4.081   0.388 -1.3022  0.7982  1.5203
12604TIP3    H259304   1.472   4.142   0.461  0.1022  0.9677 -0.7914
12605TIP3   OH259305   0.589   2.273   0.295  0.1641 -0.3181  0.2309
12605TIP3    H159306   0.552   2.340   0.352 -0.1867  0.4266 -0.8546
12605TIP3    H259307   0.570   2.190   0.340  2.1648  0.3194  2.4998
12606TIP3   OH259308   1.879   0.748   2.955 -0.1601 -0.4991  0.4913
12606TIP3    H159309   1.806   0.690   2.979 -0.1724 -0.2387  1.1032
12606TIP3    H259310   1.884   0.811   3.027  1.3668 -1.1587  1.0012
12607TIP3   OH259311   5.210   0.275   0.535  0.5089 -0.0369  0.2541
12607TIP3    H159312   5.142   0.242   0.594 -2.7517 -0.8456 -3.5787
12607TIP3    H259313   5.270   0.201   0.525  0.2488 -0.4086  1.2820
12608TIP3   OH259314   2.067   1.963   4.770 -0.1724 -0.4133  0.0454
12608TIP3    H159315   2.161   1.945   4.777 -0.2681 -0.8754  0.1767
12608TIP3    H259316   2.028   1.916   4.844 -0.6104 -1.0121 -0.5512
12609TIP3   OH259317   3.486   5.633   2.115  0.2240  0.0486 -0.1471
12609TIP3    H159318   3.510   5.719   2.150  0.1346  0.6034 -1.4041
12609TIP3    H259319   3.569   5.586   2.108  0.1467 -0.4040  1.6107
12610TIP3   OH259320   2.461   6.442   1.005  0.2513  0.4698 -0.0990
12610TIP3    H159321   2.484   6.350   1.018  0.6911  0.3536 -1.5172
12610TIP3    H259322   2.541   6.490   1.025  0.1194  0.5169  0.3163
12611TIP3   OH259323   5.698   3.872   4.993 -0.4582 -0.2725  0.0555
12611TIP3    H159324   5.736   3.826   4.918 -1.5698 -0.7979 -0.2164
12611TIP3    H259325   5.769   3.926   5.028  0.6979 -1.7046 -0.0154
12612TIP3   OH259326   3.185   5.961   4.991 -0.9284  0.3243  0.4670
12612TIP3    H159327   3.237   6.026   4.942 -0.2652 -0.5455 -0.0036
12612TIP3    H259328   3.209   5.877   4.952 -0.0760 -0.4588  2.5502
12613TIP3   OH259329   4.841   5.371   2.611  0.0895  0.1417  0.0437
12613TIP3    H159330   4.873   5.294   2.658  1.1213 -0.3934 -1.4803
12613TIP3    H259331   4.836   5.439   2.678  1.1472 -0.6991  1.0149
12614TIP3   OH259332   3.512   3.744  15.288 -0.1965 -0.2845  0.1294
12614TIP3    H159333   3.568   3.749  15.210  0.7876  0.0992  0.8440
12614TIP3    H259334   3.573   3.732  15.361 -1.0160  0.5814  0.9814
12615TIP3   OH259335   0.610   2.916   1.525  0.2834  0.0143  0.6112
12615TIP3    H159336   0.676   2.976   1.558 -0.4232  1.2146 -0.0893
12615TIP3    H259337   0.531   2.970   1.517 -0.1714 -0.8169 -0.7564
12616TIP3   OH259338   4.102   2.110   2.800  0.3108 -0.2491  0.1401
12616TIP3    H159339   4.074   2.201   2.791 -0.9613 -0.7340 -0.9843
12616TIP3    H259340   4.043   2.073   2.865  0.4850 -0.4076  0.2078
12617TIP3   OH259341   5.455   4.066   3.661  0.7655 -0.4942  0.1353
12617TIP3    H159342   5.540   4.109   3.650  0.7622 -0.4924  0.1175
12617TIP3    H259343   5.463   4.019   3.744  1.1868 -1.4135 -0.4012
12618TIP3   OH259344   1.875   3.830  10.126  0.2048  0.2077 -0.0778
12618TIP3    H159345   1.869   3.925  10.137 -0.4356  0.1032  0.5320
12618TIP3    H259346   1.963   3.815  10.092  0.0333  1.0858 -0.9313
12619TIP3   OH259347   7.138   4.630   2.239  0.4251 -0.4300  0.3446
12619TIP3    H159348   7.096   4.550   2.208 -0.0927  0.1276 -0.4115
12619TIP3    H259349   7.073   4.671   2.296  1.1759 -1.1870  1.8070
12620TIP3   OH259350   0.723   4.318   0.486 -0.0192 -0.4139 -0.0775
12620TIP3    H159351   0.738   4.325   0.580 -1.1618  0.9059  0.0400
12620TIP3    H259352   0.679   4.400   0.462 -0.8202 -1.2258 -1.5441
12621TIP3   OH259353   0.791   1.116   4.351 -0.0941 -0.0001  0.0203
12621TIP3    H159354   0.886   1.120   4.356  0.1194  0.3615 -2.5922
12621TIP3    H259355   0.765   1.062   4.426  2.2977 -1.3848 -0.0412
12622TIP3   OH259356   0.098   3.323  12.588  0.1780  0.3809  0.0022
12622TIP3    H159357   0.053   3.275  12.657 -0.7021 -0.8263 -1.3703
12622TIP3    H259358   0.112   3.410  12.625 -1.6476  0.2430  1.1392
12623TIP3   OH259359   4.172   3.033   2.442 -0.0574  0.0201  0.5196
12623TIP3    H159360   4.252   3.010   2.490  1.9365 -0.3198 -2.6534
12623TIP3    H259361   4.184   3.125   2.419  0.0174 -0.3321 -0.9424
12624TIP3   OH259362   5.542   4.323   4.349 -0.3778 -0.2873 -0.4696
12624TIP3    H159363   5.599   4.392   4.315 -0.2436  0.2775  0.8392
12624TIP3    H259364   5.464   4.368   4.381 -0.4609 -0.7634  0.0318
12625TIP3   OH259365   3.278   6.309  14.885 -0.3136 -0.3740  0.2675
12625TIP3    H159366   3.226   6.351  14.953 -0.3188 -0.9082  0.6002
12625TIP3    H259367   3.339   6.253  14.933 -0.6688 -1.1604 -0.1822
12626TIP3   OH259368   3.792   6.290   5.741  0.0222 -0.5077  0.0955
12626TIP3    H159369   3.810   6.377   5.774 -0.0048 -0.4080 -0.1464
12626TIP3    H259370   3.797   6.299   5.645 -0.2176 -0.7181  0.0611
12627TIP3   OH259371   5.033   6.630  14.230 -0.8997 -0.9196 -0.0254
12627TIP3    H159372   5.052   6.602  14.141  2.7572  1.3201 -0.1721
12627TIP3    H259373   4.956   6.580  14.256 -0.3318 -3.8801 -3.3494
12628TIP3   OH259374   4.174   4.779   2.609 -0.4154  0.4325  0.3230
12628TIP3    H159375   4.089   4.811   2.580 -1.3457 -2.1866 -0.1602
12628TIP3    H259376   4.226   4.770   2.529  0.7170  2.8606  0.7012
12629TIP3   OH259377   0.205   1.768   3.843 -0.0246 -0.4308 -0.2521
12629TIP3    H159378   0.110   1.775   3.846 -0.0611 -1.2026  0.7365
12629TIP3    H259379   0.223   1.708   3.771 -0.3121 -0.7070 -0.0936
12630TIP3   OH259380   5.574   7.051   3.259 -0.4659  0.0330  0.1359
12630TIP3    H159381   5.661   7.044   3.297 -0.3734  1.5288  0.2706
12630TIP3    H259382   5.564   6.972   3.206  0.8123 -0.3462  0.4336
12631TIP3   OH259383   0.363   0.985   3.185  0.1469  0.0841  0.7225
12631TIP3    H159384   0.331   0.901   3.154 -0.7854  0.7513 -0.1918
12631TIP3    H259385   0.429   0.963   3.251  0.8841 -1.3695 -0.4387
12632TIP3   OH259386   3.114   0.906  15.338 -0.3175  0.1310  0.5380
12632TIP3    H159387   3.067   0.833  15.378  0.8934 -0.3062  1.2105
12632TIP3    H259388   3.053   0.979  15.343 -1.7033 -0.8989 -0.4930
12633TIP3   OH259389   3.663   2.993   0.426 -0.2795  0.2285  0.0794
12633TIP3    H159390   3.757   2.996   0.405  0.1461 -1.9296  1.2806
12633TIP3    H259391   3.635   2.908   0.391 -1.0120 -0.5521  2.3886
12634TIP3   OH259392   5.883   1.383   2.668 -0.4730  0.1646  0.0570
12634TIP3    H159393   5.816   1.446   2.641 -1.5590 -0.7996  0.4272
12634TIP3    H259394   5.874   1.310   2.607 -0.1659 -0.2332  0.4766
12635TIP3   OH259395   3.724   5.199   5.922 -0.4133 -0.1456 -0.0529
12635TIP3    H159396   3.790   5.133   5.900 -2.0997 -1.6776 -0.7698
12635TIP3    H259397   3.725   5.260   5.849 -0.0411 -0.3684 -0.2332
12636TIP3   OH259398   3.876   2.150   9.883 -0.0703  0.5441 -0.6820
12636TIP3    H159399   3.957   2.103   9.906 -0.0790  0.9242  0.1565
12636TIP3    H259400   3.815   2.081   9.857 -0.7956 -0.2011  2.5899
12637TIP3   OH259401   2.988   1.280  14.430 -0.0332  0.3358 -0.7346
12637TIP3    H159402   2.916   1.239  14.383  0.7979 -0.4248 -1.3824
12637TIP3    H259403   3.063   1.221  14.416  0.0381 -0.5136  2.3939
12638TIP3   OH259404   5.533   2.385   0.223  0.0046 -0.0453 -0.2456
12638TIP3    H159405   5.568   2.473   0.210 -1.1011  0.4662  0.1455
12638TIP3    H259406   5.541   2.342   0.138  0.3380  0.5070 -0.4919
12639TIP3   OH259407   5.348   3.638   1.830 -0.5791 -0.4157  0.5027
12639TIP3    H159408   5.286   3.616   1.760 -0.5329 -1.5661  0.7971
12639TIP3    H259409   5.433   3.640   1.787  0.0230 -4.8022  1.0155
12640TIP3   OH259410   0.401   4.620  12.972  0.1548 -0.0172  0.0036
12640TIP3    H159411   0.440   4.656  13.052  2.0364 -1.1546 -0.3454
12640TIP3    H259412   0.422   4.527  12.975  0.7834  0.0069 -2.0918
12641TIP3   OH259413   1.871   2.588  10.328 -0.1006 -0.0797 -0.3792
12641TIP3    H159414   1.852   2.640  10.250  0.2021 -0.4708 -0.7177
12641TIP3    H259415   1.962   2.561  10.317 -0.2828 -0.7721 -0.2627
12642TIP3   OH259416   0.292   0.533   1.823  0.1830  0.1012  0.9397
12642TIP3    H159417   0.251   0.472   1.884  1.1545 -1.3548  0.1771
12642TIP3    H259418   0.283   0.492   1.737  2.6713  0.0044  0.6631
12643TIP3   OH259419   1.782   3.027  12.676 -0.1296  0.4235  0.4114
12643TIP3    H159420   1.797   3.116  12.646 -1.8414  0.8080  0.6126
12643TIP3    H259421   1.846   2.974  12.627  1.9368  1.9014  1.3913
12644TIP3   OH259422   1.357   5.791   1.725 -0.0853 -0.1199  0.1345
12644TIP3    H159423   1.369   5.713   1.779 -0.8876 -1.5426 -1.6200
12644TIP3    H259424   1.440   5.801   1.678  0.4462  0.8356  1.2439
12645TIP3   OH259425   2.151   5.637  12.047 -0.3701  0.2513  0.6366
12645TIP3    H159426   2.241   5.605  12.052 -0.7911 -0.8344  1.8613
12645TIP3    H259427   2.099   5.559  12.028 -1.1123  0.7885  0.3989
12646TIP3   OH259428   5.765   5.911   2.194  0.0165  1.1060 -0.8747
12646TIP3    H159429   5.831   5.950   2.253 -0.9267  1.6356 -0.1432
12646TIP3    H259430   5.730   5.986   2.145 -0.3358  0.8874 -0.9587
12647TIP3   OH259431   3.872   5.799   3.562 -0.1002 -0.5005 -0.2587
12647TIP3    H159432   3.862   5.846   3.645  2.0887 -0.9241  0.2957
12647TIP3    H259433   3.784   5.769   3.541 -0.8752  0.4908  1.3812
12648TIP3   OH259434   3.683   4.512  14.582  0.3649  0.5254 -0.1374
12648TIP3    H159435   3.757   4.475  14.631  0.9205  0.8749 -0.7065
12648TIP3    H259436   3.671   4.599  14.620  1.2350  1.0644 -1.0591
12649TIP3   OH259437   4.226   0.854   2.608  0.0483  0.3763  0.0715
12649TIP3    H159438   4.245   0.891   2.694 -3.2482  1.3266  0.5352
12649TIP3    H259439   4.221   0.931   2.550  2.8096 -0.2907 -1.2088
12650TIP3   OH259440   0.209   0.347   3.421 -0.0429  0.0243  0.1741
12650TIP3    H159441   0.265   0.382   3.490 -1.1415 -1.1000  1.7065
12650TIP3    H259442   0.121   0.347   3.459 -0.3735 -2.6186 -0.3823
12651TIP3   OH259443   0.876   0.137  13.218 -0.5268  0.0726  0.3148
12651TIP3    H159444   0.785   0.111  13.206 -0.7807  0.0493  1.9573
12651TIP3    H259445   0.926   0.075  13.165 -1.4169 -0.4019 -0.0052
12652TIP3   OH259446   0.695   5.585   3.399  0.1718  0.4552  0.1147
12652TIP3    H159447   0.623   5.638   3.365  0.7172  1.3130  0.2502
12652TIP3    H259448   0.683   5.587   3.494 -0.5881 -0.8252  0.0606
12653TIP3   OH259449   3.988   2.563   4.566  0.0518  0.1678 -0.3820
12653TIP3    H159450   4.028   2.635   4.518 -1.0413 -0.2213 -1.9646
12653TIP3    H259451   4.023   2.484   4.525  1.0076 -0.2542  1.1348
12654TIP3   OH259452   0.738   2.500   0.233 -0.5201  0.0954 -0.1913
12654TIP3    H159453   0.673   2.570   0.222  0.0745  0.5850 -0.6216
12654TIP3    H259454   0.688   2.419   0.224 -1.1539  0.4643 -0.0455
12655TIP3   OH259455   2.069   2.624  10.976  0.0396 -0.3729  0.5078
12655TIP3    H159456   2.048   2.648  11.066  1.3507  0.2175  0.6862
12655TIP3    H259457   2.150   2.672  10.957 -0.7664  0.3744 -1.3567
12656TIP3   OH259458   3.783   5.778   4.660  0.9335  0.1288  0.9152
12656TIP3    H159459   3.806   5.751   4.571 -1.8062 -2.1527  0.7586
12656TIP3    H259460   3.836   5.856   4.676  0.9365  1.1552 -3.0330
12657TIP3   OH259461   3.327   4.861   2.914 -0.0723 -0.1282 -0.2456
12657TIP3    H159462   3.321   4.937   2.971  2.7647  0.1943 -0.2449
12657TIP3    H259463   3.292   4.891   2.830 -0.7392  0.5777  0.2777
12658TIP3   OH259464   4.737   7.068  11.041 -0.0158 -0.0437 -0.0850
12658TIP3    H159465   4.777   7.115  10.967  0.3152 -1.4375 -0.8292
12658TIP3    H259466   4.649   7.103  11.046  0.1418  0.4841 -0.7913
12659TIP3   OH259467   0.268   0.752   9.851 -0.4730 -0.3963 -0.4917
12659TIP3    H159468   0.236   0.691   9.917 -0.6535 -1.5255 -1.5934
12659TIP3    H259469   0.201   0.752   9.783 -1.4869  2.5894  0.3456
12660TIP3   OH259470   6.307   2.766  13.691 -0.0753  0.6640  0.6375
12660TIP3    H159471   6.317   2.701  13.622  0.3810  0.9113  0.4608
12660TIP3    H259472   6.240   2.826  13.659 -1.5609 -0.5105  1.4317
12661TIP3   OH259473   6.304   5.423   1.213  0.4319 -0.3335  0.2854
12661TIP3    H159474   6.269   5.342   1.177 -3.8005  0.9414  0.9755
12661TIP3    H259475   6.272   5.425   1.303 -0.6748  2.5597 -0.0546
12662TIP3   OH259476   4.567   6.742   0.451 -0.4424 -0.4477 -0.1164
12662TIP3    H159477   4.643   6.747   0.393 -0.0589 -0.7093  0.3523
12662TIP3    H259478   4.516   6.820   0.430  0.6640  0.4902  0.5254
12663TIP3   OH259479   3.095   3.224   1.598 -0.3360 -0.2969 -0.0377
12663TIP3    H159480   3.016   3.174   1.578  0.2690 -1.0562 -0.5425
12663TIP3    H259481   3.156   3.204   1.527  0.6189 -0.3834  0.7724
12664TIP3   OH259482   6.489   0.287   1.173  0.1601 -0.4599  0.1886
12664TIP3    H159483   6.462   0.374   1.202  2.4437  0.2185  0.4754
12664TIP3    H259484   6.456   0.228   1.241  0.4089  0.4471  1.1266
12665TIP3   OH259485   6.961   6.819  13.940 -0.7442  0.0870 -0.4140
12665TIP3    H159486   7.021   6.774  13.882 -0.8855  1.0925 -1.3788
12665TIP3    H259487   6.941   6.901  13.895  0.6804  1.8557  1.9371
12666TIP3   OH259488   6.299   3.899   2.555  0.0978 -0.1403 -0.0125
12666TIP3    H159489   6.308   3.994   2.547 -0.3507 -0.0497  0.4649
12666TIP3    H259490   6.344   3.878   2.637 -0.8825 -0.1578  0.5406
12667TIP3   OH259491   5.383   0.349  14.947  0.4598 -0.8843 -0.6499
12667TIP3    H159492   5.459   0.401  14.971 -0.0641 -0.3935 -0.0053
12667TIP3    H259493   5.364   0.297  15.025 -0.3403 -0.4111 -0.5175
12668TIP3   OH259494   5.170   5.716   1.189 -0.0106 -0.1677  0.6317
12668TIP3    H159495   5.076   5.732   1.193  0.0619  0.3587  0.2996
12668TIP3    H259496   5.210   5.802   1.205  0.4157 -0.4318  1.0107
12669TIP3   OH259497   3.059   1.466   3.317 -0.5156  0.1562 -0.2800
12669TIP3    H159498   3.080   1.397   3.381  1.2907  1.2973  0.4437
12669TIP3    H259499   3.022   1.419   3.243 -1.5058 -1.3504  1.0967
12670TIP3   OH259500   1.567   6.247   1.680  0.3271  0.7911 -0.1194
12670TIP3    H159501   1.518   6.168   1.701  0.4520  0.5081 -0.8525
12670TIP3    H259502   1.597   6.234   1.590  1.3586  1.1638  0.1530
12671TIP3   OH259503   5.185   6.647   1.967 -0.3257 -0.1609 -0.3136
12671TIP3    H159504   5.158   6.593   1.893  0.6718 -0.1970 -0.6671
12671TIP3    H259505   5.226   6.723   1.927  1.7149 -0.9424  0.1616
12672TIP3   OH259506   0.300   3.168  15.216  0.2875  0.1771  0.1206
12672TIP3    H159507   0.228   3.154  15.278  0.1805 -1.7184 -0.3843
12672TIP3    H259508   0.258   3.178  15.131  0.5946 -0.8163 -0.1600
12673TIP3   OH259509   1.583   3.806  10.150 -0.5263 -0.0238  0.6517
12673TIP3    H159510   1.556   3.723  10.112  0.3725 -0.7393  1.5166
12673TIP3    H259511   1.677   3.812  10.133 -0.6740  1.0889  0.1136
12674TIP3   OH259512   3.522   0.698   2.391  0.2297 -0.8359  0.0422
12674TIP3    H159513   3.617   0.690   2.382  0.3076 -0.6010  0.5910
12674TIP3    H259514   3.491   0.609   2.406  0.1360 -1.1855 -1.9950
12675TIP3   OH259515   0.131   2.446   1.387 -0.2295  0.0729  0.2882
12675TIP3    H159516   0.099   2.449   1.297 -1.2431  2.0705  0.6533
12675TIP3    H259517   0.156   2.355   1.401 -0.0241 -0.2610 -2.0093
12676TIP3   OH259518   6.018   0.980   2.431  0.3298 -0.0626  0.5241
12676TIP3    H159519   6.002   0.885   2.431  0.3901 -0.0822 -0.2276
12676TIP3    H259520   6.082   0.993   2.500 -0.2942 -0.4556  1.1951
12677TIP3   OH259521   3.532   4.643  12.648  0.2855 -0.8993 -0.7210
12677TIP3    H159522   3.585   4.723  12.646  1.0716 -1.3394  0.9417
12677TIP3    H259523   3.565   4.590  12.576  2.0629 -1.1030  0.1847
12678TIP3   OH259524   5.588   3.921   0.629 -0.4065  0.0213 -0.0365
12678TIP3    H159525   5.629   3.905   0.714 -3.1809 -1.4475  1.1443
12678TIP3    H259526   5.566   3.834   0.595 -2.7766  0.6780 -0.4009
12679TIP3   OH259527   2.960   2.748   2.735  0.1257  0.5814  0.1625
12679TIP3    H159528   2.945   2.829   2.784  0.3936 -1.1263  3.2904
12679TIP3    H259529   2.882   2.740   2.680 -0.4249  2.3903  0.5814
12680TIP3   OH259530   6.906   5.389   1.348 -0.2820 -0.0180 -0.4383
12680TIP3    H159531   6.906   5.318   1.412  1.0247 -0.5195 -0.9527
12680TIP3    H259532   6.985   5.439   1.369 -1.2743  1.3994  0.0192
12681TIP3   OH259533   4.245   3.254  10.711 -0.1839  0.3002  0.0320
12681TIP3    H159534   4.200   3.177  10.677 -0.7709  1.3849 -1.7654
12681TIP3    H259535   4.338   3.237  10.697 -0.4126  0.8930 -2.6952
12682TIP3   OH259536   6.975   7.218  15.255  0.1936  0.1487  0.0379
12682TIP3    H159537   6.943   7.242  15.342  1.1358  0.0655  0.4138
12682TIP3    H259538   6.927   7.276  15.195  1.0643  1.7040  0.7798
12683TIP3   OH259539   6.126   1.150  11.776  0.8398 -0.2646  0.3434
12683TIP3    H159540   6.105   1.059  11.798  1.3037 -0.1222  1.4323
12683TIP3    H259541   6.187   1.142  11.702 -1.1266 -0.7288 -1.3140
12684TIP3   OH259542   5.251   3.951   9.897 -0.4779 -0.4547 -0.6112
12684TIP3    H159543   5.263   4.015   9.827 -1.4461 -1.6912 -1.9780
12684TIP3    H259544   5.262   4.001   9.978 -2.4851  1.7339 -1.5752
12685TIP3   OH259545   3.669   4.581   5.288 -0.0214 -0.0826  0.5148
12685TIP3    H159546   3.742   4.637   5.316 -0.4880  2.0917 -2.1347
12685TIP3    H259547   3.710   4.496   5.270  1.1439  0.0049  2.4440
12686TIP3   OH259548   3.430   3.638   3.741  0.9551  0.2802  0.2959
12686TIP3    H159549   3.389   3.686   3.670 -0.9212 -0.4859  0.8033
12686TIP3    H259550   3.483   3.703   3.788  0.3201  1.2991 -0.3801
12687TIP3   OH259551   6.483   3.886   1.558  0.5596  1.0292 -0.1145
12687TIP3    H159552   6.552   3.859   1.497  0.2340  0.8526 -0.4067
12687TIP3    H259553   6.477   3.815   1.621  0.8851  1.2041  0.1166
12688TIP3   OH259554   1.573   0.890   2.518  0.4616  0.0119  0.7781
12688TIP3    H159555   1.527   0.951   2.575 -0.7251  1.7496 -1.8435
12688TIP3    H259556   1.655   0.935   2.497 -0.2241  0.5921 -0.8156
12689TIP3   OH259557   4.057   6.594   3.258  0.6066 -0.4659  0.1553
12689TIP3    H159558   4.053   6.560   3.347 -1.5929 -2.3125 -0.5388
12689TIP3    H259559   4.125   6.543   3.215 -0.2374 -1.5939  0.0934
12690TIP3   OH259560   3.212   0.635  11.454  0.0293 -0.0564 -0.8108
12690TIP3    H159561   3.138   0.666  11.402 -0.3269  0.3350 -0.0775
12690TIP3    H259562   3.204   0.539  11.451 -0.2751 -0.0275 -1.0529
12691TIP3   OH259563   3.402   0.521   5.993 -0.3193 -1.2481  0.0901
12691TIP3    H159564   3.486   0.567   6.002 -0.9038 -0.3039  0.9836
12691TIP3    H259565   3.423   0.443   5.942  0.4438  0.7796 -3.0205
12692TIP3   OH259566   1.314   6.238  15.114  0.6317 -0.4424 -0.2901
12692TIP3    H159567   1.403   6.209  15.139  0.2422 -0.6574  0.9265
12692TIP3    H259568   1.326   6.327  15.082  1.2735 -0.3970  0.0474
12693TIP3   OH259569   6.391   6.520   4.340  0.5247 -0.1250 -0.1342
12693TIP3    H159570   6.359   6.467   4.266 -0.1727  0.9926 -0.6672
12693TIP3    H259571   6.445   6.460   4.391  1.6227 -0.7583 -1.9354
12694TIP3   OH259572   2.632   0.243   2.900  0.5082  0.3771  0.0409
12694TIP3    H159573   2.708   0.235   2.844 -0.0888 -0.1021 -0.7267
12694TIP3    H259574   2.656   0.309   2.965  2.1370 -0.8539  0.7619
12695TIP3   OH259575   3.000   2.402   0.860 -0.1492  0.1064  0.0962
12695TIP3    H159576   3.002   2.321   0.910  2.3385  0.1179  0.1824
12695TIP3    H259577   3.054   2.384   0.782 -1.4147  1.0072 -1.0361
12696TIP3   OH259578   6.674   4.848  14.624 -0.3313 -0.5746 -0.0781
12696TIP3    H159579   6.698   4.786  14.555 -0.5843 -1.1799  0.3629
12696TIP3    H259580   6.755   4.861  14.673  0.4922  1.7566 -1.8958
12697TIP3   OH259581   0.215   3.687  14.117 -0.4915  0.1647 -0.0315
12697TIP3    H159582   0.205   3.596  14.144 -2.2432  0.3178 -0.0420
12697TIP3    H259583   0.252   3.731  14.193  0.5564 -0.5724 -0.0931
12698TIP3   OH259584   5.261   4.849  13.427  0.2285 -0.1266  0.4088
12698TIP3    H159585   5.319   4.775  13.410  0.6189 -0.0715  1.4703
12698TIP3    H259586   5.241   4.844  13.520 -2.4871 -0.8747 -0.1160
12699TIP3   OH259587   4.918   6.374  14.532  0.3241 -0.2147  0.4607
12699TIP3    H159588   4.882   6.292  14.566 -1.6078  1.2233  2.1473
12699TIP3    H259589   4.879   6.383  14.445  0.6282 -1.1033  0.2213
12700TIP3   OH259590   6.233   2.911   5.395 -0.2075 -0.0295 -0.4011
12700TIP3    H159591   6.306   2.893   5.336  0.7135  0.1451  0.6447
12700TIP3    H259592   6.163   2.853   5.365 -0.0959  0.7178 -2.2240
12701TIP3   OH259593   1.891   5.791   0.520  0.2458 -0.0363 -0.4275
12701TIP3    H159594   1.859   5.767   0.433 -1.1911 -1.3456  0.3927
12701TIP3    H259595   1.985   5.804   0.509  0.0674  0.0059 -2.1957
12702TIP3   OH259596   0.795   0.939   3.639 -0.2707  0.2810  0.4041
12702TIP3    H159597   0.754   0.854   3.651  1.5731 -0.4802  1.8299
12702TIP3    H259598   0.780   0.985   3.722 -0.2247  0.9019  0.0783
12703TIP3   OH259599   1.345   3.224   3.316  0.4693  0.1224  0.3502
12703TIP3    H159600   1.363   3.135   3.345 -0.6914 -0.5112 -0.7786
12703TIP3    H259601   1.260   3.245   3.355  1.2025  1.1422  1.4567
12704TIP3   OH259602   5.100   5.508   3.458 -0.4210 -0.2824 -0.9412
12704TIP3    H159603   5.077   5.545   3.373 -0.1412  0.7223 -0.5870
12704TIP3    H259604   5.186   5.469   3.445  0.9898  2.4190 -0.4340
12705TIP3   OH259605   0.737   6.039   5.029 -0.2604  0.1855  0.5338
12705TIP3    H159606   0.784   6.104   5.082  0.6021  0.0544 -0.0620
12705TIP3    H259607   0.732   6.079   4.942  0.2352 -0.5385  0.1749
12706TIP3   OH259608   0.597   5.865   2.653  0.3610 -0.2308 -0.4238
12706TIP3    H159609   0.653   5.939   2.631 -0.2487  0.1142 -0.8631
12706TIP3    H259610   0.515   5.882   2.606 -0.0392 -0.8263  0.0344
12707TIP3   OH259611   5.956   7.217   2.179 -0.0942  0.5832 -0.1772
12707TIP3    H159612   6.016   7.260   2.240  1.1207 -1.5888  0.2821
12707TIP3    H259613   5.871   7.256   2.196  0.5972  1.4612  1.4721
12708TIP3   OH259614   2.070   3.093   3.237 -0.1713  0.0141  0.2784
12708TIP3    H159615   2.023   3.032   3.180 -0.2002 -0.8197  1.1691
12708TIP3    H259616   2.125   3.143   3.177  0.1861 -1.1849 -0.4440
12709TIP3   OH259617   2.052   0.123   1.273 -0.2807 -0.7841 -0.6383
12709TIP3    H159618   2.145   0.100   1.276 -0.4105 -1.2690  1.7354
12709TIP3    H259619   2.049   0.213   1.305 -0.5923 -0.6401 -1.0698
12710TIP3   OH259620   5.403   0.341   0.299  0.5525 -0.3729 -0.9974
12710TIP3    H159621   5.497   0.357   0.309  0.7077 -1.1337 -1.2358
12710TIP3    H259622   5.363   0.395   0.368  1.3234 -1.8317  0.6753
12711TIP3   OH259623   2.319   0.963  12.713 -0.1888 -0.4479  0.7823
12711TIP3    H159624   2.303   0.939  12.804  1.3942  1.9947  1.7723
12711TIP3    H259625   2.411   0.944  12.698  0.3322  1.8797  0.6668
12712TIP3   OH259626   3.429   5.649   2.787 -0.5035 -0.1439  0.0068
12712TIP3    H159627   3.457   5.727   2.835 -1.9174  0.7771 -0.6012
12712TIP3    H259628   3.354   5.616   2.838  0.0265 -1.0657  0.2073
12713TIP3   OH259629   2.299   1.427   1.241 -0.2954  0.4846  0.0755
12713TIP3    H159630   2.356   1.407   1.316 -0.5126 -0.8146 -0.0963
12713TIP3    H259631   2.312   1.521   1.227  2.3048  0.1308 -0.3617
12714TIP3   OH259632   0.387   3.779   4.324 -0.4790  0.1052  0.3789
12714TIP3    H159633   0.361   3.688   4.311 -2.1272  0.6026 -0.0454
12714TIP3    H259634   0.304   3.827   4.332  0.3169  1.7394 -0.6153
12715TIP3   OH259635   4.880   4.473   4.305  0.1245  0.6175 -0.1476
12715TIP3    H159636   4.957   4.493   4.253 -0.7380  0.9489 -1.3460
12715TIP3    H259637   4.812   4.451   4.241  0.2235 -3.6849  0.9207
12716TIP3   OH259638   2.641   1.721  12.198 -0.5081 -0.6822 -0.5036
12716TIP3    H159639   2.690   1.659  12.253 -2.4211 -1.4192  0.4761
12716TIP3    H259640   2.709   1.776  12.158  1.2300 -2.7482 -0.6333
12717TIP3   OH259641   1.608   3.818   0.811  0.4515 -0.1429  0.2324
12717TIP3    H159642   1.699   3.846   0.813  0.9946 -1.8498  0.9811
12717TIP3    H259643   1.578   3.828   0.902  0.5533 -1.5708  0.4427
12718TIP3   OH259644   0.314   4.127  12.462 -0.2285  0.5380  0.1331
12718TIP3    H159645   0.353   4.072  12.394  0.1883 -0.4622  1.1394
12718TIP3    H259646   0.290   4.065  12.532 -1.7518  1.3790  0.4074
12719TIP3   OH259647   5.211   3.919  13.349  0.2915 -0.2248  0.3681
12719TIP3    H159648   5.192   3.958  13.434 -0.3309 -1.4592  0.8235
12719TIP3    H259649   5.306   3.911  13.347  0.3020 -0.3339  1.0212
12720TIP3   OH259650   0.554   1.086   5.216 -0.5013  0.6299 -0.0937
12720TIP3    H159651   0.479   1.058   5.163 -0.6929  2.0356 -0.6201
12720TIP3    H259652   0.627   1.035   5.183 -0.3788  2.1932 -2.5457
12721TIP3   OH259653   4.645   0.850   1.350  0.1800  0.0059 -0.0715
12721TIP3    H159654   4.619   0.888   1.266  0.9826 -0.1738 -0.4077
12721TIP3    H259655   4.636   0.922   1.413 -1.2407 -0.0849 -0.1391
12722TIP3   OH259656   4.237   5.758   3.344 -0.0858  0.1690 -0.3511
12722TIP3    H159657   4.156   5.800   3.315  0.4987  0.6487 -1.3626
12722TIP3    H259658   4.233   5.759   3.439 -1.8588 -1.0000 -0.3745
12723TIP3   OH259659   2.733   0.100   0.142  0.4274  0.1918  0.1938
12723TIP3    H159660   2.823   0.069   0.151  0.5913  0.6974  0.3116
12723TIP3    H259661   2.736   0.157   0.065  0.5781  1.5463  1.1745
12724TIP3   OH259662   4.501   1.373   3.368 -0.2607  0.1687 -0.1316
12724TIP3    H159663   4.450   1.419   3.435 -0.8704  1.6647 -1.5469
12724TIP3    H259664   4.590   1.405   3.379 -0.3734  0.4608 -0.0537
12725TIP3   OH259665   0.240   2.458  12.821  0.0306  0.0350 -0.1660
12725TIP3    H159666   0.320   2.408  12.806 -0.8715 -2.0732  1.3922
12725TIP3    H259667   0.263   2.520  12.890  0.9444  1.2785 -1.5285
12726TIP3   OH259668   5.757   2.540   1.707  0.2319  1.1847 -0.5538
12726TIP3    H159669   5.689   2.602   1.679 -1.0873  0.2133  0.3746
12726TIP3    H259670   5.781   2.493   1.627 -1.1421  0.6579 -0.6788
12727TIP3   OH259671   6.313   3.854   4.205 -0.4501 -0.1092  0.1143
12727TIP3    H159672   6.379   3.893   4.148 -0.0968  1.8280  1.7107
12727TIP3    H259673   6.238   3.837   4.148 -0.3012  2.2148 -0.8676
12728TIP3   OH259674   0.501   5.328   1.061  0.1709  0.0218  0.2462
12728TIP3    H159675   0.589   5.292   1.073  0.3275  0.7210  1.3241
12728TIP3    H259676   0.499   5.356   0.969  1.2690  0.5154  0.3599
12729TIP3   OH259677   1.829   4.916   3.304 -0.3303  0.6480  0.6143
12729TIP3    H159678   1.834   4.889   3.212  0.4078 -0.7542  1.0307
12729TIP3    H259679   1.862   5.005   3.305  0.3755  0.4177 -0.3758
12730TIP3   OH259680   4.035   6.163   1.113 -0.2211  0.2387 -0.4460
12730TIP3    H159681   3.951   6.183   1.071 -0.2778  1.9988  0.4000
12730TIP3    H259682   4.099   6.167   1.042 -0.6913  0.2151 -0.8779
12731TIP3   OH259683   4.039   2.077  10.506 -0.0816  0.1531  0.5120
12731TIP3    H159684   4.127   2.112  10.522  0.7671 -1.3134 -0.7236
12731TIP3    H259685   3.984   2.119  10.573  1.4125  1.5933  0.8981
12732TIP3   OH259686   7.040   4.470   1.217  0.1841  0.1597 -0.3665
12732TIP3    H159687   7.105   4.434   1.276  0.1286  0.7281  0.0476
12732TIP3    H259688   6.963   4.485   1.272  0.2516  1.0338 -0.4998
12733TIP3   OH259689   5.977   2.325   0.759 -0.0872  0.2324  0.0723
12733TIP3    H159690   5.963   2.305   0.852  0.0839  0.7541  0.2149
12733TIP3    H259691   5.903   2.381   0.735 -0.5749 -0.5760 -0.3276
12734TIP3   OH259692   6.411   5.026  13.025 -0.0831 -0.3340 -0.6413
12734TIP3    H159693   6.328   5.074  13.021 -2.1577 -3.5612 -0.3615
12734TIP3    H259694   6.389   4.939  12.992  2.6231 -2.0478  1.6655
12735TIP3   OH259695   1.839   3.472   3.088 -0.0156 -0.2713 -0.2319
12735TIP3    H159696   1.859   3.405   3.023  0.9504 -1.2184  0.9797
12735TIP3    H259697   1.888   3.550   3.059  1.2449 -0.9928 -0.1249
12736TIP3   OH259698   6.293   4.475   0.382  0.1155  0.1116  0.6376
12736TIP3    H159699   6.338   4.390   0.378 -1.4118 -0.7074 -0.0712
12736TIP3    H259700   6.323   4.522   0.305  1.9807  0.7802  1.7219
12737TIP3   OH259701   5.262   0.668   2.267  0.1875  0.1975  0.5585
12737TIP3    H159702   5.207   0.700   2.195  0.6783  0.6951  0.3955
12737TIP3    H259703   5.315   0.599   2.227 -1.0670 -1.0463  0.9759
12738TIP3   OH259704   0.854   3.375   5.577 -0.3771  0.8120  0.4658
12738TIP3    H159705   0.762   3.398   5.593 -0.2628  1.7549 -0.1495
12738TIP3    H259706   0.892   3.369   5.665 -0.9862  0.5657  0.7230
12739TIP3   OH259707   3.920   6.934   0.315  0.0893  0.7752 -0.1206
12739TIP3    H159708   3.905   6.841   0.336  0.9138  0.7833  0.5656
12739TIP3    H259709   3.997   6.933   0.258  0.6678  1.0923  0.6381
12740TIP3   OH259710   3.265   4.654  12.199 -0.0010  0.8021 -0.6305
12740TIP3    H159711   3.244   4.569  12.162 -3.5316  1.2665  0.0261
12740TIP3    H259712   3.283   4.637  12.292  0.0484  0.6800 -0.6632
12741TIP3   OH259713   3.704   3.854   1.102  0.1611 -0.1712  0.0127
12741TIP3    H159714   3.794   3.844   1.131  0.2799  1.3135  0.2249
12741TIP3    H259715   3.689   3.949   1.101 -0.9943 -0.3409 -1.2534
12742TIP3   OH259716   1.891   0.135  13.202 -0.0355 -0.1750 -0.0534
12742TIP3    H159717   1.967   0.094  13.160  0.9689  0.8348  0.7105
12742TIP3    H259718   1.857   0.068  13.262 -0.9940 -1.3397 -1.8087
12743TIP3   OH259719   5.569   0.595   3.073 -0.0710  0.0118  0.7329
12743TIP3    H159720   5.618   0.653   3.015 -0.9660  0.9954  0.9195
12743TIP3    H259721   5.497   0.650   3.107  0.4438 -0.4969  2.8085
12744TIP3   OH259722   1.430   6.888   2.952  0.6495  0.2729 -0.3451
12744TIP3    H159723   1.462   6.801   2.928  2.3034  0.7537 -0.0593
12744TIP3    H259724   1.335   6.882   2.947  0.5799 -2.1878  1.7313
12745TIP3   OH259725   2.767   3.626   3.278 -0.1784  0.3880 -0.1735
12745TIP3    H159726   2.791   3.595   3.365 -1.1821  0.2277  0.0607
12745TIP3    H259727   2.837   3.687   3.254  1.4036 -1.4035 -0.3164
12746TIP3   OH259728   7.004   1.180  13.288 -0.0602 -0.4912  0.2894
12746TIP3    H159729   6.989   1.148  13.377 -0.3695 -0.1808  0.3529
12746TIP3    H259730   7.075   1.242  13.296 -1.0929  0.6872  0.5855
12747TIP3   OH259731   6.959   4.652  11.159 -0.4414  0.1976  0.0194
12747TIP3    H159732   7.016   4.576  11.146  1.3084  1.4113  0.3142
12747TIP3    H259733   6.871   4.615  11.166  0.2407 -1.7045 -0.8590
12748TIP3   OH259734   4.731   0.890   3.194 -0.6897 -0.2170 -0.2379
12748TIP3    H159735   4.698   0.803   3.171  1.2353 -1.0986  0.0980
12748TIP3    H259736   4.795   0.873   3.263  1.0511  1.2789 -1.4123
12749TIP3   OH259737   4.847   0.651   1.314  0.0893  0.1924 -0.2419
12749TIP3    H159738   4.907   0.704   1.367 -1.3183 -0.6334  2.2886
12749TIP3    H259739   4.764   0.698   1.316 -1.0015 -1.6502  1.4790
12750TIP3   OH259740   0.338   0.868  13.399 -0.1375 -0.5320  0.1434
12750TIP3    H159741   0.317   0.835  13.312  0.1748  1.1394 -0.6026
12750TIP3    H259742   0.282   0.944  13.410  0.9456  0.2027  0.7529
12751TIP3   OH259743   6.251   2.719  10.863 -0.1249  0.6978 -0.0953
12751TIP3    H159744   6.195   2.756  10.795 -1.7479 -1.7904 -0.2325
12751TIP3    H259745   6.209   2.745  10.945  0.3598  1.4954 -0.0871
12752TIP3   OH259746   4.128   3.912   4.142 -0.1525  1.0743  0.5645
12752TIP3    H159747   4.114   3.852   4.215 -1.7771  0.0298 -0.5130
12752TIP3    H259748   4.185   3.864   4.082 -2.7659 -0.2526 -1.0750
12753TIP3   OH259749   4.138   6.937   0.134 -0.0688  0.3983 -0.2403
12753TIP3    H159750   4.121   7.000   0.063  0.8328  2.1848  1.0575
12753TIP3    H259751   4.215   6.888   0.105  0.4703  1.3156 -0.3820
12754TIP3   OH259752   6.763   7.125   1.019  0.1513 -0.5819  0.2713
12754TIP3    H159753   6.704   7.055   0.992  1.8666 -2.0126  0.0075
12754TIP3    H259754   6.820   7.139   0.943 -0.4857  1.5132  0.1226
12755TIP3   OH259755   6.074   1.884   0.002 -0.3878  0.4871  0.3775
12755TIP3    H159756   5.984   1.880  -0.030 -0.2029  3.1081 -0.7900
12755TIP3    H259757   6.121   1.819  -0.050 -1.5430 -0.7066  0.7995
12756TIP3   OH259758   4.083   6.568   0.244  0.7384  0.1197  0.1095
12756TIP3    H159759   4.142   6.496   0.267  0.6586  0.1244  0.3312
12756TIP3    H259760   4.129   6.616   0.175  0.7509 -0.1977 -0.1050
12757TIP3   OH259761   6.971   4.130   5.169 -0.2825 -0.0213  0.5329
12757TIP3    H159762   6.993   4.044   5.134 -0.6554  0.1128 -0.0399
12757TIP3    H259763   7.055   4.176   5.175 -0.0872 -0.4097  0.8106
12758TIP3   OH259764   2.599   1.904  13.962 -0.0247  0.0648  0.1953
12758TIP3    H159765   2.544   1.923  14.038  2.0495 -0.0276  1.8074
12758TIP3    H259766   2.548   1.842  13.910 -2.2852  1.5460  0.4937
12759TIP3   OH259767   4.023   4.959   3.816 -0.1839  0.1046  0.1331
12759TIP3    H159768   3.937   4.997   3.798 -1.2593 -2.4836 -0.6467
12759TIP3    H259769   4.042   4.905   3.740  0.8991 -1.4837  1.4709
12760TIP3   OH259770   7.003   3.305   0.978 -0.0681 -0.1661  0.2731
12760TIP3    H159771   7.055   3.225   0.982  0.8621  0.4384  0.9308
12760TIP3    H259772   7.043   3.362   1.045 -1.2309  0.5291  0.3986
12761TIP3   OH259773   6.416   1.880   2.715 -0.1491 -0.2882  0.7322
12761TIP3    H159774   6.369   1.810   2.760  0.2442 -0.5686  0.7091
12761TIP3    H259775   6.406   1.956   2.772 -1.4142 -0.0945  0.2854
12762TIP3   OH259776   7.106   1.944   3.848  0.2421  0.1605  0.6093
12762TIP3    H159777   7.073   2.014   3.791  0.9022 -0.5987 -0.7711
12762TIP3    H259778   7.063   1.864   3.815  2.2404 -0.6184 -0.2674
12763TIP3   OH259779   2.195   1.715   3.159  0.1105  0.1303  0.1557
12763TIP3    H159780   2.173   1.696   3.068 -0.4442 -0.2162  0.3612
12763TIP3    H259781   2.206   1.629   3.200 -2.0542  0.2007  1.0037
12764TIP3   OH259782   5.763   4.410   9.961  0.1875 -0.5773  0.1336
12764TIP3    H159783   5.820   4.335   9.977  1.4122  0.6780  2.0901
12764TIP3    H259784   5.798   4.479  10.017 -0.9445  1.4610 -1.5053
12765TIP3   OH259785   4.853   5.333  11.371 -0.2126 -0.2181  0.2245
12765TIP3    H159786   4.764   5.319  11.339  0.3925 -1.3317 -1.0792
12765TIP3    H259787   4.900   5.370  11.297  0.7090 -0.8558  0.4656
12766TIP3   OH259788   1.211   5.298  12.397  0.6920 -0.4920  0.3911
12766TIP3    H159789   1.179   5.368  12.454  0.6464 -0.0916 -0.1148
12766TIP3    H259790   1.208   5.220  12.451  2.1789  0.1517  1.4631
12767TIP3   OH259791   7.131   0.307   0.829  0.1956  0.1717 -0.6653
12767TIP3    H159792   7.151   0.357   0.750  2.0422 -0.5731 -0.7153
12767TIP3    H259793   7.047   0.342   0.859  1.1911  3.0277 -0.9212
12768TIP3   OH259794   0.517   3.143  15.385  0.8180  0.0318 -0.3093
12768TIP3    H159795   0.447   3.147  15.319  0.1203 -2.0379  0.2172
12768TIP3    H259796   0.571   3.220  15.368 -0.0503  0.2234 -2.4871
12769TIP3   OH259797   6.966   1.403   2.192  0.2913 -0.0759 -0.4662
12769TIP3    H159798   6.878   1.439   2.201 -0.0002  0.3629 -3.8676
12769TIP3    H259799   7.025   1.478   2.204  0.2267 -0.2452  1.1361
12770TIP3   OH259800   3.866   4.411  13.723  0.1776 -0.0968 -0.0581
12770TIP3    H159801   3.800   4.354  13.683 -0.0223  0.1932 -0.1450
12770TIP3    H259802   3.930   4.426  13.653 -0.2774  0.5774 -0.3468
12771TIP3   OH259803   2.148   3.807   1.176 -0.7673 -0.3637 -0.2040
12771TIP3    H159804   2.116   3.890   1.210  0.6079  0.8256 -1.6514
12771TIP3    H259805   2.243   3.810   1.189 -0.5273 -1.0595 -1.5532
12772TIP3   OH259806   4.075   3.660   5.264  0.4004 -0.1494  0.0808
12772TIP3    H159807   3.989   3.622   5.247  0.3209  0.1744 -0.2629
12772TIP3    H259808   4.126   3.639   5.185  0.4663  0.1421  0.0465
12773TIP3   OH259809   0.469   6.294  12.519  0.1204 -0.0519  0.2062
12773TIP3    H159810   0.500   6.343  12.443 -0.8364 -0.4639 -0.4698
12773TIP3    H259811   0.542   6.235  12.541 -0.8932 -2.7625 -2.8570
12774TIP3   OH259812   5.083   1.526   4.530  0.5632 -0.0396 -0.7277
12774TIP3    H159813   5.063   1.601   4.585  0.3186  0.9843 -2.1736
12774TIP3    H259814   5.100   1.563   4.444  2.7309 -1.4177 -0.9731
12775TIP3   OH259815   1.022   6.531   3.738  0.7937 -0.1256 -0.2699
12775TIP3    H159816   0.976   6.514   3.656  2.0672  0.1681 -1.0603
12775TIP3    H259817   1.072   6.451   3.755  0.6412 -0.1348  0.1543
12776TIP3   OH259818   6.180   0.581  10.020 -0.0748  0.1960  0.1329
12776TIP3    H159819   6.164   0.487  10.024 -1.1055  0.3213 -0.6512
12776TIP3    H259820   6.238   0.593   9.945 -1.0290  0.2967 -0.6123
12777TIP3   OH259821   0.385   0.411  14.405  0.3127  0.0010 -0.1306
12777TIP3    H159822   0.438   0.336  14.379 -1.4135 -1.5238  0.5560
12777TIP3    H259823   0.327   0.427  14.330 -0.6343 -0.5910  0.4736
12778TIP3   OH259824   4.118   0.232  12.471  0.0167  0.1363  0.6946
12778TIP3    H159825   4.171   0.312  12.466 -0.2786  0.2846 -0.1607
12778TIP3    H259826   4.164   0.169  12.415 -0.3120  0.0280  0.5487
12779TIP3   OH259827   2.905   3.204   0.013 -0.5704  0.2486 -0.0407
12779TIP3    H159828   2.828   3.229   0.064  0.3753 -1.4081  2.4092
12779TIP3    H259829   2.888   3.114  -0.015  0.1606  0.1081 -0.0633
12780TIP3   OH259830   6.206   6.730  14.903  0.0086  0.2422 -0.3962
12780TIP3    H159831   6.182   6.791  14.834 -0.9001 -0.4464 -0.7134
12780TIP3    H259832   6.288   6.691  14.874 -0.7287 -0.5734 -1.4653
12781TIP3   OH259833   2.585   6.838  15.195  0.2911  0.0044 -0.3936
12781TIP3    H159834   2.501   6.811  15.157  0.0890 -1.6659  1.1269
12781TIP3    H259835   2.586   6.797  15.281  2.9888 -0.6053 -0.6458
12782TIP3   OH259836   4.359   6.578   4.079 -0.8363  0.0382  0.0920
12782TIP3    H159837   4.348   6.493   4.122 -1.3437 -0.8389 -1.6908
12782TIP3    H259838   4.334   6.642   4.147  0.1429 -1.1653  1.6539
12783TIP3   OH259839   3.333   5.244   2.969 -0.6498  0.5392  0.1629
12783TIP3    H159840   3.344   5.339   2.973 -0.7243  0.6568 -1.6386
12783TIP3    H259841   3.276   5.230   2.893 -0.5042 -0.9660  0.3044
12784TIP3   OH259842   5.804   6.448   1.580 -0.2447 -0.3077 -0.5124
12784TIP3    H159843   5.710   6.465   1.574 -0.2854  0.7939  2.0682
12784TIP3    H259844   5.812   6.372   1.637  0.4321  0.3130  0.2528
12785TIP3   OH259845   3.606   0.923  12.070 -0.9907  0.0236  0.0218
12785TIP3    H159846   3.590   0.918  11.976  0.2892  0.1614 -0.2292
12785TIP3    H259847   3.543   0.988  12.102 -0.1750  1.4154 -1.0728
12786TIP3   OH259848   3.321   7.055  13.780  0.1974  0.9003  0.0872
12786TIP3    H159849   3.373   6.977  13.764 -0.1610  0.2642  1.7575
12786TIP3    H259850   3.276   7.037  13.863  0.5002  3.0682  0.7870
12787TIP3   OH259851   5.153   7.113  11.737 -0.0870  0.0427  0.2952
12787TIP3    H159852   5.213   7.141  11.806  0.2998  2.6378 -0.9739
12787TIP3    H259853   5.097   7.189  11.721  0.6507  0.0684 -3.0532
12788TIP3   OH259854   0.942   3.690   4.074  0.5091  0.5138  0.4357
12788TIP3    H159855   1.017   3.688   4.132  0.8404 -1.4714 -0.0009
12788TIP3    H259856   0.911   3.599   4.070  1.1443  0.2993 -3.2459
12789TIP3   OH259857   4.088   5.339  10.183 -0.0753 -0.2218 -0.5028
12789TIP3    H159858   4.107   5.429  10.209 -0.1419 -0.0412 -1.0718
12789TIP3    H259859   4.173   5.303  10.158  0.3975 -1.1105  2.0406
12790TIP3   OH259860   1.078   1.411   4.476 -0.1365  0.1086 -0.6959
12790TIP3    H159861   1.133   1.391   4.551  0.2433 -1.7233 -1.3970
12790TIP3    H259862   0.990   1.420   4.511  0.3972  1.8832  0.2811
12791TIP3   OH259863   0.542   3.910   4.572  0.5956 -0.1727 -0.1772
12791TIP3    H159864   0.588   3.966   4.509  1.7996 -0.0425  0.7823
12791TIP3    H259865   0.488   3.970   4.623  1.4883  0.0602  0.5083
12792TIP3   OH259866   2.061   3.901   2.423  0.4523  0.2201 -0.0002
12792TIP3    H159867   2.022   3.842   2.360  1.3194 -0.0062 -0.3442
12792TIP3    H259868   2.123   3.847   2.472  0.5033  0.6115  0.3791
12793TIP3   OH259869   3.530   5.539   0.436  0.6405 -0.7112  0.2683
12793TIP3    H159870   3.480   5.487   0.373  1.5575 -1.4830  0.1496
12793TIP3    H259871   3.536   5.626   0.396  2.0640 -1.4419 -1.2394
12794TIP3   OH259872   5.198   1.427   2.437  0.2731 -0.2937  0.0864
12794TIP3    H159873   5.246   1.346   2.422  0.2002 -0.2103 -0.6346
12794TIP3    H259874   5.106   1.403   2.433  0.2525 -0.2097  0.0282
12795TIP3   OH259875   1.411   4.679   4.459  0.1825 -0.2678  0.4816
12795TIP3    H159876   1.393   4.683   4.553  1.5863  0.0603  0.7696
12795TIP3    H259877   1.478   4.612   4.450  1.1319  0.7187 -0.0800
12796TIP3   OH259878   7.142   5.384  13.182  0.0515 -0.8188  0.1261
12796TIP3    H159879   7.193   5.437  13.243 -2.0457  1.9132 -0.3123
12796TIP3    H259880   7.056   5.375  13.223 -0.7014 -0.8799 -1.3754
12797TIP3   OH259881   0.343   0.155  14.060  0.5950  0.6032  0.2205
12797TIP3    H159882   0.277   0.222  14.076  0.9332  0.3587  3.3407
12797TIP3    H259883   0.300   0.091  14.004 -1.7810  0.6121  1.8850
12798TIP3   OH259884   1.575   5.457  14.439  0.2127 -0.4289  0.0934
12798TIP3    H159885   1.592   5.416  14.524  1.5462 -3.6250 -1.5374
12798TIP3    H259886   1.655   5.506  14.420 -0.5978  1.4154  1.1592
12799TIP3   OH259887   0.633   5.818   1.716 -0.3766 -0.2741  0.0794
12799TIP3    H159888   0.549   5.817   1.763 -1.0986  0.2342 -1.1400
12799TIP3    H259889   0.699   5.803   1.784 -1.5691 -3.1453  0.7669
12800TIP3   OH259890   0.876   0.823   0.464  0.4272 -0.0925 -0.7758
12800TIP3    H159891   0.799   0.820   0.521  0.3767  0.8967 -0.7822
12800TIP3    H259892   0.950   0.832   0.524  0.2302  3.2192 -0.8687
12801TIP3   OH259893   3.097   6.732  10.985 -0.0237  0.8303 -0.4729
12801TIP3    H159894   3.086   6.637  10.990 -0.2829  0.9155  0.8530
12801TIP3    H259895   3.184   6.744  10.947  0.2727  0.0536 -0.0599
12802TIP3   OH259896   2.734   0.207  11.891 -0.7161 -0.0330  0.2570
12802TIP3    H159897   2.688   0.281  11.930 -1.4493  0.2238 -1.0203
12802TIP3    H259898   2.727   0.222  11.796  1.2884 -0.4411  0.0036
12803TIP3   OH259899   2.343   6.286  10.130 -0.1343 -0.0886  0.2935
12803TIP3    H159900   2.384   6.341  10.197  2.9179  0.6531 -1.9621
12803TIP3    H259901   2.315   6.347  10.062  0.5070 -1.0591 -0.8768
12804TIP3   OH259902   6.952   4.136   1.102  0.6644 -0.3110  0.3958
12804TIP3    H159903   6.915   4.085   1.030 -2.3238 -1.0872  2.3056
12804TIP3    H259904   7.027   4.084   1.132 -0.4653 -2.0577  0.3318
12805TIP3   OH259905   4.910   1.305  10.078 -0.0092  0.2080  0.0911
12805TIP3    H159906   4.908   1.214  10.106 -0.3120  0.8135  2.2098
12805TIP3    H259907   4.987   1.343  10.120 -1.3350  1.5321  1.4824
12806TIP3   OH259908   2.248   3.518   0.953 -0.6045  0.3464  0.0945
12806TIP3    H159909   2.245   3.505   0.858  1.8870 -1.0406  0.1079
12806TIP3    H259910   2.299   3.598   0.965 -0.4039  0.1958  0.2551
12807TIP3   OH259911   5.096   5.441  11.271 -0.1320  0.6108  0.0898
12807TIP3    H159912   5.110   5.535  11.261  3.5814  0.0961 -1.0181
12807TIP3    H259913   5.100   5.426  11.366  0.2377  1.4867  0.2212
12808TIP3   OH259914   1.607   5.974   2.880  0.0941  0.2192  0.5045
12808TIP3    H159915   1.690   6.022   2.874  1.5769 -2.2942 -0.8516
12808TIP3    H259916   1.564   5.991   2.797 -0.5504  1.1078  1.0039
12809TIP3   OH259917   5.367   2.615  11.321  0.0689  0.4317 -0.0536
12809TIP3    H159918   5.285   2.585  11.361  0.2807 -0.8109 -0.4898
12809TIP3    H259919   5.408   2.534  11.290  0.5088  1.2272 -1.6406
12810TIP3   OH259920   1.033   6.065  14.932 -0.1375  0.3584  0.2754
12810TIP3    H159921   1.039   6.140  14.991  0.5083  1.3437 -0.9826
12810TIP3    H259922   0.983   6.000  14.981 -1.1837  1.7948  1.2144
12811TIP3   OH259923   3.348   4.240  14.028  0.0246  0.3635 -0.2470
12811TIP3    H159924   3.301   4.214  13.949  0.4909 -1.4282  0.0190
12811TIP3    H259925   3.371   4.157  14.071  0.3556  1.2708  1.4351
12812TIP3   OH259926   4.781   2.788   5.259  0.2894 -0.6260 -0.5204
12812TIP3    H159927   4.737   2.818   5.339  0.4243  0.1617 -0.7296
12812TIP3    H259928   4.874   2.790   5.282  0.4305  0.8795 -1.0819
12813TIP3   OH259929   5.634   5.078  15.106  0.0959  0.5590 -0.8104
12813TIP3    H159930   5.701   5.012  15.088  0.3725  0.4379  0.5480
12813TIP3    H259931   5.566   5.030  15.154  0.7895  1.4360  1.1480
12814TIP3   OH259932   2.122   6.163  12.825 -0.7347  0.0291 -0.7766
12814TIP3    H159933   2.122   6.229  12.895  0.2760  1.0880 -1.7323
12814TIP3    H259934   2.173   6.091  12.861  0.2131  0.7684 -0.5750
12815TIP3   OH259935   0.565   2.934   2.500  0.3718  0.3400 -0.3830
12815TIP3    H159936   0.520   3.019   2.502  1.3841  0.9135 -1.1412
12815TIP3    H259937   0.524   2.887   2.427  0.7415  0.7296 -0.8538
12816TIP3   OH259938   1.411   2.510   2.487  0.1183  0.5005 -0.3056
12816TIP3    H159939   1.323   2.474   2.501  0.6465 -0.4683  0.6500
12816TIP3    H259940   1.397   2.585   2.430 -1.3649  0.5024  0.0188
12817TIP3   OH259941   2.230   1.296   2.359  0.1650 -0.1578  0.7506
12817TIP3    H159942   2.245   1.203   2.374 -1.4872 -0.6598 -0.3881
12817TIP3    H259943   2.315   1.329   2.329  0.2361 -1.8411 -1.1478
12818TIP3   OH259944   4.838   6.345  14.942 -0.2027 -0.5131  0.2012
12818TIP3    H159945   4.834   6.417  15.006 -0.1429 -2.2695  2.2904
12818TIP3    H259946   4.793   6.272  14.985 -0.3651 -1.7233 -1.8962
12819TIP3   OH259947   4.718   0.606  13.352 -0.1683 -0.3259 -0.3064
12819TIP3    H159948   4.804   0.575  13.381 -0.0015  0.3283 -0.0875
12819TIP3    H259949   4.683   0.534  13.299 -0.8644 -1.9591  2.2012
12820TIP3   OH259950   0.852   3.963  14.450 -0.2570  0.1547  0.5187
12820TIP3    H159951   0.815   3.900  14.512  0.6812 -1.3057 -0.3270
12820TIP3    H259952   0.777   4.016  14.423 -1.0676 -0.5157  1.3622
12821TIP3   OH259953   0.829   0.243   2.429  0.1894 -0.4028  0.0508
12821TIP3    H159954   0.878   0.196   2.496  1.5545 -0.6567 -1.0738
12821TIP3    H259955   0.894   0.266   2.363 -0.6927  1.9221 -0.0891
12822TIP3   OH259956   5.777   7.103   1.586 -0.3740  0.4216 -0.7616
12822TIP3    H159957   5.749   7.034   1.525 -0.3893  0.2148 -0.5236
12822TIP3    H259958   5.774   7.183   1.534  0.0354  0.1854 -1.1515
12823TIP3   OH259959   2.633   3.309   3.381  0.2054 -0.9464  0.5475
12823TIP3    H159960   2.687   3.254   3.324  1.2011 -0.7570  1.2669
12823TIP3    H259961   2.696   3.367   3.423 -0.4069 -1.4750  2.2797
12824TIP3   OH259962   4.928   5.055   0.193 -0.1711  0.5480 -0.6443
12824TIP3    H159963   4.926   4.963   0.219 -1.1425  0.7869  0.1620
12824TIP3    H259964   5.010   5.088   0.230  0.3053 -0.0327 -1.1466
12825TIP3   OH259965   1.392   5.924  12.443 -0.4960  0.1530 -0.1092
12825TIP3    H159966   1.376   5.854  12.380 -2.4845  0.4628 -0.0193
12825TIP3    H259967   1.477   5.904  12.481 -0.4462 -1.4851 -1.0124
12826TIP3   OH259968   6.994   2.637   0.342  0.0391  0.6954 -0.0784
12826TIP3    H159969   7.059   2.568   0.357  0.2728  0.8198 -0.5084
12826TIP3    H259970   6.992   2.686   0.425 -0.6637 -0.2632  0.4870
12827TIP3   OH259971   1.306   3.598   1.244  0.0406  0.1799  0.5620
12827TIP3    H159972   1.293   3.534   1.314 -0.8037  0.6544  0.8522
12827TIP3    H259973   1.297   3.683   1.287  3.7932  0.6483  0.7562
12828TIP3   OH259974   1.292   0.560   4.672 -0.5371  0.3712  0.3777
12828TIP3    H159975   1.316   0.614   4.597 -0.3581 -0.0409  0.1339
12828TIP3    H259976   1.221   0.608   4.715 -0.8199  0.4813 -0.2048
12829TIP3   OH259977   1.555   2.690   1.369  0.2768 -0.1902 -0.5645
12829TIP3    H159978   1.476   2.639   1.388 -0.6148  1.5563  0.7628
12829TIP3    H259979   1.554   2.700   1.273  0.2485 -2.1936 -0.8249
12830TIP3   OH259980   5.035   2.614   1.755  0.8264  0.3292 -0.6917
12830TIP3    H159981   5.126   2.613   1.787  0.3580 -0.2385  0.7028
12830TIP3    H259982   4.997   2.692   1.794  1.2818  1.8687 -3.1120
12831TIP3   OH259983   4.049   3.271  13.424  0.3613 -0.0415 -0.6418
12831TIP3    H159984   4.006   3.272  13.338 -1.7098  2.3619  0.2735
12831TIP3    H259985   3.978   3.260  13.487  1.3114  1.7047  0.8771
12832TIP3   OH259986   3.856   2.585  14.856  0.2036 -0.1942  0.2326
12832TIP3    H159987   3.820   2.564  14.770 -0.4734 -1.5839  0.8409
12832TIP3    H259988   3.939   2.538  14.860  1.1380  1.3340 -0.3463
12833TIP3   OH259989   6.165   0.171   3.496  0.0962  0.3417  0.3343
12833TIP3    H159990   6.142   0.217   3.576 -0.1980  1.2142 -0.2336
12833TIP3    H259991   6.082   0.156   3.452  0.1891 -0.7215  0.4837
12834TIP3   OH259992   3.291   1.618  11.959  0.4898  0.0185  0.0129
12834TIP3    H159993   3.291   1.526  11.934  1.9198  0.1277 -0.4282
12834TIP3    H259994   3.378   1.634  11.996  0.5434  1.3792 -0.6288
12835TIP3   OH259995   0.250   2.540   2.543 -0.0120  0.0874  0.2768
12835TIP3    H159996   0.238   2.463   2.598  0.0399  0.9343  1.5211
12835TIP3    H259997   0.195   2.524   2.467 -2.3801  0.1203  1.8641
12836TIP3   OH259998   1.466   7.079  10.729  0.0002 -0.5795 -0.4355
12836TIP3    H159999   1.454   7.006  10.789 -0.1424 -0.9191 -0.8678
12836TIP3    H260000   1.384   7.082  10.679 -0.6597  0.9215  0.6858
12837TIP3   OH260001   5.736   6.771   2.565  0.4386 -0.3744  1.0392
12837TIP3    H160002   5.810   6.741   2.618  2.2251  0.9509 -0.5445
12837TIP3    H260003   5.703   6.692   2.523  0.4091 -1.1063  2.3706
12838TIP3   OH260004   3.950   5.236   0.501 -0.1761 -0.1417  0.3003
12838TIP3    H160005   3.900   5.252   0.421  2.1501  0.3409 -1.1540
12838TIP3    H260006   3.988   5.149   0.490  1.6980  0.6693 -0.0625
12839TIP3   OH260007   5.803   5.470   5.385  0.2032 -0.6810 -0.3355
12839TIP3    H160008   5.893   5.496   5.406  0.0109 -1.0487  1.0171
12839TIP3    H260009   5.783   5.400   5.447 -1.0716 -0.4949 -0.5116
12840TIP3   OH260010   3.093   2.974  15.231  0.5819 -0.3859  0.3050
12840TIP3    H160011   3.163   3.033  15.204  1.2408 -0.4216  1.8404
12840TIP3    H260012   3.013   3.022  15.211  0.8835 -1.1444 -3.3408
12841TIP3   OH260013   2.788   1.827   1.431 -0.1934 -0.7607 -0.0370
12841TIP3    H160014   2.752   1.915   1.430 -1.3495 -1.2164 -0.0452
12841TIP3    H260015   2.712   1.769   1.426  0.5259 -1.7670  0.1695
12842TIP3   OH260016   1.671   3.570  12.697  0.7125  0.2120 -0.1810
12842TIP3    H160017   1.611   3.517  12.644 -1.0953  1.3476  0.6293
12842TIP3    H260018   1.741   3.509  12.722 -0.1126 -1.1903 -1.1338
12843TIP3   OH260019   5.948   2.033   0.700 -0.2169 -0.6145 -0.3197
12843TIP3    H160020   5.994   2.116   0.716 -0.2774 -0.9991  2.3743
12843TIP3    H260021   5.992   1.996   0.623  0.2453  1.5752 -1.1919
12844TIP3   OH260022   5.909   2.337   3.921 -0.1493 -0.0259  0.0894
12844TIP3    H160023   5.832   2.368   3.874 -0.3733 -1.0876 -0.2829
12844TIP3    H260024   5.898   2.242   3.924  2.3066 -0.5161 -2.1397
12845TIP3   OH260025   3.472   4.780   3.709  0.0744  0.4609  0.1004
12845TIP3    H160026   3.457   4.858   3.761  2.1778  0.6518  0.4936
12845TIP3    H260027   3.393   4.772   3.654 -1.0264  1.7096  1.4348
12846TIP3   OH260028   1.131   5.329   1.508 -0.6202 -1.0238 -0.1212
12846TIP3    H160029   1.131   5.299   1.417 -0.8926 -3.9741  0.7616
12846TIP3    H260030   1.130   5.425   1.501  0.8888 -1.0885 -3.2064
12847TIP3   OH260031   5.530   3.115  14.296  0.0767  0.6115 -0.0951
12847TIP3    H160032   5.455   3.151  14.248  1.1718  1.3175 -1.3579
12847TIP3    H260033   5.516   3.020  14.295 -0.5221  0.6971 -0.8187
12848TIP3   OH260034   4.818   6.626   4.767 -0.1300  0.4093 -0.2169
12848TIP3    H160035   4.858   6.686   4.830  0.4135  1.1287 -1.2223
12848TIP3    H260036   4.862   6.646   4.684 -0.5955 -0.7486 -0.7566
12849TIP3   OH260037   3.035   3.068  13.579 -0.0012  0.0397  0.1275
12849TIP3    H160038   2.972   2.996  13.583 -1.0044  0.9014  0.3795
12849TIP3    H260039   3.037   3.103  13.668 -2.0538  2.3717 -0.6145
12850TIP3   OH260040   2.241   2.351  10.363 -0.1409 -0.1384 -0.0424
12850TIP3    H160041   2.207   2.304  10.286  0.2861 -1.3761  0.5013
12850TIP3    H260042   2.329   2.378  10.338  0.7952 -2.2905  0.6416
12851TIP3   OH260043   0.812   1.131  12.412 -0.2386 -0.1979 -0.3105
12851TIP3    H160044   0.806   1.062  12.346 -0.5995  0.7921 -1.3310
12851TIP3    H260045   0.721   1.150  12.435 -0.1261 -0.3237  0.2706
12852TIP3   OH260046   7.143   2.960   1.479 -0.4297  0.6249  0.2597
12852TIP3    H160047   7.189   2.964   1.563  3.5054  2.3952 -1.7455
12852TIP3    H260048   7.077   3.029   1.484 -0.1121  0.8465  1.7707
12853TIP3   OH260049   5.965   5.308  11.225  0.4409  0.1510 -0.1745
12853TIP3    H160050   6.057   5.314  11.249  0.7632 -1.2590 -0.9749
12853TIP3    H260051   5.930   5.239  11.282 -0.7396  2.2456  1.8177
12854TIP3   OH260052   6.721   0.207   1.020  0.4551  0.0441 -0.0066
12854TIP3    H160053   6.762   0.123   1.040  2.8920  1.8114  3.6173
12854TIP3    H260054   6.663   0.224   1.095 -2.0974  0.5326 -1.9398
12855TIP3   OH260055   4.382   5.282  14.118 -0.1437 -0.0896  0.0164
12855TIP3    H160056   4.364   5.220  14.188 -0.4752 -0.5271 -0.4522
12855TIP3    H260057   4.314   5.266  14.053 -0.7553  1.3503  0.2547
12856TIP3   OH260058   1.524   4.822   0.496 -0.0915  0.0560  0.2185
12856TIP3    H160059   1.459   4.891   0.489 -0.1917  0.2483  2.2767
12856TIP3    H260060   1.474   4.744   0.519  0.2288 -0.1682  0.1677
12857TIP3   OH260061   5.091   6.269   3.441 -0.4209  0.2072 -0.7071
12857TIP3    H160062   4.999   6.249   3.459 -0.5352  2.5346  1.8974
12857TIP3    H260063   5.089   6.353   3.396  0.4220  0.0745 -1.0053
12858TIP3   OH260064   0.507   4.790   4.628  0.2582  0.7422 -0.1821
12858TIP3    H160065   0.511   4.881   4.600  0.1268  0.7652 -0.1234
12858TIP3    H260066   0.569   4.745   4.570 -0.4744  0.6750 -0.9366
12859TIP3   OH260067   4.963   2.455   2.222 -0.1091 -0.0633 -0.2773
12859TIP3    H160068   5.054   2.483   2.208 -0.6862  1.4877 -1.1920
12859TIP3    H260069   4.951   2.383   2.159  0.6816 -0.7828  0.3654
12860TIP3   OH260070   7.035   1.839   4.094  0.5191 -0.1132 -0.1777
12860TIP3    H160071   6.942   1.819   4.084  0.7654 -2.0812  0.8459
12860TIP3    H260072   7.070   1.836   4.005  0.0806 -2.2729 -0.3424
12861TIP3   OH260073   5.980   6.417   0.673  0.3028  0.3937 -0.6672
12861TIP3    H160074   6.011   6.508   0.670  1.9069 -0.1229 -0.8346
12861TIP3    H260075   6.032   6.372   0.606  0.7714 -0.9826  0.5633
12862TIP3   OH260076   0.353   5.057  10.864  0.2123 -0.2395 -0.8210
12862TIP3    H160077   0.394   4.971  10.866  1.1769  0.2167  1.1294
12862TIP3    H260078   0.415   5.115  10.908 -1.3425  1.0250 -0.1993
12863TIP3   OH260079   6.129   0.988  14.988 -0.2118 -0.4372  0.6386
12863TIP3    H160080   6.198   0.950  14.935  0.4979  1.6126  0.0110
12863TIP3    H260081   6.156   1.078  15.003 -2.8917  0.5890  0.0401
12864TIP3   OH260082   6.935   0.200   3.023  0.1213 -0.2044  0.5816
12864TIP3    H160083   7.001   0.135   3.000  1.5847  1.6975 -0.9972
12864TIP3    H260084   6.876   0.202   2.947  0.3110  0.5296  0.4419
12865TIP3   OH260085   2.264   5.562  13.677 -0.5347 -0.1981  0.3096
12865TIP3    H160086   2.343   5.543  13.728 -1.5742 -0.7650  1.7721
12865TIP3    H260087   2.264   5.496  13.608  1.1585  0.8844 -0.7870
12866TIP3   OH260088   6.082   4.613  10.861  0.1465  0.0385 -0.0385
12866TIP3    H160089   6.087   4.709  10.854  0.4382  0.1263  1.0809
12866TIP3    H260090   6.123   4.581  10.781 -1.0369  0.8477 -1.0005
12867TIP3   OH260091   0.451   0.194   3.281  0.4826  0.4015 -0.1045
12867TIP3    H160092   0.397   0.270   3.304  0.3048  0.0823  0.5793
12867TIP3    H260093   0.470   0.153   3.366  1.0145 -0.0198 -0.4252
12868TIP3   OH260094   3.102   3.850  15.211  0.3326 -0.3506 -0.2096
12868TIP3    H160095   3.020   3.859  15.162 -0.2580  0.7465  0.9214
12868TIP3    H260096   3.159   3.798  15.153 -0.7118 -0.0503 -1.5668
12869TIP3   OH260097   6.390   1.113  12.741 -0.2097  0.2744 -0.0937
12869TIP3    H160098   6.437   1.180  12.791  0.8983 -0.4369 -0.1315
12869TIP3    H260099   6.374   1.043  12.804 -0.2931  0.0759 -0.3340
12870TIP3   OH260100   3.614   3.710   4.021 -0.3497 -0.2547  0.0006
12870TIP3    H160101   3.703   3.688   3.996 -0.7822 -1.0312 -0.9086
12870TIP3    H260102   3.624   3.767   4.097  1.0389  2.2361 -1.8804
12871TIP3   OH260103   2.195   4.415  13.885 -0.3567 -0.5090 -0.8171
12871TIP3    H160104   2.241   4.384  13.962  0.6303 -1.2989 -1.6940
12871TIP3    H260105   2.123   4.468  13.919  0.8574  0.2960  0.6077
12872TIP3   OH260106   1.818   6.968   4.827  0.1887  0.5203  0.4770
12872TIP3    H160107   1.769   6.937   4.751  1.2663 -1.4514  0.5184
12872TIP3    H260108   1.754   6.968   4.898  0.0389 -1.4080  0.3922
12873TIP3   OH260109   4.283   5.620  13.515 -0.0106 -0.0517  0.0095
12873TIP3    H160110   4.279   5.526  13.529  0.9651 -0.1396 -0.2653
12873TIP3    H260111   4.374   5.638  13.492 -0.5871  0.6773 -1.9500
12874TIP3   OH260112   2.299   3.252   0.173 -0.2101 -0.2570 -0.5877
12874TIP3    H160113   2.360   3.187   0.138 -1.5215 -1.7689 -0.1830
12874TIP3    H260114   2.276   3.220   0.260 -0.4684  1.0721 -0.1397
12875TIP3   OH260115   0.848   3.629   1.541  0.3321 -0.4658 -0.3336
12875TIP3    H160116   0.829   3.536   1.551  1.7478 -0.8360 -0.7815
12875TIP3    H260117   0.899   3.634   1.460  0.1645  0.7238 -0.3831
12876TIP3   OH260118   2.348   6.278  11.985  0.1842  0.6518 -0.1268
12876TIP3    H160119   2.380   6.256  11.898 -0.8526  0.6085 -0.5025
12876TIP3    H260120   2.259   6.310  11.971 -1.3581 -2.6418  1.2269
12877TIP3   OH260121   1.973   0.170  10.329  0.2326 -0.2263  0.0711
12877TIP3    H160122   1.911   0.240  10.349 -0.7340 -0.9229 -0.3967
12877TIP3    H260123   1.970   0.161  10.234  1.9215  0.4889 -0.0753
12878TIP3   OH260124   0.757   2.222  13.940 -0.2350  0.2784  0.5855
12878TIP3    H160125   0.677   2.170  13.937  0.4196 -0.7498 -1.9600
12878TIP3    H260126   0.828   2.157  13.946  0.4743  1.1476  2.4276
12879TIP3   OH260127   3.913   4.610   3.995  0.4486  0.1788  0.3430
12879TIP3    H160128   3.964   4.683   4.030 -2.3518  1.8594  1.2067
12879TIP3    H260129   3.837   4.604   4.053 -0.1090 -2.5557 -0.5376
12880TIP3   OH260130   4.288   2.426   2.081  0.2787 -0.3601  0.4594
12880TIP3    H160131   4.228   2.431   2.008  1.4252 -0.7736 -0.5434
12880TIP3    H260132   4.278   2.510   2.126 -0.7244 -0.2621  0.0704
12881TIP3   OH260133   2.652   4.998   2.925 -0.2081  0.5586  0.6998
12881TIP3    H160134   2.583   5.035   2.870 -1.1521 -0.7769  0.9099
12881TIP3    H260135   2.724   5.060   2.919 -0.3458  0.5759 -1.8580
12882TIP3   OH260136   5.626   4.340   0.057  0.4005  0.1741 -0.6230
12882TIP3    H160137   5.579   4.257   0.071  0.4840  0.0899 -0.8413
12882TIP3    H260138   5.608   4.363  -0.034 -0.1841  0.7524 -0.3609
12883TIP3   OH260139   0.269   0.790   3.387 -0.0517  0.4656  0.5253
12883TIP3    H160140   0.181   0.819   3.362  0.0741  2.2278  1.9764
12883TIP3    H260141   0.262   0.771   3.481  0.9143 -0.2498  0.4646
12884TIP3   OH260142   0.242   5.132   0.159  0.7848 -0.3345 -0.6661
12884TIP3    H160143   0.306   5.116   0.228  0.1448  1.1053  0.3066
12884TIP3    H260144   0.161   5.094   0.193  0.5603  0.0079 -0.8125
12885TIP3   OH260145   1.126   7.030  14.513  0.2575  0.3380  0.1488
12885TIP3    H160146   1.035   7.002  14.521 -0.3586  1.3125 -2.4705
12885TIP3    H260147   1.176   6.949  14.502 -0.1467 -0.2446  2.2143
12886TIP3   OH260148   5.704   1.407  14.122  0.3484 -0.2176  0.1110
12886TIP3    H160149   5.758   1.477  14.085 -1.0335  1.0961  0.4974
12886TIP3    H260150   5.688   1.434  14.212 -0.2376 -1.0357  0.2626
12887TIP3   OH260151   5.535   5.213   1.191 -0.4712 -0.4215  0.5177
12887TIP3    H160152   5.466   5.267   1.230  0.2072  0.6394  0.2974
12887TIP3    H260153   5.614   5.234   1.242 -0.0609 -0.7347  0.0241
12888TIP3   OH260154   6.983   0.495   3.339  0.0761  0.4037 -0.2151
12888TIP3    H160155   6.928   0.563   3.299 -0.0459  0.0002 -0.7452
12888TIP3    H260156   6.998   0.526   3.429 -1.5445  0.2317  0.1470
12889TIP3   OH260157   2.626   6.670   1.763 -0.3474 -0.4475 -0.0479
12889TIP3    H160158   2.586   6.732   1.702  1.0087  0.1512 -0.3523
12889TIP3    H260159   2.635   6.589   1.712  0.2474 -0.1222 -0.4653
12890TIP3   OH260160   3.578   2.666   0.350 -0.2670  0.3010 -0.3299
12890TIP3    H160161   3.506   2.654   0.412 -1.0134  0.0371 -1.2163
12890TIP3    H260162   3.639   2.595   0.370 -0.3925  0.3459  0.2345
12891TIP3   OH260163   2.747   6.065   1.663  0.5033  0.0853 -0.4677
12891TIP3    H160164   2.772   6.023   1.746  0.2659 -1.0040 -0.9336
12891TIP3    H260165   2.673   6.013   1.631  1.1813 -0.0952 -1.8212
12892TIP3   OH260166   0.722   2.782   5.058  0.0581 -0.1451  1.0662
12892TIP3    H160167   0.793   2.731   5.018  0.9974  1.6714  0.3312
12892TIP3    H260168   0.652   2.718   5.070  0.1128 -1.1212 -2.4540
12893TIP3   OH260169   3.454   4.148   4.407 -0.2631  0.3550 -0.2405
12893TIP3    H160170   3.366   4.159   4.371  0.4935  0.3490 -2.1722
12893TIP3    H260171   3.511   4.140   4.331  1.6273  1.7900  0.9431
12894TIP3   OH260172   0.932   0.239   1.856 -0.0128  0.3668  0.0215
12894TIP3    H160173   0.907   0.154   1.818 -0.9612 -0.1574  1.7314
12894TIP3    H260174   0.861   0.261   1.916  0.8064  1.7990  0.5194
12895TIP3   OH260175   3.202   1.659   3.605  0.7575 -0.1171 -0.2181
12895TIP3    H160176   3.172   1.695   3.521  0.7447  1.2828  0.3725
12895TIP3    H260177   3.132   1.600   3.632  0.0938  0.5171 -0.5113
12896TIP3   OH260178   4.167   7.122   5.562 -0.1666  0.1069  0.1994
12896TIP3    H160179   4.202   7.210   5.548  2.0338 -0.4803  1.5576
12896TIP3    H260180   4.083   7.122   5.515  0.3311  2.5135 -0.8431
12897TIP3   OH260181   6.531   4.505  14.747  0.7351  0.1585  0.0526
12897TIP3    H160182   6.562   4.467  14.665  2.5289 -1.2269  1.3034
12897TIP3    H260183   6.593   4.577  14.765  0.0827  0.7463 -0.0266
12898TIP3   OH260184   0.455   6.231   2.620 -0.2748  0.5490 -0.1876
12898TIP3    H160185   0.450   6.286   2.542  4.6344 -0.3964 -1.5041
12898TIP3    H260186   0.536   6.260   2.664  0.5308 -3.0487  1.0494
12899TIP3   OH260187   4.535   1.284   5.156  0.2508 -0.3679  0.1695
12899TIP3    H160188   4.488   1.240   5.085  1.3092 -0.2424 -0.6269
12899TIP3    H260189   4.473   1.348   5.190 -0.4291 -0.7562 -0.3207
12900TIP3   OH260190   3.787   1.995  13.033 -0.0691  0.1470 -0.2191
12900TIP3    H160191   3.797   1.939  13.110  1.5065 -1.3524 -1.4488
12900TIP3    H260192   3.757   2.079  13.069  0.0598 -0.6599  1.9495
12901TIP3   OH260193   6.382   1.324  12.976  0.1556  0.4305 -0.0507
12901TIP3    H160194   6.395   1.315  13.071  0.8256  1.6683  0.0010
12901TIP3    H260195   6.323   1.252  12.953  0.5997 -0.3659  1.1712
12902TIP3   OH260196   5.592   2.710   0.196  0.6063 -0.3754  0.1455
12902TIP3    H160197   5.686   2.721   0.207  0.5572  1.4717 -0.8238
12902TIP3    H260198   5.572   2.755   0.114 -0.9324 -1.9800 -0.4437
12903TIP3   OH260199   3.260   4.629   2.385 -0.0163 -0.1676 -0.5589
12903TIP3    H160200   3.227   4.547   2.348  0.4505 -1.7050  2.1620
12903TIP3    H260201   3.191   4.658   2.445  0.1931  0.9677 -0.8549
12904TIP3   OH260202   1.807   2.931   4.282  0.3373 -0.3151 -0.0816
12904TIP3    H160203   1.868   3.005   4.287 -0.0143 -0.1087  1.7916
12904TIP3    H260204   1.720   2.972   4.280  0.1584 -0.6711  0.3285
12905TIP3   OH260205   0.025   5.218   1.455 -0.0830  0.5592  0.2904
12905TIP3    H160206  -0.047   5.270   1.490  0.4637  0.0600  2.3145
12905TIP3    H260207  -0.007   5.186   1.370 -0.9774  2.9146 -0.3368
12906TIP3   OH260208   6.860   6.167   4.552  0.3567 -0.5119  0.0588
12906TIP3    H160209   6.799   6.236   4.579 -1.3610 -0.3935 -3.4805
12906TIP3    H260210   6.816   6.085   4.575  1.0728 -0.4718  1.6698
12907TIP3   OH260211   6.299   4.239   2.952  0.7225  0.3144 -0.1926
12907TIP3    H160212   6.239   4.191   2.896  0.3653 -0.5124  0.8588
12907TIP3    H260213   6.341   4.172   3.005 -2.5671  1.2027  4.1312
12908TIP3   OH260214   4.385   1.922   5.873  0.4956  0.0868  0.6262
12908TIP3    H160215   4.352   1.836   5.844  2.2457 -0.4929  0.2273
12908TIP3    H260216   4.318   1.984   5.844  0.9475 -0.7322 -2.5236
12909TIP3   OH260217   1.083   0.116   3.439  0.0173 -0.8209  0.4695
12909TIP3    H160218   1.100   0.121   3.533  2.9621  0.5347 -0.0037
12909TIP3    H260219   1.164   0.148   3.398 -1.9494  0.9140 -2.4859
12910TIP3   OH260220   5.796   4.411  11.704  0.0023  0.1739  0.0952
12910TIP3    H160221   5.745   4.376  11.777 -0.7435  0.6611 -0.1808
12910TIP3    H260222   5.813   4.335  11.648 -1.2350  0.1650 -0.2826
12911TIP3   OH260223   5.818   5.623   2.016 -0.6874 -0.3334  0.2149
12911TIP3    H160224   5.861   5.626   1.931  1.3631  1.0710  1.2057
12911TIP3    H260225   5.752   5.692   2.013 -0.6531 -0.3203 -0.2461
12912TIP3   OH260226   2.226   5.295   3.698 -0.0059  0.0319 -0.0069
12912TIP3    H160227   2.318   5.310   3.676 -0.5523  3.1051 -0.5101
12912TIP3    H260228   2.219   5.323   3.790 -0.2786 -1.2114  0.3778
12913TIP3   OH260229   4.645   4.556  14.281  0.1733 -0.3119  0.2194
12913TIP3    H160230   4.602   4.642  14.284  0.2840 -0.2272 -0.4627
12913TIP3    H260231   4.637   4.529  14.190  1.9203 -0.1044 -0.0317
12914TIP3   OH260232   5.794   3.118   0.130 -0.1805 -0.0771  0.7406
12914TIP3    H160233   5.812   3.195   0.076 -0.4290 -0.7998 -0.4208
12914TIP3    H260234   5.781   3.047   0.066 -2.8528 -0.4962  1.6401
12915TIP3   OH260235   3.328   4.791  11.150 -0.0233 -0.1717  0.6378
12915TIP3    H160236   3.298   4.777  11.239  0.4214  0.8256  0.9567
12915TIP3    H260237   3.398   4.727  11.138  0.0494 -0.1748  1.0684
12916TIP3   OH260238   5.260   5.915   3.763  0.0808  0.5926 -0.0691
12916TIP3    H160239   5.351   5.887   3.752 -0.8521 -2.0850 -1.8775
12916TIP3    H260240   5.251   5.990   3.704  0.8934  0.3477 -0.5236
12917TIP3   OH260241   6.888   0.965  13.988  0.6175 -0.2720  0.9085
12917TIP3    H160242   6.812   0.930  13.940 -0.0637  0.4437  1.4577
12917TIP3    H260243   6.959   0.964  13.923 -0.0783 -0.1172  0.1235
12918TIP3   OH260244   5.283   3.776   4.623 -0.0426 -0.1645  0.4811
12918TIP3    H160245   5.195   3.739   4.618 -0.1579 -0.1286  1.9214
12918TIP3    H260246   5.323   3.754   4.539 -1.5334  0.1080 -0.3267
12919TIP3   OH260247   0.779   3.904  14.827 -0.0622 -0.0066  0.0045
12919TIP3    H160248   0.768   3.892  14.922 -0.3700  0.8519  0.0858
12919TIP3    H260249   0.780   3.999  14.815  0.4965 -0.1129 -0.8011
12920TIP3   OH260250   1.005   3.421   1.273 -0.4939  1.0029 -0.0808
12920TIP3    H160251   0.915   3.441   1.298 -0.6271 -1.1960  1.4472
12920TIP3    H260252   1.003   3.329   1.245  1.7505 -0.2840  3.2847
12921TIP3   OH260253   2.697   2.353   1.729  0.0173  0.0917  0.0168
12921TIP3    H160254   2.744   2.303   1.795 -0.0174  0.5492  0.3953
12921TIP3    H260255   2.670   2.433   1.774 -1.2023 -0.1996 -0.1599
12922TIP3   OH260256   5.028   3.707  13.715  0.2310 -0.1288 -0.1063
12922TIP3    H160257   5.123   3.697  13.714  0.6215  2.6023  0.5183
12922TIP3    H260258   5.011   3.780  13.655 -1.3568  0.1425  0.6266
12923TIP3   OH260259   5.558   4.134   1.310 -0.1924  0.0204 -0.0256
12923TIP3    H160260   5.473   4.098   1.337  0.1250  0.0730  1.0926
12923TIP3    H260261   5.551   4.227   1.330 -0.5870  0.4247 -1.8304
12924TIP3   OH260262   6.557   1.594   0.507 -0.2870 -0.2649 -0.4633
12924TIP3    H160263   6.521   1.587   0.419  0.5890 -0.0170 -0.8519
12924TIP3    H260264   6.629   1.657   0.499  0.7639 -1.3335  0.0998
12925TIP3   OH260265   4.892   1.211   4.897  0.0136 -0.6715  0.1615
12925TIP3    H160266   4.901   1.279   4.830  0.4046 -0.1959  0.6888
12925TIP3    H260267   4.816   1.160   4.869 -0.3194  0.0116 -0.2081
12926TIP3   OH260268   0.988   5.853   2.823  0.1494 -0.0492 -0.1389
12926TIP3    H160269   1.077   5.860   2.857  0.4967  1.5403 -1.2651
12926TIP3    H260270   0.983   5.920   2.755 -1.7382 -0.4898 -0.4877
12927TIP3   OH260271   6.756   3.124   2.120  0.5992  0.0801 -0.2845
12927TIP3    H160272   6.693   3.076   2.066  0.4474  0.5548 -0.5278
12927TIP3    H260273   6.837   3.074   2.111 -0.0932 -1.4291  1.2580
12928TIP3   OH260274   1.290   1.802  14.986 -0.5118  0.4678  0.4688
12928TIP3    H160275   1.210   1.755  15.012  0.3474 -0.3689  1.7518
12928TIP3    H260276   1.315   1.763  14.903 -1.4865  0.8083  0.0045
12929TIP3   OH260277   4.024   6.410   4.718  0.2678 -0.2248 -0.1848
12929TIP3    H160278   4.023   6.503   4.742 -0.0315 -0.2567 -0.0564
12929TIP3    H260279   4.016   6.410   4.623  0.3949 -0.1162 -0.1963
12930TIP3   OH260280   2.157   1.304  11.674 -0.2348 -0.1657  0.1679
12930TIP3    H160281   2.149   1.208  11.676  0.6788 -0.2901 -0.8719
12930TIP3    H260282   2.136   1.327  11.583 -1.8608  0.7871  0.7568
12931TIP3   OH260283   6.203   4.837  11.527 -0.1694 -0.4707  0.3256
12931TIP3    H160284   6.264   4.778  11.572  0.7729  0.4475  0.3020
12931TIP3    H260285   6.235   4.924  11.547  1.3831  0.0237 -3.4209
12932TIP3   OH260286   3.230   7.031  10.721  0.3490  0.4141 -0.5678
12932TIP3    H160287   3.280   7.112  10.708  1.7689 -0.2028  0.6263
12932TIP3    H260288   3.191   7.041  10.808 -0.4276  0.2962 -0.9033
12933TIP3   OH260289   4.134   2.674  15.257 -0.3468  0.6140 -0.3352
12933TIP3    H160290   4.070   2.715  15.315 -0.8316  1.3913 -1.3927
12933TIP3    H260291   4.105   2.698  15.169  0.2224 -0.7532 -0.9197
12934TIP3   OH260292   3.616   3.463   4.314  0.0552  0.0188 -0.0054
12934TIP3    H160293   3.564   3.445   4.236  1.1024 -0.9164 -0.5319
12934TIP3    H260294   3.597   3.390   4.373 -1.0335  0.9296  0.7941
12935TIP3   OH260295   5.969   1.508   0.739  0.2082  0.2543  0.3546
12935TIP3    H160296   5.873   1.503   0.746  0.0270  3.0785  0.8822
12935TIP3    H260297   5.985   1.542   0.651  0.9198 -2.2150 -0.5675
12936TIP3   OH260298   7.133   0.098   4.263 -0.1235 -0.2444 -0.4209
12936TIP3    H160299   7.193   0.039   4.218 -0.8825 -0.6733 -0.9090
12936TIP3    H260300   7.050   0.049   4.266  0.2761 -0.9377  2.8638
12937TIP3   OH260301   0.734   2.555   0.940 -0.1023  0.3154  0.2177
12937TIP3    H160302   0.825   2.557   0.971 -0.1538 -0.5296  0.4482
12937TIP3    H260303   0.704   2.466   0.960 -1.3709  0.9533  1.2728
12938TIP3   OH260304   6.797   0.572   2.161  0.4706 -0.0152  0.3087
12938TIP3    H160305   6.781   0.666   2.157  0.5240  0.0228  0.9404
12938TIP3    H260306   6.832   0.550   2.075 -0.2405  0.4090 -0.0973
12939TIP3   OH260307   1.604   5.916  12.609 -0.0195  0.5694  0.1608
12939TIP3    H160308   1.644   5.849  12.664  1.1388  0.1265 -1.1563
12939TIP3    H260309   1.589   5.990  12.668  0.3040 -0.2234  1.2599
12940TIP3   OH260310   5.449   5.909   2.030  0.0045  0.7793 -0.4472
12940TIP3    H160311   5.454   5.827   2.079  0.1911  0.4321 -1.0416
12940TIP3    H260312   5.370   5.901   1.978  1.3264 -0.1441 -2.4565
12941TIP3   OH260313   2.375   4.310   0.688 -0.1911 -0.3411  0.1261
12941TIP3    H160314   2.302   4.366   0.660  0.2549 -0.8102 -2.1202
12941TIP3    H260315   2.453   4.362   0.669  0.1437 -0.6348  0.6728
12942TIP3   OH260316   1.394   1.480  10.864  0.0056  0.1629 -0.3513
12942TIP3    H160317   1.372   1.564  10.823  2.2280  0.8892 -0.1678
12942TIP3    H260318   1.337   1.417  10.820 -2.3707  1.8194  0.1145
12943TIP3   OH260319   5.022   0.832  12.828  0.3107 -0.8238 -0.2687
12943TIP3    H160320   5.100   0.883  12.849 -0.8087  1.0863 -0.5297
12943TIP3    H260321   4.989   0.870  12.747 -1.7863 -0.4588  0.6716
12944TIP3   OH260322   5.317   4.762  14.212  0.2436 -0.0068 -0.5869
12944TIP3    H160323   5.227   4.792  14.224  0.4844  0.6614 -0.3993
12944TIP3    H260324   5.346   4.803  14.131  0.3610 -0.2635 -0.6764
12945TIP3   OH260325   5.241   4.191   0.915 -0.3682 -0.3490 -0.4435
12945TIP3    H160326   5.234   4.275   0.868  0.1843  0.1068  0.2735
12945TIP3    H260327   5.288   4.134   0.854  1.2252  0.5342 -0.0955
12946TIP3   OH260328   2.340   4.288   3.899  0.2460  1.1188 -0.0331
12946TIP3    H160329   2.394   4.334   3.962  0.2215  0.5327  0.4248
12946TIP3    H260330   2.319   4.354   3.832 -0.7623  2.0850  1.1953
12947TIP3   OH260331   2.856   2.521   1.973 -0.2260 -0.1729 -0.3865
12947TIP3    H160332   2.784   2.457   1.979  0.2182 -0.5912  0.9784
12947TIP3    H260333   2.934   2.467   1.958  0.1035  0.0621  0.4329
12948TIP3   OH260334   7.045   3.098  12.992  0.0974 -0.5788  0.1330
12948TIP3    H160335   7.126   3.054  13.019  0.5593 -0.0152 -0.3273
12948TIP3    H260336   7.008   3.132  13.073  0.4585 -0.6016  0.3070
12949TIP3   OH260337   6.232   1.046   1.900 -0.2262 -0.0958 -0.1012
12949TIP3    H160338   6.261   0.969   1.949 -0.6872 -0.2122 -0.0066
12949TIP3    H260339   6.242   1.119   1.961  0.8559  0.0298 -0.4127
12950TIP3   OH260340   6.604   0.189   5.350  0.4743  0.1262 -0.0523
12950TIP3    H160341   6.656   0.240   5.412 -0.3854  0.3842  0.4685
12950TIP3    H260342   6.582   0.109   5.397  0.5375 -0.0510 -0.3251
12951TIP3   OH260343   0.655   0.093   4.166 -0.1805  0.3784  0.1241
12951TIP3    H160344   0.644   0.008   4.122  0.9629  0.5536 -0.5151
12951TIP3    H260345   0.620   0.078   4.254 -0.6659 -0.5444 -0.2027
12952TIP3   OH260346   5.275   7.034   2.298 -0.1650  0.9021 -0.4859
12952TIP3    H160347   5.263   7.015   2.391 -0.2874  1.5685 -0.3620
12952TIP3    H260348   5.279   6.948   2.257 -0.4402  0.6021  0.0947
12953TIP3   OH260349   6.708   2.036   4.996  0.3795 -0.2032 -0.7012
12953TIP3    H160350   6.770   2.109   4.990  1.0399 -0.7106 -0.1748
12953TIP3    H260351   6.639   2.067   5.055  0.2347  0.2811 -1.1137
12954TIP3   OH260352   2.777   1.619   3.290 -0.3338  0.0318  0.0606
12954TIP3    H160353   2.810   1.583   3.207 -0.5026 -1.8337  0.7536
12954TIP3    H260354   2.797   1.551   3.355 -0.4486  1.3437  1.5101
12955TIP3   OH260355   2.995   0.451   6.297  0.0755  0.1147  0.4054
12955TIP3    H160356   2.977   0.542   6.323  2.6710  0.7740  0.1900
12955TIP3    H260357   3.044   0.459   6.215  0.4357 -1.4722  0.4303
12956TIP3   OH260358   0.408   2.794   1.149 -0.0917 -0.5176 -0.0727
12956TIP3    H160359   0.409   2.740   1.070  0.4246 -1.5497  0.6319
12956TIP3    H260360   0.450   2.741   1.216  0.4503  0.7654  0.6396
12957TIP3   OH260361   6.449   6.579   4.710 -0.2607 -0.3503 -0.3431
12957TIP3    H160362   6.383   6.511   4.722  0.5012 -0.5845  3.8434
12957TIP3    H260363   6.412   6.657   4.753  1.2449  0.1809  0.0377
12958TIP3   OH260364   0.032   0.644  14.226  0.2530 -0.1548 -0.1189
12958TIP3    H160365   0.011   0.678  14.138 -0.7960 -0.6687 -0.0895
12958TIP3    H260366  -0.038   0.581  14.244  0.5867 -0.2221  1.0007
12959TIP3   OH260367   5.605   5.253   0.828 -0.2475 -0.1836 -0.2034
12959TIP3    H160368   5.545   5.230   0.900 -0.8125  0.2973 -0.5125
12959TIP3    H260369   5.686   5.207   0.849  0.9426  2.8385  2.7569
12960TIP3   OH260370   1.258   6.474  12.197 -0.6719 -0.2569  0.3098
12960TIP3    H160371   1.263   6.552  12.141  0.6779  0.5733  1.4994
12960TIP3    H260372   1.296   6.404  12.143  1.2973  0.6831  0.3625
12961TIP3   OH260373   4.810   5.194   3.633  0.0716 -0.1225  0.2777
12961TIP3    H160374   4.895   5.174   3.673  1.1949  0.5873 -1.5707
12961TIP3    H260375   4.814   5.289   3.616 -0.1404 -0.4410 -1.7959
12962TIP3   OH260376   3.471   0.935  14.336  0.3695  0.0494 -0.1997
12962TIP3    H160377   3.533   0.996  14.376  1.0497 -0.1814 -0.8573
12962TIP3    H260378   3.515   0.907  14.255 -0.3162 -0.6306 -0.3458
12963TIP3   OH260379   1.036   0.213  14.234 -0.2119  0.4229 -0.1325
12963TIP3    H160380   0.995   0.297  14.216 -1.2384  0.4144  1.9038
12963TIP3    H260381   1.129   0.226  14.214 -0.8134  1.0238 -2.9716
12964TIP3   OH260382   2.280   6.360   3.440  0.2543 -0.8400 -0.3673
12964TIP3    H160383   2.300   6.294   3.374  0.9736 -1.1168  0.1057
12964TIP3    H260384   2.355   6.420   3.438 -0.2337 -0.2330 -0.5574
12965TIP3   OH260385   3.443   2.883  12.853 -0.2483  0.3222  0.3645
12965TIP3    H160386   3.510   2.856  12.790  0.4370 -0.0215  1.2275
12965TIP3    H260387   3.483   2.954  12.902 -0.5300  0.1406  0.8593
12966TIP3   OH260388   1.351   0.021  13.326 -0.3738 -0.1719  0.6420
12966TIP3    H160389   1.355  -0.074  13.318  0.8652 -0.3179  2.4463
12966TIP3    H260390   1.351   0.052  13.235 -0.4855 -1.8591  0.0208
12967TIP3   OH260391   5.852   6.026   2.623  0.2739  0.0942 -0.2029
12967TIP3    H160392   5.875   5.978   2.544 -2.0668 -0.8155 -0.4115
12967TIP3    H260393   5.781   5.975   2.662  0.3837  1.3093  1.7222
12968TIP3   OH260394   5.800   4.095   4.574 -0.3029  0.4115 -0.6752
12968TIP3    H160395   5.874   4.034   4.572  0.3182  1.1145  0.4331
12968TIP3    H260396   5.724   4.040   4.553 -0.2588 -1.5113  3.3679
12969TIP3   OH260397   2.161   2.493   0.931  0.4649 -0.5141 -0.4275
12969TIP3    H160398   2.187   2.406   0.959  0.3655 -0.3539  0.1912
12969TIP3    H260399   2.066   2.488   0.921  0.6140 -0.8579 -1.8063
12970TIP3   OH260400   1.591   5.441   0.152  0.2883  0.2788 -0.3928
12970TIP3    H160401   1.553   5.472   0.234  1.3414 -0.2831  0.3204
12970TIP3    H260402   1.656   5.375   0.178  0.1584 -0.4111 -1.7102
12971TIP3   OH260403   4.980   2.637   0.582 -0.1364  0.0594 -0.1160
12971TIP3    H160404   5.064   2.682   0.585 -0.3751  0.4784  0.7312
12971TIP3    H260405   4.945   2.645   0.671 -0.1983 -1.7871  0.0711
12972TIP3   OH260406   6.137   1.266   2.479 -0.4787  0.5879  0.2005
12972TIP3    H160407   6.180   1.279   2.564  0.5874  0.2742 -0.2767
12972TIP3    H260408   6.118   1.354   2.448 -1.4849  0.6915  1.0535
12973TIP3   OH260409   6.617   6.726   2.043  0.2116  0.2695 -0.3836
12973TIP3    H160410   6.556   6.781   2.092  1.3763  1.3355 -0.0882
12973TIP3    H260411   6.703   6.750   2.076  0.7748 -1.7471 -0.2529
12974TIP3   OH260412   4.267   5.930   2.112 -0.1961 -0.2037 -0.2008
12974TIP3    H160413   4.247   5.837   2.108 -1.5373  0.0728 -0.2277
12974TIP3    H260414   4.218   5.969   2.040 -0.1208  0.6057  0.1714
12975TIP3   OH260415   3.233   2.071  12.083 -0.5302 -0.0668 -0.0334
12975TIP3    H160416   3.202   2.006  12.020 -0.2195  1.2011 -1.5307
12975TIP3    H260417   3.154   2.120  12.107 -0.3505  0.6626 -0.8936
12976TIP3   OH260418   2.829   1.847   1.110  0.0918 -0.2569  0.1451
12976TIP3    H160419   2.841   1.818   1.201 -0.5543 -0.7576  0.0749
12976TIP3    H260420   2.885   1.789   1.059  1.8331  1.1393  0.3677
12977TIP3   OH260421   0.516   3.813   3.468  0.4768 -0.1167  0.2659
12977TIP3    H160422   0.443   3.875   3.464  0.6867  0.0781 -0.8554
12977TIP3    H260423   0.588   3.858   3.423  1.2966 -0.3167  1.3221
12978TIP3   OH260424   4.893   0.813   3.810 -0.1461 -0.0475 -0.6402
12978TIP3    H160425   4.942   0.810   3.728  0.0210  1.6576 -0.6330
12978TIP3    H260426   4.950   0.770   3.874  1.2192  1.5407 -0.7178
12979TIP3   OH260427   4.621   1.313   2.715  0.0261  0.6893 -0.0342
12979TIP3    H160428   4.607   1.337   2.807  0.4570  0.6301  0.0461
12979TIP3    H260429   4.716   1.314   2.704 -0.0456  2.5322 -0.9572
12980TIP3   OH260430   3.262   5.494   2.101  0.2561  0.4698  0.9743
12980TIP3    H160431   3.340   5.549   2.103 -0.7927  2.1620 -0.9312
12980TIP3    H260432   3.207   5.528   2.172  0.2108  0.9502  0.7126
12981TIP3   OH260433   2.463   0.599  14.826  0.0624 -0.4708  0.4654
12981TIP3    H160434   2.394   0.625  14.766 -0.2924 -1.0796  0.6009
12981TIP3    H260435   2.461   0.503  14.825 -0.6609 -0.5118  2.2365
12982TIP3   OH260436   3.475   6.475   2.656  0.2906 -0.0020 -0.3596
12982TIP3    H160437   3.507   6.501   2.570 -0.7232 -0.2116 -0.8127
12982TIP3    H260438   3.425   6.395   2.641  1.7318 -1.1507  0.7326
12983TIP3   OH260439   6.201   5.176   1.091  0.1281 -0.2654  0.0818
12983TIP3    H160440   6.126   5.233   1.073  0.1800  0.0879  0.9220
12983TIP3    H260441   6.165   5.088   1.092 -0.1532 -0.1561 -0.1715
12984TIP3   OH260442   2.473   0.759  11.851 -0.1602 -0.0433  0.1895
12984TIP3    H160443   2.515   0.746  11.766  0.1598 -0.0946  0.3561
12984TIP3    H260444   2.541   0.740  11.915 -0.7785 -1.4149  0.4836
12985TIP3   OH260445   4.616   4.081   1.676  0.3504  0.4653  0.4499
12985TIP3    H160446   4.621   3.987   1.692 -2.4204  0.2334  0.5378
12985TIP3    H260447   4.632   4.120   1.762  2.4884  0.1767  0.2247
12986TIP3   OH260448   4.484   3.368   1.914 -0.4832 -0.6153 -0.4377
12986TIP3    H160449   4.525   3.288   1.944  0.7363 -0.1096 -0.6819
12986TIP3    H260450   4.530   3.438   1.961 -0.4447  0.0175 -1.3875
12987TIP3   OH260451   2.430   3.309   4.799  0.3380 -0.0411  0.5514
12987TIP3    H160452   2.402   3.219   4.780  0.8793 -0.0027 -0.5176
12987TIP3    H260453   2.365   3.341   4.861  0.3386 -1.2878  1.2379
12988TIP3   OH260454   6.756   0.105   0.652  0.8938  0.1644 -0.1335
12988TIP3    H160455   6.802   0.030   0.690 -0.1907 -1.2244 -1.4367
12988TIP3    H260456   6.674   0.111   0.700  0.5343 -0.1382 -0.7015
12989TIP3   OH260457   2.612   6.948   1.256  0.1684  0.1322 -0.0492
12989TIP3    H160458   2.582   6.860   1.279 -1.0544  1.1704  2.6804
12989TIP3    H260459   2.543   6.983   1.199 -0.2482 -0.0103  0.3704
12990TIP3   OH260460   0.289   1.665   1.501  0.3473 -0.1833  0.1015
12990TIP3    H160461   0.279   1.689   1.593  2.0753  1.7800 -0.1631
12990TIP3    H260462   0.211   1.700   1.458  0.4132  0.4962  0.5361
12991TIP3   OH260463   4.162   2.118  14.078  0.1914 -0.6020  0.2846
12991TIP3    H160464   4.081   2.155  14.112 -0.5162 -2.3806  0.6414
12991TIP3    H260465   4.190   2.056  14.145  2.5985  0.9028  0.7908
12992TIP3   OH260466   2.025   2.431   5.119  0.0767  0.6194  0.4976
12992TIP3    H160467   1.943   2.414   5.166  0.8127 -1.0843  1.2415
12992TIP3    H260468   2.001   2.494   5.051 -1.8368  0.1906  0.7258
12993TIP3   OH260469   5.620   7.221   4.712 -0.0990 -0.3264  0.2887
12993TIP3    H160470   5.660   7.247   4.629 -0.3925 -0.8783 -0.0383
12993TIP3    H260471   5.693   7.215   4.774  0.3653 -1.4388 -0.3314
12994TIP3   OH260472   4.473   3.459   2.280  0.0422  0.0060  0.1190
12994TIP3    H160473   4.421   3.391   2.240  0.6201 -0.4662  0.1524
12994TIP3    H260474   4.411   3.529   2.300 -0.7542 -0.9526  1.0942
12995TIP3   OH260475   2.793   7.080   1.432 -0.1587  0.0117 -0.0515
12995TIP3    H160476   2.731   7.058   1.363 -0.1160  0.0477 -0.1014
12995TIP3    H260477   2.877   7.088   1.387 -0.6691  3.7211 -0.6607
12996TIP3   OH260478   5.274   3.270   2.260  0.1168  0.1092 -0.5008
12996TIP3    H160479   5.252   3.361   2.282  2.0656  0.5251 -0.1678
12996TIP3    H260480   5.211   3.247   2.191  0.3430  2.1204 -1.4515
12997TIP3   OH260481   1.805   0.136   1.088 -0.6329 -0.0355 -0.5831
12997TIP3    H160482   1.892   0.165   1.116 -1.3755  0.5800  1.2258
12997TIP3    H260483   1.780   0.069   1.152 -1.1176 -0.9024 -1.6452
12998TIP3   OH260484   2.443   6.610   2.679  0.1112 -0.2091  0.5642
12998TIP3    H160485   2.386   6.657   2.618 -0.8943 -0.9845  0.8870
12998TIP3    H260486   2.451   6.668   2.755 -0.5035 -0.2261  0.6436
12999TIP3   OH260487   4.603   5.095  14.252 -0.0527 -0.0125 -0.0356
12999TIP3    H160488   4.539   5.127  14.315 -0.1897 -1.3022  0.5168
12999TIP3    H260489   4.687   5.124  14.288 -0.1321 -0.7088  0.7428
13000TIP3   OH260490   5.174   5.032   2.499 -0.4349  0.4860  0.0112
13000TIP3    H160491   5.161   5.012   2.592 -0.6255 -0.7438 -0.2659
13000TIP3    H260492   5.206   4.950   2.461 -0.3827  0.9706 -1.0194
13001TIP3   OH260493   4.466   4.241   0.341 -0.0838 -0.0283 -0.1471
13001TIP3    H160494   4.493   4.269   0.254 -0.9357 -1.2784 -0.8418
13001TIP3    H260495   4.493   4.149   0.346 -1.3504 -0.3994  0.3220
13002TIP3   OH260496   2.025   5.446   0.642  0.0555  0.2887  0.5359
13002TIP3    H160497   2.071   5.525   0.668  4.0952 -1.2001 -1.2246
13002TIP3    H260498   2.004   5.460   0.550  0.7247 -0.5936  0.2334
13003TIP3   OH260499   2.672   3.249   1.803  0.4573 -0.4973 -0.1889
13003TIP3    H160500   2.619   3.214   1.875 -0.3026  3.4190  1.4259
13003TIP3    H260501   2.609   3.297   1.749  1.7500  1.1664 -0.2950
13004TIP3   OH260502   1.809   6.051   4.736 -0.7003 -0.1255 -0.1491
13004TIP3    H160503   1.881   6.113   4.739  0.6664 -1.6934  2.2068
13004TIP3    H260504   1.825   6.000   4.657 -1.2736  1.7227 -1.5466
13005TIP3   OH260505   3.315   6.790  11.818  0.1333 -0.3131  0.0888
13005TIP3    H160506   3.285   6.757  11.903 -1.7037 -1.1930 -0.8436
13005TIP3    H260507   3.388   6.732  11.795  0.3195 -0.3873  0.8236
13006TIP3   OH260508   4.028   2.675  13.429  0.4304 -0.2665  0.0280
13006TIP3    H160509   3.966   2.635  13.368 -2.1558 -1.4299  3.1546
13006TIP3    H260510   4.089   2.605  13.451  0.4947 -0.2558 -0.1138
13007TIP3   OH260511   0.903   5.099  12.703  0.1086  0.2531 -0.0023
13007TIP3    H160512   0.899   5.184  12.747 -1.2140  0.0102  0.3933
13007TIP3    H260513   0.830   5.050  12.740 -0.9488 -0.0456 -2.3171
13008TIP3   OH260514   2.552   2.269  12.963  0.4003 -0.2014  0.1935
13008TIP3    H160515   2.569   2.339  12.900 -0.8971  0.3186  0.3829
13008TIP3    H260516   2.637   2.229  12.980  0.7326 -0.6581 -2.2291
13009TIP3   OH260517   7.096   2.743  10.290  0.8080 -0.3397 -0.1645
13009TIP3    H160518   7.170   2.803  10.303  0.1018  0.4258  0.4270
13009TIP3    H260519   7.061   2.766  10.204  1.7971 -1.3232 -0.8555
13010TIP3   OH260520   1.975   1.545  12.108  0.8424  0.2024 -0.4173
13010TIP3    H160521   2.014   1.595  12.180  1.2832  0.8311 -1.0751
13010TIP3    H260522   1.889   1.520  12.141  0.3778  1.8935 -0.2621
13011TIP3   OH260523   2.386   4.350   3.594  0.2075 -0.0606 -0.4249
13011TIP3    H160524   2.358   4.425   3.646  1.1231  0.5769 -0.8127
13011TIP3    H260525   2.434   4.388   3.521  1.4535 -1.0465 -0.1634
13012TIP3   OH260526   3.849   6.288  13.570  0.4015  0.0611 -0.3200
13012TIP3    H160527   3.790   6.215  13.589  0.1759  0.2980 -0.1258
13012TIP3    H260528   3.928   6.245  13.536 -0.4025 -0.1901 -1.9886
13013TIP3   OH260529   0.805   1.195   4.731 -0.0007 -0.0342  0.5389
13013TIP3    H160530   0.795   1.280   4.774 -1.2877 -0.0354  0.2635
13013TIP3    H260531   0.720   1.178   4.691  0.3238 -1.3356  0.3684
13014TIP3   OH260532   4.428   2.414   0.855  0.1549  0.6756 -0.1806
13014TIP3    H160533   4.340   2.389   0.882 -0.8113  0.5206 -3.0699
13014TIP3    H260534   4.463   2.465   0.928 -2.0129  0.0662  1.3547
13015TIP3   OH260535   6.999   5.394   5.099  0.3298  0.2208 -0.4521
13015TIP3    H160536   7.077   5.420   5.147 -0.0643 -0.0956  0.3869
13015TIP3    H260537   6.944   5.352   5.165 -0.2611 -0.1519 -1.1730
13016TIP3   OH260538   5.880   2.860   4.859  0.3787 -0.5980 -0.2026
13016TIP3    H160539   5.828   2.844   4.938 -0.9724 -0.9877 -1.1421
13016TIP3    H260540   5.878   2.955   4.848 -0.6748 -0.6580 -0.5795
13017TIP3   OH260541   2.335   2.436   3.416  0.0598  0.1539 -0.1742
13017TIP3    H160542   2.263   2.417   3.476 -0.2090  1.2361 -0.1170
13017TIP3    H260543   2.411   2.390   3.452 -0.0697  0.8775  1.0806
13018TIP3   OH260544   0.527   5.443   0.816  0.3929 -0.8315  0.1939
13018TIP3    H160545   0.596   5.401   0.765  0.9461 -0.6842  0.8067
13018TIP3    H260546   0.446   5.418   0.772  0.9670  2.1052 -2.8473
13019TIP3   OH260547   0.570   4.813   3.758 -0.9705  0.3622  0.2522
13019TIP3    H160548   0.526   4.888   3.718 -0.6144  0.0849 -0.6749
13019TIP3    H260549   0.499   4.755   3.785 -1.2750  1.2291  1.4143
13020TIP3   OH260550   1.192   3.165  14.986  0.4937  0.3244 -0.4039
13020TIP3    H160551   1.152   3.130  15.066 -0.3110  1.4074 -0.3092
13020TIP3    H260552   1.284   3.181  15.010  0.7534 -1.1676 -0.3000
13021TIP3   OH260553   1.609   6.898   2.399 -0.1956  0.0171  0.1576
13021TIP3    H160554   1.642   6.897   2.489  1.2508  3.4466 -0.1588
13021TIP3    H260555   1.570   6.985   2.389 -0.4364 -0.3050 -2.4634
13022TIP3   OH260556   3.866   6.914   1.306  0.2669  0.4443 -0.0443
13022TIP3    H160557   3.866   6.828   1.349 -1.0406  0.7950  0.7062
13022TIP3    H260558   3.793   6.909   1.244 -0.5058  1.3558  0.7572
13023TIP3   OH260559   0.202   4.220   3.755 -0.5968 -0.1778 -0.0331
13023TIP3    H160560   0.195   4.299   3.809 -0.2018  0.4381 -0.8427
13023TIP3    H260561   0.209   4.148   3.817  1.2516  0.6352  0.7750
13024TIP3   OH260562   1.736   6.669   4.562  0.2134  0.1384 -0.5038
13024TIP3    H160563   1.696   6.756   4.565 -2.8080 -1.1407  0.2801
13024TIP3    H260564   1.775   6.657   4.648 -3.6351 -0.9302  1.3393
13025TIP3   OH260565   1.878   3.188  11.564  0.1233 -0.1351  0.1790
13025TIP3    H160566   1.847   3.127  11.631 -0.0866 -1.3959 -1.0228
13025TIP3    H260567   1.950   3.234  11.606 -0.0124 -0.8778  1.2844
13026TIP3   OH260568   1.109   3.305  14.237 -0.4865  0.4165  0.1967
13026TIP3    H160569   1.189   3.257  14.260 -0.1215  0.5234 -0.8109
13026TIP3    H260570   1.044   3.274  14.300 -0.6681 -2.5615 -1.2895
13027TIP3   OH260571   6.592   2.773  13.763 -0.0880 -0.4228 -0.0470
13027TIP3    H160572   6.626   2.799  13.677  0.4562  0.0614  0.3107
13027TIP3    H260573   6.499   2.756  13.748 -0.5734  2.0315 -0.2518
13028TIP3   OH260574   2.836   6.726  13.334 -0.0975 -0.0806  0.7343
13028TIP3    H160575   2.889   6.741  13.412  0.9310  0.9573 -0.1329
13028TIP3    H260576   2.745   6.725  13.366  0.3119  0.3087  1.9343
13029TIP3   OH260577   1.369   3.086   3.636 -0.0045  0.4441  0.1994
13029TIP3    H160578   1.274   3.097   3.642  0.0582  1.4414 -0.3617
13029TIP3    H260579   1.403   3.143   3.705  0.1989  0.1510  0.3444
13030TIP3   OH260580   3.331   0.720  12.498  0.4467 -0.2981  0.3489
13030TIP3    H160581   3.397   0.650  12.502  1.3976  0.4671 -1.1623
13030TIP3    H260582   3.278   0.699  12.422 -0.5147 -0.3977  1.0180
13031TIP3   OH260583   3.879   0.071   1.732 -0.0288 -0.2133  0.0427
13031TIP3    H160584   3.842   0.080   1.644 -0.8787  0.3321  0.4405
13031TIP3    H260585   3.949   0.136   1.735 -0.4677  0.2736 -0.0071
13032TIP3   OH260586   3.356   6.661  14.777 -0.3009  0.2100 -0.0853
13032TIP3    H160587   3.375   6.755  14.781  2.9412 -0.3505  0.6773
13032TIP3    H260588   3.441   6.619  14.789 -1.2937 -2.8574 -2.4027
13033TIP3   OH260589   1.101   1.975   1.562  0.0619 -0.0607  0.4367
13033TIP3    H160590   1.146   2.059   1.557 -1.6345  0.9958  1.8237
13033TIP3    H260591   1.073   1.969   1.653 -1.4804 -1.2480 -0.0833
13034TIP3   OH260592   0.095   2.223  14.467  0.0724  0.6079  0.2735
13034TIP3    H160593   0.059   2.226  14.556 -0.2038  0.5004  0.1664
13034TIP3    H260594   0.031   2.270  14.414 -1.0521 -1.4651 -0.3032
13035TIP3   OH260595   6.670   6.051   3.321 -0.2464 -0.1350  0.1782
13035TIP3    H160596   6.705   6.139   3.307  1.8090 -1.0520 -0.8756
13035TIP3    H260597   6.739   6.006   3.369 -0.5421 -1.6319 -0.7518
13036TIP3   OH260598   1.527   4.432  11.364 -0.0865 -0.0259 -0.1449
13036TIP3    H160599   1.554   4.508  11.416 -0.2677 -0.6841  0.9617
13036TIP3    H260600   1.605   4.405  11.317  0.1864  0.3839  0.0718
13037TIP3   OH260601   6.618   2.440  14.268 -0.1586  0.2092 -0.4538
13037TIP3    H160602   6.552   2.501  14.298 -0.5458 -0.0407 -0.7861
13037TIP3    H260603   6.698   2.466  14.314 -0.8564 -0.5520  1.2681
13038TIP3   OH260604   4.125   3.599  12.128 -0.2878 -0.0401  0.2316
13038TIP3    H160605   4.203   3.561  12.086  0.1762  1.4745 -0.3448
13038TIP3    H260606   4.160   3.645  12.205 -0.9343 -1.3574  1.3543
13039TIP3   OH260607   6.753   6.725   3.293  0.4493 -0.0825  0.2812
13039TIP3    H160608   6.822   6.704   3.357  2.3304 -1.6989 -2.1014
13039TIP3    H260609   6.738   6.819   3.305  2.6263  0.2095  1.3341
13040TIP3   OH260610   1.647   3.494   3.515  0.0420 -0.0478  0.2189
13040TIP3    H160611   1.732   3.519   3.552 -0.8747 -0.1712  2.5281
13040TIP3    H260612   1.637   3.402   3.538  0.2881 -0.7275 -2.1411
13041TIP3   OH260613   3.311   6.758   0.715  0.0884  0.0196 -0.2765
13041TIP3    H160614   3.350   6.835   0.674 -1.3667  1.8486  1.5828
13041TIP3    H260615   3.217   6.772   0.709 -0.1940 -0.8158  1.4689
13042TIP3   OH260616   0.597   5.173  13.838  0.4689 -0.1182 -0.0176
13042TIP3    H160617   0.587   5.078  13.835 -1.6792  0.0662 -0.2325
13042TIP3    H260618   0.669   5.192  13.778  0.0522 -1.5101 -0.9899
13043TIP3   OH260619   6.433   4.928  10.721  0.0137 -0.0454  0.2703
13043TIP3    H160620   6.417   4.987  10.795 -2.2190 -0.0438 -0.1477
13043TIP3    H260621   6.487   4.978  10.661 -2.8246  2.1796 -0.6466
13044TIP3   OH260622   5.580   1.305  15.409 -0.1314  0.4475 -0.2962
13044TIP3    H160623   5.526   1.339  15.480  0.2128  0.6829 -0.1396
13044TIP3    H260624   5.643   1.375  15.392 -0.6748  0.7081 -1.3469
13045TIP3   OH260625   1.648   3.506   3.934 -0.1429 -0.1070  0.0992
13045TIP3    H160626   1.607   3.534   3.852  1.4450  1.4452 -0.2226
13045TIP3    H260627   1.676   3.587   3.976 -0.5990 -0.8984  2.0319
13046TIP3   OH260628   5.667   4.994   1.805  0.1619  0.2202  0.7365
13046TIP3    H160629   5.733   4.938   1.845 -0.5106 -0.2756  1.1748
13046TIP3    H260630   5.624   5.037   1.880 -1.9483 -1.6471  0.6878
13047TIP3   OH260631   2.159   6.855   5.575  0.0914  0.4028 -0.4583
13047TIP3    H160632   2.119   6.911   5.508 -1.2969  1.9273  1.5232
13047TIP3    H260633   2.248   6.839   5.543 -0.9092 -0.0824 -3.2802
13048TIP3   OH260634   3.959   5.361   2.060  0.0738  0.4542 -0.6154
13048TIP3    H160635   4.020   5.288   2.046  3.0286  2.6473 -0.1289
13048TIP3    H260636   3.995   5.409   2.134 -3.2850  1.0297  0.8502
13049TIP3   OH260637   4.096   6.940   0.622  0.3403 -0.6516  0.2386
13049TIP3    H160638   4.174   6.921   0.569 -0.3579 -1.9897 -0.3630
13049TIP3    H260639   4.095   6.872   0.689 -0.8287 -1.2567 -0.3659
13050TIP3   OH260640   4.486   2.601   4.367  0.7949  0.6391  0.3343
13050TIP3    H160641   4.460   2.678   4.317  2.4293 -0.0549 -1.7249
13050TIP3    H260642   4.414   2.539   4.356  0.7469  0.8275 -0.4586
13051TIP3   OH260643   3.677   0.701   3.040 -0.3956 -0.1894  0.0936
13051TIP3    H160644   3.588   0.714   3.074 -0.2699  2.6095 -0.3934
13051TIP3    H260645   3.666   0.698   2.945 -0.1202 -1.9079  0.0796
13052TIP3   OH260646   3.045   1.758   4.285 -0.2528 -0.7242  0.1925
13052TIP3    H160647   3.027   1.848   4.315  0.9909 -0.9311  1.6895
13052TIP3    H260648   3.049   1.707   4.366  0.6008 -1.8429 -0.5394
13053TIP3   OH260649   5.207   1.816   2.915 -0.1844  0.5298 -0.2123
13053TIP3    H160650   5.139   1.792   2.978 -0.3154  0.2954 -0.4423
13053TIP3    H260651   5.214   1.911   2.922 -0.9639  0.6253 -0.6196
13054TIP3   OH260652   2.522   3.276   2.712 -0.2585  0.0684  0.0903
13054TIP3    H160653   2.442   3.296   2.759 -0.9843 -1.3130 -0.4864
13054TIP3    H260654   2.584   3.249   2.779 -1.3918 -2.2370  0.2944
13055TIP3   OH260655   6.343   0.676   0.704 -0.3812 -0.3349  0.8832
13055TIP3    H160656   6.381   0.599   0.662  2.2056  0.7516  1.0578
13055TIP3    H260657   6.374   0.673   0.794 -0.7036  0.6062  1.0407
13056TIP3   OH260658   6.055   0.364  12.324  0.0709 -0.0200 -0.3751
13056TIP3    H160659   6.123   0.432  12.327 -0.9797  1.1177 -1.3220
13056TIP3    H260660   6.010   0.379  12.241 -0.8797 -1.2082 -0.1015
13057TIP3   OH260661   5.554   2.227   3.573  0.1168 -0.1707 -0.3946
13057TIP3    H160662   5.530   2.316   3.547  0.2507 -0.1306 -0.3794
13057TIP3    H260663   5.504   2.171   3.514 -0.0733 -0.0875 -0.3123
13058TIP3   OH260664   3.659   4.272   4.546 -0.1792  0.2368 -0.5162
13058TIP3    H160665   3.573   4.232   4.536  0.0160 -0.1752 -0.5474
13058TIP3    H260666   3.654   4.353   4.495 -0.1454 -0.3952 -1.5449
13059TIP3   OH260667   3.339   0.966   1.996  0.1592  0.3571 -0.3780
13059TIP3    H160668   3.318   1.034   1.933 -0.3438  0.0940 -0.5001
13059TIP3    H260669   3.427   0.938   1.973  0.4239  1.0580 -0.2404
13060TIP3   OH260670   0.731   4.644   4.522 -0.0062  0.4041 -0.4523
13060TIP3    H160671   0.772   4.607   4.601 -0.0600 -1.4421 -1.2303
13060TIP3    H260672   0.805   4.676   4.470 -0.0572  3.0024  0.9248
13061TIP3   OH260673   3.961   2.061   0.369  0.4787 -1.1237 -0.4028
13061TIP3    H160674   3.889   2.053   0.431  0.7481 -0.1580  0.0584
13061TIP3    H260675   3.919   2.058   0.283 -0.2058  0.0226 -0.1393
13062TIP3   OH260676   0.868   2.580  10.772  0.0492 -0.3482  0.2738
13062TIP3    H160677   0.792   2.619  10.815  0.4988  0.3583  0.4383
13062TIP3    H260678   0.942   2.633  10.801  0.4121 -0.1087 -1.0376
13063TIP3   OH260679   3.731   1.578   3.142  0.1115  0.4302 -0.2170
13063TIP3    H160680   3.720   1.485   3.158  1.3795  0.5427  1.7398
13063TIP3    H260681   3.802   1.583   3.078 -1.4962  0.0479 -2.0981
13064TIP3   OH260682   6.615   1.294  13.476 -0.0138  0.4064 -0.4532
13064TIP3    H160683   6.703   1.277  13.445  0.0219 -1.3814  0.5148
13064TIP3    H260684   6.598   1.385  13.452  2.1862  0.8776 -0.4111
13065TIP3   OH260685   3.594   6.426   1.217  0.0380 -0.0456 -0.1379
13065TIP3    H160686   3.662   6.394   1.276  1.3578 -0.8352 -1.9805
13065TIP3    H260687   3.522   6.453   1.275  2.5313  2.5889  2.0336
13066TIP3   OH260688   2.688   2.339   3.301  0.2788 -0.1698  0.3723
13066TIP3    H160689   2.648   2.402   3.241 -0.7396 -0.6834  0.4866
13066TIP3    H260690   2.782   2.348   3.286  0.0930  0.5366 -0.4581
13067TIP3   OH260691   2.168   2.538   2.921  0.1813  0.0914  0.5327
13067TIP3    H160692   2.169   2.477   2.847  2.6079  0.5295  0.1139
13067TIP3    H260693   2.142   2.621   2.884 -0.4620 -0.0943  0.5611
13068TIP3   OH260694   3.681   3.597   0.487  0.3560 -0.3396 -0.3041
13068TIP3    H160695   3.765   3.561   0.517  0.0360 -1.1193 -0.3249
13068TIP3    H260696   3.705   3.658   0.417  0.9977  0.3872  0.5302
13069TIP3   OH260697   5.906   2.499   2.911  0.0550  0.3041 -0.2142
13069TIP3    H160698   5.887   2.413   2.948  0.4704  0.4607  0.3649
13069TIP3    H260699   5.931   2.480   2.820  2.1944 -0.4222  0.4650
13070TIP3   OH260700   6.515   6.953  15.117 -0.9367  0.3906  0.3480
13070TIP3    H160701   6.487   6.899  15.191  0.6987 -1.4841 -0.3007
13070TIP3    H260702   6.554   7.031  15.157 -4.6403  1.9392  1.2852
13071TIP3   OH260703   0.817   2.626  10.262 -0.0573 -0.0410  0.1577
13071TIP3    H160704   0.851   2.542  10.231  1.2057  0.9002 -1.1666
13071TIP3    H260705   0.793   2.611  10.353  1.4271 -1.4976  0.3459
13072TIP3   OH260706   3.272   1.375   1.187 -0.1394 -0.1503 -0.2620
13072TIP3    H160707   3.247   1.372   1.094  0.7212 -0.4445 -0.4930
13072TIP3    H260708   3.320   1.294   1.201  0.9988  0.5620  0.0654
13073TIP3   OH260709   0.392   3.783  14.336  0.1497  0.4431  0.3795
13073TIP3    H160710   0.442   3.708  14.304 -0.8333 -0.8675  1.7628
13073TIP3    H260711   0.456   3.838  14.381  0.6329 -0.3739  0.7020
13074TIP3   OH260712   1.044   1.447   2.037 -0.1470 -0.4246 -0.4456
13074TIP3    H160713   1.039   1.433   2.131  1.7582  0.7067 -0.1309
13074TIP3    H260714   1.047   1.358   2.000  1.3922 -0.8961  0.7261
13075TIP3   OH260715   5.065   6.655   0.313  0.4226 -0.1534 -0.0618
13075TIP3    H160716   5.157   6.668   0.291  0.8323  0.4979  1.8464
13075TIP3    H260717   5.064   6.583   0.376 -0.3225  0.0755  0.2089
13076TIP3   OH260718   1.956   6.214   4.569 -0.3740 -0.2522 -0.9825
13076TIP3    H160719   1.983   6.272   4.497 -2.0326 -0.2312 -1.6143
13076TIP3    H260720   1.935   6.131   4.526 -1.5274 -0.1914 -0.5448
13077TIP3   OH260721   5.160   5.245  13.549 -0.3604  0.1905 -0.0731
13077TIP3    H160722   5.119   5.170  13.590 -2.0369  0.8764 -0.4070
13077TIP3    H260723   5.141   5.318  13.607  0.1485  0.5850 -0.3884
13078TIP3   OH260724   1.007   6.040   2.615  0.2704 -0.0786  0.0566
13078TIP3    H160725   0.982   6.132   2.614  0.9738  0.1159 -0.2129
13078TIP3    H260726   1.035   6.021   2.525 -2.3016 -1.2674 -0.6198
13079TIP3   OH260727   3.979   2.954  13.225 -0.3748  0.4577  0.1808
13079TIP3    H160728   3.992   2.863  13.195 -0.4960  1.1476 -2.1532
13079TIP3    H260729   4.064   2.979  13.262  0.1936 -0.0549 -0.7478
13080TIP3   OH260730   6.546   3.437  11.626  0.0067  0.1544  0.2869
13080TIP3    H160731   6.624   3.405  11.580 -0.1951 -1.2859  0.8989
13080TIP3    H260732   6.502   3.357  11.656 -0.9323  1.0062  1.2190
13081TIP3   OH260733   4.308   3.876   3.783 -0.3704  0.0260  0.6507
13081TIP3    H160734   4.374   3.942   3.801  0.9868 -1.0160 -0.3296
13081TIP3    H260735   4.340   3.797   3.828 -1.0137 -0.4622  0.2724
13082TIP3   OH260736   0.753   1.371  11.888  0.0453 -0.2957 -0.4510
13082TIP3    H160737   0.726   1.298  11.833  1.9273 -0.7656 -0.8495
13082TIP3    H260738   0.690   1.441  11.868 -0.7883 -1.2602 -1.3234
13083TIP3   OH260739   3.707   6.062   1.169  0.2430  0.1772 -0.9327
13083TIP3    H160740   3.763   6.061   1.246  0.2722 -0.5614 -0.9526
13083TIP3    H260741   3.619   6.044   1.202  0.1134  0.7052 -0.9762
13084TIP3   OH260742   1.504   2.292   0.384 -0.1051 -0.8089  0.4789
13084TIP3    H160743   1.443   2.240   0.436  0.6615 -1.8402  0.3655
13084TIP3    H260744   1.482   2.383   0.406 -1.2448 -1.1800  0.9248
13085TIP3   OH260745   0.127   4.466   3.884  0.1897 -0.6290 -0.1849
13085TIP3    H160746   0.092   4.463   3.973  0.3867  2.4528  0.1024
13085TIP3    H260747   0.056   4.503   3.831  0.9659  0.0560 -0.7716
13086TIP3   OH260748   6.175   1.014   0.627  0.4232  0.7950  0.6735
13086TIP3    H160749   6.127   1.057   0.698 -1.4216  0.1917 -0.1485
13086TIP3    H260750   6.215   1.086   0.579 -1.4859  1.5457  0.1251
13087TIP3   OH260751   1.253   6.603   1.183  0.1495 -0.2275 -0.1789
13087TIP3    H160752   1.342   6.632   1.161  0.9002 -2.1883  0.1177
13087TIP3    H260753   1.197   6.655   1.125  1.3473  1.9662  0.5060
13088TIP3   OH260754   4.136   6.708  12.811  0.0341 -0.2987 -0.2443
13088TIP3    H160755   4.135   6.700  12.907 -1.0745  0.2317 -0.2045
13088TIP3    H260756   4.046   6.693  12.784  0.1265  0.6365 -1.1237
13089TIP3   OH260757   4.105   6.449   1.547 -0.0840  0.8663  0.2205
13089TIP3    H160758   4.096   6.358   1.576 -0.5641  0.5702 -0.8159
13089TIP3    H260759   4.191   6.476   1.579  2.3619 -1.5103 -3.5283
13090TIP3   OH260760   5.192   3.449   4.456 -0.0101  0.0219  0.1646
13090TIP3    H160761   5.119   3.420   4.510 -1.0620 -0.1332 -1.2976
13090TIP3    H260762   5.158   3.524   4.407  1.2128  0.7539  0.3951
13091TIP3   OH260763   0.442   4.158  14.384  0.2643 -0.4052  0.1021
13091TIP3    H160764   0.469   4.074  14.420  0.2705 -0.1989  0.5913
13091TIP3    H260765   0.510   4.220  14.412 -0.7294  0.1344  1.4348
13092TIP3   OH260766   2.928   0.852   4.656 -0.8695  0.4946 -0.5352
13092TIP3    H160767   2.883   0.770   4.673  0.9505 -0.6127 -0.7322
13092TIP3    H260768   2.922   0.864   4.561 -2.0276  1.1740 -0.3974
13093TIP3   OH260769   6.073   4.425   4.379  0.0938 -0.2447  0.3386
13093TIP3    H160770   6.000   4.396   4.326 -0.6112 -0.7628  1.5500
13093TIP3    H260771   6.033   4.482   4.445  0.4656 -1.9886  2.1582
13094TIP3   OH260772   0.443   5.178   1.347  0.7319 -0.3209 -0.0830
13094TIP3    H160773   0.381   5.151   1.279  0.3651 -0.0208  0.1247
13094TIP3    H260774   0.523   5.131   1.327  1.1209  0.9384 -1.6178
13095TIP3   OH260775   3.187   2.992   4.977 -0.8468  0.2115 -0.1997
13095TIP3    H160776   3.183   2.934   5.052  0.8038  1.0844  0.6381
13095TIP3    H260777   3.270   2.970   4.934 -1.7380 -0.2375 -1.7669
13096TIP3   OH260778   0.500   5.054   4.176  0.2593 -0.3953  0.4811
13096TIP3    H160779   0.463   5.143   4.175 -0.2447 -0.5899 -1.1346
13096TIP3    H260780   0.456   5.011   4.250  0.3169  0.6016  1.1217
13097TIP3   OH260781   2.449   2.142  15.424  0.0982  0.5557  0.4451
13097TIP3    H160782   2.414   2.054  15.407 -1.6137  1.0148  1.3559
13097TIP3    H260783   2.377   2.188  15.467  0.4784  2.8605 -1.2303
13098TIP3   OH260784   1.406   4.581  14.563  0.4515 -0.2200  0.1798
13098TIP3    H160785   1.474   4.636  14.525 -0.7736  1.5222  0.3845
13098TIP3    H260786   1.366   4.536  14.489 -0.5478  1.5569 -0.4072
13099TIP3   OH260787   2.777   4.671   0.886  0.2515  0.2240 -0.3704
13099TIP3    H160788   2.708   4.604   0.881  0.5286 -0.1945  1.0479
13099TIP3    H260789   2.831   4.655   0.808  0.4817 -1.4022  0.0867
13100TIP3   OH260790   5.570   3.312   0.423 -0.3253 -0.4880  1.1787
13100TIP3    H160791   5.656   3.351   0.436 -1.2188  1.6761  0.9658
13100TIP3    H260792   5.559   3.308   0.328 -1.3144  1.3407  1.1828
13101TIP3   OH260793   2.321   6.438  14.154 -0.4168 -0.1562 -0.2082
13101TIP3    H160794   2.391   6.374  14.166 -0.0532  0.0695 -1.0730
13101TIP3    H260795   2.294   6.460  14.243  1.1364  0.3218  0.1779
13102TIP3   OH260796   2.110   4.046   5.487 -0.2254  0.6132  0.3395
13102TIP3    H160797   2.168   4.081   5.555  0.5390 -0.4665  0.2756
13102TIP3    H260798   2.041   4.000   5.535  0.4099 -0.2999  0.4229
13103TIP3   OH260799   5.082   1.857   5.015  0.0909  0.0554 -0.1664
13103TIP3    H160800   5.118   1.787   5.070  1.7173  0.2713 -0.9021
13103TIP3    H260801   5.113   1.938   5.057 -1.5859  0.3724  0.5478
13104TIP3   OH260802   6.408   3.568   1.149 -0.0644  0.4979  0.2993
13104TIP3    H160803   6.343   3.585   1.082 -0.5680 -1.5310  0.2209
13104TIP3    H260804   6.446   3.654   1.168  0.4020  1.0751 -2.8565
13105TIP3   OH260805   2.869   3.542  14.070 -0.0028 -0.0471 -0.4279
13105TIP3    H160806   2.882   3.533  13.976  0.6597  1.6416 -0.5476
13105TIP3    H260807   2.925   3.475  14.109 -0.6960 -1.1085 -1.2392
13106TIP3   OH260808   3.282   6.393  12.475 -0.3784 -0.7612 -0.0720
13106TIP3    H160809   3.310   6.417  12.564  0.9371 -1.4964 -0.2593
13106TIP3    H260810   3.309   6.301  12.466  2.0328  0.0240 -2.1598
13107TIP3   OH260811   6.383   2.734   1.405  0.1748  0.1003  0.0733
13107TIP3    H160812   6.402   2.785   1.484  2.6152 -1.0061  0.2954
13107TIP3    H260813   6.300   2.691   1.424  0.5301  0.1274  1.9199
13108TIP3   OH260814   1.169   2.301   3.535  0.3951 -0.1580 -0.7394
13108TIP3    H160815   1.110   2.228   3.555  0.9285 -0.7241 -1.1577
13108TIP3    H260816   1.111   2.376   3.523 -0.3447 -0.8744 -1.9715
13109TIP3   OH260817   4.468   2.117   4.358 -0.0466 -0.0781  0.5966
13109TIP3    H160818   4.449   2.192   4.415 -2.3932 -0.8140  0.9220
13109TIP3    H260819   4.499   2.049   4.418  0.4826  0.1098  0.5385
13110TIP3   OH260820   2.927   1.868   3.683 -0.1454  0.4854  0.3657
13110TIP3    H160821   2.846   1.828   3.716  0.2655 -0.7723 -0.1300
13110TIP3    H260822   2.938   1.833   3.595  1.3427  0.0596  0.7007
13111TIP3   OH260823   5.610   0.446  15.048  0.5895 -0.3648  0.6191
13111TIP3    H160824   5.703   0.454  15.024 -0.2037  1.9139 -2.3445
13111TIP3    H260825   5.585   0.534  15.074 -0.8385 -0.8893  1.0868
13112TIP3   OH260826   3.584   0.203  15.260 -0.0882 -0.1689  0.1483
13112TIP3    H160827   3.507   0.250  15.292  0.3897  1.7854 -1.3589
13112TIP3    H260828   3.600   0.135  15.325 -1.9864  0.5411  1.4374
13113TIP3   OH260829   0.312   6.010  14.816 -0.2241 -0.5315  0.5094
13113TIP3    H160830   0.286   6.042  14.902  0.5371 -2.6861  1.6113
13113TIP3    H260831   0.374   5.940  14.834 -0.9003 -1.8174 -1.7814
13114TIP3   OH260832   6.554   3.450   5.365  0.0407  0.1956  0.3568
13114TIP3    H160833   6.546   3.356   5.349  2.1724  0.2068 -1.1719
13114TIP3    H260834   6.562   3.488   5.278  0.4987  1.6557  1.0172
13115TIP3   OH260835   2.735   3.551  13.541 -0.1380  0.2476  0.5961
13115TIP3    H160836   2.685   3.595  13.471 -0.0776  1.0992  1.0712
13115TIP3    H260837   2.670   3.533  13.609 -0.4651 -1.7812 -0.1929
13116TIP3   OH260838   3.574   3.728   4.381 -0.3293  0.4838  0.8352
13116TIP3    H160839   3.579   3.634   4.362  1.3229  0.4806  1.1652
13116TIP3    H260840   3.561   3.769   4.296 -0.9959 -0.0257  0.6802
13117TIP3   OH260841   2.252   4.647  12.322 -1.0899  0.1389  0.3613
13117TIP3    H160842   2.312   4.640  12.247 -1.2955 -0.3350  0.2357
13117TIP3    H260843   2.246   4.741  12.339 -0.2319  0.1885  0.4419
13118TIP3   OH260844   1.522   3.768   1.096 -0.3104  0.3116  0.2576
13118TIP3    H160845   1.476   3.690   1.066  0.7941 -0.3219  0.1532
13118TIP3    H260846   1.550   3.747   1.185  0.0395  0.5621  0.2096
13119TIP3   OH260847   0.758   1.352   2.561 -0.1999 -0.2783  0.6404
13119TIP3    H160848   0.736   1.261   2.546  0.8407 -0.7697  1.8599
13119TIP3    H260849   0.738   1.396   2.478  0.7654 -1.8909 -0.5062
13120TIP3   OH260850   1.330   2.630  14.970  0.0562  0.3999 -0.1598
13120TIP3    H160851   1.373   2.559  14.923 -2.6161 -1.8995  0.6337
13120TIP3    H260852   1.267   2.666  14.907  0.8213  1.6000 -0.2827
13121TIP3   OH260853   6.250   3.419  10.007 -0.5520  0.2103 -0.0898
13121TIP3    H160854   6.276   3.371  10.085  1.3513  1.7702  0.3094
13121TIP3    H260855   6.215   3.502  10.040 -0.5783  0.5149 -0.8500
13122TIP3   OH260856   0.105   2.826  10.971 -0.8640  0.0594 -0.4809
13122TIP3    H160857   0.027   2.776  10.949 -0.6468 -0.1862 -0.7029
13122TIP3    H260858   0.151   2.837  10.888 -0.7052  0.2746 -0.3661
13123TIP3   OH260859   0.056   4.696  13.016  0.4853 -0.1945  0.0728
13123TIP3    H160860   0.112   4.688  13.093  0.5619  0.2416  0.0628
13123TIP3    H260861   0.117   4.719  12.945  0.3419 -0.0880 -0.0151
13124TIP3   OH260862   7.018   0.216   4.644  0.4067 -0.2170  0.0811
13124TIP3    H160863   6.986   0.301   4.676 -3.1138 -1.1978 -0.4782
13124TIP3    H260864   7.065   0.179   4.719 -0.5512  1.0085  1.3531
13125TIP3   OH260865   5.990   7.012   5.300  0.2868  0.1055  0.0872
13125TIP3    H160866   5.936   7.070   5.247  0.5430 -1.0679 -1.4993
13125TIP3    H260867   6.033   7.071   5.363 -0.6628  1.4054 -0.4379
13126TIP3   OH260868   5.780   1.932   4.701  0.0991  0.0786  0.6464
13126TIP3    H160869   5.767   1.944   4.795 -0.9993 -1.9828  0.8050
13126TIP3    H260870   5.874   1.949   4.687  0.1673  0.9513  1.9871
13127TIP3   OH260871   3.646   5.825   1.729 -0.5153  0.1798  0.0920
13127TIP3    H160872   3.584   5.871   1.672 -1.3542 -0.0167  0.8397
13127TIP3    H260873   3.711   5.892   1.752 -0.7194  0.5123 -0.2893
13128TIP3   OH260874   5.977   1.563  10.776 -0.5395 -0.1865 -0.0665
13128TIP3    H160875   5.980   1.653  10.810  0.0553 -0.3112  0.2330
13128TIP3    H260876   5.885   1.546  10.759 -0.5125  1.0854 -1.7345
13129TIP3   OH260877   5.036   6.254  11.700 -0.1028  0.3069  0.1700
13129TIP3    H160878   5.014   6.313  11.628  0.7625  0.6459  0.1681
13129TIP3    H260879   4.958   6.200  11.712  0.0589 -0.4121 -1.6558
13130TIP3   OH260880   4.774   0.395   1.318 -0.0420  0.5418  0.2280
13130TIP3    H160881   4.795   0.486   1.298 -1.5548  0.5158 -1.7414
13130TIP3    H260882   4.820   0.344   1.251 -1.0956  0.0491 -0.1465
13131TIP3   OH260883   1.730   0.114   4.445  0.0444  0.3038  0.0968
13131TIP3    H160884   1.819   0.100   4.477 -0.0223 -0.3906 -0.0096
13131TIP3    H260885   1.717   0.046   4.379 -0.7055  0.1460  0.3938
13132TIP3   OH260886   2.975   4.000  14.375 -0.8377  0.2230 -0.3224
13132TIP3    H160887   2.982   3.936  14.305  0.0771  0.2753 -0.2807
13132TIP3    H260888   3.061   4.000  14.417 -0.9569  1.1681 -0.0547
13133TIP3   OH260889   6.031   6.184  15.059 -0.0910 -0.1905  0.0448
13133TIP3    H160890   5.956   6.234  15.026  0.4631 -0.2274 -1.3211
13133TIP3    H260891   6.107   6.234  15.032  0.3902  0.5303  2.5736
13134TIP3   OH260892   1.321   4.754  14.991  0.5456 -0.1874  0.4753
13134TIP3    H160893   1.353   4.664  15.002 -0.3860 -0.3804  1.9878
13134TIP3    H260894   1.305   4.763  14.897  1.6809 -1.2261  0.1546
13135TIP3   OH260895   1.220   0.281  12.407  0.1092 -0.1128 -0.6716
13135TIP3    H160896   1.138   0.257  12.364 -0.1839  1.0092 -0.7550
13135TIP3    H260897   1.266   0.335  12.344 -0.3389  1.5799  0.3984
13136TIP3   OH260898   1.619   0.722   3.258  0.4661  0.0043 -0.2248
13136TIP3    H160899   1.666   0.782   3.316  1.2841  0.2280 -1.0956
13136TIP3    H260900   1.546   0.773   3.223 -0.4484 -0.3355  1.1156
13137TIP3   OH260901   1.565   5.394   4.826  0.3081 -0.0460 -0.1930
13137TIP3    H160902   1.521   5.318   4.865  0.3609 -0.2696 -0.5679
13137TIP3    H260903   1.516   5.411   4.746 -0.3355  0.9436  0.3838
13138TIP3   OH260904   3.266   1.898   2.893  0.1479  0.5242  0.5898
13138TIP3    H160905   3.306   1.886   2.979  0.8655  0.3985  0.2370
13138TIP3    H260906   3.175   1.871   2.906  0.6300 -1.0138  0.9287
13139TIP3   OH260907   4.238   3.589   1.211 -0.2442 -0.3998  1.0423
13139TIP3    H160908   4.297   3.563   1.282  2.0041 -0.5886 -0.7799
13139TIP3    H260909   4.280   3.666   1.172 -1.3364 -0.3752 -0.1636
13140TIP3   OH260910   3.869   1.630   2.158  0.1127  0.7105 -0.0783
13140TIP3    H160911   3.843   1.710   2.203  0.4317  0.9972 -0.3902
13140TIP3    H260912   3.866   1.653   2.065  0.7429  0.5338 -0.1509
13141TIP3   OH260913   3.724   6.366  14.840 -0.0224 -0.1012  0.1695
13141TIP3    H160914   3.663   6.382  14.913  0.6524 -1.8633  1.1890
13141TIP3    H260915   3.774   6.290  14.868  0.6654 -0.4709 -1.9283
13142TIP3   OH260916   4.548   2.259   4.605  0.0264 -0.2485 -0.2657
13142TIP3    H160917   4.617   2.193   4.612  0.9215  0.4296 -2.0053
13142TIP3    H260918   4.578   2.332   4.659  0.4732 -0.1248 -0.6781
13143TIP3   OH260919   4.088   5.630  14.140 -0.3024  0.4712  0.5549
13143TIP3    H160920   3.996   5.647  14.122  0.1592  0.6350 -2.1509
13143TIP3    H260921   4.113   5.562  14.077  1.6557  1.1884  0.4716
13144TIP3   OH260922   0.609   2.709   1.316 -0.0061 -0.2150  0.3859
13144TIP3    H160923   0.646   2.755   1.240  0.6165 -0.4399  0.5450
13144TIP3    H260924   0.587   2.779   1.378  0.7276 -0.1042  0.5326
13145TIP3   OH260925   3.034   2.257   4.030  0.4733 -0.5307 -0.4202
13145TIP3    H160926   2.975   2.325   4.063 -1.8342 -2.1567 -0.9056
13145TIP3    H260927   3.114   2.303   4.007 -0.9098  1.9878 -0.5340
13146TIP3   OH260928   3.488   0.976  14.781  0.0348 -0.1013  0.2231
13146TIP3    H160929   3.493   0.976  14.876 -1.6380 -0.8370  0.3466
13146TIP3    H260930   3.454   1.063  14.758  0.0721 -0.0612  0.3204
13147TIP3   OH260931   3.408   5.607  14.557  0.1023 -0.1021  0.2655
13147TIP3    H160932   3.481   5.549  14.580  0.1222  0.2133  0.9972
13147TIP3    H260933   3.349   5.550  14.507  0.0630 -0.8040  1.0733
13148TIP3   OH260934   6.680   6.034   1.827  0.6789  0.2247  0.8382
13148TIP3    H160935   6.585   6.052   1.828 -0.0719 -3.0987  0.7586
13148TIP3    H260936   6.709   6.067   1.742 -0.4501  1.0809  0.7493
13149TIP3   OH260937   0.748   5.314   0.681  0.0433 -0.6830 -0.5184
13149TIP3    H160938   0.707   5.249   0.624  0.6724 -0.7612 -0.8914
13149TIP3    H260939   0.800   5.263   0.743 -2.2124 -0.7365  1.4823
13150TIP3   OH260940   3.103   6.043  10.889 -0.0682  1.0467 -0.4491
13150TIP3    H160941   3.091   6.119  10.832 -2.1184  0.9200 -0.2589
13150TIP3    H260942   3.023   5.993  10.879 -1.1505  1.6592  3.4725
13151TIP3   OH260943   0.529   0.207   0.651  0.2673 -0.0409 -0.2364
13151TIP3    H160944   0.611   0.224   0.697 -1.3300 -0.7925  3.3052
13151TIP3    H260945   0.469   0.274   0.684 -0.8848 -0.2828 -1.7419
13152TIP3   OH260946   4.443   1.159   1.783 -0.0675 -0.5360 -0.6938
13152TIP3    H160947   4.372   1.130   1.840  0.1072  1.6261  0.7090
13152TIP3    H260948   4.403   1.164   1.696 -0.3422 -3.8790 -0.8977
13153TIP3   OH260949   4.556   0.850   1.918  0.4697  0.4138 -0.1715
13153TIP3    H160950   4.560   0.933   1.966 -0.3475  0.9625 -1.0196
13153TIP3    H260951   4.546   0.783   1.986 -2.1798  1.2871  0.4070
13154TIP3   OH260952   7.144   6.387   0.594 -0.2336 -0.4082 -0.6514
13154TIP3    H160953   7.200   6.454   0.553  0.3024 -0.3761  0.1120
13154TIP3    H260954   7.203   6.337   0.649 -1.0340 -0.0791  0.5425
13155TIP3   OH260955   2.680   2.307   2.621 -0.0624  0.0274 -0.0734
13155TIP3    H160956   2.609   2.276   2.565  1.6358 -2.3577 -1.0537
13155TIP3    H260957   2.672   2.255   2.701  1.2695 -1.1479 -0.6824
13156TIP3   OH260958   1.600   1.327   4.167  0.3248  0.2660 -0.5475
13156TIP3    H160959   1.553   1.359   4.090  0.2878  1.0318 -0.2076
13156TIP3    H260960   1.538   1.338   4.239  1.2590  2.0001  0.0470
13157TIP3   OH260961   0.985   7.015  10.977  0.0286 -0.0822 -0.6399
13157TIP3    H160962   1.072   6.976  10.977  1.1494  2.0298  2.9279
13157TIP3    H260963   0.991   7.086  10.913  0.9441  0.0835 -0.3847
13158TIP3   OH260964   0.089   1.413  13.456  0.6245  0.6634  0.1163
13158TIP3    H160965   0.047   1.484  13.504 -1.2452 -0.5063  0.2939
13158TIP3    H260966   0.071   1.433  13.364  0.4794  0.6501  0.1413
13159TIP3   OH260967   6.354   2.355   1.883 -0.2065  0.3041 -0.4191
13159TIP3    H160968   6.367   2.260   1.887  0.9695  0.4699 -0.0359
13159TIP3    H260969   6.440   2.392   1.905 -0.2322  1.4491 -2.0903
13160TIP3   OH260970   2.712   4.500   4.360  0.5868 -0.2204 -0.5346
13160TIP3    H160971   2.699   4.592   4.340  1.1912  0.1517  0.6522
13160TIP3    H260972   2.776   4.469   4.296  0.5960  0.2622 -0.7576
13161TIP3   OH260973   5.198   1.721  10.665 -0.0834  0.0106 -0.3066
13161TIP3    H160974   5.205   1.807  10.624  0.0443  0.7493  1.2063
13161TIP3    H260975   5.110   1.719  10.702 -0.3295 -0.7906 -0.9136
13162TIP3   OH260976   6.462   5.904  13.523  0.2929  0.2272  0.0237
13162TIP3    H160977   6.485   5.812  13.511  0.3349  0.1621  0.5557
13162TIP3    H260978   6.480   5.921  13.616 -2.6276 -0.0912  0.7667
13163TIP3   OH260979   6.973   0.578   0.359 -0.0624 -0.0545 -0.0933
13163TIP3    H160980   7.015   0.559   0.443 -0.1083  1.4820  0.3042
13163TIP3    H260981   6.888   0.615   0.383 -0.3926 -0.3099 -0.8426
13164TIP3   OH260982   6.018   2.397  12.580  0.7441 -0.4001 -0.5494
13164TIP3    H160983   6.043   2.429  12.493 -0.8504 -0.2347 -0.9896
13164TIP3    H260984   6.066   2.453  12.641  2.8748 -1.3381 -1.2874
13165TIP3   OH260985   4.571   6.121   4.091  0.6413 -0.4463  0.1959
13165TIP3    H160986   4.589   6.039   4.136 -0.1281  0.0814  1.5124
13165TIP3    H260987   4.614   6.111   4.006 -1.2835 -3.1202 -0.6116
13166TIP3   OH260988   3.275   3.948   5.633 -0.1929  0.0387  0.4120
13166TIP3    H160989   3.216   3.982   5.701 -1.2092 -0.9444  0.0562
13166TIP3    H260990   3.279   3.854   5.649 -0.4231 -0.2071 -0.8437
13167TIP3   OH260991   0.867   7.064   4.870 -0.2591  0.1797  0.0150
13167TIP3    H160992   0.804   7.120   4.915  0.8244  0.3658  1.3792
13167TIP3    H260993   0.814   6.991   4.837 -1.0870 -0.2525  2.0950
13168TIP3   OH260994   5.961   0.455   3.486 -0.1202 -0.1887  0.1409
13168TIP3    H160995   5.911   0.512   3.428 -0.5122 -0.6888 -0.0242
13168TIP3    H260996   6.036   0.427   3.435 -1.7544 -2.6804 -1.1088
13169TIP3   OH260997   0.667   0.091  12.244 -0.0312  0.1192 -0.0748
13169TIP3    H160998   0.621   0.043  12.313  0.3728 -1.5166 -0.8875
13169TIP3    H260999   0.635   0.052  12.163  1.2797  0.3533 -0.7224
13170TIP3   OH261000   0.191   0.640   5.435 -0.6396 -0.1943 -0.0979
13170TIP3    H161001   0.159   0.550   5.423  2.3941 -1.3117 -0.8239
13170TIP3    H261002   0.124   0.695   5.396 -1.5689 -2.3377 -1.7366
13171TIP3   OH261003   5.223   2.205  13.154  0.3348  0.4027 -0.6931
13171TIP3    H161004   5.259   2.254  13.080  2.1188  2.1576  1.2348
13171TIP3    H261005   5.225   2.266  13.227 -2.0478 -1.0406  0.7134
13172TIP3   OH261006   3.822   1.387   4.564 -0.1446 -0.7997 -0.0579
13172TIP3    H161007   3.759   1.454   4.538 -1.5103 -2.0465 -0.0964
13172TIP3    H261008   3.908   1.428   4.550 -0.9241  0.8352 -0.2884
13173TIP3   OH261009   6.106   5.113   2.095  0.6128 -0.0094 -0.0966
13173TIP3    H161010   6.188   5.079   2.131  0.8164 -0.4702 -0.9772
13173TIP3    H261011   6.069   5.039   2.046  0.7581  0.8272 -1.5203
13174TIP3   OH261012   0.470   3.695  11.903 -0.0697 -0.2196 -0.8746
13174TIP3    H161013   0.438   3.770  11.852 -0.1892  0.8911  0.7477
13174TIP3    H261014   0.490   3.732  11.988 -3.3390 -2.5676  1.1612
13175TIP3   OH261015   3.479   2.890   4.425 -0.2570  0.1318  0.1106
13175TIP3    H161016   3.515   2.850   4.346  1.4675  0.5759  0.6259
13175TIP3    H261017   3.406   2.944   4.394 -2.0144 -2.4996 -0.7301
13176TIP3   OH261018   5.627   7.045  14.697  0.1937  0.3927  0.0629
13176TIP3    H161019   5.675   6.963  14.710 -0.5830 -0.0545  0.1283
13176TIP3    H261020   5.688   7.113  14.726  0.4153 -0.2318  1.1065
13177TIP3   OH261021   2.275   6.104   4.600  0.1112  0.3126 -0.7241
13177TIP3    H161022   2.355   6.118   4.549 -0.8372  2.5202 -1.7450
13177TIP3    H261023   2.306   6.085   4.689  1.7567  0.7696 -1.1601
13178TIP3   OH261024   3.951   5.376   3.627  0.0336 -0.4051  0.0516
13178TIP3    H161025   3.868   5.337   3.655 -0.6767  1.4813  0.7614
13178TIP3    H261026   3.932   5.415   3.541  0.6486 -1.3195 -0.5170
13179TIP3   OH261027   4.762   6.921  13.671 -0.2689  0.0048 -0.2487
13179TIP3    H161028   4.809   6.913  13.587 -0.3039 -0.2034 -0.2478
13179TIP3    H261029   4.787   7.008  13.703 -1.5523  0.8019 -1.2657
13180TIP3   OH261030   0.116   3.744   3.231  0.2348  0.1277 -0.0437
13180TIP3    H161031   0.116   3.727   3.325  1.3393 -1.8243 -0.3408
13180TIP3    H261032   0.194   3.799   3.217  0.3573 -0.0014  0.1260
13181TIP3   OH261033   7.025   7.209   1.484  0.2645  0.0455 -0.3292
13181TIP3    H161034   6.975   7.189   1.405  0.8801 -0.9890 -0.4859
13181TIP3    H261035   7.096   7.266   1.454  0.9428 -0.9480 -0.7047
13182TIP3   OH261036   7.006   0.357  14.938  0.0228 -0.3699 -0.2136
13182TIP3    H161037   6.933   0.315  14.983 -0.8604  0.8049 -0.4941
13182TIP3    H261038   6.980   0.449  14.930  2.3400  0.5051  1.3246
13183TIP3   OH261039   5.978   4.650  15.170  0.2023  0.1303 -0.6177
13183TIP3    H161040   5.946   4.571  15.126  1.7953 -1.5277  0.9967
13183TIP3    H261041   6.056   4.675  15.120 -0.1599  0.5635 -0.9784
13184TIP3   OH261042   2.635   2.709  11.589  0.0631 -0.3067 -0.5111
13184TIP3    H161043   2.709   2.724  11.530  0.4316  1.0063  0.2425
13184TIP3    H261044   2.652   2.623  11.627 -0.1770 -1.1825 -2.2640
13185TIP3   OH261045   2.411   0.194   1.946 -0.1974 -0.0121 -0.0178
13185TIP3    H161046   2.402   0.213   2.039  1.1386 -0.8615  0.3234
13185TIP3    H261047   2.350   0.122   1.930 -1.2561  0.8833 -0.0721
13186TIP3   OH261048   4.542   1.923   4.545  0.2463  0.1518  0.7542
13186TIP3    H161049   4.471   1.891   4.600 -0.0208 -3.4600 -1.3813
13186TIP3    H261050   4.617   1.867   4.567  0.6708 -0.0756 -1.0935
13187TIP3   OH261051   5.126   0.776  13.253 -0.5695 -0.3695  1.0101
13187TIP3    H161052   5.036   0.781  13.219 -0.6503  0.2072  1.2988
13187TIP3    H261053   5.136   0.855  13.305  0.1721 -0.3439  0.8366
13188TIP3   OH261054   1.757   0.435   1.516  0.3695  0.1259 -0.1997
13188TIP3    H161055   1.717   0.362   1.469 -3.6781  2.4665 -0.8761
13188TIP3    H261056   1.747   0.412   1.609 -1.5478  0.0367 -0.3830
13189TIP3   OH261057   0.619   4.365  14.238 -0.0776  0.1830 -0.4703
13189TIP3    H161058   0.691   4.425  14.255 -0.0613 -0.3795  1.7570
13189TIP3    H261059   0.540   4.413  14.263 -0.0795 -0.5968  1.1383
13190TIP3   OH261060   3.614   5.039   1.199 -0.0290  0.2329 -0.0378
13190TIP3    H161061   3.672   5.044   1.123  0.9112 -0.4538  0.6192
13190TIP3    H261062   3.565   5.121   1.197 -0.8248 -0.2270 -2.0068
13191TIP3   OH261063   2.876   5.901  14.710  0.3414  0.5707 -0.0407
13191TIP3    H161064   2.888   5.807  14.698 -0.4109  0.5910 -1.1222
13191TIP3    H261065   2.964   5.938  14.702  0.5965 -0.0030  0.0754
13192TIP3   OH261066   6.890   3.406  15.002  0.2086  0.3813  0.1195
13192TIP3    H161067   6.811   3.362  15.034  0.5747 -0.1332  0.3250
13192TIP3    H261068   6.857   3.484  14.958 -0.3446  0.9204  1.4143
13193TIP3   OH261069   0.328   5.505  13.932 -0.7726  0.1486  0.0532
13193TIP3    H161070   0.348   5.543  13.847 -1.2588 -1.0012 -0.6029
13193TIP3    H261071   0.232   5.498  13.933 -0.7930  0.4107  0.8169
13194TIP3   OH261072   2.324   5.790   5.288  0.1303  0.4552 -0.2792
13194TIP3    H161073   2.355   5.726   5.351  1.2255  0.6436 -0.6041
13194TIP3    H261074   2.282   5.738   5.219  2.9407 -0.1721 -1.6654
13195TIP3   OH261075   5.150   4.909  15.421  0.3235 -0.1073 -0.1461
13195TIP3    H161076   5.197   4.917  15.504  0.9167  0.7181 -0.5479
13195TIP3    H261077   5.100   4.828  15.429 -0.6526  0.6090  1.5404
13196TIP3   OH261078   4.741   4.998  15.369 -0.0734 -0.0640 -0.1904
13196TIP3    H161079   4.665   4.992  15.428  0.4852  1.4405  0.7349
13196TIP3    H261080   4.813   4.962  15.420 -0.0213 -0.9866 -0.8751
13197TIP3   OH261081   2.518   5.514  13.754  0.6576 -0.1897 -0.1418
13197TIP3    H161082   2.553   5.425  13.747  1.0816  0.0760 -1.8168
13197TIP3    H261083   2.540   5.555  13.670  2.1345  2.1161  1.2550
13198TIP3   OH261084   6.090   4.609  13.617  0.8252 -0.5852  0.3455
13198TIP3    H161085   6.149   4.651  13.680  1.3676 -1.2169  0.2706
13198TIP3    H261086   6.062   4.528  13.660 -0.0970 -0.2292  0.4284
13199TIP3   OH261087   2.323   4.104  10.406  0.2577  0.3026  0.4976
13199TIP3    H161088   2.290   4.169  10.344 -1.3021 -0.9126 -0.0306
13199TIP3    H261089   2.418   4.115  10.404  0.1810  0.9782 -1.3605
13200TIP3   OH261090   6.506   5.405   2.046  0.2735 -0.5120 -0.1370
13200TIP3    H161091   6.493   5.441   2.134 -0.4751  0.3746 -0.5900
13200TIP3    H261092   6.571   5.335   2.057  1.7427  0.9404  0.7891
13201TIP3   OH261093   2.459   4.495   3.242 -0.1916 -0.1593 -0.2227
13201TIP3    H161094   2.434   4.569   3.297  2.6329  0.6433  0.1793
13201TIP3    H261095   2.492   4.535   3.161  0.1572 -1.0277 -0.5228
13202TIP3   OH261096   0.453   3.216  10.696  0.1781 -0.1443  0.0913
13202TIP3    H161097   0.478   3.139  10.644  2.3551  1.5186 -1.4644
13202TIP3    H261098   0.445   3.287  10.632  3.4081  2.1261  1.9274
13203TIP3   OH261099   4.421   0.136  15.092 -0.4072 -0.3953 -0.0894
13203TIP3    H161100   4.445   0.043  15.091 -0.8668 -0.5118 -1.1857
13203TIP3    H261101   4.502   0.181  15.115 -0.1027 -1.0479  0.1475
13204TIP3   OH261102   3.915   4.829  10.230 -0.1181 -0.4043  0.3097
13204TIP3    H161103   3.994   4.778  10.248  0.3302  0.0809 -0.2312
13204TIP3    H261104   3.931   4.869  10.144 -1.0025 -0.3958  0.1379
13205TIP3   OH261105   6.360   2.611   9.876 -0.0630  0.5156  0.0045
13205TIP3    H161106   6.312   2.560   9.811 -0.8719 -0.6313  1.4159
13205TIP3    H261107   6.450   2.611   9.845 -0.1900 -1.1430 -0.4488
13206TIP3   OH261108   2.538   1.767  15.090 -0.4328  0.4302 -0.1497
13206TIP3    H161109   2.634   1.763  15.089 -0.3917  1.1953  0.2353
13206TIP3    H261110   2.516   1.844  15.038 -0.7070  1.8971  1.9986
13207TIP3   OH261111   7.098   1.919   0.333  0.2281  0.2337 -0.1934
13207TIP3    H161112   7.043   1.978   0.280  2.7848  1.0345 -2.1757
13207TIP3    H261113   7.172   1.973   0.360  2.0740 -1.6911 -1.0823
13208TIP3   OH261114   6.689   6.687  11.458 -0.6685 -0.2310 -0.2196
13208TIP3    H161115   6.773   6.642  11.456 -0.8420 -0.6021  0.4668
13208TIP3    H261116   6.655   6.678  11.368  1.3862  2.6728 -1.4124
13209TIP3   OH261117   1.581   0.990   2.097  0.1330 -0.2023 -0.1423
13209TIP3    H161118   1.602   1.029   2.012  0.3704  0.0016  0.0068
13209TIP3    H261119   1.503   1.037   2.126  0.4422  0.1923  0.0553
13210TIP3   OH261120   1.953   6.273   1.212 -0.0793  0.2094 -0.6219
13210TIP3    H161121   1.894   6.313   1.276  0.3132  0.3533 -0.3443
13210TIP3    H261122   1.917   6.296   1.127 -1.3852 -1.1217 -0.4626
13211TIP3   OH261123   0.174   2.948   0.073  0.1048  0.1229  0.2657
13211TIP3    H161124   0.141   3.032   0.041  1.1562  0.1972 -0.7047
13211TIP3    H261125   0.214   2.968   0.158 -3.0208 -0.1311  1.9314
13212TIP3   OH261126   4.734   6.908  14.552  0.4713 -0.4742 -0.5240
13212TIP3    H161127   4.727   6.874  14.642  0.7562  0.6550 -0.0601
13212TIP3    H261128   4.672   6.981  14.549 -0.3143 -1.1594 -1.5825
13213TIP3   OH261129   6.365   3.354   1.540 -0.1957 -0.2823  0.0130
13213TIP3    H161130   6.354   3.277   1.594  1.2285 -2.3001 -2.3633
13213TIP3    H261131   6.276   3.382   1.519 -0.9098 -3.3675 -1.7306
13214TIP3   OH261132   6.169   4.327   0.621 -0.3612  0.2602 -0.1312
13214TIP3    H161133   6.097   4.355   0.564  0.4366 -1.2463 -1.9682
13214TIP3    H261134   6.239   4.389   0.604 -0.1800 -0.0928 -0.6859
13215TIP3   OH261135   2.049   3.680   2.777 -0.5444 -0.0531 -0.4096
13215TIP3    H161136   2.137   3.650   2.754 -0.1229 -0.2836  1.3486
13215TIP3    H261137   2.050   3.688   2.873 -3.1454 -2.4268 -0.0451
13216TIP3   OH261138   4.471   6.076   2.662  0.8984 -0.5582  0.1421
13216TIP3    H161139   4.534   6.111   2.725 -1.0204 -0.0065  1.8720
13216TIP3    H261140   4.426   6.006   2.709 -0.3797 -0.3530 -0.7161
13217TIP3   OH261141   6.350   5.720   2.144 -0.6141  0.2357 -0.1563
13217TIP3    H161142   6.374   5.714   2.052 -3.5021 -2.2060 -0.9382
13217TIP3    H261143   6.283   5.788   2.148  0.4461  1.2650  0.4212
13218TIP3   OH261144   6.023   5.792  10.568 -0.4892 -0.4232  0.2969
13218TIP3    H161145   6.063   5.818  10.651  0.3326 -0.4077 -0.0981
13218TIP3    H261146   5.933   5.825  10.574 -0.3334 -0.0979  1.0232
13219TIP3   OH261147   4.366   6.772  11.694 -0.3981 -0.1665  1.0779
13219TIP3    H161148   4.411   6.810  11.619 -1.4136 -1.0241 -0.0039
13219TIP3    H261149   4.323   6.846  11.737 -0.2945  0.2560  0.4584
13220TIP3   OH261150   0.326   1.256  14.681 -0.2169  0.0474 -0.3765
13220TIP3    H161151   0.262   1.280  14.614 -2.1149 -1.0012  0.9998
13220TIP3    H261152   0.300   1.169  14.710  2.5845 -0.9585 -0.5963
13221TIP3   OH261153   7.173   4.722   4.832  0.1953 -1.0336 -0.3583
13221TIP3    H161154   7.231   4.780   4.881  0.7119 -1.1326 -0.8510
13221TIP3    H261155   7.109   4.781   4.791  0.9380 -0.7645 -1.1596
13222TIP3   OH261156   1.077   2.867   3.261  0.0806 -0.0842  0.1215
13222TIP3    H161157   1.015   2.794   3.255  0.5630 -0.5890  0.9703
13222TIP3    H261158   1.024   2.941   3.290 -0.4161 -0.0853 -0.7472
13223TIP3   OH261159   3.344   1.320   0.287 -0.6457  0.4184 -0.2036
13223TIP3    H161160   3.309   1.399   0.245 -1.1009  0.8926  1.0453
13223TIP3    H261161   3.365   1.262   0.213 -0.1634  1.7424 -1.1564
13224TIP3   OH261162   2.817   1.909  12.112 -0.1743  0.4523 -0.6604
13224TIP3    H161163   2.851   1.864  12.035 -0.2771  1.0150 -1.0319
13224TIP3    H261164   2.851   1.998  12.106  0.9011  0.1729  0.6227
13225TIP3   OH261165   5.358   0.030  15.233 -0.4238 -0.2517 -0.0577
13225TIP3    H161166   5.325  -0.009  15.313  0.1564 -1.4331 -0.3708
13225TIP3    H261167   5.340  -0.035  15.165 -0.3501  0.4644 -0.7743
13226TIP3   OH261168   0.248   6.345   2.132 -0.2751  0.3028 -0.6789
13226TIP3    H161169   0.338   6.325   2.110  0.4174 -0.0205  2.0263
13226TIP3    H261170   0.247   6.440   2.146 -0.1171  0.1978  0.1027
13227TIP3   OH261171   6.822   0.898  10.227  0.4858 -0.5152 -0.2312
13227TIP3    H161172   6.843   0.824  10.283 -0.8904 -0.3532  0.5272
13227TIP3    H261173   6.858   0.875  10.141 -0.7386 -2.4837 -0.2622
13228TIP3   OH261174   2.644   3.824   3.609  0.0033  0.1470 -0.1850
13228TIP3    H161175   2.565   3.779   3.580 -0.7907  1.7021 -0.5153
13228TIP3    H261176   2.625   3.851   3.698  0.5065 -0.2171  0.0371
13229TIP3   OH261177   5.642   6.789  14.838 -0.1698  0.2123  0.2485
13229TIP3    H161178   5.563   6.790  14.893 -1.2429 -0.6640 -1.2089
13229TIP3    H261179   5.665   6.697  14.830  1.0825  0.4646  0.7156
13230TIP3   OH261180   1.528   1.648   2.270  0.4286  0.6052  0.2799
13230TIP3    H161181   1.508   1.655   2.363  0.2653 -2.3761  0.5498
13230TIP3    H261182   1.450   1.607   2.232  1.0454  0.5107 -0.9206
13231TIP3   OH261183   0.343   2.939  13.463 -0.8551 -0.0504  0.1642
13231TIP3    H161184   0.373   2.867  13.518 -1.1218  0.0451  0.4336
13231TIP3    H261185   0.302   3.001  13.523 -2.2952 -0.5358 -0.2657
13232TIP3   OH261186   0.464   3.593   1.265 -0.5728  0.2417 -0.4122
13232TIP3    H161187   0.423   3.658   1.208  1.1690  0.8784 -0.9850
13232TIP3    H261188   0.525   3.546   1.209  0.1110 -0.1012  0.5915
13233TIP3   OH261189   1.229   0.504  13.769 -0.1379  0.4779 -1.2196
13233TIP3    H161190   1.193   0.532  13.685 -1.9230 -1.4569 -1.1872
13233TIP3    H261191   1.207   0.411  13.775  3.2232 -0.4085 -0.2176
13234TIP3   OH261192   2.704   5.284   5.055  0.7119  0.3308  0.3744
13234TIP3    H161193   2.721   5.193   5.031 -0.0095  0.7166 -1.8468
13234TIP3    H261194   2.779   5.332   5.019  0.3974  0.7543  0.2791
13235TIP3   OH261195   3.167   6.052   2.495 -0.6534 -0.3944 -0.0326
13235TIP3    H161196   3.194   5.971   2.538 -0.0742  0.3469  1.0501
13235TIP3    H261197   3.094   6.026   2.439 -0.9683 -1.5332  0.8611
13236TIP3   OH261198   1.299   5.428   3.642  0.3299  0.3762 -0.0586
13236TIP3    H161199   1.258   5.464   3.563  0.7837 -0.6742 -0.7936
13236TIP3    H261200   1.393   5.424   3.620  0.2122 -2.1014 -0.3977
13237TIP3   OH261201   1.007   4.449  14.772  0.2031  0.0316  0.6084
13237TIP3    H161202   0.982   4.468  14.862  1.6902 -0.3968  1.1354
13237TIP3    H261203   1.073   4.380  14.779  1.8053  1.3391 -0.6594
13238TIP3   OH261204   1.415   6.074   4.254  1.0600 -0.1543 -0.1767
13238TIP3    H161205   1.331   6.097   4.292  1.3345  1.4270 -0.4818
13238TIP3    H261206   1.393   6.032   4.170  0.5396 -1.5494  0.6272
13239TIP3   OH261207   6.841   5.614   0.665 -0.0593  0.2431  0.0422
13239TIP3    H161208   6.849   5.691   0.721  0.0958  0.3672 -0.1485
13239TIP3    H261209   6.778   5.558   0.710 -1.6246  1.3039 -0.7476
13240TIP3   OH261210   2.657   2.828  12.405 -0.4687 -0.2054 -0.3614
13240TIP3    H161211   2.579   2.829  12.460 -0.8237  0.0667 -0.8596
13240TIP3    H261212   2.730   2.828  12.467 -0.8532 -1.2685  0.1110
13241TIP3   OH261213   3.731   0.719   4.064  0.4325  0.2308 -0.2431
13241TIP3    H161214   3.652   0.689   4.018  0.4165 -0.2072  0.0690
13241TIP3    H261215   3.697   0.761   4.143  0.5271 -0.2858  0.0748
13242TIP3   OH261216   3.089   4.659   2.584 -0.5321 -0.0135 -0.0817
13242TIP3    H161217   3.017   4.718   2.561 -1.7825 -1.6020 -0.4033
13242TIP3    H261218   3.074   4.638   2.676 -1.3961 -1.4933 -0.5188
13243TIP3   OH261219   5.981   2.442  15.379  0.5404 -0.7086  0.1439
13243TIP3    H161220   6.003   2.442  15.472  2.3423  0.3766 -0.2311
13243TIP3    H261221   5.990   2.350  15.352  1.2377 -0.8449  0.7968
13244TIP3   OH261222   5.883   7.041   4.662 -0.1462 -0.1132 -0.2032
13244TIP3    H161223   5.876   7.076   4.751  1.6751  0.0766 -0.0819
13244TIP3    H261224   5.804   6.989   4.650 -0.6517  0.2418  1.3619
13245TIP3   OH261225   1.616   2.091   5.496  0.1308  0.1011 -0.1972
13245TIP3    H161226   1.565   2.110   5.575 -1.5785 -1.5103 -0.8201
13245TIP3    H261227   1.570   2.137   5.426 -0.0573 -0.7293 -0.6426
13246TIP3   OH261228   6.116   3.138   0.365 -0.4348  0.1391 -0.0340
13246TIP3    H161229   6.047   3.072   0.364 -0.3378  0.0280 -1.3699
13246TIP3    H261230   6.084   3.208   0.309 -0.6825  1.4401  1.6309
13247TIP3   OH261231   1.517   2.703   5.515 -0.0555 -0.5476 -0.3217
13247TIP3    H161232   1.487   2.747   5.594 -0.2610  1.7111 -1.5804
13247TIP3    H261233   1.613   2.706   5.521 -0.0691  0.0271 -0.3629
13248TIP3   OH261234   3.028   2.700  11.929  0.1077  0.2776  0.5216
13248TIP3    H161235   2.955   2.756  11.904  0.5268  1.4740  1.8395
13248TIP3    H261236   3.013   2.619  11.880 -0.3364  1.6112 -1.7051
13249TIP3   OH261237   3.409   0.042   4.308  0.1862 -0.1000 -0.6666
13249TIP3    H161238   3.446  -0.038   4.345  0.5587  1.1010  1.6871
13249TIP3    H261239   3.315   0.037   4.328  0.5801  1.1895  1.9005
13250TIP3   OH261240   6.000   5.375   1.026  0.3232 -0.5218 -0.2656
13250TIP3    H161241   5.949   5.337   1.097  3.0319 -0.5132  1.8540
13250TIP3    H261242   6.017   5.465   1.055 -0.4004  0.2221 -2.0415
13251TIP3   OH261243   3.258   0.063  12.878 -0.5730  0.2183  0.7885
13251TIP3    H161244   3.216   0.125  12.819  1.7023  0.8815 -0.2435
13251TIP3    H261245   3.211  -0.020  12.863 -1.7016  0.9811 -0.0333
13252TIP3   OH261246   7.063   6.870   1.383  0.3584  0.9506 -0.5365
13252TIP3    H161247   7.008   6.847   1.309 -1.6361 -0.2964  1.2231
13252TIP3    H261248   7.088   6.961   1.368 -0.3272  0.8471 -2.4839
13253TIP3   OH261249   3.321   4.479   1.593  0.9286 -0.4859 -0.0802
13253TIP3    H161250   3.374   4.516   1.663  0.0158 -0.5964  0.6933
13253TIP3    H261251   3.378   4.415   1.551  1.4845 -0.4371  0.5766
13254TIP3   OH261252   7.097   6.968   2.473  0.0317 -0.3494 -0.3312
13254TIP3    H161253   7.140   6.889   2.504  0.5114 -0.8607 -2.1684
13254TIP3    H261254   7.010   6.940   2.447 -1.9467  0.8219  4.0995
13255TIP3   OH261255   3.768   2.726   4.501  0.3797  0.2876 -0.2161
13255TIP3    H161256   3.764   2.816   4.533  1.7079 -0.1692  1.3125
13255TIP3    H261257   3.849   2.690   4.537  1.9623 -0.3829 -3.9336
13256TIP3   OH261258   6.824   5.006  12.740 -0.4488  0.2454 -0.0383
13256TIP3    H161259   6.738   5.030  12.773 -0.4207 -0.8616  0.8975
13256TIP3    H261260   6.823   5.031  12.648 -1.8985 -0.1140 -0.1278
13257TIP3   OH261261   2.322   0.273  12.929 -0.3013 -0.4544  0.4405
13257TIP3    H161262   2.390   0.325  12.971  0.2967  0.4277 -1.4880
13257TIP3    H261263   2.368   0.219  12.865 -1.4364  3.5648 -4.4609
13258TIP3   OH261264   2.570   6.842  11.729  0.4513  0.1322 -0.8239
13258TIP3    H161265   2.474   6.846  11.730  0.4137  0.2510 -2.3677
13258TIP3    H261266   2.592   6.785  11.802 -0.6388  2.1542  1.2382
13259TIP3   OH261267   1.143   5.368  13.832 -0.8143  0.3732  0.4873
13259TIP3    H161268   1.231   5.394  13.803 -0.5501  0.4673  1.3506
13259TIP3    H261269   1.144   5.272  13.829 -0.8276  0.3839  0.0870
13260TIP3   OH261270   6.485   4.941   1.631 -0.6754 -0.4715 -0.8457
13260TIP3    H161271   6.528   5.006   1.575 -0.1340 -1.4046 -1.5619
13260TIP3    H261272   6.532   4.859   1.612 -1.4929 -1.1207 -0.1579
13261TIP3   OH261273   1.967   0.898  10.625 -0.2361 -0.6245  0.1002
13261TIP3    H161274   1.911   0.897  10.548 -1.7883 -1.3130  1.1828
13261TIP3    H261275   2.004   0.986  10.627  0.1698 -0.7240 -1.6301
13262TIP3   OH261276   2.981   2.700   0.580 -0.0280  0.4861  0.1039
13262TIP3    H161277   3.023   2.768   0.528 -0.5032 -0.3253 -1.4071
13262TIP3    H261278   2.998   2.619   0.531 -2.5321  0.0074 -0.1156
13263TIP3   OH261279   0.810   6.585  12.060 -0.4468 -0.1436  0.0250
13263TIP3    H161280   0.758   6.518  12.017  0.1627  0.8666 -2.4597
13263TIP3    H261281   0.771   6.668  12.033  0.1131  0.5505  1.2634
13264TIP3   OH261282   1.461   0.029  14.570  0.0016 -0.1256  0.5385
13264TIP3    H161283   1.427   0.026  14.659 -1.3957  0.6560  0.0569
13264TIP3    H261284   1.539  -0.027  14.572 -2.0873 -3.2398  1.3440
13265TIP3   OH261285   1.361   3.010   3.021 -0.2612 -0.1519  0.3715
13265TIP3    H161286   1.294   3.036   2.958 -2.0803 -0.8943  1.9058
13265TIP3    H261287   1.358   3.077   3.089 -1.0764 -1.3520  1.5704
13266TIP3   OH261288   1.466   6.896   0.788  0.1155 -0.0539 -0.4125
13266TIP3    H161289   1.462   6.990   0.775 -0.1782 -0.2236 -1.6799
13266TIP3    H261290   1.527   6.884   0.861 -0.2467  1.1296  0.1071
13267TIP3   OH261291   4.911   3.251  11.173 -0.1533 -0.1829 -0.3065
13267TIP3    H161292   4.892   3.198  11.250 -0.4527  2.3753  1.4989
13267TIP3    H261293   4.826   3.283  11.144  0.2142  1.8076  0.6163
13268TIP3   OH261294   3.263   3.985   2.792 -0.5997  0.0157 -0.0895
13268TIP3    H161295   3.335   4.015   2.738 -1.5184  0.6437 -0.9979
13268TIP3    H261296   3.293   3.901   2.827  0.3294 -0.0130 -0.9083
13269TIP3   OH261297   1.133   4.633  14.074  0.0033  0.1763 -0.3430
13269TIP3    H161298   1.179   4.683  14.142 -2.1548  1.8591 -0.0010
13269TIP3    H261299   1.085   4.566  14.122  0.5150 -0.3098 -0.5001
13270TIP3   OH261300   3.328   2.015  15.116 -0.1566  0.6383  0.2141
13270TIP3    H161301   3.316   2.041  15.025 -0.4548 -0.6200 -0.1313
13270TIP3    H261302   3.420   2.032  15.135  0.2973 -0.5154 -0.8286
13271TIP3   OH261303   2.374   1.820   0.420 -0.2529 -0.0537 -0.0806
13271TIP3    H161304   2.464   1.802   0.448  0.5204  0.1516 -2.2683
13271TIP3    H261305   2.321   1.803   0.498  1.5852 -0.9928  1.0287
13272TIP3   OH261306   4.440   3.242   1.634 -0.0500  0.0846  0.1458
13272TIP3    H161307   4.407   3.161   1.672 -0.4529 -0.7041 -1.7695
13272TIP3    H261308   4.494   3.281   1.703 -0.6293 -1.3100  1.4415
13273TIP3   OH261309   0.510   2.197   1.876 -0.1809 -0.4032 -0.8768
13273TIP3    H161310   0.558   2.120   1.847  1.1250  0.4543 -1.0828
13273TIP3    H261311   0.508   2.254   1.800 -0.8719 -0.1027 -0.6395
13274TIP3   OH261312   5.429   3.127  13.685 -0.5761 -0.0492  0.3235
13274TIP3    H161313   5.502   3.151  13.742  1.4283 -0.5517 -1.8384
13274TIP3    H261314   5.403   3.209  13.643  0.2990 -0.2048 -0.5522
13275TIP3   OH261315   6.677   5.658   3.546  0.4306  0.0578  0.0865
13275TIP3    H161316   6.633   5.581   3.509  1.1802  0.3819 -1.5533
13275TIP3    H261317   6.647   5.731   3.493  0.2918  0.8099  1.1690
13276TIP3   OH261318   3.287   2.633  14.954  0.8518 -0.1066  0.1078
13276TIP3    H161319   3.266   2.619  15.046  0.6788  1.3299  0.3105
13276TIP3    H261320   3.355   2.568  14.934  0.0387 -1.2273  0.9024
13277TIP3   OH261321   6.819   3.466   4.173  0.1561 -0.0655  0.0937
13277TIP3    H161322   6.755   3.400   4.199 -0.7062  0.3308 -0.9292
13277TIP3    H261323   6.779   3.510   4.098  0.4245  2.0334  1.1093
13278TIP3   OH261324   4.491   1.489  13.410 -0.4124 -0.3052 -0.4100
13278TIP3    H161325   4.580   1.466  13.384 -0.1433  0.9299 -0.6333
13278TIP3    H261326   4.447   1.509  13.327 -0.8402 -0.7119 -0.2840
13279TIP3   OH261327   2.535   0.611   2.065  0.1700  0.2389  0.9176
13279TIP3    H161328   2.550   0.700   2.033  1.2740  0.3026  1.5474
13279TIP3    H261329   2.613   0.563   2.037 -0.7698 -0.7498 -0.1064
13280TIP3   OH261330   0.973   6.339   5.406  0.0495 -0.4878 -0.5360
13280TIP3    H161331   0.912   6.405   5.439  1.0141 -0.3762  1.1549
13280TIP3    H261332   0.962   6.264   5.464 -0.4328 -1.5364 -1.9299
13281TIP3   OH261333   5.509   1.408  13.914 -0.3412  0.2627 -0.0635
13281TIP3    H161334   5.565   1.406  13.992  2.3602 -0.8510 -1.8933
13281TIP3    H261335   5.529   1.491  13.872 -0.1499 -0.0780 -0.6566
13282TIP3   OH261336   2.841   3.896   4.435  0.4344  0.6598 -0.1502
13282TIP3    H161337   2.802   3.983   4.442  2.8025  2.1436 -3.2106
13282TIP3    H261338   2.845   3.878   4.341  1.6513 -1.9711  0.3071
13283TIP3   OH261339   5.783   5.434  13.126 -0.5352  0.7040 -0.0890
13283TIP3    H161340   5.691   5.455  13.144 -0.5255  1.7133 -1.0952
13283TIP3    H261341   5.787   5.339  13.131 -2.0111  0.5089 -1.6143
13284TIP3   OH261342   7.163   3.840   0.895 -0.7050  0.0378 -0.1704
13284TIP3    H161343   7.176   3.761   0.843  1.7993  0.8324 -0.8961
13284TIP3    H261344   7.103   3.894   0.843  0.7211  0.2521 -1.7015
13285TIP3   OH261345   2.480   4.927  13.227 -0.3143 -0.3445 -0.6346
13285TIP3    H161346   2.539   4.851  13.231 -1.3820 -1.2861 -1.8365
13285TIP3    H261347   2.392   4.888  13.223 -0.8685  0.9480 -1.5113
13286TIP3   OH261348   5.710   6.929  15.167 -0.0219  0.0924  0.0369
13286TIP3    H161349   5.742   6.897  15.251 -1.7702  1.0067  1.1224
13286TIP3    H261350   5.739   7.020  15.163  0.8347 -0.2012 -0.8031
13287TIP3   OH261351   5.262   3.957   4.352  0.5895 -0.1421 -0.1301
13287TIP3    H161352   5.225   3.966   4.264 -1.4273  2.1117  0.8454
13287TIP3    H261353   5.221   3.878   4.387 -1.4786  0.9152  0.0045
13288TIP3   OH261354   5.106   4.478   2.998  0.1304  0.0574  0.0493
13288TIP3    H161355   5.075   4.511   3.082  0.6890 -1.6868  1.0023
13288TIP3    H261356   5.200   4.468   3.009  0.1388 -0.7240 -0.5844
13289TIP3   OH261357   2.906   4.119   2.280 -0.2992 -0.0216 -0.5513
13289TIP3    H161358   2.853   4.107   2.358  1.9241  3.1683  1.7420
13289TIP3    H261359   2.863   4.191   2.233 -1.0409 -1.2290 -1.7882
13290TIP3   OH261360   0.191   6.995   2.737  0.5678 -0.8058 -0.0248
13290TIP3    H161361   0.283   6.968   2.730  0.5903 -0.9972  0.9000
13290TIP3    H261362   0.178   7.011   2.831 -0.8773 -2.7027  0.1597
13291TIP3   OH261363   2.995   6.779  13.883 -0.1868 -0.3708 -0.0343
13291TIP3    H161364   3.036   6.695  13.903 -2.1702 -1.7757 -1.6293
13291TIP3    H261365   2.968   6.813  13.969  0.3035 -1.5164  0.5943
13292TIP3   OH261366   5.780   1.505  11.817  0.1797  0.6825  0.3475
13292TIP3    H161367   5.858   1.539  11.773  2.6200 -1.2725  2.7721
13292TIP3    H261368   5.718   1.488  11.747  2.8468  0.1151 -2.0700
13293TIP3   OH261369   2.292   5.591   5.577 -0.8579  0.0057 -0.1807
13293TIP3    H161370   2.234   5.633   5.641 -2.1785 -2.4689  0.3669
13293TIP3    H261371   2.236   5.530   5.530  0.8008 -0.6101 -1.4699
13294TIP3   OH261372   3.364   4.689  14.799 -0.3577  0.4077 -0.6133
13294TIP3    H161373   3.284   4.639  14.785  0.0907 -0.7398  0.7408
13294TIP3    H261374   3.340   4.756  14.863  0.1176 -1.0385  1.1779
13295TIP3   OH261375   4.474   2.569   2.416  0.1681 -0.0341  0.4863
13295TIP3    H161376   4.543   2.517   2.458  0.2502  0.2623  0.7212
13295TIP3    H261377   4.485   2.551   2.323  0.4384 -0.1477  0.5375
13296TIP3   OH261378   5.847   7.160   3.136 -0.1401 -0.1549 -0.0771
13296TIP3    H161379   5.805   7.144   3.052  1.1693  1.5199 -1.1316
13296TIP3    H261380   5.931   7.115   3.129  0.6543  1.3129 -0.3572
13297TIP3   OH261381   5.318   5.035   9.840 -0.1827  0.7960  0.1583
13297TIP3    H161382   5.289   5.089   9.767 -1.1177  0.7878  0.5071
13297TIP3    H261383   5.385   5.087   9.884 -0.0959  1.0821 -0.3118
13298TIP3   OH261384   3.714   2.910  12.780  0.3215  0.0455 -0.0643
13298TIP3    H161385   3.721   2.967  12.703  0.7856 -1.0441 -0.8497
13298TIP3    H261386   3.805   2.896  12.807  0.2947 -1.2229 -0.5739
13299TIP3   OH261387   4.208   3.688   0.944 -0.0723 -0.1088 -0.0852
13299TIP3    H161388   4.127   3.697   0.995 -1.7722 -1.0473 -2.4424
13299TIP3    H261389   4.234   3.597   0.956  0.3487  0.0491  0.2295
13300TIP3   OH261390   5.497   6.038   1.449 -0.1220 -0.1980  0.2203
13300TIP3    H161391   5.408   6.072   1.457 -0.3479 -0.7652  0.1667
13300TIP3    H261392   5.491   5.972   1.380  0.1687 -0.8116  0.7775
13301TIP3   OH261393   5.563   6.722   1.324  0.0317 -0.4065  0.0311
13301TIP3    H161394   5.636   6.779   1.300  0.1879 -0.4598  0.3640
13301TIP3    H261395   5.518   6.769   1.394  0.4780 -0.9143  0.6843
13302TIP3   OH261396   2.618   3.090   2.994  0.3127 -0.3905 -0.1950
13302TIP3    H161397   2.651   3.101   3.083  0.9542  0.1811 -0.4940
13302TIP3    H261398   2.678   3.027   2.954 -1.1926 -2.2785  0.3874
13303TIP3   OH261399   3.282   6.405   0.664  0.5684  0.3500  0.2409
13303TIP3    H161400   3.241   6.324   0.636  0.6705 -0.5669  2.4902
13303TIP3    H261401   3.369   6.404   0.624 -0.0633  0.2415 -1.1596
13304TIP3   OH261402   5.337   5.771   5.286  0.1168  0.3948  0.3315
13304TIP3    H161403   5.381   5.848   5.249  0.8275 -1.0295 -1.9696
13304TIP3    H261404   5.409   5.712   5.309 -0.4734 -0.4748 -0.0209
13305TIP3   OH261405   4.411   3.628   0.750  0.1667 -0.0695  0.1072
13305TIP3    H161406   4.372   3.689   0.813 -0.6534  0.3561 -0.7882
13305TIP3    H261407   4.384   3.542   0.780  1.5538 -0.0543  1.5378
13306TIP3   OH261408   2.302   6.472   0.645  0.0333  0.0898 -0.1591
13306TIP3    H161409   2.224   6.503   0.600  0.8134  0.8278 -1.0372
13306TIP3    H261410   2.272   6.394   0.693 -1.4701  0.9500  0.3825
13307TIP3   OH261411   4.502   1.537  14.935  0.2865 -1.0478 -0.2105
13307TIP3    H161412   4.449   1.465  14.968  0.0541 -0.9499 -0.3681
13307TIP3    H261413   4.446   1.581  14.871 -0.0587  0.0474  0.7948
13308TIP3   OH261414   4.233   6.885  14.524  0.1796  0.0882  0.4418
13308TIP3    H161415   4.170   6.879  14.596 -0.6130 -0.2656 -0.2605
13308TIP3    H261416   4.179   6.896  14.446  1.0212  0.3511 -0.1187
13309TIP3   OH261417   1.773   0.015   9.902 -0.2260  0.1329 -0.0732
13309TIP3    H161418   1.695  -0.027   9.938 -0.0139  0.6191  1.0159
13309TIP3    H261419   1.755   0.109   9.911  0.5631  0.2465  0.3965
13310TIP3   OH261420   3.170   4.247   1.076  0.3152 -0.1387 -0.2997
13310TIP3    H161421   3.184   4.213   0.988  0.5511 -1.8845  0.3737
13310TIP3    H261422   3.082   4.217   1.100  1.4838 -2.5988  1.2637
13311TIP3   OH261423   1.697   6.964   2.855 -0.2540 -0.3368  0.1760
13311TIP3    H161424   1.764   6.969   2.923 -1.3912  1.2585  1.2366
13311TIP3    H261425   1.615   6.957   2.903 -0.9105 -1.9143 -1.1017
13312TIP3   OH261426   5.604   1.793  14.888  0.0304 -0.1746 -0.2466
13312TIP3    H161427   5.518   1.825  14.916  0.0580 -0.5466  0.2809
13312TIP3    H261428   5.646   1.869  14.848 -0.0297  0.3702  0.7022
13313TIP3   OH261429   2.983   4.760   3.656  0.3327 -0.1702  0.2032
13313TIP3    H161430   2.955   4.840   3.700 -1.8494  0.0675 -1.4371
13313TIP3    H261431   3.078   4.769   3.648  0.3776  1.3053  1.7936
13314TIP3   OH261432   0.152   2.926   2.951  0.4012 -0.0267  0.3729
13314TIP3    H161433   0.230   2.964   2.991  0.7269 -0.2193 -0.0771
13314TIP3    H261434   0.145   2.969   2.866  1.6668 -2.0484 -0.8282
13315TIP3   OH261435   3.218   3.220  15.136  0.1900  0.2774  0.0090
13315TIP3    H161436   3.241   3.296  15.189  1.1975 -0.0319  0.0376
13315TIP3    H261437   3.237   3.247  15.046  2.0034 -0.4076  0.1361
13316TIP3   OH261438   1.727   4.475   2.539 -0.1183  0.6988 -0.1102
13316TIP3    H161439   1.712   4.442   2.627  0.9120  2.5187  0.8035
13316TIP3    H261440   1.821   4.465   2.525 -0.1770  0.9859 -0.7588
13317TIP3   OH261441   3.857   2.615  11.700 -0.3400  0.5231  0.9763
13317TIP3    H161442   3.914   2.571  11.762  0.7488  1.6577  0.8350
13317TIP3    H261443   3.787   2.553  11.682 -0.1340 -0.2009  2.5574
13318TIP3   OH261444   6.080   5.742   3.244  0.3980 -0.5578  0.2409
13318TIP3    H161445   6.009   5.680   3.228 -0.4258  0.1295  1.1294
13318TIP3    H261446   6.158   5.687   3.253 -0.2090 -1.4131  0.3696
13319TIP3   OH261447   2.482   6.025  12.266 -0.1991  0.4287 -0.2219
13319TIP3    H161448   2.398   6.036  12.310 -0.7345 -1.6681 -0.6311
13319TIP3    H261449   2.525   5.954  12.314  0.1216 -0.4349 -1.7382
13320TIP3   OH261450   2.226   7.066  11.853 -0.1732  0.5327 -0.4122
13320TIP3    H161451   2.230   7.007  11.928 -0.8925 -0.8694 -1.4162
13320TIP3    H261452   2.190   7.147  11.887 -1.1735 -0.3245  0.6242
13321TIP3   OH261453   5.157   2.317  13.949  0.3644  0.3276  0.2410
13321TIP3    H161454   5.111   2.383  14.002 -0.2334 -0.8651  1.2472
13321TIP3    H261455   5.205   2.265  14.013 -0.6339 -1.3572 -0.3167
13322TIP3   OH261456   6.082   0.090   1.469  0.3932  0.3675 -0.9649
13322TIP3    H161457   6.165   0.088   1.518  0.7756  1.4510 -1.5284
13322TIP3    H261458   6.017   0.120   1.533  0.8654  1.6571 -1.0583
13323TIP3   OH261459   3.196   5.801   2.610  0.0355 -0.2092 -0.5037
13323TIP3    H161460   3.253   5.725   2.618  0.0797 -0.1409 -0.1369
13323TIP3    H261461   3.107   5.764   2.610  0.0440 -0.2440 -0.0033
13324TIP3   OH261462   5.577   3.295   3.344  0.0859 -0.4499  0.1179
13324TIP3    H161463   5.667   3.269   3.324  0.8484  2.2060 -0.2839
13324TIP3    H261464   5.579   3.321   3.436 -1.1221 -3.3694  1.0966
13325TIP3   OH261465   4.139   4.842  12.834 -0.7379 -0.1646 -0.0499
13325TIP3    H161466   4.106   4.891  12.759 -2.0355  0.0200  0.6027
13325TIP3    H261467   4.102   4.887  12.910 -2.0924 -2.2022  0.5696
13326TIP3   OH261468   5.199   0.249   5.591 -0.1926  0.1426  0.3943
13326TIP3    H161469   5.289   0.239   5.622  0.6610  1.6418 -1.3657
13326TIP3    H261470   5.175   0.339   5.615 -0.6691  0.2447 -0.4052
13327TIP3   OH261471   3.821   2.198  14.911  0.3271 -0.1777 -0.2186
13327TIP3    H161472   3.845   2.282  14.949 -1.9321  0.1580  0.6414
13327TIP3    H261473   3.821   2.214  14.816  2.1924  0.0752 -0.2129
13328TIP3   OH261474   6.848   5.221  13.162 -0.3781 -0.6143 -0.2684
13328TIP3    H161475   6.757   5.225  13.132 -0.1740 -0.1851 -0.8595
13328TIP3    H261476   6.898   5.198  13.084 -0.2134 -3.5301  0.5670
13329TIP3   OH261477   7.097   4.013  15.277 -0.3519  0.0348  0.4896
13329TIP3    H161478   7.025   3.984  15.222 -0.2357  2.6534 -1.2025
13329TIP3    H261479   7.121   3.935  15.328 -2.5277 -1.6419 -0.8690
13330TIP3   OH261480   6.449   6.268   5.110  0.9639 -0.5627  0.8197
13330TIP3    H161481   6.371   6.257   5.164  1.5375 -1.5521  1.4922
13330TIP3    H261482   6.522   6.261   5.172  1.5940  0.2625  0.1976
13331TIP3   OH261483   1.810   5.049   4.696  0.9019 -0.0993 -0.0093
13331TIP3    H161484   1.882   5.000   4.737  1.6444 -0.1143 -1.3041
13331TIP3    H261485   1.813   5.135   4.739  1.4583 -0.2168  0.2060
13332TIP3   OH261486   0.439   6.158  13.236  0.0112 -0.1251 -0.4082
13332TIP3    H161487   0.424   6.115  13.320 -0.3908 -0.9764 -0.9068
13332TIP3    H261488   0.391   6.241  13.243 -0.0919 -0.2279  0.1627
13333TIP3   OH261489   2.645   2.259   3.761  0.1862 -0.4534 -0.4181
13333TIP3    H161490   2.630   2.178   3.809  2.2011  0.6852  2.4254
13333TIP3    H261491   2.609   2.328   3.818  2.9137  0.9919 -0.2583
13334TIP3   OH261492   4.940   3.415  13.708 -0.3605  0.2808 -0.2316
13334TIP3    H161493   4.964   3.483  13.644  2.2015  0.1768  0.5196
13334TIP3    H261494   4.999   3.430  13.782 -0.6945 -1.9054  0.5372
13335TIP3   OH261495   2.320   2.184  13.935 -0.5821  0.1126  0.5230
13335TIP3    H161496   2.395   2.174  13.877 -0.4390  0.7649  0.5910
13335TIP3    H261497   2.355   2.227  14.013 -0.9347 -0.0210  0.7594
13336TIP3   OH261498   5.955   2.316   3.595 -0.0587  0.0057  0.3340
13336TIP3    H161499   6.003   2.385   3.640 -2.3494  1.0858  1.2408
13336TIP3    H261500   5.967   2.335   3.502 -0.3667  1.4476  0.5714
13337TIP3   OH261501   2.912   4.535   2.039  0.1146 -0.1363  0.0316
13337TIP3    H161502   2.981   4.498   2.093  0.9253  0.5759 -0.4975
13337TIP3    H261503   2.911   4.480   1.960 -0.1581 -0.3495  0.1804
13338TIP3   OH261504   3.420   3.852  13.961 -0.2403 -0.3496 -0.8797
13338TIP3    H161505   3.326   3.867  13.949 -0.0403 -0.2758 -2.8078
13338TIP3    H261506   3.444   3.909  14.034 -1.8110 -0.9535  0.1731
13339TIP3   OH261507   2.891   0.030   2.532  0.4607 -0.2602 -0.3746
13339TIP3    H161508   2.902   0.021   2.437  1.2793  0.3380 -0.3425
13339TIP3    H261509   2.797   0.041   2.544  0.3082 -0.7190 -1.0848
13340TIP3   OH261510   2.412   4.643  10.768 -1.0514 -0.0005 -0.5579
13340TIP3    H161511   2.440   4.675  10.682  1.6748 -2.6581 -0.8292
13340TIP3    H261512   2.421   4.548  10.762  1.8831 -0.2160  3.4407
13341TIP3   OH261513   2.570   0.532   2.822  0.0966  0.0124  0.3868
13341TIP3    H161514   2.533   0.578   2.897 -0.3687  0.1616  0.0670
13341TIP3    H261515   2.642   0.589   2.794  0.5798 -0.2802  1.0067
13342TIP3   OH261516   2.722   7.100  10.977  0.3359 -0.1670  0.5022
13342TIP3    H161517   2.780   7.027  10.953 -0.8236 -0.2431 -2.3455
13342TIP3    H261518   2.727   7.161  10.904 -2.3824  0.3184  0.6228
13343TIP3   OH261519   2.089   4.344   4.185  0.1585  0.2736 -0.5739
13343TIP3    H161520   2.058   4.403   4.254  1.2916  0.7439 -0.4356
13343TIP3    H261521   2.112   4.403   4.112 -0.2331 -0.1427 -1.0342
13344TIP3   OH261522   2.165   4.601   2.547  0.0570 -0.1983 -0.1159
13344TIP3    H161523   2.075   4.630   2.560  0.2526 -0.1095  1.1510
13344TIP3    H261524   2.215   4.681   2.531  0.0781 -0.1431  0.2219
13345TIP3   OH261525   6.594   0.424   1.878  0.6283  0.0371 -0.7226
13345TIP3    H161526   6.600   0.371   1.799  0.0648  1.4133 -1.7181
13345TIP3    H261527   6.618   0.364   1.949  2.6220 -0.8268 -2.0641
13346TIP3   OH261528   1.545   5.508   3.195  0.5587 -0.1777 -0.7826
13346TIP3    H161529   1.549   5.594   3.152  1.0509 -1.3255 -3.1526
13346TIP3    H261530   1.631   5.498   3.237  0.5930  0.3629 -0.7153
13347TIP3   OH261531   7.058   0.688   5.423  0.0824  0.5246  0.0806
13347TIP3    H161532   7.091   0.667   5.335  0.2283 -4.4722  1.0489
13347TIP3    H261533   6.975   0.732   5.407 -0.4518 -1.2044 -2.6509
13348TIP3   OH261534   1.482   1.898  14.555  0.6393 -0.7440  0.1559
13348TIP3    H161535   1.515   1.956  14.623  0.9231 -1.1106  0.3375
13348TIP3    H261536   1.388   1.895  14.569  0.3658  1.1394 -1.0079
13349TIP3   OH261537   6.449   4.050   3.124  0.0548 -0.1393 -0.8049
13349TIP3    H161538   6.536   4.081   3.149 -0.1606 -0.0724 -0.1227
13349TIP3    H261539   6.464   3.959   3.096 -0.0326 -1.0864  1.9469
13350TIP3   OH261540   1.048   6.703   4.827 -0.0012 -0.6744 -0.0871
13350TIP3    H161541   0.960   6.740   4.838  0.2130 -0.0669 -0.3524
13350TIP3    H261542   1.050   6.673   4.737  0.1113 -0.5480 -0.1273
13351TIP3   OH261543   3.710   5.462   2.014  0.8009 -0.5263  0.7713
13351TIP3    H161544   3.803   5.453   2.033  0.6372 -0.7017  1.5392
13351TIP3    H261545   3.682   5.374   1.989  0.6850 -0.6311  1.2727
13352TIP3   OH261546   2.969   1.810  12.321  0.1232 -0.6042 -0.2766
13352TIP3    H161547   2.917   1.851  12.251 -0.3381  0.5740  0.7218
13352TIP3    H261548   3.057   1.805  12.285  0.1171  0.9881 -0.5728
13353TIP3   OH261549   0.723   2.084  10.910  0.2035 -0.1509 -0.0746
13353TIP3    H161550   0.752   2.140  10.838  3.8817 -0.8755  0.6869
13353TIP3    H261551   0.679   2.010  10.866 -0.4600  0.9470 -1.3288
13354TIP3   OH261552   4.475   1.971   0.658  0.0619  0.3372  0.0110
13354TIP3    H161553   4.439   1.901   0.712  0.6777 -0.0448 -0.0673
13354TIP3    H261554   4.523   2.026   0.720 -1.0507  1.1364  0.2022
13355TIP3   OH261555   0.287   7.089  12.664 -0.3603 -0.6978 -0.7385
13355TIP3    H161556   0.382   7.085  12.649  0.1184  1.3447  1.0935
13355TIP3    H261557   0.277   7.075  12.758 -1.9898 -1.6870 -1.0238
13356TIP3   OH261558   1.967   6.300   3.308  0.2520 -0.1512 -0.3142
13356TIP3    H161559   1.933   6.389   3.304 -0.2520 -0.3983 -1.9785
13356TIP3    H261560   2.000   6.292   3.398  0.8781  1.9002 -0.3025
13357TIP3   OH261561   2.444   6.158   4.346 -0.4503 -0.4207  0.7833
13357TIP3    H161562   2.429   6.216   4.271 -1.2511 -1.6099 -0.0238
13357TIP3    H261563   2.537   6.138   4.343 -0.6294 -1.1537 -0.4509
13358TIP3   OH261564   6.883   5.363   2.695 -0.2269  0.0828  0.1977
13358TIP3    H161565   6.795   5.398   2.684 -0.2659 -0.2612 -0.7143
13358TIP3    H261566   6.870   5.269   2.711 -0.0087 -0.7452 -3.4046
13359TIP3   OH261567   4.935   5.467   1.829  0.1564 -0.5799 -0.2058
13359TIP3    H161568   5.022   5.450   1.793  0.9219 -1.7124  1.9385
13359TIP3    H261569   4.938   5.558   1.857 -0.5221  0.3810 -2.9720
13360TIP3   OH261570   5.052   2.859   3.353  0.4503  0.7147  0.4127
13360TIP3    H161571   5.010   2.944   3.345  0.9424  1.0938  1.7333
13360TIP3    H261572   5.100   2.862   3.436  1.6593 -0.3299 -0.1996
13361TIP3   OH261573   2.692   5.922   2.168  0.3998  0.8128 -0.0947
13361TIP3    H161574   2.659   5.838   2.135  0.6289  0.6315  0.1352
13361TIP3    H261575   2.645   5.988   2.117 -0.5404  0.5668  0.4389
13362TIP3   OH261576   1.746   6.872   4.006  0.5284  0.1903 -0.0415
13362TIP3    H161577   1.778   6.946   3.954  0.2263  0.5591  0.2877
13362TIP3    H261578   1.654   6.893   4.023  0.4291 -0.2882  0.0137
13363TIP3   OH261579   0.401   3.528  14.679 -0.4007  0.0339 -0.4540
13363TIP3    H161580   0.484   3.571  14.699  0.6174 -1.8211 -0.5186
13363TIP3    H261581   0.392   3.460  14.746 -0.9006 -1.0398 -1.5732
13364TIP3   OH261582   0.263   6.378  14.660  0.1015  0.1777 -0.4618
13364TIP3    H161583   0.236   6.391  14.751 -1.3768  2.0599 -1.1055
13364TIP3    H261584   0.291   6.286  14.656 -1.7184 -0.5288  1.4157
13365TIP3   OH261585   0.897   3.941   3.542 -0.2499 -0.4936  0.2121
13365TIP3    H161586   0.911   4.024   3.588  0.1998 -0.5674  0.2214
13365TIP3    H261587   0.875   3.966   3.453 -2.6000 -0.3047  0.7769
13366TIP3   OH261588   6.637   1.881   1.581  0.1575  0.0636 -0.4885
13366TIP3    H161589   6.587   1.804   1.556 -1.1851  1.0274 -0.8743
13366TIP3    H261590   6.723   1.868   1.540 -0.2558 -0.9193 -1.0811
13367TIP3   OH261591   6.263   3.605   1.917 -0.1842  0.1326 -0.2952
13367TIP3    H161592   6.319   3.565   1.983 -2.5795 -2.3445  0.4225
13367TIP3    H261593   6.302   3.578   1.834 -0.5150 -2.0021  0.1880
13368TIP3   OH261594   1.880   4.473  15.400 -0.6119 -0.3981  0.2066
13368TIP3    H161595   1.822   4.523  15.342  1.7506  1.6616 -0.5184
13368TIP3    H261596   1.901   4.395  15.350 -2.2697 -0.9414  0.2771
13369TIP3   OH261597   2.429   0.948   2.030  0.7291 -0.6372  0.0077
13369TIP3    H161598   2.402   0.868   2.077  0.3199 -1.3382 -1.3693
13369TIP3    H261599   2.521   0.960   2.054  1.0134 -1.9588 -0.3355
13370TIP3   OH261600   1.327   4.186   1.480  0.3872 -0.0373 -0.4940
13370TIP3    H161601   1.252   4.208   1.535  0.6850 -0.6764  0.1914
13370TIP3    H261602   1.379   4.126   1.533  1.4460  0.4801 -0.9190
13371TIP3   OH261603   1.493   3.077  11.632  0.0878  0.0906  0.0804
13371TIP3    H161604   1.433   3.130  11.579  0.3807 -0.1423 -0.4917
13371TIP3    H261605   1.487   2.989  11.593  1.6646  0.3142 -0.7241
13372TIP3   OH261606   1.652   6.672  14.038  0.2429 -0.0896 -0.0607
13372TIP3    H161607   1.560   6.663  14.012  0.3498  0.9132 -0.8823
13372TIP3    H261608   1.699   6.612  13.981  0.1552 -0.1320 -0.0894
13373TIP3   OH261609   1.132   3.854   3.287 -0.4422 -0.7120  0.3667
13373TIP3    H161610   1.146   3.822   3.376 -1.2589 -0.1933  0.6924
13373TIP3    H261611   1.219   3.880   3.257  0.5647 -4.4220 -0.4252
13374TIP3   OH261612   5.953   4.739  12.871  0.2541  0.2774  0.2451
13374TIP3    H161613   5.982   4.721  12.961  2.8501 -0.2763 -0.6374
13374TIP3    H261614   5.863   4.705  12.868  0.8549 -1.6810  2.0270
13375TIP3   OH261615   6.004   0.829   4.347  0.0082 -0.0993 -0.0466
13375TIP3    H161616   6.076   0.780   4.306 -1.0263 -2.0653  0.3812
13375TIP3    H261617   5.929   0.769   4.344 -1.5235  1.7156 -0.0704
13376TIP3   OH261618   4.008   4.643  12.100 -0.2368 -0.4300  0.0053
13376TIP3    H161619   3.942   4.593  12.051 -1.0710  1.2050 -0.6022
13376TIP3    H261620   4.009   4.729  12.058 -0.5920  0.8690  2.4798
13377TIP3   OH261621   0.151   2.907  10.005 -0.0905  0.7666  0.5497
13377TIP3    H161622   0.169   2.933  10.096  1.6075  1.3217  0.0989
13377TIP3    H261623   0.127   2.989   9.961  0.2990  0.7100  0.2294
13378TIP3   OH261624   5.409   3.279  13.315 -0.1426  0.0979  0.8243
13378TIP3    H161625   5.358   3.198  13.309  0.8238 -0.4328 -2.9270
13378TIP3    H261626   5.348   3.344  13.349 -1.7473 -1.6074  1.3501
13379TIP3   OH261627   1.819   4.575   1.667  0.0347  0.1546 -0.0519
13379TIP3    H161628   1.822   4.548   1.575  1.3432  0.1906 -0.0407
13379TIP3    H261629   1.741   4.533   1.701  0.4674 -1.3170 -0.7595
13380TIP3   OH261630   1.739   3.435  15.215 -0.3309  0.4326  0.1402
13380TIP3    H161631   1.735   3.527  15.241 -0.6695  0.8790 -1.3823
13380TIP3    H261632   1.662   3.396  15.256  0.3026  0.5971  1.5462
13381TIP3   OH261633   6.336   6.687   2.955  0.2802 -0.0235 -0.2722
13381TIP3    H161634   6.404   6.754   2.944 -0.6696  1.0217  0.0796
13381TIP3    H261635   6.340   6.663   3.048  0.0367  0.1818 -0.2086
13382TIP3   OH261636   2.752   4.068   2.491  0.5620  0.0348 -0.3999
13382TIP3    H161637   2.764   3.980   2.525 -0.8314 -0.1476 -0.3410
13382TIP3    H261638   2.784   4.126   2.560 -0.9785 -0.3659  0.6931
13383TIP3   OH261639   4.149   4.305   3.623  0.0730 -0.1370 -0.5380
13383TIP3    H161640   4.134   4.354   3.704  1.4510  1.2728 -1.0921
13383TIP3    H261641   4.078   4.332   3.565 -0.2381 -0.2539 -0.2178
13384TIP3   OH261642   3.834   3.685   0.270 -0.1146  0.2543 -0.6238
13384TIP3    H161643   3.915   3.658   0.314 -0.7974 -0.7444  0.0713
13384TIP3    H261644   3.836   3.640   0.185 -0.6287 -1.0086  0.0039
13385TIP3   OH261645   3.352   1.556   2.084  0.6454 -0.1146 -0.0614
13385TIP3    H161646   3.277   1.552   2.144  0.6468 -1.8889 -0.1499
13385TIP3    H261647   3.427   1.574   2.140  0.4033  0.0007  0.2290
13386TIP3   OH261648   0.896   0.246   3.832 -0.3666 -0.4247 -0.2442
13386TIP3    H161649   0.852   0.259   3.916 -1.6861 -2.1612 -0.6243
13386TIP3    H261650   0.969   0.188   3.852 -0.0168  0.0544 -0.1190
13387TIP3   OH261651   0.744   6.022  12.989 -0.2251  0.2374 -0.5965
13387TIP3    H161652   0.767   6.095  13.047 -1.6241  0.5378 -0.3896
13387TIP3    H261653   0.791   6.040  12.908  0.2317  0.8372 -0.2105
13388TIP3   OH261654   1.412   3.815   0.251  0.5783  0.0170  0.0796
13388TIP3    H161655   1.450   3.882   0.308 -0.2160 -0.0891  0.7638
13388TIP3    H261656   1.376   3.750   0.312 -0.1678 -0.1680 -0.5396
13389TIP3   OH261657   5.084   0.803   3.603 -0.2376 -0.0413  0.4987
13389TIP3    H161658   5.134   0.879   3.574  1.2049 -1.2157 -0.2134
13389TIP3    H261659   5.119   0.783   3.689  0.2233 -0.6028  0.1844
13390TIP3   OH261660   4.215   5.838   0.113  0.2954 -0.4370 -0.7993
13390TIP3    H161661   4.202   5.805   0.024 -1.9875 -1.4072 -0.2001
13390TIP3    H261662   4.128   5.830   0.154  1.2231  0.1909  1.4454
13391TIP3   OH261663   1.068   0.845  14.996 -0.1701 -0.6958  0.5701
13391TIP3    H161664   1.151   0.889  15.016 -0.5783  1.2015 -1.5068
13391TIP3    H261665   1.001   0.909  15.019 -0.8803 -0.8673 -0.9221
13392TIP3   OH261666   3.302   6.007   5.648  0.2429 -0.4941  0.2589
13392TIP3    H161667   3.285   6.044   5.734 -2.8123  1.3403 -0.9648
13392TIP3    H261668   3.345   6.077   5.599 -0.2506 -0.6211 -0.3767
13393TIP3   OH261669   5.207   0.601  12.875 -0.2313  0.2536 -0.1489
13393TIP3    H161670   5.139   0.659  12.840  0.2065  1.3248  0.7129
13393TIP3    H261671   5.159   0.540  12.932 -0.4928  1.0334  0.4966
13394TIP3   OH261672   5.682   1.976  14.698 -0.2226 -0.2320 -0.2588
13394TIP3    H161673   5.702   2.051  14.753 -0.8704 -0.0092 -0.3230
13394TIP3    H261674   5.756   1.970  14.637  1.2709 -1.3877  1.5491
13395TIP3   OH261675   3.841   1.692   3.804  0.0716 -0.1704  0.1990
13395TIP3    H161676   3.748   1.677   3.820  0.2865  0.3752  2.3258
13395TIP3    H261677   3.886   1.649   3.877  1.4371  0.2628 -0.3393
13396TIP3   OH261678   1.847   3.491  13.331  0.4976 -0.0394  0.3721
13396TIP3    H161679   1.835   3.551  13.404 -2.2175  1.4568 -1.1547
13396TIP3    H261680   1.779   3.425  13.343 -0.0567  0.2864 -0.8167
13397TIP3   OH261681   4.151   6.051   3.568 -0.0008 -0.2402 -0.2274
13397TIP3    H161682   4.231   6.057   3.517  0.7778 -1.6449  0.7768
13397TIP3    H261683   4.148   5.960   3.598 -0.1580  0.6069  2.6043
13398TIP3   OH261684   4.621   3.838   0.445 -0.1857 -0.3708 -0.1037
13398TIP3    H161685   4.636   3.857   0.352  2.5527 -0.2306  0.2853
13398TIP3    H261686   4.697   3.786   0.471  0.0860  1.1786  2.5148
13399TIP3   OH261687   0.525   6.700   1.933  0.3581  0.1912 -0.1884
13399TIP3    H161688   0.619   6.693   1.913  0.2233 -0.3847 -0.6587
13399TIP3    H261689   0.510   6.794   1.942  0.7398  0.3876 -1.3726
13400TIP3   OH261690   0.684   5.154   1.022  0.0951  0.3419 -0.1143
13400TIP3    H161691   0.749   5.132   1.088 -1.3284 -1.0264  0.9157
13400TIP3    H261692   0.689   5.083   0.958 -0.7410 -0.0873  0.2756
13401TIP3   OH261693   1.371   3.656  14.812 -0.8323 -0.7254 -0.2101
13401TIP3    H161694   1.288   3.650  14.765  0.7185  2.9104 -4.0251
13401TIP3    H261695   1.380   3.748  14.834  2.5060 -0.7780 -0.8019
13402TIP3   OH261696   1.171   2.711  14.762 -0.3057  0.4220  0.4096
13402TIP3    H161697   1.209   2.796  14.787  0.3008  1.2457 -2.8514
13402TIP3    H261698   1.090   2.734  14.716  0.0121 -0.7208 -0.7634
13403TIP3   OH261699   4.129   0.097   3.028  0.2842 -0.4375  0.4013
13403TIP3    H161700   4.145   0.148   3.107 -1.8223  0.3961  0.3454
13403TIP3    H261701   4.042   0.123   2.999  0.0208 -2.4862 -0.8674
13404TIP3   OH261702   2.912   6.790   1.645 -0.3310 -0.5817  0.1912
13404TIP3    H161703   2.852   6.865   1.649 -0.6743 -0.8166 -0.4110
13404TIP3    H261704   2.895   6.751   1.559  2.0528  0.4746 -0.8635
13405TIP3   OH261705   6.391   0.699   3.765  0.0605  0.7974  0.0393
13405TIP3    H161706   6.360   0.624   3.714  0.4785  0.8533 -0.2982
13405TIP3    H261707   6.412   0.765   3.699  1.2647  0.6264  0.2371
13406TIP3   OH261708   2.787   0.559   2.399 -0.1145  0.2089  0.3164
13406TIP3    H161709   2.810   0.488   2.458 -1.3790 -0.4476  0.0411
13406TIP3    H261710   2.704   0.593   2.432 -0.8731 -0.2006 -1.0853
13407TIP3   OH261711   2.917   2.577   1.674 -0.6358  0.3778 -0.3670
13407TIP3    H161712   2.948   2.503   1.727 -0.1088  0.2187 -0.8819
13407TIP3    H261713   2.823   2.563   1.668 -0.9524  1.2395  1.7839
13408TIP3   OH261714   0.415   4.505  15.170 -0.3073 -0.0194 -0.6476
13408TIP3    H161715   0.465   4.444  15.117 -0.8812  0.5223 -1.8459
13408TIP3    H261716   0.331   4.514  15.124 -0.6417  0.8364  0.0901
13409TIP3   OH261717   4.383   6.963   1.143 -0.2042  0.4186  0.0355
13409TIP3    H161718   4.441   6.946   1.069  0.9531 -1.4885  1.2630
13409TIP3    H261719   4.296   6.965   1.105  0.5271  2.0892 -1.7015
13410TIP3   OH261720   4.167   6.555  14.429 -0.3443  0.6965  0.0238
13410TIP3    H161721   4.210   6.533  14.512 -0.3437  0.9261  0.0840
13410TIP3    H261722   4.087   6.600  14.456 -1.6601 -1.4689 -0.0049
13411TIP3   OH261723   4.051   5.634   1.533 -0.6573 -0.2013 -0.1405
13411TIP3    H161724   4.006   5.648   1.617  0.9476  3.6720  0.3299
13411TIP3    H261725   3.984   5.653   1.467 -1.1608 -0.1519  0.3689
13412TIP3   OH261726   3.713   2.967  11.139 -0.0047  0.2287  0.1573
13412TIP3    H161727   3.789   2.991  11.192  0.2360 -0.1379 -0.0135
13412TIP3    H261728   3.720   3.022  11.062 -1.4144  2.1562  1.3435
13413TIP3   OH261729   4.749   2.218  15.403 -0.4175 -0.0156 -0.8734
13413TIP3    H161730   4.752   2.169  15.485  0.7457 -1.0221 -1.4845
13413TIP3    H261731   4.728   2.307  15.430  2.3433  0.2607  0.8392
13414TIP3   OH261732   5.280   2.367   3.246 -0.3219  0.0219 -0.5102
13414TIP3    H161733   5.333   2.447   3.241  0.9275 -0.8047 -0.9958
13414TIP3    H261734   5.192   2.396   3.224  0.0679  1.2977 -0.5155
13415TIP3   OH261735   5.215   0.724   1.917 -0.6117  0.5771 -0.2584
13415TIP3    H161736   5.139   0.744   1.971 -0.1496  1.1769  0.1725
13415TIP3    H261737   5.264   0.806   1.914  0.4435 -0.0316  0.1484
13416TIP3   OH261738   3.835   3.342  10.804 -0.1749  0.3494  0.1470
13416TIP3    H161739   3.858   3.432  10.828 -1.7456  0.7450  0.2962
13416TIP3    H261740   3.907   3.313  10.748  0.8672  1.3291  0.9236
13417TIP3   OH261741   0.332   1.226  12.748 -0.3659 -0.1186  0.4295
13417TIP3    H161742   0.366   1.208  12.661 -0.7925 -0.4365  0.3244
13417TIP3    H261743   0.277   1.304  12.736  0.5722  0.6031  0.6652
13418TIP3   OH261744   1.622   4.768   9.743  0.3657  0.1342  0.2466
13418TIP3    H161745   1.705   4.725   9.723  0.0357  0.3680 -1.9117
13418TIP3    H261746   1.646   4.856   9.770  0.8283  0.3966 -0.9540
13419TIP3   OH261747   6.841   0.956   0.994 -0.3351  0.1113 -0.5762
13419TIP3    H161748   6.823   1.049   0.979 -2.4581 -0.2891 -0.8954
13419TIP3    H261749   6.754   0.918   1.008  0.6819 -1.2019  3.4548
13420TIP3   OH261750   2.695   5.112   1.972 -0.2893  0.1639  0.0841
13420TIP3    H161751   2.678   5.201   2.002  0.9030  0.5308 -0.2751
13420TIP3    H261752   2.699   5.119   1.877  0.6307 -0.1085  0.0946
13421TIP3   OH261753   6.879   1.345  12.934  0.6286 -0.5005 -0.0812
13421TIP3    H161754   6.898   1.432  12.898  0.5870 -0.5310 -0.1748
13421TIP3    H261755   6.962   1.298  12.928  0.6670 -0.4477  0.0256
13422TIP3   OH261756   5.638   3.716   1.139  0.1134  0.2611  0.4412
13422TIP3    H161757   5.656   3.775   1.213 -1.1800 -0.2133  1.1859
13422TIP3    H261758   5.587   3.770   1.078 -0.9397 -0.0048  1.0537
13423TIP3   OH261759   1.282   6.943  15.114  0.1348  0.2312  0.1002
13423TIP3    H161760   1.229   6.886  15.171  0.2965  0.0523  0.0723
13423TIP3    H261761   1.255   6.919  15.026  0.1458  0.2535  0.0909
13424TIP3   OH261762   5.933   2.495   1.027  0.0759  0.4171 -0.3826
13424TIP3    H161763   5.918   2.518   1.118 -0.2831 -0.2299 -0.2768
13424TIP3    H261764   5.851   2.517   0.982 -1.1544 -2.6530  0.1108
13425TIP3   OH261765   2.249   3.633   1.572 -0.1918 -0.7433 -0.0527
13425TIP3    H161766   2.157   3.609   1.569 -0.5466  0.5925 -0.9925
13425TIP3    H261767   2.285   3.600   1.489  0.5711 -2.5760  0.9409
13426TIP3   OH261768   6.668   2.046   0.421 -0.1575  0.0220  0.1719
13426TIP3    H161769   6.690   1.955   0.443  1.8012  0.6925  1.1922
13426TIP3    H261770   6.606   2.072   0.488 -0.7946 -0.5687 -0.1729
13427TIP3   OH261771   5.050   1.085   0.592 -0.2392 -0.1494  0.6602
13427TIP3    H161772   5.103   1.008   0.613  0.1488 -0.1591 -0.3084
13427TIP3    H261773   5.037   1.080   0.498  0.4416  1.3686  0.4510
13428TIP3   OH261774   0.020   3.036   2.348 -0.0863  0.0430  0.9037
13428TIP3    H161775   0.024   3.094   2.425 -2.0592  1.2986  0.1227
13428TIP3    H261776  -0.061   3.060   2.304 -0.8295 -3.1119  0.3233
13429TIP3   OH261777   2.007   5.617  13.745  0.1722 -0.1859  0.2597
13429TIP3    H161778   1.989   5.698  13.697  0.3554 -2.3909 -4.0369
13429TIP3    H261779   2.102   5.609  13.744  0.1303 -0.7168  0.1054
13430TIP3   OH261780   4.224   2.107   1.745 -0.4424  0.1770 -0.0367
13430TIP3    H161781   4.157   2.130   1.681 -1.7024 -0.6753  0.9417
13430TIP3    H261782   4.246   2.190   1.787  0.1136  0.6826 -1.2564
13431TIP3   OH261783   7.165   6.788   3.037 -0.2572  0.0924  0.9924
13431TIP3    H161784   7.143   6.701   3.071 -0.3973 -0.4442 -0.3991
13431TIP3    H261785   7.260   6.792   3.040 -0.0699 -1.1108 -1.1517
13432TIP3   OH261786   4.967   1.402   5.346  0.2727 -0.2593  0.2149
13432TIP3    H161787   4.889   1.420   5.399  1.4257  1.8572  1.3049
13432TIP3    H261788   4.934   1.350   5.272 -1.9449 -0.4449  1.2573
13433TIP3   OH261789   0.259   4.375   3.367 -0.5162  0.3106 -0.0229
13433TIP3    H161790   0.286   4.458   3.329 -0.6076 -0.3279 -1.5834
13433TIP3    H261791   0.167   4.387   3.391 -0.6917  0.4978 -0.7736
13434TIP3   OH261792   5.575   6.608   2.414  0.5482  0.3453 -0.3542
13434TIP3    H161793   5.555   6.672   2.346  0.0652  0.1914 -0.3556
13434TIP3    H261794   5.648   6.557   2.378  0.3063  0.2759 -0.7499
13435TIP3   OH261795   5.291   1.915  14.336  0.1005 -0.2289  0.9700
13435TIP3    H161796   5.369   1.907  14.280  2.4781 -0.8680  4.1055
13435TIP3    H261797   5.263   1.825  14.351 -0.7949 -0.0397  0.4885
13436TIP3   OH261798   1.682   5.377   1.029 -0.4441 -0.4696 -0.1888
13436TIP3    H161799   1.687   5.360   0.935  0.1553 -0.7981 -0.1065
13436TIP3    H261800   1.755   5.438   1.045 -0.7588 -0.1398  0.0092
13437TIP3   OH261801   4.158   2.007   0.029  0.4203  0.4783 -0.2102
13437TIP3    H161802   4.175   1.914   0.012 -1.0927  0.2443 -0.5553
13437TIP3    H261803   4.198   2.023   0.115 -0.5340 -0.8709  0.5356
13438TIP3   OH261804   5.982   6.543   3.611 -0.4639  0.1810 -0.6664
13438TIP3    H161805   5.981   6.576   3.522  2.1239  0.7576 -0.5802
13438TIP3    H261806   5.969   6.620   3.666 -1.6733 -0.1139 -0.5232
13439TIP3   OH261807   3.297   3.490   0.470 -0.1833  0.3226 -0.1615
13439TIP3    H161808   3.277   3.575   0.431 -1.3403  0.8307  1.4321
13439TIP3    H261809   3.239   3.428   0.426  0.0277  0.5112 -0.7063
13440TIP3   OH261810   2.593   1.398   3.574 -0.5551  0.5881 -0.2677
13440TIP3    H161811   2.596   1.373   3.667  0.4684  0.0593 -0.4313
13440TIP3    H261812   2.529   1.338   3.536 -0.1178  0.0177 -0.1218
13441TIP3   OH261813   1.325   4.777  13.325 -0.3703 -0.1826 -0.0208
13441TIP3    H161814   1.341   4.862  13.365  0.7696 -0.3589 -0.0532
13441TIP3    H261815   1.354   4.787  13.235  1.5044 -1.0643  0.4208
13442TIP3   OH261816   6.158   6.851   2.277  0.1186 -0.5592  0.2074
13442TIP3    H161817   6.065   6.872   2.283  0.3012  0.4119 -0.2154
13442TIP3    H261818   6.188   6.850   2.368  0.0300  0.7070  0.2600
13443TIP3   OH261819   7.084   2.120   2.434  0.0929 -0.5533  0.5045
13443TIP3    H161820   7.114   2.057   2.500 -0.0377 -3.7485 -2.1698
13443TIP3    H261821   7.153   2.118   2.366 -1.5454 -0.5159 -1.2429
13444TIP3   OH261822   5.624   0.318  13.676 -0.1706  0.0886  0.5949
13444TIP3    H161823   5.620   0.344  13.584  0.4608  0.0456  0.5503
13444TIP3    H261824   5.533   0.298  13.700 -0.6653  2.0882  0.5569
13445TIP3   OH261825   5.432   1.860   4.995  0.3525  0.3580 -0.3383
13445TIP3    H161826   5.489   1.886   5.067 -1.3593  1.6823  0.6083
13445TIP3    H261827   5.376   1.936   4.980 -2.3924 -1.4654  0.0019
13446TIP3   OH261828   0.203   5.764   1.969 -0.1420 -0.1676 -0.0554
13446TIP3    H161829   0.150   5.832   1.928 -2.5576 -2.3296 -0.8039
13446TIP3    H261830   0.266   5.739   1.902  1.4362  1.8777  0.5580
13447TIP3   OH261831   0.471   1.454  15.388 -0.4263  0.0553 -0.3580
13447TIP3    H161832   0.530   1.384  15.357  1.2719  1.8902 -1.5218
13447TIP3    H261833   0.389   1.438  15.343 -0.3157 -1.5947 -0.0334
13448TIP3   OH261834   3.611   1.198   2.859 -0.2442  0.2806  0.6458
13448TIP3    H161835   3.706   1.189   2.852 -0.2497  0.0124  0.9065
13448TIP3    H261836   3.576   1.135   2.795 -0.2486  0.3231  0.6062
13449TIP3   OH261837   0.153   3.428   0.235  0.1126 -0.5648  0.3893
13449TIP3    H161838   0.133   3.476   0.155 -0.7015 -1.0879  0.2729
13449TIP3    H261839   0.230   3.375   0.212 -1.2426 -2.1859 -0.6882
13450TIP3   OH261840   4.306   3.678  12.314 -0.2258 -0.7069  0.8858
13450TIP3    H161841   4.376   3.735  12.284 -1.5566  0.4272 -0.2049
13450TIP3    H261842   4.345   3.591  12.315  0.7437 -0.3823 -1.4138
13451TIP3   OH261843   3.918   0.661  14.524 -0.1186  0.5197  0.1169
13451TIP3    H161844   3.874   0.746  14.519  0.0220  0.5829 -0.0640
13451TIP3    H261845   3.871   0.606  14.460  0.1370  0.6211 -0.1609
13452TIP3   OH261846   0.127   6.687  13.616  0.2894  0.6148 -0.0477
13452TIP3    H161847   0.170   6.606  13.643  0.5966  0.5650 -0.6768
13452TIP3    H261848   0.112   6.676  13.522  0.8275  1.5208 -0.2419
13453TIP3   OH261849   5.005   6.590   4.486 -0.6604  0.0988  0.4767
13453TIP3    H161850   4.931   6.605   4.428  0.2446  1.2508 -0.4320
13453TIP3    H261851   5.038   6.504   4.461 -1.1264 -0.0128  0.2438
13454TIP3   OH261852   3.140   0.261   4.798  0.1802  0.1758 -0.2057
13454TIP3    H161853   3.153   0.176   4.756 -0.3041 -0.0375  0.0616
13454TIP3    H261854   3.218   0.275   4.851 -0.4020 -0.8333  0.9756
13455TIP3   OH261855   1.589   5.825   0.137 -0.2112  0.4736  0.1398
13455TIP3    H161856   1.538   5.905   0.122 -0.5078  0.1770 -0.4261
13455TIP3    H261857   1.534   5.754   0.105  0.4215  0.1171 -0.1741
13456TIP3   OH261858   1.505   6.779   1.824  0.0886  0.6601 -0.1626
13456TIP3    H161859   1.565   6.789   1.750 -0.2639  1.4652 -0.3515
13456TIP3    H261860   1.427   6.738   1.786  0.6991 -0.9291  0.1914
13457TIP3   OH261861   3.340   6.583   0.182 -0.4216  0.1094  0.5678
13457TIP3    H161862   3.322   6.668   0.221  1.2671 -0.1731  2.1168
13457TIP3    H261863   3.382   6.603   0.099 -3.3541  0.7214 -0.9140
13458TIP3   OH261864   3.663   2.112  10.380 -0.4830  0.3322  0.0788
13458TIP3    H161865   3.585   2.103  10.325  0.4010 -1.8527 -0.8991
13458TIP3    H261866   3.676   2.026  10.419  1.7185  0.5130 -0.1412
13459TIP3   OH261867   0.035   2.785   1.888 -0.6488 -0.3445 -0.1010
13459TIP3    H161868  -0.051   2.743   1.884 -0.1196 -1.4965  0.1178
13459TIP3    H261869   0.053   2.796   1.982 -1.8589  2.7648 -0.1239
13460TIP3   OH261870   2.041   2.445  11.990  0.0516 -0.4220  0.4353
13460TIP3    H161871   2.021   2.510  11.923  0.3440  0.2879  1.0219
13460TIP3    H261872   2.101   2.384  11.946  0.1737 -0.0147  0.0178
13461TIP3   OH261873   4.726   7.190   4.184 -0.4122  0.0924  0.2275
13461TIP3    H161874   4.754   7.241   4.260  0.7819 -0.0133 -0.1153
13461TIP3    H261875   4.707   7.255   4.117  0.7873  0.1373 -0.1021
13462TIP3   OH261876   3.585   7.022   2.034 -0.4224  0.2807 -0.2526
13462TIP3    H161877   3.544   7.008   2.119  0.5382  1.1817  0.3888
13462TIP3    H261878   3.563   7.112   2.011  0.7357  0.6102 -0.1331
13463TIP3   OH261879   3.762   3.940   0.495 -0.3500 -0.3857 -0.0314
13463TIP3    H161880   3.725   3.854   0.517  1.2263 -0.8697  0.8934
13463TIP3    H261881   3.843   3.919   0.448 -0.0211  0.5930  0.0783
13464TIP3   OH261882   0.749   3.727   0.808  0.1594 -0.0951 -0.4835
13464TIP3    H161883   0.795   3.764   0.733  2.5055 -0.4793  0.6656
13464TIP3    H261884   0.812   3.732   0.880 -1.9900  0.2508  1.4947
13465TIP3   OH261885   1.220   1.101   0.506  0.2951  0.1475  0.1353
13465TIP3    H161886   1.309   1.139   0.506  0.1043  0.6213 -0.5475
13465TIP3    H261887   1.162   1.177   0.515 -0.1547  0.2573 -2.7659
13466TIP3   OH261888   6.151   7.101   5.525  0.3385  0.0732  0.0252
13466TIP3    H161889   6.148   7.196   5.527 -2.4009  0.1874 -2.3313
13466TIP3    H261890   6.115   7.074   5.610  0.2409  1.1759  0.3422
13467TIP3   OH261891   7.080   5.733   4.027  0.2127 -0.3561  0.1730
13467TIP3    H161892   7.006   5.762   4.082 -0.8924 -1.9557 -0.4013
13467TIP3    H261893   7.096   5.643   4.054  2.0780 -0.0106  0.3528
13468TIP3   OH261894   1.643   6.598  12.384  0.1988  0.4615  0.3120
13468TIP3    H161895   1.734   6.624  12.371 -0.3188  2.1275 -0.1839
13468TIP3    H261896   1.649   6.509  12.418  2.0495  1.0723  1.7533
13469TIP3   OH261897   2.182   5.201  15.315 -0.0396 -0.0180  0.4573
13469TIP3    H161898   2.247   5.158  15.370  0.2740  0.4115  0.4270
13469TIP3    H261899   2.149   5.273  15.369 -2.0160 -1.4545  1.2835
13470TIP3   OH261900   1.727   7.220  14.623  0.0805  0.2615  0.2412
13470TIP3    H161901   1.736   7.279  14.698  0.9745  0.3270  0.0944
13470TIP3    H261902   1.794   7.250  14.562  1.3192 -1.5940  0.6255
13471TIP3   OH261903   1.381   6.365  13.484  0.4585  0.0872 -0.1954
13471TIP3    H161904   1.445   6.319  13.538  0.1697  0.0755  0.1475
13471TIP3    H261905   1.305   6.376  13.542 -0.4105 -1.2016 -1.0306
13472TIP3   OH261906   4.423   0.099  14.799  0.0513  0.1119 -0.1048
13472TIP3    H161907   4.348   0.106  14.740  0.4743  0.0229 -0.6569
13472TIP3    H261908   4.391   0.135  14.882  0.4411  3.5025 -1.2711
13473TIP3   OH261909   5.926   6.704  14.614  0.0814 -0.2127 -0.4225
13473TIP3    H161910   5.899   6.640  14.680  1.4581 -2.8476 -2.2427
13473TIP3    H261911   5.883   6.675  14.533 -0.0259  1.7808 -1.1436
13474TIP3   OH261912   2.743   2.208  11.023 -0.3499  0.0994  0.2200
13474TIP3    H161913   2.838   2.219  11.022 -0.4677  1.3155 -1.0384
13474TIP3    H261914   2.724   2.152  10.947 -0.6875  0.4968  0.0038
13475TIP3   OH261915   4.664   2.930   3.672 -0.3605  0.2943  0.0275
13475TIP3    H161916   4.579   2.916   3.713 -0.9937  1.4715 -0.8094
13475TIP3    H261917   4.728   2.915   3.742 -1.2757 -0.0623  0.8045
13476TIP3   OH261918   2.876   5.526   0.489 -0.5126 -0.1453  0.5222
13476TIP3    H161919   2.884   5.611   0.533 -0.8354 -0.1453  0.5818
13476TIP3    H261920   2.876   5.549   0.395 -0.1513 -0.1196  0.5246
13477TIP3   OH261921   0.960   5.532   3.779 -0.3624 -0.7049 -0.5126
13477TIP3    H161922   0.892   5.557   3.841 -2.4695 -0.0548 -2.9218
13477TIP3    H261923   1.035   5.509   3.834 -1.8039  0.5817  2.2057
13478TIP3   OH261924   3.536   5.196  13.925  0.6034 -0.5705 -0.2079
13478TIP3    H161925   3.528   5.259  13.853  0.9375 -0.8256 -0.4748
13478TIP3    H261926   3.520   5.247  14.004  0.0079 -0.3327 -0.4759
13479TIP3   OH261927   6.891   5.791   3.233  0.3047  0.1984  0.1082
13479TIP3    H161928   6.849   5.781   3.318 -1.9231 -1.2133 -1.0580
13479TIP3    H261929   6.984   5.772   3.249 -0.1455 -0.4946  2.1073
13480TIP3   OH261930   3.880   0.146  15.253 -0.3201 -0.0260  0.4127
13480TIP3    H161931   3.790   0.157  15.285 -0.0506  1.9890  0.6133
13480TIP3    H261932   3.890   0.215  15.188  0.8032 -0.8391 -0.3160
13481TIP3   OH261933   7.097   5.559   0.550 -0.0493 -0.5777  0.4171
13481TIP3    H161934   7.024   5.616   0.576  0.1368 -0.5658  0.9364
13481TIP3    H261935   7.124   5.592   0.464  0.1208  0.1900  0.7563
13482TIP3   OH261936   7.140   6.175   4.241  0.3651 -0.3448  0.4167
13482TIP3    H161937   7.145   6.269   4.223  1.4170 -0.2990  0.8725
13482TIP3    H261938   7.230   6.149   4.261  0.0745 -1.4334  0.4034
13483TIP3   OH261939   3.485   6.163  11.434  0.3144 -0.0545 -0.1951
13483TIP3    H161940   3.541   6.178  11.510 -0.5483 -0.4246  0.5360
13483TIP3    H261941   3.426   6.238  11.432  0.2746 -0.0902 -0.4483
13484TIP3   OH261942   6.238   7.188  10.507  0.4890  0.3498 -0.1249
13484TIP3    H161943   6.290   7.109  10.522 -2.1250 -1.1941  1.4861
13484TIP3    H261944   6.242   7.236  10.590  0.9341  1.2794 -0.6559
13485TIP3   OH261945   2.184   7.098  11.161 -0.5522 -0.2836  0.2464
13485TIP3    H161946   2.190   7.006  11.138  0.3736 -0.1479 -0.0736
13485TIP3    H261947   2.260   7.115  11.217 -0.1964  0.4890 -0.4423
13486TIP3   OH261948   4.672   0.377   0.348  0.4180  0.1224  0.1841
13486TIP3    H161949   4.615   0.423   0.410  0.2826  0.3675 -0.1168
13486TIP3    H261950   4.726   0.446   0.310 -0.3959  0.1880 -0.9284
13487TIP3   OH261951   2.603   1.797  13.212  0.1006 -0.2590 -0.4322
13487TIP3    H161952   2.683   1.843  13.185  0.3820  0.2516  1.1814
13487TIP3    H261953   2.540   1.866  13.228 -0.7185 -0.6669 -1.7741
13488TIP3   OH261954   1.563   1.244  12.307  0.1457 -0.0879  0.0055
13488TIP3    H161955   1.481   1.227  12.353  0.8948 -1.4310  0.9245
13488TIP3    H261956   1.555   1.196  12.224  0.0035 -0.2280  0.1013
13489TIP3   OH261957   2.289   1.414  10.284 -0.1828  0.1519 -0.2761
13489TIP3    H161958   2.300   1.407  10.379 -2.0361 -2.4639 -0.1538
13489TIP3    H261959   2.215   1.357  10.264  1.0599 -0.5565 -3.4717
13490TIP3   OH261960   1.840   1.511   0.523 -0.1466  1.0299  0.4588
13490TIP3    H161961   1.745   1.507   0.512  0.0040 -0.8461 -0.6120
13490TIP3    H261962   1.859   1.446   0.590  0.5467 -0.3284 -0.9870
13491TIP3   OH261963   7.188   1.161  10.956 -0.5684 -0.1096 -0.0492
13491TIP3    H161964   7.225   1.090  10.905 -1.7537 -0.7085 -0.1100
13491TIP3    H261965   7.111   1.189  10.907 -1.2355 -0.1133  0.9644
13492TIP3   OH261966   3.659   0.293  13.324 -0.3079 -0.0760 -0.1175
13492TIP3    H161967   3.729   0.345  13.365 -2.1041  1.9397  0.6002
13492TIP3    H261968   3.695   0.205  13.318  2.2330  0.8325  0.3295
13493TIP3   OH261969   2.674   6.362  12.708  0.0271  0.2558 -0.3090
13493TIP3    H161970   2.729   6.288  12.685 -2.1288 -2.1863  1.8326
13493TIP3    H261971   2.634   6.389  12.625  2.3345  0.4273 -1.4453
13494TIP3   OH261972   2.168   2.878  14.282 -0.1632 -0.1717  0.0937
13494TIP3    H161973   2.157   2.973  14.287  0.1545 -0.1994  2.1249
13494TIP3    H261974   2.124   2.853  14.201 -1.1121  1.5955  0.0116
13495TIP3   OH261975   4.652   6.253  14.517 -0.7138  0.2519 -0.6635
13495TIP3    H161976   4.623   6.337  14.554 -2.5122 -1.1060  1.3227
13495TIP3    H261977   4.709   6.215  14.584 -0.0775 -0.2003 -1.4439
13496TIP3   OH261978   0.761   1.661   1.428 -0.5751 -0.6018  0.6142
13496TIP3    H161979   0.808   1.728   1.379 -2.7078  0.6113  0.0757
13496TIP3    H261980   0.800   1.578   1.401 -1.1393  0.0742 -2.5887
13497TIP3   OH261981   5.215   3.482   2.072  0.0832 -0.4352  0.5229
13497TIP3    H161982   5.267   3.511   1.998 -3.4687  0.8303 -1.6864
13497TIP3    H261983   5.228   3.550   2.139 -0.0382  0.7302 -0.6119
13498TIP3   OH261984   6.449   5.442   0.365 -0.4924 -0.3853 -0.3615
13498TIP3    H161985   6.476   5.350   0.369  2.9600  0.3866 -2.0788
13498TIP3    H261986   6.433   5.466   0.456 -1.5063 -2.6298  0.1349
13499TIP3   OH261987   6.201   0.236   2.930  0.0740  0.1596 -0.2034
13499TIP3    H161988   6.234   0.194   3.010 -2.0214 -1.2113  0.0196
13499TIP3    H261989   6.236   0.183   2.859  3.4944  2.4452 -0.4662
13500TIP3   OH261990   1.818   2.588  15.214  0.9326  0.2996  0.0651
13500TIP3    H161991   1.770   2.562  15.293  0.5682  0.0975 -0.2205
13500TIP3    H261992   1.761   2.653  15.173  1.5973  1.1934  0.5045
13501TIP3   OH261993   5.902   3.365   4.095  0.1306 -0.0058  0.1493
13501TIP3    H161994   5.933   3.304   4.028 -1.9252 -1.3881  0.3513
13501TIP3    H261995   5.822   3.402   4.059 -0.4651 -0.0124  1.4139
13502TIP3   OH261996   0.441   3.761  13.980 -0.3705 -0.1545 -0.3625
13502TIP3    H161997   0.459   3.682  13.929 -1.2554  0.7884 -2.2015
13502TIP3    H261998   0.380   3.732  14.048  0.5770 -1.3573  0.0151
13503TIP3   OH261999   3.543   7.033  12.705 -0.2580  0.1835 -0.3197
13503TIP3    H162000   3.526   7.109  12.761 -0.4840 -0.0281 -0.0979
13503TIP3    H262001   3.527   6.957  12.761 -0.3326 -0.0310 -0.6236
13504TIP3   OH262002   4.721   1.154   3.037  0.6015 -0.3061 -0.0083
13504TIP3    H162003   4.752   1.139   3.127 -1.3399  0.9363  0.9380
13504TIP3    H262004   4.687   1.243   3.038  0.0670 -0.4480 -1.8485
13505TIP3   OH262005   2.446   1.551  14.044  0.0495 -0.1714 -0.1383
13505TIP3    H162006   2.446   1.629  13.989 -1.5696 -0.3716 -0.4631
13505TIP3    H262007   2.377   1.566  14.108 -1.4613 -1.9738 -1.2149
13506TIP3   OH262008   2.068   6.354   2.876 -0.0105  0.4554  0.0352
13506TIP3    H162009   2.089   6.292   2.806  0.2848  0.2763  0.2805
13506TIP3    H262010   2.109   6.317   2.954 -0.1380  0.7759  0.2567
13507TIP3   OH262011   4.246   4.388  12.664 -0.2001 -0.6256  0.4058
13507TIP3    H162012   4.245   4.358  12.573 -2.0612 -0.2201  0.2502
13507TIP3    H262013   4.201   4.472  12.662  0.4918 -0.1980  1.5998
13508TIP3   OH262014   3.023   5.657   3.548 -0.5113 -0.3980  0.0065
13508TIP3    H162015   3.063   5.662   3.635 -1.8049 -0.0419  0.6060
13508TIP3    H262016   2.929   5.660   3.565 -0.7827 -0.2720 -1.4181
13509TIP3   OH262017   5.412   0.164  14.758 -0.1453  0.6505  0.8044
13509TIP3    H162018   5.380   0.242  14.803  2.3395  2.0420  0.3398
13509TIP3    H262019   5.498   0.189  14.724  0.5840 -2.1831  0.2878
13510TIP3   OH262020   2.520   2.928  11.369  0.1410  0.2528 -0.1223
13510TIP3    H162021   2.498   2.920  11.462 -1.7013  1.4382 -0.3922
13510TIP3    H262022   2.570   2.849  11.349 -1.2223 -1.0643  1.3772
13511TIP3   OH262023   6.538   2.184   4.111 -0.3455  0.0625 -0.1987
13511TIP3    H162024   6.608   2.202   4.049 -0.6809 -0.3187 -0.6928
13511TIP3    H262025   6.457   2.195   4.061 -0.6194 -0.3013  0.1489
13512TIP3   OH262026   6.191   3.686   5.181  0.1814 -0.0663  0.3975
13512TIP3    H162027   6.261   3.728   5.232 -0.1613 -0.4735  1.2241
13512TIP3    H262028   6.188   3.597   5.215 -0.3825 -0.2047 -0.0109
13513TIP3   OH262029   5.490   0.658  14.527 -0.6709 -0.3621  0.0312
13513TIP3    H162030   5.544   0.600  14.473 -1.0700  0.2352 -1.0330
13513TIP3    H262031   5.407   0.612  14.536 -0.3645 -0.7853  0.7489
13514TIP3   OH262032   6.777   0.580  13.532 -0.4302 -0.4456 -0.0294
13514TIP3    H162033   6.839   0.606  13.464  0.2754 -0.4347  0.5991
13514TIP3    H262034   6.691   0.585  13.490 -0.0948  0.5131 -0.6335
13515TIP3   OH262035   6.735   4.367  14.979  0.1211  0.1597  0.0809
13515TIP3    H162036   6.791   4.355  15.056 -0.1051  2.0854  0.5778
13515TIP3    H262037   6.785   4.424  14.921 -0.3578 -0.0252 -0.5314
13516TIP3   OH262038   1.483   5.587  13.738  0.1675 -0.3790 -0.0541
13516TIP3    H162039   1.559   5.634  13.770  0.4325  0.0516 -1.2771
13516TIP3    H262040   1.432   5.653  13.691  1.1737 -1.4964 -2.9005
13517TIP3   OH262041   6.553   1.779  15.231  0.4947 -0.2238  0.3678
13517TIP3    H162042   6.479   1.759  15.289 -0.1876 -2.3228 -1.1229
13517TIP3    H262043   6.611   1.704  15.240  3.5015  2.0889  2.8298
13518TIP3   OH262044   7.136   5.769  12.825 -0.0270 -0.7778 -0.5402
13518TIP3    H162045   7.109   5.696  12.769  0.2490 -0.3220 -1.2788
13518TIP3    H262046   7.153   5.841  12.765 -3.1772  0.8699  0.2978
13519TIP3   OH262047   2.467   0.063  14.368 -0.6630  0.1798 -0.6330
13519TIP3    H162048   2.383   0.034  14.403 -0.1740  1.8770  2.2785
13519TIP3    H262049   2.444   0.114  14.290 -2.5597  1.9786  1.0055
13520TIP3   OH262050   4.593   4.835   2.817  0.3328 -0.2541 -0.4081
13520TIP3    H162051   4.506   4.843   2.857  0.6810  0.3128  0.2548
13520TIP3    H262052   4.575   4.805   2.728 -0.5233 -0.4669 -0.1759
13521TIP3   OH262053   2.039   6.419  14.566 -0.3355  0.4892 -0.5527
13521TIP3    H162054   2.076   6.380  14.488 -0.4512 -0.3442 -0.1975
13521TIP3    H262055   1.986   6.492  14.534 -1.5460 -0.7092 -1.3774
13522TIP3   OH262056   0.137   2.019  14.968  0.0769 -0.4559  1.3371
13522TIP3    H162057   0.126   2.031  15.062 -0.6355 -0.5586  1.2748
13522TIP3    H262058   0.096   2.097  14.929  0.9542 -0.0884  1.1320
13523TIP3   OH262059   1.945   5.031  12.014 -0.3526  0.3932 -0.5445
13523TIP3    H162060   1.919   4.947  12.051  2.6190  0.1237  1.2112
13523TIP3    H262061   1.872   5.090  12.034 -1.3596 -1.1310  0.4866
13524TIP3   OH262062   2.656   3.936   3.191  0.3692  0.2800 -0.5745
13524TIP3    H162063   2.611   3.980   3.263  0.2285 -0.5369 -0.1477
13524TIP3    H262064   2.720   3.879   3.233  0.6186  0.1546 -1.1133
13525TIP3   OH262065   5.974   0.454   3.859  0.2663  0.5711 -0.4961
13525TIP3    H162066   5.890   0.490   3.887  1.3241  1.0573  2.3419
13525TIP3    H262067   6.035   0.527   3.865  1.7115 -0.7085  1.7807
13526TIP3   OH262068   0.435   5.044  14.661  0.0295 -0.0495  0.4581
13526TIP3    H162069   0.411   5.072  14.750  0.7092 -0.9213  0.9385
13526TIP3    H262070   0.360   5.066  14.607 -0.3153  0.6736  1.2222
13527TIP3   OH262071   1.487   1.168   0.503  0.4924 -0.3824  0.0133
13527TIP3    H162072   1.520   1.241   0.556  1.3171 -0.5016 -0.3209
13527TIP3    H262073   1.512   1.090   0.552 -0.2242 -0.4491  0.2770
13528TIP3   OH262074   4.325   0.598   2.624 -0.1479  0.3351  0.0345
13528TIP3    H162075   4.317   0.693   2.616 -0.3210  0.2822 -0.4294
13528TIP3    H262076   4.249   0.572   2.676 -0.3568  0.3978 -0.2376
13529TIP3   OH262077   4.576   7.197  13.678 -0.6063  0.2005  0.1150
13529TIP3    H162078   4.539   7.149  13.752  0.0989 -2.7303 -1.2841
13529TIP3    H262079   4.631   7.265  13.719 -0.3360 -1.2054  2.2999
13530TIP3   OH262080   4.518   5.735  13.465  0.1911  0.1016 -0.3115
13530TIP3    H162081   4.490   5.826  13.460  0.4170  0.1070 -1.8776
13530TIP3    H262082   4.599   5.738  13.516  0.5776  0.8845 -0.9426
13531TIP3   OH262083   6.000   2.041   3.228 -0.0870 -0.0128  0.4430
13531TIP3    H162084   5.967   2.040   3.139  2.4931  0.3325 -0.5885
13531TIP3    H262085   5.980   1.953   3.261 -0.0923 -0.5178 -0.8464
13532TIP3   OH262086   2.868   4.334   2.976  0.1173  0.2522  0.4445
13532TIP3    H162087   2.808   4.358   2.905 -0.8350  1.0411  1.4696
13532TIP3    H262088   2.869   4.239   2.977 -0.0595  0.2359 -0.4464
13533TIP3   OH262089   0.905   3.497   3.130 -0.1260  0.5750 -0.7120
13533TIP3    H162090   0.849   3.560   3.176 -0.7441 -0.6849  0.3021
13533TIP3    H262091   0.979   3.550   3.098  0.4092  1.5145  1.8278
13534TIP3   OH262092   4.706   3.185   5.305 -0.0594  0.1090 -0.2230
13534TIP3    H162093   4.677   3.190   5.396 -0.8978  1.9335 -0.5402
13534TIP3    H262094   4.647   3.123   5.264  0.4666 -0.9010  0.4994
13535TIP3   OH262095   3.761   1.828   2.336  0.2739 -0.4630  0.5232
13535TIP3    H162096   3.848   1.866   2.323  0.4939 -0.5368  1.6537
13535TIP3    H262097   3.713   1.895   2.385 -0.6625  0.0051 -0.9488
13536TIP3   OH262098   2.881   2.483  14.592 -0.3838  0.1458  0.4083
13536TIP3    H162099   2.795   2.526  14.598  0.2033  1.3733  0.4133
13536TIP3    H262100   2.943   2.551  14.619  0.6203 -0.6079  0.0387
13537TIP3   OH262101   0.215   5.091   0.762  0.9438  0.0710 -0.1621
13537TIP3    H162102   0.242   5.038   0.687 -1.4328 -1.0302 -0.3491
13537TIP3    H262103   0.286   5.082   0.825  2.1851 -0.4426 -1.5659
13538TIP3   OH262104   5.347   4.045  14.171  0.2029 -0.6282 -0.3795
13538TIP3    H162105   5.436   4.079  14.175  0.4818 -1.2627 -1.0620
13538TIP3    H262106   5.294   4.118  14.140 -0.1245  0.8608  3.1838
13539TIP3   OH262107   5.378   4.459  14.138 -0.3318  0.3600 -0.3962
13539TIP3    H162108   5.447   4.455  14.204 -1.1612  1.6769  0.5921
13539TIP3    H262109   5.319   4.528  14.168 -0.8165  0.9159 -2.4416
13540TIP3   OH262110   2.391   5.181  15.095 -0.3655 -0.0786  0.4323
13540TIP3    H162111   2.321   5.172  15.160  0.2807  0.3035  1.1998
13540TIP3    H262112   2.385   5.272  15.066 -0.3713 -0.1297  0.2678
13541TIP3   OH262113   2.477   1.996   5.658 -0.2471 -0.4664  0.3798
13541TIP3    H162114   2.458   1.916   5.610 -0.0289  0.0773 -0.6435
13541TIP3    H262115   2.511   1.966   5.743 -1.3611 -1.4432  0.5161
13542TIP3   OH262116   0.136   4.746   4.190 -0.2496  0.2219 -0.4832
13542TIP3    H162117   0.217   4.696   4.173 -0.3581 -0.3474  0.6013
13542TIP3    H262118   0.138   4.763   4.284 -0.2336  2.2741 -0.8016
13543TIP3   OH262119   5.201   4.348   2.758 -0.2846 -0.4617  0.5646
13543TIP3    H162120   5.226   4.257   2.748  0.4362 -0.0808 -1.8016
13543TIP3    H262121   5.245   4.377   2.838 -0.4839 -2.1417  1.3131
13544TIP3   OH262122   1.820   1.369   9.430  0.5425 -0.5181 -0.0562
13544TIP3    H162123   1.882   1.427   9.385  0.3641  0.1127  0.4900
13544TIP3    H262124   1.764   1.429   9.480  0.0137 -1.1352  0.1020
13545TIP3   OH262125   4.876   4.828   5.308 -0.1379 -0.4155  0.4218
13545TIP3    H162126   4.960   4.815   5.352 -0.3269 -1.3203  0.5349
13545TIP3    H262127   4.834   4.899   5.357  1.1348  1.0539 -0.4993
13546TIP3   OH262128   5.181   0.821   3.846  0.1971  0.1724 -0.1722
13546TIP3    H162129   5.218   0.763   3.913 -1.1889 -1.5706 -0.8232
13546TIP3    H262130   5.245   0.891   3.836  0.9373 -0.1016  2.1897
13547TIP3   OH262131   3.644   1.459   2.825 -0.0033 -0.2485  0.4383
13547TIP3    H162132   3.601   1.373   2.826  0.5747 -0.5538 -0.4406
13547TIP3    H262133   3.605   1.505   2.899 -1.0947 -0.8892  0.2907
13548TIP3   OH262134   3.307   0.420  15.074  1.1052  0.1238 -0.1999
13548TIP3    H162135   3.228   0.386  15.032  0.3667  0.6034  0.7905
13548TIP3    H262136   3.376   0.359  15.046  0.6460  0.3998 -2.0592
13549TIP3   OH262137   5.528   1.332   3.581 -0.1482  0.0320 -0.0430
13549TIP3    H162138   5.504   1.423   3.560 -0.6940  0.2611  1.4606
13549TIP3    H262139   5.473   1.310   3.656  0.0334 -1.5329 -0.3479
13550TIP3   OH262140   4.817   0.512   0.621  0.1680 -0.2019 -0.9610
13550TIP3    H162141   4.747   0.528   0.557 -0.2341 -1.1237 -0.7667
13550TIP3    H262142   4.820   0.417   0.630 -0.1827 -0.0760  0.8194
13551TIP3   OH262143   4.531   6.709  12.579 -0.4012  0.3648  0.5135
13551TIP3    H162144   4.447   6.671  12.602  0.4710 -1.7662  0.4438
13551TIP3    H262145   4.519   6.745  12.491 -2.1282  3.2554  1.8006
13552TIP3   OH262146   3.465   4.409   0.740  0.0633  0.1158 -0.2875
13552TIP3    H162147   3.423   4.332   0.778  0.0890  0.1132 -0.2651
13552TIP3    H262148   3.434   4.410   0.649 -1.3892  1.0954  0.1702
13553TIP3   OH262149   2.850   2.689  13.638 -0.4343 -0.3328  0.5060
13553TIP3    H162150   2.768   2.639  13.633 -1.4685  0.8656  3.4268
13553TIP3    H262151   2.833   2.768  13.588 -0.6850 -0.5536  0.2418
13554TIP3   OH262152   2.386   4.293   1.166  0.1533  0.4421  0.3342
13554TIP3    H162153   2.350   4.262   1.249  1.2796  0.1250  0.7105
13554TIP3    H262154   2.326   4.258   1.100  1.3635 -2.6834  0.7151
13555TIP3   OH262155   5.655   5.904   4.782 -0.0790  0.3178 -0.1097
13555TIP3    H162156   5.713   5.954   4.838 -1.6606  2.1291  0.0048
13555TIP3    H262157   5.616   5.838   4.840  0.1975  0.5288  0.3185
13556TIP3   OH262158   2.522   2.212   1.574 -0.3158 -0.1573  0.2481
13556TIP3    H162159   2.584   2.273   1.613 -1.0126  0.6714  0.0777
13556TIP3    H262160   2.475   2.174   1.649  0.5559 -0.9851  0.3943
13557TIP3   OH262161   3.474   1.779   5.981 -0.1692 -0.0349 -0.1328
13557TIP3    H162162   3.547   1.724   6.010 -0.5930  0.4154  1.9542
13557TIP3    H262163   3.409   1.718   5.947 -0.6090 -0.8977  2.0843
13558TIP3   OH262164   3.149   3.630  12.742 -0.7707 -0.8330  0.8003
13558TIP3    H162165   3.102   3.712  12.759 -0.3444 -0.4913  0.3230
13558TIP3    H262166   3.084   3.574  12.700 -0.6585 -0.2177 -0.2382
13559TIP3   OH262167   6.679   3.362   1.848 -0.0243  0.4028 -0.2727
13559TIP3    H162168   6.711   3.453   1.846  0.1306  0.3424 -0.6379
13559TIP3    H262169   6.756   3.310   1.869 -0.1062  0.3515 -0.0955
13560TIP3   OH262170   6.518   2.732  11.581  0.4224 -0.0247 -0.8607
13560TIP3    H162171   6.573   2.669  11.628 -1.1820  0.0795  1.3117
13560TIP3    H262172   6.558   2.739  11.494  3.1969 -0.7198  0.2529
13561TIP3   OH262173   2.138   1.011  11.648 -0.1755 -0.1763  0.3534
13561TIP3    H162174   2.206   1.010  11.716 -1.5877 -2.2302  1.8485
13561TIP3    H262175   2.159   0.936  11.592 -0.5638 -0.1288  0.1402
13562TIP3   OH262176   2.114   2.343  12.662  0.2596 -0.1915 -0.8546
13562TIP3    H162177   2.195   2.292  12.662  0.6387  0.3514  0.6804
13562TIP3    H262178   2.109   2.380  12.573  1.0000 -1.2632 -1.3675
13563TIP3   OH262179   3.403   1.462   4.339 -0.4897  0.0535 -0.5741
13563TIP3    H162180   3.339   1.513   4.290 -0.4829  0.6578  0.0302
13563TIP3    H262181   3.447   1.526   4.395  2.0404  0.0579 -2.3533
13564TIP3   OH262182   6.473   2.600   4.242 -0.1523  0.3547  0.0996
13564TIP3    H162183   6.444   2.549   4.317  1.8572  0.1529  0.8042
13564TIP3    H262184   6.491   2.687   4.278  1.2687  0.1336 -0.0055
13565TIP3   OH262185   1.341   4.635   1.618 -0.2844  0.5533  0.3101
13565TIP3    H162186   1.292   4.652   1.698 -3.1795 -4.2033 -0.0770
13565TIP3    H262187   1.275   4.632   1.549  1.3194 -0.8624 -1.2686
13566TIP3   OH262188   1.929   4.814  10.739 -0.2412  0.7666 -0.2123
13566TIP3    H162189   1.903   4.900  10.706 -1.5793  0.4724  0.0313
13566TIP3    H262190   2.017   4.828  10.775 -0.4860  2.0661 -0.0731
13567TIP3   OH262191   1.802   6.553   4.259  0.4642 -0.1995  0.2670
13567TIP3    H162192   1.746   6.607   4.203  1.9183 -0.0061 -1.0890
13567TIP3    H262193   1.817   6.607   4.336  1.3782  1.1192 -0.7864
13568TIP3   OH262194   2.618   5.434  11.165  0.1074  0.6078 -0.1392
13568TIP3    H162195   2.525   5.456  11.155  0.2652  1.6090  0.4482
13568TIP3    H262196   2.656   5.450  11.079  0.0165  1.7052  0.0151
13569TIP3   OH262197   0.017   0.691  13.926 -0.1146  0.8978 -0.3011
13569TIP3    H162198  -0.042   0.629  13.883  1.2043  0.0911 -1.0157
13569TIP3    H262199  -0.028   0.775  13.920 -1.0267  0.3739 -1.1407
13570TIP3   OH262200   0.473   2.883   3.536  0.0776  0.1712  0.3711
13570TIP3    H162201   0.499   2.854   3.624 -0.4049  0.7797  0.7205
13570TIP3    H262202   0.528   2.831   3.477 -1.8614 -2.6640  0.8680
13571TIP3   OH262203   4.317   5.686   2.997  0.4611  0.1058  0.4215
13571TIP3    H162204   4.285   5.595   2.994 -2.1348  0.9455  0.1724
13571TIP3    H262205   4.397   5.685   2.945 -0.6485 -1.6633 -1.4147
13572TIP3   OH262206   2.646   1.375  14.728 -0.2792 -0.3242 -0.4084
13572TIP3    H162207   2.715   1.326  14.772 -0.4740 -1.0425 -0.8838
13572TIP3    H262208   2.597   1.308  14.680 -1.1270  0.2106 -0.3081
13573TIP3   OH262209   6.900   2.264   2.641 -0.7262 -0.3959 -0.0495
13573TIP3    H162210   6.940   2.342   2.677 -1.3646  0.8462 -1.8922
13573TIP3    H262211   6.967   2.224   2.586 -1.4249  0.8171 -1.8724
13574TIP3   OH262212   5.724   3.525  14.493  0.6182 -0.4601 -0.1518
13574TIP3    H162213   5.650   3.581  14.468  1.4653  0.0942 -1.5594
13574TIP3    H262214   5.689   3.436  14.491 -0.3078 -0.1196  0.4090
13575TIP3   OH262215   1.176   5.048   5.012 -0.4685 -0.2005  0.7039
13575TIP3    H162216   1.199   5.141   5.018 -1.7387  0.1649  0.2823
13575TIP3    H262217   1.159   5.022   5.103 -0.4725  0.0835  0.7860
13576TIP3   OH262218   6.385   3.053   1.292  0.1062 -0.1440  0.1056
13576TIP3    H162219   6.319   3.117   1.265 -0.1180 -0.0015  0.9674
13576TIP3    H262220   6.340   2.969   1.285 -0.0484 -0.0805  0.3207
13577TIP3   OH262221   3.413   0.356  12.108 -0.6118 -0.7321 -0.0254
13577TIP3    H162222   3.339   0.401  12.148 -1.3025 -1.2213 -0.7206
13577TIP3    H262223   3.478   0.349  12.178 -1.1498 -0.1498  0.5439
13578TIP3   OH262224   4.299   7.110   1.462 -0.5052  0.1774  0.2418
13578TIP3    H162225   4.285   7.165   1.385 -0.8719  2.0730  1.6055
13578TIP3    H262226   4.221   7.123   1.516 -0.7490 -1.9402  0.5194
13579TIP3   OH262227   6.174   3.702   1.520 -0.2131 -0.0454 -0.8700
13579TIP3    H162228   6.128   3.772   1.567 -0.1051 -0.0196 -0.8035
13579TIP3    H262229   6.264   3.732   1.514 -0.2001 -0.1053 -0.9854
13580TIP3   OH262230   2.224   4.936   4.479  0.0470  0.1359 -0.4588
13580TIP3    H162231   2.138   4.979   4.473  0.2826  0.8855  1.0683
13580TIP3    H262232   2.247   4.941   4.572  0.7406 -2.0865 -0.4434
13581TIP3   OH262233   0.763   4.875   3.522  0.1785  0.7073  0.5847
13581TIP3    H162234   0.820   4.808   3.560 -0.3985  0.3176  0.7775
13581TIP3    H262235   0.675   4.850   3.550  0.0823  2.3863  1.9345
13582TIP3   OH262236   1.898   7.182   3.991  0.0220  0.2184  0.5813
13582TIP3    H162237   1.961   7.243   4.028  0.2713 -0.8871  2.0583
13582TIP3    H262238   1.920   7.178   3.898  1.8892  0.1452  0.9933
13583TIP3   OH262239   2.273   1.594   0.264 -0.1445 -0.6993  0.0640
13583TIP3    H162240   2.266   1.624   0.355 -0.4906  0.9034 -0.4557
13583TIP3    H262241   2.219   1.656   0.215  0.4947 -1.2119 -1.3194
13584TIP3   OH262242   2.470   3.691  12.132  0.0062  0.2824  0.0963
13584TIP3    H162243   2.396   3.739  12.169 -0.4317  1.8292 -2.5716
13584TIP3    H262244   2.431   3.623  12.077  0.6419 -1.1266  1.2970
13585TIP3   OH262245   5.556   4.912   1.124  0.5938  0.0496 -0.0373
13585TIP3    H162246   5.469   4.879   1.101  0.3129 -0.2121  1.3227
13585TIP3    H262247   5.543   5.005   1.139 -0.0380 -0.3980  2.6700
13586TIP3   OH262248   1.832   3.091   5.536 -0.8792 -0.2857 -0.1367
13586TIP3    H162249   1.758   3.059   5.586  0.4441  0.3029  2.3599
13586TIP3    H262250   1.825   3.187   5.540 -0.1764 -0.2254 -0.1603
13587TIP3   OH262251   2.161   1.765   5.842 -0.0553  0.3667 -0.1006
13587TIP3    H162252   2.154   1.848   5.795 -0.1531  1.1256  1.2353
13587TIP3    H262253   2.076   1.754   5.885  0.0408 -0.3128 -0.0650
13588TIP3   OH262254   5.641   6.610   4.746 -0.0009  0.1483 -0.8185
13588TIP3    H162255   5.557   6.603   4.791  0.9925  2.0688  1.5712
13588TIP3    H262256   5.687   6.530   4.769 -0.4307 -0.0071 -0.4686
13589TIP3   OH262257   4.978   5.752   2.689 -0.4302  0.4522 -0.2366
13589TIP3    H162258   4.902   5.740   2.747 -0.1476  2.2361  0.5902
13589TIP3    H262259   4.987   5.847   2.682 -0.4786  0.3143 -3.3223
13590TIP3   OH262260   6.974   1.052   3.478 -0.1297  0.4843 -0.3003
13590TIP3    H162261   7.016   1.106   3.411 -4.5825 -1.1777 -5.1186
13590TIP3    H262262   6.970   0.965   3.438 -1.4700 -1.1299  3.0628
13591TIP3   OH262263   2.840   1.624   2.298  0.0311  0.6130 -0.1196
13591TIP3    H162264   2.764   1.668   2.261  0.0925 -0.4824 -1.6722
13591TIP3    H262265   2.838   1.646   2.392 -1.5590  1.4819 -0.3254
13592TIP3   OH262266   1.360   5.166   5.222  0.3510  0.0806  0.0013
13592TIP3    H162267   1.367   5.253   5.263  0.6859 -0.1255  0.3817
13592TIP3    H262268   1.300   5.118   5.279 -0.7753  0.4285 -0.8451
13593TIP3   OH262269   1.058   2.942   3.755 -0.1973 -0.0555  0.5363
13593TIP3    H162270   0.988   2.967   3.816  1.4113  0.1114  2.3900
13593TIP3    H262271   1.138   2.946   3.807  1.2254 -0.2376 -1.5256
13594TIP3   OH262272   2.779   0.344   4.664  0.2793 -0.2202  0.3358
13594TIP3    H162273   2.821   0.260   4.649 -1.2352 -0.9901  0.1811
13594TIP3    H262274   2.705   0.324   4.722 -0.6871  0.7997 -0.4838
13595TIP3   OH262275   6.959   3.976  15.036 -0.1766  0.1198  0.7047
13595TIP3    H162276   7.008   3.962  14.954 -0.7353  0.9852  0.2140
13595TIP3    H262277   6.946   3.888  15.070 -1.9104 -0.4818 -1.3106
13596TIP3   OH262278   6.376   6.521   3.771  0.1573  0.4817  0.0739
13596TIP3    H162279   6.401   6.590   3.832 -0.6606 -0.1329  1.1526
13596TIP3    H262280   6.364   6.565   3.687  1.3253  1.3441  0.3433
13597TIP3   OH262281   1.290   7.041   1.376  0.2977 -0.5145 -0.0696
13597TIP3    H162282   1.267   6.986   1.451  0.4768  0.6957  0.9163
13597TIP3    H262283   1.382   7.021   1.359  0.0269 -1.4222 -0.5441
13598TIP3   OH262284   3.084   1.907  15.196  0.3728  0.4593  0.0124
13598TIP3    H162285   3.100   1.829  15.144  0.2482 -0.1304  0.8386
13598TIP3    H262286   3.157   1.965  15.175 -0.6884  1.0733 -2.3079
13599TIP3   OH262287   4.568   5.631   2.687 -0.4317 -0.1415  0.2777
13599TIP3    H162288   4.476   5.644   2.666 -0.1809  2.1363  0.3717
13599TIP3    H262289   4.578   5.664   2.776  0.7720  1.1772 -0.3057
13600TIP3   OH262290   0.989   1.093   2.172  0.6935 -0.2793  0.2464
13600TIP3    H162291   0.986   1.100   2.076 -0.8829 -1.3616  0.1835
13600TIP3    H262292   1.043   1.016   2.189  0.6099 -0.3478  0.2044
13601TIP3   OH262293   2.952   1.213   2.443  0.7388 -0.1264  0.1707
13601TIP3    H162294   2.911   1.299   2.454  1.4855  0.2965 -0.2274
13601TIP3    H262295   2.984   1.191   2.530  1.5988  0.5643  0.0470
13602TIP3   OH262296   3.593   3.297   2.841  0.8010  0.3239 -0.0749
13602TIP3    H162297   3.500   3.302   2.863  0.1599  1.3481 -2.6306
13602TIP3    H262298   3.635   3.361   2.899  0.1685 -0.9941  1.9372
13603TIP3   OH262299   1.962   7.181   4.749  0.6683  0.1312 -0.0664
13603TIP3    H162300   1.936   7.228   4.828  1.3883  0.9246 -0.2902
13603TIP3    H262301   1.904   7.105   4.747  1.4825 -0.6099  1.9129
13604TIP3   OH262302   0.244   0.940   1.159  0.3772 -0.3452  0.0947
13604TIP3    H162303   0.267   1.000   1.230  0.8017  0.2763 -0.5539
13604TIP3    H262304   0.150   0.924   1.170  0.8411 -2.2148  2.2662
13605TIP3   OH262305   3.257   1.362   3.091 -0.5758  0.2058  0.5275
13605TIP3    H162306   3.267   1.371   2.996 -2.0006  0.6703  0.4044
13605TIP3    H262307   3.320   1.424   3.128  2.3522 -2.2089  0.0055
13606TIP3   OH262308   2.986   5.255   2.570 -0.4662  0.0620  0.3405
13606TIP3    H162309   2.896   5.236   2.544 -0.4987  0.5345  0.0840
13606TIP3    H262310   3.039   5.228   2.496 -0.3436 -0.7164  0.7064
13607TIP3   OH262311   5.217   4.217   1.750  0.0383 -0.6081 -0.2480
13607TIP3    H162312   5.263   4.138   1.778 -0.6949 -0.3690  1.8188
13607TIP3    H262313   5.283   4.286   1.753 -0.0728 -0.5466  1.2178
13608TIP3   OH262314   7.138   2.396   3.904 -0.3135 -0.4061 -0.0773
13608TIP3    H162315   7.052   2.409   3.943 -1.2290  0.0659 -2.1099
13608TIP3    H262316   7.158   2.480   3.862 -0.1499 -1.3276 -1.9600
13609TIP3   OH262317   7.061   1.423   1.903 -0.2939  0.2214  0.2134
13609TIP3    H162318   7.014   1.417   1.986 -0.6937  0.3755  0.0034
13609TIP3    H262319   7.101   1.337   1.891 -0.4797  0.1058  0.4199
13610TIP3   OH262320   4.575   6.086   3.210 -0.2809  0.3153  0.6040
13610TIP3    H162321   4.631   6.009   3.201 -0.6331 -0.2556  2.8032
13610TIP3    H262322   4.487   6.050   3.218 -0.4339  0.9194  1.8014
13611TIP3   OH262323   4.844   6.126   4.909 -0.5912 -0.5218 -0.2630
13611TIP3    H162324   4.884   6.041   4.930 -0.1995 -0.2177  0.2581
13611TIP3    H262325   4.840   6.172   4.993  0.1963  0.3917 -0.7000
13612TIP3   OH262326   6.656   0.091   1.557 -0.3344 -0.1850  0.2264
13612TIP3    H162327   6.698   0.014   1.520  0.0431  0.5089 -0.8165
13612TIP3    H262328   6.609   0.057   1.634 -0.7137 -1.5622 -0.5738
13613TIP3   OH262329   0.616   5.816   2.941  0.1929  0.2946 -0.0782
13613TIP3    H162330   0.562   5.736   2.938  0.1686  0.1728  1.8680
13613TIP3    H262331   0.605   5.856   2.855 -3.2588  0.4152  0.2723
13614TIP3   OH262332   2.628   1.382  13.571  0.2663  0.2412 -0.1061
13614TIP3    H162333   2.605   1.290  13.554  1.4145  0.0382 -0.6883
13614TIP3    H262334   2.559   1.414  13.630 -0.4484 -0.8333 -0.3280
13615TIP3   OH262335   5.825   6.404   2.608 -0.0019  0.4482  0.0736
13615TIP3    H162336   5.867   6.320   2.623 -1.6694 -0.5338 -0.5215
13615TIP3    H262337   5.891   6.456   2.562  0.6751 -0.9219 -0.5431
13616TIP3   OH262338   2.635   3.050   2.390 -0.7743 -0.1624 -0.0137
13616TIP3    H162339   2.680   2.968   2.370 -0.3681  0.2272 -0.7722
13616TIP3    H262340   2.693   3.118   2.354 -1.5830  0.3957 -0.2903
13617TIP3   OH262341   1.540   4.619   1.174  0.3871  0.0902  0.0457
13617TIP3    H162342   1.533   4.704   1.219  0.7572 -0.4914  1.2506
13617TIP3    H262343   1.457   4.575   1.193  0.2734  0.1103 -0.4129
13618TIP3   OH262344   0.622   2.094   0.739 -0.0819 -0.1497 -0.4254
13618TIP3    H162345   0.671   2.174   0.721  1.6614 -1.4328 -1.7150
13618TIP3    H262346   0.679   2.024   0.708 -2.2581 -1.8047 -0.8805
13619TIP3   OH262347   2.971   0.831   2.288 -0.1637  0.4377 -0.3478
13619TIP3    H162348   2.949   0.851   2.379 -1.0831  1.7002 -0.8186
13619TIP3    H262349   2.892   0.790   2.253 -0.7527  2.2622 -1.2465
13620TIP3   OH262350   3.064   3.196   0.817 -0.2236 -0.2556  0.1766
13620TIP3    H162351   2.990   3.138   0.827 -1.5353  1.3378  0.1680
13620TIP3    H262352   3.042   3.251   0.741  0.4319  0.9729  0.8389
13621TIP3   OH262353   2.839   0.845   2.554  0.2128  0.1954  0.3200
13621TIP3    H162354   2.789   0.782   2.606  1.9337 -1.2805  0.3001
13621TIP3    H262355   2.809   0.931   2.584 -1.7282 -0.6141  0.8355
13622TIP3   OH262356   1.289   3.259   2.865  0.4880 -0.5136  0.5104
13622TIP3    H162357   1.198   3.231   2.875  0.2802 -0.1379 -0.2334
13622TIP3    H262358   1.308   3.311   2.944 -0.7181  1.4306 -0.4046
13623TIP3   OH262359   4.648   4.381   4.174 -0.0940 -0.0865  0.2875
13623TIP3    H162360   4.619   4.350   4.088 -1.1001 -1.7013  1.1347
13623TIP3    H262361   4.569   4.417   4.214  0.2055  0.0391  0.7754
13624TIP3   OH262362   6.632   2.244  14.073  0.4137 -0.0853  0.0646
13624TIP3    H162363   6.645   2.305  14.146 -0.7540 -0.8518  0.9491
13624TIP3    H262364   6.633   2.300  13.995  1.1197  0.8257  0.6986
13625TIP3   OH262365   0.342   5.602  13.656 -0.0557 -0.0566  0.3050
13625TIP3    H162366   0.331   5.644  13.570 -0.1917  0.3632  0.5242
13625TIP3    H262367   0.333   5.508  13.638  0.6078 -0.0245 -0.2552
13626TIP3   OH262368   1.556   1.020   1.815  0.5116  0.2068 -0.3859
13626TIP3    H162369   1.598   1.080   1.753 -0.2740 -0.4660 -1.6212
13626TIP3    H262370   1.504   0.961   1.759 -1.2241  0.3528  1.0124
13627TIP3   OH262371   0.766   6.310   3.652 -0.6639 -0.0162  0.4989
13627TIP3    H162372   0.710   6.326   3.576  0.6111 -0.6407 -0.5976
13627TIP3    H262373   0.766   6.215   3.663  2.0832 -0.3051 -1.0833
13628TIP3   OH262374   4.680   6.932   4.770 -0.0415  0.3604 -0.0383
13628TIP3    H162375   4.672   6.861   4.833  0.1271  0.8066  0.4966
13628TIP3    H262376   4.718   6.891   4.692  0.6798 -0.0123  0.4953
13629TIP3   OH262377   2.373   6.064   5.365 -0.3981  0.1071  0.3328
13629TIP3    H162378   2.374   5.973   5.334  1.3202  0.5319 -0.9977
13629TIP3    H262379   2.327   6.060   5.449  0.4526 -2.1588  0.7632
13630TIP3   OH262380   4.476   0.228   1.958 -0.5887 -0.0108 -0.3035
13630TIP3    H162381   4.543   0.278   2.004 -1.3891 -0.3620  1.2996
13630TIP3    H262382   4.522   0.190   1.883  0.6110  1.0528 -0.1495
13631TIP3   OH262383   5.046   6.991   1.226 -0.6976 -0.1072 -0.3500
13631TIP3    H162384   5.086   7.062   1.176 -1.2903  1.3405  1.1528
13631TIP3    H262385   4.960   6.979   1.187 -0.8958  0.5351 -0.1070
13632TIP3   OH262386   5.675   0.854  14.579  0.4277  0.5607 -0.1595
13632TIP3    H162387   5.627   0.777  14.549  1.8495 -1.2266  1.8480
13632TIP3    H262388   5.695   0.903  14.499 -0.6892 -1.0321 -1.4732
13633TIP3   OH262389   3.224   2.794   5.235 -0.2805 -0.3778  0.0843
13633TIP3    H162390   3.263   2.763   5.152  0.7742  0.1281  0.3753
13633TIP3    H262391   3.253   2.885   5.243 -1.2403 -0.0944  0.5085
13634TIP3   OH262392   6.939   0.997   1.626  0.0891  0.0478  0.4073
13634TIP3    H162393   6.925   1.005   1.720 -0.5106 -1.0973  0.4328
13634TIP3    H262394   7.032   0.978   1.616  0.2314  0.5521  0.7341
13635TIP3   OH262395   3.792   2.991   0.099 -0.5989 -0.3856 -0.8826
13635TIP3    H162396   3.755   3.027   0.018 -0.9745 -1.0719 -1.0270
13635TIP3    H262397   3.717   2.952   0.145 -0.4948  0.5320  0.0960
13636TIP3   OH262398   1.588   2.209   1.783 -0.2984  0.1076  0.2649
13636TIP3    H162399   1.593   2.159   1.864 -1.2519  3.3595  2.5279
13636TIP3    H262400   1.649   2.282   1.796 -1.3371  1.3530 -1.4098
13637TIP3   OH262401   4.864   3.841   1.266  0.0981 -0.5021 -0.5996
13637TIP3    H162402   4.896   3.831   1.177  1.1025 -0.3596 -0.2684
13637TIP3    H262403   4.779   3.885   1.257  1.3091  1.8309 -1.3769
13638TIP3   OH262404   4.588   1.945   2.867  0.2632  0.2654  0.5094
13638TIP3    H162405   4.642   1.977   2.939 -0.1860  0.3291  0.8219
13638TIP3    H262406   4.509   1.999   2.869  0.1008  0.0482  0.1792
13639TIP3   OH262407   0.885   1.475   3.101 -0.4825 -0.7114  0.4113
13639TIP3    H162408   0.920   1.389   3.077  0.8648  0.1354 -0.9155
13639TIP3    H262409   0.940   1.503   3.174 -0.6724 -0.8247  0.5970
13640TIP3   OH262410   1.617   5.288   4.093  0.6177 -0.7539 -0.0351
13640TIP3    H162411   1.586   5.299   4.003  0.9621  1.0541  0.0244
13640TIP3    H262412   1.622   5.377   4.128 -0.1851 -1.4566  2.0218
13641TIP3   OH262413   4.590   3.998   1.233  0.3701  0.3397 -0.6312
13641TIP3    H162414   4.518   3.985   1.172 -1.7436 -0.9900  1.9262
13641TIP3    H262415   4.557   4.062   1.296  1.2313 -0.5904  0.8347
13642TIP3   OH262416   3.680   3.689   3.485 -0.2330  0.0333  0.2848
13642TIP3    H162417   3.627   3.758   3.524 -0.0181 -0.5209  1.6102
13642TIP3    H262418   3.739   3.661   3.555  0.7771 -0.4003 -0.7131
13643TIP3   OH262419   0.194   0.730   3.666 -0.1879 -0.1912 -0.4067
13643TIP3    H162420   0.105   0.742   3.700 -1.3860 -0.4938 -3.2080
13643TIP3    H262421   0.209   0.636   3.672 -1.4030 -0.6095 -2.8358
13644TIP3   OH262422   1.054   3.816  15.054 -0.1265  0.2153  0.1503
13644TIP3    H162423   0.987   3.751  15.032 -0.3496  0.5652 -0.2008
13644TIP3    H262424   1.010   3.900  15.048  0.7231  0.5792 -1.6848
13645TIP3   OH262425   6.195   2.878   0.933 -0.2467 -0.3484  0.0720
13645TIP3    H162426   6.266   2.924   0.890  1.5842 -0.7216  2.4423
13645TIP3    H262427   6.181   2.799   0.880 -0.5620  0.8598 -1.7078
13646TIP3   OH262428   6.753   0.947   1.412  0.1673  0.2077  0.0329
13646TIP3    H162429   6.805   0.866   1.409  0.6531  0.4781  0.6949
13646TIP3    H262430   6.797   1.000   1.478 -0.4183  0.8309 -0.0708
13647TIP3   OH262431   2.844   7.206  11.208 -0.1905 -0.6024  0.3906
13647TIP3    H162432   2.775   7.272  11.196 -1.3504 -1.9269 -0.6345
13647TIP3    H262433   2.796   7.123  11.219  1.2118 -1.2734  1.8246
13648TIP3   OH262434   6.036   0.712   3.106 -0.3662  0.1726 -0.0770
13648TIP3    H162435   6.039   0.621   3.079  3.0614  0.0796  0.1931
13648TIP3    H262436   6.068   0.761   3.030 -0.9922  1.0498  0.1971
13649TIP3   OH262437   2.336   4.235   3.208  0.0185  0.5032 -0.2294
13649TIP3    H162438   2.383   4.302   3.256  1.8443 -0.2335 -0.8991
13649TIP3    H262439   2.353   4.153   3.255  0.9861 -0.0639 -1.4877
13650TIP3   OH262440   7.194   5.499   4.096  0.7658 -0.4742  0.2733
13650TIP3    H162441   7.236   5.567   4.148  1.5258  0.5274 -1.5258
13650TIP3    H262442   7.265   5.464   4.041  0.0977 -1.7639  0.2081
13651TIP3   OH262443   4.026   6.600   3.873  0.2462  0.0974  0.0033
13651TIP3    H162444   3.941   6.587   3.832 -0.9959  1.3301  2.0272
13651TIP3    H262445   4.021   6.686   3.914  1.9056 -0.4177  1.4483
13652TIP3   OH262446   2.611   1.056  15.239  0.1153 -0.2995  0.2052
13652TIP3    H162447   2.578   0.994  15.304  0.2013 -0.6675 -0.0982
13652TIP3    H262448   2.667   1.115  15.288  1.0747 -1.2513  0.2922
13653TIP3   OH262449   5.473   1.999   2.316  0.2725 -0.0794  0.2802
13653TIP3    H162450   5.489   2.076   2.370  0.2909 -0.3825  0.7120
13653TIP3    H262451   5.501   1.925   2.371 -0.7970 -0.4786  0.3044
13654TIP3   OH262452   6.447   3.072   3.751  0.3357  0.4139 -0.2152
13654TIP3    H162453   6.390   3.007   3.711  1.0540  0.1976 -0.9243
13654TIP3    H262454   6.412   3.156   3.722 -0.0190  0.3095 -0.0917
13655TIP3   OH262455   2.157   6.270   3.119  0.0932  0.8105  0.3093
13655TIP3    H162456   2.083   6.266   3.180 -0.6687  1.8864 -0.5031
13655TIP3    H262457   2.189   6.180   3.115 -2.1173 -0.0138 -0.4226
13656TIP3   OH262458   5.894   5.724  11.751 -0.0308  0.7362 -0.3749
13656TIP3    H162459   5.981   5.756  11.727 -0.0037  1.0685  0.1337
13656TIP3    H262460   5.882   5.645  11.699  1.8692 -1.0933  1.7126
13657TIP3   OH262461   1.412   3.764   4.127 -0.0122  0.5043  0.1859
13657TIP3    H162462   1.407   3.829   4.057 -2.3103 -0.6935 -0.8896
13657TIP3    H262463   1.501   3.729   4.121  0.2540  1.3337 -1.2856
13658TIP3   OH262464   0.950   0.526   1.764 -0.2112  0.1413 -0.0911
13658TIP3    H162465   1.008   0.545   1.837  0.1679 -1.7656  0.1504
13658TIP3    H262466   0.924   0.435   1.777 -2.0332  0.4762 -1.0398
13659TIP3   OH262467   2.163   5.329   2.853 -0.6407  0.6100  0.2759
13659TIP3    H162468   2.225   5.289   2.913 -1.1986 -1.5667 -0.4941
13659TIP3    H262469   2.166   5.423   2.873  1.6220  0.3607  1.3773
13660TIP3   OH262470   4.791   6.853   4.518  0.1111  0.1567  0.1562
13660TIP3    H162471   4.864   6.820   4.465  1.3987  2.4966  0.3180
13660TIP3    H262472   4.747   6.915   4.460 -0.8316 -0.1175  0.5781
13661TIP3   OH262473   1.032   1.476   3.334  0.1624 -0.0513  0.0579
13661TIP3    H162474   1.070   1.551   3.380  0.7064  0.3147 -0.9559
13661TIP3    H262475   1.107   1.423   3.307 -0.2181 -0.9757  0.7644
13662TIP3   OH262476   3.764   5.364   5.183  0.1513  0.5204 -0.2125
13662TIP3    H162477   3.762   5.436   5.120 -0.0157  0.5659 -0.1565
13662TIP3    H262478   3.849   5.372   5.226  0.0484  0.8151 -0.0579
13663TIP3   OH262479   0.897   3.284   0.857 -0.3815 -0.0544  0.4798
13663TIP3    H162480   0.948   3.247   0.929  0.3466  0.2138  0.1115
13663TIP3    H262481   0.945   3.260   0.778 -0.6769  0.4337  0.1425
13664TIP3   OH262482   2.087   3.976   2.800  0.1209  0.0576  0.2220
13664TIP3    H162483   2.060   3.887   2.821 -2.5148  1.2141  2.5075
13664TIP3    H262484   2.008   4.018   2.767  0.7185  2.0501  1.1423
13665TIP3   OH262485   7.000   4.751  13.915  0.1424 -0.2842 -0.0095
13665TIP3    H162486   6.927   4.764  13.854  0.2002  0.8917  0.1584
13665TIP3    H262487   6.973   4.677  13.970 -1.1359  0.4416  0.3671
13666TIP3   OH262488   7.018   5.153  15.344  0.1318 -0.3286 -0.3826
13666TIP3    H162489   6.957   5.226  15.356  1.3520  0.3830  2.2083
13666TIP3    H262490   7.070   5.177  15.267 -0.6802  0.6486 -0.6429
13667TIP3   OH262491   0.854   5.895   0.965 -0.1348  0.1109 -0.6424
13667TIP3    H162492   0.858   5.800   0.955  1.5763  0.1778 -0.7989
13667TIP3    H262493   0.906   5.929   0.893 -1.4214  1.2188 -1.0831
13668TIP3   OH262494   6.467   0.897   0.492 -1.1604 -0.0232 -0.5278
13668TIP3    H162495   6.538   0.940   0.444  0.1259 -0.0300  1.2803
13668TIP3    H262496   6.468   0.807   0.459 -1.5239  0.4101 -1.7752
13669TIP3   OH262497   5.833   0.663   4.224 -0.1430 -0.2438 -0.1198
13669TIP3    H162498   5.764   0.719   4.187  0.5621 -0.0860 -1.2489
13669TIP3    H262499   5.820   0.578   4.180  0.1405 -0.3223 -0.0519
13670TIP3   OH262500   7.112   0.661   5.112  0.0412 -0.4514  0.3663
13670TIP3    H162501   7.158   0.697   5.036  1.2469  0.3377  1.4284
13670TIP3    H262502   7.022   0.692   5.102  0.2680 -0.0417 -0.5402
13671TIP3   OH262503   3.210   1.490   4.805 -0.8737  0.3847  0.1245
13671TIP3    H162504   3.134   1.492   4.864 -1.0036  1.3298 -0.0526
13671TIP3    H262505   3.193   1.418   4.745 -1.9982  1.0399 -0.3686
13672TIP3   OH262506   2.668   6.346   4.713  0.0337  0.0424 -0.7056
13672TIP3    H162507   2.756   6.355   4.750 -0.8492  2.3469  1.0870
13672TIP3    H262508   2.635   6.264   4.750  1.2571 -0.6401 -1.0713
13673TIP3   OH262509   6.091   2.949   0.151 -0.3537 -0.0583  0.0160
13673TIP3    H162510   6.164   2.982   0.203 -0.3845 -0.2779  0.1999
13673TIP3    H262511   6.016   3.000   0.180  0.0700  1.6136 -1.5946
13674TIP3   OH262512   0.528   6.758   3.303 -0.6582 -0.3737  0.4418
13674TIP3    H162513   0.586   6.788   3.232  0.4107 -0.6065  1.1882
13674TIP3    H262514   0.464   6.829   3.313 -1.0565 -0.5127 -0.9993
13675TIP3   OH262515   5.655   4.995  12.566 -0.2654 -0.7004 -0.7484
13675TIP3    H162516   5.666   4.902  12.548 -1.0634 -1.1448  0.8709
13675TIP3    H262517   5.738   5.022  12.606 -0.1544 -0.8037 -0.9087
13676TIP3   OH262518   1.993   3.311   1.950 -0.1104 -0.9401  0.2542
13676TIP3    H162519   1.944   3.382   1.992  0.8748 -0.1525  0.1271
13676TIP3    H262520   1.956   3.306   1.862  0.6744  0.3606 -0.1898
13677TIP3   OH262521   4.038   1.416   6.065 -1.0977 -0.3941 -0.3643
13677TIP3    H162522   3.968   1.406   6.130 -0.1575 -0.8599  0.6185
13677TIP3    H262523   4.033   1.507   6.038 -1.2764 -0.0844  0.6560
13678TIP3   OH262524   0.837   4.794   2.308  0.6476 -0.4369  0.6059
13678TIP3    H162525   0.771   4.729   2.332 -0.1891 -0.3225 -1.2562
13678TIP3    H262526   0.812   4.823   2.221  2.3570  0.6752  0.4411
13679TIP3   OH262527   5.419   7.102   1.384 -0.2699 -0.6049  0.4845
13679TIP3    H162528   5.350   7.104   1.318  1.6790  2.5396 -1.7474
13679TIP3    H262529   5.393   7.168   1.448  0.3665  0.2403 -0.1052
13680TIP3   OH262530   1.359   5.181   1.602 -0.0271 -0.1100  0.1795
13680TIP3    H162531   1.290   5.215   1.545 -0.9455 -2.0533  0.0541
13680TIP3    H262532   1.417   5.133   1.543 -0.7684 -1.8047  0.7643
13681TIP3   OH262533   2.894   6.686   1.908  0.1263  0.0828  0.0598
13681TIP3    H162534   2.891   6.724   1.821 -0.0557  0.9428  0.4349
13681TIP3    H262535   2.818   6.629   1.912 -0.3498  0.7009 -0.0514
13682TIP3   OH262536   2.496   5.932  13.497 -0.1095  0.3440  0.5836
13682TIP3    H162537   2.571   5.987  13.476  0.6248  0.3031  2.8017
13682TIP3    H262538   2.450   5.979  13.566 -0.1387 -1.2286  1.6859
13683TIP3   OH262539   0.025   1.016   4.782 -0.2940 -0.1030  0.4806
13683TIP3    H162540   0.096   1.079   4.776 -0.5836  0.1105 -1.3103
13683TIP3    H262541   0.016   0.981   4.693 -2.0861 -0.4721  0.7570
13684TIP3   OH262542   1.267   4.716   5.566  0.0772  0.1110  1.0960
13684TIP3    H162543   1.349   4.739   5.522 -0.5439  0.9533  0.3506
13684TIP3    H262544   1.206   4.784   5.539 -0.6746 -0.0998  2.2371
13685TIP3   OH262545   7.100   4.228  11.934  0.0377 -0.0537 -0.5576
13685TIP3    H162546   7.019   4.245  11.886  0.8533 -1.1768 -2.4372
13685TIP3    H262547   7.170   4.256  11.874  1.0569  1.1789  1.1414
13686TIP3   OH262548   4.005   5.900   3.319  0.1875  0.2372 -0.4568
13686TIP3    H162549   3.989   5.993   3.302  1.4033  0.6441  0.4344
13686TIP3    H262550   3.942   5.876   3.386  0.5683  0.7229  0.0865
13687TIP3   OH262551   6.051   2.719   3.004 -0.8167  0.7504  0.6743
13687TIP3    H162552   6.008   2.740   3.087 -0.1383  0.2199  1.1706
13687TIP3    H262553   5.997   2.649   2.966 -1.8937  1.9049  0.0073
13688TIP3   OH262554   3.012   5.331  14.569 -0.0523  0.2739 -0.7957
13688TIP3    H162555   2.981   5.288  14.649  1.6373 -0.8830 -0.7236
13688TIP3    H262556   2.946   5.308  14.503 -1.2153  0.8534  0.1381
13689TIP3   OH262557   3.304   3.463   2.382  0.1443 -0.5445 -0.4026
13689TIP3    H162558   3.327   3.372   2.402  1.8940 -0.0002  0.2534
13689TIP3    H262559   3.265   3.459   2.295 -0.9542 -2.0614  0.1103
13690TIP3   OH262560   1.802   4.431   3.516  0.2779  0.1235 -1.0856
13690TIP3    H162561   1.797   4.515   3.470  1.3243  0.4260 -0.6857
13690TIP3    H262562   1.878   4.440   3.574  0.2627 -1.0156 -0.8607
13691TIP3   OH262563   1.844   3.524   2.075 -0.1938 -0.1390 -0.6047
13691TIP3    H162564   1.788   3.553   2.147  1.7373  3.8219 -0.4061
13691TIP3    H262565   1.783   3.499   2.005 -2.1076 -1.8699  1.5492
13692TIP3   OH262566   2.420   2.848   5.269 -0.0197 -0.5855  0.1605
13692TIP3    H162567   2.474   2.854   5.348  0.0835 -0.8243  0.1076
13692TIP3    H262568   2.422   2.756   5.246 -0.8248 -0.6761  0.4222
13693TIP3   OH262569   4.403   2.326   5.771 -0.7215 -0.5882 -0.1931
13693TIP3    H162570   4.444   2.411   5.753  0.2719 -0.7083  1.3763
13693TIP3    H262571   4.473   2.262   5.758 -0.9958 -1.0025  0.3316
13694TIP3   OH262572   4.173   6.158   5.572  0.3320 -0.5878 -0.1914
13694TIP3    H162573   4.233   6.158   5.497  0.5263  1.2456 -0.0921
13694TIP3    H262574   4.186   6.244   5.612 -1.7494 -0.4812  0.3385
13695TIP3   OH262575   0.733   1.439   4.815  0.3606  0.0878  0.5307
13695TIP3    H162576   0.744   1.529   4.845  1.9682 -0.6351  2.3681
13695TIP3    H262577   0.640   1.421   4.827  0.1960  1.2143  1.0740
13696TIP3   OH262578   1.639   0.300   4.629 -0.0089 -0.4632  0.0561
13696TIP3    H162579   1.653   0.240   4.556 -0.8091 -0.2521 -0.2782
13696TIP3    H262580   1.691   0.377   4.608 -2.3876  0.7792 -1.7272
13697TIP3   OH262581   6.504   2.250   2.686 -0.3863 -0.3127  0.3588
13697TIP3    H162582   6.448   2.196   2.742 -0.2428  0.0064  0.8135
13697TIP3    H262583   6.478   2.340   2.704 -0.0051 -0.1814  0.2747
13698TIP3   OH262584   3.694   1.550   5.084 -0.4464 -0.7480 -0.4595
13698TIP3    H162585   3.608   1.517   5.110 -0.4300 -2.1262 -1.9586
13698TIP3    H262586   3.716   1.500   5.006  1.1954  0.4435 -0.8185
13699TIP3   OH262587   6.809   0.702   1.160 -0.2119  0.5176 -0.1685
13699TIP3    H162588   6.882   0.734   1.213 -0.6063 -1.1585  1.4929
13699TIP3    H262589   6.735   0.757   1.186 -0.6822 -1.0608  1.9927
13700TIP3   OH262590   3.195   3.645  14.450  0.5133 -0.6522  0.4512
13700TIP3    H162591   3.181   3.595  14.530 -2.7049  1.9455  1.7716
13700TIP3    H262592   3.250   3.719  14.476 -1.3167  0.7240  0.6544
13701TIP3   OH262593   6.435   5.495   0.627 -0.2499  0.3138 -0.2131
13701TIP3    H162594   6.351   5.526   0.662 -0.5143  2.3122 -2.3790
13701TIP3    H262595   6.491   5.485   0.703 -2.2749 -0.5306  1.2403
13702TIP3   OH262596   0.841   3.225   0.522  0.2587  0.0624  0.1874
13702TIP3    H162597   0.851   3.311   0.481 -0.2182  0.6833  1.3395
13702TIP3    H262598   0.869   3.164   0.454 -3.0322  0.8397 -2.1313
13703TIP3   OH262599   5.455   1.655  11.306 -0.0779  0.2404  0.5799
13703TIP3    H162600   5.506   1.574  11.296  0.8393  0.9355 -0.7189
13703TIP3    H262601   5.375   1.639  11.254 -0.6643 -0.4064  1.6455
13704TIP3   OH262602   4.367   4.694   1.131  0.2842  0.2590 -0.3616
13704TIP3    H162603   4.437   4.742   1.087  1.2599 -1.0802 -0.3400
13704TIP3    H262604   4.402   4.676   1.219 -0.1444 -0.2892 -0.2956
13705TIP3   OH262605   5.597   1.717   0.750 -0.0348  0.6279 -0.2917
13705TIP3    H162606   5.638   1.780   0.691 -0.2837 -0.3777 -1.5961
13705TIP3    H262607   5.508   1.707   0.715  0.9433 -2.8394 -2.1986
13706TIP3   OH262608   4.916   5.698  14.195  0.0934 -0.2843  0.0849
13706TIP3    H162609   4.842   5.734  14.145 -0.7044 -0.9468  0.7596
13706TIP3    H262610   4.967   5.775  14.220  0.1780  0.1044 -1.2269
13707TIP3   OH262611   1.567   2.489  15.035 -0.3216  0.2570 -0.6477
13707TIP3    H162612   1.574   2.402  15.075  2.2241  1.1894  1.2575
13707TIP3    H262613   1.490   2.528  15.076  0.9170  0.3390  1.8123
13708TIP3   OH262614   0.128   3.416  10.281 -0.1994 -0.2896 -0.0142
13708TIP3    H162615   0.037   3.412  10.312  0.1996 -0.2919  1.2041
13708TIP3    H262616   0.128   3.362  10.201 -1.5096  0.6814 -0.7134
13709TIP3   OH262617   5.059   1.866   4.112  0.1475 -0.9470  0.0827
13709TIP3    H162618   4.999   1.794   4.093  0.5454 -1.0825 -0.7115
13709TIP3    H262619   5.017   1.944   4.074  0.0333 -0.8803  0.3469
13710TIP3   OH262620   1.572   6.520  11.834  0.4623 -0.6615 -0.1065
13710TIP3    H162621   1.611   6.442  11.795  1.1380  1.1021 -3.2909
13710TIP3    H262622   1.480   6.496  11.850  0.6766 -2.1260 -0.9060
13711TIP3   OH262623   7.183   5.732  13.759 -0.9731 -0.1337 -0.1262
13711TIP3    H162624   7.103   5.718  13.809 -1.0974  1.0395  0.0313
13711TIP3    H262625   7.174   5.820  13.723 -0.6426 -0.7550 -1.7893
13712TIP3   OH262626   3.083   0.940   1.680  0.4248  0.5086 -0.2960
13712TIP3    H162627   3.021   0.903   1.616  1.3708 -0.0306 -0.9322
13712TIP3    H262628   3.168   0.903   1.655  0.9982  1.1731  0.6036
13713TIP3   OH262629   0.373   5.821   3.840 -0.1825 -0.5197  0.2024
13713TIP3    H162630   0.453   5.856   3.880  0.1988 -0.5022 -0.5568
13713TIP3    H262631   0.378   5.727   3.853 -0.5990 -0.4247  1.1468
13714TIP3   OH262632   6.072   4.558   3.290 -0.4264 -0.0667  0.1551
13714TIP3    H162633   6.010   4.546   3.362 -1.4443  0.5919 -0.5668
13714TIP3    H262634   6.087   4.469   3.257  0.0378 -0.3707  1.1489
13715TIP3   OH262635   0.480   0.685  14.342  0.1168  0.8443  0.5944
13715TIP3    H162636   0.472   0.595  14.375 -1.3164  1.0420  0.8744
13715TIP3    H262637   0.396   0.726  14.365 -0.6051  1.2869 -2.3911
13716TIP3   OH262638   0.020   0.751   4.879  0.1925  0.0611 -0.0606
13716TIP3    H162639   0.100   0.700   4.867  1.8940  2.2417  1.1471
13716TIP3    H262640   0.023   0.817   4.809 -1.6005 -0.9459 -1.1720
13717TIP3   OH262641   6.544   4.696   4.910  0.0891 -0.1029 -0.6237
13717TIP3    H162642   6.553   4.790   4.923 -2.1235 -0.1499  2.6611
13717TIP3    H262643   6.496   4.687   4.828  0.5221  1.6102 -1.0931
13718TIP3   OH262644   6.578   2.450   1.650 -0.0628  0.2089 -0.7010
13718TIP3    H162645   6.581   2.364   1.608  1.0755 -0.0807 -0.0729
13718TIP3    H262646   6.614   2.434   1.737  1.2111  1.5258 -0.9523
13719TIP3   OH262647   3.030   3.075   5.346  0.4298  0.2021 -0.6944
13719TIP3    H162648   3.119   3.040   5.343  0.6634  0.8148 -1.2240
13719TIP3    H262649   3.003   3.065   5.438  0.9715 -0.1595 -0.5728
13720TIP3   OH262650   7.092   0.728   2.432  0.0089  0.1144  0.5650
13720TIP3    H162651   7.092   0.633   2.440  0.2703  0.0141 -0.5105
13720TIP3    H262652   7.001   0.754   2.450  0.1312 -0.2425  1.7613
13721TIP3   OH262653   3.399   2.867   2.261 -0.4393  0.3869 -0.1224
13721TIP3    H162654   3.419   2.837   2.172 -1.0975 -1.4257  0.3007
13721TIP3    H262655   3.481   2.904   2.293  0.8582 -2.1332 -0.2829
13722TIP3   OH262656   0.658   4.157   2.618 -0.0970  0.4319 -0.1674
13722TIP3    H162657   0.687   4.230   2.672 -0.8995  0.2725  0.5044
13722TIP3    H262658   0.738   4.109   2.597  0.2447  0.4932  0.9027
13723TIP3   OH262659   1.758   0.287   0.557  0.4767 -0.1849  0.2070
13723TIP3    H162660   1.794   0.369   0.591 -0.2873  0.0830  0.3974
13723TIP3    H262661   1.747   0.303   0.464  1.9826 -0.7013 -0.0927
13724TIP3   OH262662   3.670   3.655   1.325  0.0098  0.3051  0.0777
13724TIP3    H162663   3.633   3.589   1.384 -2.9752  0.5593 -1.3171
13724TIP3    H262664   3.716   3.605   1.258  2.2590 -0.0300  1.7219
13725TIP3   OH262665   6.867   3.538   3.266  0.2086 -0.1856  0.0964
13725TIP3    H162666   6.952   3.558   3.304  1.2348 -1.2140 -1.5029
13725TIP3    H262667   6.844   3.616   3.216 -0.2679  0.4600  1.3029
13726TIP3   OH262668   6.015   0.730   2.583 -1.0930 -0.6151  0.0809
13726TIP3    H162669   6.087   0.785   2.614 -0.7553 -1.4428  0.8124
13726TIP3    H262670   5.993   0.674   2.658 -0.2840 -2.6613 -1.1258
13727TIP3   OH262671   1.741   4.636  14.521  0.1686 -0.1403 -0.4714
13727TIP3    H162672   1.743   4.590  14.605  1.4282  0.9210  0.1317
13727TIP3    H262673   1.704   4.573  14.459 -1.7596 -0.6138  1.0565
13728TIP3   OH262674   1.695   6.061   5.872 -0.4229  0.0488  0.2281
13728TIP3    H162675   1.762   6.125   5.894 -1.5509  2.0091 -1.7099
13728TIP3    H262676   1.639   6.058   5.950  1.0333 -0.5282  1.3015
13729TIP3   OH262677   2.067   6.987   2.250  0.2910  0.7775 -0.7896
13729TIP3    H162678   2.138   6.924   2.244 -1.5157 -1.6030  0.9115
13729TIP3    H262679   2.099   7.054   2.310  0.9117 -0.5648  0.4264
13730TIP3   OH262680   0.385   7.196   2.555  0.7162  0.4292 -0.2965
13730TIP3    H162681   0.400   7.266   2.619  0.7606 -0.7093  0.9726
13730TIP3    H262682   0.290   7.191   2.546  0.6747  0.0055  0.3536
13731TIP3   OH262683   5.838   4.977  14.622  0.3635 -0.5647  0.2315
13731TIP3    H162684   5.887   4.942  14.549  1.0575 -1.1345  0.9569
13731TIP3    H262685   5.904   4.997  14.689 -0.0511  1.5983  0.0719
13732TIP3   OH262686   5.850   4.861   4.357  0.0245  0.1758 -0.2749
13732TIP3    H162687   5.901   4.900   4.427 -0.3466 -0.4772  0.3734
13732TIP3    H262688   5.834   4.933   4.296  0.6132  0.6785  0.1478
13733TIP3   OH262689   0.843   5.417   1.564 -0.0576  0.6666 -0.5386
13733TIP3    H162690   0.871   5.505   1.589  1.2864  0.3592 -0.8831
13733TIP3    H262691   0.822   5.374   1.647 -0.2325  1.1437 -0.3314
13734TIP3   OH262692   6.482   3.948  10.751  0.2196 -0.2185 -0.4072
13734TIP3    H162693   6.545   3.888  10.710  0.9415 -0.5159  1.0774
13734TIP3    H262694   6.464   4.013  10.683  0.0106 -1.6617 -1.8024
13735TIP3   OH262695   6.979   0.917   4.810  0.5660 -0.8231 -0.2541
13735TIP3    H162696   7.072   0.940   4.809  0.1949  0.8103 -0.2795
13735TIP3    H262697   6.941   0.977   4.875 -0.4285 -1.6437 -0.0604
13736TIP3   OH262698   0.317   2.553   4.108  0.1985 -0.0290 -0.1410
13736TIP3    H162699   0.377   2.481   4.089 -0.1252 -0.9657  2.1109
13736TIP3    H262700   0.233   2.512   4.127 -0.4984  1.0913 -0.6671
13737TIP3   OH262701   2.781   5.565   2.234  0.3524 -0.5148 -0.3152
13737TIP3    H162702   2.802   5.625   2.163  0.0913 -1.8976 -1.6018
13737TIP3    H262703   2.866   5.534   2.266  0.4802  0.3627  0.2220
13738TIP3   OH262704   2.426   3.727  15.129  0.0262 -0.0265 -0.7502
13738TIP3    H162705   2.513   3.756  15.104 -0.0026  0.9265  0.1655
13738TIP3    H262706   2.420   3.747  15.222 -0.3531 -2.1827 -0.2490
13739TIP3   OH262707   1.894   4.908   1.246 -0.2955  0.7255 -0.0409
13739TIP3    H162708   1.956   4.981   1.240 -0.3253  0.7731  0.2391
13739TIP3    H262709   1.923   4.846   1.179  0.7353  0.2211  0.8381
13740TIP3   OH262710   6.835   1.183   1.265  0.1938 -0.4058 -0.4739
13740TIP3    H162711   6.794   1.102   1.296 -0.5027 -0.0311 -0.3915
13740TIP3    H262712   6.811   1.249   1.330 -0.3391  0.1440 -1.2131
13741TIP3   OH262713   6.883   0.253   4.412  0.1570 -0.1708 -0.0907
13741TIP3    H162714   6.943   0.224   4.480 -1.7247 -0.7304  1.4263
13741TIP3    H262715   6.856   0.172   4.368  0.3445  0.0543 -0.6295
13742TIP3   OH262716   2.558   0.429   1.174  0.4570 -0.1859  0.2553
13742TIP3    H162717   2.599   0.495   1.118  0.5280 -2.2205 -2.2650
13742TIP3    H262718   2.468   0.461   1.185  1.0202  1.2998  0.7828
13743TIP3   OH262719   1.851   1.643   4.442  0.3255  0.6481  1.0648
13743TIP3    H162720   1.922   1.647   4.378  1.2930  0.5195  2.0971
13743TIP3    H262721   1.824   1.734   4.452  0.1983  0.6739  0.5082
13744TIP3   OH262722   6.382   1.076   4.469  0.2234 -0.2503  0.5361
13744TIP3    H162723   6.427   1.054   4.551 -0.4478  0.9066  1.2559
13744TIP3    H262724   6.429   1.028   4.402  1.3660 -0.5190  1.4890
13745TIP3   OH262725   0.849   3.185   3.798 -0.5021  0.3230  0.6305
13745TIP3    H162726   0.900   3.121   3.848 -0.1969  0.2932  0.2813
13745TIP3    H262727   0.805   3.133   3.731 -1.0056  0.3469  0.9345
13746TIP3   OH262728   5.018   3.084  13.825 -0.1032 -0.1131  0.2931
13746TIP3    H162729   4.929   3.053  13.841 -0.4228  0.8316  0.4444
13746TIP3    H262730   5.072   3.005  13.827 -0.8928 -0.6616  0.5224
13747TIP3   OH262731   5.996   4.231   2.570  0.1437 -0.5845 -0.1293
13747TIP3    H162732   5.934   4.171   2.530  1.3615 -0.6119 -2.1085
13747TIP3    H262733   5.963   4.319   2.549  1.1906 -0.5919 -1.9949
13748TIP3   OH262734   3.551   1.321   0.797 -0.7384  0.4259 -0.2402
13748TIP3    H162735   3.594   1.354   0.875  0.6781 -0.2178 -0.7203
13748TIP3    H262736   3.522   1.399   0.750  0.0190  0.8772  0.0306
13749TIP3   OH262737   1.389   1.067   4.051  0.1625 -0.0703  0.4546
13749TIP3    H162738   1.409   1.092   3.961  0.9260 -0.6968  0.4368
13749TIP3    H262739   1.413   1.144   4.103  3.0811 -0.8717  0.4654
13750TIP3   OH262740   1.184   5.362   5.001 -0.1813 -0.9428 -0.2722
13750TIP3    H162741   1.141   5.382   4.918  0.1543  0.5214 -0.1170
13750TIP3    H262742   1.259   5.421   5.004 -1.4890  0.7800  2.1167
13751TIP3   OH262743   6.789   3.814   1.067 -0.4457  0.1952  0.1889
13751TIP3    H162744   6.831   3.823   1.152  1.4591 -0.4579 -0.6081
13751TIP3    H262745   6.778   3.719   1.055  4.0212 -0.3183 -2.2424
13752TIP3   OH262746   6.124   2.286   2.756  0.1316 -0.4104  0.0846
13752TIP3    H162747   6.184   2.330   2.696  0.4863 -0.7350  0.1926
13752TIP3    H262748   6.047   2.266   2.703 -0.2259  0.7278  0.1477
13753TIP3   OH262749   5.211   1.777  15.383  0.4260 -0.4478 -0.3052
13753TIP3    H162750   5.127   1.733  15.376 -0.6240  1.1924  1.1718
13753TIP3    H262751   5.216   1.805  15.475  2.6706 -0.6514 -0.3058
13754TIP3   OH262752   1.705   1.470   4.959 -0.0190 -0.4407 -0.1579
13754TIP3    H162753   1.738   1.512   4.879 -0.2737 -0.5203 -0.3048
13754TIP3    H262754   1.784   1.439   5.003  0.0910 -0.9868 -0.7119
13755TIP3   OH262755   1.126   5.613   3.145 -0.0525 -0.4596 -0.0915
13755TIP3    H162756   1.037   5.638   3.168 -0.2206  0.5298 -1.6453
13755TIP3    H262757   1.182   5.663   3.206 -0.5256  0.0789 -0.0934
13756TIP3   OH262758   5.208   4.072   2.752  0.4874  0.0950  0.6543
13756TIP3    H162759   5.274   4.009   2.722  0.9230 -0.1562  2.0988
13756TIP3    H262760   5.197   4.054   2.845 -1.0683  0.6479  0.6151
13757TIP3   OH262761   1.680   1.799  14.801 -0.3787  0.4271  0.4114
13757TIP3    H162762   1.706   1.711  14.773 -1.6877  0.4705 -1.0370
13757TIP3    H262763   1.688   1.797  14.897  0.8221 -0.8497  0.3176
13758TIP3   OH262764   3.404   6.254   3.898 -0.4271 -0.2777 -0.2419
13758TIP3    H162765   3.497   6.234   3.886 -0.5180 -1.5692  0.9096
13758TIP3    H262766   3.401   6.311   3.975 -0.6296 -0.9161  0.2349
13759TIP3   OH262767   0.816   0.888  15.248 -0.2122 -0.2503 -0.5157
13759TIP3    H162768   0.899   0.841  15.253  0.4749  1.0267  0.6446
13759TIP3    H262769   0.786   0.894  15.339 -0.6729  0.8643 -0.7258
13760TIP3   OH262770   4.579   5.937   4.327  0.6244  0.3029 -0.1569
13760TIP3    H162771   4.567   5.883   4.405  0.2053 -0.2340 -0.5783
13760TIP3    H262772   4.519   5.899   4.262  1.2209  0.5093 -0.8501
13761TIP3   OH262773   4.303   2.226   4.744 -0.2598 -0.7504 -0.1269
13761TIP3    H162774   4.305   2.302   4.802 -1.9187 -1.7042  1.2869
13761TIP3    H262775   4.391   2.221   4.707  0.9399 -0.1846  2.4398
13762TIP3   OH262776   2.117   6.113   2.707 -0.0346  0.1407  0.0483
13762TIP3    H162777   2.085   6.057   2.637 -0.1892 -0.9558  0.9690
13762TIP3    H262778   2.184   6.168   2.665 -1.2165  0.6179 -1.2886
13763TIP3   OH262779   0.641   3.461  14.862  0.5266  0.0929 -0.5096
13763TIP3    H162780   0.596   3.544  14.880  0.5423  0.0384 -0.2054
13763TIP3    H262781   0.583   3.394  14.899  0.7579  0.0074 -0.3000
13764TIP3   OH262782   5.621   4.007   0.354 -0.2253  0.1021  0.4958
13764TIP3    H162783   5.710   4.023   0.386 -0.2354 -0.2975  0.7321
13764TIP3    H262784   5.570   3.989   0.434  0.1307 -2.8082  0.1721
13765TIP3   OH262785   6.839   3.904   6.039  0.6731  0.0424  0.1071
13765TIP3    H162786   6.856   3.841   6.109  0.8842  0.9913  0.9442
13765TIP3    H262787   6.838   3.989   6.084  0.7109  0.6605 -1.0319
13766TIP3   OH262788   4.714   3.133   1.286  0.2191 -0.0363 -0.2843
13766TIP3    H162789   4.810   3.141   1.287  0.2383 -0.1075 -1.0838
13766TIP3    H262790   4.683   3.222   1.270  0.0961  0.2443  1.3827
13767TIP3   OH262791   5.987   0.421   2.705  0.2730  0.0407  0.2733
13767TIP3    H162792   6.004   0.401   2.797  0.8968  3.9274  1.1962
13767TIP3    H262793   5.902   0.466   2.706  1.3235  2.2104 -0.5953
13768TIP3   OH262794   1.085   3.687  13.132 -0.3573 -0.4221 -0.1271
13768TIP3    H162795   1.140   3.611  13.152  0.1792 -0.3393 -1.1774
13768TIP3    H262796   1.082   3.737  13.213  2.1134  0.1602 -0.3056
13769TIP3   OH262797   0.423   0.320   2.511  0.4936 -0.3548 -0.1383
13769TIP3    H162798   0.374   0.402   2.503  1.7211  0.3445 -0.7978
13769TIP3    H262799   0.489   0.337   2.578  0.1282 -1.1487  0.4423
13770TIP3   OH262800   5.417   0.806   3.211 -0.7581  0.7130  0.5694
13770TIP3    H162801   5.339   0.782   3.161 -0.3183  2.6120 -1.1580
13770TIP3    H262802   5.416   0.901   3.214  1.3712  0.7827  0.7069
13771TIP3   OH262803   3.224   3.272   3.260  1.1861  0.4047 -0.6113
13771TIP3    H162804   3.258   3.341   3.203  1.6533  0.9813  0.3368
13771TIP3    H262805   3.129   3.274   3.247  1.1669  1.4417 -0.3599
13772TIP3   OH262806   2.303   5.653   3.811 -0.0426 -0.5788 -0.0260
13772TIP3    H162807   2.225   5.707   3.806  0.9453  0.8744 -0.5400
13772TIP3    H262808   2.306   5.623   3.902 -1.9496 -1.8961 -0.3474
13773TIP3   OH262809   0.515   1.352  14.887 -0.1147 -0.0361  0.0284
13773TIP3    H162810   0.456   1.307  14.826  0.5042 -1.2798  0.3159
13773TIP3    H262811   0.479   1.334  14.973  1.0772 -1.5089  0.2745
13774TIP3   OH262812   4.496   6.032   0.405  0.3881 -0.2861 -0.0743
13774TIP3    H162813   4.519   5.999   0.492 -0.2992 -0.0665  0.1985
13774TIP3    H262814   4.481   5.953   0.353  1.4430 -0.4262 -0.1788
13775TIP3   OH262815   6.732   1.954   3.703  0.3035  0.2246 -0.2669
13775TIP3    H162816   6.749   1.953   3.609 -0.8637 -1.7872 -0.5104
13775TIP3    H262817   6.637   1.947   3.711  0.4160 -0.1790  1.0494
13776TIP3   OH262818   3.674   1.191   4.461 -0.0423  0.2430 -0.4582
13776TIP3    H162819   3.742   1.239   4.508  1.6645 -1.6070 -0.9126
13776TIP3    H262820   3.592   1.220   4.501  1.0953  1.4130  1.1446
13777TIP3   OH262821   1.496   2.667   3.491  0.2313 -0.0804 -0.0482
13777TIP3    H162822   1.562   2.736   3.492  0.4715 -0.3065 -0.5318
13777TIP3    H262823   1.519   2.610   3.565  2.7616 -2.2091 -2.2631
13778TIP3   OH262824   0.780   4.210  14.857  0.2773 -0.4524  0.0821
13778TIP3    H162825   0.836   4.218  14.934  2.3368 -1.4658 -1.2253
13778TIP3    H262826   0.824   4.262  14.790 -0.3205 -1.3031 -1.0008
13779TIP3   OH262827   4.250   1.932  11.963 -0.1377 -0.1979 -0.1271
13779TIP3    H162828   4.279   1.943  12.053 -1.5119  0.9218  0.2132
13779TIP3    H262829   4.176   1.872  11.968 -2.2335  2.2114 -0.0217
13780TIP3   OH262830   6.889   1.834   1.889  0.0476 -0.1359  0.1828
13780TIP3    H162831   6.944   1.837   1.967  1.1314 -1.5260 -0.4667
13780TIP3    H262832   6.917   1.909   1.837 -0.0311  0.2576  0.6928
13781TIP3   OH262833   1.192   3.567   5.759 -0.4265 -0.1161 -0.3055
13781TIP3    H162834   1.226   3.646   5.716  0.5254 -0.2151  0.2259
13781TIP3    H262835   1.097   3.579   5.761 -0.7769 -0.9434 -4.1185
13782TIP3   OH262836   0.164   2.460   0.442 -0.6209 -0.2340 -0.2464
13782TIP3    H162837   0.236   2.397   0.435 -0.4314 -0.6361  3.2888
13782TIP3    H262838   0.195   2.537   0.396  1.2377 -1.0738 -0.5152
13783TIP3   OH262839   7.113   6.826  11.107  0.4797  0.2153  0.5028
13783TIP3    H162840   7.153   6.868  11.031  1.1172  1.2445  1.3684
13783TIP3    H262841   7.028   6.796  11.076  1.6711 -1.5460 -1.2281
13784TIP3   OH262842   0.648   1.549   2.368 -0.3160 -0.1173  0.3635
13784TIP3    H162843   0.685   1.519   2.285  0.5798 -0.5604  0.9015
13784TIP3    H262844   0.556   1.562   2.350 -0.5759 -2.2519 -0.1897
13785TIP3   OH262845   1.900   6.139   3.952  0.0725 -0.2130  0.2450
13785TIP3    H162846   1.977   6.194   3.938  0.3468 -0.9424 -1.3077
13785TIP3    H262847   1.934   6.063   4.000  0.5929 -1.0448 -1.3518
13786TIP3   OH262848   6.283   5.273   1.669  0.4011  0.2157 -0.0269
13786TIP3    H162849   6.365   5.313   1.639 -0.7539  3.4108  0.7028
13786TIP3    H262850   6.291   5.272   1.765 -0.4585  0.7109  0.0549
13787TIP3   OH262851   2.281   3.425   3.505 -0.0088 -0.0693 -0.0801
13787TIP3    H162852   2.189   3.414   3.481 -0.1854  1.1507 -0.0649
13787TIP3    H262853   2.327   3.428   3.421  0.0049 -0.5682 -0.0920
13788TIP3   OH262854   4.725   4.568  15.340  0.8360  0.7851  0.4126
13788TIP3    H162855   4.664   4.558  15.413 -0.0372  1.7901 -0.1497
13788TIP3    H262856   4.810   4.544  15.377  0.3855  1.0785  1.7126
13789TIP3   OH262857   7.073   1.701   5.467 -0.0273 -0.0302  0.6624
13789TIP3    H162858   7.157   1.658   5.481 -0.6799 -1.5942  0.0841
13789TIP3    H262859   7.042   1.667   5.383 -1.1935  0.5727  0.8187
13790TIP3   OH262860   3.773   2.101   2.418  0.0906  0.4312 -0.0185
13790TIP3    H162861   3.772   2.178   2.475 -0.1608 -0.2144  0.8606
13790TIP3    H262862   3.866   2.083   2.405  0.2128 -0.7486  2.0547
13791TIP3   OH262863   5.282   3.796   4.901  0.1222  0.3701 -0.0317
13791TIP3    H162864   5.304   3.800   4.808  0.4253  0.8008  0.0595
13791TIP3    H262865   5.355   3.838   4.945 -0.2707  0.6416  0.3674
13792TIP3   OH262866   3.655   1.821   0.924 -0.2525 -0.2772 -0.4286
13792TIP3    H162867   3.714   1.789   0.856 -0.6024 -2.5421  0.2320
13792TIP3    H262868   3.614   1.741   0.959 -3.9573  1.1724 -1.0406
13793TIP3   OH262869   7.028   6.481   2.339  0.0114 -0.0188 -0.3493
13793TIP3    H162870   6.975   6.416   2.293  0.5590 -0.6596 -0.0964
13793TIP3    H262871   7.091   6.511   2.274  0.9181 -1.0739 -0.0040
13794TIP3   OH262872   2.932   2.702   0.211 -0.1810 -0.5392  0.5247
13794TIP3    H162873   3.008   2.647   0.228 -0.7298 -0.6765  2.9998
13794TIP3    H262874   2.857   2.644   0.223 -0.7189  0.0667  0.1766
13795TIP3   OH262875   1.164   2.829  10.961  0.3151 -0.4496 -0.5734
13795TIP3    H162876   1.201   2.883  10.891  1.1721 -0.8772 -0.4535
13795TIP3    H262877   1.194   2.870  11.041 -0.7995  0.1334 -0.4346
13796TIP3   OH262878   0.290   3.755   5.093 -0.2383 -0.1182  0.2466
13796TIP3    H162879   0.310   3.670   5.056 -0.6592 -0.6337  1.1609
13796TIP3    H262880   0.224   3.737   5.161 -1.2525  1.0797 -0.3766
13797TIP3   OH262881   7.032   2.457  14.874  0.1477 -0.5293  0.0250
13797TIP3    H162882   7.085   2.448  14.954 -0.1380 -0.2697  0.2438
13797TIP3    H262883   6.943   2.434  14.901 -0.0932  0.3006 -0.0375
13798TIP3   OH262884   5.505   0.267   2.295  0.0152 -0.6378 -0.1567
13798TIP3    H162885   5.452   0.338   2.257  1.3726 -0.0247 -0.9669
13798TIP3    H262886   5.440   0.203   2.326 -1.2071 -0.2305 -1.7286
13799TIP3   OH262887   2.866   4.313   5.413 -0.2754 -0.1129  0.0617
13799TIP3    H162888   2.929   4.249   5.445  0.6888  1.2239  1.0010
13799TIP3    H262889   2.781   4.277   5.436  0.2293 -1.2275  0.2230
13800TIP3   OH262890   0.424   1.129  15.392  0.0881 -0.0821 -0.0336
13800TIP3    H162891   0.358   1.130  15.322 -0.7150 -1.5743  0.6447
13800TIP3    H262892   0.393   1.062  15.453  1.3165  0.4432  1.2306
13801TIP3   OH262893   5.451   4.750   4.929 -0.3883 -0.4492  0.0057
13801TIP3    H162894   5.448   4.673   4.872  1.3584 -0.7888  0.2993
13801TIP3    H262895   5.387   4.810   4.892 -0.1223 -1.1172 -1.6516
13802TIP3   OH262896   2.452   4.064   0.794 -0.2762  0.0882 -0.4811
13802TIP3    H162897   2.356   4.064   0.795 -0.3205 -0.4326 -2.0132
13802TIP3    H262898   2.476   4.155   0.776 -0.5220  0.0440 -1.0624
13803TIP3   OH262899   4.020   5.577   2.763 -0.0547 -0.4434  0.2256
13803TIP3    H162900   4.038   5.666   2.793 -0.1958  0.3292 -1.7858
13803TIP3    H262901   3.926   5.578   2.742  0.2385 -0.5912 -1.1754
13804TIP3   OH262902   0.729   0.496   1.120 -0.1878 -0.3726 -0.2720
13804TIP3    H162903   0.671   0.441   1.174  1.3492 -2.0318 -0.2310
13804TIP3    H262904   0.675   0.520   1.045 -0.7675 -2.4776 -0.5972
13805TIP3   OH262905   2.654   6.457   6.053  0.3295 -0.4773 -0.0341
13805TIP3    H162906   2.585   6.522   6.043  0.0344 -1.0305 -2.0077
13805TIP3    H262907   2.725   6.488   5.996  0.0352 -2.0092 -1.3159
13806TIP3   OH262908   5.158   0.939   4.197 -0.4686 -0.5060 -0.5620
13806TIP3    H162909   5.074   0.955   4.155  0.5394 -1.9403 -3.3497
13806TIP3    H262910   5.138   0.879   4.269 -2.0504  0.8242  0.1685
13807TIP3   OH262911   0.014   2.636   4.569 -0.1014  0.3690  0.1942
13807TIP3    H162912  -0.073   2.596   4.573  0.4250 -0.7427  1.0916
13807TIP3    H262913   0.071   2.564   4.540  0.6673  0.8131  0.5898
13808TIP3   OH262914   5.452   1.416   2.256 -0.6127 -0.2523 -0.1543
13808TIP3    H162915   5.411   1.329   2.250  0.4250 -0.9797  2.1946
13808TIP3    H262916   5.378   1.477   2.257 -1.5277 -1.3115  0.9096
13809TIP3   OH262917   4.493   0.985   2.165 -0.0906  0.0200  0.3914
13809TIP3    H162918   4.473   0.947   2.251  0.8563  0.1329  0.6771
13809TIP3    H262919   4.486   1.080   2.179  0.9302  0.0770  0.5880
13810TIP3   OH262920   1.426   6.317   1.956  0.2059 -0.7986  0.3262
13810TIP3    H162921   1.521   6.316   1.948  0.1819  1.1811 -0.9710
13810TIP3    H262922   1.394   6.324   1.866 -0.9806  1.8790  0.8414
13811TIP3   OH262923   1.948   0.357  10.938  0.2083  0.0557  0.0552
13811TIP3    H162924   1.863   0.341  10.897  0.1846 -0.3343  0.2463
13811TIP3    H262925   1.941   0.315  11.024  0.4716  0.3306  0.2123
13812TIP3   OH262926   6.908   2.737   1.428 -0.7753  0.1015  0.0477
13812TIP3    H162927   6.986   2.690   1.458 -1.0644 -1.3418 -1.3368
13812TIP3    H262928   6.842   2.719   1.495 -0.4349 -0.1406  0.3253
13813TIP3   OH262929   1.009   5.767   4.128  0.1796  0.1837  0.2993
13813TIP3    H162930   1.006   5.680   4.087 -3.7193  0.5257 -0.5717
13813TIP3    H262931   1.009   5.749   4.222 -0.5313 -0.8192  0.1273
13814TIP3   OH262932   4.333   6.542   5.401 -0.3292 -0.1371  0.0736
13814TIP3    H162933   4.242   6.559   5.425 -0.6489 -2.5576  0.8724
13814TIP3    H262934   4.384   6.601   5.456 -1.3733  0.1861  0.7182
13815TIP3   OH262935   3.012   4.863   2.188 -0.2144  0.6240  0.1703
13815TIP3    H162936   2.961   4.785   2.208 -0.8650  1.0963  0.3848
13815TIP3    H262937   3.064   4.839   2.111  0.2733 -0.3106  0.7734
13816TIP3   OH262938   6.716   2.897   2.347 -0.8349 -0.3554 -0.0502
13816TIP3    H162939   6.691   2.989   2.337 -0.9112 -0.4288 -0.5621
13816TIP3    H262940   6.636   2.853   2.375 -0.3396  0.0552  2.2754
13817TIP3   OH262941   4.703   2.395   0.257  0.1235  0.4007 -0.1846
13817TIP3    H162942   4.742   2.477   0.289 -2.1088  0.9720  1.3109
13817TIP3    H262943   4.772   2.330   0.271  1.4657  1.7711 -0.1049
13818TIP3   OH262944   2.461   1.497   3.018 -0.3663  0.7572 -0.1838
13818TIP3    H162945   2.415   1.517   2.937 -0.6901  0.0588 -0.1752
13818TIP3    H262946   2.542   1.454   2.990 -1.6906 -2.0168 -0.1151
13819TIP3   OH262947   4.122   0.749   0.879 -0.2998 -0.0085  0.3692
13819TIP3    H162948   4.198   0.694   0.900 -1.3659 -0.9502  2.0413
13819TIP3    H262949   4.054   0.686   0.856 -1.7109  0.4898  2.8274
13820TIP3   OH262950   3.156   6.680   5.336  1.0834  0.2910  0.1397
13820TIP3    H162951   3.065   6.683   5.366  0.6286  1.6379 -1.2331
13820TIP3    H262952   3.168   6.591   5.304  0.0782  0.2374 -0.1197
13821TIP3   OH262953   3.027   5.498   1.371  0.4972  0.1365 -0.3009
13821TIP3    H162954   3.057   5.586   1.351  0.8831 -0.1507 -1.0342
13821TIP3    H262955   3.008   5.500   1.465  0.2653  1.0607 -0.3561
13822TIP3   OH262956   4.755   6.198   3.051  0.5357 -0.2142 -0.0507
13822TIP3    H162957   4.831   6.246   3.084  1.1351 -1.7422  0.8564
13822TIP3    H262958   4.704   6.176   3.129  0.4659 -1.3699 -0.4038
13823TIP3   OH262959   6.202   6.824   5.071 -0.3936  0.0862  0.2600
13823TIP3    H162960   6.207   6.884   5.146  0.8751 -0.4000  0.5918
13823TIP3    H262961   6.290   6.788   5.064 -0.2985  0.6003 -1.8921
13824TIP3   OH262962   2.539   4.535  14.168  0.0877  0.6167 -0.2634
13824TIP3    H162963   2.543   4.510  14.076 -0.0394 -1.7220  0.3203
13824TIP3    H262964   2.629   4.562  14.190  1.0536 -2.2530 -0.2398
13825TIP3   OH262965   0.742   5.653   4.933 -1.6330  0.6716 -0.6861
13825TIP3    H162966   0.788   5.735   4.951 -1.2002 -0.0516  1.8196
13825TIP3    H262967   0.770   5.593   5.002 -4.5801 -0.5198 -0.3749
13826TIP3   OH262968   1.529   6.083   3.153  0.1533 -0.0477  0.2033
13826TIP3    H162969   1.577   6.086   3.070 -0.6750  2.6239 -0.2969
13826TIP3    H262970   1.583   6.135   3.213 -1.3535  1.9140 -0.0132
13827TIP3   OH262971   0.208   1.566   5.036 -0.6592 -0.2946  0.0546
13827TIP3    H162972   0.214   1.618   4.957 -0.8894 -1.4930 -0.7816
13827TIP3    H262973   0.257   1.616   5.102 -0.7440  0.8721 -0.7443
13828TIP3   OH262974   1.468   5.396  12.307  0.0722 -0.3207 -0.7455
13828TIP3    H162975   1.381   5.377  12.342  0.4925 -0.5890  0.2135
13828TIP3    H262976   1.505   5.310  12.288  0.7556 -0.3190  0.4825
13829TIP3   OH262977   1.398   3.866   3.009  0.3743 -0.5700  0.5502
13829TIP3    H162978   1.387   3.936   3.074 -2.7303  0.3266 -0.7861
13829TIP3    H262979   1.397   3.786   3.061  0.0274  0.2031  1.7933
13830TIP3   OH262980   1.405   2.764   5.751  0.1277 -0.0591 -0.2296
13830TIP3    H162981   1.312   2.758   5.731  0.2553 -1.0597 -0.6014
13830TIP3    H262982   1.414   2.842   5.806 -0.7761  0.6318 -1.0371
13831TIP3   OH262983   4.688   3.560   4.664  0.0728 -0.4286 -0.8260
13831TIP3    H162984   4.727   3.516   4.739  0.3834  3.0404  1.2095
13831TIP3    H262985   4.593   3.548   4.676  0.0425  1.1759  0.9328
13832TIP3   OH262986   4.540   0.496   2.776  0.7756  0.4856 -0.2788
13832TIP3    H162987   4.477   0.531   2.712 -0.1133 -0.2262  0.1897
13832TIP3    H262988   4.540   0.561   2.847  1.3995  1.0322 -0.7673
13833TIP3   OH262989   3.141   5.680   5.592 -0.8381 -0.0101  0.4177
13833TIP3    H162990   3.063   5.735   5.580  0.2998  1.3752 -1.2430
13833TIP3    H262991   3.214   5.737   5.567  0.5543 -1.7947  0.1976
13834TIP3   OH262992   6.856   0.237  15.138 -0.0771 -0.3566 -0.7206
13834TIP3    H162993   6.806   0.306  15.180  1.8378  0.1662  0.8692
13834TIP3    H262994   6.790   0.178  15.101 -1.7873  1.0453 -0.0332
13835TIP3   OH262995   2.717   3.406  14.248 -0.9121  0.3928 -0.0105
13835TIP3    H162996   2.707   3.372  14.160  1.5164 -1.3197  0.2679
13835TIP3    H262997   2.805   3.444  14.250  0.3664 -2.2626  2.3454
13836TIP3   OH262998   4.805   4.485   5.038  0.1417 -0.0600  0.1680
13836TIP3    H162999   4.754   4.443   5.108 -0.9724 -0.0451 -0.6093
13836TIP3    H263000   4.740   4.505   4.971  1.0526  0.7667 -0.4791
13837TIP3   OH263001   6.608   3.694  15.159 -0.3580  0.0785 -0.2212
13837TIP3    H163002   6.580   3.630  15.094  1.6283 -2.0467  0.8600
13837TIP3    H263003   6.567   3.776  15.132 -1.8352 -1.3145 -2.5110
13838TIP3   OH263004   1.743   0.480  14.765  0.5256  0.3083  0.0756
13838TIP3    H163005   1.797   0.502  14.841  1.6257  0.6202 -0.7617
13838TIP3    H263006   1.707   0.564  14.737  0.7379  0.3083 -0.1980
13839TIP3   OH263007   6.992   5.970   0.169  1.0786 -0.5220  0.1984
13839TIP3    H163008   7.020   5.984   0.078 -0.0552  0.2639 -0.0580
13839TIP3    H263009   6.903   5.936   0.161  0.9181 -0.3038  1.0181
13840TIP3   OH263010   3.540   6.238  15.127 -0.2478  0.0292 -0.5529
13840TIP3    H163011   3.514   6.330  15.138  0.9088  0.4830 -1.3835
13840TIP3    H263012   3.584   6.216  15.210  0.6680  0.6721 -0.8483
13841TIP3   OH263013   1.575   3.033  14.163  0.3836  0.0716 -0.4562
13841TIP3    H163014   1.537   2.993  14.085 -0.0345  1.5363 -1.0477
13841TIP3    H263015   1.657   2.986  14.177  0.3773 -0.3413 -1.6780
13842TIP3   OH263016   2.599   3.636   1.109 -0.1014  0.0388 -0.1573
13842TIP3    H163017   2.550   3.707   1.068 -1.4873  0.8952  2.7088
13842TIP3    H263018   2.576   3.558   1.058 -1.1998  1.1044 -1.3642
13843TIP3   OH263019   6.484   1.437  13.673  0.4184  0.3483  0.1639
13843TIP3    H163020   6.462   1.369  13.737  2.9478 -0.8799 -0.1170
13843TIP3    H263021   6.538   1.391  13.609  1.4850  2.4512 -0.5150
13844TIP3   OH263022   3.291   1.683   4.549 -0.0840 -0.0008  0.2636
13844TIP3    H163023   3.342   1.624   4.603  0.2139 -0.5058 -0.5493
13844TIP3    H263024   3.312   1.771   4.582  1.9588 -0.1256 -0.5743
13845TIP3   OH263025   0.698   6.465   0.792 -0.4251  0.6792  0.6625
13845TIP3    H163026   0.756   6.479   0.867  2.1035  1.5597 -1.2858
13845TIP3    H263027   0.753   6.418   0.729 -2.7816 -0.9510 -0.2826
13846TIP3   OH263028   5.508   3.191   2.480  0.1757  0.3487  0.3568
13846TIP3    H163029   5.491   3.192   2.574 -0.6771 -0.3303  0.2123
13846TIP3    H263030   5.466   3.271   2.447  3.0259  2.2406  0.9478
13847TIP3   OH263031   1.561   0.276  14.431  0.2423 -1.0094  0.2860
13847TIP3    H163032   1.561   0.185  14.460  1.0097 -0.7521  1.1294
13847TIP3    H263033   1.648   0.309  14.454 -0.2249  0.1044  0.5251
13848TIP3   OH263034   2.398   2.964  14.592  0.0615 -0.0554 -0.1652
13848TIP3    H163035   2.434   3.047  14.625 -1.6072  1.4544 -1.8956
13848TIP3    H263036   2.440   2.951  14.508  0.3935 -1.0525  0.1466
13849TIP3   OH263037   2.307   5.728   6.074  0.3499  0.1257  0.3900
13849TIP3    H163038   2.401   5.744   6.085  0.1858  0.6641  1.0540
13849TIP3    H263039   2.278   5.797   6.015  0.8500 -1.5888 -1.9730
13850TIP3   OH263040   3.120   4.328   0.329  0.5264 -0.2831  0.0589
13850TIP3    H163041   3.096   4.411   0.370 -0.6823 -0.3917 -0.3640
13850TIP3    H263042   3.058   4.319   0.256  1.3205 -1.0553 -0.5451
13851TIP3   OH263043   4.547   0.110   3.224 -0.0092  0.2517 -0.4159
13851TIP3    H163044   4.496   0.036   3.190 -0.5289  0.3461  0.1385
13851TIP3    H263045   4.505   0.187   3.186  0.0124  0.3062 -0.3283
13852TIP3   OH263046   0.741   2.140   2.618  0.7082 -0.0579  0.9027
13852TIP3    H163047   0.656   2.177   2.598 -0.0730 -2.0890  0.1845
13852TIP3    H263048   0.801   2.214   2.616 -0.7945  1.1889 -0.0359
13853TIP3   OH263049   3.659   2.246  14.308 -0.2722  0.3653  0.0028
13853TIP3    H163050   3.622   2.158  14.308 -2.7244  1.2632 -2.4332
13853TIP3    H263051   3.624   2.287  14.387 -1.0927 -0.1262 -0.0972
13854TIP3   OH263052   5.658   3.887  14.261 -0.5268  0.7884  0.1184
13854TIP3    H163053   5.598   3.887  14.335  1.3166  1.7470  1.6784
13854TIP3    H263054   5.745   3.888  14.300  0.5522 -0.5154 -2.0695
13855TIP3   OH263055   3.130   1.765   5.697  0.4311  0.0335  0.1101
13855TIP3    H163056   3.117   1.737   5.787  0.6493  1.5942  0.6594
13855TIP3    H263057   3.063   1.832   5.682  1.6253  1.2120 -0.2099
13856TIP3   OH263058   0.031   5.380   1.080 -0.5398 -0.1668  0.4575
13856TIP3    H163059  -0.018   5.316   1.132  0.6037 -0.0858  1.6829
13856TIP3    H263060  -0.032   5.448   1.059 -1.6891 -1.4803 -0.5558
13857TIP3   OH263061   6.029   1.007   1.553  0.1753 -0.0129 -0.2088
13857TIP3    H163062   5.992   0.927   1.591  2.5402 -0.2417  1.9513
13857TIP3    H263063   6.021   1.072   1.623  2.5362  0.2374 -0.0743
13858TIP3   OH263064   2.904   4.407   4.878 -0.2476 -0.3242  0.3712
13858TIP3    H163065   2.928   4.383   4.788  0.4002 -1.1553  0.7450
13858TIP3    H263066   2.985   4.444   4.914  0.0205 -1.5888  1.1305
13859TIP3   OH263067   4.606   5.051   3.508  0.1751  0.8336  0.4611
13859TIP3    H163068   4.533   5.090   3.556 -0.7900 -0.7171  0.3061
13859TIP3    H263069   4.683   5.098   3.540 -0.9279  3.1389 -0.0312
13860TIP3   OH263070   2.354   5.052   0.021  0.0211  0.1008 -0.5526
13860TIP3    H163071   2.445   5.067   0.043 -0.5724  2.8134  0.3771
13860TIP3    H263072   2.356   4.977  -0.039  2.4357 -2.4130  2.3394
13861TIP3   OH263073   3.222   5.059   2.089  0.2597  0.0167  0.3982
13861TIP3    H163074   3.158   5.064   2.160  1.6548 -0.0587  1.7132
13861TIP3    H263075   3.187   5.117   2.021 -0.8352  0.5348  1.3595
13862TIP3   OH263076   0.201   3.211   3.863 -0.4698 -0.3357  0.0119
13862TIP3    H163077   0.164   3.206   3.775  1.0047  0.4581 -0.6874
13862TIP3    H263078   0.255   3.289   3.862  2.0857 -1.9650  0.5959
13863TIP3   OH263079   5.426   4.810   3.583  0.6776  0.4183  0.3000
13863TIP3    H163080   5.422   4.891   3.532 -1.1856 -0.0748 -0.4335
13863TIP3    H263081   5.402   4.837   3.672 -1.7868  0.4892 -0.2979
13864TIP3   OH263082   1.714   3.284  14.209  0.5063 -0.2096 -1.5350
13864TIP3    H163083   1.803   3.290  14.174  0.2819 -0.6302 -2.1947
13864TIP3    H263084   1.676   3.209  14.165 -0.5113  0.5714 -2.0173
13865TIP3   OH263085   5.772   4.611  13.556  0.4935 -0.0023  0.0946
13865TIP3    H163086   5.823   4.532  13.538  1.6830  0.4243  1.4027
13865TIP3    H263087   5.785   4.665  13.479  0.1932 -0.8101 -0.5387
13866TIP3   OH263088   3.080   4.962  13.926 -0.2063 -0.6005 -0.0929
13866TIP3    H163089   3.044   4.890  13.875  0.4066  0.3699 -1.9722
13866TIP3    H263090   3.030   5.039  13.898 -0.0416 -0.0752  0.9935
13867TIP3   OH263091   5.448   2.661  15.139 -0.3636 -0.1968  0.6250
13867TIP3    H163092   5.400   2.677  15.221 -1.2315 -0.4209  0.1685
13867TIP3    H263093   5.380   2.659  15.071  0.4263  0.8203 -0.2271
13868TIP3   OH263094   1.411   4.963   2.894 -0.1972 -0.0569 -0.0523
13868TIP3    H163095   1.384   4.877   2.862  1.4107 -0.3270 -0.7916
13868TIP3    H263096   1.386   4.964   2.986 -1.0528 -0.9555 -0.2605
13869TIP3   OH263097   4.349   7.061   4.244  0.3727 -0.5067  0.8096
13869TIP3    H163098   4.290   7.135   4.231  0.8617 -0.1368  0.6646
13869TIP3    H263099   4.297   6.985   4.220  0.1145 -0.1423  0.1768
13870TIP3   OH263100   1.458   1.870   1.545  0.2464  0.4745  0.1326
13870TIP3    H163101   1.543   1.873   1.589  0.5997 -1.3773 -0.3365
13870TIP3    H263102   1.473   1.916   1.462  0.0415  2.4549  1.1465
13871TIP3   OH263103   4.636   1.964  14.008 -0.6583 -0.1698 -0.1243
13871TIP3    H163104   4.724   1.926  14.011 -0.8499 -0.6104  0.1290
13871TIP3    H263105   4.601   1.937  13.923  0.1438  1.6236 -1.0635
13872TIP3   OH263106   3.720   6.263   1.988  0.4113 -0.3773 -0.7428
13872TIP3    H163107   3.760   6.313   1.917  0.8781  0.4250  0.0642
13872TIP3    H263108   3.762   6.297   2.068 -1.3263 -0.0285  0.0719
13873TIP3   OH263109   5.836   4.732   5.072 -0.0675  0.2515  0.0642
13873TIP3    H163110   5.849   4.699   5.161  1.0133  1.8777  0.5627
13873TIP3    H263111   5.856   4.826   5.079 -3.0224  1.0913 -1.2261
13874TIP3   OH263112   0.549   6.979   3.021  0.0797  0.0359  0.1425
13874TIP3    H163113   0.519   7.056   3.069 -0.6194 -0.1255 -0.0323
13874TIP3    H263114   0.572   7.012   2.934 -0.1762  0.0543  0.0819
13875TIP3   OH263115   3.054   2.156   3.091 -0.6134  0.0375  0.7864
13875TIP3    H163116   2.984   2.204   3.048 -0.3521  0.6920  1.0902
13875TIP3    H263117   3.052   2.185   3.182  1.1654  1.4008  0.4481
13876TIP3   OH263118   4.897   3.078   5.069  0.3155 -0.4231 -0.2962
13876TIP3    H163119   4.831   3.113   5.129 -0.5834 -1.8741 -0.3814
13876TIP3    H263120   4.948   3.154   5.041 -2.1026  0.9901 -1.1919
13877TIP3   OH263121   1.277   4.595   4.220 -0.4644 -0.0216 -0.3093
13877TIP3    H163122   1.194   4.641   4.214  0.1063  0.9555 -1.1797
13877TIP3    H263123   1.297   4.593   4.313  0.5389  3.5474 -0.2957
13878TIP3   OH263124   1.707   5.185  15.290  0.0652 -0.5239  0.8205
13878TIP3    H163125   1.790   5.143  15.313 -0.0138 -2.0085 -1.3602
13878TIP3    H263126   1.727   5.279  15.291  1.5629 -0.8220  1.1143
13879TIP3   OH263127   3.492   6.432   0.967  0.2881  0.0013  0.4810
13879TIP3    H163128   3.397   6.437   0.957  0.4509  1.2688 -0.6895
13879TIP3    H263129   3.507   6.439   1.061 -0.7797 -0.5937  0.7160
13880TIP3   OH263130   3.556   0.199   2.844 -0.1813 -0.4083 -0.3329
13880TIP3    H163131   3.553   0.277   2.788  0.6540  1.2289  1.7969
13880TIP3    H263132   3.648   0.172   2.842 -0.3289 -0.9190 -0.4656
13881TIP3   OH263133   6.378   3.583   2.207 -0.1316  1.2011 -0.7560
13881TIP3    H163134   6.422   3.500   2.190 -1.6991 -0.0044  0.6462
13881TIP3    H263135   6.442   3.636   2.254  1.1464  1.1415 -2.3147
13882TIP3   OH263136   5.479   2.479   3.517 -0.4601  0.0619 -0.6052
13882TIP3    H163137   5.415   2.545   3.546  0.3606 -0.2810  2.2666
13882TIP3    H263138   5.549   2.530   3.476 -0.1345  0.9885  1.0188
13883TIP3   OH263139   4.185   6.649   2.859  0.2312  0.3066 -0.0513
13883TIP3    H163140   4.123   6.721   2.850 -1.0873 -0.5863  1.3662
13883TIP3    H263141   4.238   6.673   2.935 -1.7205 -1.1728  1.9035
13884TIP3   OH263142   3.483   1.200   5.579 -0.1788 -0.0687  0.0926
13884TIP3    H163143   3.446   1.203   5.667  0.2539  0.8512  0.2595
13884TIP3    H263144   3.517   1.111   5.570 -0.1275 -0.1339  0.8988
13885TIP3   OH263145   2.777   4.325  14.717 -0.0368  0.0728 -0.2037
13885TIP3    H163146   2.846   4.283  14.665 -1.7875 -1.4730 -1.4012
13885TIP3    H263147   2.808   4.415  14.729  1.6616 -0.2510 -1.6562
13886TIP3   OH263148   1.667   3.094  14.943 -0.3866 -0.0116 -0.2672
13886TIP3    H163149   1.651   3.002  14.965  0.5344 -0.4685 -1.3704
13886TIP3    H263150   1.757   3.109  14.972 -0.8220  0.8209  0.7041
13887TIP3   OH263151   1.960   0.406  15.344 -0.2565  0.1011 -0.1376
13887TIP3    H163152   1.868   0.432  15.343 -0.2911 -0.0220 -1.3736
13887TIP3    H263153   1.987   0.409  15.252  1.1362  0.6947  0.2596
13888TIP3   OH263154   4.188   6.503  13.599  0.1465  0.1402  0.4051
13888TIP3    H163155   4.230   6.441  13.539 -3.8004 -0.3799 -2.2348
13888TIP3    H263156   4.243   6.581  13.595  0.7086 -0.2573 -3.1585
13889TIP3   OH263157   4.305   3.243   2.220  0.1909  0.1882  0.1386
13889TIP3    H163158   4.218   3.264   2.186 -1.2679 -1.0821  2.7365
13889TIP3    H263159   4.322   3.155   2.189  0.9595  0.7209 -1.0162
13890TIP3   OH263160   6.554   5.869   5.213 -0.1259  0.1004  0.3011
13890TIP3    H163161   6.515   5.926   5.147 -0.8248 -0.9646 -0.2336
13890TIP3    H263162   6.487   5.862   5.281 -0.0803 -0.1362  0.3232
13891TIP3   OH263163   2.921   2.002   5.208  0.7099  0.6151 -0.2964
13891TIP3    H163164   2.996   1.944   5.208  0.0518 -0.4270 -3.6304
13891TIP3    H263165   2.851   1.951   5.167 -0.9330  2.5806 -0.0985
13892TIP3   OH263166   1.130   3.544   1.040  0.0676 -0.4931  0.2048
13892TIP3    H163167   1.190   3.575   1.108  0.8921 -0.4316 -0.5269
13892TIP3    H263168   1.084   3.470   1.081  0.1909 -0.1470  0.9888
13893TIP3   OH263169   4.078   4.033   3.764  0.5658  0.1751  0.0888
13893TIP3    H163170   4.086   4.069   3.675  0.9482  1.0377  0.4542
13893TIP3    H263171   4.149   3.970   3.771 -0.2990 -0.9025 -0.6691
13894TIP3   OH263172   0.364   4.459   5.541  0.4838  0.3578 -0.0482
13894TIP3    H163173   0.317   4.445   5.459  0.6569 -0.0292 -0.0817
13894TIP3    H263174   0.298   4.444   5.609  0.8210 -1.3568 -0.0553
13895TIP3   OH263175   6.904   0.623  14.066  0.0008  0.1347 -0.1264
13895TIP3    H163176   6.941   0.562  14.129  0.3146 -0.4968 -0.8970
13895TIP3    H263177   6.863   0.691  14.119  0.2404 -0.3863  0.7470
13896TIP3   OH263178   3.241   5.654  13.577 -0.1142  0.2793 -0.2258
13896TIP3    H163179   3.233   5.723  13.512  1.9104 -1.3239 -2.3422
13896TIP3    H263180   3.289   5.694  13.650 -2.1712  2.0275  0.2468
13897TIP3   OH263181   5.564   5.297   3.614  0.5846  0.2723  0.2041
13897TIP3    H163182   5.653   5.290   3.580  1.0725  0.0060  1.4629
13897TIP3    H263183   5.562   5.381   3.659  0.7984 -0.5146  1.7493
13898TIP3   OH263184   0.240   0.198   3.673 -0.0112 -0.0931 -0.2951
13898TIP3    H163185   0.171   0.244   3.625  1.4151  0.9868 -1.3721
13898TIP3    H263186   0.265   0.259   3.743 -0.2646 -0.5661  0.2158
13899TIP3   OH263187   2.834   3.027   2.040 -0.7507 -0.0083 -0.3115
13899TIP3    H163188   2.774   3.099   2.021 -1.1386 -0.7020 -1.8393
13899TIP3    H263189   2.873   3.004   1.956  0.7303 -0.4093  0.4510
13900TIP3   OH263190   1.837   2.498   4.894  0.2628 -0.2301  0.7955
13900TIP3    H163191   1.835   2.592   4.874 -2.2271  0.0764  2.0734
13900TIP3    H263192   1.833   2.455   4.809 -0.6251  0.8674  0.2555
13901TIP3   OH263193   2.058   5.731   5.668 -0.3112  0.1004  0.3671
13901TIP3    H163194   2.006   5.769   5.739  0.5281  0.5450  0.7632
13901TIP3    H263195   2.065   5.802   5.604  0.6923  0.4290  0.8053
13902TIP3   OH263196   3.299   1.796   0.189  0.2688 -0.0073 -0.7062
13902TIP3    H163197   3.275   1.858   0.120 -3.1007  2.0474  1.9657
13902TIP3    H263198   3.256   1.830   0.268  4.0269 -1.9962  2.5699
13903TIP3   OH263199   4.316   1.685  14.774 -0.0685 -0.1134 -0.2994
13903TIP3    H163200   4.222   1.687  14.756  0.0965  0.5290 -1.1584
13903TIP3    H263201   4.357   1.698  14.688  0.8146 -1.0122 -0.0276
13904TIP3   OH263202   4.488   7.119   3.921  0.2044  0.4693 -0.0742
13904TIP3    H163203   4.413   7.060   3.932  1.0743 -0.7017 -0.1872
13904TIP3    H263204   4.529   7.122   4.008 -0.1352  1.3471  0.0644
13905TIP3   OH263205   0.208   3.106   4.726 -0.1951  0.3487 -0.1855
13905TIP3    H163206   0.166   3.174   4.672  2.3350  1.5117 -0.8178
13905TIP3    H263207   0.214   3.030   4.667 -0.3603  0.5507 -0.4681
13906TIP3   OH263208   3.076   3.699   4.519 -0.0137 -0.5881  0.1469
13906TIP3    H163209   2.993   3.747   4.528 -0.0955 -0.5693 -0.6737
13906TIP3    H263210   3.143   3.764   4.536 -0.1308 -0.2293 -0.7157
13907TIP3   OH263211   0.924   6.327   2.987  0.0713 -0.4763 -0.2996
13907TIP3    H163212   1.011   6.360   2.961 -0.0470  0.1188  0.0552
13907TIP3    H263213   0.932   6.232   2.978  0.2616 -0.3488 -1.8234
13908TIP3   OH263214   7.135   0.994   5.376 -0.7059 -0.3495 -0.1880
13908TIP3    H163215   7.208   0.942   5.344  1.0312  1.5196  0.4950
13908TIP3    H263216   7.122   0.965   5.466  0.0039  0.0692  0.0648
13909TIP3   OH263217   5.547   6.343   2.681 -0.4397  0.1739  0.3566
13909TIP3    H163218   5.496   6.423   2.693  0.2636  0.7829 -0.6009
13909TIP3    H263219   5.636   6.367   2.708  0.1891  0.2794 -1.6369
13910TIP3   OH263220   0.174   6.283   5.180 -0.8058 -0.2565  0.1721
13910TIP3    H163221   0.153   6.268   5.272  1.6125  2.3356  1.2932
13910TIP3    H263222   0.242   6.218   5.160 -2.0662 -1.5120 -0.1651
13911TIP3   OH263223   3.822   1.840   3.560  0.5053  0.5841  0.1902
13911TIP3    H163224   3.823   1.769   3.624  1.8581 -0.3887 -0.8711
13911TIP3    H263225   3.753   1.815   3.498 -0.4799  1.2928  0.9616
13912TIP3   OH263226   6.817   3.866   3.278  0.3781 -0.1439 -0.6220
13912TIP3    H163227   6.897   3.853   3.329 -0.7147  0.5300  1.3459
13912TIP3    H263228   6.829   3.952   3.238  0.4474  0.1623  0.0444
13913TIP3   OH263229   5.499   5.999   2.393 -0.4095 -0.6503  0.3646
13913TIP3    H163230   5.451   5.977   2.313 -1.0455 -0.4517  0.6851
13913TIP3    H263231   5.531   6.088   2.378  1.0490 -1.2697 -0.4025
13914TIP3   OH263232   4.354   5.418  14.418  0.4918  0.4607 -0.1521
13914TIP3    H163233   4.449   5.402  14.418  0.2577 -1.8132 -3.0037
13914TIP3    H263234   4.316   5.336  14.386 -2.3699  1.6874 -0.2057
13915TIP3   OH263235   1.300   5.285   3.051  0.0784  0.2179 -0.4123
13915TIP3    H163236   1.367   5.223   3.022  1.5675  1.2448  0.6835
13915TIP3    H263237   1.347   5.349   3.105 -2.1251 -0.1974  2.2246
13916TIP3   OH263238   5.561   6.302  13.272 -0.4441  0.0863  0.0306
13916TIP3    H163239   5.477   6.288  13.316 -0.1526 -0.0819  0.5520
13916TIP3    H263240   5.607   6.364  13.329  1.3572 -2.7349  1.9681
13917TIP3   OH263241   6.257   1.970   2.362 -0.4482 -0.0537 -0.3292
13917TIP3    H163242   6.324   2.024   2.405 -0.4718  1.0162 -1.5719
13917TIP3    H263243   6.225   1.912   2.431  2.5855 -1.4721  0.0788
13918TIP3   OH263244   2.539   2.920   1.010 -0.0311 -0.1923  0.3931
13918TIP3    H163245   2.605   2.855   1.033 -0.2088 -0.6558 -0.3741
13918TIP3    H263246   2.457   2.871   1.004 -0.3737  0.3028  0.9198
13919TIP3   OH263247   4.142   1.404  13.400 -0.6847  0.4301  0.3809
13919TIP3    H163248   4.219   1.357  13.432 -0.8067 -0.5286 -0.6746
13919TIP3    H263249   4.068   1.351  13.430 -0.8661  0.5678  0.1809
13920TIP3   OH263250   4.163   6.010  11.274  0.6014  0.1872  0.0300
13920TIP3    H163251   4.176   6.068  11.199 -0.9600  1.5290  0.7164
13920TIP3    H263252   4.149   6.070  11.348 -3.4710 -0.8877  0.3891
13921TIP3   OH263253   6.906   1.013   3.101 -0.4846  0.7339 -0.2708
13921TIP3    H163254   6.865   1.022   3.187  0.4735  2.2046  0.0684
13921TIP3    H263255   6.893   1.098   3.060 -0.6174  0.1571 -1.4530
13922TIP3   OH263256   3.025   1.155  13.929  0.1829  0.2493  1.0091
13922TIP3    H163257   2.972   1.106  13.867  0.3137 -0.4256  1.4242
13922TIP3    H263258   3.095   1.095  13.955  0.0362  0.4536  1.9381
13923TIP3   OH263259   4.194   3.590   0.583 -0.0963 -1.0512 -0.1916
13923TIP3    H163260   4.261   3.621   0.644  0.9432 -1.8216 -0.9036
13923TIP3    H263261   4.222   3.502   0.559 -1.2287 -1.2837 -0.7235
13924TIP3   OH263262   3.661   6.713   2.735  0.3501  0.7496 -0.0478
13924TIP3    H163263   3.701   6.750   2.813  2.3061  1.3921 -1.3029
13924TIP3    H263264   3.582   6.669   2.767  2.0109 -0.5598  2.5544
13925TIP3   OH263265   5.378   5.459   3.473 -0.1530 -0.3601 -0.3478
13925TIP3    H163266   5.430   5.539   3.474  1.7385 -1.4822 -1.9138
13925TIP3    H263267   5.355   5.445   3.565 -0.3944  1.8569 -0.0179
13926TIP3   OH263268   5.608   4.977   5.363  0.2795  0.3124 -0.2429
13926TIP3    H163269   5.581   4.940   5.279  0.0885 -0.1608  0.0226
13926TIP3    H263270   5.566   4.921   5.429 -1.7764  2.2357  0.1967
13927TIP3   OH263271   1.909   4.457   4.965  0.1010 -0.0309  0.1032
13927TIP3    H163272   1.990   4.406   4.968  0.8913  1.1340 -0.7902
13927TIP3    H263273   1.879   4.458   5.056  1.3384 -0.0909  0.5362
13928TIP3   OH263274   4.404   0.261  13.309  0.3305 -0.4949  0.0640
13928TIP3    H163275   4.378   0.239  13.219  1.8895 -0.3766 -0.4447
13928TIP3    H263276   4.355   0.200  13.364 -1.1602 -0.1252 -0.8055
13929TIP3   OH263277   0.590   1.889  11.127  0.5533 -0.1488  0.0073
13929TIP3    H163278   0.627   1.921  11.045  0.6841 -0.8796 -0.2272
13929TIP3    H263279   0.574   1.796  11.111  1.0204 -0.4028  0.9645
13930TIP3   OH263280   2.720   6.329   2.091 -0.5452 -0.1085 -0.0735
13930TIP3    H163281   2.674   6.320   2.174  0.7040  1.2559  0.7993
13930TIP3    H263282   2.718   6.423   2.072 -0.9082 -0.4132 -1.6503
13931TIP3   OH263283   1.095   1.701   1.497 -0.5470  0.3153  0.1527
13931TIP3    H163284   1.110   1.796   1.500  0.0139  0.2365 -0.0005
13931TIP3    H263285   1.074   1.677   1.588  0.8927  0.3497  0.5281
13932TIP3   OH263286   5.062   4.573   3.677 -0.6857  0.0082 -0.1087
13932TIP3    H163287   5.146   4.564   3.631 -0.2358 -0.5595  0.7970
13932TIP3    H263288   4.997   4.565   3.608  0.0098  1.1570 -0.9349
13933TIP3   OH263289   2.634   3.098  13.380  1.0437 -0.4897 -0.6531
13933TIP3    H163290   2.632   3.090  13.285  1.3612 -0.7276 -0.6404
13933TIP3    H263291   2.701   3.164  13.397 -1.1762  1.9601 -0.7336
13934TIP3   OH263292   1.514   2.579   5.919 -0.5520 -0.5188 -0.0402
13934TIP3    H163293   1.462   2.624   5.853 -0.7475  0.7181  0.9189
13934TIP3    H263294   1.603   2.614   5.908 -0.4603 -0.7440 -0.0309
13935TIP3   OH263295   1.856   3.353   0.038  0.4141  0.1549  0.3533
13935TIP3    H163296   1.927   3.295   0.011 -0.0932 -0.8260  1.0800
13935TIP3    H263297   1.854   3.421  -0.029  0.3377 -1.2429 -1.1275
13936TIP3   OH263298   0.679   4.481   2.055  0.4453  0.1262 -0.4669
13936TIP3    H163299   0.701   4.391   2.080 -0.2364  0.5964  2.1419
13936TIP3    H263300   0.718   4.535   2.124 -1.2724  1.6299 -0.6123
13937TIP3   OH263301   0.703   6.804   4.497 -0.1021 -0.3860  0.6701
13937TIP3    H163302   0.708   6.869   4.567  0.4927 -1.6455  1.8316
13937TIP3    H263303   0.791   6.802   4.460 -1.0127  2.2800 -2.0962
13938TIP3   OH263304   3.355   3.207   2.399 -0.0831  0.0557  0.2282
13938TIP3    H163305   3.283   3.171   2.451 -1.0603  0.4197 -0.8385
13938TIP3    H263306   3.434   3.176   2.444 -0.8876 -1.0224  0.9691
13939TIP3   OH263307   5.436   5.398  13.794 -0.3094  0.4829  0.2337
13939TIP3    H163308   5.419   5.471  13.853  0.7954  0.3042  0.8084
13939TIP3    H263309   5.370   5.333  13.815 -1.0338  1.1311  0.0169
13940TIP3   OH263310   5.208   0.281  12.381  0.1412  0.9973 -0.2816
13940TIP3    H163311   5.287   0.290  12.328 -0.4560 -0.1391 -1.3933
13940TIP3    H263312   5.240   0.253  12.467  0.8772 -0.7650 -1.0938
13941TIP3   OH263313   3.190   0.065   3.180 -0.0300  0.3276 -0.4440
13941TIP3    H163314   3.259   0.042   3.242 -0.5075  2.9116  1.1658
13941TIP3    H263315   3.234   0.067   3.095  1.5958  0.6861  0.3739
13942TIP3   OH263316   2.879   1.721   0.227  0.2301 -0.0951 -0.1234
13942TIP3    H163317   2.923   1.767   0.155  1.4274 -0.5565  0.2943
13942TIP3    H263318   2.786   1.722   0.202  0.7173 -1.2479 -2.2531
13943TIP3   OH263319   2.903   3.569   2.470  0.2830  0.1679  0.0633
13943TIP3    H163320   2.979   3.512   2.474  0.0221 -0.1858  0.0040
13943TIP3    H263321   2.829   3.513   2.493  0.0610  0.5511  0.3007
13944TIP3   OH263322   6.191   0.137   4.798  0.0053 -0.5362 -0.3296
13944TIP3    H163323   6.167   0.220   4.758  0.6926 -1.1651 -2.1394
13944TIP3    H263324   6.135   0.130   4.875 -0.2064  1.4928 -0.2566
13945TIP3   OH263325   0.657   3.204   2.962 -0.5953 -0.4610 -1.1099
13945TIP3    H163326   0.673   3.111   2.943 -1.8671 -0.8989 -0.1765
13945TIP3    H263327   0.725   3.226   3.026  0.0845 -0.5771 -1.7839
13946TIP3   OH263328   5.064   6.724   3.561 -0.7460 -0.5540 -0.1611
13946TIP3    H163329   4.972   6.724   3.586 -1.2866  0.0387 -1.9670
13946TIP3    H263330   5.107   6.778   3.627 -1.8934  0.1324  0.0622
13947TIP3   OH263331   1.756   3.675   2.701 -0.6977  0.0155 -0.7856
13947TIP3    H163332   1.773   3.686   2.608 -0.2228 -2.2494 -1.0283
13947TIP3    H263333   1.843   3.667   2.741 -0.8645 -2.7614 -0.7605
13948TIP3   OH263334   6.156   4.791   3.633  0.1770 -0.3088  0.1965
13948TIP3    H163335   6.133   4.884   3.635  0.7104 -0.1762  0.9226
13948TIP3    H263336   6.074   4.746   3.615 -0.4393  0.2119  1.5162
13949TIP3   OH263337   4.595   0.390  12.858 -0.0761  0.3080 -0.0392
13949TIP3    H163338   4.654   0.358  12.789  0.5909 -0.1054  0.7141
13949TIP3    H263339   4.606   0.485  12.856  1.9982  0.1518  1.2713
13950TIP3   OH263340   2.666   5.477   1.000 -0.7484 -0.2744  0.2743
13950TIP3    H163341   2.582   5.477   1.046 -2.3531 -0.7484 -2.4461
13950TIP3    H263342   2.650   5.429   0.919  2.0434  0.0455 -0.5924
13951TIP3   OH263343   0.562   2.620   5.201  0.3550  0.5305 -0.8234
13951TIP3    H163344   0.533   2.711   5.199  0.1637  0.5224  0.5968
13951TIP3    H263345   0.552   2.594   5.293  2.9874 -0.0911 -0.6547
13952TIP3   OH263346   0.443   6.158   5.127 -0.2744  0.4583 -0.0558
13952TIP3    H163347   0.435   6.126   5.217  0.5522 -1.0523 -0.4953
13952TIP3    H263348   0.524   6.209   5.126  0.2152 -0.3070 -0.1505
13953TIP3   OH263349   1.889   1.499   1.635 -0.1529 -0.1238 -0.2801
13953TIP3    H163350   1.888   1.521   1.542  3.5194  0.7936 -0.2364
13953TIP3    H263351   1.806   1.533   1.668 -0.3956  1.9501 -2.7185
13954TIP3   OH263352   4.026   4.774   1.991  0.4672 -0.0512  0.2436
13954TIP3    H163353   4.098   4.726   1.951  0.4627  0.4919 -0.4340
13954TIP3    H263354   3.969   4.798   1.918 -0.9040 -1.2646  0.8541
13955TIP3   OH263355   1.763   4.387   4.752  0.3463  0.5754  0.3736
13955TIP3    H163356   1.823   4.425   4.816  1.0171  1.7749 -0.9035
13955TIP3    H263357   1.678   4.424   4.775  0.8597  2.3739 -0.3812
13956TIP3   OH263358   6.377   4.389   5.285 -0.0836 -0.4307  0.2500
13956TIP3    H163359   6.461   4.420   5.320 -1.3818  0.3572  2.9867
13956TIP3    H263360   6.393   4.297   5.263  1.4154 -0.4283  1.1418
13957TIP3   OH263361   3.506   1.282   4.746 -0.5434 -0.1514  0.3248
13957TIP3    H163362   3.459   1.209   4.706 -0.9328  0.4043 -0.2505
13957TIP3    H263363   3.500   1.352   4.681 -0.0182  0.3322  0.7946
13958TIP3   OH263364   3.387   1.083   0.429  0.5756  0.6463 -0.4966
13958TIP3    H163365   3.363   1.153   0.368  1.0274  1.8450  0.6439
13958TIP3    H263366   3.386   1.125   0.515  0.8446 -0.7701  0.2339
13959TIP3   OH263367   5.889   2.191   5.081 -0.2875  0.1104  0.3333
13959TIP3    H163368   5.796   2.200   5.060 -0.0080  2.4600 -0.1915
13959TIP3    H263369   5.891   2.169   5.174 -1.3797  0.6028  0.4864
13960TIP3   OH263370   6.840   2.844   1.813 -0.1013 -0.4415 -0.7333
13960TIP3    H163371   6.777   2.791   1.862 -0.5579  0.8911  0.1696
13960TIP3    H263372   6.786   2.909   1.767  0.6095  1.2933  0.7602
13961TIP3   OH263373   1.508   4.144  13.271  0.0085  0.1325 -0.4826
13961TIP3    H163374   1.515   4.240  13.269  0.1501  0.1357  0.0335
13961TIP3    H263375   1.466   4.122  13.188 -0.5002  0.6799 -0.3794
13962TIP3   OH263376   1.388   0.407   2.132  0.3166 -0.4978  0.6498
13962TIP3    H163377   1.299   0.441   2.140  0.5076 -0.2433  1.8276
13962TIP3    H263378   1.376   0.313   2.117 -0.1784 -0.1510 -1.4011
13963TIP3   OH263379   4.451   5.346   1.430 -0.9122  0.0086  0.3968
13963TIP3    H163380   4.478   5.435   1.453 -1.6740  0.4811 -0.4476
13963TIP3    H263381   4.362   5.339   1.464 -1.4251  0.1233 -0.8696
13964TIP3   OH263382   7.106   3.315   5.036 -0.0071 -0.2600 -0.4508
13964TIP3    H163383   7.196   3.338   5.012 -0.4826  0.8451 -1.2585
13964TIP3    H263384   7.091   3.230   4.996  0.6174 -0.3703 -0.4601
13965TIP3   OH263385   3.011   6.671  14.980  0.4257  0.3440  0.7088
13965TIP3    H163386   2.972   6.757  14.965 -0.0344  0.2229  1.1908
13965TIP3    H263387   2.981   6.645  15.067 -0.9498 -1.1064 -0.1380
13966TIP3   OH263388   1.239   5.987  12.992  0.0252  0.4613  0.0410
13966TIP3    H163389   1.257   5.908  12.942  1.8686  0.6336  0.3845
13966TIP3    H263390   1.215   6.052  12.925  0.5711  0.1781 -0.4387
13967TIP3   OH263391   1.896   7.034  15.246  0.0086  0.5127 -0.2088
13967TIP3    H163392   1.873   6.942  15.230  0.3987  0.2705  0.5495
13967TIP3    H263393   1.881   7.046  15.340  0.2478  1.1443 -0.2455
13968TIP3   OH263394   6.917   6.593   1.593 -0.2499 -0.4729 -0.0576
13968TIP3    H163395   6.982   6.611   1.524 -1.2325  0.3400 -0.8023
13968TIP3    H263396   6.969   6.566   1.668  0.8469 -1.7660 -1.2243
13969TIP3   OH263397   1.421   2.714   2.312 -0.3609  0.6372 -0.2509
13969TIP3    H163398   1.425   2.667   2.229  1.7542 -0.7417  0.5810
13969TIP3    H263399   1.453   2.802   2.291  0.9406  0.0583 -0.7443
13970TIP3   OH263400   0.697   4.377   5.442 -0.1540 -0.0804  0.6465
13970TIP3    H163401   0.650   4.425   5.510  0.2331  0.4384  0.5551
13970TIP3    H263402   0.629   4.334   5.391 -0.3723 -2.0370  2.4979
13971TIP3   OH263403   0.038   2.615   3.149  0.9731  0.3942  0.0160
13971TIP3    H163404  -0.027   2.683   3.169  2.3302  1.1022  2.4350
13971TIP3    H263405   0.092   2.654   3.081 -0.4990  0.1715 -1.3400
13972TIP3   OH263406   1.375   3.877   9.896  0.0487 -0.6836  0.2811
13972TIP3    H163407   1.316   3.837   9.832  0.6085 -1.3501  0.1744
13972TIP3    H263408   1.334   3.858   9.981  0.3244 -1.5252  0.2317
13973TIP3   OH263409   4.357   2.892   1.557  0.3378 -0.0529  0.2205
13973TIP3    H163410   4.431   2.843   1.591  1.2570  2.0735  1.4909
13973TIP3    H263411   4.338   2.956   1.625 -0.3632  1.7769 -1.6029
13974TIP3   OH263412   6.196   4.608   4.756 -0.0082 -0.8556  0.6247
13974TIP3    H163413   6.148   4.526   4.763 -0.2187 -0.8165 -0.2499
13974TIP3    H263414   6.198   4.642   4.846 -1.0406 -1.1829  0.7922
13975TIP3   OH263415   5.748   4.509  12.098 -0.1070  0.4957 -0.0073
13975TIP3    H163416   5.726   4.481  12.010  0.9628  1.3762 -0.5737
13975TIP3    H263417   5.831   4.556  12.089  0.8979 -0.8154  1.7027
13976TIP3   OH263418   4.110   3.802   4.929 -0.5622  0.3752 -0.2751
13976TIP3    H163419   4.028   3.766   4.894 -0.4329  0.4918 -0.7066
13976TIP3    H263420   4.086   3.890   4.959 -0.3536  0.8783 -1.4990
13977TIP3   OH263421   3.271   6.004   5.260  0.4624 -0.4577 -0.7536
13977TIP3    H163422   3.331   5.986   5.332 -0.1894  0.5925  0.0858
13977TIP3    H263423   3.220   5.924   5.251  0.5429 -0.5999 -0.0334
13978TIP3   OH263424   5.965   6.332   1.748  0.4860  0.1667  0.2856
13978TIP3    H163425   6.014   6.398   1.700  0.3782 -1.3690 -2.1148
13978TIP3    H263426   5.956   6.259   1.686 -1.6054 -1.0737  1.9111
13979TIP3   OH263427   3.337   6.313  15.375 -0.7786  0.1754 -0.4105
13979TIP3    H163428   3.311   6.377  15.442  0.0926 -0.5527  0.6598
13979TIP3    H263429   3.370   6.366  15.303  0.4077  0.9597  0.6587
13980TIP3   OH263430   0.987   5.171   3.091 -0.6067 -0.0810 -0.1384
13980TIP3    H163431   0.909   5.140   3.137 -0.5080 -1.5794 -0.9249
13980TIP3    H263432   0.996   5.112   3.016  1.6859 -0.4286  0.3217
13981TIP3   OH263433   5.509   2.444  13.428 -0.3124  0.5705 -0.3145
13981TIP3    H163434   5.477   2.470  13.341 -2.4616  0.2636  0.3292
13981TIP3    H263435   5.604   2.444  13.419 -0.4485 -1.3653 -3.2712
13982TIP3   OH263436   6.265   4.351   1.763  0.0751  0.0904  0.2155
13982TIP3    H163437   6.302   4.265   1.781 -1.3231 -0.1190  2.4540
13982TIP3    H263438   6.320   4.412   1.812  0.4274  0.3644 -0.5073
13983TIP3   OH263439   6.878   0.473   5.198  0.4422 -0.8404  0.0563
13983TIP3    H163440   6.907   0.546   5.144  1.1628 -0.8862  0.3605
13983TIP3    H263441   6.941   0.404   5.180  1.9107 -0.2262  2.3721
13984TIP3   OH263442   5.074   3.543   3.036 -0.6822 -0.1341 -0.2159
13984TIP3    H163443   5.018   3.568   3.110 -1.5742  0.9046 -1.2105
13984TIP3    H263444   5.148   3.603   3.041  1.1775 -2.3746  1.9115
13985TIP3   OH263445   2.456   1.227   5.481 -0.0645 -0.3229  0.7120
13985TIP3    H163446   2.427   1.184   5.400 -1.1352  0.1664  0.8080
13985TIP3    H263447   2.523   1.289   5.453 -0.5954  0.0104  0.1522
13986TIP3   OH263448   0.234   6.836   3.122 -0.4342  0.3310  0.1768
13986TIP3    H163449   0.285   6.878   3.191  0.5462 -0.4053 -0.0665
13986TIP3    H263450   0.300   6.792   3.068 -1.3272 -0.4766 -0.2772
13987TIP3   OH263451   6.880   0.005  11.011  0.1458  0.1163  0.0181
13987TIP3    H163452   6.838  -0.075  11.042 -1.6118  0.8932 -0.2351
13987TIP3    H263453   6.856   0.071  11.076  1.1374  0.5581 -0.0524
13988TIP3   OH263454   0.845   2.134   1.086  0.3102 -0.0992 -0.8337
13988TIP3    H163455   0.816   2.148   1.176 -0.8599 -0.3840 -1.1403
13988TIP3    H263456   0.842   2.038   1.075  0.2259 -0.0525 -1.2392
13989TIP3   OH263457   2.030   2.150   5.104  0.0396 -0.5336 -0.6567
13989TIP3    H163458   2.030   2.244   5.090  0.4407 -0.4148  0.1093
13989TIP3    H263459   2.044   2.139   5.198  1.5583 -1.3746 -0.9436
13990TIP3   OH263460   3.789   4.876  14.840 -0.1506 -0.2965 -0.1285
13990TIP3    H163461   3.872   4.887  14.794  0.4138 -0.4330  0.8199
13990TIP3    H263462   3.814   4.870  14.932 -1.2139 -0.3982  0.1632
13991TIP3   OH263463   0.020   1.368   2.732 -0.4418  0.2899 -0.0416
13991TIP3    H163464   0.002   1.414   2.813 -1.3768  1.4793 -0.8935
13991TIP3    H263465   0.087   1.420   2.689 -0.4981  0.0846 -0.3836
13992TIP3   OH263466   6.071   6.296   2.027 -0.3642  0.2761 -0.0931
13992TIP3    H163467   6.156   6.333   2.002  0.3478 -0.9428  0.4413
13992TIP3    H263468   6.025   6.284   1.944 -0.0015  0.9024 -0.3939
13993TIP3   OH263469   4.958   1.682   0.372  0.4100 -0.6630 -0.1337
13993TIP3    H163470   4.879   1.647   0.331  0.2213 -0.9566  0.4866
13993TIP3    H263471   4.942   1.777   0.376  0.3197 -0.6598 -0.4924
13994TIP3   OH263472   0.919   5.049   4.243 -0.3688 -0.0318  0.2974
13994TIP3    H163473   0.917   5.142   4.266  0.2613  0.9695 -3.1330
13994TIP3    H263474   0.950   5.047   4.153 -1.5994 -3.5251 -0.2107
13995TIP3   OH263475   4.159   6.114   3.126  0.4186  0.7751  0.3914
13995TIP3    H163476   4.126   6.133   3.215 -1.3711  0.1229 -0.0847
13995TIP3    H263477   4.080   6.114   3.072  1.2694 -0.5502 -0.9022
13996TIP3   OH263478   1.536   0.575   4.799  0.5505 -0.1659 -0.2167
13996TIP3    H163479   1.525   0.480   4.810  0.3893 -0.1327 -0.0826
13996TIP3    H263480   1.494   0.594   4.715 -1.5566  0.1399  0.8308
13997TIP3   OH263481   3.374   6.655   4.362 -0.7453  0.6405 -0.1787
13997TIP3    H163482   3.282   6.631   4.355 -0.6278  0.3297 -0.6559
13997TIP3    H263483   3.394   6.647   4.455 -0.9567 -0.2016 -0.1986
13998TIP3   OH263484   2.488   1.196   3.384  0.4828 -0.1675  0.7061
13998TIP3    H163485   2.582   1.211   3.398  1.0116  0.7293 -2.8221
13998TIP3    H263486   2.460   1.270   3.329 -1.5391 -1.9586 -0.8440
13999TIP3   OH263487   2.973   4.039   4.720 -0.5285  0.4969 -0.0087
13999TIP3    H163488   2.881   4.013   4.728 -0.2050 -0.9293 -0.5906
13999TIP3    H263489   2.997   4.067   4.809 -1.6464  1.3986  0.0435
14000TIP3   OH263490   2.339   2.309  14.470  0.3279  0.7041  0.0214
14000TIP3    H163491   2.365   2.398  14.447  0.2502  0.8156  0.3624
14000TIP3    H263492   2.418   2.268  14.503  0.3439  0.6772 -0.0516
14001TIP3   OH263493   2.669   3.047   3.529  0.0302  0.6836 -0.3712
14001TIP3    H163494   2.661   3.141   3.544 -2.0514  0.8880 -2.1880
14001TIP3    H263495   2.624   3.006   3.603 -0.7491  1.2284 -0.5246
14002TIP3   OH263496   6.242   4.582  11.708  0.4219 -0.1046  0.4396
14002TIP3    H163497   6.268   4.520  11.640 -0.4766 -0.0349  0.0191
14002TIP3    H263498   6.311   4.649  11.706  0.4290 -0.1202 -0.3846
14003TIP3   OH263499   6.152   5.852  14.255 -0.1621 -0.2897  0.0827
14003TIP3    H163500   6.158   5.912  14.180  0.3907  0.5066  0.7500
14003TIP3    H263501   6.133   5.767  14.215 -1.3476  0.3807 -0.8631
14004TIP3   OH263502   1.778   4.179   0.158  0.2976  0.5032 -0.3541
14004TIP3    H163503   1.819   4.262   0.182  0.2003  0.2362  0.7606
14004TIP3    H263504   1.799   4.120   0.229  2.1313 -1.0606 -2.0835
14005TIP3   OH263505   3.273   3.072  12.766 -0.0986  0.1306 -0.6477
14005TIP3    H163506   3.310   2.986  12.788  0.2010  0.3882 -0.0982
14005TIP3    H263507   3.224   3.097  12.844 -2.9978 -0.9775 -1.9803
14006TIP3   OH263508   6.977   2.767   2.456 -0.2215 -0.2720  0.0949
14006TIP3    H163509   6.904   2.826   2.437 -1.2535 -1.4533  0.2746
14006TIP3    H263510   6.939   2.700   2.513  1.3273 -0.1910  1.2804
14007TIP3   OH263511   3.120   0.013   2.718 -0.2020  0.1116  0.5054
14007TIP3    H163512   3.112  -0.064   2.773 -1.3085 -1.1885 -1.3667
14007TIP3    H263513   3.037   0.017   2.670  1.3518  0.1164 -2.3681
14008TIP3   OH263514   0.266   3.372   0.503 -0.5819  0.1207  0.5729
14008TIP3    H163515   0.282   3.391   0.411 -0.3151  1.2931  0.8500
14008TIP3    H263516   0.292   3.280   0.514 -0.1580  0.1194 -0.4023
14009TIP3   OH263517   3.347   6.078   2.238 -0.0956  1.0476 -0.8763
14009TIP3    H163518   3.278   6.133   2.200 -2.4330  0.3831  2.0102
14009TIP3    H263519   3.305   5.992   2.250  2.3047 -0.3743 -1.9199
14010TIP3   OH263520   2.876   3.240   5.125 -0.2374 -0.8903 -0.4143
14010TIP3    H163521   2.955   3.187   5.116 -0.3351 -1.3806  1.1945
14010TIP3    H263522   2.863   3.280   5.039  0.6857 -2.2857 -1.2358
14011TIP3   OH263523   3.017   2.008   2.360  0.0921 -0.2654 -0.2433
14011TIP3    H163524   2.986   1.998   2.450 -0.4244 -0.8254 -0.4749
14011TIP3    H263525   3.097   2.060   2.367 -0.0295 -0.1786  0.5224
14012TIP3   OH263526   6.464   4.146  14.129  0.4680 -0.2329 -0.2981
14012TIP3    H163527   6.552   4.113  14.108  0.7334 -0.7968  1.5507
14012TIP3    H263528   6.406   4.101  14.067  1.5179  0.7360 -2.0814
14013TIP3   OH263529   5.171   1.788   0.243  0.2623 -0.0648 -0.7024
14013TIP3    H163530   5.109   1.740   0.298 -1.1078  2.2521 -0.0504
14013TIP3    H263531   5.253   1.740   0.250 -0.7671 -1.7233  0.6277
14014TIP3   OH263532   1.244   0.757   2.711 -0.2291 -0.4261 -0.1634
14014TIP3    H163533   1.219   0.686   2.770  0.4507 -0.4582  0.1031
14014TIP3    H263534   1.165   0.808   2.699  0.0291  0.6961  2.3282
14015TIP3   OH263535   5.365   2.584   5.473  0.6689  0.0452  0.3722
14015TIP3    H163536   5.318   2.587   5.556 -0.6460 -1.8555 -0.2317
14015TIP3    H263537   5.450   2.545   5.494  0.2843 -0.5672  0.8162
14016TIP3   OH263538   6.555   0.686  14.683 -0.0454 -0.3203 -0.2240
14016TIP3    H163539   6.515   0.669  14.768 -0.3526 -0.5968 -0.4199
14016TIP3    H263540   6.516   0.620  14.625 -0.9144  0.7633 -0.9012
14017TIP3   OH263541   4.089   6.924   1.136  0.5142  0.1749  0.9666
14017TIP3    H163542   4.108   6.830   1.139 -3.9154 -1.0717 -1.2978
14017TIP3    H263543   4.041   6.942   1.217  1.0615  0.4443  1.2381
14018TIP3   OH263544   0.962   5.443   2.182  0.6322 -0.1095  0.2525
14018TIP3    H163545   0.954   5.534   2.209 -0.4557  1.0461 -3.3903
14018TIP3    H263546   0.890   5.398   2.226 -0.8971  1.5577 -0.4315
14019TIP3   OH263547   2.348   0.442   0.440 -0.2151  0.5209  0.0161
14019TIP3    H163548   2.252   0.449   0.441 -0.0827  2.9213  0.6068
14019TIP3    H263549   2.371   0.435   0.348 -0.9170  0.2588 -0.1489
14020TIP3   OH263550   5.136   0.554   0.416 -0.0561  0.3967 -0.2276
14020TIP3    H163551   5.050   0.579   0.449  0.2027 -0.2714  1.0266
14020TIP3    H263552   5.137   0.458   0.422  1.9535  0.4782  3.0576
14021TIP3   OH263553   1.072   2.481   1.567 -0.3278 -0.3307  0.5535
14021TIP3    H163554   1.099   2.552   1.624  0.4667 -1.0702  1.1204
14021TIP3    H263555   0.977   2.476   1.578 -0.2516 -0.1024  1.3731
14022TIP3   OH263556   7.068   4.640  15.010  0.3586  0.0798 -0.0598
14022TIP3    H163557   7.097   4.551  15.031 -2.6168 -0.5972  1.6747
14022TIP3    H263558   7.149   4.688  14.993  2.1656 -2.5323  0.6240
14023TIP3   OH263559   4.830   1.379   1.930  0.3935 -0.0256  0.8111
14023TIP3    H163560   4.810   1.288   1.908  0.1203  0.3682 -0.6431
14023TIP3    H263561   4.748   1.412   1.969  0.3395 -0.2570  0.8973
14024TIP3   OH263562   2.441   0.306   0.209  0.5540 -0.0936  0.1634
14024TIP3    H163563   2.433   0.237   0.275 -0.5815  0.8743  1.0811
14024TIP3    H263564   2.520   0.353   0.234  0.2243  0.1609  0.7407
14025TIP3   OH263565   2.919   5.741   2.565  0.6987  0.4174  0.0698
14025TIP3    H163566   2.850   5.773   2.506 -0.3262 -0.3738  0.7982
14025TIP3    H263567   2.959   5.668   2.517  1.1714  0.9983 -0.4341
14026TIP3   OH263568   4.695   0.174   4.939  0.5817  0.6507 -0.1995
14026TIP3    H163569   4.636   0.119   4.991 -0.0087  1.5112  0.0746
14026TIP3    H263570   4.642   0.251   4.916  1.9267  2.0666  1.1370
14027TIP3   OH263571   3.111   1.004   3.219 -0.3551  0.0639  0.0843
14027TIP3    H163572   3.084   1.075   3.161  3.7018  1.2438 -0.6781
14027TIP3    H263573   3.159   0.943   3.162 -1.7328 -2.1464  1.1536
14028TIP3   OH263574   3.474   5.576  15.291 -0.3592 -0.0891  0.9072
14028TIP3    H163575   3.495   5.503  15.350  1.3259  0.8946  1.5692
14028TIP3    H263576   3.378   5.579  15.291 -0.4162 -0.1498  3.5772
14029TIP3   OH263577   4.301   5.373   2.074  0.3408  0.4095 -0.1189
14029TIP3    H163578   4.396   5.381   2.062  0.0324  1.6677 -2.1409
14029TIP3    H263579   4.266   5.459   2.049 -1.4117 -0.2857 -0.2039
14030TIP3   OH263580   2.069   0.529   1.665  0.0119  0.0345 -0.2100
14030TIP3    H163581   2.014   0.564   1.735 -0.4156 -0.3445 -0.3470
14030TIP3    H263582   2.061   0.434   1.674  0.1010 -0.0179 -0.6500
14031TIP3   OH263583   4.447   6.611   0.109  0.4542  0.3626 -0.1007
14031TIP3    H163584   4.520   6.598   0.050 -0.3224 -0.8826 -0.8320
14031TIP3    H263585   4.471   6.565   0.189  0.7964  0.6241 -0.0539
14032TIP3   OH263586   6.729   4.919   3.584  0.6742 -0.8649 -0.4359
14032TIP3    H163587   6.696   4.956   3.666 -0.6176  0.5632 -1.5250
14032TIP3    H263588   6.820   4.948   3.579  0.7795 -0.9891  0.4767
14033TIP3   OH263589   5.107   6.328   2.461  0.7377 -0.0831  0.0407
14033TIP3    H163590   5.128   6.242   2.424  0.6036  0.4761 -1.4425
14033TIP3    H263591   5.184   6.381   2.443 -0.1767  0.8106 -1.5622
14034TIP3   OH263592   4.445   3.659   3.492  0.1513 -0.4578 -0.3501
14034TIP3    H163593   4.402   3.621   3.415 -1.9915  0.0532  0.5252
14034TIP3    H263594   4.392   3.735   3.514  2.4514  1.1889 -0.0922
14035TIP3   OH263595   2.159   0.343   4.185  0.2148 -0.0620 -0.6977
14035TIP3    H163596   2.229   0.390   4.230  0.5823 -0.9485 -0.3262
14035TIP3    H263597   2.097   0.411   4.159  0.3450  0.5349  0.5181
14036TIP3   OH263598   1.657   2.086   2.812  0.2099 -0.0603  0.2983
14036TIP3    H163599   1.619   2.174   2.811 -0.2206 -0.2448  0.4193
14036TIP3    H263600   1.743   2.098   2.851  0.3628  0.3934 -0.1650
14037TIP3   OH263601   5.827   6.470   0.413  0.0359  0.1650  0.3570
14037TIP3    H163602   5.755   6.424   0.455 -0.1148 -2.0286 -2.1432
14037TIP3    H263603   5.903   6.414   0.427  0.6700  1.0234  0.4594
14038TIP3   OH263604   6.127   1.522   5.678  0.7456  0.4232 -0.5254
14038TIP3    H163605   6.040   1.554   5.701  0.1334 -1.5783  0.1224
14038TIP3    H263606   6.187   1.589   5.712 -0.4887  1.2993 -0.0196
14039TIP3   OH263607   5.007   1.768   0.980 -0.0358  0.3529 -0.0371
14039TIP3    H163608   5.039   1.780   0.891 -0.0121  0.5915  0.0048
14039TIP3    H263609   4.922   1.726   0.970 -0.3126  0.9523 -0.1893
14040TIP3   OH263610   3.300   2.346   4.747 -0.2555 -0.3440  0.4967
14040TIP3    H163611   3.340   2.433   4.749  1.4215 -1.0988  1.4536
14040TIP3    H263612   3.332   2.306   4.667 -0.3630 -0.3921  0.4772
14041TIP3   OH263613   0.247   2.816   2.462  0.7139  0.1498  0.0276
14041TIP3    H163614   0.258   2.722   2.474 -0.9208 -0.1190 -0.3907
14041TIP3    H263615   0.227   2.849   2.550 -0.2304 -0.1354 -0.0731
14042TIP3   OH263616   1.518   2.056   3.481  0.4573 -0.0367 -0.2939
14042TIP3    H163617   1.535   2.150   3.493 -0.2570  0.4371 -2.4435
14042TIP3    H263618   1.598   2.013   3.511  1.4699  1.4052 -0.7847
14043TIP3   OH263619   3.864   0.091   3.185 -0.8676 -0.0298  0.6605
14043TIP3    H163620   3.918   0.067   3.260 -0.3610  0.1023  0.3446
14043TIP3    H263621   3.812   0.013   3.167 -1.5932  0.2140  1.6591
14044TIP3   OH263622   3.707   6.548   4.708  0.6085 -0.3141  0.2008
14044TIP3    H163623   3.644   6.616   4.732  0.6628 -0.4086  0.6240
14044TIP3    H263624   3.792   6.593   4.705  0.3896  0.0796 -1.5436
14045TIP3   OH263625   4.340   6.331  14.909  0.6788 -0.4511  0.1792
14045TIP3    H163626   4.345   6.254  14.966  1.8531 -0.5632 -0.0370
14045TIP3    H263627   4.391   6.305  14.831 -0.2747 -0.0373 -0.5964
14046TIP3   OH263628   0.661   2.632   3.082  0.7772 -0.1034  0.2433
14046TIP3    H163629   0.571   2.661   3.073  0.7497 -0.7217 -1.9410
14046TIP3    H263630   0.658   2.563   3.149 -0.3142  0.0066  0.3189
14047TIP3   OH263631   4.381   0.874   3.821 -0.5076 -0.0078  0.3624
14047TIP3    H163632   4.364   0.957   3.864 -1.5404  0.1319 -0.2925
14047TIP3    H263633   4.469   0.883   3.784 -0.8382  1.0120 -0.1977
14048TIP3   OH263634   4.623   4.944  12.094  0.4795 -0.1143  0.2830
14048TIP3    H163635   4.548   4.947  12.034  0.5503 -0.9710  0.1358
14048TIP3    H263636   4.608   5.016  12.156 -0.0628  0.2035 -0.2127
14049TIP3   OH263637   5.783   0.010   5.241  0.0320 -0.1938 -0.1942
14049TIP3    H163638   5.825   0.093   5.265 -1.9053  0.4828  1.0217
14049TIP3    H263639   5.768  -0.034   5.325 -0.6683 -0.9242 -0.6910
14050TIP3   OH263640   4.553   4.054   0.923 -0.0940  0.4265  0.0715
14050TIP3    H163641   4.466   4.026   0.952  0.6089 -3.6133 -1.1520
14050TIP3    H263642   4.550   4.047   0.828  2.1844 -2.4031  0.0742
14051TIP3   OH263643   3.017   5.466   3.801  0.0440  0.2083 -0.3092
14051TIP3    H163644   2.928   5.436   3.782  0.1849 -0.2062 -0.3174
14051TIP3    H263645   3.023   5.464   3.896  0.3273 -0.6116 -0.3317
14052TIP3   OH263646   4.132   2.663   3.504  0.1017 -0.1008  0.1667
14052TIP3    H163647   4.048   2.618   3.518  0.7487 -0.8798  1.9140
14052TIP3    H263648   4.118   2.751   3.539  0.3492 -0.6170  1.6202
14053TIP3   OH263649   2.081   6.654   3.678 -0.4417 -0.3949  0.1928
14053TIP3    H163650   2.164   6.624   3.716  0.8959  1.6202 -0.9189
14053TIP3    H263651   2.033   6.694   3.750  0.6625  0.5594  0.4326
14054TIP3   OH263652   1.221   5.361   3.330  0.0468 -0.1181  0.1409
14054TIP3    H163653   1.225   5.266   3.339  0.5970  0.0068  1.4227
14054TIP3    H263654   1.166   5.390   3.402 -1.6895  0.4336 -1.3140
14055TIP3   OH263655   3.553   1.243  13.009  0.1608 -0.5939 -0.0461
14055TIP3    H163656   3.588   1.321  12.967 -0.1768 -1.1870 -1.4881
14055TIP3    H263657   3.615   1.223  13.079  0.2631  0.9367  0.3432
14056TIP3   OH263658   0.344   3.077   1.799  0.2812 -0.3932  0.1509
14056TIP3    H163659   0.372   3.092   1.709 -1.2140  2.1450  0.0229
14056TIP3    H263660   0.388   3.146   1.849 -0.7155 -0.3258  0.9578
14057TIP3   OH263661   5.806   3.074  10.303 -0.6118  0.2854  0.0202
14057TIP3    H163662   5.793   3.074  10.398 -1.8475 -1.9836 -0.0579
14057TIP3    H263663   5.768   3.157  10.274 -0.0072  1.1277  1.5073
14058TIP3   OH263664   0.854   0.823  12.492  0.3599 -0.4157  0.1752
14058TIP3    H163665   0.865   0.733  12.462  0.2484 -0.2894 -0.2634
14058TIP3    H263666   0.835   0.873  12.412  1.3463  0.1510  0.2715
14059TIP3   OH263667   2.257   0.153   5.128  0.3620  0.5586  0.3286
14059TIP3    H163668   2.326   0.112   5.077  0.6644 -0.0151  1.1746
14059TIP3    H263669   2.179   0.147   5.072  0.4409 -1.0040  0.3351
14060TIP3   OH263670   5.453   7.154   2.855  0.0397  0.0558 -0.1981
14060TIP3    H163671   5.447   7.063   2.884 -0.5986  0.3693  0.6896
14060TIP3    H263672   5.365   7.189   2.867  0.6717  1.2918  1.2179
14061TIP3   OH263673   0.853   2.334   5.419 -0.3367 -0.4117 -0.1159
14061TIP3    H163674   0.821   2.358   5.332 -0.7674  0.6788  0.3256
14061TIP3    H263675   0.791   2.375   5.479  1.4370  1.1640  0.7588
14062TIP3   OH263676   1.996   1.180   1.496  0.6565  0.3099  0.0006
14062TIP3    H163677   2.070   1.134   1.456 -0.3097 -0.7419 -0.6428
14062TIP3    H263678   1.992   1.145   1.585 -1.3260 -2.5990 -1.0567
14063TIP3   OH263679   4.940   3.808   1.012  0.0165 -0.4629 -0.7606
14063TIP3    H163680   5.004   3.753   0.966 -0.5515 -0.3266 -1.7357
14063TIP3    H263681   4.965   3.898   0.989  0.1061 -0.3680 -0.2942
14064TIP3   OH263682   0.634   1.022   1.982 -0.2538  0.2837  0.3541
14064TIP3    H163683   0.565   1.024   2.049  1.2069 -1.0599  1.9906
14064TIP3    H263684   0.705   1.073   2.020  0.7699 -0.8916  0.0801
14065TIP3   OH263685   2.909   6.819   5.424 -0.0853 -0.0099 -0.0266
14065TIP3    H163686   2.825   6.782   5.397 -0.5364  0.6168  0.4779
14065TIP3    H263687   2.893   6.914   5.427  0.3492  0.0376  1.0700
14066TIP3   OH263688   0.936   6.032   4.268  0.4777  0.0539 -0.2242
14066TIP3    H163689   0.851   5.991   4.252 -0.0011  0.6516  0.6709
14066TIP3    H263690   0.997   5.983   4.214 -0.4196 -0.4647 -0.7979
14067TIP3   OH263691   1.943   2.864   4.016  0.2407  0.2516 -0.4632
14067TIP3    H163692   2.038   2.863   4.026  0.2331  1.0191 -0.3193
14067TIP3    H263693   1.909   2.894   4.100 -0.0102  2.3344 -1.2576
14068TIP3   OH263694   6.101   6.581   3.170  0.1859  0.6259  0.5607
14068TIP3    H163695   6.080   6.537   3.088 -2.4592  1.5184  0.6547
14068TIP3    H263696   6.193   6.605   3.162 -0.0418  0.8481 -2.2262
14069TIP3   OH263697   3.192   7.135   1.809 -0.3017  0.2486 -0.7520
14069TIP3    H163698   3.101   7.119   1.783 -0.9965  2.0713  0.3907
14069TIP3    H263699   3.236   7.160   1.728 -1.5964  2.4006 -0.8639
14070TIP3   OH263700   0.977   3.628  13.823 -0.6670 -0.0045  0.0048
14070TIP3    H163701   1.028   3.709  13.819  0.1086 -0.4996 -0.4654
14070TIP3    H263702   0.988   3.598  13.913  0.0767 -0.2199 -0.1463
14071TIP3   OH263703   4.267   5.420   0.154  0.5812 -0.6076  0.1535
14071TIP3    H163704   4.264   5.325   0.167  1.0867 -1.0995 -2.5834
14071TIP3    H263705   4.179   5.443   0.124 -0.1018  0.1859  2.5432
14072TIP3   OH263706   3.499   5.095   1.830 -0.5075 -0.0371  0.8667
14072TIP3    H163707   3.412   5.058   1.843 -0.3836 -1.5019 -1.7437
14072TIP3    H263708   3.486   5.162   1.763  0.2022  0.6744  1.4207
14073TIP3   OH263709   1.329   4.835   2.153  0.2422 -0.5589 -0.1189
14073TIP3    H163710   1.244   4.837   2.111 -0.0305 -3.1845  0.1535
14073TIP3    H263711   1.390   4.865   2.086 -0.4991 -2.0386 -1.5073
14074TIP3   OH263712   3.118   0.143   2.046 -0.4140 -0.1324  0.2502
14074TIP3    H163713   3.069   0.169   1.969  1.5413  2.2456 -0.3108
14074TIP3    H263714   3.131   0.048   2.036 -1.2072 -0.0709 -1.6803
14075TIP3   OH263715   3.175   3.997   5.894 -0.4113  0.1328  0.0086
14075TIP3    H163716   3.087   3.966   5.875  0.1007 -1.4089  0.0682
14075TIP3    H263717   3.208   3.938   5.961  1.4634 -0.7136 -1.5823
14076TIP3   OH263718   3.773   0.897  15.091  0.4853  0.5545 -0.2262
14076TIP3    H163719   3.691   0.946  15.094  0.3567  0.3855 -0.7706
14076TIP3    H263720   3.746   0.805  15.087  0.6544  0.5362 -1.5440
14077TIP3   OH263721   2.469   0.104  10.450  0.1588  0.4621 -0.3268
14077TIP3    H163722   2.403   0.073  10.388 -1.0591 -0.9234  1.5918
14077TIP3    H263723   2.425   0.170  10.503  0.3858 -0.2084  0.7309
14078TIP3   OH263724   6.719   1.530   2.242 -0.2678  0.0179 -0.1539
14078TIP3    H163725   6.656   1.469   2.281 -0.5003 -1.0975 -2.1498
14078TIP3    H263726   6.672   1.613   2.236 -0.6023 -0.0855  0.8412
14079TIP3   OH263727   2.168   4.348   1.767 -0.4747 -0.2378 -0.0159
14079TIP3    H163728   2.194   4.416   1.705 -0.7503 -0.7560 -0.7151
14079TIP3    H263729   2.220   4.366   1.846 -2.1547  2.1351  0.6583
14080TIP3   OH263730   6.479   6.712  12.515 -0.1202 -0.0252 -0.2698
14080TIP3    H163731   6.420   6.787  12.526  2.5430  2.2164  0.0195
14080TIP3    H263732   6.496   6.708  12.421  1.5347  1.3337 -0.0737
14081TIP3   OH263733   6.213   4.268   3.838  0.2201 -0.6658 -0.0316
14081TIP3    H163734   6.239   4.211   3.911  1.2722 -0.9084 -0.5787
14081TIP3    H263735   6.288   4.326   3.825 -1.6514  2.5432  2.0570
14082TIP3   OH263736   5.307   4.200   3.948 -0.0349  0.2592 -0.9449
14082TIP3    H163737   5.400   4.184   3.929  0.5818  0.1951  1.7984
14082TIP3    H263738   5.284   4.133   4.012 -1.4873  1.3432 -0.2893
14083TIP3   OH263739   3.059   7.111   1.440 -0.1865 -0.0780 -0.1586
14083TIP3    H163740   3.133   7.157   1.400 -0.5467 -0.6458 -1.5377
14083TIP3    H263741   3.035   7.165   1.515  0.9647  0.6613 -0.2927
14084TIP3   OH263742   4.606   7.063   2.824  0.6140  0.7520  0.8021
14084TIP3    H163743   4.572   6.985   2.781  0.6075  0.8429  0.6428
14084TIP3    H263744   4.528   7.110   2.854  0.6492  0.1368  1.8967
14085TIP3   OH263745   2.906   6.498   5.879 -0.7894 -0.4825  0.5833
14085TIP3    H163746   2.911   6.514   5.785 -1.8659 -0.3148  0.5379
14085TIP3    H263747   2.992   6.462   5.902  0.5311  2.0983  0.0564
14086TIP3   OH263748   0.168   6.226   3.952 -0.3844  0.1176 -0.6116
14086TIP3    H163749   0.081   6.265   3.942  0.1609  1.6662  0.3630
14086TIP3    H263750   0.150   6.134   3.970 -1.7534  0.0921 -1.8406
14087TIP3   OH263751   1.076   2.053   3.625 -0.2041  0.1890 -0.4428
14087TIP3    H163752   0.985   2.030   3.644  0.2411 -0.4525  1.1288
14087TIP3    H263753   1.107   1.981   3.570 -0.0388 -0.7962  0.8891
14088TIP3   OH263754   0.973   2.835   4.213 -0.3253 -0.0316  0.2028
14088TIP3    H163755   0.914   2.799   4.279  1.0002 -1.3132  0.7412
14088TIP3    H263756   1.048   2.776   4.213  1.0348  1.6129 -0.3558
14089TIP3   OH263757   1.531   0.816   3.999  0.8135  0.5793  0.3014
14089TIP3    H163758   1.480   0.875   4.054  0.9144 -1.6207  2.9604
14089TIP3    H263759   1.468   0.781   3.937 -0.2469  0.2066  1.5479
14090TIP3   OH263760   0.001   6.116   0.961  0.1313 -0.3286  0.1524
14090TIP3    H163761   0.070   6.168   1.003 -0.1627  1.6743 -1.6916
14090TIP3    H263762   0.048   6.051   0.909  0.5565 -0.4941  0.7258
14091TIP3   OH263763   7.013   0.772   1.330 -0.6414 -0.8046  0.3600
14091TIP3    H163764   7.068   0.817   1.266 -1.8153 -1.2933 -1.0449
14091TIP3    H263765   7.040   0.808   1.414  0.4502  0.3817 -0.4587
14092TIP3   OH263766   1.086   0.406   2.616 -0.3896 -0.0095 -0.2171
14092TIP3    H163767   1.076   0.487   2.565 -1.1870 -0.2738 -0.4937
14092TIP3    H263768   1.048   0.338   2.561 -0.7903 -0.3851  0.5058
14093TIP3   OH263769   0.753   0.614   3.454  0.1251  0.0094 -0.0117
14093TIP3    H163770   0.783   0.532   3.494 -1.6369 -1.0636 -0.7698
14093TIP3    H263771   0.696   0.652   3.520  2.4316  1.7045  1.1513
14094TIP3   OH263772   3.616   0.645  11.261 -0.2203 -0.1476 -0.3692
14094TIP3    H163773   3.608   0.556  11.227  2.7039 -0.8576  0.5503
14094TIP3    H263774   3.687   0.684  11.210  1.0796  0.3327  1.6883
14095TIP3   OH263775   7.189   2.601   5.264 -0.1492  0.2473  0.3146
14095TIP3    H163776   7.110   2.580   5.315 -1.8296  1.7524 -1.4853
14095TIP3    H263777   7.215   2.518   5.225 -1.4965 -0.1354  0.1562
14096TIP3   OH263778   2.273   4.495  12.905 -0.1690 -0.1738  0.1073
14096TIP3    H163779   2.354   4.500  12.955 -0.5008 -1.1018  0.7653
14096TIP3    H263780   2.228   4.577  12.923 -0.8086 -0.9360  2.3086
14097TIP3   OH263781   6.341   7.211   0.422  0.1421  0.0344  0.7118
14097TIP3    H163782   6.351   7.268   0.498  0.3589  0.1537  0.5979
14097TIP3    H263783   6.427   7.170   0.412  0.7444  1.5076 -0.6357
14098TIP3   OH263784   2.619   4.449  14.481 -0.5645  0.4074 -0.0592
14098TIP3    H163785   2.670   4.402  14.547 -4.3048 -0.7991  2.3074
14098TIP3    H263786   2.591   4.381  14.420 -0.9253  0.6921 -0.2120
14099TIP3   OH263787   3.802   1.253   3.386  0.5580  0.2842 -0.4562
14099TIP3    H163788   3.815   1.242   3.480  3.3564 -1.5928 -0.9473
14099TIP3    H263789   3.890   1.252   3.349 -0.5221 -0.7176 -3.2602
14100TIP3   OH263790   2.965   5.557   4.688 -0.4578  0.1735  0.1381
14100TIP3    H163791   3.061   5.555   4.685 -0.4168 -1.2615  1.2168
14100TIP3    H263792   2.944   5.567   4.781 -1.3788  1.3640 -0.1689
14101TIP3   OH263793   3.499   6.677   4.787  0.3170 -0.2348 -0.6631
14101TIP3    H163794   3.431   6.616   4.757 -0.6639  1.7816 -2.8131
14101TIP3    H263795   3.470   6.763   4.757  3.9078  0.7358 -1.9413
14102TIP3   OH263796   5.450   6.172   4.852  0.4640  0.1612  0.2525
14102TIP3    H163797   5.445   6.078   4.835 -2.0575  0.2895 -0.1505
14102TIP3    H263798   5.541   6.195   4.835  0.9284 -2.0343 -0.5529
14103TIP3   OH263799   6.008   5.687   3.590  0.2321 -0.0111 -0.6414
14103TIP3    H163800   5.960   5.736   3.656  0.5995  0.8646 -1.0133
14103TIP3    H263801   6.086   5.740   3.572  2.1458 -2.0638  0.9950
14104TIP3   OH263802   4.977   4.097   1.787  0.1764  0.2690  0.2617
14104TIP3    H163803   5.047   4.162   1.780 -0.6530  1.0210 -1.6907
14104TIP3    H263804   4.963   4.067   1.697 -2.2796  0.4443  0.5333
14105TIP3   OH263805   3.710   3.158   1.390  0.4373  0.3731 -0.0621
14105TIP3    H163806   3.753   3.155   1.304 -0.8048 -0.0121 -0.6961
14105TIP3    H263807   3.709   3.066   1.419 -1.7563  0.0354 -1.0151
14106TIP3   OH263808   0.589   0.400   3.719 -0.2161  0.4331  0.2969
14106TIP3    H163809   0.655   0.466   3.741  1.0748 -0.7993  0.1970
14106TIP3    H263810   0.635   0.317   3.720 -1.1592 -0.2305 -2.2424
14107TIP3   OH263811   5.227   1.458   1.297 -0.1976 -0.4100  0.7486
14107TIP3    H163812   5.260   1.420   1.377  2.2965  1.4017  0.7010
14107TIP3    H263813   5.280   1.419   1.227 -1.0810 -0.6097  0.1750
14108TIP3   OH263814   4.569   1.012   2.516  0.0181 -0.5452 -0.2741
14108TIP3    H163815   4.571   0.988   2.609  0.0242 -0.5011 -0.2627
14108TIP3    H263816   4.549   0.931   2.471  0.2347 -0.6126 -0.2499
14109TIP3   OH263817   3.404   6.046   0.274  0.0364 -0.2377 -0.1260
14109TIP3    H163818   3.394   5.998   0.356 -1.1228  1.1994  0.6425
14109TIP3    H263819   3.458   6.122   0.297 -1.4130  0.9090 -0.2980
14110TIP3   OH263820   0.251   1.094   4.088 -0.7255 -0.3817 -0.6187
14110TIP3    H163821   0.249   1.012   4.039 -2.4940  0.4825 -2.0965
14110TIP3    H263822   0.160   1.110   4.111 -0.2873  0.7352  0.4124
14111TIP3   OH263823   6.522   4.370   2.989 -0.0655  0.1152 -0.1006
14111TIP3    H163824   6.494   4.457   2.961 -0.6612  1.1077  3.1131
14111TIP3    H263825   6.445   4.315   2.978 -0.5588  0.6915  0.4170
14112TIP3   OH263826   6.741   0.180  14.761  0.6154  0.1803 -0.1053
14112TIP3    H163827   6.772   0.219  14.680  0.7472 -0.3896 -0.3309
14112TIP3    H263828   6.688   0.249  14.802 -0.7211 -0.0376 -1.4001
14113TIP3   OH263829   7.158   1.291   2.377  0.5419 -0.1999 -0.4545
14113TIP3    H163830   7.209   1.371   2.365  1.1508 -0.4238  0.5154
14113TIP3    H263831   7.067   1.321   2.384  0.5381  0.2224 -1.9819
14114TIP3   OH263832   3.800   5.567   4.985  0.5925  0.5425  0.6855
14114TIP3    H163833   3.747   5.641   4.957  3.3372  2.2485 -0.3985
14114TIP3    H263834   3.784   5.499   4.920 -0.2700  0.9792  0.4304
14115TIP3   OH263835   3.729   1.910   2.705 -0.4807 -0.4787  0.5892
14115TIP3    H163836   3.662   1.846   2.683  0.9289 -1.9030  0.2129
14115TIP3    H263837   3.681   1.989   2.730 -2.2500 -1.1965 -0.4167
14116TIP3   OH263838   4.732   5.426   4.790 -0.5827 -0.1708  0.4114
14116TIP3    H163839   4.804   5.457   4.845 -0.3051  1.4544 -0.7839
14116TIP3    H263840   4.727   5.490   4.719 -0.1303 -2.8334 -2.1760
14117TIP3   OH263841   1.083   5.452   2.851 -0.5447  0.0856  0.7705
14117TIP3    H163842   1.026   5.495   2.787 -1.9274 -1.8067  0.6396
14117TIP3    H263843   1.142   5.399   2.798 -0.3161  0.1192  0.9911
14118TIP3   OH263844   5.936   4.982   5.145  0.1234  0.0733  0.1285
14118TIP3    H163845   5.915   5.063   5.098  0.1859  0.0942  0.1359
14118TIP3    H263846   5.899   4.995   5.232  0.4688  0.2552  0.2518
14119TIP3   OH263847   4.890   4.068   3.384 -0.0881 -0.4144  0.5813
14119TIP3    H163848   4.870   3.985   3.340  1.8824 -0.9237  0.5690
14119TIP3    H263849   4.828   4.072   3.456  0.6477 -2.6227  1.4284
14120TIP3   OH263850   1.363   4.704   2.842  0.1599 -0.1391 -0.8385
14120TIP3    H163851   1.306   4.690   2.767 -1.8489  0.2560  0.5460
14120TIP3    H263852   1.324   4.653   2.913  0.5281  1.4925  0.6150
14121TIP3   OH263853   3.529   2.314   2.910 -0.1089  0.1145  0.2282
14121TIP3    H163854   3.551   2.255   2.838 -0.2090 -2.7253  2.3517
14121TIP3    H263855   3.434   2.308   2.918 -0.1534  0.8002  0.3088
14122TIP3   OH263856   3.825   6.831   4.292 -0.5010  0.0067 -0.1993
14122TIP3    H163857   3.788   6.754   4.336  0.9795 -0.2586  0.6531
14122TIP3    H263858   3.909   6.845   4.335  0.4629  0.4946 -2.1369
14123TIP3   OH263859   6.565   5.259   3.592  0.2462 -0.0148 -0.1735
14123TIP3    H163860   6.569   5.179   3.540  1.2074 -0.4615  0.5480
14123TIP3    H263861   6.646   5.258   3.643 -1.5633 -0.7868  3.0001
14124TIP3   OH263862   4.964   2.964  14.804 -0.5413  0.2136 -0.3180
14124TIP3    H163863   4.953   3.041  14.860  0.4557  0.6004 -0.6414
14124TIP3    H263864   5.020   2.906  14.855 -0.5059  0.1058 -0.4806
14125TIP3   OH263865   3.093   2.713  14.582  0.3876 -0.0813  0.5383
14125TIP3    H163866   3.143   2.782  14.627  0.5644 -0.0450  0.2875
14125TIP3    H263867   3.023   2.760  14.536  0.5450 -0.0625  0.3174
14126TIP3   OH263868   3.582   1.676   5.694 -0.3207 -0.3440 -0.9230
14126TIP3    H163869   3.653   1.678   5.758  0.5774  0.5336 -1.9026
14126TIP3    H263870   3.535   1.758   5.707 -1.1163 -0.8725 -0.3525
14127TIP3   OH263871   6.620   5.260   2.758 -0.5664 -0.3645 -0.5855
14127TIP3    H163872   6.606   5.214   2.841 -1.7112  2.2361  0.7949
14127TIP3    H263873   6.534   5.259   2.716 -0.2379 -0.7508 -1.2643
14128TIP3   OH263874   3.487   6.435   1.711 -0.4475 -0.1847 -0.1850
14128TIP3    H163875   3.473   6.448   1.805 -2.5717  0.0581 -0.4928
14128TIP3    H263876   3.416   6.484   1.669  1.7284  1.6017 -2.0509
14129TIP3   OH263877   5.160   1.872   4.610  0.1524  0.3434  0.1979
14129TIP3    H163878   5.251   1.867   4.640  0.0955  2.2803  0.7712
14129TIP3    H263879   5.115   1.922   4.677 -2.0771 -2.9665  1.4626
14130TIP3   OH263880   2.810   4.200   0.641  0.0841 -0.1201 -0.0701
14130TIP3    H163881   2.883   4.176   0.584  0.5306  0.6126  0.1848
14130TIP3    H263882   2.754   4.123   0.642 -0.1893  0.0141 -1.8936
14131TIP3   OH263883   0.507   4.490   0.151  0.3893 -0.2257  0.0875
14131TIP3    H163884   0.513   4.567   0.094  0.9197 -0.7787 -0.6207
14131TIP3    H263885   0.441   4.435   0.110 -0.2210 -0.0162  0.7679
14132TIP3   OH263886   2.638   6.119   5.455 -0.0679 -0.1006  0.0992
14132TIP3    H163887   2.667   6.039   5.500  1.3240  1.1507  1.5394
14132TIP3    H263888   2.545   6.106   5.441 -0.2174 -1.2742  1.8608
14133TIP3   OH263889   2.031   6.501  13.776  0.1813  0.0817  0.5621
14133TIP3    H163890   1.989   6.421  13.809  1.0830 -0.6047  0.0960
14133TIP3    H263891   2.002   6.508  13.685 -0.2379  0.5255  0.7287
14134TIP3   OH263892   6.887   0.584  14.903 -0.5281 -0.2037  0.2432
14134TIP3    H163893   6.861   0.632  14.825 -0.0181 -0.2928  0.0144
14134TIP3    H263894   6.806   0.575  14.954 -1.1227 -1.1361 -0.8104
14135TIP3   OH263895   4.884   2.866   1.275 -0.8876 -0.6401 -0.2900
14135TIP3    H163896   4.810   2.898   1.224 -1.4808 -3.0238 -1.0398
14135TIP3    H263897   4.957   2.863   1.213  0.1243  2.2472  0.5763
14136TIP3   OH263898   0.457   4.588  13.652 -0.8398  0.0255  0.9091
14136TIP3    H163899   0.381   4.558  13.603 -1.2874  1.7183  0.5193
14136TIP3    H263900   0.506   4.642  13.590  0.1354 -0.2020  1.4631
14137TIP3   OH263901   1.662   0.584  15.294  0.0590  0.1054 -0.0158
14137TIP3    H163902   1.656   0.493  15.264 -2.2574 -0.0537  0.7052
14137TIP3    H263903   1.626   0.635  15.222  0.6762  0.3920 -0.1265
14138TIP3   OH263904   0.773   6.799   4.798 -0.0994 -0.2710 -0.6007
14138TIP3    H163905   0.682   6.824   4.785  0.2249  0.5144 -1.5616
14138TIP3    H263906   0.781   6.714   4.754 -0.7718 -1.2595  1.0800
14139TIP3   OH263907   0.878   5.552   0.935 -0.1032  0.0256  0.7012
14139TIP3    H163908   0.924   5.590   1.010  1.3513 -0.4314  0.0816
14139TIP3    H263909   0.909   5.461   0.931  1.4086  0.5629 -1.5916
14140TIP3   OH263910   6.321   6.283   1.786  0.3271  0.0889  0.6121
14140TIP3    H163911   6.304   6.375   1.804  2.7256  0.5543  0.9050
14140TIP3    H263912   6.379   6.283   1.710  0.9515 -1.1288  1.0521
14141TIP3   OH263913   3.841   4.359   5.299  0.0378  0.0556  0.5263
14141TIP3    H163914   3.866   4.329   5.386  1.7591  2.1705  0.8496
14141TIP3    H263915   3.810   4.280   5.254  2.1121 -1.7306  2.0177
14142TIP3   OH263916   2.565   1.417   1.788  0.8687  0.0609 -0.5118
14142TIP3    H163917   2.644   1.363   1.782 -0.3830 -1.6753 -3.1030
14142TIP3    H263918   2.535   1.406   1.878  2.3665 -1.0155 -0.1075
14143TIP3   OH263919   2.026   4.087   4.769  0.6642 -0.4518 -0.4300
14143TIP3    H163920   2.090   4.021   4.795 -0.5845 -0.9783  1.4693
14143TIP3    H263921   1.978   4.108   4.849  0.5972  2.3588 -1.0907
14144TIP3   OH263922   1.192   1.213   1.718  0.4615  0.2883 -0.2035
14144TIP3    H163923   1.224   1.290   1.673 -0.1996 -0.0842 -1.3476
14144TIP3    H263924   1.103   1.236   1.746 -0.5273 -0.7045 -2.3347
14145TIP3   OH263925   2.551   2.540   4.226 -0.1459  0.2078  0.6394
14145TIP3    H163926   2.540   2.603   4.155  1.1657  1.3539  1.4152
14145TIP3    H263927   2.594   2.465   4.185  0.7967  0.9470  0.2518
14146TIP3   OH263928   6.158   6.347   3.690  0.5519  0.1621  0.1865
14146TIP3    H163929   6.232   6.402   3.717 -0.6479  1.2928  1.3676
14146TIP3    H263930   6.096   6.408   3.650 -0.4374 -0.4601  0.7128
14147TIP3   OH263931   1.840   4.022   0.391 -0.2684 -0.3738  0.3671
14147TIP3    H163932   1.750   4.016   0.423 -0.6975 -0.6105 -0.8587
14147TIP3    H263933   1.884   4.080   0.453 -1.5763  0.7548  0.2627
14148TIP3   OH263934   4.431   0.348  14.538 -0.0887  1.0784  0.0233
14148TIP3    H163935   4.445   0.360  14.632 -0.1271  3.4454 -0.2167
14148TIP3    H263936   4.506   0.392  14.497 -0.2474  0.3589 -1.0586
14149TIP3   OH263937   1.279   2.178   0.502  0.1489 -0.3745  0.4200
14149TIP3    H163938   1.300   2.102   0.557 -0.6713 -1.4153 -0.6203
14149TIP3    H263939   1.238   2.139   0.424  1.1327  1.0489 -0.8568
14150TIP3   OH263940   1.432   6.628   5.270  0.5891  0.1369  0.1146
14150TIP3    H163941   1.523   6.656   5.265  0.3535  0.7859 -1.0740
14150TIP3    H263942   1.423   6.564   5.199 -0.1900  1.0788 -0.6694
14151TIP3   OH263943   6.191   1.367   4.042 -0.1064  0.2630 -0.3279
14151TIP3    H163944   6.280   1.337   4.021  0.0028  0.5996 -0.3596
14151TIP3    H263945   6.195   1.388   4.135 -0.1514  0.2810 -0.3302
14152TIP3   OH263946   5.947   5.372   3.754 -0.1537  0.6183  0.3358
14152TIP3    H163947   5.893   5.342   3.681 -0.0482  1.4223 -0.0912
14152TIP3    H263948   6.004   5.439   3.716  1.9983 -1.0034  0.5035
14153TIP3   OH263949   5.958   1.786   3.363 -0.3670 -0.2921  0.2844
14153TIP3    H163950   5.985   1.724   3.431 -0.0025  1.7588  2.1281
14153TIP3    H263951   5.896   1.844   3.407 -0.1565  1.0890 -1.1475
14154TIP3   OH263952   3.802   3.287   5.223 -0.0384  0.0261 -0.2640
14154TIP3    H163953   3.888   3.298   5.181 -0.0027 -0.3599 -0.2980
14154TIP3    H263954   3.806   3.200   5.263  0.8194  1.3165  2.6713
14155TIP3   OH263955   2.640   4.323   3.710 -0.0892 -0.0210  0.4107
14155TIP3    H163956   2.703   4.313   3.639  0.9054 -2.0481  1.4852
14155TIP3    H263957   2.559   4.286   3.676 -0.0949  0.5419 -0.2105
14156TIP3   OH263958   2.368   2.048  13.632 -0.4269 -0.3113 -0.8334
14156TIP3    H163959   2.435   2.097  13.584 -1.0746  2.9489  1.2524
14156TIP3    H263960   2.417   1.997  13.697  0.2044  2.3901  0.9868
14157TIP3   OH263961   1.436   0.423   2.503 -0.2718  0.1209  0.1658
14157TIP3    H163962   1.468   0.507   2.538  0.8583 -0.6049  0.9501
14157TIP3    H263963   1.374   0.448   2.435 -0.1069  1.5998  0.5099
14158TIP3   OH263964   2.455   2.243   2.495  0.9143 -0.6184  0.2796
14158TIP3    H163965   2.399   2.321   2.500 -0.5296 -1.4935 -1.1925
14158TIP3    H263966   2.396   2.171   2.515  2.1034 -1.4119  1.0296
14159TIP3   OH263967   5.467   2.095   5.689 -0.2070  0.1003 -0.0583
14159TIP3    H163968   5.456   2.174   5.742  1.6186  0.1967  0.2339
14159TIP3    H263969   5.384   2.086   5.642 -1.2558  0.9721  1.5096
14160TIP3   OH263970   6.169   1.534   2.383  0.3902  0.3016 -0.3402
14160TIP3    H163971   6.260   1.549   2.359  0.7709  1.7708  1.6732
14160TIP3    H263972   6.118   1.578   2.315  1.2051  0.1654 -1.0494
14161TIP3   OH263973   6.784   0.370   1.649  0.2095 -0.3366 -0.0136
14161TIP3    H163974   6.834   0.348   1.727  0.7605  1.7066  0.2659
14161TIP3    H263975   6.777   0.288   1.601  1.9636 -1.1294  0.9903
14162TIP3   OH263976   5.073   1.078   0.026 -0.3156 -0.0197 -0.2992
14162TIP3    H163977   5.047   1.168   0.042 -0.0896 -0.2346  1.5454
14162TIP3    H263978   5.053   1.062  -0.066 -3.1914  0.9768  0.0679
14163TIP3   OH263979   5.460   6.277   3.201 -0.1429  0.6385  0.2941
14163TIP3    H163980   5.470   6.182   3.197  0.0842  0.6820 -3.5327
14163TIP3    H263981   5.373   6.293   3.164 -0.2847  1.9641  1.1353
14164TIP3   OH263982   1.288   4.296   3.157 -0.0201 -0.0650 -0.1794
14164TIP3    H163983   1.242   4.365   3.108 -0.9880 -0.7900 -0.3167
14164TIP3    H263984   1.365   4.340   3.192 -1.4041  1.5303  1.0581
14165TIP3   OH263985   5.998   4.407   0.026 -0.1635  0.5052  0.2114
14165TIP3    H163986   5.960   4.467   0.090  0.5193 -0.0955  1.2165
14165TIP3    H263987   6.039   4.338   0.079  0.5794  0.0815 -0.8706
14166TIP3   OH263988   5.907   2.011   2.953 -0.1268 -0.3350  0.4981
14166TIP3    H163989   6.002   1.998   2.953 -0.3271 -1.9996  1.1903
14166TIP3    H263990   5.875   1.953   2.884 -0.4336  2.5515 -2.0246
14167TIP3   OH263991   2.244   0.748   2.196 -0.4459  0.2494  0.5880
14167TIP3    H163992   2.287   0.743   2.282 -1.5012  0.3266  1.1420
14167TIP3    H263993   2.153   0.770   2.217 -0.5485  1.0199 -0.6014
14168TIP3   OH263994   6.372   3.814   0.463  0.2417  0.0853 -0.6005
14168TIP3    H163995   6.323   3.760   0.401  0.3016  0.7651 -1.2560
14168TIP3    H263996   6.305   3.861   0.512  0.1996 -0.2787 -0.3072
14169TIP3   OH263997   6.691   2.174   0.737 -0.2532 -0.3301 -0.3362
14169TIP3    H163998   6.758   2.230   0.775  1.9448 -2.4658 -0.8505
14169TIP3    H263999   6.622   2.235   0.709  1.4702  1.9637  0.1447
14170TIP3   OH264000   2.785   5.202   4.187  0.0882 -0.1022 -0.2601
14170TIP3    H164001   2.799   5.294   4.165  0.8271 -0.5205 -1.6110
14170TIP3    H264002   2.861   5.178   4.240  0.0223 -0.0069 -0.1221
14171TIP3   OH264003   2.889   4.865   4.338  0.2049  0.2146 -0.1458
14171TIP3    H164004   2.936   4.948   4.326 -0.2757  0.3957 -0.9022
14171TIP3    H264005   2.953   4.807   4.379  0.9061  0.6308 -0.6126
14172TIP3   OH264006   4.503   1.936   4.865  0.5377 -0.3417 -0.4622
14172TIP3    H164007   4.476   1.887   4.788 -1.0307  1.2938 -1.0345
14172TIP3    H264008   4.593   1.964   4.846 -0.9929  3.3686 -3.6617
14173TIP3   OH264009   2.669   4.379   0.015  0.2514  0.1244 -0.2440
14173TIP3    H164010   2.680   4.353  -0.077 -0.0757  0.2061 -0.3073
14173TIP3    H264011   2.665   4.475   0.012 -1.1412  0.0834 -0.3060
14174TIP3   OH264012   0.137   0.520   2.746  0.6334  0.3913 -0.2488
14174TIP3    H164013   0.193   0.530   2.670  3.0180 -2.2948  0.9694
14174TIP3    H264014   0.163   0.591   2.805 -1.4076  2.6464 -1.8478
14175TIP3   OH264015   0.467   1.549   1.907  0.4617  0.3774  0.3964
14175TIP3    H164016   0.544   1.493   1.901  0.1021 -0.0767  0.0047
14175TIP3    H264017   0.394   1.489   1.917 -0.1269  0.6604 -1.7663
14176TIP3   OH264018   6.137   6.220  12.166 -0.3920 -0.0232  0.6626
14176TIP3    H164019   6.103   6.187  12.082 -0.8041 -0.4888  1.0038
14176TIP3    H264020   6.059   6.235  12.219 -0.0845 -1.5205  1.6163
14177TIP3   OH264021   0.371   0.586   4.161 -0.3267  0.2057 -0.6510
14177TIP3    H164022   0.311   0.587   4.087 -1.0368 -0.0912 -0.0959
14177TIP3    H264023   0.415   0.501   4.155 -1.9498 -0.7709  0.4605
14178TIP3   OH264024   4.496   5.645   0.551  0.4352  0.3089 -0.3387
14178TIP3    H164025   4.491   5.624   0.645  0.7358 -0.9260 -0.5833
14178TIP3    H264026   4.422   5.599   0.513  2.2519 -2.1475 -1.1871
14179TIP3   OH264027   0.539   0.715   2.020 -0.0464 -0.3477 -0.2159
14179TIP3    H164028   0.629   0.683   2.021 -0.6287 -2.1014 -0.1226
14179TIP3    H264029   0.543   0.800   2.066  1.5704 -0.2775 -0.4215
14180TIP3   OH264030   0.432   4.879   2.999  0.1850 -0.1093  0.0976
14180TIP3    H164031   0.471   4.869   3.085  1.9455 -0.3340 -0.6931
14180TIP3    H264032   0.405   4.790   2.974 -1.8612  0.1757  1.0479
14181TIP3   OH264033   4.246   0.231   2.827  0.4884  0.0808 -0.2591
14181TIP3    H164034   4.338   0.257   2.826 -0.0667  2.2672  0.1450
14181TIP3    H264035   4.232   0.196   2.915  0.7933  0.2650 -0.1369
14182TIP3   OH264036   4.845   7.066   5.277  1.0114 -0.4201 -0.1346
14182TIP3    H164037   4.912   7.014   5.321  1.5720  0.7570  0.4691
14182TIP3    H264038   4.766   7.051   5.329  1.3135 -0.2014  0.3950
14183TIP3   OH264039   1.830   6.039  15.309  0.0116 -0.1444 -0.1098
14183TIP3    H164040   1.910   6.077  15.274  1.1752 -1.8725  0.5240
14183TIP3    H264041   1.777   6.019  15.231  1.1204 -0.9081 -0.6960
14184TIP3   OH264042   4.911   5.733   5.590  0.2810 -1.0325  0.0131
14184TIP3    H164043   5.001   5.733   5.557  1.5021 -0.0254  3.0001
14184TIP3    H264044   4.878   5.820   5.569  0.5239 -0.9003  0.1781
14185TIP3   OH264045   0.614   1.251   1.532 -0.3286  0.4364  0.3179
14185TIP3    H164046   0.547   1.318   1.517 -1.4312 -0.6912 -0.0004
14185TIP3    H264047   0.593   1.182   1.469  1.1994  0.0909  0.1568
14186TIP3   OH264048   6.260   2.191   4.771  0.4414  0.5440 -0.4693
14186TIP3    H164049   6.236   2.171   4.861  1.2031  1.6005 -0.0054
14186TIP3    H264050   6.350   2.157   4.763  1.2018  2.3833 -0.1200
14187TIP3   OH264051   6.360   4.681  12.475 -0.1926  0.2448  0.1363
14187TIP3    H164052   6.293   4.686  12.543 -0.9363  0.2936 -0.5837
14187TIP3    H264053   6.395   4.592  12.481 -0.0068  0.3621  0.8067
14188TIP3   OH264054   6.417   5.551   2.671 -0.2606 -0.2584 -0.2390
14188TIP3    H164055   6.323   5.568   2.670 -0.3929 -0.8707  0.3640
14188TIP3    H264056   6.424   5.456   2.661  0.2823 -0.2397 -0.1052
14189TIP3   OH264057   4.098   6.470   3.511 -0.1942 -0.4781 -0.0261
14189TIP3    H164058   4.116   6.541   3.573  0.0640 -2.1050  1.8482
14189TIP3    H264059   4.056   6.402   3.563 -1.4183 -1.3236 -1.9864
14190TIP3   OH264060   0.445   0.013   0.798  0.1607 -0.6687 -0.5168
14190TIP3    H164061   0.514   0.069   0.764  0.9160 -1.1730  0.1442
14190TIP3    H264062   0.385   0.001   0.724  1.2777 -0.9997 -1.4058
14191TIP3   OH264063   0.493   5.605   5.010 -0.1685  0.5945  0.5593
14191TIP3    H164064   0.577   5.643   4.983 -0.2899  2.0121  2.0268
14191TIP3    H264065   0.427   5.664   4.975 -0.4196  1.0284  1.7346
14192TIP3   OH264066   1.363   7.158   3.742 -0.0052  0.0403  0.7381
14192TIP3    H164067   1.456   7.179   3.746 -0.1417  0.5117  2.1462
14192TIP3    H264068   1.360   7.063   3.742  0.4981  0.0009 -0.8438
14193TIP3   OH264069   0.741   3.504  11.902 -0.2674  0.5044 -0.4149
14193TIP3    H164070   0.693   3.486  11.983 -1.1729  2.1778 -0.5287
14193TIP3    H264071   0.829   3.469  11.918 -1.0260 -1.1028  0.4530
14194TIP3   OH264072   0.166   3.478   4.827 -0.4533  0.0424 -0.4974
14194TIP3    H164073   0.196   3.404   4.879  0.6908  1.3671  0.8679
14194TIP3    H264074   0.247   3.520   4.797 -1.0440  0.9968 -0.8145
14195TIP3   OH264075   6.378   1.182   5.906 -0.5473 -0.0434  0.1429
14195TIP3    H164076   6.348   1.112   5.848 -0.9104 -0.1176  0.4151
14195TIP3    H264077   6.345   1.263   5.865  0.1370  0.0046 -0.3385
14196TIP3   OH264078   4.485   6.159  14.079  0.1435  0.8308 -0.1138
14196TIP3    H164079   4.495   6.088  14.016 -0.7452  1.2894 -0.8021
14196TIP3    H264080   4.402   6.201  14.054  1.0451  2.6117 -0.2551
14197TIP3   OH264081   6.166   2.539  12.770 -0.2506 -0.1114  0.5459
14197TIP3    H164082   6.118   2.621  12.787  0.8344  0.5120  0.6516
14197TIP3    H264083   6.251   2.552  12.812  0.3064 -0.8956 -0.3133
14198TIP3   OH264084   1.732   1.248   2.139  0.2746  0.2169 -0.5462
14198TIP3    H164085   1.746   1.183   2.071  0.6179  1.4560 -1.6985
14198TIP3    H264086   1.688   1.320   2.095  0.1665  0.9017  0.6355
14199TIP3   OH264087   0.625   4.131   4.422 -0.2125  0.2663 -0.2625
14199TIP3    H164088   0.595   4.214   4.385 -2.4737  0.1461  1.0872
14199TIP3    H264089   0.627   4.071   4.348  0.6346  1.2819 -1.1048
14200TIP3   OH264090   1.172   2.996  14.759 -0.0076  0.0888  0.3789
14200TIP3    H164091   1.170   3.047  14.840  0.9410  0.7804 -0.0088
14200TIP3    H264092   1.265   2.994  14.735 -0.3387  0.3905 -0.9971
14201TIP3   OH264093   7.128   4.978   2.409 -0.2349 -0.2277  0.6117
14201TIP3    H164094   7.218   4.958   2.384 -0.0674  1.2987 -0.1193
14201TIP3    H264095   7.125   4.964   2.503  0.5912 -0.8575  0.5581
14202TIP3   OH264096   4.852   0.519   5.413 -0.3403  0.5757 -0.1318
14202TIP3    H164097   4.833   0.605   5.376 -1.2088  0.9420  1.0828
14202TIP3    H264098   4.947   0.509   5.404  0.1475  2.7086  1.7725
14203TIP3   OH264099   5.182   1.545   0.562  0.2565 -0.0709  0.3254
14203TIP3    H164100   5.132   1.509   0.635 -0.1657  1.7093  0.9679
14203TIP3    H264101   5.116   1.574   0.499  0.4834  1.2794  0.6794
14204TIP3   OH264102   0.191   2.214   3.719 -0.6073 -0.3153  0.6009
14204TIP3    H164103   0.195   2.155   3.795  0.5872 -0.1816  0.6616
14204TIP3    H264104   0.193   2.155   3.644 -2.6974 -0.5046  0.6212
14205TIP3   OH264105   1.852   4.153   1.997  0.0036  0.3668 -0.1545
14205TIP3    H164106   1.904   4.144   1.917  0.4922  2.9956 -0.2169
14205TIP3    H264107   1.906   4.112   2.065  1.3109  1.3167 -0.5700
14206TIP3   OH264108   2.353   1.688   3.455 -0.5694 -0.0366 -0.0226
14206TIP3    H164109   2.424   1.684   3.518 -1.0381 -2.0299  0.4541
14206TIP3    H264110   2.383   1.635   3.381 -1.2601 -0.3382 -0.1052
14207TIP3   OH264111   2.018   6.848   1.344  0.2685  0.5485  0.4612
14207TIP3    H164112   1.960   6.801   1.404 -0.4427 -0.5716 -1.0279
14207TIP3    H264113   2.069   6.907   1.400 -1.3962  0.6311  1.9644
14208TIP3   OH264114   3.688   6.669   1.947 -0.6186  0.1368  0.0825
14208TIP3    H164115   3.761   6.614   1.920 -1.9186 -1.0389 -1.2415
14208TIP3    H264116   3.615   6.608   1.956 -0.8920  0.8325  4.0443
14209TIP3   OH264117   4.412   4.153  12.050 -0.1675  0.6942  0.1182
14209TIP3    H164118   4.396   4.105  11.969  0.9432 -0.0409  0.3131
14209TIP3    H264119   4.339   4.129  12.107 -2.2173  2.9187 -1.3367
14210TIP3   OH264120   0.623   7.028   4.637  0.7599 -0.0906 -0.0345
14210TIP3    H164121   0.623   7.123   4.645 -0.5557  0.0503 -1.3905
14210TIP3    H264122   0.552   6.999   4.694  1.3407 -0.3116  0.5992
14211TIP3   OH264123   6.106   4.220   5.371 -0.1256 -0.1008 -0.0356
14211TIP3    H164124   6.031   4.209   5.312 -0.8808 -1.6168  1.1332
14211TIP3    H264125   6.071   4.269   5.445  0.3968  0.3661 -0.0930
14212TIP3   OH264126   2.229   4.216   4.468  0.4064  0.2140 -0.2592
14212TIP3    H164127   2.153   4.263   4.500 -0.8755  0.1821 -3.0286
14212TIP3    H264128   2.286   4.283   4.432  0.9425  0.0740  0.3042
14213TIP3   OH264129   0.704   3.809   3.991  0.5055  0.0687 -0.5641
14213TIP3    H164130   0.728   3.838   3.903  0.4098 -0.8831 -0.9183
14213TIP3    H264131   0.785   3.772   4.027  0.8627  1.5466  0.2304
14214TIP3   OH264132   0.183   7.199   3.283 -0.0838  0.0178  0.3125
14214TIP3    H164133   0.141   7.171   3.364 -0.1674  0.4482  0.4177
14214TIP3    H264134   0.186   7.294   3.289  0.8929 -0.0035  0.2991
14215TIP3   OH264135   3.875   2.397   3.303  0.1033 -0.9057  0.5435
14215TIP3    H164136   3.791   2.371   3.265  0.6233 -1.4430 -0.2742
14215TIP3    H264137   3.936   2.396   3.229  0.8890 -0.8044  1.1781
14216TIP3   OH264138   0.945   0.403   3.545 -0.5245  0.5769  0.4028
14216TIP3    H164139   0.972   0.387   3.455  1.5166  0.6087  0.9649
14216TIP3    H264140   0.945   0.316   3.586 -2.0352  0.4788  0.2665
14217TIP3   OH264141   4.479   3.418  13.655  0.2853  0.7792 -0.0411
14217TIP3    H164142   4.405   3.404  13.596  0.4196 -0.0520 -0.0256
14217TIP3    H264143   4.518   3.331  13.666 -0.4885  0.6659  2.2865
14218TIP3   OH264144   5.795   0.411   2.477  0.4704  0.1782 -0.2115
14218TIP3    H164145   5.752   0.450   2.553 -0.8673 -0.2890 -0.7085
14218TIP3    H264146   5.753   0.451   2.402  2.0611  0.9248 -0.7404
14219TIP3   OH264147   1.300   3.529   1.644 -0.2992  0.2894  0.6952
14219TIP3    H164148   1.225   3.589   1.642  0.2217  0.9638 -1.2301
14219TIP3    H264149   1.272   3.456   1.589  0.3646  0.4568  0.1247
14220TIP3   OH264150   3.949   1.772   3.242 -0.4815 -0.1095 -0.6122
14220TIP3    H164151   3.859   1.778   3.208 -0.8722 -2.0662 -0.0764
14220TIP3    H264152   3.997   1.727   3.173  0.0730  0.8193 -0.8415
14221TIP3   OH264153   6.664   5.951   1.446 -0.0205  0.0209  0.8233
14221TIP3    H164154   6.704   5.868   1.417 -0.7074  0.6092 -2.1946
14221TIP3    H264155   6.584   5.957   1.394 -0.9624  1.7244  2.3805
14222TIP3   OH264156   2.205   5.733  14.037 -0.3153 -0.4376 -0.6988
14222TIP3    H164157   2.110   5.734  14.044 -0.2970  0.7123 -0.5094
14222TIP3    H264158   2.224   5.773  13.952  0.0657  1.8604  0.4036
14223TIP3   OH264159   4.824   5.871   3.715 -0.1088  0.1648  0.0251
14223TIP3    H164160   4.799   5.944   3.772 -0.6847 -0.7307  0.9465
14223TIP3    H264161   4.757   5.805   3.729  0.7318 -0.7891 -0.3301
14224TIP3   OH264162   3.475   6.285   5.894 -0.6935 -0.3754 -0.3323
14224TIP3    H164163   3.554   6.232   5.902 -0.4865 -0.0498 -0.1701
14224TIP3    H264164   3.404   6.229   5.926 -0.6371 -0.9251 -1.1555
14225TIP3   OH264165   6.812   7.137   2.485  0.1033 -0.3589 -0.8840
14225TIP3    H164166   6.759   7.212   2.459 -2.1664 -1.1802  1.1000
14225TIP3    H264167   6.867   7.169   2.556 -1.9440 -0.8479  1.0011
14226TIP3   OH264168   6.907   6.927   4.522 -0.5254  0.8688 -0.4793
14226TIP3    H164169   6.852   6.889   4.454 -0.6289 -0.3394  0.2461
14226TIP3    H264170   6.860   7.006   4.549 -1.2564  0.5369 -0.7590
14227TIP3   OH264171   5.318   6.939   4.242  0.2255  0.4849 -0.1556
14227TIP3    H164172   5.230   6.911   4.216 -0.0566  2.0397 -0.9891
14227TIP3    H264173   5.309   6.965   4.333 -0.0029 -0.0831 -0.0127
14228TIP3   OH264174   0.065   6.858   3.513 -0.3469  0.1416 -0.3187
14228TIP3    H164175   0.042   6.780   3.462 -2.3798  0.6081 -0.1963
14228TIP3    H264176   0.047   6.932   3.455 -0.2044  0.5806  0.1879
14229TIP3   OH264177   4.259   1.453  13.807  0.1589 -0.3575  0.3145
14229TIP3    H164178   4.351   1.446  13.833 -0.0549 -1.2231  0.8994
14229TIP3    H264179   4.250   1.392  13.734  0.4372  1.0467 -0.9411
14230TIP3   OH264180   6.100   5.587   2.910  0.0831 -0.3443 -0.0037
14230TIP3    H164181   6.020   5.587   2.964  1.4581 -1.6587  2.1524
14230TIP3    H264182   6.111   5.496   2.883  0.2733  0.0325 -1.3040
14231TIP3   OH264183   5.413   5.187   3.832 -0.1127  0.1105 -0.6228
14231TIP3    H164184   5.386   5.252   3.896 -0.8303  0.0406 -0.8507
14231TIP3    H264185   5.501   5.215   3.805 -0.3139  0.8475 -0.5368
14232TIP3   OH264186   0.021   5.003  14.849 -0.9074  0.2360  0.4818
14232TIP3    H164187  -0.068   4.989  14.879 -0.8836  0.5790  0.7133
14232TIP3    H264188   0.068   4.923  14.874 -1.2692 -0.1748 -0.1238
14233TIP3   OH264189   2.920   6.202   1.335  0.3817 -0.5341 -0.1008
14233TIP3    H164190   2.945   6.123   1.384 -0.8514  0.6774  2.7346
14233TIP3    H264191   2.993   6.262   1.347  0.0804 -0.2360  0.2637
14234TIP3   OH264192   4.302   6.335   3.418  0.5784 -0.1215 -0.1336
14234TIP3    H164193   4.216   6.376   3.429 -0.6529 -1.5170 -3.3194
14234TIP3    H264194   4.345   6.388   3.350  1.6672 -0.2643  0.4311
14235TIP3   OH264195   2.055   4.529  12.088  0.5461  0.3736 -0.3366
14235TIP3    H164196   1.984   4.571  12.137  0.0400 -0.3255 -0.4608
14235TIP3    H264197   2.057   4.439  12.121  2.0073  0.6247  0.3519
14236TIP3   OH264198   2.632   0.501   4.365 -0.4851 -0.0243 -0.1002
14236TIP3    H164199   2.723   0.473   4.357 -0.8948 -2.0941  1.5545
14236TIP3    H264200   2.621   0.521   4.458 -1.3822  1.6667 -0.5233
14237TIP3   OH264201   4.353   5.934   1.772  0.1792  0.0994 -0.0099
14237TIP3    H164202   4.290   5.906   1.838 -1.0114 -0.4275 -1.3160
14237TIP3    H264203   4.422   5.977   1.822  0.1602 -1.7289  1.7253
14238TIP3   OH264204   6.512   3.472  14.755  0.4663  0.7009  0.3974
14238TIP3    H164205   6.531   3.511  14.670  0.6444 -0.5456 -0.1622
14238TIP3    H264206   6.572   3.397  14.761  0.3942  0.7166  1.5822
14239TIP3   OH264207   2.969   0.055   2.260  0.3523 -0.4034 -0.1918
14239TIP3    H164208   3.023  -0.020   2.284  1.0299  0.5336  1.3082
14239TIP3    H264209   3.021   0.103   2.196  0.6460 -0.3192  0.1079
14240TIP3   OH264210   6.058   3.613   4.239  0.1041  0.9812  0.4070
14240TIP3    H164211   5.989   3.678   4.251 -1.0588 -0.1009 -0.0966
14240TIP3    H264212   6.039   3.573   4.154  0.5216 -0.2985  0.8863
14241TIP3   OH264213   2.084   1.042   4.725  0.2564 -0.4210 -0.3240
14241TIP3    H164214   2.139   0.975   4.685 -0.9818 -1.6139 -0.1091
14241TIP3    H264215   2.022   1.068   4.656  0.7643  0.5734 -0.4270
14242TIP3   OH264216   4.145   3.176   5.534  0.1494  0.0731 -0.3443
14242TIP3    H164217   4.193   3.256   5.513  1.6366 -0.9359 -0.9660
14242TIP3    H264218   4.111   3.146   5.449 -0.7591  0.2612 -0.0525
14243TIP3   OH264219   1.573   0.650   1.493 -0.1849  0.0127 -0.2529
14243TIP3    H164220   1.518   0.598   1.434 -1.0148  0.6152 -0.0282
14243TIP3    H264221   1.643   0.590   1.520 -0.1690 -0.4638 -1.3196
14244TIP3   OH264222   5.248   2.187   3.465  0.0735  0.1871  0.2038
14244TIP3    H164223   5.208   2.240   3.534  0.8771  0.3145  0.5753
14244TIP3    H264224   5.271   2.250   3.397  4.0220  0.9410  1.9681
14245TIP3   OH264225   3.838   0.854   3.639 -0.0036  0.5552  0.2306
14245TIP3    H164226   3.904   0.910   3.680 -0.6941 -0.4032  2.8639
14245TIP3    H264227   3.768   0.914   3.614  1.0045  1.3332 -0.8504
14246TIP3   OH264228   1.867   4.797  12.199 -0.4551 -0.1022  0.1010
14246TIP3    H164229   1.812   4.762  12.129 -0.6973 -0.6428  0.5605
14246TIP3    H264230   1.810   4.799  12.276  0.3583 -1.3528  0.7617
14247TIP3   OH264231   6.028   1.660   4.056  0.1157  0.2544  0.7398
14247TIP3    H164232   6.104   1.701   4.098 -0.8746  3.0581 -0.0064
14247TIP3    H264233   5.952   1.697   4.101 -0.8954 -1.9096  0.9491
14248TIP3   OH264234   4.940   5.855   4.852 -0.1775  0.6776 -0.0265
14248TIP3    H164235   4.924   5.901   4.770 -0.0008 -0.6624 -0.8314
14248TIP3    H264236   5.013   5.797   4.834  0.0063  0.5086  1.1519
14249TIP3   OH264237   6.612   3.751   2.041 -0.6796  0.5938  0.7664
14249TIP3    H164238   6.626   3.700   1.962  1.9965  0.1125  1.4672
14249TIP3    H264239   6.694   3.745   2.090 -1.9259  1.5767  3.2004
14250TIP3   OH264240   1.418   3.698   5.336  0.3201 -0.1902 -0.1686
14250TIP3    H164241   1.440   3.770   5.395  0.0966 -1.2169  1.1942
14250TIP3    H264242   1.435   3.619   5.386 -1.0986 -1.0843 -1.0367
14251TIP3   OH264243   5.436   6.782  13.299  0.3651 -0.3269 -0.0126
14251TIP3    H164244   5.407   6.767  13.390 -1.1642  1.5467 -0.1302
14251TIP3    H264245   5.354   6.789  13.249  1.1037  1.4550 -1.0402
14252TIP3   OH264246   6.527   5.093  13.336  0.2267 -0.1029 -0.8949
14252TIP3    H164247   6.508   5.174  13.288  2.6483  0.3194 -1.2801
14252TIP3    H264248   6.598   5.117  13.395  1.4770 -2.0887 -1.4938
14253TIP3   OH264249   2.734   4.627   4.974  0.0447 -0.3005 -0.2817
14253TIP3    H164250   2.791   4.562   4.933  0.9046 -0.4079  1.0247
14253TIP3    H264251   2.746   4.705   4.920  0.2429 -0.7536 -0.9219
14254TIP3   OH264252   2.280   3.496   5.010  0.3426 -0.0761  0.2638
14254TIP3    H164253   2.279   3.590   4.992 -1.6289  0.1477  1.2591
14254TIP3    H264254   2.198   3.463   4.972  1.3288 -1.5512 -0.6901
14255TIP3   OH264255   3.294   6.930   2.795 -0.6241  0.2575 -0.1282
14255TIP3    H164256   3.288   6.834   2.801 -1.0330  0.3275  0.8550
14255TIP3    H264257   3.214   6.961   2.839  0.5359  1.0672  1.4977
14256TIP3   OH264258   3.706   2.923   3.977 -0.7037 -0.3731 -0.2253
14256TIP3    H164259   3.754   2.936   3.896 -1.1263  1.4344 -0.2345
14256TIP3    H264260   3.696   2.828   3.985  2.7065 -0.8341 -0.2686
14257TIP3   OH264261   3.937   3.899   5.250  0.3441 -0.5072  0.1513
14257TIP3    H164262   3.973   3.811   5.264  0.1070 -1.1845 -2.7246
14257TIP3    H264263   4.012   3.950   5.218  0.1239 -0.1435  0.2150
14258TIP3   OH264264   5.794   5.673   4.863 -0.7060  0.1627  0.2588
14258TIP3    H164265   5.770   5.636   4.778  2.7755 -1.9229 -0.0424
14258TIP3    H264266   5.885   5.701   4.852 -0.0100 -0.4544  3.3290
14259TIP3   OH264267   7.114   6.286   5.866 -0.1315 -0.0772  0.3388
14259TIP3    H164268   7.053   6.263   5.936 -0.8973 -0.4125 -0.4260
14259TIP3    H264269   7.200   6.287   5.909 -0.7236  1.1805  1.6163
14260TIP3   OH264270   1.001   2.967   4.999 -0.1511 -0.4047 -0.3438
14260TIP3    H164271   1.070   3.026   4.970 -0.1579  0.3606  1.1370
14260TIP3    H264272   0.966   2.930   4.918  0.5721  0.8018 -1.2394
14261TIP3   OH264273   6.632   3.256   4.201 -0.2999 -0.2705  0.8371
14261TIP3    H164274   6.607   3.221   4.115 -0.6301  0.8432  0.4585
14261TIP3    H264275   6.549   3.277   4.243 -0.1106 -0.0659  1.1065
14262TIP3   OH264276   1.741   7.134  13.318  0.4250 -0.3308  0.3836
14262TIP3    H164277   1.680   7.088  13.260  0.4573 -0.6463  0.5977
14262TIP3    H264278   1.822   7.083  13.313  1.0394  0.7215 -0.7766
14263TIP3   OH264279   6.289   5.615  14.805  1.1024  0.0324 -0.0029
14263TIP3    H164280   6.198   5.645  14.801  0.8267 -0.7420  0.2481
14263TIP3    H264281   6.321   5.624  14.716  0.0704 -1.7840 -0.6149
14264TIP3   OH264282   7.182   2.185   4.466 -0.1060  0.3904 -0.6043
14264TIP3    H164283   7.190   2.276   4.437 -1.0385  0.1251 -1.7741
14264TIP3    H264284   7.136   2.141   4.395  1.9998 -1.4460 -0.9350
14265TIP3   OH264285   5.736   6.077  12.526  0.2054 -0.1345 -0.2219
14265TIP3    H164286   5.762   6.110  12.441  1.5039  1.9074  0.8995
14265TIP3    H264287   5.743   5.981  12.518 -0.6512 -0.0437 -2.6430
14266TIP3   OH264288   0.516   1.353  14.468  0.1643 -0.2427  1.0363
14266TIP3    H164289   0.454   1.368  14.397  0.9525  0.4374  0.4748
14266TIP3    H264290   0.513   1.259  14.483  0.3753 -0.4799 -0.2723
14267TIP3   OH264291   2.323   3.176   1.191  0.2572 -0.1223 -0.6574
14267TIP3    H164292   2.355   3.130   1.113  1.0202  0.4980 -0.7132
14267TIP3    H264293   2.258   3.238   1.157  0.3249 -0.1037 -0.7534
14268TIP3   OH264294   2.714   7.052   1.949  0.2096  0.0971  0.0108
14268TIP3    H164295   2.747   7.035   1.861 -0.3319 -0.6496 -0.0564
14268TIP3    H264296   2.707   7.148   1.954 -0.1381  0.1294 -0.8979
14269TIP3   OH264297   2.418   6.850   5.470 -0.3331  0.5051  0.3111
14269TIP3    H164298   2.454   6.938   5.474  0.6064  0.3751 -2.4834
14269TIP3    H264299   2.490   6.796   5.435 -1.7923 -0.6942 -1.0322
14270TIP3   OH264300   6.934   5.207   1.555 -0.1976 -0.4516  0.2770
14270TIP3    H164301   6.846   5.170   1.550  0.2890 -1.8871  1.6166
14270TIP3    H264302   6.931   5.264   1.632 -0.1940  0.2023 -0.2023
14271TIP3   OH264303   6.314   6.141   2.139 -0.0347  0.0879  0.3805
14271TIP3    H164304   6.275   6.105   2.219  0.7569  0.9773  1.1950
14271TIP3    H264305   6.352   6.224   2.167  0.7280  0.1553 -0.8174
14272TIP3   OH264306   4.780   1.012   3.962  0.0410 -0.4860 -0.2923
14272TIP3    H164307   4.685   0.998   3.960 -0.3080  1.5995 -0.6405
14272TIP3    H264308   4.816   0.933   3.922 -1.5603 -1.2284 -0.3603
14273TIP3   OH264309   6.615   3.853   3.035  0.3419  0.5131  0.7257
14273TIP3    H164310   6.708   3.853   3.056  0.1729  1.9037  1.5650
14273TIP3    H264311   6.577   3.785   3.091  0.6271  0.9939  1.5166
14274TIP3   OH264312   2.144   0.042   3.181  0.0551 -0.0875  0.4382
14274TIP3    H164313   2.238   0.057   3.182 -0.0215  0.6240 -0.6602
14274TIP3    H264314   2.130  -0.020   3.109 -0.4898  1.4178 -0.8104
14275TIP3   OH264315   5.763   5.699  14.679 -0.0105 -0.0167  0.1415
14275TIP3    H164316   5.701   5.673  14.611 -1.2685  2.7784  0.0889
14275TIP3    H264317   5.722   5.671  14.761 -1.2928  1.5303  0.0835
14276TIP3   OH264318   4.530   4.892   4.091  0.0170 -0.0987  0.6187
14276TIP3    H164319   4.497   4.819   4.039 -1.7763  0.9442  0.1829
14276TIP3    H264320   4.565   4.953   4.027 -2.8732  1.5324  0.4058
14277TIP3   OH264321   2.047   6.178   2.407  0.4013  0.0166  0.5016
14277TIP3    H164322   2.044   6.123   2.329 -1.2930  1.7844 -0.7516
14277TIP3    H264323   1.964   6.159   2.453  1.8508 -1.8591  2.5908
14278TIP3   OH264324   6.877   4.699   2.636  0.4200 -0.2186  1.2121
14278TIP3    H164325   6.877   4.689   2.731 -0.9065 -1.3459  1.1187
14278TIP3    H264326   6.786   4.688   2.610  0.9895 -1.7292 -0.3574
14279TIP3   OH264327   0.376   6.531   5.352 -0.5172 -0.2555  0.0755
14279TIP3    H164328   0.397   6.582   5.274 -0.9217  0.3530  0.3538
14279TIP3    H264329   0.290   6.562   5.378 -1.1599 -1.6917 -0.2275
14280TIP3   OH264330   6.169   0.569   1.476 -0.0723 -0.9001  0.6932
14280TIP3    H164331   6.247   0.515   1.494  0.7108 -0.2111 -0.5528
14280TIP3    H264332   6.202   0.658   1.469 -0.8249 -0.7049 -0.7498
14281TIP3   OH264333   3.479   3.598  14.644 -0.3206 -0.0815 -0.2101
14281TIP3    H164334   3.554   3.638  14.600  1.6562 -1.7772  1.3745
14281TIP3    H264335   3.452   3.662  14.709 -1.9271  1.5634 -2.3365
14282TIP3   OH264336   1.579   3.275   1.673 -0.4446  0.3979  0.2244
14282TIP3    H164337   1.488   3.248   1.660 -0.2204 -0.1190 -0.3205
14282TIP3    H264338   1.597   3.333   1.599 -0.2906  0.3956  0.2599
14283TIP3   OH264339   0.746   0.283   0.802  0.0800  0.4947  0.3994
14283TIP3    H164340   0.796   0.315   0.728 -2.6779 -0.6875 -2.1984
14283TIP3    H264341   0.707   0.362   0.840  1.6072  1.1265  0.7222
14284TIP3   OH264342   0.810   5.495   1.955 -0.2401  0.1786 -0.2979
14284TIP3    H164343   0.875   5.463   2.018  0.2707  2.5345  0.4846
14284TIP3    H264344   0.847   5.577   1.922 -2.2402  0.9275 -0.8131
14285TIP3   OH264345   3.660   3.436   1.493 -0.0832 -0.1870  0.0233
14285TIP3    H164346   3.736   3.387   1.462 -0.5426 -1.6728  1.0968
14285TIP3    H264347   3.665   3.431   1.589 -1.1916  0.2256  0.1229
14286TIP3   OH264348   3.966   5.071   4.371  0.4112 -0.4190  0.6562
14286TIP3    H164349   3.937   5.110   4.454 -1.3355  0.2381 -0.2100
14286TIP3    H264350   3.928   4.983   4.372 -0.1755 -0.1738  0.2732
14287TIP3   OH264351   6.198   4.755   4.346  0.1237  0.0002 -0.1694
14287TIP3    H164352   6.140   4.831   4.355 -0.0453  0.0611 -1.6227
14287TIP3    H264353   6.181   4.722   4.258  0.7188 -1.3046  0.1811
14288TIP3   OH264354   3.691   2.884   1.471  0.2852  0.0091  0.2816
14288TIP3    H164355   3.750   2.881   1.546 -0.1008 -0.4252  0.5722
14288TIP3    H264356   3.737   2.835   1.403 -0.4579 -1.8074  1.0397
14289TIP3   OH264357   3.163   2.570   3.430  0.1496 -0.2384 -0.7312
14289TIP3    H164358   3.146   2.497   3.488  1.5322  0.1066  0.1499
14289TIP3    H264359   3.082   2.581   3.380 -1.1882 -0.3947  1.2939
14290TIP3   OH264360   4.272   5.262  13.401  0.0666  0.0269  0.0079
14290TIP3    H164361   4.254   5.168  13.402  1.8735 -0.3641  0.1343
14290TIP3    H264362   4.206   5.299  13.342  1.0244 -1.7287 -2.3053
14291TIP3   OH264363   4.302   4.420  11.859  0.1464 -0.0409  0.0188
14291TIP3    H164364   4.395   4.418  11.882  0.3945 -1.0710 -0.9691
14291TIP3    H264365   4.257   4.425  11.943  1.0975  1.0285  0.4915
14292TIP3   OH264366   0.210   6.789   1.857 -0.1412 -0.0153 -0.7549
14292TIP3    H164367   0.135   6.849   1.854  0.0554  0.1909 -1.9265
14292TIP3    H264368   0.285   6.847   1.869 -0.1145 -0.1956  0.0332
14293TIP3   OH264369   1.381   0.330   4.182 -0.2461  0.1281  0.2037
14293TIP3    H164370   1.459   0.371   4.218 -0.8783 -0.3460  2.2462
14293TIP3    H264371   1.385   0.239   4.212 -1.1287 -0.1373 -0.4172
14294TIP3   OH264372   2.630   6.015  14.813  0.5321  0.2261  0.8466
14294TIP3    H164373   2.719   5.983  14.805  1.1942  1.7286  1.7297
14294TIP3    H264374   2.625   6.087  14.750 -0.4631 -0.5956 -0.0659
14295TIP3   OH264375   1.840   0.967  15.178 -0.3758  0.5597 -0.3325
14295TIP3    H164376   1.775   0.921  15.124  0.8205  0.9021 -2.1481
14295TIP3    H264377   1.811   0.951  15.268 -1.8303 -0.9872 -1.0035
14296TIP3   OH264378   0.971   7.213   0.436 -0.1183  0.1444  0.5526
14296TIP3    H164379   1.022   7.287   0.469 -0.0923  0.1027  0.6070
14296TIP3    H264380   0.933   7.174   0.515  0.1316 -0.0960  0.5553
14297TIP3   OH264381   5.895   5.225   3.996  0.2003 -0.2366 -0.6043
14297TIP3    H164382   5.952   5.235   4.073 -1.0970  2.7401  0.1163
14297TIP3    H264383   5.949   5.254   3.923  0.6138 -0.4905 -0.4016
14298TIP3   OH264384   4.776   2.105   4.194 -0.4288 -0.1325 -0.2793
14298TIP3    H164385   4.833   2.133   4.266 -1.6725  1.1668  0.2469
14298TIP3    H264386   4.688   2.132   4.221 -0.9768  0.0265 -2.1036
14299TIP3   OH264387   2.063   2.293   3.019 -0.4585 -0.1146 -0.0618
14299TIP3    H164388   2.021   2.318   3.102 -2.6668  2.0260 -1.6749
14299TIP3    H264389   2.086   2.376   2.979 -0.9778 -0.9993 -2.3196
14300TIP3   OH264390   4.802   6.900   0.061  0.0595  0.6969 -1.0545
14300TIP3    H164391   4.867   6.845   0.018  1.0738  0.4272  0.6983
14300TIP3    H264392   4.718   6.867   0.031  0.6954 -0.5763 -1.4989
14301TIP3   OH264393   5.843   0.079   4.570  0.0838 -0.2287 -0.3438
14301TIP3    H164394   5.912   0.094   4.506 -0.3508  1.4812 -0.4642
14301TIP3    H264395   5.863  -0.006   4.608  1.6629 -0.2206 -1.0944
14302TIP3   OH264396   0.995   5.698   4.396 -0.4029  0.2777 -0.4066
14302TIP3    H164397   0.958   5.767   4.451 -0.8367 -0.6168  0.4393
14302TIP3    H264398   0.960   5.617   4.431 -0.2970 -0.3602 -1.7021
14303TIP3   OH264399   2.540   5.741   2.966 -0.0726 -0.5877 -0.7284
14303TIP3    H164400   2.487   5.727   2.888 -1.2578 -1.6701  0.2393
14303TIP3    H264401   2.536   5.835   2.981 -2.5399 -0.7118 -0.1600
14304TIP3   OH264402   5.257   2.984   4.425  0.3748  0.5329 -0.4128
14304TIP3    H164403   5.211   2.940   4.354  2.7105 -0.8344 -1.2012
14304TIP3    H264404   5.346   2.995   4.392  0.7947  2.5933  1.2112
14305TIP3   OH264405   5.732   2.385   1.440  0.0783  0.5274  0.4105
14305TIP3    H164406   5.706   2.440   1.366 -0.8853 -0.2909  0.1185
14305TIP3    H264407   5.769   2.306   1.399 -1.5177 -0.4444  0.7410
14306TIP3   OH264408   4.352   3.526   4.335 -0.4543  0.5271  0.1311
14306TIP3    H164409   4.321   3.616   4.346 -0.8977  0.4817 -0.6946
14306TIP3    H264410   4.401   3.508   4.416 -0.2736  1.5358  0.2621
14307TIP3   OH264411   7.127   3.133  15.199  0.0152 -0.5023  0.2249
14307TIP3    H164412   7.136   3.074  15.124  1.4746 -1.0159  0.7734
14307TIP3    H264413   7.060   3.092  15.253 -0.7338 -0.3597 -0.5621
14308TIP3   OH264414   1.748   3.194   2.631 -0.0726 -0.5646  0.0012
14308TIP3    H164415   1.671   3.205   2.686  0.2444 -0.1796  0.3857
14308TIP3    H264416   1.724   3.235   2.547  0.2176  0.9137  0.6063
14309TIP3   OH264417   4.648   5.327  15.371  0.1822  0.5724 -0.3061
14309TIP3    H164418   4.620   5.385  15.442 -1.1260  0.9379 -1.0749
14309TIP3    H264419   4.743   5.329  15.375  0.1477  1.3120  0.8479
14310TIP3   OH264420   5.647   5.436   2.979  0.1092 -0.1515  0.0818
14310TIP3    H164421   5.651   5.352   3.025  0.3674  0.6975  1.6420
14310TIP3    H264422   5.707   5.425   2.905 -0.3895 -1.5615 -0.1515
14311TIP3   OH264423   0.321   2.406   5.362 -0.3627 -0.2941  0.1371
14311TIP3    H164424   0.243   2.359   5.390 -1.5580  2.1000  1.0904
14311TIP3    H264425   0.394   2.352   5.392 -1.6408 -1.0387  2.0541
14312TIP3   OH264426   2.406   2.474   3.151 -0.3741 -0.6529 -0.0006
14312TIP3    H164427   2.361   2.432   3.078  0.0757 -1.0783 -0.0330
14312TIP3    H264428   2.373   2.429   3.229 -0.7365 -0.3041  0.0510
14313TIP3   OH264429   3.029   1.119   3.448  0.4429 -0.1892  0.4021
14313TIP3    H164430   3.107   1.103   3.500 -0.4168  0.0521  1.8216
14313TIP3    H264431   3.047   1.077   3.364  1.2237 -2.0604  1.4451
14314TIP3   OH264432   3.704   4.666   3.643  0.1633  0.2205  0.7329
14314TIP3    H164433   3.686   4.596   3.580  0.8076  0.4646  0.2660
14314TIP3    H264434   3.617   4.693   3.674 -0.2918  1.0433 -1.0929
14315TIP3   OH264435   4.097   2.468  14.845  0.6937 -0.1434 -0.4110
14315TIP3    H164436   4.126   2.481  14.935 -0.1740 -1.4493  0.0944
14315TIP3    H264437   4.123   2.378  14.825 -1.3285 -0.7566 -0.5382
14316TIP3   OH264438   0.910   3.776   0.167  0.1021  0.7641  0.1469
14316TIP3    H164439   0.883   3.864   0.194 -0.9325  0.1664  1.0935
14316TIP3    H264440   0.986   3.792   0.110 -0.5562  2.3169 -0.3761
14317TIP3   OH264441   6.065   4.979   4.498 -0.0637 -0.4083  0.1608
14317TIP3    H164442   6.038   5.066   4.527 -1.6286 -0.6935 -0.3449
14317TIP3    H264443   6.151   4.966   4.539  0.5989  1.6921 -0.4231
14318TIP3   OH264444   1.491   3.026   2.031  0.2123  0.5248 -0.3408
14318TIP3    H164445   1.515   2.972   1.956  0.7999 -0.3206  0.4308
14318TIP3    H264446   1.556   3.097   2.031 -0.2369  0.9497 -1.0438
14319TIP3   OH264447   5.604   1.872  11.260  0.2983  0.0483 -0.3599
14319TIP3    H164448   5.530   1.819  11.288  0.2526  1.3253  2.1569
14319TIP3    H264449   5.681   1.823  11.288  0.4619 -0.9554 -2.3861
14320TIP3   OH264450   6.181   0.825   2.901 -0.3316 -0.2221 -0.3420
14320TIP3    H164451   6.254   0.763   2.906  1.0040  1.3648  0.8992
14320TIP3    H264452   6.193   0.869   2.817 -0.3663 -0.5423 -0.5167
14321TIP3   OH264453   3.675   5.937  14.391  0.4022  0.2575 -0.7919
14321TIP3    H164454   3.662   6.012  14.449  1.6579  0.4481 -0.7232
14321TIP3    H264455   3.671   5.861  14.448 -0.1089  0.3201 -0.7406
14322TIP3   OH264456   7.137   6.496   0.091 -0.0662  0.1694 -0.0331
14322TIP3    H164457   7.136   6.540   0.006  1.7629 -0.7589 -0.5877
14322TIP3    H264458   7.082   6.419   0.078 -0.4788  0.4686 -0.1023
14323TIP3   OH264459   0.267   7.220   0.582 -0.3638 -0.0305 -0.0348
14323TIP3    H164460   0.261   7.302   0.532 -0.2343  0.4282  0.6744
14323TIP3    H264461   0.204   7.161   0.540  0.9522 -0.2540 -1.7994
14324TIP3   OH264462   3.366   3.868   1.861 -0.6927 -0.3721  0.3949
14324TIP3    H164463   3.418   3.788   1.867  1.8164  1.0534 -0.6765
14324TIP3    H264464   3.406   3.927   1.925 -3.1812 -0.2162  1.9512
14325TIP3   OH264465   1.439   0.483   1.318  0.0960 -0.6039  0.5637
14325TIP3    H164466   1.368   0.498   1.255 -0.8251 -0.3335  1.6267
14325TIP3    H264467   1.513   0.453   1.265 -0.4387  0.2794 -0.7116
14326TIP3   OH264468   7.112   0.936   1.116  0.2586  0.7390  0.1328
14326TIP3    H164469   7.136   1.011   1.170  1.4050  0.2135  0.3948
14326TIP3    H264470   7.036   0.965   1.066  0.6564  2.0522  0.2564
14327TIP3   OH264471   1.272   1.804   1.758  0.1130 -0.1137  0.5142
14327TIP3    H164472   1.341   1.740   1.779 -0.0734 -0.6476 -0.4466
14327TIP3    H264473   1.306   1.853   1.684  0.7270  1.7085  1.9189
14328TIP3   OH264474   5.950   0.429  13.004  0.0980 -0.5387 -0.3127
14328TIP3    H164475   5.996   0.501  13.047  1.5205 -1.4622 -0.2038
14328TIP3    H264476   5.858   0.455  13.006  0.2522  0.0916  2.0315
14329TIP3   OH264477   1.530   3.707   5.641  0.0865  0.3235 -0.1413
14329TIP3    H164478   1.561   3.621   5.668  0.0168  0.7411  1.3829
14329TIP3    H264479   1.436   3.705   5.658 -0.3718 -0.1151 -2.4525
14330TIP3   OH264480   7.132   2.895   5.030 -0.1890 -0.2209  0.0341
14330TIP3    H164481   7.066   2.964   5.024 -0.5203 -0.5235  0.1751
14330TIP3    H264482   7.133   2.856   4.942 -0.6022 -0.5849  0.1893
14331TIP3   OH264483   1.983   1.033   2.696  0.2477 -0.7445 -0.0083
14331TIP3    H164484   1.930   1.053   2.773  1.6970 -2.2413  1.4738
14331TIP3    H264485   2.006   1.118   2.659  1.8639  0.2353  2.9050
14332TIP3   OH264486   2.910   1.156   1.790  0.2065 -0.0755  0.1056
14332TIP3    H164487   2.824   1.166   1.751 -0.1301  0.6105  0.9784
14332TIP3    H264488   2.892   1.144   1.884  1.0334 -0.5007  0.2188
14333TIP3   OH264489   0.812   7.112   4.353  0.4362 -0.5637  0.0972
14333TIP3    H164490   0.875   7.111   4.281 -2.3612 -0.2432 -2.5691
14333TIP3    H264491   0.759   7.033   4.340 -0.4061 -0.2811  1.5748
14334TIP3   OH264492   5.437   0.435   5.020  0.0854  0.0585 -0.7729
14334TIP3    H164493   5.384   0.472   5.091 -1.1364 -0.3115 -1.4660
14334TIP3    H264494   5.493   0.371   5.063 -2.8229 -2.4740 -0.4531
14335TIP3   OH264495   2.418   6.601   2.298  0.3769 -0.4332 -0.3230
14335TIP3    H164496   2.491   6.644   2.343 -0.3551  1.4863 -0.8409
14335TIP3    H264497   2.348   6.597   2.363  1.4278 -4.1167  0.8327
14336TIP3   OH264498   1.311   1.970   0.697 -0.8619  0.4251 -0.5749
14336TIP3    H164499   1.402   1.950   0.677 -1.2209  0.3975 -2.3920
14336TIP3    H264500   1.304   1.961   0.792  0.7749 -0.5699 -0.5199
14337TIP3   OH264501   4.521   2.234   1.829 -0.5213  0.0098  0.4166
14337TIP3    H164502   4.509   2.224   1.923 -0.8607  1.3110  0.5238
14337TIP3    H264503   4.547   2.325   1.817 -0.1473 -0.2241 -0.7260
14338TIP3   OH264504   4.608   4.465   4.474 -0.2201 -0.2414  0.0070
14338TIP3    H164505   4.548   4.489   4.404  0.0365 -0.5542 -0.3243
14338TIP3    H264506   4.551   4.430   4.543 -0.4720  0.0644 -0.0419
14339TIP3   OH264507   6.084   3.416   1.482 -0.0348  0.6901  0.0460
14339TIP3    H164508   6.016   3.420   1.415 -0.0028  1.2176  0.0448
14339TIP3    H264509   6.062   3.486   1.543  0.4435  0.7848  0.1083
14340TIP3   OH264510   3.619   1.024   3.875  0.3982 -0.2006 -0.3224
14340TIP3    H164511   3.696   0.971   3.851  0.6876  0.2972 -0.4993
14340TIP3    H264512   3.609   1.009   3.969  1.0974  0.2295 -0.1750
14341TIP3   OH264513   1.664   0.011   2.164  0.0525  0.0750  0.5669
14341TIP3    H164514   1.673   0.017   2.069  2.3019  0.6243  0.7666
14341TIP3    H264515   1.600  -0.059   2.177  1.1770 -1.4295 -1.3380
14342TIP3   OH264516   1.777   5.427   3.331  0.1674 -0.2273 -0.4254
14342TIP3    H164517   1.787   5.333   3.316  0.9223  0.0094 -1.4954
14342TIP3    H264518   1.866   5.463   3.322  0.3785  0.2751  2.5630
14343TIP3   OH264519   2.082   7.106   2.963  0.0431  0.4680 -0.5413
14343TIP3    H164520   2.023   7.138   2.896 -1.1351  1.5579  0.9411
14343TIP3    H264521   2.036   7.033   3.003  0.5180  0.1396 -0.5850
14344TIP3   OH264522   7.086   3.108   1.957  0.0434 -0.2560 -0.2954
14344TIP3    H164523   7.171   3.073   1.930 -0.5291 -1.3109 -0.7787
14344TIP3    H264524   7.046   3.038   2.008 -0.1015  0.6311  0.8645
14345TIP3   OH264525   4.385   1.452   4.686 -0.3797  0.4848  0.0948
14345TIP3    H164526   4.383   1.360   4.659  0.7545  0.8820 -1.5125
14345TIP3    H264527   4.443   1.453   4.763 -0.6975 -0.1868  0.3528
14346TIP3   OH264528   0.176   4.244   1.247  0.3522  0.1355 -0.3142
14346TIP3    H164529   0.153   4.304   1.177  0.5134 -0.9135 -1.2873
14346TIP3    H264530   0.138   4.160   1.222 -1.1272  0.1068  1.7326
14347TIP3   OH264531   6.184   1.186  14.666 -0.0653  0.1233 -0.1312
14347TIP3    H164532   6.117   1.231  14.718 -0.0311 -1.1609  1.0916
14347TIP3    H264533   6.267   1.226  14.694  0.1195 -1.5931  2.0716
14348TIP3   OH264534   1.030   2.101   9.459 -0.0024  0.0201 -0.0384
14348TIP3    H164535   0.986   2.015   9.463  0.0659 -0.0663 -0.9722
14348TIP3    H264536   0.964   2.159   9.421 -0.2601  0.5328  1.1576
14349TIP3   OH264537   0.369   6.998   0.312 -0.1876 -0.0822  0.7490
14349TIP3    H164538   0.440   7.048   0.352  0.4552  1.1581 -1.7169
14349TIP3    H264539   0.297   7.061   0.303 -0.2032 -0.2249 -0.2609
14350TIP3   OH264540   6.328   6.223  12.634  0.2911  0.1556 -0.2618
14350TIP3    H164541   6.389   6.296  12.639 -0.2647  0.6461 -0.5420
14350TIP3    H264542   6.256   6.248  12.691 -1.1169  1.0125 -2.3051
14351TIP3   OH264543   1.623   0.495   2.231 -0.5445 -0.4857 -0.3603
14351TIP3    H164544   1.659   0.416   2.272 -0.1273 -0.0312  0.1511
14351TIP3    H264545   1.535   0.468   2.202 -1.9972 -0.1677  3.1604
14352TIP3   OH264546   1.541   1.577  13.177  0.3823  0.1466 -0.0649
14352TIP3    H164547   1.621   1.525  13.163  0.1142 -0.1075 -0.6974
14352TIP3    H264548   1.562   1.633  13.251  1.5420  0.8337 -0.8752
14353TIP3   OH264549   5.061   2.982   3.619  0.4921  0.0720 -1.0596
14353TIP3    H164550   5.084   3.047   3.552 -0.7210  0.6227 -0.9728
14353TIP3    H264551   4.980   3.016   3.658  0.3676 -1.0082 -0.3453
14354TIP3   OH264552   7.064   4.254   4.351  0.6814 -0.4932 -0.2295
14354TIP3    H164553   7.073   4.180   4.411  0.9101 -2.2608 -2.3169
14354TIP3    H264554   6.990   4.305   4.386  0.2990 -1.8893  1.0828
14355TIP3   OH264555   1.008   1.013  14.516  0.1933  0.2732  0.0414
14355TIP3    H164556   0.940   0.968  14.465  0.6630  2.0838 -2.3960
14355TIP3    H264557   0.960   1.082  14.563  0.0423  0.0374  0.2348
14356TIP3   OH264558   3.013   2.508   4.775  0.3149 -0.1824 -0.2464
14356TIP3    H164559   3.051   2.487   4.861  2.7602 -0.1444 -1.2388
14356TIP3    H264560   2.956   2.583   4.792  2.1214  0.9913  1.1085
14357TIP3   OH264561   3.669   2.276   4.737  0.2922 -0.0921  0.2308
14357TIP3    H164562   3.626   2.359   4.758  0.6186 -0.0177  0.6162
14357TIP3    H264563   3.607   2.209   4.767  0.4561  0.0147  0.8148
14358TIP3   OH264564   6.878   6.053   4.282 -0.2321  0.6457 -0.4082
14358TIP3    H164565   6.962   6.094   4.259  0.2904 -0.2289 -0.1151
14358TIP3    H264566   6.861   6.080   4.372  0.8841 -0.9633  0.3320
14359TIP3   OH264567   3.372   0.681  14.654 -0.0399 -0.4293  0.2105
14359TIP3    H164568   3.331   0.767  14.656 -0.1336 -0.4633 -0.1284
14359TIP3    H264569   3.464   0.698  14.674 -0.0787 -0.2641  0.2516
14360TIP3   OH264570   5.032   6.109  12.110 -0.3115  0.3936  0.3453
14360TIP3    H164571   4.961   6.168  12.083  0.0218  0.0948 -1.3100
14360TIP3    H264572   4.994   6.055  12.179 -1.3476  0.9841  0.2525
14361TIP3   OH264573   4.966   0.787   3.331 -0.6683  0.2121 -0.5007
14361TIP3    H164574   5.000   0.697   3.327  1.0143  0.8307 -0.8062
14361TIP3    H264575   4.960   0.806   3.424 -1.2984 -0.2981 -0.4283
14362TIP3   OH264576   2.533   2.757   3.740 -0.4709 -0.4418 -0.1492
14362TIP3    H164577   2.618   2.746   3.699 -0.0791  2.1303 -0.1777
14362TIP3    H264578   2.470   2.727   3.675  0.3618 -1.7900 -0.3579
14363TIP3   OH264579   1.242   7.059   2.643 -0.2739  0.0706  0.4413
14363TIP3    H164580   1.222   7.141   2.599 -1.9933 -0.2507  0.5638
14363TIP3    H264581   1.196   7.065   2.727 -2.7636 -2.0866 -0.6436
14364TIP3   OH264582   2.781   2.475   0.980 -0.7131  0.1392  0.2013
14364TIP3    H164583   2.751   2.386   0.996  0.9665 -0.3461  0.7797
14364TIP3    H264584   2.845   2.467   0.909  0.5293  0.6421  1.2229
14365TIP3   OH264585   3.598   1.906   1.454  0.4769 -0.1608  0.1759
14365TIP3    H164586   3.631   1.816   1.456 -0.3279 -0.4865 -0.4989
14365TIP3    H264587   3.620   1.937   1.366  2.0090  0.8095  0.8688
14366TIP3   OH264588   4.990   4.964  14.527  0.2080  0.1213 -0.6904
14366TIP3    H164589   5.045   5.000  14.597 -0.5110 -1.2789  0.6724
14366TIP3    H264590   4.969   4.875  14.557 -3.0901  0.7114 -0.9208
14367TIP3   OH264591   3.124   4.218   2.432  0.6231 -0.4719  0.0497
14367TIP3    H164592   3.046   4.191   2.384  1.2420  1.5025 -2.2648
14367TIP3    H264593   3.191   4.155   2.406  0.4310 -0.6886  0.0708
14368TIP3   OH264594   6.846   3.155   2.544  0.1608 -0.0042 -0.2992
14368TIP3    H164595   6.828   3.235   2.494 -0.9953  0.4837  0.8232
14368TIP3    H264596   6.764   3.105   2.539 -1.2268  1.4763  3.5305
14369TIP3   OH264597   0.840   5.644   5.203  0.0862  0.6294 -0.3070
14369TIP3    H164598   0.930   5.669   5.186  0.1594  0.9428  0.5387
14369TIP3    H264599   0.801   5.720   5.245 -0.4874  0.3764 -0.3726
14370TIP3   OH264600   5.438   7.127   2.076  0.2444 -0.1753  0.1981
14370TIP3    H164601   5.461   7.062   2.009 -1.7819  0.4492 -1.1935
14370TIP3    H264602   5.348   7.105   2.101  0.2311  0.8888  1.1861
14371TIP3   OH264603   5.679   6.430   9.828 -0.1969 -0.3283  0.3782
14371TIP3    H164604   5.584   6.442   9.832 -0.1078  0.1776  1.2483
14371TIP3    H264605   5.699   6.369   9.899  0.3384  1.1042  1.5097
14372TIP3   OH264606   1.819   0.275   4.838  0.1214  0.2054  0.1178
14372TIP3    H164607   1.761   0.275   4.914  0.5856  3.0397  0.5939
14372TIP3    H264608   1.762   0.297   4.765  0.0796 -0.1316  0.0481
14373TIP3   OH264609   3.517   3.199  11.273 -0.0673 -0.1890  0.1067
14373TIP3    H164610   3.525   3.192  11.368  0.0292 -4.7385 -0.0186
14373TIP3    H264611   3.423   3.198  11.256 -0.0813 -1.4864  0.1624
14374TIP3   OH264612   4.851   7.008   2.136  0.6292 -0.2559 -0.0791
14374TIP3    H164613   4.814   7.077   2.190 -0.9667  0.3730 -1.8496
14374TIP3    H264614   4.810   6.928   2.168  0.3813 -0.0117  0.2173
14375TIP3   OH264615   4.531   2.650  13.992 -0.4166  0.8261  0.5005
14375TIP3    H164616   4.592   2.577  14.000 -0.6267  0.6267  0.2678
14375TIP3    H264617   4.558   2.711  14.061  0.7064  1.2232 -0.2607
14376TIP3   OH264618   2.863   4.487   5.195  0.3503  0.1472 -0.5049
14376TIP3    H164619   2.874   4.439   5.113 -2.0945 -0.1391 -0.7520
14376TIP3    H264620   2.894   4.427   5.263  0.6008 -0.3807 -1.0792
14377TIP3   OH264621   5.354   1.350   5.643  0.0822 -0.3446  0.3776
14377TIP3    H164622   5.388   1.372   5.730  2.2686 -0.6881 -0.3217
14377TIP3    H264623   5.433   1.334   5.590 -1.1671  0.1909 -1.7589
14378TIP3   OH264624   0.474   0.734   2.320  0.2292 -0.2506  0.0582
14378TIP3    H164625   0.460   0.803   2.255 -0.0748 -0.0120  0.3770
14378TIP3    H264626   0.478   0.779   2.404  0.2002 -0.6010  0.2535
14379TIP3   OH264627   6.005   3.686   0.514  0.3933 -0.8237  0.1320
14379TIP3    H164628   5.922   3.682   0.563  0.2062  1.5176  0.1086
14379TIP3    H264629   6.065   3.733   0.572  1.5362 -1.8945 -0.1352
14380TIP3   OH264630   2.007   6.201  13.830 -0.0232  0.3518  0.3365
14380TIP3    H164631   1.915   6.212  13.855 -0.5801 -0.5026 -1.1796
14380TIP3    H264632   2.046   6.152  13.901 -0.9781 -0.0669  0.5882
14381TIP3   OH264633   7.206   4.511   2.804 -0.3865 -0.0996 -0.1718
14381TIP3    H164634   7.147   4.574   2.845  1.7333  2.8815 -1.3585
14381TIP3    H264635   7.268   4.487   2.873 -0.8085 -0.3731  0.1126
14382TIP3   OH264636   5.049   3.083   4.758  0.4482 -0.6806  0.4397
14382TIP3    H164637   5.059   3.017   4.690  0.0191 -0.4704  0.1661
14382TIP3    H264638   4.955   3.103   4.759  0.7025  0.6787 -0.2117
14383TIP3   OH264639   1.285   6.725   2.426 -0.0028 -0.0605  0.5569
14383TIP3    H164640   1.263   6.772   2.346  0.0279 -0.6326  0.2112
14383TIP3    H264641   1.375   6.697   2.414  0.4257  0.9061  1.3117
14384TIP3   OH264642   3.429   1.156   5.304 -0.1402 -0.4535  0.0574
14384TIP3    H164643   3.346   1.109   5.309 -1.0055  1.1136  1.0939
14384TIP3    H264644   3.440   1.195   5.391  0.0574  2.0251 -1.0112
14385TIP3   OH264645   6.032   3.390  12.910 -0.0176  0.3562 -0.0489
14385TIP3    H164646   5.945   3.377  12.873  0.9143 -0.7532 -1.9821
14385TIP3    H264647   6.065   3.470  12.867 -0.4938  1.4906  1.5877
14386TIP3   OH264648   5.759   1.306   4.748 -0.0404 -0.6795 -0.4795
14386TIP3    H164649   5.744   1.265   4.663 -0.7087 -2.0907  0.2837
14386TIP3    H264650   5.790   1.235   4.804  1.1211  0.3892  0.2842
14387TIP3   OH264651   6.936   7.198   3.293  0.2503  0.2543 -0.1778
14387TIP3    H164652   7.007   7.252   3.259  2.2334 -2.3098 -0.3611
14387TIP3    H264653   6.978   7.136   3.352 -2.1849  0.0947  1.5280
14388TIP3   OH264654   0.241   1.310   3.924 -0.0888  0.3969  0.5089
14388TIP3    H164655   0.325   1.354   3.939  0.0556  0.0951  0.6038
14388TIP3    H264656   0.257   1.220   3.952 -0.5131  0.3954  0.7442
14389TIP3   OH264657   6.990   1.322   5.746  0.0321  0.5910 -0.1373
14389TIP3    H164658   7.021   1.374   5.821  1.2403  2.7878 -2.0239
14389TIP3    H264659   6.948   1.386   5.689 -0.7484 -1.0069 -1.4093
14390TIP3   OH264660   5.465   2.974   4.251  0.5377  1.4498  0.6634
14390TIP3    H164661   5.448   3.067   4.235  1.3794  1.5195  0.1356
14390TIP3    H264662   5.558   2.970   4.271  0.8338  0.5278 -0.7855
14391TIP3   OH264663   1.682   6.952  13.888 -0.5674  0.1984  0.2622
14391TIP3    H164664   1.629   6.892  13.941  1.0426  0.0883  1.8476
14391TIP3    H264665   1.751   6.981  13.947  0.6359  1.0183 -1.4728
14392TIP3   OH264666   1.879   6.118   0.139  0.1819  0.1076  0.3550
14392TIP3    H164667   1.880   6.199   0.190 -0.3079  0.1998  0.2218
14392TIP3    H264668   1.834   6.142   0.058 -3.2875 -1.1203  1.7115
14393TIP3   OH264669   0.093   6.439   5.476  0.1595 -0.2318  0.2422
14393TIP3    H164670   0.025   6.371   5.476 -0.1094 -0.0242  2.0071
14393TIP3    H264671   0.144   6.422   5.555 -1.0315  2.6104  1.8012
14394TIP3   OH264672   4.350   5.928   3.130 -0.1967 -0.5150  0.2126
14394TIP3    H164673   4.271   5.962   3.174 -0.8969 -1.6478 -0.1390
14394TIP3    H264674   4.326   5.840   3.101  1.0928 -0.7483 -0.2196
14395TIP3   OH264675   5.496   2.810   4.011 -0.4386  0.1226 -0.0743
14395TIP3    H164676   5.462   2.857   4.088  0.0986  1.3170 -0.5358
14395TIP3    H264677   5.421   2.760   3.979 -1.1675  0.9922  0.2189
14396TIP3   OH264678   6.197   1.420   1.158 -0.1462 -0.6081  0.8754
14396TIP3    H164679   6.193   1.330   1.190  1.1913 -1.2471 -0.6353
14396TIP3    H264680   6.229   1.470   1.233  1.1624 -1.7569  1.1286
14397TIP3   OH264681   2.372   6.076   0.732  0.2834 -0.3793  0.6431
14397TIP3    H164682   2.318   6.117   0.800 -0.0140  0.6123 -0.1778
14397TIP3    H264683   2.313   6.069   0.656  0.3599 -2.2242  0.7113
14398TIP3   OH264684   0.881   4.123   1.933 -0.4874 -0.2459 -0.7013
14398TIP3    H164685   0.832   4.201   1.906 -1.9557 -0.4774  1.1048
14398TIP3    H264686   0.946   4.155   1.995 -1.0945 -0.4272  0.0456
14399TIP3   OH264687   4.214   1.330   4.064 -0.0010  0.3975  0.0067
14399TIP3    H164688   4.266   1.391   4.116  1.3439  0.4215 -1.2936
14399TIP3    H264689   4.141   1.306   4.121  0.7634  1.3227  1.4394
14400TIP3   OH264690   0.030   6.857   2.239 -0.0686  0.6529  0.0785
14400TIP3    H164691  -0.009   6.770   2.243  3.7857 -1.2861  0.7733
14400TIP3    H264692  -0.044   6.916   2.227 -2.9700 -2.6121  0.1954
14401TIP3   OH264693   1.919   4.678   2.608  0.0422 -0.1469  0.3712
14401TIP3    H164694   1.906   4.772   2.615 -1.2655 -0.3399  0.7070
14401TIP3    H264695   1.831   4.641   2.605  0.5310 -1.3475 -0.0403
14402TIP3   OH264696   0.073   2.161  13.915  0.3238 -0.5021 -0.1281
14402TIP3    H164697   0.054   2.067  13.922  0.9300 -0.7902 -1.8174
14402TIP3    H264698   0.067   2.179  13.821  2.3766  0.6819 -0.0828
14403TIP3   OH264699   0.178   4.884   4.695  0.7603 -0.0549 -0.1782
14403TIP3    H164700   0.265   4.912   4.723  1.1800  0.7327 -2.1261
14403TIP3    H264701   0.119   4.917   4.764  1.6947  2.0573 -0.2992
14404TIP3   OH264702   1.313   4.034   3.230  0.3673  0.3570 -0.2874
14404TIP3    H164703   1.367   4.055   3.306 -0.3232 -1.1622  0.6633
14404TIP3    H264704   1.274   4.118   3.204 -0.0294  0.7879  1.5557
14405TIP3   OH264705   7.147   5.539   4.463  0.1040  0.0634  0.1772
14405TIP3    H164706   7.181   5.597   4.395 -1.0978  0.3754 -0.1834
14405TIP3    H264707   7.070   5.497   4.424 -0.4496  0.0343  1.2321
14406TIP3   OH264708   5.252   6.131   0.751  0.4108 -0.5919  0.8667
14406TIP3    H164709   5.241   6.058   0.691  1.3606 -0.4511  0.5121
14406TIP3    H264710   5.273   6.091   0.835 -0.3637 -0.7672  0.9830
14407TIP3   OH264711   4.943   6.464   3.693 -0.2286 -0.0969 -0.1508
14407TIP3    H164712   4.884   6.421   3.755  0.8032 -0.7843  0.3832
14407TIP3    H264713   4.886   6.494   3.622 -1.4658  0.8697  1.1908
14408TIP3   OH264714   4.490   6.363   5.247 -0.3583 -0.1950  0.2252
14408TIP3    H164715   4.511   6.315   5.327  1.3556  0.3168  0.1204
14408TIP3    H264716   4.444   6.441   5.277  0.7570  0.2721  0.7956
14409TIP3   OH264717   5.289   1.988   3.265 -0.0866 -0.0635  0.2572
14409TIP3    H164718   5.279   2.047   3.190  1.1360  0.9779  0.8901
14409TIP3    H264719   5.249   2.035   3.338 -2.2829 -1.5321  0.1134
14410TIP3   OH264720   3.486   3.444   4.938 -0.0049  0.0966  0.8752
14410TIP3    H164721   3.399   3.485   4.942 -0.1187  0.3003 -1.8940
14410TIP3    H264722   3.547   3.517   4.945 -0.0476  0.0701  1.6784
14411TIP3   OH264723   0.965   4.154   4.507  0.0977  0.0085  0.2243
14411TIP3    H164724   0.999   4.085   4.451  0.1381 -0.2989  0.6229
14411TIP3    H264725   1.016   4.148   4.587  0.2962  0.6899  0.1551
14412TIP3   OH264726   0.724   6.044   3.053  0.0062  0.0130  0.3247
14412TIP3    H164727   0.683   6.112   2.999 -2.8806 -1.4963  0.4000
14412TIP3    H264728   0.734   5.970   2.993  0.0884 -0.5249  0.9998
14413TIP3   OH264729   3.761   6.576  15.214 -0.2989  0.0460 -0.0434
14413TIP3    H164730   3.828   6.542  15.154  0.7188  1.7876  0.0021
14413TIP3    H264731   3.812   6.620  15.283 -1.4482  2.4840 -0.6513
14414TIP3   OH264732   5.298   5.399   1.310 -0.7723  0.0602  0.5344
14414TIP3    H164733   5.289   5.307   1.335  0.5973 -0.1051  0.5121
14414TIP3    H264734   5.247   5.447   1.375  1.7647 -0.4300  3.0715
14415TIP3   OH264735   2.076   5.160  11.786  0.3399  0.1938 -0.1329
14415TIP3    H164736   2.076   5.096  11.858  0.5128  1.9794  1.5410
14415TIP3    H264737   1.992   5.145  11.742  0.3746 -1.1695  0.1962
14416TIP3   OH264738   6.974   2.114  14.988  0.0836 -0.1668  0.2407
14416TIP3    H164739   6.991   2.150  14.900  1.3566 -0.7812  0.2065
14416TIP3    H264740   6.897   2.162  15.019  1.0325  1.8021 -0.2405
14417TIP3   OH264741   0.120   1.260   4.813 -0.5394 -0.0900  0.2374
14417TIP3    H164742   0.077   1.339   4.780 -0.3553 -0.3175 -0.5705
14417TIP3    H264743   0.111   1.266   4.908  0.5563  1.5375  0.2886
14418TIP3   OH264744   0.475   0.405   4.501  0.2234 -0.2119 -0.8366
14418TIP3    H164745   0.526   0.325   4.492 -0.5239 -0.6698 -1.0547
14418TIP3    H264746   0.507   0.462   4.431  0.9927 -0.1854 -0.4708
14419TIP3   OH264747   0.429   4.071   1.330  0.2294  0.0995 -0.0694
14419TIP3    H164748   0.374   4.011   1.382  0.4172 -1.5317 -1.6631
14419TIP3    H264749   0.386   4.074   1.244  1.5937  0.3152 -0.7595
14420TIP3   OH264750   4.011   6.652   1.721 -0.0448 -0.2056 -0.6265
14420TIP3    H164751   4.056   6.596   1.658  0.4700 -2.1745  1.3809
14420TIP3    H264752   4.066   6.730   1.727  1.4007 -1.1890 -0.5890
14421TIP3   OH264753   5.453   6.012   5.174 -0.4243  0.4826  0.1734
14421TIP3    H164754   5.437   6.070   5.248  1.0155  0.9841  0.1320
14421TIP3    H264755   5.535   6.045   5.135 -1.1197  0.2084 -1.6188
14422TIP3   OH264756   4.521   4.170   1.442 -0.1168  0.3285 -0.1532
14422TIP3    H164757   4.569   4.131   1.515  2.1431  0.3179 -1.5563
14422TIP3    H264758   4.545   4.262   1.445 -2.2273  0.9146  0.7074
14423TIP3   OH264759   4.978   4.781  13.738  0.3418  0.2814  0.3301
14423TIP3    H164760   5.027   4.732  13.804  1.5549  2.9476  1.5497
14423TIP3    H264761   4.994   4.735  13.656  0.1572 -2.1760  1.5921
14424TIP3   OH264762   2.600   2.136   3.135 -0.3012 -0.0555  0.0770
14424TIP3    H164763   2.648   2.191   3.196  0.9528 -0.1182 -0.8006
14424TIP3    H264764   2.512   2.131   3.171  0.6277 -0.9407  2.4429
14425TIP3   OH264765   4.406   0.470  13.477 -0.1467  0.1848  0.0916
14425TIP3    H164766   4.420   0.395  13.420  1.9533  0.9505 -0.4998
14425TIP3    H264767   4.473   0.461  13.545  0.4495  1.7462 -0.2584
14426TIP3   OH264768   0.870   3.713   5.143 -0.2627 -0.5988  0.0450
14426TIP3    H164769   0.912   3.668   5.069 -0.8049 -2.4626  0.8017
14426TIP3    H264770   0.857   3.644   5.208 -2.3155  0.4288  0.7949
14427TIP3   OH264771   1.943   0.714  12.995  0.7579 -0.6577  0.6153
14427TIP3    H164772   1.912   0.671  13.074 -0.8103  0.0429  0.4121
14427TIP3    H264773   1.892   0.675  12.924 -1.6219  2.2199  0.5376
14428TIP3   OH264774   3.230   0.462  12.282  0.0445 -0.4639 -0.4105
14428TIP3    H164775   3.161   0.440  12.345  1.7043 -0.1273  1.6512
14428TIP3    H264776   3.209   0.551  12.254 -1.6726 -1.2425 -1.7272
14429TIP3   OH264777   4.960   3.583   3.339 -0.3392  0.2869 -0.0777
14429TIP3    H164778   5.015   3.536   3.401  2.1842  1.9548 -0.8857
14429TIP3    H264779   4.910   3.515   3.294  0.9708 -1.3340  0.8029
14430TIP3   OH264780   5.667   6.821   4.556  0.2099  0.0738 -0.5165
14430TIP3    H164781   5.680   6.760   4.628 -0.5795  0.1133 -0.3328
14430TIP3    H264782   5.576   6.851   4.566  0.8913  2.1126  0.0505
14431TIP3   OH264783   7.045   2.126   2.051  0.2649 -0.4615 -0.5027
14431TIP3    H164784   7.073   2.035   2.063  0.1243 -0.4688 -0.2020
14431TIP3    H264785   7.125   2.174   2.031  0.3556 -0.6353 -0.5557
14432TIP3   OH264786   5.565   1.814  14.324  0.1434 -0.0313 -0.0779
14432TIP3    H164787   5.605   1.800  14.238  0.5657  1.2868 -0.1074
14432TIP3    H264788   5.565   1.727  14.364  1.0638 -0.4409 -0.9269
14433TIP3   OH264789   4.626   2.224   3.358 -0.1176  0.6215  0.2674
14433TIP3    H164790   4.710   2.261   3.386 -0.2715  0.3651  1.0976
14433TIP3    H264791   4.594   2.284   3.291 -0.2383  1.8660  1.3929
14434TIP3   OH264792   5.439   4.677  13.279 -0.0078  0.0078 -0.7493
14434TIP3    H164793   5.507   4.697  13.214 -1.1287  1.6056 -1.4737
14434TIP3    H264794   5.396   4.598  13.245  0.2947  0.0450 -1.2305
14435TIP3   OH264795   5.891   3.827   0.041  0.1658  0.1573 -0.0275
14435TIP3    H164796   5.820   3.867  -0.010  0.9630  1.4006 -0.2259
14435TIP3    H264797   5.969   3.875   0.013  1.2317 -1.7155 -0.3964
14436TIP3   OH264798   1.482   2.725   4.981 -0.6933  0.1505  0.0175
14436TIP3    H164799   1.474   2.819   4.999 -0.2439  0.5217 -1.5666
14436TIP3    H264800   1.567   2.716   4.938 -0.5155 -1.0748  0.5874
14437TIP3   OH264801   5.104   2.351   3.624 -0.2035  0.3924 -0.6735
14437TIP3    H164802   5.100   2.443   3.598 -1.3890  0.0647 -1.7263
14437TIP3    H264803   5.141   2.352   3.713 -2.3913  2.0671  0.2879
14438TIP3   OH264804   6.009   0.403   0.113  0.2233 -0.3982  0.0512
14438TIP3    H164805   6.045   0.424   0.199  1.4628 -2.6949  0.1663
14438TIP3    H264806   6.073   0.344   0.073  0.4966  1.7692 -3.1590
14439TIP3   OH264807   4.199   2.983   0.327 -0.0236 -0.5219 -0.0913
14439TIP3    H164808   4.263   3.016   0.264  0.0396  0.9227  0.6797
14439TIP3    H264809   4.242   2.910   0.370  1.2047  0.5264  0.5301
14440TIP3   OH264810   2.037   4.091  12.595  0.0014  0.2610  0.4204
14440TIP3    H164811   2.015   4.016  12.650  0.4268  1.1072  1.8113
14440TIP3    H264812   2.128   4.076  12.569  1.0623  1.5375  2.9908
14441TIP3   OH264813   2.344   1.470   4.324 -0.1783 -0.5440 -0.0666
14441TIP3    H164814   2.256   1.441   4.350 -0.8903 -1.0197 -2.7368
14441TIP3    H264815   2.403   1.423   4.382 -1.6363 -1.1811  0.9600
14442TIP3   OH264816   6.138   5.891   2.145  0.1448 -0.3115 -0.2136
14442TIP3    H164817   6.052   5.897   2.187  0.0740 -1.3530 -0.1816
14442TIP3    H264818   6.140   5.966   2.085  0.7392  1.9845  2.4468
14443TIP3   OH264819   4.157   6.178   1.656 -0.1587  0.7199 -0.4757
14443TIP3    H164820   4.166   6.110   1.722  0.6072  0.2116 -1.0900
14443TIP3    H264821   4.069   6.165   1.620  0.4813 -0.8967 -1.5883
14444TIP3   OH264822   2.592   1.900   0.715 -0.1991  0.0065  0.3858
14444TIP3    H164823   2.535   1.823   0.714  0.3007 -0.4096  1.7049
14444TIP3    H264824   2.600   1.925   0.623 -0.1697 -1.6675 -0.0962
14445TIP3   OH264825   0.426   2.727   3.767  0.4207  0.1244 -0.1375
14445TIP3    H164826   0.388   2.639   3.757 -0.0727  0.1951  1.0267
14445TIP3    H264827   0.350   2.784   3.776  0.7580  0.5932 -0.2717
14446TIP3   OH264828   3.477   3.275  12.704 -0.5136  0.4322 -0.3333
14446TIP3    H164829   3.396   3.237  12.737 -0.3101  1.1943  1.1227
14446TIP3    H264830   3.449   3.351  12.653 -0.8083 -0.5363 -1.6779
14447TIP3   OH264831   0.935   2.136   4.516  0.1396 -0.3774 -0.1460
14447TIP3    H164832   0.970   2.064   4.464  1.1148  0.2052 -0.3139
14447TIP3    H264833   0.845   2.110   4.535  0.2303 -1.2726 -0.8736
14448TIP3   OH264834   0.338   1.519   4.249  0.7799  0.1968  0.1346
14448TIP3    H164835   0.361   1.562   4.167 -0.9883 -0.2907 -0.6656
14448TIP3    H264836   0.292   1.586   4.300 -1.2499 -0.4122 -0.7782
14449TIP3   OH264837   0.762   1.150   5.000 -0.3456 -0.6252 -0.6632
14449TIP3    H164838   0.669   1.137   4.981  0.0280 -2.2231 -1.5414
14449TIP3    H264839   0.805   1.149   4.915  0.6374 -1.4191 -0.1840
14450TIP3   OH264840   5.267   5.241  15.373  0.4737 -0.1513 -0.0563
14450TIP3    H164841   5.274   5.256  15.468 -0.9098 -0.6520  0.1508
14450TIP3    H264842   5.356   5.255  15.340  0.4344  3.1112  0.8425
14451TIP3   OH264843   6.425   6.360   3.484 -0.4274  0.2217  0.1460
14451TIP3    H164844   6.520   6.370   3.488 -0.4320  0.6167 -0.6196
14451TIP3    H264845   6.390   6.449   3.483 -0.6505  0.1969 -2.4370
14452TIP3   OH264846   1.637   6.971   1.611 -0.0990 -0.2107 -0.1601
14452TIP3    H164847   1.730   6.978   1.634 -0.1608  0.3546 -0.0849
14452TIP3    H264848   1.602   7.059   1.625  0.1209  0.5903 -3.6584
14453TIP3   OH264849   4.967   4.398  15.282 -0.0483  0.0949 -0.0150
14453TIP3    H164850   4.960   4.307  15.309  0.5242 -0.1921 -0.7861
14453TIP3    H264851   4.965   4.395  15.186 -3.1534  1.1650 -0.0692
14454TIP3   OH264852   1.861   6.513   2.959  0.1520 -0.3139  0.0246
14454TIP3    H164853   1.811   6.559   2.891 -2.2833 -0.3101  1.6617
14454TIP3    H264854   1.908   6.444   2.912  0.8633  1.4371 -1.9921
14455TIP3   OH264855   2.458   3.364   3.187  0.1880  0.0034 -0.2652
14455TIP3    H164856   2.468   3.459   3.182  0.2881 -0.0620 -1.4849
14455TIP3    H264857   2.496   3.340   3.272 -3.3312  1.4837  1.9328
14456TIP3   OH264858   0.093   3.408  13.951  0.4880  0.1628  0.9743
14456TIP3    H164859   0.021   3.388  14.011  0.2560 -0.0062  0.6399
14456TIP3    H264860   0.062   3.484  13.902 -0.6824 -1.5759 -1.1681
14457TIP3   OH264861   5.033   4.013   2.044  0.4763 -0.2287  0.4383
14457TIP3    H164862   5.126   4.032   2.042  0.6750 -1.1586 -1.0877
14457TIP3    H264863   5.001   4.042   1.958 -0.3366 -1.2441  0.3757
14458TIP3   OH264864   1.869   1.607  14.983 -0.1589  0.1047  0.3905
14458TIP3    H164865   1.833   1.599  14.895  0.1578  2.8943 -0.0739
14458TIP3    H264866   1.958   1.639  14.970  1.0110 -2.2944  1.6930
14459TIP3   OH264867   1.264   5.057   4.722 -0.1282  0.5010 -0.4664
14459TIP3    H164868   1.359   5.051   4.709 -0.2949  1.6699 -2.6306
14459TIP3    H264869   1.254   5.109   4.801  1.0254  0.6116 -0.3716
14460TIP3   OH264870   5.644   2.346   2.772 -0.2614  0.8930 -0.5837
14460TIP3    H164871   5.712   2.326   2.708 -0.2693  1.5984 -0.8250
14460TIP3    H264872   5.684   2.326   2.856 -0.4680 -0.6572 -0.8246
14461TIP3   OH264873   2.191   6.511   4.319 -0.1090  0.4422 -0.0908
14461TIP3    H164874   2.272   6.560   4.332  1.3835 -1.9467  0.0944
14461TIP3    H264875   2.179   6.511   4.224  0.1219  0.7698 -0.1221
14462TIP3   OH264876   2.170   1.635   4.578  0.0671  0.5521  0.1023
14462TIP3    H164877   2.089   1.665   4.536 -0.4501  0.4564  1.0056
14462TIP3    H264878   2.160   1.660   4.670  0.7362 -0.1410  0.3730
14463TIP3   OH264879   3.379   5.433   2.396 -0.0008 -0.2494  0.5786
14463TIP3    H164880   3.386   5.361   2.333  1.9480  0.8890 -0.6298
14463TIP3    H264881   3.287   5.460   2.391  0.2413  0.5051 -2.7193
14464TIP3   OH264882   3.005   6.420   0.058  0.1447  1.0612 -0.9838
14464TIP3    H164883   3.066   6.347   0.065 -0.6403  0.1463 -2.8682
14464TIP3    H264884   2.951   6.415   0.136 -0.1803 -0.6800 -1.2811
14465TIP3   OH264885   4.569   4.133  14.864 -0.2872  0.1992 -0.2446
14465TIP3    H164886   4.590   4.226  14.853  2.4800 -0.2900  0.0730
14465TIP3    H264887   4.620   4.106  14.940 -2.2725 -1.2742  0.6470
14466TIP3   OH264888   0.279   0.599   1.293  0.5060  0.0130  0.0350
14466TIP3    H164889   0.274   0.623   1.201  0.5090  0.5422  0.1704
14466TIP3    H264890   0.373   0.584   1.308  0.2568 -3.0085 -0.7655
14467TIP3   OH264891   1.063   0.436   0.401  0.3142 -0.4315 -0.1404
14467TIP3    H164892   1.019   0.495   0.340 -0.2656 -0.9277 -0.2167
14467TIP3    H264893   1.153   0.468   0.405 -0.1584  0.9358  0.4171
14468TIP3   OH264894   1.887   1.906   4.305 -0.0349 -0.0321  0.1159
14468TIP3    H164895   1.965   1.884   4.356 -0.2762  1.8844  1.4512
14468TIP3    H264896   1.885   2.002   4.305 -2.1981 -0.0296 -0.1786
14469TIP3   OH264897   2.009   4.876   3.894  0.3232  0.1674  0.2169
14469TIP3    H164898   1.920   4.902   3.869  0.7338 -0.5160 -2.1617
14469TIP3    H264899   2.065   4.910   3.824  2.1627  1.7297  2.3143
14470TIP3   OH264900   3.479   1.574   3.605 -0.5418 -0.1482  0.6647
14470TIP3    H164901   3.384   1.581   3.611 -0.5989  0.5551 -0.5174
14470TIP3    H264902   3.495   1.490   3.562 -0.7822  0.6998 -1.2054
14471TIP3   OH264903   3.502   0.097   1.302 -0.4292  0.5345  0.7831
14471TIP3    H164904   3.589   0.137   1.296  0.0018 -0.5893 -1.6520
14471TIP3    H264905   3.514   0.022   1.360  0.6675 -0.5194 -0.7263
14472TIP3   OH264906   6.934   3.607   5.511 -0.2415 -0.0651 -0.3287
14472TIP3    H164907   6.964   3.655   5.588 -0.7584  1.1986 -0.8891
14472TIP3    H264908   6.929   3.516   5.540  1.4593  0.0747  0.5553
14473TIP3   OH264909   0.794   4.865   2.002 -0.0064 -0.2491 -0.5719
14473TIP3    H164910   0.819   4.873   1.910  0.3383 -1.4930 -0.6120
14473TIP3    H264911   0.705   4.899   2.005 -0.1426 -0.4822 -1.4376
14474TIP3   OH264912   6.703   3.650   1.791 -0.3480  0.2429  0.2463
14474TIP3    H164913   6.782   3.699   1.815 -0.3168  0.4583 -0.2825
14474TIP3    H264914   6.715   3.629   1.699  0.1912 -1.8147  0.7502
14475TIP3   OH264915   3.323   6.779   3.944  0.1671  0.0587 -0.3093
14475TIP3    H164916   3.229   6.774   3.962  0.1821 -2.9791 -0.5796
14475TIP3    H264917   3.328   6.789   3.849  0.0814 -0.9049 -0.4260
14476TIP3   OH264918   5.732   1.860   0.496 -0.3611 -0.2881  0.3456
14476TIP3    H164919   5.741   1.954   0.503  1.8915 -0.2635 -1.6309
14476TIP3    H264920   5.667   1.848   0.426 -0.0565 -0.1662  0.0368
14477TIP3   OH264921   1.950   5.448   1.122 -0.4709 -0.0509  0.1023
14477TIP3    H164922   1.939   5.523   1.181 -1.3666  0.1362 -0.2796
14477TIP3    H264923   1.951   5.372   1.180 -0.1824  0.2107  0.4460
14478TIP3   OH264924   6.926   5.218   4.616  0.2804  0.3202 -0.6276
14478TIP3    H164925   6.893   5.278   4.683  1.0500 -1.1384  1.1670
14478TIP3    H264926   7.021   5.225   4.623  0.3712  0.2378 -1.6833
14479TIP3   OH264927   2.475   3.648   4.039  0.2773 -0.1508 -0.0285
14479TIP3    H164928   2.460   3.585   3.968 -1.8851  2.2807 -1.9537
14479TIP3    H264929   2.388   3.684   4.057  1.2144  1.2519  1.9872
14480TIP3   OH264930   0.090   4.447   2.319 -0.1797  0.1787  0.0803
14480TIP3    H164931   0.151   4.480   2.385 -0.0093  1.4967 -0.6957
14480TIP3    H264932   0.039   4.524   2.293 -1.2250 -0.6100 -0.2915
14481TIP3   OH264933   6.548   0.389  13.228  0.1408 -0.2116 -0.2134
14481TIP3    H164934   6.583   0.400  13.140  1.1814 -0.0016  0.2170
14481TIP3    H264935   6.602   0.322  13.268  1.2233  1.3242  1.0423
14482TIP3   OH264936   5.700   6.064   0.036  0.7142  0.2534  0.1459
14482TIP3    H164937   5.772   6.089  -0.022  0.3764  1.6476  0.2744
14482TIP3    H264938   5.695   6.136   0.099 -1.4002  0.7018 -0.4475
14483TIP3   OH264939   5.280   7.068   1.718  0.3009 -0.4434 -0.1786
14483TIP3    H164940   5.236   7.056   1.634 -0.2100 -0.7001  0.1211
14483TIP3    H264941   5.252   7.154   1.749  0.6622 -0.2548 -0.3719
14484TIP3   OH264942   4.677   2.436   2.531  0.1907  0.0961 -0.4166
14484TIP3    H164943   4.746   2.374   2.508 -0.9726 -1.8091  0.9320
14484TIP3    H264944   4.715   2.491   2.600  0.4602 -0.7672  0.1302
14485TIP3   OH264945   2.566   6.386   2.594  0.2336 -0.4561  0.0651
14485TIP3    H164946   2.580   6.351   2.681  0.1653  1.0467  0.7191
14485TIP3    H264947   2.517   6.467   2.608 -1.0264 -0.8846 -1.4762
14486TIP3   OH264948   6.823   4.851  13.721  0.1099  0.5950 -0.3710
14486TIP3    H164949   6.734   4.882  13.736  0.6942  2.2105 -0.0587
14486TIP3    H264950   6.814   4.784  13.653 -1.2000  1.6526 -1.2971
14487TIP3   OH264951   5.272   4.119  15.142  0.3295 -0.3283  0.0953
14487TIP3    H164952   5.248   4.201  15.099  0.7002  0.9068  2.0862
14487TIP3    H264953   5.326   4.147  15.217  3.2631 -2.5968 -0.9925
14488TIP3   OH264954   6.276   5.666   4.912 -0.2658  0.5235  0.2731
14488TIP3    H164955   6.314   5.679   4.999  0.3068  0.0422  0.0990
14488TIP3    H264956   6.332   5.600   4.871 -0.4000  0.9174 -0.5493
14489TIP3   OH264957   7.211   6.248  15.009 -0.4594 -0.7667  0.1925
14489TIP3    H164958   7.177   6.338  15.017 -1.3613 -0.9657 -1.1210
14489TIP3    H264959   7.163   6.198  15.075 -1.3951 -0.6732 -0.4100
14490TIP3   OH264960   0.159   3.523  15.195 -0.2476 -0.1978 -0.0799
14490TIP3    H164961   0.137   3.603  15.146 -0.1765 -0.2225 -0.1534
14490TIP3    H264962   0.097   3.457  15.162  0.8712 -0.6597 -1.3706
14491TIP3   OH264963   3.969   1.821   2.553  0.0852 -0.0192 -0.1352
14491TIP3    H164964   3.910   1.869   2.611  0.9345  0.8079  0.0724
14491TIP3    H264965   3.912   1.780   2.489 -0.7297  0.6204  0.1653
14492TIP3   OH264966   2.208   1.539   1.819  0.1644 -0.4368  0.7853
14492TIP3    H164967   2.192   1.485   1.742  0.4457 -0.4936  0.7646
14492TIP3    H264968   2.136   1.602   1.820 -0.6949 -1.4013  1.3376
14493TIP3   OH264969   6.666   6.354  14.581 -0.1439 -0.4587 -0.3909
14493TIP3    H164970   6.601   6.318  14.642  0.2835 -0.7740 -0.1204
14493TIP3    H264971   6.616   6.372  14.502 -1.3689  2.6509  0.9250
14494TIP3   OH264972   5.113   6.089   3.023 -0.6071  0.0039 -0.2533
14494TIP3    H164973   5.132   6.084   2.929 -0.2891 -0.4317 -0.1703
14494TIP3    H264974   5.063   6.170   3.033 -1.3769 -0.3789 -0.9207
14495TIP3   OH264975   6.847   0.898   4.153 -0.2461 -0.2703 -0.3129
14495TIP3    H164976   6.849   0.938   4.240 -1.6496 -0.6927 -0.0633
14495TIP3    H264977   6.875   0.808   4.167  1.3808  0.1548 -0.6273
14496TIP3   OH264978   2.491   6.362  12.925  0.0514 -0.0753  0.7060
14496TIP3    H164979   2.451   6.312  12.854 -2.1637  1.1518  0.9971
14496TIP3    H264980   2.583   6.373  12.898 -0.2315 -1.3623 -0.9471
14497TIP3   OH264981   3.025   6.884   2.492 -0.4449  0.0032  0.1198
14497TIP3    H164982   3.025   6.800   2.538 -0.6118  0.9136  1.8757
14497TIP3    H264983   2.954   6.934   2.533 -0.9873  0.6677 -1.5529
14498TIP3   OH264984   3.571   1.725   0.568  0.3235 -0.7212 -0.1226
14498TIP3    H164985   3.511   1.651   0.561 -0.3821 -0.0458 -1.7762
14498TIP3    H264986   3.513   1.801   0.575  1.0328 -0.3247  2.0586
14499TIP3   OH264987   1.725   1.823   4.972  0.2293 -0.2982 -0.1749
14499TIP3    H164988   1.670   1.761   5.020  0.0622 -0.2967 -0.3651
14499TIP3    H264989   1.737   1.784   4.886 -1.3416  0.7446 -0.9201
14500TIP3   OH264990   4.482   0.027   2.620  0.2950  0.1627  0.7745
14500TIP3    H164991   4.509   0.093   2.685  0.6432 -1.0991  1.9518
14500TIP3    H264992   4.564  -0.013   2.591 -0.0026 -0.6811  1.0819
14501TIP3   OH264993   6.979   7.164   1.758 -0.2421  0.2956  0.3499
14501TIP3    H164994   6.968   7.072   1.738  0.2206  0.0532  1.1638
14501TIP3    H264995   7.007   7.204   1.676  2.1614 -0.7536  0.6054
14502TIP3   OH264996   3.279   4.380   4.976 -0.2762 -0.1339 -0.0482
14502TIP3    H164997   3.229   4.459   4.956 -1.8365 -0.6854  1.4174
14502TIP3    H264998   3.337   4.407   5.047 -0.5186 -0.1979  0.1754
14503TIP3   OH264999   6.961   1.277   4.742  0.4702 -0.0072  0.0308
14503TIP3    H165000   6.927   1.187   4.737 -2.7425  1.0001  1.1731
14503TIP3    H265001   7.043   1.269   4.791 -0.4099 -2.1947  1.3179
14504TIP3   OH265002   0.470   6.023   4.237  0.4490 -0.0356 -0.1898
14504TIP3    H165003   0.476   5.983   4.151  0.3938 -0.7239  0.1221
14504TIP3    H265004   0.542   6.086   4.240  0.1246  0.3728 -0.9329
14505TIP3   OH265005   0.830   1.890   1.969 -0.3628  0.0175  0.0061
14505TIP3    H165006   0.913   1.904   1.924 -1.0954  1.7405 -0.9107
14505TIP3    H265007   0.845   1.812   2.024  1.9918  0.5691  0.2575
14506TIP3   OH265008   5.401   3.794  13.118 -0.2187 -0.5460 -0.4294
14506TIP3    H165009   5.332   3.845  13.075 -0.9070  0.1077  1.3588
14506TIP3    H265010   5.354   3.725  13.165  0.5532 -1.5149 -1.0278
14507TIP3   OH265011   4.437   1.212   4.919 -0.5196 -0.2107 -0.0317
14507TIP3    H165012   4.502   1.149   4.886 -1.2695  0.4568 -3.1456
14507TIP3    H265013   4.476   1.298   4.901 -1.5777  0.1971 -0.4700
14508TIP3   OH265014   6.614   5.320   2.416  0.4744  0.1987  0.0122
14508TIP3    H165015   6.657   5.390   2.465 -0.2718  1.4884 -1.0957
14508TIP3    H265016   6.554   5.366   2.357 -0.4847 -1.4192 -0.3298
14509TIP3   OH265017   7.103   5.194   1.212 -0.6474  0.0736 -0.0389
14509TIP3    H165018   7.090   5.136   1.137  0.5990  1.3534 -1.3231
14509TIP3    H265019   7.016   5.211   1.246 -1.1044 -1.8328 -0.1587
14510TIP3   OH265020   2.776   5.340   3.791  0.1971  0.1319 -0.1949
14510TIP3    H165021   2.825   5.260   3.811 -2.2002 -1.6085 -0.8042
14510TIP3    H265022   2.718   5.315   3.719 -0.6339  2.4469 -0.4027
14511TIP3   OH265023   2.165   4.248   2.118 -0.2963  0.0536 -0.0995
14511TIP3    H165024   2.238   4.216   2.066 -0.7912 -1.4054  0.0651
14511TIP3    H265025   2.193   4.238   2.209  0.0171  1.2868 -0.0335
14512TIP3   OH265026   6.492   6.582  10.203  0.4499  0.3782 -0.2291
14512TIP3    H165027   6.537   6.602  10.120 -0.9766 -1.4433 -1.5354
14512TIP3    H265028   6.551   6.522  10.248  0.2405 -0.4824 -1.0504
14513TIP3   OH265029   2.389   2.022   1.100 -0.0800  0.0475 -0.1651
14513TIP3    H165030   2.440   2.015   1.180 -0.9855 -0.7803  0.3656
14513TIP3    H265031   2.426   1.956   1.042  0.5281  0.5974 -0.4168
14514TIP3   OH265032   0.890   0.175   4.988  1.0401 -0.0527  0.0157
14514TIP3    H165033   0.927   0.222   4.913  2.2591  0.4662  0.9053
14514TIP3    H265034   0.806   0.217   5.003  1.2966  0.6164 -0.3553
14515TIP3   OH265035   1.692   5.954   3.917 -0.1150 -0.3111  0.1912
14515TIP3    H165036   1.653   5.986   3.999 -1.3125 -1.1346 -0.0317
14515TIP3    H265037   1.753   6.023   3.891 -0.1023  0.2054  1.5008
14516TIP3   OH265038   7.001   6.869   2.821 -0.2878 -0.1598 -0.5530
14516TIP3    H165039   7.003   6.775   2.802  0.1336 -0.3235  0.2606
14516TIP3    H265040   7.062   6.881   2.894  1.6292  1.1341 -2.2517
14517TIP3   OH265041   2.810   3.548   4.069 -0.2512  0.2114  0.7052
14517TIP3    H165042   2.752   3.566   4.144 -2.2993  0.4523 -0.8659
14517TIP3    H265043   2.825   3.634   4.029 -0.0339 -0.0526  0.2127
14518TIP3   OH265044   5.149   4.029   5.060  0.7347  0.3223 -0.6210
14518TIP3    H165045   5.138   3.963   5.128  0.3447  1.6422  0.6362
14518TIP3    H265046   5.217   3.993   5.003  1.6298 -0.4887  0.8927
14519TIP3   OH265047   1.135   3.581   2.029 -0.3620 -0.1190 -0.5722
14519TIP3    H165048   1.178   3.623   2.104  0.8878 -0.7968 -0.8777
14519TIP3    H265049   1.077   3.649   1.994 -0.1508  0.5658  0.3504
14520TIP3   OH265050   4.999   2.695   3.152 -0.0565  0.1673 -0.8055
14520TIP3    H165051   4.921   2.735   3.113 -1.2716 -0.4366  0.8547
14520TIP3    H265052   5.021   2.752   3.226  0.8893  0.1572 -1.0689
14521TIP3   OH265053   3.632   3.890   3.683  0.1088 -0.1292 -0.3785
14521TIP3    H165054   3.567   3.945   3.726  0.0464 -0.1892 -0.3951
14521TIP3    H265055   3.711   3.899   3.736 -0.3060 -1.1389  0.4378
14522TIP3   OH265056   5.766   6.836   5.824 -0.3544 -0.2889  0.4040
14522TIP3    H165057   5.840   6.779   5.842 -0.3706 -0.5617 -0.3578
14522TIP3    H265058   5.702   6.814   5.891  0.0844 -0.3446  0.8139
14523TIP3   OH265059   6.650   5.170   5.071  0.2594 -0.1106 -0.4579
14523TIP3    H165060   6.693   5.174   5.156 -2.1179 -3.1548  1.0867
14523TIP3    H265061   6.575   5.230   5.079 -0.1966 -0.7036 -0.2290
14524TIP3   OH265062   6.099   3.467   3.061  0.2092 -0.3358 -0.1659
14524TIP3    H165063   6.064   3.481   2.973  1.3028 -0.5588 -0.6509
14524TIP3    H265064   6.064   3.381   3.087 -0.7735  0.0912 -0.0399
14525TIP3   OH265065   6.961   5.336   3.305 -0.1217 -0.2199  0.3980
14525TIP3    H165066   6.880   5.348   3.355  0.5246  0.7469  1.2506
14525TIP3    H265067   6.973   5.419   3.259  0.6488 -0.1580  0.6972
14526TIP3   OH265068   3.491   4.773   5.420 -0.2176  0.3048  0.0092
14526TIP3    H165069   3.538   4.694   5.445 -1.5819 -0.7278 -0.5178
14526TIP3    H265070   3.426   4.786   5.489  0.5034  1.4338  0.4951
14527TIP3   OH265071   2.961   3.102   2.278  0.5363  0.2647  1.0007
14527TIP3    H165072   2.943   3.089   2.185 -2.7003 -1.9839  1.7530
14527TIP3    H265073   3.028   3.037   2.299  0.1895 -0.2575  0.5089
14528TIP3   OH265074   6.641   7.076  14.309  0.0414 -0.3264  0.0094
14528TIP3    H165075   6.652   7.003  14.370  1.5632  0.5988  0.9255
14528TIP3    H265076   6.586   7.138  14.356  1.3879  0.4804  0.5684
14529TIP3   OH265077   1.191   1.761   3.089  0.1403  0.2685 -0.2602
14529TIP3    H165078   1.124   1.816   3.129  0.9011  0.4035  0.8744
14529TIP3    H265079   1.224   1.707   3.161  0.7423 -0.3102 -0.9524
14530TIP3   OH265080   2.359   0.461   2.225  0.1701  0.1013 -0.2890
14530TIP3    H165081   2.394   0.517   2.156  0.4712 -0.5081 -0.6347
14530TIP3    H265082   2.301   0.519   2.275 -0.2734  0.4932 -1.2150
14531TIP3   OH265083   0.996   2.043  13.806 -0.3052  0.4898 -0.2873
14531TIP3    H165084   1.071   1.984  13.811 -0.3044  0.6051  1.5907
14531TIP3    H265085   0.921   1.985  13.791  0.1626  0.4243 -2.8131
14532TIP3   OH265086   1.316   2.694   5.332  0.2483  0.6835 -0.1250
14532TIP3    H165087   1.401   2.683   5.375 -0.0707 -0.3251  0.2650
14532TIP3    H265088   1.254   2.647   5.387 -0.8739  2.7134  0.4552
14533TIP3   OH265089   2.526   2.498   6.227 -0.2003  0.0952 -0.2795
14533TIP3    H165090   2.571   2.555   6.165 -3.7313  2.3914 -1.0302
14533TIP3    H265091   2.490   2.558   6.293  0.0949 -1.8657  1.7919
14534TIP3   OH265092   3.739   1.853   4.535 -0.0526 -0.4355  0.0067
14534TIP3    H165093   3.824   1.818   4.510  0.4425  0.0925  0.9101
14534TIP3    H265094   3.742   1.945   4.509 -1.1478 -0.8717 -1.8607
14535TIP3   OH265095   2.925   3.062   5.597  0.3043 -0.4649  0.6414
14535TIP3    H165096   2.846   3.113   5.611 -0.6168 -2.0536  1.5568
14535TIP3    H265097   2.975   3.071   5.678  1.4400  1.0925 -0.1881
14536TIP3   OH265098   2.111   6.747  13.404  0.4438 -0.1950  0.1086
14536TIP3    H165099   2.188   6.697  13.429 -0.4405 -2.6075 -1.6042
14536TIP3    H265100   2.052   6.742  13.479  0.6947 -1.0784  0.2512
14537TIP3   OH265101   2.527   3.414   5.113  0.2433  0.0451 -0.1444
14537TIP3    H165102   2.441   3.431   5.075  0.5929  0.1320 -0.9091
14537TIP3    H265103   2.541   3.320   5.100 -1.6409 -1.0147  3.9825
14538TIP3   OH265104   2.958   1.080   5.125 -0.2157  0.1491 -0.1211
14538TIP3    H165105   2.936   1.173   5.135 -0.6148  0.1872 -1.1649
14538TIP3    H265106   3.016   1.078   5.049  0.9100 -0.3092  0.7393
14539TIP3   OH265107   2.862   3.284   3.962  0.4455  0.6077  0.0115
14539TIP3    H165108   2.778   3.237   3.965  0.3805  0.7050 -0.2477
14539TIP3    H265109   2.847   3.363   4.014  0.4172  0.5575  0.0788
14540TIP3   OH265110   5.708   6.081   5.096 -0.2303 -0.1211 -0.2280
14540TIP3    H165111   5.756   6.120   5.169  0.2094  3.2586 -2.0920
14540TIP3    H265112   5.777   6.044   5.040 -0.3507 -0.6047 -0.0575
14541TIP3   OH265113   6.159   2.271   4.244  0.1181 -0.2321  0.2067
14541TIP3    H165114   6.217   2.346   4.262  0.0066 -0.1416  0.1923
14541TIP3    H265115   6.127   2.245   4.330  0.1312 -0.2419  0.2085
14542TIP3   OH265116   3.586   0.587   0.731 -0.7289 -0.3482  0.0726
14542TIP3    H165117   3.639   0.650   0.779  1.2387 -1.4182 -0.5935
14542TIP3    H265118   3.529   0.549   0.797 -0.5131  0.6584  0.8673
14543TIP3   OH265119   4.780   2.430   2.996 -0.0042 -0.5186 -0.1174
14543TIP3    H165120   4.756   2.489   3.068  0.2751 -0.2986 -0.1972
14543TIP3    H265121   4.698   2.390   2.969 -0.4440  0.8668 -0.9707
14544TIP3   OH265122   3.497   0.328   4.487  0.1490 -0.0841  0.4903
14544TIP3    H165123   3.504   0.401   4.548 -1.8327  2.0295 -1.6326
14544TIP3    H265124   3.501   0.368   4.400 -0.8706 -2.5073 -0.7785
14545TIP3   OH265125   4.081   6.143  13.509  0.0235  0.5396 -0.3213
14545TIP3    H165126   4.136   6.206  13.462  1.7089  0.1335  1.0102
14545TIP3    H265127   4.142   6.075  13.537 -1.2608 -0.1805  0.8143
14546TIP3   OH265128   3.775   3.490  14.285 -1.1148 -0.3134 -0.7347
14546TIP3    H165129   3.761   3.458  14.196 -0.6855 -2.5613 -0.0639
14546TIP3    H265130   3.847   3.552  14.277 -0.0107 -1.6481 -1.7774
14547TIP3   OH265131   2.912   0.862   4.376 -0.2573  0.1455 -0.4534
14547TIP3    H165132   2.865   0.940   4.346  0.5146  0.7035 -0.2418
14547TIP3    H265133   2.899   0.798   4.306 -1.3361  0.2805 -0.3879
14548TIP3   OH265134   4.477   5.946   1.521 -0.2859  0.1967  0.4046
14548TIP3    H165135   4.448   5.936   1.612 -2.0724 -1.1467 -0.2506
14548TIP3    H265136   4.403   5.915   1.469  0.6356  1.0904 -1.5303
14549TIP3   OH265137   1.706   5.326   5.208 -0.3456 -0.0041  0.1527
14549TIP3    H165138   1.733   5.292   5.294 -1.1430  0.8389  0.7551
14549TIP3    H265139   1.707   5.421   5.219 -1.7187  0.0823 -0.3734
14550TIP3   OH265140   6.370   3.205  12.534  0.4834  0.3910 -0.2980
14550TIP3    H165141   6.274   3.209  12.538  0.5602  2.2556  1.0473
14550TIP3    H265142   6.395   3.169  12.619  0.9859 -0.4237 -0.7798
14551TIP3   OH265143   0.738   2.404   5.195 -0.3606 -0.0709  0.3495
14551TIP3    H165144   0.672   2.334   5.200 -0.1006 -0.3964 -0.4814
14551TIP3    H265145   0.687   2.483   5.176 -0.4749 -0.4527 -1.0819
14552TIP3   OH265146   2.472   7.150   1.705 -0.0193  0.9482 -0.3843
14552TIP3    H165147   2.534   7.114   1.641 -0.9072  0.8690 -1.2269
14552TIP3    H265148   2.460   7.241   1.677  1.7040  1.7509  1.3363
14553TIP3   OH265149   6.759   3.639   3.719  0.7912  0.2059  0.0007
14553TIP3    H165150   6.828   3.605   3.776  0.2191  1.6667  1.6559
14553TIP3    H265151   6.708   3.562   3.693  0.7777 -0.4645  1.9069
14554TIP3   OH265152   3.299   6.174   4.801 -0.3034  0.7271  0.2804
14554TIP3    H165153   3.367   6.229   4.840 -0.3006 -0.4999  2.0963
14554TIP3    H265154   3.298   6.200   4.709  1.7598  1.6578  0.4599
14555TIP3   OH265155   4.049   4.878   3.557  0.5241  0.1529  0.0430
14555TIP3    H165156   3.980   4.881   3.490  0.4979  1.1560  0.0906
14555TIP3    H265157   4.130   4.898   3.509  0.4035  1.6697  0.3970
14556TIP3   OH265158   6.554   0.551   4.815  0.6776 -0.0057 -0.0549
14556TIP3    H165159   6.552   0.643   4.840 -0.3696 -0.0352  0.0478
14556TIP3    H265160   6.465   0.533   4.783  0.5769 -1.2091  0.8038
14557TIP3   OH265161   2.748   2.633   5.305 -0.3706  0.5014  0.2297
14557TIP3    H165162   2.799   2.574   5.250 -1.1187  0.8345 -0.8318
14557TIP3    H265163   2.814   2.690   5.346  0.1721  0.5052 -0.6259
14558TIP3   OH265164   5.248   3.083   1.027  0.1221 -0.0852  0.5838
14558TIP3    H165165   5.216   3.129   0.949 -1.0854 -1.0732  0.4750
14558TIP3    H265166   5.181   3.017   1.046  1.1315 -0.8669  1.5749
14559TIP3   OH265167   4.002   1.672   1.416 -0.4082 -0.0630  0.6366
14559TIP3    H165168   3.912   1.671   1.382 -0.2992 -1.6660  0.3206
14559TIP3    H265169   4.001   1.739   1.484 -2.1009 -0.7032  1.3009
14560TIP3   OH265170   0.110   5.736   2.526 -0.2620  0.6532 -0.2592
14560TIP3    H165171   0.039   5.699   2.473 -0.6274  0.8096  0.1081
14560TIP3    H265172   0.160   5.790   2.464 -1.2728  1.6407 -0.2600
14561TIP3   OH265173   0.443   4.527   4.603 -0.5213 -0.1433 -0.5745
14561TIP3    H165174   0.487   4.609   4.624 -0.5473 -0.0870 -0.7366
14561TIP3    H265175   0.352   4.541   4.632 -1.4885  1.2414 -3.7746
14562TIP3   OH265176   2.873   3.400   3.449 -0.0776  0.6852 -0.3760
14562TIP3    H165177   2.944   3.350   3.490  0.8544  1.4174 -1.0598
14562TIP3    H265178   2.837   3.453   3.521 -0.5169 -0.3137  0.1615
14563TIP3   OH265179   3.888   6.929   1.927  0.1823 -0.3682  0.1695
14563TIP3    H165180   3.919   6.909   2.015  1.7557 -1.7916 -0.6281
14563TIP3    H265181   3.956   6.986   1.890  0.0983 -0.6689 -0.4707
14564TIP3   OH265182   3.438   4.140  12.079 -0.2174 -0.3868 -1.0127
14564TIP3    H165183   3.526   4.140  12.115  0.0674  0.6847 -1.6551
14564TIP3    H265184   3.390   4.076  12.132  0.6724 -0.2432 -0.0017
14565TIP3   OH265185   1.873   3.967   0.978 -0.5359 -0.2285  0.4667
14565TIP3    H165186   1.904   3.983   1.067  0.7210  1.2359 -0.1903
14565TIP3    H265187   1.850   4.054   0.945  1.1371 -0.4096 -1.3712
14566TIP3   OH265188   0.068   6.790  13.345  0.4196 -0.3361 -0.5444
14566TIP3    H165189   0.044   6.701  13.322 -0.0380  0.0925 -1.7802
14566TIP3    H265190   0.104   6.828  13.264 -0.4620  0.9555 -0.3674
14567TIP3   OH265191   6.931   0.431   1.960  0.1006  0.2650  0.8286
14567TIP3    H165192   6.962   0.503   1.907 -3.4992  1.1337 -0.3518
14567TIP3    H265193   6.969   0.353   1.919  1.8347  1.2401  0.4692
14568TIP3   OH265194   0.126   4.851   3.800  0.7219  0.1415 -0.1127
14568TIP3    H165195   0.191   4.782   3.788  1.9359  1.3260 -0.5579
14568TIP3    H265196   0.158   4.924   3.747 -1.2128  0.6107 -0.7065
14569TIP3   OH265197   2.277   1.695   4.181  0.0352  0.7029 -0.3234
14569TIP3    H165198   2.346   1.645   4.224 -0.9889 -0.9884 -0.5830
14569TIP3    H265199   2.318   1.780   4.161  1.2008  0.7166  1.8935
14570TIP3   OH265200   1.723   7.153   4.199  0.2196  0.1757 -0.6414
14570TIP3    H165201   1.799   7.153   4.141  1.5496 -1.4929  1.0253
14570TIP3    H265202   1.668   7.082   4.166  1.2730 -1.1914  0.4225
14571TIP3   OH265203   3.597   2.021   5.251 -0.4084  0.0406 -0.0872
14571TIP3    H165204   3.616   2.114   5.244 -0.1214  0.2089  2.1504
14571TIP3    H265205   3.675   1.978   5.216 -0.1763  0.6447 -0.3257
14572TIP3   OH265206   4.159   5.452   2.983 -0.2668  0.3050  0.0023
14572TIP3    H165207   4.116   5.480   2.902 -2.7319  0.3605  1.2388
14572TIP3    H265208   4.113   5.372   3.008  2.3723 -1.3529 -0.0761
14573TIP3   OH265209   4.793   5.745  14.601 -0.4876 -0.0060 -0.4601
14573TIP3    H165210   4.754   5.697  14.528  1.5725 -2.1879 -0.2600
14573TIP3    H265211   4.844   5.679  14.648  0.7963  1.9862  1.1062
14574TIP3   OH265212   1.521   1.146   3.250  0.4009  0.1246 -0.1198
14574TIP3    H165213   1.468   1.223   3.229  0.3256 -0.0796 -0.7091
14574TIP3    H265214   1.462   1.089   3.299 -0.0745 -0.2914 -1.1481
14575TIP3   OH265215   4.795   0.995  15.104  0.0076  0.1739  0.0933
14575TIP3    H165216   4.874   0.992  15.049  1.1794 -2.4687  1.6864
14575TIP3    H265217   4.722   0.988  15.042  1.1448 -0.0880 -1.2867
14576TIP3   OH265218   2.150   3.805  14.337 -0.0714  0.5752  0.2622
14576TIP3    H165219   2.172   3.806  14.431 -1.5161  2.2322  0.6421
14576TIP3    H265220   2.172   3.893  14.307 -0.0603  0.1988 -0.8660
14577TIP3   OH265221   5.586   4.495  13.973  0.1120 -0.3235 -0.3443
14577TIP3    H165222   5.507   4.483  14.026 -0.1971  1.3030 -0.3790
14577TIP3    H265223   5.628   4.573  14.009 -0.1535  0.9075 -2.5319
14578TIP3   OH265224   2.876   2.747   5.566  0.1497 -0.5161  0.1979
14578TIP3    H165225   2.946   2.716   5.508 -0.6011 -0.0919 -0.9834
14578TIP3    H265226   2.900   2.838   5.586 -1.6022  0.7488 -2.8487
14579TIP3   OH265227   4.993   2.227   4.373  0.3769 -0.1700 -0.6127
14579TIP3    H165228   5.020   2.139   4.400  1.3612  0.0044 -0.9952
14579TIP3    H265229   5.067   2.283   4.396  0.2673  0.3594 -1.5034
14580TIP3   OH265230   4.924   2.165  15.196  0.2286  0.2929 -0.7739
14580TIP3    H165231   4.907   2.249  15.153 -1.1430  0.6828  0.4446
14580TIP3    H265232   4.883   2.174  15.282  1.5810 -1.0039  0.0444
14581TIP3   OH265233   7.113   4.583  15.325  0.3774 -0.6734  0.5424
14581TIP3    H165234   7.098   4.562  15.233 -1.9363 -1.6708  1.0787
14581TIP3    H265235   7.201   4.550  15.343  1.5817  1.0351 -1.6776
14582TIP3   OH265236   0.622   1.927   1.789  0.3543  0.8189  0.5391
14582TIP3    H165237   0.688   1.906   1.854 -1.9364  0.7136  2.9961
14582TIP3    H265238   0.607   1.844   1.742 -0.7945 -0.2638  2.6799
14583TIP3   OH265239   3.604   6.095   2.312 -0.3500  0.4378 -0.2052
14583TIP3    H165240   3.590   6.053   2.397  0.6654  0.2222 -0.1286
14583TIP3    H265241   3.518   6.094   2.271 -0.6578 -0.3676  0.4127
14584TIP3   OH265242   6.655   1.679   4.722  0.0744  0.9513 -0.3496
14584TIP3    H165243   6.733   1.649   4.767 -0.2873  0.2120 -0.2054
14584TIP3    H265244   6.582   1.635   4.767 -0.5938  2.9657  0.6743
14585TIP3   OH265245   6.993   6.565   3.135  0.0415 -0.2103  0.1503
14585TIP3    H165246   6.985   6.548   3.229 -3.9367 -0.3721 -0.0466
14585TIP3    H265247   6.947   6.492   3.094 -1.4594  1.6585 -1.6733
14586TIP3   OH265248   6.156   6.973   1.860  0.2387  0.2123  0.4450
14586TIP3    H165249   6.082   7.031   1.848  0.9934  0.8587 -1.3912
14586TIP3    H265250   6.199   7.005   1.939 -0.3724  1.0052  0.4679
14587TIP3   OH265251   0.507   4.204   3.391 -0.2620 -0.1102 -0.0293
14587TIP3    H165252   0.415   4.228   3.380 -0.6250  0.1305  2.8106
14587TIP3    H265253   0.556   4.280   3.361 -0.9791  0.0934 -0.7333
14588TIP3   OH265254   0.403   2.733   3.143 -0.1277 -0.3416  0.5650
14588TIP3    H165255   0.380   2.745   3.235  0.3966 -0.4608  0.7130
14588TIP3    H265256   0.432   2.820   3.114 -1.0100 -0.1236  0.3015
14589TIP3   OH265257   5.322   6.750   0.285  0.1044 -0.2416 -0.0452
14589TIP3    H165258   5.403   6.790   0.316  0.7265 -0.8633 -0.8565
14589TIP3    H265259   5.333   6.741   0.191 -1.6352  1.3382 -0.4823
14590TIP3   OH265260   1.269   3.655   2.721 -0.4651  0.4398  0.2307
14590TIP3    H165261   1.231   3.743   2.727  0.3564  0.8314 -0.1020
14590TIP3    H265262   1.358   3.666   2.756 -1.1828 -0.8276  2.7359
14591TIP3   OH265263   2.570   0.449   5.376  0.4522 -0.1363  0.5115
14591TIP3    H165264   2.487   0.456   5.424  0.1367 -2.5136  0.4378
14591TIP3    H265265   2.627   0.514   5.418 -0.6690 -0.2094  2.2721
14592TIP3   OH265266   5.014   4.027   2.518 -0.1219  0.3705  0.5794
14592TIP3    H165267   4.990   3.936   2.538 -1.7269  0.4672 -0.7042
14592TIP3    H265268   5.074   4.052   2.588 -0.3007 -1.4066  1.4186
14593TIP3   OH265269   2.584   2.156  14.178  0.0515 -0.0426 -0.1027
14593TIP3    H165270   2.566   2.226  14.241 -0.1895 -0.7122  0.5803
14593TIP3    H265271   2.540   2.079  14.214 -3.3488  0.3144 -2.9098
14594TIP3   OH265272   5.877   4.991   5.466  0.2211  0.0872 -0.3352
14594TIP3    H165273   5.869   4.972   5.560 -0.6463  0.4441 -0.3234
14594TIP3    H265274   5.787   4.994   5.435  0.5312 -1.1472 -1.4277
14595TIP3   OH265275   3.530   3.630  12.896 -0.1226 -0.3648  0.0549
14595TIP3    H165276   3.520   3.720  12.929 -1.7646  0.2391 -1.8862
14595TIP3    H265277   3.450   3.586  12.923  0.3798 -1.0801  0.4049
14596TIP3   OH265278   4.043   0.217   0.713 -0.7023 -0.1543 -0.4125
14596TIP3    H165279   4.126   0.170   0.713  0.2047  1.3811  0.2758
14596TIP3    H265280   3.984   0.161   0.764 -0.5242 -1.8975 -2.0164
14597TIP3   OH265281   6.025   4.333   2.116  0.1562  0.1324  0.1565
14597TIP3    H165282   6.043   4.384   2.037  2.9174 -1.9937 -0.7686
14597TIP3    H265283   6.097   4.353   2.175 -0.9617  0.3926  1.4857
14598TIP3   OH265284   2.770   7.037   4.967 -0.2215  0.0239 -0.8546
14598TIP3    H165285   2.717   7.036   5.046  0.7866 -0.2160 -0.1634
14598TIP3    H265286   2.779   7.130   4.945 -1.0469  0.0590 -1.0760
14599TIP3   OH265287   5.540   2.316   1.630 -0.3831 -0.5038 -0.3527
14599TIP3    H165288   5.484   2.382   1.590 -0.9493 -0.9149 -0.2439
14599TIP3    H265289   5.624   2.325   1.584 -0.2082  0.7918  0.1662
14600TIP3   OH265290   2.481   2.050   1.850 -0.3180  0.2930 -0.3036
14600TIP3    H165291   2.395   2.027   1.815 -0.5531  1.3383 -0.4481
14600TIP3    H265292   2.540   1.984   1.814 -1.2930 -1.4649  1.1214
14601TIP3   OH265293   2.761   2.804   1.292 -0.1634 -0.0296  0.3667
14601TIP3    H165294   2.756   2.710   1.308 -1.7364  0.2009  1.4605
14601TIP3    H265295   2.791   2.841   1.375 -0.3397  0.4927  0.2042
14602TIP3   OH265296   1.816   0.153   0.086 -0.2033 -0.3196  0.3460
14602TIP3    H165297   1.752   0.083   0.100  0.5640 -0.7367  2.0590
14602TIP3    H265298   1.841   0.144  -0.005 -1.7142 -0.8920 -0.0434
14603TIP3   OH265299   1.208   4.353  14.188 -0.1363 -0.0497  0.4550
14603TIP3    H165300   1.271   4.366  14.117 -0.5609 -1.4745 -0.2066
14603TIP3    H265301   1.262   4.330  14.263  0.1901 -0.4578  0.1017
14604TIP3   OH265302   0.752   0.228   5.409 -0.1554  0.2343 -0.1241
14604TIP3    H165303   0.818   0.193   5.470 -0.6254 -0.4244  0.0180
14604TIP3    H265304   0.735   0.155   5.349  0.5583  0.9828 -1.2686
14605TIP3   OH265305   6.774   1.801   0.469  0.2995  0.6014  0.0168
14605TIP3    H165306   6.833   1.741   0.424 -0.6574  0.0605 -0.5376
14605TIP3    H265307   6.830   1.848   0.531  0.8465 -1.9075  1.5557
14606TIP3   OH265308   2.806   4.040  14.108  0.1332  0.1459  0.2562
14606TIP3    H165309   2.797   4.040  14.013  0.4626 -1.2568  0.2039
14606TIP3    H265310   2.899   4.054  14.124  0.4210 -1.5821  0.2844
14607TIP3   OH265311   1.145   0.484   4.161  0.5957  0.1767 -0.5031
14607TIP3    H165312   1.104   0.398   4.173 -0.4212  0.0715 -3.6829
14607TIP3    H265313   1.239   0.465   4.164  0.4000 -1.2344 -1.7259
14608TIP3   OH265314   2.159   2.638   1.846  0.0998  0.8189  0.3114
14608TIP3    H165315   2.116   2.570   1.898  2.2953 -0.1253  0.9660
14608TIP3    H265316   2.133   2.619   1.756 -1.5630  0.8529  0.7522
14609TIP3   OH265317   2.456   5.870  14.594 -0.0206 -0.0851 -0.2780
14609TIP3    H165318   2.539   5.872  14.545 -0.1211 -1.0745 -0.5066
14609TIP3    H265319   2.481   5.840  14.682 -0.0759  0.0684 -0.2091
14610TIP3   OH265320   5.711   3.654   1.476  0.2829 -0.3658  0.0841
14610TIP3    H165321   5.654   3.579   1.494 -1.1263  0.9693  1.4688
14610TIP3    H265322   5.659   3.731   1.499  1.6529  1.0869 -1.3268
14611TIP3   OH265323   0.287   6.954   4.995  0.3672 -0.3549 -0.4959
14611TIP3    H165324   0.195   6.940   5.016  0.3118 -0.7205 -0.9570
14611TIP3    H265325   0.321   7.005   5.068 -0.0496 -0.7490 -0.0165
14612TIP3   OH265326   3.560   4.594   5.734 -0.7460  0.0630 -0.9264
14612TIP3    H165327   3.598   4.673   5.772 -1.7417 -0.3872  1.1356
14612TIP3    H265328   3.466   4.602   5.751 -1.1475 -0.6055 -2.5850
14613TIP3   OH265329   6.200   0.439  15.012  0.2405  0.5196  0.0484
14613TIP3    H165330   6.191   0.514  14.952 -0.3227  1.6130  1.4346
14613TIP3    H265331   6.113   0.429  15.050  0.1582 -1.2446 -0.5171
14614TIP3   OH265332   7.094   5.794  14.460  0.1200 -0.0681 -0.3916
14614TIP3    H165333   7.033   5.769  14.391 -0.5691 -0.1737  0.2445
14614TIP3    H265334   7.117   5.711  14.502  0.7433 -0.0330 -0.6582
14615TIP3   OH265335   4.163   1.167   4.852  0.3403  0.6081  0.3577
14615TIP3    H165336   4.256   1.153   4.868  0.3087 -0.3361 -0.1788
14615TIP3    H265337   4.119   1.123   4.925  0.2630 -1.5331 -0.8953
14616TIP3   OH265338   4.441   7.079   5.820 -0.1814 -0.0643  0.3149
14616TIP3    H165339   4.471   7.037   5.740  0.6939 -0.2888  0.7413
14616TIP3    H265340   4.482   7.165   5.818 -0.1589 -0.0707  0.5231
14617TIP3   OH265341   4.018   4.180   1.198 -0.3325  0.0685 -0.2604
14617TIP3    H165342   4.079   4.232   1.250 -2.0935  2.6655 -0.6324
14617TIP3    H265343   3.937   4.179   1.250 -1.1688  0.0561 -1.5129
14618TIP3   OH265344   6.599   5.151   2.126 -0.1391 -0.1894  0.4778
14618TIP3    H165345   6.570   5.111   2.208 -2.7222  1.3234  0.4036
14618TIP3    H265346   6.557   5.099   2.058 -2.2453  1.5611  0.3406
14619TIP3   OH265347   6.362   3.050   0.217 -0.1918  0.3403  0.4180
14619TIP3    H165348   6.362   3.144   0.237  2.4118  0.5309 -0.1147
14619TIP3    H265349   6.398   3.009   0.295  0.7874  0.0445 -0.1788
14620TIP3   OH265350   6.954   3.146   1.375  0.0367 -0.0570 -0.2737
14620TIP3    H165351   6.908   3.199   1.310 -1.5150 -1.2211 -0.1706
14620TIP3    H265352   6.898   3.070   1.388  1.3427 -0.8600  0.9010
14621TIP3   OH265353   5.830   5.045   0.844 -0.5126 -0.0918 -0.1904
14621TIP3    H165354   5.847   4.980   0.913  3.4663  0.2221 -0.6880
14621TIP3    H265355   5.817   4.994   0.765  1.2160 -0.3971 -0.3139
14622TIP3   OH265356   1.270   5.099   3.381  0.3029 -0.0595 -0.0291
14622TIP3    H165357   1.321   5.141   3.450  0.6603 -0.3191 -0.1304
14622TIP3    H265358   1.259   5.009   3.412  0.1447 -0.0791 -0.1397
14623TIP3   OH265359   5.042   6.805   4.157 -0.1556  0.6274  0.2150
14623TIP3    H165360   4.976   6.855   4.109  1.8947  0.7750 -2.7452
14623TIP3    H265361   5.024   6.714   4.134 -1.0237  0.3658  1.7893
14624TIP3   OH265362   5.817   4.693   5.368 -0.2675 -0.2858 -0.9697
14624TIP3    H165363   5.723   4.695   5.354 -0.1527 -1.5571 -2.1801
14624TIP3    H265364   5.827   4.686   5.463 -1.5497 -3.5257 -0.9381
14625TIP3   OH265365   4.216   6.951  13.957  0.8398  0.3154 -0.3504
14625TIP3    H165366   4.217   6.894  14.034  0.3381  1.9699  0.9446
14625TIP3    H265367   4.181   6.896  13.887  1.4721 -1.2909  0.5303
14626TIP3   OH265368   4.871   0.677   5.922 -0.1064  0.1311 -0.3343
14626TIP3    H165369   4.894   0.736   5.850 -0.1535 -0.9492 -1.2431
14626TIP3    H265370   4.780   0.699   5.942 -0.8749 -1.1323 -2.1887
14627TIP3   OH265371   1.359   3.778   4.799  1.2087  0.5494 -0.0701
14627TIP3    H165372   1.365   3.873   4.784  2.8023  0.5602  0.4941
14627TIP3    H265373   1.385   3.766   4.890 -0.0308 -0.3522  0.1934
14628TIP3   OH265374   3.224   3.942   0.979  0.1578 -0.0411 -0.3814
14628TIP3    H165375   3.210   3.910   1.068  0.3739  1.1515  0.1157
14628TIP3    H265376   3.313   3.915   0.958  0.2364 -0.0230 -0.0832
14629TIP3   OH265377   1.926   4.678   4.552 -0.5989  0.1647  0.0408
14629TIP3    H165378   1.932   4.774   4.543 -3.2618  0.3257 -0.8537
14629TIP3    H265379   1.875   4.664   4.631 -0.8100 -0.4999 -0.2064
14630TIP3   OH265380   3.793   0.130   1.472  0.1902 -0.6365  0.2982
14630TIP3    H165381   3.838   0.110   1.390 -0.2211 -1.5173  0.2749
14630TIP3    H265382   3.815   0.222   1.490  1.3280 -0.8157 -0.1194
14631TIP3   OH265383   3.808   0.596   1.838 -0.2124  0.3947  0.1779
14631TIP3    H165384   3.888   0.645   1.858 -0.5048  1.1481 -0.4422
14631TIP3    H265385   3.766   0.584   1.923  1.9227 -2.5416  0.9518
14632TIP3   OH265386   0.705   3.830   4.803 -0.1237  0.0126  0.3117
14632TIP3    H165387   0.764   3.755   4.795  1.0040  0.7796  1.0471
14632TIP3    H265388   0.648   3.825   4.727  1.1768 -0.5258 -0.6551
14633TIP3   OH265389   2.628   3.882   1.810 -0.5408 -0.5523 -0.4520
14633TIP3    H165390   2.547   3.930   1.789  1.1577  2.8440  0.0533
14633TIP3    H265391   2.606   3.790   1.793 -4.3786  0.2083 -0.6328
14634TIP3   OH265392   3.132   3.616   3.165 -0.1283  0.5635 -0.6450
14634TIP3    H165393   3.115   3.591   3.074 -3.0874 -2.8071  0.5619
14634TIP3    H265394   3.064   3.681   3.185  0.7742  1.6058 -0.9128
14635TIP3   OH265395   4.411   6.958   0.558  0.2519 -0.0298  0.5404
14635TIP3    H165396   4.361   7.000   0.488  2.4362  0.4452 -0.8397
14635TIP3    H265397   4.491   7.009   0.564  0.4050 -0.4389  3.0307
14636TIP3   OH265398   5.572   0.064   1.674  0.5166 -0.1177 -0.9001
14636TIP3    H165399   5.509   0.069   1.747  1.7575  1.7316  0.1221
14636TIP3    H265400   5.517   0.067   1.595 -0.7400  0.6006 -0.0360
14637TIP3   OH265401   0.183   4.017   5.127  0.2672  0.5619 -0.5808
14637TIP3    H165402   0.226   3.934   5.104 -0.1284  0.3916 -0.7185
14637TIP3    H265403   0.177   4.064   5.044  0.1183  0.5515 -0.5758
14638TIP3   OH265404   6.174   5.014   4.858 -0.0163  0.0802  0.0769
14638TIP3    H165405   6.152   5.100   4.894 -0.0193 -0.1627  0.6793
14638TIP3    H265406   6.267   5.019   4.838 -0.1518  0.4244 -0.4771
14639TIP3   OH265407   5.389   2.644   3.153  0.1561 -0.3083  0.7542
14639TIP3    H165408   5.479   2.635   3.123  0.4451 -0.4092  1.6396
14639TIP3    H265409   5.387   2.725   3.203  0.1448 -1.0904  2.0693
14640TIP3   OH265410   3.086   5.783   0.428  0.6160 -0.4995 -0.5493
14640TIP3    H165411   3.156   5.723   0.453  0.7855  0.5440  1.7359
14640TIP3    H265412   3.009   5.752   0.476  0.2878  0.1270 -0.6600
14641TIP3   OH265413   1.733   5.503  12.406  0.3016 -0.1249 -0.0274
14641TIP3    H165414   1.770   5.548  12.330 -0.5066  1.5820  0.5442
14641TIP3    H265415   1.647   5.474  12.377  0.8893 -1.5331 -0.4508
14642TIP3   OH265416   5.042   2.543  14.096  0.3650 -0.0635 -0.0894
14642TIP3    H165417   5.014   2.520  14.185 -3.6623  3.1512 -0.2369
14642TIP3    H265418   5.114   2.604  14.109 -0.0897  0.2781  0.9689
14643TIP3   OH265419   1.712   6.210   3.003  0.2604  0.4813 -0.5408
14643TIP3    H165420   1.686   6.252   3.085 -0.2977  0.4237 -0.6855
14643TIP3    H265421   1.671   6.262   2.934 -1.5156 -1.0042 -0.6855
14644TIP3   OH265422   3.372   7.204   2.346  0.1370 -0.0565  0.1969
14644TIP3    H165423   3.284   7.166   2.337  0.4629 -1.2829  1.7493
14644TIP3    H265424   3.431   7.130   2.332  0.8263  0.0484  2.2876
14645TIP3   OH265425   5.399   3.398   0.038  0.1454  0.0020 -0.0318
14645TIP3    H165426   5.470   3.462   0.033 -0.1731  0.2388 -1.9689
14645TIP3    H265427   5.431   3.333   0.101  1.0716  1.2953  0.9076
14646TIP3   OH265428   1.066   0.680   4.785 -0.3941  0.7022 -0.0613
14646TIP3    H165429   1.067   0.737   4.708 -0.3743  0.1048 -0.5117
14646TIP3    H265430   1.091   0.737   4.858  1.4579  0.8727 -0.7795
14647TIP3   OH265431   0.224   5.146   5.813 -0.3362 -0.4238  0.6036
14647TIP3    H165432   0.161   5.218   5.812 -0.9365 -0.9295  1.2054
14647TIP3    H265433   0.310   5.189   5.811 -0.6897  0.2920  0.5312
14648TIP3   OH265434   3.732   4.296   1.605 -0.1769  0.0516 -0.6727
14648TIP3    H165435   3.647   4.256   1.587 -0.7186  0.1034  1.5185
14648TIP3    H265436   3.791   4.222   1.622 -0.3117  0.0695 -0.1123
14649TIP3   OH265437   4.645   0.928   5.594  0.4621  0.1518  0.2103
14649TIP3    H165438   4.688   0.931   5.509 -0.7717 -0.5580 -0.4625
14649TIP3    H265439   4.704   0.876   5.649 -0.2425 -2.2094 -1.1455
14650TIP3   OH265440   0.245   3.085   0.558 -0.2014 -0.2625 -0.4847
14650TIP3    H165441   0.178   3.105   0.624  1.2782  1.8464  0.4876
14650TIP3    H265442   0.315   3.041   0.608 -0.2404 -1.2038 -1.2274
14651TIP3   OH265443   5.510   1.773   4.075 -0.1223  0.0279  0.6048
14651TIP3    H165444   5.582   1.803   4.131  0.9723 -0.6844 -0.3679
14651TIP3    H265445   5.448   1.733   4.136  0.4357  0.4082  1.4464
14652TIP3   OH265446   0.385   5.082   3.335  0.1587 -0.1721 -0.1505
14652TIP3    H165447   0.361   5.169   3.303  0.1337  1.1683  3.1180
14652TIP3    H265448   0.302   5.034   3.338  0.0286 -0.0324 -1.0716
14653TIP3   OH265449   6.767   0.731   2.667 -0.3503  0.0110  0.1395
14653TIP3    H165450   6.804   0.791   2.732 -0.5510 -1.2713  1.5047
14653TIP3    H265451   6.794   0.767   2.583  2.0031  0.4235  0.9813
14654TIP3   OH265452   6.670   3.778  14.706  0.7119 -0.7385  0.4235
14654TIP3    H165453   6.678   3.697  14.656  0.0269 -0.0841 -0.7866
14654TIP3    H265454   6.596   3.824  14.666  1.7623  0.9805  0.3544
14655TIP3   OH265455   4.356   2.814   4.259 -0.2164 -0.0386  0.1596
14655TIP3    H165456   4.369   2.873   4.185  0.0301 -0.0144  0.2228
14655TIP3    H265457   4.351   2.871   4.335  0.7032 -0.1353  0.3070
14656TIP3   OH265458   7.027   2.349   1.312  0.2739 -0.5297 -0.8777
14656TIP3    H165459   7.092   2.405   1.270 -1.0622  0.3907 -1.8010
14656TIP3    H265460   7.066   2.325   1.396  1.2980  0.9732 -0.8874
14657TIP3   OH265461   4.253   2.268   2.425  0.0426  0.3612 -0.0029
14657TIP3    H165462   4.204   2.191   2.455 -2.9847  1.9752 -0.4158
14657TIP3    H265463   4.335   2.265   2.474 -1.9640 -0.5414  3.6262
14658TIP3   OH265464   6.431   6.537   2.247  0.2627  0.1104 -0.2335
14658TIP3    H165465   6.406   6.616   2.199 -1.3599  0.5118  1.1865
14658TIP3    H265466   6.350   6.488   2.257  0.3724  0.2933  2.4669
14659TIP3   OH265467   0.022   3.621   2.815  0.2193 -0.0976  0.6053
14659TIP3    H165468  -0.036   3.546   2.803  0.2966 -0.1749  0.7146
14659TIP3    H265469  -0.015   3.688   2.758  0.2714 -0.2871  0.3454
14660TIP3   OH265470   6.706   6.546  14.787  0.1637 -0.0321 -0.0949
14660TIP3    H165471   6.791   6.591  14.790  0.4404 -0.5122 -0.5768
14660TIP3    H265472   6.715   6.484  14.715 -0.0307 -1.2398  0.8979
14661TIP3   OH265473   3.055   0.776   4.875  0.3375 -0.8292 -0.1283
14661TIP3    H165474   3.135   0.827   4.873  0.1931 -0.6032 -2.4186
14661TIP3    H265475   3.008   0.802   4.796 -2.4829 -0.2354  1.5799
14662TIP3   OH265476   4.034   5.933   4.071  0.2897 -1.0859  0.0167
14662TIP3    H165477   4.001   5.914   3.983 -2.8834 -0.2991  0.8915
14662TIP3    H265478   4.072   5.851   4.101 -0.1248 -1.8504 -1.4424
14663TIP3   OH265479   3.038   2.801   2.090 -0.5487 -0.1503 -1.1572
14663TIP3    H165480   3.111   2.862   2.079 -2.4918  2.4523 -0.5647
14663TIP3    H265481   3.008   2.784   2.001  0.6782 -1.2362 -1.4075
14664TIP3   OH265482   1.685   0.021  12.996 -0.8845  0.1511  0.1325
14664TIP3    H165483   1.760   0.072  13.026 -0.2801  0.1060 -1.2338
14664TIP3    H265484   1.716  -0.022  12.916 -2.0071 -0.7826  0.1827
14665TIP3   OH265485   7.060   6.489  15.043  0.1679  0.0330  0.5635
14665TIP3    H165486   7.057   6.523  15.133  1.6966 -1.0109  1.0688
14665TIP3    H265487   6.972   6.458  15.026  0.0067 -0.3749  1.9915
14666TIP3   OH265488   0.819   6.089  12.351  0.2304  0.0169 -0.1609
14666TIP3    H165489   0.765   6.018  12.385 -0.8041  0.3639 -1.0051
14666TIP3    H265490   0.816   6.156  12.420  1.1109 -0.6926  0.5825
14667TIP3   OH265491   1.756   2.349   0.792 -0.2956  0.3080  0.2376
14667TIP3    H165492   1.667   2.383   0.795 -0.6865 -0.2186 -2.5934
14667TIP3    H265493   1.810   2.422   0.822 -1.5883  0.8648  1.3323
14668TIP3   OH265494   5.685   6.038   3.802 -0.8266  0.6256  0.5740
14668TIP3    H165495   5.702   6.122   3.762  0.3665  0.0507 -0.1781
14668TIP3    H265496   5.680   6.057   3.896  2.4354  1.1517  0.7362
14669TIP3   OH265497   2.441   4.149   2.952 -0.2906  0.5367  0.1219
14669TIP3    H165498   2.359   4.189   2.923 -0.1426  0.3189 -0.6052
14669TIP3    H265499   2.443   4.165   3.047 -2.1445 -1.1779  0.5230
14670TIP3   OH265500   0.453   4.795   0.722 -0.9298  0.3755 -0.4688
14670TIP3    H165501   0.400   4.725   0.760  0.1310 -0.3598 -0.2732
14670TIP3    H265502   0.392   4.846   0.669 -1.6727 -0.9695 -0.9735
14671TIP3   OH265503   0.653   0.043   1.485  0.2166 -0.1721  0.0266
14671TIP3    H165504   0.580   0.015   1.540  0.4527  0.9187  0.9349
14671TIP3    H265505   0.678  -0.035   1.436 -0.6645 -0.9059  0.7154
14672TIP3   OH265506   4.438   1.566   1.395 -0.0172  0.7800  0.5076
14672TIP3    H165507   4.492   1.562   1.474  0.0934 -1.0243  0.3870
14672TIP3    H265508   4.389   1.648   1.404  1.9594  1.9652  1.1070
14673TIP3   OH265509   0.351   3.468  13.842 -0.0149 -0.1301 -0.6402
14673TIP3    H165510   0.393   3.403  13.898  0.3025  1.5095  1.0873
14673TIP3    H265511   0.261   3.474  13.876 -1.0131 -1.7678 -2.7079
14674TIP3   OH265512   0.762   4.949   0.277  0.3294 -0.3068  0.4977
14674TIP3    H165513   0.781   5.037   0.245  1.5193 -0.0233  1.8684
14674TIP3    H265514   0.831   4.895   0.239 -0.3076 -0.6256 -0.2137
14675TIP3   OH265515   2.177   4.810   2.807  0.1890  0.0307  0.6142
14675TIP3    H165516   2.239   4.840   2.740  0.4036 -0.1762  0.7203
14675TIP3    H265517   2.163   4.718   2.787  0.1134  0.0135  0.7471
14676TIP3   OH265518   2.709   4.207   3.451  0.1618  0.2401  0.0036
14676TIP3    H165519   2.760   4.258   3.388  0.7267  0.0293  0.2758
14676TIP3    H265520   2.759   4.126   3.462 -1.0774 -0.6906 -0.9402
14677TIP3   OH265521   1.798   4.219   0.868  0.1770 -0.5962 -0.6677
14677TIP3    H165522   1.874   4.276   0.859  0.5485 -0.8195  0.8213
14677TIP3    H265523   1.739   4.266   0.928 -1.0129 -0.2926 -2.0176
14678TIP3   OH265524   3.104   5.291   5.071 -0.6478  0.2123  0.2432
14678TIP3    H165525   3.098   5.385   5.060  0.7885  0.4519  1.2410
14678TIP3    H265526   3.033   5.269   5.132 -1.9282  0.3960 -1.1332
14679TIP3   OH265527   6.770   3.266   5.334  0.4774  0.0102 -0.0392
14679TIP3    H165528   6.834   3.291   5.401  1.5124 -1.3843 -0.4580
14679TIP3    H265529   6.776   3.336   5.268  0.2805  0.8000  0.7657
14680TIP3   OH265530   2.782   6.999   2.660 -0.1426  0.6122 -0.0147
14680TIP3    H165531   2.700   6.981   2.707 -0.2710  0.9080 -0.1195
14680TIP3    H265532   2.768   7.086   2.621  0.3408  0.8003  0.2266
14681TIP3   OH265533   6.553   5.172   1.267 -0.2213 -0.5714 -0.2772
14681TIP3    H165534   6.471   5.180   1.218 -0.8846  1.5685  1.0346
14681TIP3    H265535   6.601   5.252   1.246  0.5206 -0.7425  0.7093
14682TIP3   OH265536   3.163   4.909   4.910  0.0893  0.1925 -0.3135
14682TIP3    H165537   3.238   4.892   4.854 -0.0583 -0.2616 -0.3781
14682TIP3    H265538   3.200   4.923   4.996  0.1714 -1.5219 -0.0230
14683TIP3   OH265539   3.201   5.353  13.319 -0.0763  0.4083  0.3641
14683TIP3    H165540   3.188   5.408  13.242 -1.2384 -0.3029  0.0184
14683TIP3    H265541   3.122   5.366  13.371 -0.2044 -0.6270  0.4549
14684TIP3   OH265542   3.630   5.690   3.605  0.0505  0.2489  0.2169
14684TIP3    H165543   3.556   5.666   3.548 -0.1287  1.3778 -0.0604
14684TIP3    H265544   3.594   5.689   3.693 -0.0903  0.0281  0.1577
14685TIP3   OH265545   3.708   3.688  15.046  0.2353 -0.2877 -0.4517
14685TIP3    H165546   3.750   3.759  15.095 -4.1335  2.9248 -0.7954
14685TIP3    H265547   3.762   3.677  14.968  1.5160  2.1676  0.0046
14686TIP3   OH265548   5.578   6.099   3.424  0.4609  0.2774  0.4196
14686TIP3    H165549   5.565   6.193   3.416 -0.4924  0.3153  2.0435
14686TIP3    H265550   5.672   6.088   3.435  0.5016  1.1101  0.9725
14687TIP3   OH265551   6.645   5.146   1.512  0.4397 -0.3496  0.2205
14687TIP3    H165552   6.592   5.215   1.552  0.5835  0.0988 -0.3514
14687TIP3    H265553   6.608   5.134   1.425  0.5501 -0.8516  0.2383
14688TIP3   OH265554   3.248   2.819   0.849 -0.1740  0.0550 -0.5758
14688TIP3    H165555   3.159   2.785   0.837 -0.0630  0.0666 -1.5376
14688TIP3    H265556   3.248   2.903   0.803  0.3687  0.0018 -0.6819
14689TIP3   OH265557   2.960   1.982   4.381  0.2110  0.0244  0.0870
14689TIP3    H165558   3.007   1.986   4.464 -1.4798  0.9206  1.0614
14689TIP3    H265559   2.949   2.073   4.355  1.5664 -0.2595 -1.6822
14690TIP3   OH265560   5.215   2.570  11.567 -0.1598  0.1107 -0.6227
14690TIP3    H165561   5.259   2.614  11.641  0.3105  0.6980 -1.2391
14690TIP3    H265562   5.132   2.539  11.604  0.3928 -0.2531  0.3398
14691TIP3   OH265563   4.688   0.882   0.992 -0.0386  0.2524 -0.1045
14691TIP3    H165564   4.777   0.868   0.959 -0.1113  1.7067 -0.9863
14691TIP3    H265565   4.687   0.973   1.022 -1.3709  0.4327 -0.6254
14692TIP3   OH265566   2.660   4.620   4.684 -0.2420  0.5269  0.2725
14692TIP3    H165567   2.709   4.673   4.621 -2.2611  1.3325 -0.6890
14692TIP3    H265568   2.674   4.530   4.655  0.3448  0.7652 -0.2159
14693TIP3   OH265569   6.007   0.547   2.370  0.6044  0.2290  0.3887
14693TIP3    H165570   5.958   0.469   2.398  1.3470 -0.0336  0.9885
14693TIP3    H265571   6.010   0.602   2.449 -0.1131  0.9810 -0.0938
14694TIP3   OH265572   5.592   6.764   5.071  0.2165 -0.1783 -0.2676
14694TIP3    H165573   5.529   6.711   5.022  0.2749 -0.7065  0.2115
14694TIP3    H265574   5.673   6.714   5.068  0.4573  0.2169 -0.3865
14695TIP3   OH265575   0.740   6.710   3.723  0.2899 -0.2574  0.5092
14695TIP3    H165576   0.751   6.693   3.629  0.1420  0.5484  0.3383
14695TIP3    H265577   0.684   6.639   3.754  0.0224 -0.3161 -0.0917
14696TIP3   OH265578   0.623   0.605   4.357 -0.5510 -0.0020 -0.1727
14696TIP3    H165579   0.693   0.566   4.305 -0.8778  0.9556 -1.3669
14696TIP3    H265580   0.609   0.691   4.317 -0.9770  0.6658  1.3637
14697TIP3   OH265581   3.563   0.037  14.139  0.0821  0.1020 -0.5498
14697TIP3    H165582   3.480   0.081  14.126 -0.4861 -1.0910 -1.0822
14697TIP3    H265583   3.588   0.005  14.053  0.2340 -1.0361 -0.0983
14698TIP3   OH265584   1.005   3.689  14.734  0.2373 -0.1472  0.5493
14698TIP3    H165585   1.023   3.611  14.788  0.6985  1.1358  2.3273
14698TIP3    H265586   0.914   3.711  14.754  0.0615 -0.2758 -0.0683
14699TIP3   OH265587   4.025   4.583   2.229  0.0489  0.0291  0.2927
14699TIP3    H165588   4.105   4.625   2.197  0.8341 -0.2384  1.7659
14699TIP3    H265589   3.987   4.541   2.153  1.3836  0.0816 -0.4312
14700TIP3   OH265590   1.309   2.143   1.858  0.8709 -0.4264  0.0379
14700TIP3    H165591   1.314   2.149   1.953 -1.3114 -1.2410  0.2582
14700TIP3    H265592   1.401   2.145   1.829  1.6321 -0.9496  2.1940
14701TIP3   OH265593   7.157   2.656   3.818 -0.6479 -0.0223 -0.1236
14701TIP3    H165594   7.219   2.685   3.884  0.8592  0.8739 -1.8348
14701TIP3    H265595   7.095   2.728   3.810 -1.8696 -0.8459  1.4661
14702TIP3   OH265596   4.897   6.513   0.715 -0.3030 -0.2449  0.2333
14702TIP3    H165597   4.978   6.505   0.665  0.8865  1.2338  1.7938
14702TIP3    H265598   4.846   6.579   0.667  0.8763  1.2485  0.9306
14703TIP3   OH265599   0.424   3.504   5.050  0.6353 -1.0347 -0.1277
14703TIP3    H165600   0.391   3.421   5.084 -3.8148  0.5597  0.0186
14703TIP3    H265601   0.463   3.482   4.965 -0.8146 -3.2323 -0.2937
14704TIP3   OH265602   6.893   2.040   1.323 -0.3426 -0.4456  0.1704
14704TIP3    H165603   6.987   2.038   1.307 -0.2230 -1.0534  0.8804
14704TIP3    H265604   6.881   2.107   1.390 -0.8266  2.0108 -2.2148
14705TIP3   OH265605   3.549   3.455  15.060 -0.2121 -0.0807  0.0540
14705TIP3    H165606   3.546   3.420  15.149  1.2041  0.6268  0.4103
14705TIP3    H265607   3.623   3.516  15.061 -0.5467  0.3839 -1.4504
14706TIP3   OH265608   4.533   4.666  15.144 -0.2256 -0.4678  0.0648
14706TIP3    H165609   4.586   4.709  15.077 -0.0116 -1.3239 -0.3375
14706TIP3    H265610   4.592   4.654  15.218  0.3020 -1.8141 -0.5419
14707TIP3   OH265611   3.537   1.011   3.142 -0.6637 -0.2553 -0.5479
14707TIP3    H165612   3.612   1.016   3.201 -2.6060 -0.6026  2.1095
14707TIP3    H265613   3.575   1.022   3.055  2.3856  0.0817  0.6935
14708TIP3   OH265614   2.226   4.842   3.059 -0.4802  0.1640  0.2734
14708TIP3    H165615   2.234   4.834   2.964  1.9551 -1.8412  0.5448
14708TIP3    H265616   2.146   4.795   3.080  0.7343 -2.4724 -0.5665
14709TIP3   OH265617   4.830   3.630  14.137 -0.3561  0.2743 -0.0007
14709TIP3    H165618   4.867   3.689  14.203 -2.4938  0.3924  1.2094
14709TIP3    H265619   4.823   3.684  14.058  0.5578  0.6851  0.1791
14710TIP3   OH265620   6.286   0.918   0.935 -0.3964  0.3035  0.4178
14710TIP3    H165621   6.312   0.957   1.019  0.5075 -2.8177  1.7190
14710TIP3    H265622   6.191   0.909   0.942 -0.7074  2.5881 -0.1388
14711TIP3   OH265623   5.566   3.314   3.623  0.1813  0.3016 -0.6939
14711TIP3    H165624   5.502   3.355   3.679  0.7841 -0.5815  0.6913
14711TIP3    H265625   5.645   3.307   3.676 -0.4071 -4.4853  0.0654
14712TIP3   OH265626   3.396   4.899   2.383  0.2952  0.5111  0.1371
14712TIP3    H165627   3.416   4.808   2.404  0.6365  0.8317  1.2736
14712TIP3    H265628   3.393   4.902   2.287 -0.3100 -0.8084  0.0941
14713TIP3   OH265629   5.419   3.361   4.084 -0.2292 -0.4215  0.0944
14713TIP3    H165630   5.405   3.332   4.174  1.3115  1.1017  0.8854
14713TIP3    H265631   5.372   3.444   4.078 -0.0799 -0.3719 -0.4112
14714TIP3   OH265632   3.203   0.775  13.549  0.2322  0.2305  0.1975
14714TIP3    H165633   3.276   0.774  13.488  0.8223  0.7996  0.8695
14714TIP3    H265634   3.134   0.824  13.503  0.6758  0.6714 -0.0125
14715TIP3   OH265635   6.042   4.042   4.804 -0.3878 -0.1355  0.2356
14715TIP3    H165636   5.975   4.014   4.742 -0.7102  2.4108 -0.6919
14715TIP3    H265637   5.993   4.074   4.880 -0.5803  3.8620 -1.3201
14716TIP3   OH265638   7.116   2.252   4.205  0.2413 -0.0618  0.3016
14716TIP3    H165639   7.175   2.197   4.154 -0.8458 -0.9660 -0.0317
14716TIP3    H265640   7.029   2.230   4.172 -0.2501  1.6918  0.3521
14717TIP3   OH265641   0.427   2.980   2.215  0.1007 -0.3131 -0.1792
14717TIP3    H165642   0.476   2.900   2.198  1.7206  0.2400  1.4681
14717TIP3    H265643   0.479   3.049   2.173  0.7333  0.2702  1.4820
14718TIP3   OH265644   5.332   3.605  15.100 -0.7799  0.1607  0.4429
14718TIP3    H165645   5.399   3.629  15.036  0.2368  1.3432  1.8971
14718TIP3    H265646   5.275   3.544  15.052  1.4616 -1.1301 -0.7678
14719TIP3   OH265647   5.914   6.668   2.758 -0.6970  0.3129  0.2203
14719TIP3    H165648   5.891   6.596   2.817  0.7502  0.7757  1.3980
14719TIP3    H265649   5.983   6.634   2.703 -1.3283  0.2183 -0.5320
14720TIP3   OH265650   3.709   0.221  13.021 -0.2144 -0.5958 -0.0854
14720TIP3    H165651   3.738   0.306  13.053 -0.9945 -0.2413 -0.2893
14720TIP3    H265652   3.754   0.158  13.077  1.7228 -0.1305 -1.0320
14721TIP3   OH265653   0.549   3.276   0.625  0.3711 -0.0823  0.1327
14721TIP3    H165654   0.510   3.221   0.694  1.0770  0.0549  0.6612
14721TIP3    H265655   0.642   3.276   0.646  0.4520  0.8450 -0.2078
14722TIP3   OH265656   0.726   0.097   3.669 -0.1622  0.5727 -0.3038
14722TIP3    H165657   0.800   0.141   3.712  1.5856 -1.5568 -0.9290
14722TIP3    H265658   0.758   0.078   3.581 -1.5969 -0.1268 -0.6971
14723TIP3   OH265659   3.635   6.202   3.512 -0.0280 -1.0597 -0.7420
14723TIP3    H165660   3.553   6.179   3.555 -0.2870 -1.8580 -1.6521
14723TIP3    H265661   3.660   6.125   3.462  2.2685 -1.5596  0.9700
14724TIP3   OH265662   2.974   5.017  14.495  0.3285 -0.1945  0.4363
14724TIP3    H165663   3.067   4.995  14.497  0.6250  1.0164  0.6773
14724TIP3    H265664   2.944   5.005  14.586  0.8316  1.7208  0.8875
14725TIP3   OH265665   2.455   0.106   0.411 -0.4953 -0.2199 -0.3768
14725TIP3    H165666   2.464   0.164   0.486 -1.1564 -0.4700 -0.1026
14725TIP3    H265667   2.504   0.027   0.435 -0.4421 -0.1750 -0.3386
14726TIP3   OH265668   6.171   6.648   0.956 -0.4171  0.2097 -0.3122
14726TIP3    H165669   6.118   6.628   1.033  1.0459 -0.6652  0.5130
14726TIP3    H265670   6.181   6.743   0.957 -1.3644  0.3102 -0.0854
14727TIP3   OH265671   1.507   4.181   1.047  0.5508 -0.5289  0.2725
14727TIP3    H165672   1.442   4.118   1.080  1.0945 -0.8164  0.8371
14727TIP3    H265673   1.576   4.180   1.114  1.3167 -0.5240 -0.4987
14728TIP3   OH265674   1.476   0.602   0.932  0.3240 -0.0018 -0.6070
14728TIP3    H165675   1.398   0.648   0.965  1.5922  1.9339 -0.1190
14728TIP3    H265676   1.472   0.516   0.972 -1.0669  0.3959  0.1811
14729TIP3   OH265677   2.388   0.840   5.428 -0.2664  0.0284 -0.2704
14729TIP3    H165678   2.338   0.899   5.485  0.6454  0.5745 -0.0156
14729TIP3    H265679   2.418   0.770   5.486  0.4233  0.4355 -0.1253
14730TIP3   OH265680   0.764   6.890   3.185 -0.2585  0.2681  0.5542
14730TIP3    H165681   0.822   6.963   3.204 -1.1802  0.6939  1.8975
14730TIP3    H265682   0.719   6.915   3.105 -2.4921  2.4945  2.3290
14731TIP3   OH265683   1.256   2.945   3.933  0.2466  0.6462 -0.4153
14731TIP3    H165684   1.234   2.915   4.021 -1.1329  1.2377 -0.5198
14731TIP3    H265685   1.304   3.027   3.946 -1.3838  1.6246 -0.1784
14732TIP3   OH265686   6.801   0.187   2.784 -0.3171  0.0448  0.0216
14732TIP3    H165687   6.782   0.233   2.703 -0.7389  0.1850  0.1932
14732TIP3    H265688   6.869   0.124   2.762 -0.7727 -0.2547 -0.5553
14733TIP3   OH265689   0.987   6.413   4.508  0.0271  0.0245 -0.1742
14733TIP3    H165690   1.081   6.412   4.526 -0.0251 -2.3667  0.3091
14733TIP3    H265691   0.979   6.453   4.422  1.4559  0.5234 -0.0942
14734TIP3   OH265692   6.623   6.858   6.272 -0.4399 -0.7664 -0.2921
14734TIP3    H165693   6.607   6.763   6.277  0.9682 -1.0058  0.2792
14734TIP3    H265694   6.705   6.870   6.319 -0.5566  0.7443 -0.4403
14735TIP3   OH265695   6.598   2.707   5.027 -0.4752 -0.3855  0.1875
14735TIP3    H165696   6.631   2.656   5.101 -2.7986  0.6524  2.0591
14735TIP3    H265697   6.672   2.713   4.967  1.3927 -1.6187  2.2384
14736TIP3   OH265698   0.693   0.357   2.684  0.5079  0.2739  0.5974
14736TIP3    H165699   0.706   0.342   2.590 -0.8366  1.6259  0.1573
14736TIP3    H265700   0.763   0.307   2.726  0.1805 -1.6750 -1.0185
14737TIP3   OH265701   3.477   1.547   1.276 -0.3552  0.1882  0.7166
14737TIP3    H165702   3.507   1.457   1.290 -0.6036  0.0136  0.1663
14737TIP3    H265703   3.383   1.539   1.263 -0.8300  0.8164  3.2002
14738TIP3   OH265704   3.153   3.941   1.725 -0.3624 -0.1564  0.0320
14738TIP3    H165705   3.094   3.969   1.795  1.2487  0.7076  1.1112
14738TIP3    H265706   3.233   3.915   1.771  0.4763 -0.2721 -1.4554
14739TIP3   OH265707   4.519   6.612   2.550 -0.2648 -0.3074  0.9005
14739TIP3    H165708   4.462   6.554   2.600 -1.0097 -0.1463  0.2668
14739TIP3    H265709   4.458   6.666   2.499  0.4863 -1.8816 -1.7971
14740TIP3   OH265710   6.290   1.268  15.349 -0.6733 -0.4417  0.2418
14740TIP3    H165711   6.227   1.196  15.356 -0.1461 -0.9818 -0.3984
14740TIP3    H265712   6.361   1.232  15.295 -1.5060  1.3235 -2.1692
14741TIP3   OH265713   4.322   4.869   2.392 -0.2140  0.3554  0.2761
14741TIP3    H165714   4.373   4.892   2.315 -2.5485 -0.8321 -1.7629
14741TIP3    H265715   4.252   4.934   2.395 -0.5467 -0.0180  0.9925
14742TIP3   OH265716   4.520   6.395  15.216  0.1421 -0.0753  0.4035
14742TIP3    H165717   4.580   6.341  15.166  0.3348 -0.1379  0.7058
14742TIP3    H265718   4.495   6.342  15.291  0.6796  0.4142  0.9397
14743TIP3   OH265719   4.131   5.250   3.399  0.3948  0.1423 -0.1154
14743TIP3    H165720   4.077   5.297   3.462 -0.6734  0.7912 -1.4543
14743TIP3    H265721   4.160   5.317   3.337  1.3135 -0.4946 -0.4009
14744TIP3   OH265722   3.331   6.665   2.844  0.6277  0.0841  0.4243
14744TIP3    H165723   3.373   6.607   2.781 -0.8196  1.7448 -2.3064
14744TIP3    H265724   3.271   6.609   2.893 -0.3310 -0.8967 -1.7313
14745TIP3   OH265725   3.346   1.215  14.773 -0.3038  0.3429 -0.0031
14745TIP3    H165726   3.279   1.163  14.816 -0.6675  0.9502  0.1795
14745TIP3    H265727   3.362   1.288  14.833  0.3063  0.3575 -0.1833
14746TIP3   OH265728   3.876   3.693   1.864 -0.1890 -0.0575  0.5004
14746TIP3    H165729   3.967   3.705   1.837  0.2621  0.2392  2.0367
14746TIP3    H265730   3.845   3.781   1.884 -1.1685 -0.0343 -1.0043
14747TIP3   OH265731   1.231   6.342   3.146 -0.0398 -0.4203 -0.0606
14747TIP3    H165732   1.290   6.413   3.121  3.6751 -2.5297  1.8175
14747TIP3    H265733   1.199   6.307   3.063  3.7260 -0.8985 -1.5229
14748TIP3   OH265734   3.596   2.546   4.653 -0.0212 -0.5944 -0.3595
14748TIP3    H165735   3.600   2.488   4.577  0.8865 -0.8293 -0.1472
14748TIP3    H265736   3.649   2.622   4.628  1.3363 -1.2235  0.4661
14749TIP3   OH265737   0.181   4.358   2.921  0.0684 -0.1906 -0.1844
14749TIP3    H165738   0.158   4.275   2.963  1.8565 -1.0448 -0.7901
14749TIP3    H265739   0.231   4.333   2.843  2.0644  1.4423  0.4649
14750TIP3   OH265740   6.868   3.850   3.999 -0.1274 -0.4889  0.0604
14750TIP3    H165741   6.929   3.803   4.056 -0.0236 -1.7121 -1.0018
14750TIP3    H265742   6.873   3.804   3.916 -1.4926  0.2389 -0.4594
14751TIP3   OH265743   3.611   0.898   0.496  0.1181  0.3203 -0.2209
14751TIP3    H165744   3.533   0.926   0.448  0.2990 -0.3450 -0.9043
14751TIP3    H265745   3.680   0.895   0.431  0.4324 -0.3113  0.1382
14752TIP3   OH265746   0.752   0.934   0.228  0.6191 -0.2546  0.0323
14752TIP3    H165747   0.685   0.869   0.204  1.5645 -1.8895  1.5697
14752TIP3    H265748   0.787   0.901   0.311  1.9753  1.6258  0.2412
14753TIP3   OH265749   5.558   6.579  15.194 -0.2406 -0.2126  0.5071
14753TIP3    H165750   5.616   6.654  15.192 -0.3855 -0.1041  0.1557
14753TIP3    H265751   5.513   6.584  15.278  0.3495 -0.3702  0.8322
14754TIP3   OH265752   5.744   1.342   2.926 -0.6351  0.8604  0.2931
14754TIP3    H165753   5.688   1.417   2.947  1.1876  2.9715 -1.8514
14754TIP3    H265754   5.761   1.349   2.832  1.4642 -0.9201  0.4455
14755TIP3   OH265755   5.428   0.968   4.107 -0.1668 -0.0487  0.1915
14755TIP3    H165756   5.344   0.934   4.135  0.4555 -0.5448  1.5575
14755TIP3    H265757   5.409   1.021   4.029 -1.7024 -0.2177  0.4385
14756TIP3   OH265758   2.479   1.422   2.265  0.2077  0.2337  0.6225
14756TIP3    H165759   2.569   1.455   2.267 -0.5241  2.4247 -0.0426
14756TIP3    H265760   2.436   1.473   2.197 -1.3581 -1.3715  0.3318
14757TIP3   OH265761   3.432   3.929  12.906  0.0174 -0.1603 -0.2816
14757TIP3    H165762   3.342   3.944  12.934 -0.8258 -2.6379 -1.4024
14757TIP3    H265763   3.450   4.000  12.844 -1.2229  0.2427 -0.2005
14758TIP3   OH265764   0.260   3.677   0.437 -0.1472  0.4714  0.2837
14758TIP3    H165765   0.234   3.592   0.474  2.2072 -1.1508 -1.4676
14758TIP3    H265766   0.334   3.704   0.490  0.3794  0.3975 -0.4076
14759TIP3   OH265767   2.477   4.739  13.571  0.8978  0.1690  0.3075
14759TIP3    H165768   2.429   4.820  13.586  0.1142 -0.0410 -0.9039
14759TIP3    H265769   2.473   4.692  13.654  2.0288  1.6787  1.2698
14760TIP3   OH265770   7.203   5.949   2.824  0.1643  0.3774  0.3283
14760TIP3    H165771   7.218   5.862   2.786 -0.0100 -1.1128  3.3432
14760TIP3    H265772   7.119   5.941   2.869 -0.4834  2.5701 -0.3818
14761TIP3   OH265773   5.670   2.030   0.737 -0.2895 -0.4741 -0.6194
14761TIP3    H165774   5.642   2.102   0.681 -0.6059  0.1021  0.2525
14761TIP3    H265775   5.765   2.028   0.729 -0.2937 -0.0481 -0.7623
14762TIP3   OH265776   1.606   2.462   5.044  0.1188  0.7301  0.1265
14762TIP3    H165777   1.553   2.540   5.026  0.8756  1.0028 -1.0220
14762TIP3    H265778   1.681   2.470   4.986  0.1967 -0.8892 -0.0420
14763TIP3   OH265779   4.526   3.751  14.533  0.0822 -0.0038 -0.3548
14763TIP3    H165780   4.589   3.821  14.546 -0.0352  0.7845 -3.2881
14763TIP3    H265781   4.563   3.698  14.462 -0.9190 -1.5844  0.2540
14764TIP3   OH265782   3.080   2.395   2.365 -0.6392 -0.2719  0.4075
14764TIP3    H165783   3.101   2.472   2.311  0.4187 -1.8530 -1.5675
14764TIP3    H265784   3.164   2.351   2.378 -1.2325 -1.1298  1.4457
14765TIP3   OH265785   3.257   3.926   5.241  0.0703 -0.0083  0.2710
14765TIP3    H165786   3.178   3.890   5.281  0.3808  0.1160  1.0209
14765TIP3    H265787   3.227   3.965   5.159 -0.7856  0.7326  0.9085
14766TIP3   OH265788   5.808   6.205   3.107 -0.2313 -0.3049  0.0928
14766TIP3    H165789   5.759   6.187   3.026  1.1933 -0.4403 -0.7838
14766TIP3    H265790   5.831   6.118   3.140  0.5225 -0.2254 -0.2163
14767TIP3   OH265791   4.312   3.497  15.360  0.0781 -0.2394 -0.0890
14767TIP3    H165792   4.289   3.411  15.325 -0.5125  0.0969 -0.5302
14767TIP3    H265793   4.259   3.559  15.310  1.0651  0.4509 -0.3058
14768TIP3   OH265794   1.665   4.151   4.655  0.4134  0.2523 -0.1047
14768TIP3    H165795   1.602   4.123   4.722  0.1371  1.2698  0.0779
14768TIP3    H265796   1.715   4.220   4.698  1.1198 -0.0013 -0.5196
14769TIP3   OH265797   0.305   3.057   5.668 -0.3475  0.0699  0.2828
14769TIP3    H165798   0.260   3.077   5.750 -1.7977 -0.2215 -0.4183
14769TIP3    H265799   0.259   2.980   5.633  0.5320 -0.0864 -0.5844
14770TIP3   OH265800   3.092   1.469   5.749 -0.0043 -0.2183 -0.2268
14770TIP3    H165801   3.137   1.479   5.665  0.0479  2.4471  0.0321
14770TIP3    H265802   3.139   1.526   5.809 -1.5840 -0.0931  0.9733
14771TIP3   OH265803   2.557   1.634   0.685  0.3432  0.2379 -0.6033
14771TIP3    H165804   2.470   1.600   0.707  0.0634  1.0192 -0.4562
14771TIP3    H265805   2.593   1.570   0.624 -0.3525 -0.0803 -0.6948
14772TIP3   OH265806   5.564   5.349   4.630 -0.2256 -0.2748  0.3200
14772TIP3    H165807   5.563   5.308   4.544 -0.4363  1.2636 -0.4266
14772TIP3    H265808   5.628   5.419   4.623  0.4161 -0.6846  1.6997
14773TIP3   OH265809   3.464   1.911   5.700 -0.0000  0.0151  0.3184
14773TIP3    H165810   3.387   1.959   5.731  1.1208  1.1405  1.4253
14773TIP3    H265811   3.507   1.971   5.639  1.1863  0.3012  1.4022
14774TIP3   OH265812   3.796   4.419  15.329  0.1539  0.2107 -0.5490
14774TIP3    H165813   3.730   4.357  15.360  1.3121 -1.3146 -1.0186
14774TIP3    H265814   3.850   4.437  15.406  1.3835 -1.4514 -0.9666
14775TIP3   OH265815   1.719   3.973   2.359  0.2138 -0.2151  0.0203
14775TIP3    H165816   1.674   3.981   2.443  2.1008  1.6850  0.9294
14775TIP3    H265817   1.660   4.015   2.296  0.3176  1.5710  1.0545
14776TIP3   OH265818   5.735   1.184   4.225  0.3122  0.1329 -0.0787
14776TIP3    H165819   5.758   1.262   4.175 -1.3562  0.6051 -0.1454
14776TIP3    H265820   5.640   1.187   4.234  0.2746 -1.5227  0.5369
14777TIP3   OH265821   3.352   6.955   1.552 -0.0502  0.0769 -0.1954
14777TIP3    H165822   3.268   6.950   1.504 -1.6982  0.8195  2.4104
14777TIP3    H265823   3.337   6.905   1.632  1.8665  0.5959  0.5363
14778TIP3   OH265824   5.289   0.878  15.362  0.2490  0.1375 -0.0869
14778TIP3    H165825   5.231   0.860  15.289 -0.6589 -1.1083  0.8909
14778TIP3    H265826   5.254   0.958  15.402 -0.7057 -0.4821  0.3634
14779TIP3   OH265827   3.763   6.275  12.460 -0.0008 -0.0633 -0.2305
14779TIP3    H165828   3.670   6.255  12.466 -0.3264  0.6152 -2.2690
14779TIP3    H265829   3.805   6.216  12.524 -1.9529  1.0397  2.2341
14780TIP3   OH265830   5.311   6.342   4.311 -0.4340 -0.4039 -0.5768
14780TIP3    H165831   5.278   6.374   4.228  0.7500 -0.2735 -1.0164
14780TIP3    H265832   5.378   6.405   4.337 -0.0565 -1.0027 -0.0483
14781TIP3   OH265833   5.145   2.229   4.834 -0.1459  0.5240  0.1763
14781TIP3    H165834   5.207   2.227   4.762  1.4555 -0.1939  1.5040
14781TIP3    H265835   5.084   2.157   4.815  1.0087 -0.4888  0.1377
14782TIP3   OH265836   6.440   5.374   5.130 -0.0094  0.7620 -0.3097
14782TIP3    H165837   6.387   5.398   5.206  2.3593 -0.2287  1.8000
14782TIP3    H265838   6.507   5.442   5.125  1.6928 -0.7812  0.4839
14783TIP3   OH265839   1.288   3.053   4.736 -0.1901  0.4064 -0.1513
14783TIP3    H165840   1.337   3.135   4.734 -0.8861  0.8267 -0.6720
14783TIP3    H265841   1.313   3.012   4.818  0.2375  1.0985  0.0724
14784TIP3   OH265842   7.219   3.462   2.159 -0.1997 -0.5421  0.1475
14784TIP3    H165843   7.294   3.403   2.154 -1.2078 -1.8108 -0.8477
14784TIP3    H265844   7.253   3.540   2.203  1.9560 -0.6614 -1.1351
14785TIP3   OH265845   6.675   4.682   0.061  0.3589 -0.4609 -0.5839
14785TIP3    H165846   6.634   4.768   0.072  1.8609  0.4029 -1.3446
14785TIP3    H265847   6.720   4.667   0.144 -0.2337 -0.7225 -0.3002
14786TIP3   OH265848   6.423   0.330  14.584  0.1666  0.1415 -0.2884
14786TIP3    H165849   6.419   0.243  14.544  0.7267  0.3508 -0.8261
14786TIP3    H265850   6.392   0.317  14.673 -3.3213  0.0695 -1.3806
14787TIP3   OH265851   3.526   0.023  12.920 -0.0367  0.4715  0.7908
14787TIP3    H165852   3.439   0.060  12.907 -0.2073  0.7166  2.4618
14787TIP3    H265853   3.581   0.098  12.941  0.6716  0.3556 -0.5159
14788TIP3   OH265854   3.752   4.210   2.387  0.2275 -0.1905 -0.1471
14788TIP3    H165855   3.741   4.305   2.387  0.1794 -0.1850 -1.4465
14788TIP3    H265856   3.681   4.178   2.331 -0.6066 -1.1142  1.3688
14789TIP3   OH265857   2.856   4.966   3.387 -0.1820  0.2721 -0.8820
14789TIP3    H165858   2.875   4.914   3.309  1.6605 -0.5192  0.0164
14789TIP3    H265859   2.867   5.057   3.359 -0.8471  0.0730 -1.8390
14790TIP3   OH265860   2.818   1.319   0.805  0.4751 -0.0578  0.4298
14790TIP3    H165861   2.810   1.229   0.774 -1.1287  0.1466  0.1323
14790TIP3    H265862   2.774   1.319   0.890 -1.2097  0.7992 -0.3970
14791TIP3   OH265863   4.554   5.348   4.958  0.5158  0.0929  0.3412
14791TIP3    H165864   4.609   5.355   4.880  3.5726  0.4325  2.3475
14791TIP3    H265865   4.468   5.380   4.930  1.0377 -1.2003 -3.2067
14792TIP3   OH265866   2.748   6.605  13.843  0.1637 -0.4590  0.9815
14792TIP3    H165867   2.815   6.672  13.855  1.1880 -1.2301 -0.1868
14792TIP3    H265868   2.796   6.522  13.847 -0.4799 -0.9926 -1.0414
14793TIP3   OH265869   1.008   2.752   1.785  0.4017  0.2884  0.6098
14793TIP3    H165870   1.085   2.733   1.839 -0.7040 -0.4879  1.9734
14793TIP3    H265871   1.002   2.848   1.786 -1.2306  0.3269  4.4324
14794TIP3   OH265872   4.809   3.161   4.719  0.4440 -0.0727  0.3502
14794TIP3    H165873   4.733   3.208   4.755 -0.6802 -0.2968 -1.5766
14794TIP3    H265874   4.794   3.160   4.625  2.6225 -0.5847 -0.0470
14795TIP3   OH265875   4.846   7.057   0.996 -0.3058  0.2249  0.1575
14795TIP3    H165876   4.884   7.015   0.919 -1.0299 -0.2501  0.0493
14795TIP3    H265877   4.773   7.001   1.021  0.5476 -0.2258  1.8435
14796TIP3   OH265878   3.335   6.392   4.139  0.5045  0.0349 -0.6898
14796TIP3    H165879   3.421   6.431   4.156  1.1803 -1.6444 -0.0709
14796TIP3    H265880   3.329   6.319   4.200 -1.0212 -0.3997 -1.3108
14797TIP3   OH265881   2.924   0.121   4.656  0.0841 -0.0226 -0.1065
14797TIP3    H165882   2.902   0.054   4.590  0.4364 -0.8836  0.6197
14797TIP3    H265883   3.019   0.115   4.665  0.1731  0.8982 -0.3451
14798TIP3   OH265884   5.823   5.863   4.309 -0.8683 -0.3483 -0.6404
14798TIP3    H165885   5.831   5.951   4.271 -1.0379  0.6512  1.5049
14798TIP3    H265886   5.729   5.846   4.311 -0.9109 -0.0660  0.0051
14799TIP3   OH265887   4.843   0.242   4.708  0.1078  0.0851 -0.0974
14799TIP3    H165888   4.929   0.285   4.711  0.4879 -0.5820 -0.9262
14799TIP3    H265889   4.835   0.199   4.793  0.5768  0.1840 -0.0011
14800TIP3   OH265890   3.155   3.223   3.939 -0.4108 -0.2340 -0.5471
14800TIP3    H165891   3.172   3.315   3.918  0.1530 -0.0920  0.4812
14800TIP3    H265892   3.060   3.215   3.931 -0.3434  0.0772 -1.9922
14801TIP3   OH265893   0.705   0.499  14.928  0.2945 -0.3361  0.1383
14801TIP3    H165894   0.672   0.492  14.838 -1.1346  0.4604  0.5584
14801TIP3    H265895   0.788   0.453  14.927 -1.2830 -3.4611 -0.7684
14802TIP3   OH265896   4.399   0.196  10.579 -0.0559  0.2957  0.4613
14802TIP3    H165897   4.319   0.232  10.541 -0.3152  1.0490  1.6637
14802TIP3    H265898   4.375   0.172  10.668  0.9375  0.0755  0.6863
14803TIP3   OH265899   0.753   1.284   5.621 -0.4171 -0.0967 -0.3801
14803TIP3    H165900   0.783   1.232   5.547 -0.9469  0.0377 -0.6977
14803TIP3    H265901   0.786   1.238   5.698  2.2081  1.0693 -0.7221
14804TIP3   OH265902   4.961   3.031   0.797  0.3719 -0.0743  0.4090
14804TIP3    H165903   4.942   3.016   0.889  0.4014 -1.7148  0.1669
14804TIP3    H265904   4.892   3.091   0.768 -0.0854 -0.1451  1.3020
14805TIP3   OH265905   5.795   0.817  11.864  0.2415  0.1262 -0.4719
14805TIP3    H165906   5.787   0.802  11.959 -0.0109  1.1408 -0.3211
14805TIP3    H265907   5.756   0.739  11.824 -0.4096  0.0628  0.2648
14806TIP3   OH265908   6.828   0.444   4.254  0.3077 -0.3869  0.2742
14806TIP3    H165909   6.910   0.451   4.204  0.5498  0.1231  0.7280
14806TIP3    H265910   6.839   0.365   4.307 -1.0630 -2.5645 -2.4188
14807TIP3   OH265911   2.355   3.695  14.845 -0.2906  0.4848  0.1627
14807TIP3    H165912   2.440   3.726  14.876 -0.0555  0.7926 -0.7361
14807TIP3    H265913   2.302   3.684  14.924  1.0009 -1.0015  0.8693
14808TIP3   OH265914   5.585   0.203   5.110 -0.3339  0.0752  0.5036
14808TIP3    H165915   5.571   0.169   5.199  1.4209 -1.2203  0.3265
14808TIP3    H265916   5.676   0.232   5.110 -0.8648  1.8845 -0.3377
14809TIP3   OH265917   0.003   2.518   2.029 -0.3112 -0.0682  0.0680
14809TIP3    H165918   0.005   2.427   2.002 -0.9515  0.0911 -0.5363
14809TIP3    H265919  -0.061   2.560   1.971 -0.7573  0.5551  0.9699
14810TIP3   OH265920   2.855   0.653   1.071  0.2194  0.0186  0.2686
14810TIP3    H165921   2.908   0.683   1.144  0.4195  1.0386 -0.2633
14810TIP3    H265922   2.788   0.721   1.061  0.8880  0.5135 -1.2030
14811TIP3   OH265923   2.139   1.710   2.862 -0.7327 -0.0185 -0.4158
14811TIP3    H165924   2.075   1.677   2.799  0.2571 -1.7372 -0.5708
14811TIP3    H265925   2.106   1.796   2.887 -2.1217 -0.0952 -1.8729
14812TIP3   OH265926   0.022   0.782   4.341  0.1333  0.2103 -0.1821
14812TIP3    H165927   0.048   0.806   4.252  1.2098  0.4512  0.1831
14812TIP3    H265928   0.015   0.686   4.338 -1.7605  0.3350 -1.0087
14813TIP3   OH265929   6.070   0.362  10.914  0.2909  0.0681 -0.1650
14813TIP3    H165930   5.977   0.382  10.927 -0.5740 -3.5239  0.2488
14813TIP3    H265931   6.115   0.411  10.983 -1.0715  2.8096 -1.0811
14814TIP3   OH265932   3.870   3.863  12.292  0.0216 -0.2168  0.6217
14814TIP3    H165933   3.805   3.804  12.330 -0.7043  0.5838  0.6490
14814TIP3    H265934   3.941   3.866  12.356  0.3267 -1.4834  0.3712
14815TIP3   OH265935   2.121   6.939   4.922 -0.0055  0.0122  0.1355
14815TIP3    H165936   2.127   6.847   4.899  1.1259 -0.2979  1.4903
14815TIP3    H265937   2.028   6.957   4.929 -0.2355 -1.0320 -0.1528
14816TIP3   OH265938   3.247   4.918   1.807  0.0132 -0.3651 -0.0124
14816TIP3    H165939   3.174   4.866   1.842  1.0501 -2.0363 -0.2104
14816TIP3    H265940   3.207   5.000   1.779 -2.3078 -2.1545 -2.4481
14817TIP3   OH265941   3.753   4.946   3.576 -0.6485 -0.1222 -0.4333
14817TIP3    H165942   3.741   4.853   3.595  1.4108 -0.0887  1.3692
14817TIP3    H265943   3.775   4.949   3.483 -3.8212 -1.0416 -1.3412
14818TIP3   OH265944   6.429   4.686   4.643  0.5957 -0.4513  0.6773
14818TIP3    H165945   6.401   4.760   4.588  3.4811  0.7947  0.6521
14818TIP3    H265946   6.349   4.653   4.682 -0.8486  2.9071  0.9016
14819TIP3   OH265947   5.356   7.201   4.169 -0.5745  0.1477  0.2287
14819TIP3    H165948   5.395   7.260   4.234  0.6687 -0.0044 -0.3577
14819TIP3    H265949   5.359   7.115   4.210  0.9060 -0.0776 -0.2833
14820TIP3   OH265950   0.929   6.740   2.115 -0.0109 -0.6872 -0.1865
14820TIP3    H165951   0.914   6.707   2.203 -2.8288 -0.9415 -0.6413
14820TIP3    H265952   0.927   6.835   2.124 -1.4955 -0.6993 -0.0584
14821TIP3   OH265953   0.025   6.816   4.786 -0.1561  0.3078  0.1572
14821TIP3    H165954   0.051   6.856   4.869  1.3902  0.2188 -0.2595
14821TIP3    H265955   0.105   6.778   4.752 -0.8647 -0.0306 -1.1842
14822TIP3   OH265956   0.652   4.349   4.676 -0.0909  0.0249 -0.2240
14822TIP3    H165957   0.727   4.335   4.619  1.2585 -0.3597  1.5524
14822TIP3    H265958   0.601   4.417   4.632  2.0912  1.4084 -0.7720
14823TIP3   OH265959   2.633   3.761  11.798 -0.1994  0.5103 -0.0507
14823TIP3    H165960   2.542   3.791  11.789  0.3403  2.2122 -0.3293
14823TIP3    H265961   2.628   3.666  11.793 -1.7515  0.6432 -2.1368
14824TIP3   OH265962   2.923   3.930   0.457  0.3429  0.1908 -0.0632
14824TIP3    H165963   2.922   3.951   0.364  0.1981  1.9864  0.2996
14824TIP3    H265964   2.831   3.934   0.483  0.2794 -1.2434 -0.0171
14825TIP3   OH265965   0.830   6.508   3.979  0.2977  0.7743 -0.1634
14825TIP3    H165966   0.752   6.530   3.929  0.6460  0.0947 -1.0509
14825TIP3    H265967   0.903   6.535   3.922  0.7028  0.0476 -0.0089
14826TIP3   OH265968   5.453   3.282   3.079 -0.2123 -0.3859 -0.0386
14826TIP3    H165969   5.519   3.337   3.121 -1.2130  0.2644  0.7378
14826TIP3    H265970   5.371   3.306   3.122 -0.7148 -2.3822  0.2305
14827TIP3   OH265971   5.321   6.473   1.430  1.1702 -0.0776  0.0466
14827TIP3    H165972   5.362   6.501   1.348  1.8312  0.0005  0.3962
14827TIP3    H265973   5.228   6.490   1.417  1.3649  0.7489 -0.3719
14828TIP3   OH265974   1.546   4.913  10.604 -0.2122 -0.1463  0.4066
14828TIP3    H165975   1.469   4.892  10.551  0.9045 -0.8430 -1.0131
14828TIP3    H265976   1.606   4.840  10.590  1.2870  1.0458  0.3079
14829TIP3   OH265977   0.159   3.880   4.647  0.2876 -0.1631 -0.2230
14829TIP3    H165978   0.124   3.809   4.701 -1.2122 -0.1492 -1.1332
14829TIP3    H265979   0.202   3.836   4.574  0.0429 -0.1590 -0.3723
14830TIP3   OH265980   4.237   1.645   3.379  0.1549  0.2123 -0.2620
14830TIP3    H165981   4.232   1.603   3.464  3.1981 -0.6153 -0.3777
14830TIP3    H265982   4.281   1.728   3.395  1.7793 -0.4356 -1.1007
14831TIP3   OH265983   0.221   2.281   3.298  0.3807 -0.2161 -0.1121
14831TIP3    H165984   0.165   2.282   3.220 -0.1470 -1.3074  0.2176
14831TIP3    H265985   0.219   2.371   3.331 -0.3540 -0.0070 -0.6970
14832TIP3   OH265986   1.107   3.672   3.055  0.2949 -0.6796  0.3135
14832TIP3    H165987   1.194   3.643   3.082  1.0961  1.6691  0.4397
14832TIP3    H265988   1.081   3.737   3.121  0.3758  1.8907 -2.0104
14833TIP3   OH265989   3.826   6.909   5.723 -0.2863  0.1835  0.1844
14833TIP3    H165990   3.891   6.912   5.794  0.9897  0.5744 -0.9409
14833TIP3    H265991   3.802   7.001   5.709 -0.9458  0.0545  0.4769
14834TIP3   OH265992   4.487   5.876   5.313 -0.8053  0.2200  0.0515
14834TIP3    H165993   4.464   5.798   5.365 -0.4544  0.1717  0.1370
14834TIP3    H265994   4.447   5.860   5.228 -0.0868 -0.4179 -0.1763
14835TIP3   OH265995   5.708   1.102   4.505 -0.6248 -0.1378 -0.3857
14835TIP3    H165996   5.660   1.132   4.428  0.4051 -1.7545 -1.7225
14835TIP3    H265997   5.642   1.057   4.558 -1.0506 -0.3936 -1.1125
14836TIP3   OH265998   5.080   4.399   4.985 -0.2083 -0.7578 -0.5109
14836TIP3    H165999   4.985   4.390   4.995 -0.1534 -0.8344 -0.0254
14836TIP3    H266000   5.093   4.423   4.893 -0.7531  0.0348 -0.3874
14837TIP3   OH266001   2.941   1.756   5.405  0.1323  0.2730 -0.2863
14837TIP3    H166002   2.956   1.814   5.480  1.5451  1.9014 -1.7652
14837TIP3    H266003   2.855   1.782   5.372  1.2901  2.5391 -1.7192
14838TIP3   OH266004   5.755   2.846  14.498  0.2267  0.0307  0.6097
14838TIP3    H166005   5.793   2.930  14.471 -0.6208  0.2092 -0.0439
14838TIP3    H266006   5.799   2.826  14.581  0.5553  1.0394  0.6904
14839TIP3   OH266007   3.192   5.474  14.419  0.2288  0.8258 -0.0994
14839TIP3    H166008   3.152   5.434  14.342 -1.3262  0.9904  0.6015
14839TIP3    H266009   3.134   5.451  14.491  1.2378  1.3450  0.9103
14840TIP3   OH266010   2.608   2.442  14.845 -0.5292 -0.1150 -0.7759
14840TIP3    H166011   2.571   2.354  14.840  1.2559 -0.8641 -1.4116
14840TIP3    H266012   2.541   2.498  14.806 -2.2632 -0.9620  0.8092
14841TIP3   OH266013   1.861   2.367   4.660  0.2738 -0.4866  0.0617
14841TIP3    H166014   1.835   2.293   4.605  0.4925 -0.8471  0.4314
14841TIP3    H266015   1.950   2.387   4.633  0.2598 -0.4385  0.0499
14842TIP3   OH266016   3.703   1.978   3.042 -0.7682  0.0551  0.5187
14842TIP3    H166017   3.711   1.982   3.137 -1.6381 -0.0858  0.6104
14842TIP3    H266018   3.608   1.970   3.027 -0.5230 -1.7991 -0.2852
14843TIP3   OH266019   2.286   0.964   2.893 -0.8001  0.5425  0.1909
14843TIP3    H166020   2.329   0.879   2.881 -1.6569 -0.0748  1.3079
14843TIP3    H266021   2.256   0.988   2.806 -1.4521 -0.8096  0.0061
14844TIP3   OH266022   4.578   2.624  10.966  0.3693 -0.4775  0.8393
14844TIP3    H166023   4.587   2.716  10.990  0.5626 -0.3532  0.3228
14844TIP3    H266024   4.539   2.582  11.042 -2.3745  0.5501  0.1256
14845TIP3   OH266025   0.019   0.073   3.878  0.4378 -0.0025 -0.3414
14845TIP3    H166026   0.102   0.040   3.843 -0.2623 -0.8719 -1.2239
14845TIP3    H266027  -0.048   0.031   3.825 -0.5774  0.7867  0.2817
14846TIP3   OH266028   1.287   2.567   3.695  0.4494  0.1162 -0.1792
14846TIP3    H166029   1.323   2.552   3.783 -1.8066  0.6258  0.9175
14846TIP3    H266030   1.270   2.480   3.660  0.1460 -0.0863  0.4565
14847TIP3   OH266031   0.480   0.791   1.009 -0.2724 -0.1083 -0.3674
14847TIP3    H166032   0.391   0.819   1.031 -0.0248 -1.2865  2.6112
14847TIP3    H266033   0.476   0.696   1.006  0.4136 -0.1278 -2.9048
14848TIP3   OH266034   4.450   3.784   4.127  0.0654  0.0378 -0.0308
14848TIP3    H166035   4.454   3.845   4.201 -0.3830  1.7951 -1.3828
14848TIP3    H266036   4.541   3.772   4.101  0.1013  0.9612 -0.3727
14849TIP3   OH266037   6.333   5.992   2.735 -0.3279  0.4920  0.0879
14849TIP3    H166038   6.377   5.989   2.820  1.7744 -1.0000 -0.9608
14849TIP3    H266039   6.241   6.008   2.756 -0.0604 -0.8946  2.7130
14850TIP3   OH266040   1.257   6.477  11.013  0.1719 -0.0265 -0.5253
14850TIP3    H166041   1.175   6.492  11.061  0.2931  1.6282 -0.7836
14850TIP3    H266042   1.321   6.532  11.057  0.4759  0.9025 -2.0323
14851TIP3   OH266043   2.322   3.000   1.589  0.1987  0.5256  0.0762
14851TIP3    H166044   2.295   3.022   1.678  0.1531 -0.0094  0.1983
14851TIP3    H266045   2.255   2.939   1.557  1.0679 -0.5684  0.2736
14852TIP3   OH266046   6.830   5.540   3.949  0.0670 -0.7654 -0.1386
14852TIP3    H166047   6.846   5.634   3.942  0.3139 -0.8780 -1.3064
14852TIP3    H266048   6.771   5.520   3.876  1.0671 -1.7348 -0.7126
14853TIP3   OH266049   6.051   1.828   0.840 -0.1789 -0.4207  0.2671
14853TIP3    H166050   5.998   1.882   0.781 -0.0484 -0.5453  0.0352
14853TIP3    H266051   5.987   1.776   0.889 -0.4466  1.3008  1.8776
14854TIP3   OH266052   6.510   7.119   0.685  0.1314  0.4981 -0.1179
14854TIP3    H166053   6.578   7.086   0.744 -0.5888  3.0896  2.3513
14854TIP3    H266054   6.478   7.040   0.640  2.6127 -1.2130  0.8690
14855TIP3   OH266055   3.684   5.948   3.905 -0.6033  0.4200 -0.1375
14855TIP3    H166056   3.598   5.935   3.864 -1.1098 -0.7542  1.2161
14855TIP3    H266057   3.676   6.031   3.953 -2.1572 -1.1949  2.6482
14856TIP3   OH266058   5.124   5.852   3.160  0.1575 -0.1830 -0.4483
14856TIP3    H166059   5.196   5.859   3.222 -1.0048  0.4326  0.8877
14856TIP3    H266060   5.136   5.926   3.101 -0.0019  0.5875  0.4672
14857TIP3   OH266061   5.103   0.158   4.849 -0.0216  0.1778  0.1345
14857TIP3    H166062   5.072   0.132   4.935  1.4886  0.0976  0.6732
14857TIP3    H266063   5.149   0.241   4.864  1.8097 -0.7153 -0.2522
14858TIP3   OH266064   1.414   4.771  14.060 -0.0737  0.0440  0.2628
14858TIP3    H166065   1.370   4.828  13.997 -0.8062 -2.4017 -1.6039
14858TIP3    H266066   1.389   4.806  14.146 -0.2224  2.6325 -0.7508
14859TIP3   OH266067   4.733   4.239   0.674  0.2723  0.1180 -0.2751
14859TIP3    H166068   4.652   4.200   0.706 -0.6724  1.7015 -0.6156
14859TIP3    H266069   4.743   4.320   0.724  1.8844 -0.2506  0.0582
14860TIP3   OH266070   6.207   3.309  15.091 -0.2789  0.5259 -0.1376
14860TIP3    H166071   6.250   3.294  15.007 -1.7718  1.1634 -1.0528
14860TIP3    H266072   6.162   3.392  15.080 -1.5544 -0.0049  0.8476
14861TIP3   OH266073   5.708   2.279   2.231  0.7697 -0.1640  0.4953
14861TIP3    H166074   5.759   2.203   2.202  1.3612  0.1584  0.6638
14861TIP3    H266075   5.725   2.346   2.164 -1.9303 -1.0038 -1.1842
14862TIP3   OH266076   6.684   6.340   4.703  0.0776  0.1615  0.1941
14862TIP3    H166077   6.626   6.280   4.750 -0.2967  0.0110 -0.4444
14862TIP3    H266078   6.627   6.412   4.677  0.3157  0.3200  0.1070
14863TIP3   OH266079   6.429   4.482  13.811  0.2288 -0.1878  0.2305
14863TIP3    H166080   6.423   4.469  13.906 -0.7515 -1.2196  0.0580
14863TIP3    H266081   6.384   4.564  13.795 -3.8538 -2.1557  0.2595
14864TIP3   OH266082   6.809   7.014   5.547 -0.5050 -0.0974 -0.2806
14864TIP3    H166083   6.840   7.102   5.571  0.3182 -0.3469 -0.3981
14864TIP3    H266084   6.889   6.965   5.529 -0.9155 -1.1472  0.7147
14865TIP3   OH266085   3.649   2.069   0.715  0.2294  0.0623  0.0270
14865TIP3    H166086   3.561   2.069   0.678 -0.1461  2.3278  0.7363
14865TIP3    H266087   3.637   2.045   0.807  0.6383 -1.5205 -0.3031
14866TIP3   OH266088   5.912   4.267   5.574 -0.0577 -0.0547  0.7372
14866TIP3    H166089   5.822   4.299   5.574  0.1601  0.5766  1.1877
14866TIP3    H266090   5.903   4.172   5.575 -0.7187 -0.0026  0.4923
14867TIP3   OH266091   0.006   5.887   2.258 -0.3171  0.4274 -0.1339
14867TIP3    H166092  -0.008   5.822   2.188 -0.0025 -0.0576  0.2451
14867TIP3    H266093  -0.029   5.968   2.222 -1.7895 -0.1990 -0.1714
14868TIP3   OH266094   4.552   4.734   4.661  0.6109 -0.2981 -0.3686
14868TIP3    H166095   4.577   4.799   4.595 -0.2400  1.5929  1.0668
14868TIP3    H266096   4.457   4.726   4.651  0.4964 -0.1134  0.4816
14869TIP3   OH266097   3.470   2.816   5.476 -0.2144  1.0981  0.1464
14869TIP3    H166098   3.440   2.906   5.490  0.7748  1.0437  3.5735
14869TIP3    H266099   3.429   2.767   5.547  2.5023 -0.2734  0.8926
14870TIP3   OH266100   1.133   2.183  15.411  0.1161 -0.5299 -0.4371
14870TIP3    H166101   1.137   2.087  15.401 -0.3671 -0.3537 -2.8773
14870TIP3    H266102   1.189   2.201  15.486  0.2869 -2.7295  0.0370
14871TIP3   OH266103   0.847   3.587   4.784 -0.0435  0.0317  0.3709
14871TIP3    H166104   0.923   3.625   4.829  0.7865 -0.1218 -0.8374
14871TIP3    H266105   0.884   3.516   4.731 -1.0849 -0.2568  0.0085
14872TIP3   OH266106   4.331   6.325  12.418  0.1215  0.0341 -0.6507
14872TIP3    H166107   4.356   6.306  12.509  0.9811  0.0671 -0.8680
14872TIP3    H266108   4.236   6.312  12.416  0.0662  0.1912  0.2923
14873TIP3   OH266109   4.974   3.448   5.760 -0.0325 -0.7390 -0.1468
14873TIP3    H166110   4.989   3.372   5.704 -0.8208 -1.0798  0.0929
14873TIP3    H266111   4.893   3.428   5.806  0.1902 -0.1115  0.5335
14874TIP3   OH266112   4.572   1.931   5.668 -0.1382  0.4927  0.3403
14874TIP3    H166113   4.576   2.007   5.610 -0.6645 -0.6528 -1.2488
14874TIP3    H266114   4.495   1.946   5.722  0.8728  2.0155  1.4342
14875TIP3   OH266115   0.684   0.301   1.345  0.1029 -0.2621  0.2795
14875TIP3    H166116   0.765   0.336   1.380  0.7128 -0.8620 -0.5087
14875TIP3    H266117   0.683   0.209   1.373  0.6072 -0.7520 -1.2389
14876TIP3   OH266118   5.848   5.379   2.566  0.5242 -0.2329 -0.1426
14876TIP3    H166119   5.859   5.473   2.581  1.6208 -0.0999 -1.6344
14876TIP3    H266120   5.822   5.345   2.651  1.9277  1.1431  0.9009
14877TIP3   OH266121   4.703   6.051   5.796  0.1081  0.5238  0.4543
14877TIP3    H166122   4.788   6.019   5.825  0.3483  0.5508 -0.2011
14877TIP3    H266123   4.686   6.127   5.852  0.9778  1.1193 -0.0770
14878TIP3   OH266124   5.821   6.964  13.641  0.3132 -0.3178  0.0605
14878TIP3    H166125   5.780   6.892  13.688  0.0743 -0.6524 -0.6410
14878TIP3    H266126   5.871   6.921  13.571 -0.1341  0.2086 -0.5958
14879TIP3   OH266127   6.468   2.710   3.546 -1.3370 -0.0646 -0.6654
14879TIP3    H166128   6.485   2.646   3.476  0.8732  0.4975 -0.7077
14879TIP3    H266129   6.408   2.773   3.506  0.1062  0.4065 -2.2139
14880TIP3   OH266130   0.971   6.709  14.775 -0.0840 -0.1441 -0.1594
14880TIP3    H166131   0.993   6.638  14.834 -0.2505 -0.9331 -1.0294
14880TIP3    H266132   0.964   6.668  14.688 -1.2701  0.7174 -0.5065
14881TIP3   OH266133   4.302   1.075   2.460 -0.4582 -0.2662 -0.1738
14881TIP3    H166134   4.397   1.070   2.455 -0.4799  0.2172 -1.2279
14881TIP3    H266135   4.284   1.163   2.493 -0.5344 -0.4890  0.3873
14882TIP3   OH266136   0.544   6.430   1.587  0.1800 -0.0085 -0.1757
14882TIP3    H166137   0.469   6.439   1.646 -0.5668 -1.9705 -0.7225
14882TIP3    H266138   0.616   6.401   1.643 -0.1709 -0.5709 -0.0045
14883TIP3   OH266139   4.730   6.048  13.323 -0.1306 -0.3590 -0.9317
14883TIP3    H166140   4.769   6.116  13.269  0.3069  0.0980 -0.0624
14883TIP3    H266141   4.803   5.991  13.346 -0.2992 -0.5115 -0.7696
14884TIP3   OH266142   3.019   0.785  13.056 -0.0537  0.2753 -0.0356
14884TIP3    H166143   3.027   0.827  12.970 -2.3031  1.5864  0.2982
14884TIP3    H266144   3.106   0.792  13.094  0.9983 -0.2933 -2.1545
14885TIP3   OH266145   2.222   3.711   2.542  0.6166 -0.0036  0.1895
14885TIP3    H166146   2.294   3.759   2.583  2.3858 -2.1743 -0.1583
14885TIP3    H266147   2.263   3.667   2.467 -0.9903 -1.6243  0.2074
14886TIP3   OH266148   4.416   3.986   3.057 -0.3521 -0.2851 -0.8777
14886TIP3    H166149   4.369   3.915   3.099 -0.3915  1.5743  2.5583
14886TIP3    H266150   4.508   3.967   3.074 -0.4198  1.0877  1.2877
14887TIP3   OH266151   6.661   5.182  13.716 -0.1030  0.3132 -0.2397
14887TIP3    H166152   6.726   5.175  13.786  0.0014 -0.3010 -0.3921
14887TIP3    H266153   6.614   5.099  13.718 -0.9620  0.7940 -0.0608
14888TIP3   OH266154   3.538   3.932   4.193  0.6503 -0.1853  0.0009
14888TIP3    H166155   3.491   3.970   4.119  1.5901 -2.1959 -1.7346
14888TIP3    H266156   3.622   3.979   4.194  0.2950  0.4523  0.3772
14889TIP3   OH266157   4.618   4.888   1.909 -0.2798  0.0004 -0.4129
14889TIP3    H166158   4.621   4.822   1.978 -0.0555  0.0568 -0.3682
14889TIP3    H266159   4.529   4.884   1.876 -0.6069  0.4793  0.3816
14890TIP3   OH266160   3.894   5.386  14.598  0.3817 -0.2315  0.1636
14890TIP3    H166161   3.849   5.328  14.536  0.5608 -1.5370  1.2098
14890TIP3    H266162   3.902   5.469  14.551  1.7573 -1.5338 -2.1506
14891TIP3   OH266163   6.996   3.641  14.856 -0.0222  0.0258 -0.8596
14891TIP3    H166164   7.077   3.692  14.846  0.9741 -1.4860 -0.7989
14891TIP3    H266165   6.977   3.608  14.769  0.6565 -1.3648 -0.5203
14892TIP3   OH266166   5.423   6.734   3.417 -0.1628  0.2876 -0.6970
14892TIP3    H166167   5.374   6.651   3.414 -0.1260  0.2869 -1.6481
14892TIP3    H266168   5.356   6.800   3.433 -0.1535  0.0587  0.3919
14893TIP3   OH266169   2.786   6.370  11.379 -0.1582  0.0235 -0.1040
14893TIP3    H166170   2.704   6.334  11.411  1.4330 -1.7892  2.2668
14893TIP3    H266171   2.817   6.306  11.315  0.4055 -0.3965  0.5815
14894TIP3   OH266172   1.749   5.262   1.506  0.2510 -0.3711  0.6056
14894TIP3    H166173   1.712   5.341   1.467 -1.5760 -0.8271  1.3137
14894TIP3    H266174   1.745   5.278   1.600 -0.9414 -1.6191  0.7946
14895TIP3   OH266175   3.155   5.749   6.197 -0.4705 -0.4542  0.5478
14895TIP3    H166176   3.183   5.755   6.106 -0.7675 -2.1433  0.3021
14895TIP3    H266177   3.089   5.679   6.197 -0.9787 -0.0133  1.9445
14896TIP3   OH266178   0.079   7.077   4.378 -0.0876 -0.0874  0.2634
14896TIP3    H166179   0.099   7.092   4.286 -0.5275  2.2226  0.5013
14896TIP3    H266180   0.090   7.162   4.420 -0.1995 -1.0151  2.3072
14897TIP3   OH266181   0.380   4.514  14.134 -0.0941  0.0705 -0.1997
14897TIP3    H166182   0.352   4.434  14.092  0.3964  0.4369 -1.2649
14897TIP3    H266183   0.374   4.581  14.066  2.9342  0.2451 -0.4523
14898TIP3   OH266184   0.265   3.520   3.865  0.8263  0.2118  0.0389
14898TIP3    H166185   0.252   3.512   3.771  0.1748 -0.9652  0.2041
14898TIP3    H266186   0.314   3.601   3.876  0.4276  0.6515 -1.2656
14899TIP3   OH266187   0.510   4.403   0.640  0.5614 -0.1646  0.0673
14899TIP3    H166188   0.450   4.329   0.643  0.3329  0.0306  0.4097
14899TIP3    H266189   0.455   4.477   0.611  0.7522 -0.0974 -0.1244
14900TIP3   OH266190   4.330   1.757  14.498 -0.3022  0.0802 -0.1793
14900TIP3    H166191   4.331   1.853  14.490 -2.3197 -0.0346 -3.1145
14900TIP3    H266192   4.409   1.729  14.452 -1.2654  0.3083 -2.0891
14901TIP3   OH266193   3.274   6.986   1.129 -0.1353 -0.4200  0.0145
14901TIP3    H166194   3.220   7.010   1.204  0.9462 -0.0436  0.7062
14901TIP3    H266195   3.295   6.893   1.143  0.6968 -0.1574  0.6144
14902TIP3   OH266196   7.151   2.728   2.695  0.0363  0.1831  0.1169
14902TIP3    H166197   7.118   2.775   2.771 -0.3905  0.7888 -0.4341
14902TIP3    H266198   7.109   2.770   2.620 -1.3188 -1.8382 -0.3513
14903TIP3   OH266199   5.703   3.108   5.176 -0.0908 -0.2186  0.1102
14903TIP3    H166200   5.655   3.168   5.232 -1.6880 -1.0504 -0.3198
14903TIP3    H266201   5.752   3.052   5.236  0.6334  0.8362  0.5380
14904TIP3   OH266202   7.197   4.717   2.563 -0.6282 -0.3549  0.1888
14904TIP3    H166203   7.119   4.662   2.558 -0.2351 -0.8791 -0.3129
14904TIP3    H266204   7.268   4.656   2.583  0.0613 -0.2767 -1.7950
14905TIP3   OH266205   2.324   3.464  12.024 -0.1222 -0.2469 -0.3566
14905TIP3    H166206   2.373   3.392  11.985 -2.0895 -1.4075 -0.8133
14905TIP3    H266207   2.300   3.432  12.111 -1.5614 -0.4437 -0.7998
14906TIP3   OH266208   6.272   4.274   1.036  0.1888 -0.0484 -0.2287
14906TIP3    H166209   6.351   4.224   1.054 -0.5231 -1.2429 -0.3587
14906TIP3    H266210   6.265   4.335   1.110  0.4585 -0.9105  0.5261
14907TIP3   OH266211   5.524   5.839   3.706  0.4753 -0.0431 -0.3484
14907TIP3    H166212   5.532   5.788   3.787  1.0595  0.0661 -0.3296
14907TIP3    H266213   5.587   5.911   3.717 -0.6097  0.9145 -0.2044
14908TIP3   OH266214   1.963   2.118  14.035  0.7773 -0.3382 -0.0222
14908TIP3    H166215   1.912   2.177  14.091 -2.4416 -0.8386 -2.1630
14908TIP3    H266216   1.968   2.163  13.951 -0.1270 -2.2422 -1.1593
14909TIP3   OH266217   6.511   7.183   4.578 -0.0920  0.6131  0.0831
14909TIP3    H166218   6.446   7.118   4.551 -0.2355  1.2587 -1.2159
14909TIP3    H266219   6.495   7.196   4.671 -0.3910 -0.8323  0.2531
14910TIP3   OH266220   1.479   6.104  12.788  0.5869 -0.5724 -0.1809
14910TIP3    H166221   1.523   6.179  12.828  0.7680 -0.8076  0.0651
14910TIP3    H266222   1.389   6.134  12.772  0.6149 -0.3597  0.0648
14911TIP3   OH266223   4.944   5.674  15.376 -0.6396 -0.0055 -0.2552
14911TIP3    H166224   4.997   5.596  15.359 -1.0403 -0.4120  0.3167
14911TIP3    H266225   4.895   5.653  15.456 -1.6876  0.3327 -0.7800
14912TIP3   OH266226   3.092   2.081   2.043  0.0880 -0.1297  0.5303
14912TIP3    H166227   3.030   2.025   2.090 -1.5242  1.4071  0.3738
14912TIP3    H266228   3.178   2.053   2.072 -0.4639 -4.0137 -1.0131
14913TIP3   OH266229   0.995   4.978  15.403  0.2641 -0.2698  0.2677
14913TIP3    H166230   0.932   4.972  15.331  0.3329  0.1582  0.1697
14913TIP3    H266231   0.956   4.926  15.473 -0.7278  0.8580  0.5803
14914TIP3   OH266232   3.656   0.589   6.134  0.1818 -0.3310 -0.5141
14914TIP3    H166233   3.681   0.509   6.088 -0.8424 -0.4672 -0.8453
14914TIP3    H266234   3.609   0.559   6.211  0.5048 -0.0631 -0.2097
14915TIP3   OH266235   7.071   1.351   1.165 -0.3113 -0.0102 -0.0649
14915TIP3    H166236   7.041   1.285   1.228 -2.5685  1.1994  0.2312
14915TIP3    H266237   7.082   1.430   1.217  1.6552  0.0672 -0.5444
14916TIP3   OH266238   0.290   3.197   3.400  0.6206  0.1766 -0.2099
14916TIP3    H166239   0.321   3.193   3.310 -0.2241 -1.1348 -0.4637
14916TIP3    H266240   0.370   3.193   3.453  1.0321 -0.9209 -0.8814
14917TIP3   OH266241   2.846   3.950   3.481  0.1347  0.5306  0.1669
14917TIP3    H166242   2.932   3.971   3.519 -0.1731  2.1528  0.0358
14917TIP3    H266243   2.791   3.930   3.556  0.4799  0.0208  0.2903
14918TIP3   OH266244   0.202   0.253   5.656 -0.7746  0.0256  0.1871
14918TIP3    H166245   0.292   0.274   5.681 -1.1970  1.3268  0.7503
14918TIP3    H266246   0.150   0.323   5.696 -1.8724  0.2028 -1.4700
14919TIP3   OH266247   2.266   5.691   0.935 -0.2844 -0.2642 -0.5158
14919TIP3    H166248   2.212   5.628   0.888  1.8231 -2.1302 -0.5885
14919TIP3    H266249   2.222   5.704   1.019 -1.2251 -1.1300 -0.8697
14920TIP3   OH266250   0.554   4.282   2.393  0.1253  0.5373  0.1177
14920TIP3    H166251   0.617   4.298   2.324 -0.0895 -2.6762 -0.9852
14920TIP3    H266252   0.606   4.246   2.465 -0.1886 -0.8573 -0.3074
14921TIP3   OH266253   5.919   3.094   3.782  0.1024  0.5962 -0.7488
14921TIP3    H166254   5.936   3.056   3.695 -2.5844 -0.7986 -0.8024
14921TIP3    H266255   5.956   3.031   3.843 -1.3837 -0.4984 -0.9014
14922TIP3   OH266256   0.978   3.361   1.673  0.6124 -0.3187 -0.0969
14922TIP3    H166257   0.936   3.447   1.678  3.7811  1.3848  0.1362
14922TIP3    H266258   1.003   3.343   1.764  0.5699 -1.1645 -0.2528
14923TIP3   OH266259   0.397   1.088   2.910 -0.0710  0.3892  0.5572
14923TIP3    H166260   0.313   1.048   2.887  0.0788  0.5074 -0.2563
14923TIP3    H266261   0.429   1.037   2.984 -1.3418  1.0078  1.5610
14924TIP3   OH266262   4.396   1.178   0.748 -0.1667  0.6523 -1.0736
14924TIP3    H166263   4.328   1.180   0.815  0.5034 -0.7397 -0.3081
14924TIP3    H266264   4.376   1.101   0.695  1.2321 -0.2721 -0.3307
14925TIP3   OH266265   3.520   4.658   0.442 -0.7315 -0.3945 -0.1986
14925TIP3    H166266   3.544   4.743   0.479 -0.7590 -1.1224  1.5954
14925TIP3    H266267   3.604   4.614   0.426 -0.7088  0.0818 -1.4349
14926TIP3   OH266268   2.379   5.738   2.750  0.1824 -0.2949 -0.2095
14926TIP3    H166269   2.285   5.742   2.770  0.4381  1.9789  0.8455
14926TIP3    H266270   2.388   5.790   2.670  0.8383  1.9056  1.2177
14927TIP3   OH266271   1.855   2.237  14.262  0.0025 -0.0603  0.4369
14927TIP3    H166272   1.888   2.299  14.327  2.5127 -0.1572 -0.6300
14927TIP3    H266273   1.767   2.269  14.241 -0.1958  0.9810  2.5390
14928TIP3   OH266274   4.447   4.531   1.625  0.2319  0.4055 -0.3879
14928TIP3    H166275   4.516   4.501   1.567  0.3854  1.4381 -0.7566
14928TIP3    H266276   4.385   4.576   1.568 -0.9430 -0.8098 -0.1177
14929TIP3   OH266277   2.220   5.111   4.271 -0.2125 -0.6479  0.2001
14929TIP3    H166278   2.226   5.200   4.305  0.3702 -0.4587 -0.3891
14929TIP3    H266279   2.224   5.055   4.349 -0.3561 -0.1717  0.5507
14930TIP3   OH266280   4.226   3.289   4.258 -0.1455 -0.0567 -0.5144
14930TIP3    H166281   4.272   3.370   4.282  2.1277 -1.3338 -0.2151
14930TIP3    H266282   4.150   3.287   4.315 -0.1709  1.7782 -0.4111
14931TIP3   OH266283   2.856   2.843   1.561 -0.3073 -0.3791 -0.2734
14931TIP3    H166284   2.829   2.931   1.585 -2.0465 -0.7762 -0.6278
14931TIP3    H266285   2.826   2.788   1.634 -1.0646 -0.9123 -0.9575
14932TIP3   OH266286   5.698   6.316   4.873 -0.8937 -0.0272  0.3600
14932TIP3    H166287   5.680   6.322   4.967 -1.5464  1.3933  0.1737
14932TIP3    H266288   5.792   6.298   4.868 -0.8762 -0.2478  1.2780
14933TIP3   OH266289   1.947   5.988   5.548 -0.1658  0.3019  0.4794
14933TIP3    H166290   1.930   6.078   5.574  0.3007  0.1758  1.2644
14933TIP3    H266291   1.966   5.992   5.455 -2.0270  0.7617  0.0798
14934TIP3   OH266292   4.775   2.739   2.978 -0.8205  0.0599 -0.2995
14934TIP3    H166293   4.698   2.688   3.003 -1.3499  1.8812  2.3223
14934TIP3    H266294   4.740   2.819   2.941 -0.0718 -0.3403 -1.9404
14935TIP3   OH266295   4.864   7.183   4.893  0.2572 -0.9287 -0.0800
14935TIP3    H166296   4.817   7.260   4.925 -0.7802 -2.1799  1.6017
14935TIP3    H266297   4.796   7.129   4.852  1.2099 -0.3783 -2.5175
14936TIP3   OH266298   6.616   6.055   0.798  0.0737 -0.3121 -0.1068
14936TIP3    H166299   6.710   6.075   0.799  0.0813 -0.3743  1.0244
14936TIP3    H266300   6.608   5.972   0.844 -0.3712 -1.1896 -1.6795
14937TIP3   OH266301   1.614   6.902   4.995  0.4665  0.3624  0.1534
14937TIP3    H166302   1.577   6.990   4.991 -0.0090  0.2099  1.0126
14937TIP3    H266303   1.539   6.843   4.985  0.8437  0.0296 -0.9653
14938TIP3   OH266304   6.485   0.643   0.372  0.4451  0.2377 -0.1420
14938TIP3    H166305   6.510   0.552   0.383 -1.8845 -0.3093  1.7238
14938TIP3    H266306   6.417   0.642   0.304  0.4956  0.5841 -0.2029
14939TIP3   OH266307   3.919   5.271   9.887 -0.3571  0.0058 -0.1832
14939TIP3    H166308   3.826   5.271   9.910  0.0353  1.8081  1.7505
14939TIP3    H266309   3.947   5.361   9.905  2.1671 -0.9698  1.1211
14940TIP3   OH266310   5.126   3.564   1.203  0.0094  0.3474 -0.0984
14940TIP3    H166311   5.124   3.480   1.158  0.5363  0.6719 -0.7402
14940TIP3    H266312   5.108   3.629   1.135  1.1976  0.8737  0.0572
14941TIP3   OH266313   6.652   3.228   0.068  0.3813 -0.7445 -0.5867
14941TIP3    H166314   6.598   3.176   0.127  1.1694 -0.3779  0.4868
14941TIP3    H266315   6.603   3.309   0.055  0.0176 -0.9898 -0.7840
14942TIP3   OH266316   1.544   6.602  11.465 -0.0065 -0.2780 -0.2465
14942TIP3    H166317   1.481   6.569  11.400 -1.5662 -0.4439  1.2926
14942TIP3    H266318   1.542   6.537  11.535  0.7219  0.5215  0.5300
14943TIP3   OH266319   6.818   1.998   3.442 -0.3384  0.0905 -0.7511
14943TIP3    H166320   6.792   2.041   3.360  0.3692 -0.3959 -1.2462
14943TIP3    H266321   6.888   2.053   3.476  1.0737 -1.0102 -1.7587
14944TIP3   OH266322   6.265   2.647   4.471  0.5247 -0.2637 -0.4002
14944TIP3    H166323   6.240   2.701   4.547  0.2138  0.5341 -1.0561
14944TIP3    H266324   6.274   2.710   4.399 -1.2982 -1.2266 -1.5450
14945TIP3   OH266325   1.972   3.252   2.346 -0.0911 -0.1558  0.0671
14945TIP3    H166326   1.998   3.328   2.295  0.4227 -0.6449 -0.4133
14945TIP3    H266327   1.958   3.286   2.434  0.3218  0.4579 -0.0950
14946TIP3   OH266328   5.059   5.621   2.467  0.0383  0.1111  0.1409
14946TIP3    H166329   5.013   5.677   2.529 -2.0951 -1.4692  0.1248
14946TIP3    H266330   4.991   5.561   2.435  2.1183 -2.3526  0.0577
14947TIP3   OH266331   4.606   3.179   0.999 -0.4004 -0.3529  0.5450
14947TIP3    H166332   4.601   3.231   0.919 -1.1274 -0.5122  0.4855
14947TIP3    H266333   4.586   3.242   1.069 -0.9392 -0.4710  0.5010
14948TIP3   OH266334   2.099   5.680   2.329 -0.1634 -0.3542  0.3301
14948TIP3    H166335   2.076   5.632   2.409  0.6215  0.2726  0.9491
14948TIP3    H266336   2.015   5.700   2.288 -0.6165 -0.1148  1.3428
14949TIP3   OH266337   4.024   0.564   5.376 -0.1362 -0.6092 -0.2258
14949TIP3    H166338   3.956   0.504   5.406  0.5184 -0.8288  0.9322
14949TIP3    H266339   4.070   0.589   5.457  0.0717  0.8657 -0.7821
14950TIP3   OH266340   1.160   1.421   3.986  0.1578  0.0423  0.2712
14950TIP3    H166341   1.160   1.402   3.892 -1.2131  1.6849 -0.1126
14950TIP3    H266342   1.099   1.357   4.023 -0.6564  0.5043 -0.2430
14951TIP3   OH266343   4.872   1.011   2.077  0.1647 -0.2117 -0.3476
14951TIP3    H166344   4.827   1.003   2.161  1.1708 -2.7800  0.0268
14951TIP3    H266345   4.807   1.049   2.018 -1.0769  0.1202  1.1731
14952TIP3   OH266346   4.853   0.598   5.069 -0.1235 -0.0211 -0.0901
14952TIP3    H166347   4.935   0.595   5.117 -0.1133 -0.2223 -0.1220
14952TIP3    H266348   4.788   0.624   5.134 -0.0985 -0.2284  0.0182
14953TIP3   OH266349   0.817   4.075   4.841  0.1162 -0.1241  0.7317
14953TIP3    H166350   0.823   4.100   4.749  1.2564 -0.0329  0.8228
14953TIP3    H266351   0.755   4.002   4.842 -0.1166  0.0528 -0.0649
14954TIP3   OH266352   0.847   6.167   4.480 -0.6063  0.3300  0.5557
14954TIP3    H166353   0.896   6.129   4.406  0.1789 -0.5509  1.5017
14954TIP3    H266354   0.897   6.245   4.504  0.5695 -0.7306  1.7128
14955TIP3   OH266355   1.102   4.201   0.612 -0.3414 -0.3848 -0.5969
14955TIP3    H166356   1.194   4.205   0.586 -0.3949  1.7721 -0.6649
14955TIP3    H266357   1.104   4.173   0.704  0.4929  0.8019 -0.2322
14956TIP3   OH266358   0.010   6.499   5.081  0.1748  0.0637  0.1486
14956TIP3    H166359   0.030   6.486   4.989  0.7754  0.7530  0.1673
14956TIP3    H266360   0.056   6.428   5.126 -0.4913 -0.5436 -0.1063
14957TIP3   OH266361   6.966   1.655   2.864  0.4491 -0.2512 -0.5125
14957TIP3    H166362   6.944   1.748   2.864  0.7050 -0.1894 -0.2257
14957TIP3    H266363   7.006   1.641   2.778  0.3703 -0.1052 -0.5739
14958TIP3   OH266364   3.155   5.198   1.805  0.1296 -0.3428  0.0007
14958TIP3    H166365   3.188   5.287   1.811 -1.5858  0.2537  1.6255
14958TIP3    H266366   3.068   5.206   1.765 -0.2652 -1.1965  0.6339
14959TIP3   OH266367   0.133   4.800   5.135  0.1117  0.5074 -0.2296
14959TIP3    H166368   0.157   4.834   5.222 -0.3911  1.4387 -0.4405
14959TIP3    H266369   0.153   4.872   5.075 -0.8665  0.3886 -0.7101
14960TIP3   OH266370   2.309   7.014   0.807 -0.2044  0.5406 -0.2910
14960TIP3    H166371   2.249   7.074   0.852 -0.5660 -0.8537  1.1599
14960TIP3    H266372   2.256   6.936   0.790  1.2630 -0.9263  1.4801
14961TIP3   OH266373   3.987   0.696  13.785 -0.2073  0.0056 -0.7735
14961TIP3    H166374   4.057   0.633  13.795 -1.3463 -1.4789 -1.6536
14961TIP3    H266375   3.907   0.643  13.781 -1.4432  1.6369  0.5536
14962TIP3   OH266376   5.780   6.666  12.750  0.3720 -0.2421  0.3182
14962TIP3    H166377   5.706   6.606  12.734 -0.7227  0.4947  2.2617
14962TIP3    H266378   5.813   6.686  12.663 -2.8058  0.6865 -0.8384
14963TIP3   OH266379   4.482   6.503   1.515  0.3540 -0.7210  0.1378
14963TIP3    H166380   4.430   6.541   1.585  0.8512  0.9190 -0.3385
14963TIP3    H266381   4.439   6.420   1.494 -3.2131  1.3500 -1.4998
14964TIP3   OH266382   1.666   6.021   2.223  0.0149 -0.3547 -0.4016
14964TIP3    H166383   1.678   6.114   2.242 -1.0219  0.0551 -1.6565
14964TIP3    H266384   1.574   6.004   2.243  0.1436 -1.0757 -0.3848
14965TIP3   OH266385   1.712   6.649   3.146 -0.1280  0.0792  0.3958
14965TIP3    H166386   1.747   6.737   3.130  1.0712 -0.5327 -0.5303
14965TIP3    H266387   1.783   6.591   3.121 -1.3009 -1.1985 -0.0405
14966TIP3   OH266388   0.267   4.476   5.247 -0.0394  0.5680 -0.2215
14966TIP3    H166389   0.267   4.380   5.243  0.8166  0.5544 -0.2305
14966TIP3    H266390   0.176   4.501   5.237 -0.2849 -0.2545 -0.1218
14967TIP3   OH266391   7.145   3.829   3.070  0.2092 -0.5866 -0.4810
14967TIP3    H166392   7.141   3.742   3.030  1.4076 -0.3800 -1.0787
14967TIP3    H266393   7.203   3.818   3.145  0.4447 -0.2777 -0.6198
14968TIP3   OH266394   5.803   5.448   0.636 -0.0722 -0.3949 -0.2653
14968TIP3    H166395   5.837   5.535   0.655 -0.3189 -0.3913  0.1800
14968TIP3    H266396   5.822   5.397   0.715 -0.9457 -0.4302 -0.0589
14969TIP3   OH266397   0.191   5.377  14.394 -0.1578  0.3698  0.0036
14969TIP3    H166398   0.268   5.432  14.410 -0.1720  0.3079  0.2837
14969TIP3    H266399   0.195   5.309  14.461  0.4097 -0.5797 -0.9581
14970TIP3   OH266400   6.960   7.013   1.175  0.2944 -0.4094 -0.1037
14970TIP3    H166401   6.872   7.040   1.146  0.6845  1.0916  0.0169
14970TIP3    H266402   7.014   7.091   1.161  1.9007 -1.6754 -1.3260
14971TIP3   OH266403   5.873   6.521   3.909  0.1508  0.5840 -0.0970
14971TIP3    H166404   5.890   6.596   3.967  0.7309 -0.6374  1.3910
14971TIP3    H266405   5.909   6.548   3.825  2.7472  1.0623  1.0397
14972TIP3   OH266406   4.117   0.744   0.411  0.0151 -0.0790  0.1681
14972TIP3    H166407   4.211   0.726   0.421  0.2122 -0.4370 -1.8386
14972TIP3    H266408   4.105   0.754   0.317 -1.8755  0.5624  0.4414
14973TIP3   OH266409   1.246   1.051  11.852  0.0091  0.3214 -0.1871
14973TIP3    H166410   1.197   1.036  11.933  0.7060  0.7350  0.3275
14973TIP3    H266411   1.244   1.146  11.840 -2.3925  0.1267 -2.1517
14974TIP3   OH266412   2.798   1.402  12.555 -0.2517  0.1542  0.0267
14974TIP3    H166413   2.830   1.314  12.536 -0.8825  0.3907 -2.3895
14974TIP3    H266414   2.711   1.387  12.592 -0.6681 -0.2356 -1.0783
14975TIP3   OH266415   4.866   4.579   3.177  0.3512 -0.0679 -0.0238
14975TIP3    H166416   4.807   4.621   3.115  1.6197 -1.0571 -1.9974
14975TIP3    H266417   4.842   4.487   3.174 -0.6726  0.0455  2.2968
14976TIP3   OH266418   6.500   4.807   4.360  0.8688  0.5612  0.0315
14976TIP3    H166419   6.532   4.858   4.285  0.5543  2.1204  0.9234
14976TIP3    H266420   6.414   4.774   4.332  0.3832  1.8240 -0.0277
14977TIP3   OH266421   4.857   3.059   1.038 -0.6894  0.0848 -0.2280
14977TIP3    H166422   4.780   3.116   1.035  0.8150  2.2425 -1.8846
14977TIP3    H266423   4.907   3.090   1.113 -0.3411  0.2526 -0.5296
14978TIP3   OH266424   2.742   4.858   3.840  0.4200 -0.2213 -0.4275
14978TIP3    H166425   2.730   4.772   3.799 -0.3231  0.1328 -0.9854
14978TIP3    H266426   2.751   4.919   3.766  1.4669  0.1219 -0.0395
14979TIP3   OH266427   4.834   1.528   4.927  0.0225  0.1040 -0.5579
14979TIP3    H166428   4.911   1.572   4.890  1.6344 -0.8209  1.5179
14979TIP3    H266429   4.811   1.581   5.004 -1.0619  0.0096 -0.7992
14980TIP3   OH266430   1.607   0.212  12.490 -0.1854  0.3112 -0.0730
14980TIP3    H166431   1.613   0.156  12.567 -4.7845  0.8285  0.9375
14980TIP3    H266432   1.635   0.298  12.521  0.1372  0.0550  0.3589
14981TIP3   OH266433   6.313   2.970   3.152 -1.1082 -0.3562 -0.5524
14981TIP3    H166434   6.227   2.969   3.112 -0.6868 -0.3654 -1.4930
14981TIP3    H266435   6.371   3.005   3.084 -0.9832  3.8520  1.3939
14982TIP3   OH266436   3.603   4.747  14.673  0.1723  0.7203  0.4722
14982TIP3    H166437   3.665   4.803  14.720  1.6978 -1.9232  1.8713
14982TIP3    H266438   3.528   4.741  14.731  1.0714 -0.6464  1.5475
14983TIP3   OH266439   3.855   1.731   2.908  0.0734 -1.5523 -0.1367
14983TIP3    H166440   3.809   1.808   2.941  1.9719 -0.6155  0.4991
14983TIP3    H266441   3.819   1.716   2.821 -1.8013 -1.2456  0.5459
14984TIP3   OH266442   3.015   4.104   1.417  0.3560 -0.6549 -0.2797
14984TIP3    H166443   2.942   4.050   1.447 -0.3952  1.4917  2.0472
14984TIP3    H266444   2.977   4.162   1.351  0.5752 -1.1551 -0.8636
14985TIP3   OH266445   3.680   0.060  14.698 -0.6490  0.0786 -0.1287
14985TIP3    H166446   3.765   0.025  14.673 -0.6004 -0.3742  0.6422
14985TIP3    H266447   3.693   0.098  14.785 -1.5982 -1.5542  0.7919
14986TIP3   OH266448   5.654   3.997   3.344 -0.2250  0.4943  0.4523
14986TIP3    H166449   5.671   4.017   3.436 -1.1488  1.1663  0.4960
14986TIP3    H266450   5.568   3.955   3.344 -1.4377  2.7801 -0.3016
14987TIP3   OH266451   1.277   2.479   2.959  0.0277  0.2781  0.1391
14987TIP3    H166452   1.273   2.533   3.038 -0.0113  0.5512 -0.0523
14987TIP3    H266453   1.185   2.465   2.935  0.0264 -0.0967  0.3380
14988TIP3   OH266454   6.899   1.763   2.370 -0.3765  0.1098 -0.5682
14988TIP3    H166455   6.856   1.725   2.447  1.0046 -0.8463 -0.2364
14988TIP3    H266456   6.843   1.739   2.297  0.0740 -2.0175 -0.2781
14989TIP3   OH266457   5.247   0.241  11.736 -0.0420  0.5488 -0.5172
14989TIP3    H166458   5.195   0.198  11.668 -0.9809  0.3495  0.3015
14989TIP3    H266459   5.186   0.301  11.779  0.3722  0.2342  0.5459
14990TIP3   OH266460   1.176   0.246  13.858  0.0120 -0.3483  0.1265
14990TIP3    H166461   1.224   0.240  13.941 -0.1202  0.3109  0.2609
14990TIP3    H266462   1.211   0.175  13.804  0.4589 -0.4675  0.5658
14991TIP3   OH266463   2.364   5.013   1.708  0.1964 -0.3100 -0.4289
14991TIP3    H166464   2.383   4.921   1.728 -2.3251 -0.3725  2.3230
14991TIP3    H266465   2.375   5.059   1.791  0.3069  1.7378 -1.5017
14992TIP3   OH266466   3.296   4.498   1.062  0.2805  0.1168  0.4262
14992TIP3    H166467   3.348   4.468   1.137  0.6361  0.6393  0.3944
14992TIP3    H266468   3.248   4.421   1.034 -0.2185  0.0123  1.4906
14993TIP3   OH266469   0.705   5.087   3.980 -0.2358 -0.3751  0.4808
14993TIP3    H166470   0.642   5.060   4.047 -1.2586  0.3406 -0.1757
14993TIP3    H266471   0.734   5.004   3.940  0.9221 -0.8660  2.2367
14994TIP3   OH266472   1.329   0.519   0.354 -0.3433  0.2818 -0.5145
14994TIP3    H166473   1.310   0.608   0.326 -0.1404  0.8934  1.1721
14994TIP3    H266474   1.392   0.529   0.426  2.1348 -1.3941 -2.2805
14995TIP3   OH266475   1.122   5.685  14.219 -0.4393  0.0738  0.1753
14995TIP3    H166476   1.202   5.678  14.167 -0.0027  1.4671  0.5995
14995TIP3    H266477   1.125   5.611  14.279  0.1617 -0.2873 -0.2881
14996TIP3   OH266478   0.802   2.596   4.303 -0.8627  0.0412  0.1122
14996TIP3    H166479   0.872   2.634   4.355 -1.9116  1.4984  0.5322
14996TIP3    H266480   0.760   2.532   4.361 -0.2545 -0.4116  0.0565
14997TIP3   OH266481   0.245   4.570   0.829  0.0658  0.2824  0.1643
14997TIP3    H166482   0.236   4.490   0.778  0.5626  0.9171 -0.9679
14997TIP3    H266483   0.174   4.626   0.799 -0.0257  0.4335  0.6468
14998TIP3   OH266484   0.820   5.967  15.200  0.5167  0.4089 -0.0188
14998TIP3    H166485   0.877   5.947  15.274 -0.5980 -1.5134  0.3872
14998TIP3    H266486   0.784   5.882  15.173 -1.6218  1.4428 -0.6749
14999TIP3   OH266487   5.180   6.963   3.769 -0.2131  0.1105  0.5335
14999TIP3    H166488   5.223   6.994   3.689 -3.0610 -0.3046 -1.2948
14999TIP3    H266489   5.218   6.876   3.784 -1.1018 -0.7619 -1.7183
15000TIP3   OH266490   2.232   3.334   1.773  0.2358  0.1542 -0.0387
15000TIP3    H166491   2.240   3.241   1.794 -0.7287  0.7015  3.3209
15000TIP3    H266492   2.143   3.343   1.738 -0.5123  0.0997  1.7830
15001TIP3   OH266493   0.461   5.771  12.596  0.5617  0.5069  0.7395
15001TIP3    H166494   0.519   5.764  12.672 -0.6484  0.2246  1.6743
15001TIP3    H266495   0.373   5.757  12.632 -0.0550  0.5349 -0.6934
15002TIP3   OH266496   5.712   1.534   3.821  0.2990 -0.2382 -0.0866
15002TIP3    H166497   5.625   1.498   3.803 -0.0227  0.8399 -0.7743
15002TIP3    H266498   5.739   1.492   3.903 -0.6755 -0.9087 -0.0932
15003TIP3   OH266499   6.044   0.456   3.019 -0.6847 -0.3088 -0.0941
15003TIP3    H166500   5.992   0.395   3.071  1.1098 -1.2670  0.6878
15003TIP3    H266501   6.123   0.406   2.995  0.5689  1.5025  0.0555
15004TIP3   OH266502   4.408   1.703   5.436 -0.0215 -0.1496 -0.2505
15004TIP3    H166503   4.461   1.779   5.412 -1.1867  0.8788  0.3386
15004TIP3    H266504   4.441   1.678   5.523 -2.1702  2.1522  1.3498
15005TIP3   OH266505   3.277   6.113  14.038  0.2649  0.0732 -0.2842
15005TIP3    H166506   3.315   6.034  13.999  0.5328  0.1037 -0.0827
15005TIP3    H266507   3.335   6.184  14.010  1.4431 -0.1009  1.5259
15006TIP3   OH266508   0.782   1.756   2.942  0.4406 -0.4806 -0.3828
15006TIP3    H166509   0.805   1.829   2.885 -2.5862 -0.6332 -1.9488
15006TIP3    H266510   0.760   1.797   3.026  2.2147 -0.0081 -0.1027
15007TIP3   OH266511   3.643   6.911  14.839  0.4160  0.3896  0.0875
15007TIP3    H166512   3.548   6.922  14.829  0.4357 -0.1346 -0.8456
15007TIP3    H266513   3.661   6.938  14.929 -0.5622  0.8527  0.1627
15008TIP3   OH266514   3.474   5.048   4.805  0.3798 -0.0272 -0.2010
15008TIP3    H166515   3.524   5.060   4.885 -0.7954 -2.0549  0.9170
15008TIP3    H266516   3.407   5.117   4.808 -0.1153 -0.5379  0.9554
15009TIP3   OH266517   1.382   2.431   5.200  0.3604  0.5271  0.0945
15009TIP3    H166518   1.346   2.514   5.229 -0.7558  0.5405 -1.2605
15009TIP3    H266519   1.463   2.454   5.155  0.5978  0.7636  0.6288
15010TIP3   OH266520   4.047   2.382  12.928 -0.7072 -0.1805 -0.0549
15010TIP3    H166521   3.991   2.321  12.881 -1.2732 -0.1539  0.5724
15010TIP3    H266522   4.016   2.379  13.018  1.5778 -1.6835  0.7625
15011TIP3   OH266523   0.836   2.402   2.482 -0.5807  0.2326 -0.5670
15011TIP3    H166524   0.746   2.434   2.474  0.4006  2.9848 -1.8254
15011TIP3    H266525   0.890   2.478   2.463  2.0538 -1.8715 -2.1423
15012TIP3   OH266526   2.831   6.726  11.993 -0.1285 -0.2111  0.5923
15012TIP3    H166527   2.790   6.811  11.981  0.9473  0.3621  0.9027
15012TIP3    H266528   2.759   6.663  11.979 -0.6259  0.6629 -1.0495
15013TIP3   OH266529   5.142   4.969   2.753  0.4711  0.2689 -0.1815
15013TIP3    H166530   5.233   4.977   2.778  0.5913  2.3145 -1.0985
15013TIP3    H266531   5.121   4.876   2.767  2.4452 -0.0781  0.7389
15014TIP3   OH266532   2.174   2.032  11.643 -0.3269  0.5217  0.7410
15014TIP3    H166533   2.121   2.075  11.710  0.2120 -0.5521  1.8975
15014TIP3    H266534   2.169   1.939  11.664  0.4631  0.2280 -0.2791
15015TIP3   OH266535   4.103   5.726   0.401  0.1956  0.0726 -0.0931
15015TIP3    H166536   4.079   5.818   0.415 -2.3206 -0.3926 -0.8581
15015TIP3    H266537   4.030   5.690   0.350  1.3118 -2.2597 -0.1460
15016TIP3   OH266538   0.313   5.885   1.000 -0.4791 -0.0450  0.1821
15016TIP3    H166539   0.249   5.867   0.931 -0.4532  2.4752 -0.5925
15016TIP3    H266540   0.379   5.816   0.990 -1.3081 -0.6839 -1.2449
15017TIP3   OH266541   5.207   1.257  14.589 -0.0878 -1.0042 -0.1557
15017TIP3    H166542   5.166   1.185  14.541 -1.1622 -0.2865 -0.3319
15017TIP3    H266543   5.181   1.336  14.543  0.5749 -0.4421  0.3957
15018TIP3   OH266544   4.274   7.078   2.689  0.5723  0.1117 -0.0461
15018TIP3    H166545   4.336   7.143   2.657 -0.1927  1.0170  0.2644
15018TIP3    H266546   4.327   7.001   2.707  1.4794  0.6126 -0.5276
15019TIP3   OH266547   2.986   4.907   2.782  0.2018 -0.7780 -0.3482
15019TIP3    H166548   2.938   4.889   2.701  1.1243  0.3694 -1.1840
15019TIP3    H266549   3.078   4.891   2.759  0.3938 -1.2865  0.7334
15020TIP3   OH266550   4.823   1.845   3.309  0.1897 -0.1265 -0.0673
15020TIP3    H166551   4.817   1.807   3.222 -2.3440 -0.5358  0.2155
15020TIP3    H266552   4.861   1.931   3.295  1.6601 -0.9128 -1.2875
15021TIP3   OH266553   3.570   5.171   5.111 -0.2650  0.2041  0.3538
15021TIP3    H166554   3.620   5.237   5.159 -0.5349 -0.3837  1.4746
15021TIP3    H266555   3.597   5.088   5.150 -2.3543 -0.1091  1.2470
15022TIP3   OH266556   6.626   6.676   5.376  0.3688 -0.4508 -0.2699
15022TIP3    H166557   6.653   6.604   5.433 -0.6497 -0.9526 -0.4050
15022TIP3    H266558   6.696   6.684   5.311  1.0864 -0.4888  0.4849
15023TIP3   OH266559   4.982   5.128   3.070  0.0378  0.5251 -0.5660
15023TIP3    H166560   4.934   5.112   2.988 -1.1421  1.6036 -0.1204
15023TIP3    H266561   5.019   5.216   3.059  1.2097  0.0466 -0.5527
15024TIP3   OH266562   4.728   0.588   3.962 -0.4721  0.0316  0.3435
15024TIP3    H166563   4.720   0.509   3.908 -1.2808  0.1716  0.2404
15024TIP3    H266564   4.818   0.618   3.948  0.0819 -1.2599  0.9326
15025TIP3   OH266565   7.073   6.924   3.265  0.8417  0.2926  0.5491
15025TIP3    H166566   6.984   6.892   3.247  0.4649  1.4172  0.3666
15025TIP3    H266567   7.126   6.884   3.196  0.5516 -0.6421  0.8437
15026TIP3   OH266568   5.939   3.951   2.761 -0.0287 -0.0024 -0.1991
15026TIP3    H166569   5.993   3.994   2.694 -0.2277 -0.2527 -0.5239
15026TIP3    H266570   5.892   3.882   2.714  0.0875 -0.4067  0.2707
15027TIP3   OH266571   2.060   4.687   4.908  0.1391  0.3071  0.3223
15027TIP3    H166572   2.017   4.605   4.934  1.0597  0.5029  2.7491
15027TIP3    H266573   2.150   4.676   4.937  0.5472  1.7606 -0.3401
15028TIP3   OH266574   2.716   0.196   2.291 -0.2411  0.5304 -0.1639
15028TIP3    H166575   2.803   0.158   2.281 -0.9125 -2.0360  2.2996
15028TIP3    H266576   2.729   0.274   2.345  0.5522  0.2312  0.0851
15029TIP3   OH266577   0.712   4.398   2.722 -0.4397 -0.1007  0.3159
15029TIP3    H166578   0.783   4.389   2.785 -0.8579 -0.3805  0.7598
15029TIP3    H266579   0.671   4.482   2.744  1.2948  1.3210 -1.5660
15030TIP3   OH266580   3.332   2.685   5.653  0.0455  0.0554  0.2376
15030TIP3    H166581   3.326   2.590   5.659 -3.0193  0.1430  0.0516
15030TIP3    H266582   3.252   2.717   5.695  0.1415  2.4575 -1.1946
15031TIP3   OH266583   0.403   0.571   5.640 -0.4848 -0.1195  0.5282
15031TIP3    H166584   0.445   0.491   5.673  1.1245  0.2389 -0.5280
15031TIP3    H266585   0.330   0.586   5.700 -0.1496 -1.7589  1.4165
15032TIP3   OH266586   2.831   5.861   2.789  0.0975  0.2271 -0.6445
15032TIP3    H166587   2.773   5.797   2.829  0.7658  0.4503  0.7179
15032TIP3    H266588   2.875   5.812   2.719  0.8211 -0.9207  0.5671
15033TIP3   OH266589   5.615   4.494   3.643 -0.2272 -0.2522  0.1037
15033TIP3    H166590   5.611   4.541   3.559 -1.5690  0.3123  0.4591
15033TIP3    H266591   5.682   4.426   3.629  1.2442  1.2706 -0.6660
15034TIP3   OH266592   3.766   0.953  12.750 -0.1234 -0.2369  0.0499
15034TIP3    H166593   3.768   0.931  12.843  1.7814 -0.1930  0.0632
15034TIP3    H266594   3.830   1.024  12.741 -1.1828  0.6167 -1.1068
15035TIP3   OH266595   7.204   4.477   5.196  0.6953 -0.4064 -0.3923
15035TIP3    H166596   7.168   4.497   5.110 -0.0424 -0.4217 -0.0883
15035TIP3    H266597   7.192   4.383   5.206 -1.1777 -0.1088  0.5958
15036TIP3   OH266598   5.068   3.155   3.405 -0.1401  1.0219  0.5065
15036TIP3    H166599   5.110   3.174   3.321 -3.7865  0.3308 -1.7144
15036TIP3    H266600   5.043   3.241   3.440  0.9531  1.2826  0.6749
15037TIP3   OH266601   1.089   1.177  14.177 -0.0552  0.4290  0.2190
15037TIP3    H166602   1.010   1.123  14.172 -0.1377  0.6162 -0.5939
15037TIP3    H266603   1.158   1.122  14.138 -0.1439  0.8978 -0.6241
15038TIP3   OH266604   1.027   1.712   3.821 -0.2766 -0.1533  0.6929
15038TIP3    H166605   0.973   1.642   3.785  1.2185 -0.5833 -0.8323
15038TIP3    H266606   0.965   1.779   3.849 -1.7041 -1.7098  1.4170
15039TIP3   OH266607   6.874   4.905   2.896 -0.3193 -0.1220  0.0408
15039TIP3    H166608   6.945   4.926   2.836 -0.7220 -0.5098 -0.5811
15039TIP3    H266609   6.906   4.830   2.947  0.5154  0.9903  1.2016
15040TIP3   OH266610   1.336   6.120  14.155  0.0544  0.8426  0.2655
15040TIP3    H166611   1.270   6.179  14.119 -0.7774 -1.1991 -1.8788
15040TIP3    H266612   1.285   6.058  14.208  0.5752  0.5849  0.4710
15041TIP3   OH266613   1.706   0.663   3.886 -0.3293 -0.2679 -0.2383
15041TIP3    H166614   1.626   0.711   3.906  0.2487  0.9066 -0.6244
15041TIP3    H266615   1.679   0.572   3.880 -1.8341  0.2063 -1.3732
15042TIP3   OH266616   3.850   5.641   1.713  0.4253  0.3727 -0.0672
15042TIP3    H166617   3.801   5.559   1.714  1.6228 -0.3625 -0.3165
15042TIP3    H266618   3.791   5.703   1.670  0.1193 -0.7460 -1.3174
15043TIP3   OH266619   2.366   5.368   0.620 -0.3796 -0.5680 -0.0473
15043TIP3    H166620   2.283   5.321   0.623 -0.5425 -0.2508  1.8154
15043TIP3    H266621   2.407   5.339   0.538 -1.8471 -1.5181 -0.4943
15044TIP3   OH266622   3.893   5.542   0.310  0.2363  0.0809 -0.1479
15044TIP3    H166623   3.812   5.564   0.357  0.1790  0.5911 -0.4810
15044TIP3    H266624   3.875   5.457   0.270 -0.1676  0.2275 -0.2846
15045TIP3   OH266625   0.765   0.031   3.082 -0.4507  0.3496 -0.7499
15045TIP3    H166626   0.717  -0.046   3.054 -0.2330 -0.7359  1.6409
15045TIP3    H266627   0.852  -0.002   3.105 -0.5404  1.1608  0.8742
15046TIP3   OH266628   2.637   3.700   0.615  0.2710  0.6822 -0.8680
15046TIP3    H166629   2.674   3.615   0.640  1.4915  1.9958  2.3608
15046TIP3    H266630   2.607   3.688   0.524  0.6688 -3.0428 -0.6530
15047TIP3   OH266631   6.018   6.119   3.680  0.1553 -0.3589  0.3243
15047TIP3    H166632   6.075   6.196   3.673 -1.1329  0.5496 -0.6744
15047TIP3    H266633   5.934   6.148   3.644 -0.8317 -1.7846  1.3516
15048TIP3   OH266634   6.720   6.988   3.310  0.0909  0.2135 -0.2765
15048TIP3    H166635   6.804   7.028   3.331 -0.9157  1.0406  2.6033
15048TIP3    H266636   6.657   7.061   3.312 -1.1402 -0.8243  0.7051
15049TIP3   OH266637   5.327   0.635   2.779 -0.2817 -0.0739 -0.0547
15049TIP3    H166638   5.317   0.555   2.728  1.0838  0.9128 -2.0086
15049TIP3    H266639   5.247   0.684   2.765 -0.3615 -0.2925 -0.3530
15050TIP3   OH266640   0.075   3.813   0.599  0.2071 -0.1597 -0.5074
15050TIP3    H166641   0.121   3.745   0.550  1.7554 -0.2299  0.9749
15050TIP3    H266642   0.134   3.888   0.597  0.4437 -0.2415  1.4283
15051TIP3   OH266643   5.902   5.990   4.946 -0.0179 -1.0066 -0.2720
15051TIP3    H166644   5.981   6.043   4.951 -0.2488 -0.7593  1.6723
15051TIP3    H266645   5.932   5.907   4.908  0.5331  0.1111 -2.4055
15052TIP3   OH266646   0.223   0.984   0.581  0.5425 -0.2494 -0.3565
15052TIP3    H166647   0.245   0.919   0.514  0.6423  0.2452 -0.8166
15052TIP3    H266648   0.144   1.027   0.547 -0.5498 -1.2822  0.7695
15053TIP3   OH266649   5.848   1.440   3.576 -0.7380  0.1624  0.0099
15053TIP3    H166650   5.762   1.456   3.539 -0.0541 -0.6187 -2.0474
15053TIP3    H266651   5.833   1.435   3.670 -2.8216  0.6836 -0.2510
15054TIP3   OH266652   0.580   2.659  12.938  0.1727  0.1942 -0.1219
15054TIP3    H166653   0.583   2.622  12.849  1.5322  2.4939 -1.1304
15054TIP3    H266654   0.671   2.664  12.965 -0.1311  0.7634  0.8398
15055TIP3   OH266655   0.087   5.493   2.708  0.1620 -0.0900 -0.2770
15055TIP3    H166656   0.179   5.519   2.719  0.2712 -0.9940  1.2910
15055TIP3    H266657   0.039   5.575   2.700  0.9735  0.4471  0.2082
15056TIP3   OH266658   6.639   3.611   3.978 -0.4329 -1.2502  0.0747
15056TIP3    H166659   6.593   3.584   3.898  1.7568  0.2450 -1.8369
15056TIP3    H266660   6.627   3.706   3.981  1.4087 -0.9895  0.1830
15057TIP3   OH266661   3.105   6.830   5.710 -0.2113  0.0503 -0.1727
15057TIP3    H166662   3.038   6.840   5.778 -0.1321 -0.3890 -0.0259
15057TIP3    H266663   3.088   6.743   5.673  0.9569 -0.5492  0.6279
15058TIP3   OH266664   0.187   6.860   5.469  0.1959  0.1133  0.0683
15058TIP3    H166665   0.142   6.782   5.436 -0.9679  1.5001 -1.8291
15058TIP3    H266666   0.257   6.876   5.407  2.1187 -0.8446  1.8873
15059TIP3   OH266667   5.668   4.683   2.708  0.0124 -0.3122  0.3882
15059TIP3    H166668   5.605   4.686   2.780  0.0223 -1.0499  0.4308
15059TIP3    H266669   5.741   4.631   2.741  0.7576  0.7233  0.4155
15060TIP3   OH266670   1.107   5.439   4.752  0.0072 -0.5155  0.6322
15060TIP3    H166671   1.105   5.533   4.736  0.0149 -0.5129  0.6461
15060TIP3    H266672   1.031   5.405   4.704 -0.1961 -0.4565  0.9060
15061TIP3   OH266673   3.016   1.112   1.134  0.1481 -0.4555 -0.0557
15061TIP3    H166674   3.003   1.108   1.229  0.2796  0.6429  0.0271
15061TIP3    H266675   2.955   1.049   1.098 -3.3406  2.2886  0.4718
15062TIP3   OH266676   1.932   6.248  11.579 -0.8398 -0.4135 -0.5779
15062TIP3    H166677   1.949   6.231  11.672  3.3495  0.3782 -0.9837
15062TIP3    H266678   1.942   6.163  11.537 -0.0859 -0.3575 -0.5316
15063TIP3   OH266679   4.963   6.866   4.871 -1.1316 -0.1838 -0.1225
15063TIP3    H166680   5.006   6.948   4.846 -2.0998  1.2454  2.4845
15063TIP3    H266681   4.885   6.893   4.920  0.4156 -2.4431  4.1540
15064TIP3   OH266682   5.624   6.365   3.413  0.6547  0.9356  0.3853
15064TIP3    H166683   5.682   6.433   3.379 -0.6512  1.3097 -1.2784
15064TIP3    H266684   5.560   6.351   3.342  0.3165 -1.3469  1.0542
15065TIP3   OH266685   2.979   3.321   2.463 -0.2195  0.3094  0.0686
15065TIP3    H166686   2.943   3.301   2.550 -1.0185  0.1478 -0.2938
15065TIP3    H266687   2.994   3.235   2.423  1.5741  0.3306  0.5937
15066TIP3   OH266688   3.955   2.646  14.402 -0.2735  0.4589  0.1304
15066TIP3    H166689   3.867   2.681  14.387  0.0164  0.7231 -1.0364
15066TIP3    H266690   3.951   2.557  14.365 -0.1305  0.3541  0.3633
15067TIP3   OH266691   2.221   1.956   3.378 -0.1554  0.6398  0.0337
15067TIP3    H166692   2.226   1.957   3.474  0.0311  1.6397  0.0206
15067TIP3    H266693   2.242   1.865   3.354 -1.0318  0.1691  0.9696
15068TIP3   OH266694   7.130   0.799   3.702  0.4227  0.6277  0.6921
15068TIP3    H166695   7.130   0.863   3.773 -2.0296  0.4538  0.9307
15068TIP3    H266696   7.145   0.850   3.623 -0.0212  1.2920  1.0315
15069TIP3   OH266697   2.291   2.088   4.475 -0.1579 -0.1040  0.3783
15069TIP3    H166698   2.219   2.120   4.422 -3.1404 -0.3141  3.8659
15069TIP3    H266699   2.323   2.165   4.521 -0.5810 -0.5295  1.4203
15070TIP3   OH266700   4.014   2.819   0.034 -0.3160  0.1985  0.4025
15070TIP3    H166701   4.039   2.755   0.100 -1.5440 -0.3226  0.3900
15070TIP3    H266702   3.927   2.849   0.060  0.1323  1.7211  0.2842
15071TIP3   OH266703   3.477   1.796   2.748  0.1751  0.2154  0.2314
15071TIP3    H166704   3.406   1.858   2.764  0.8641  1.3048 -0.7651
15071TIP3    H266705   3.435   1.710   2.751 -1.4491  0.8818 -1.5027
15072TIP3   OH266706   4.353   4.480   1.327 -0.4706  0.1060 -0.0344
15072TIP3    H166707   4.292   4.408   1.309 -2.2810  1.0846  1.8406
15072TIP3    H266708   4.433   4.437   1.357 -1.5655 -1.1651  1.1926
15073TIP3   OH266709   2.638   2.469   4.479 -0.8098  0.0030  0.0131
15073TIP3    H166710   2.701   2.403   4.452 -2.0584 -1.6629  0.9968
15073TIP3    H266711   2.584   2.485   4.401 -0.4237 -0.0339 -0.2625
15074TIP3   OH266712   4.923   2.593   3.448  0.0691 -0.6033  0.0544
15074TIP3    H166713   4.856   2.660   3.448  1.5115  0.9536  1.9888
15074TIP3    H266714   4.968   2.603   3.364 -0.3314  0.1975 -0.0684
15075TIP3   OH266715   2.806   0.676   1.824  0.6783 -0.1147  0.7274
15075TIP3    H166716   2.857   0.598   1.803 -0.5686 -0.9270  0.6324
15075TIP3    H266717   2.869   0.736   1.863  2.0387 -0.4747 -0.8085
15076TIP3   OH266718   4.998   6.930   2.466  0.3844  0.7565  0.1528
15076TIP3    H166719   5.025   6.843   2.439  2.5909  2.2903 -3.3237
15076TIP3    H266720   5.069   6.962   2.521  0.0086  0.6596  0.6939
15077TIP3   OH266721   2.318   4.688  14.891  0.5328  0.1998 -0.5051
15077TIP3    H166722   2.229   4.657  14.908  0.5182  1.2727  1.7658
15077TIP3    H266723   2.373   4.610  14.901  0.0427 -0.0671  0.2074
15078TIP3   OH266724   2.352   3.765   3.514 -0.0809 -0.0493  0.5722
15078TIP3    H166725   2.322   3.757   3.423  1.2391  3.2559 -0.3145
15078TIP3    H266726   2.271   3.773   3.565 -0.8287  0.0724 -0.5933
15079TIP3   OH266727   2.340   3.972  12.499  0.1642 -0.1782 -0.0690
15079TIP3    H166728   2.436   3.981  12.501  0.1293  0.3957 -0.5872
15079TIP3    H266729   2.323   3.923  12.419 -0.0070  0.1859 -0.2557
15080TIP3   OH266730   2.936   2.865   5.192 -0.2016 -0.6352  0.5131
15080TIP3    H166731   3.023   2.825   5.201  0.1399  0.2408  1.2458
15080TIP3    H266732   2.952   2.959   5.197 -0.9181 -0.3204 -1.7687
15081TIP3   OH266733   6.750   3.206  13.496  0.1456  0.1832  0.3191
15081TIP3    H166734   6.836   3.225  13.458  0.5184 -1.6828  0.1206
15081TIP3    H266735   6.691   3.203  13.421  0.6644 -2.3009 -0.1034
15082TIP3   OH266736   3.650   3.901  12.677 -0.0019  0.5743 -0.2735
15082TIP3    H166737   3.724   3.950  12.712  0.1646  0.2049 -0.1034
15082TIP3    H266738   3.591   3.890  12.752  0.7955 -1.0566  0.1753
15083TIP3   OH266739   6.625   3.050   5.417 -0.0431 -0.3219 -0.0494
15083TIP3    H166740   6.650   3.129   5.369  0.7423 -0.0250  0.8096
15083TIP3    H266741   6.676   3.055   5.498  1.2386 -2.5179 -0.6480
15084TIP3   OH266742   1.957   2.987  14.804  0.4081  0.5322 -0.4520
15084TIP3    H166743   1.912   3.051  14.859 -0.9643  0.0378 -0.9569
15084TIP3    H266744   2.041   2.973  14.848 -1.1820 -0.9516  2.3913
15085TIP3   OH266745   3.312   6.546   4.633 -0.0119  0.2636  0.2703
15085TIP3    H166746   3.288   6.467   4.584  0.3608 -0.9913  2.0398
15085TIP3    H266747   3.229   6.577   4.669 -0.4652  1.8000 -1.9108
15086TIP3   OH266748   4.055   4.986   0.497  0.3518 -0.0627  0.2043
15086TIP3    H166749   4.074   4.907   0.446 -0.1919  0.3148 -0.6059
15086TIP3    H266750   4.126   4.991   0.561  0.5325 -1.0668  0.1061
15087TIP3   OH266751   0.025   4.105  12.112 -0.1768 -0.4891 -0.2000
15087TIP3    H166752  -0.039   4.135  12.048 -2.3298  0.7972  2.3503
15087TIP3    H266753   0.091   4.174  12.115 -0.4045 -0.2539 -0.5692
15088TIP3   OH266754   3.577   0.662   1.651 -0.3329 -0.6170  0.1746
15088TIP3    H166755   3.502   0.685   1.705 -0.5272  1.1823 -0.7860
15088TIP3    H266756   3.648   0.643   1.713 -1.4906 -2.1652  1.0867
15089TIP3   OH266757   5.586   3.612  13.968 -0.3496 -0.3007 -0.1499
15089TIP3    H166758   5.551   3.677  13.906  0.0826  0.1771  0.1038
15089TIP3    H266759   5.663   3.653  14.006 -0.1743 -0.8937  0.1556
15090TIP3   OH266760   1.962   1.266   3.793  0.3398 -0.6072 -0.1008
15090TIP3    H166761   1.881   1.316   3.781  0.4877 -0.6599 -1.4035
15090TIP3    H266762   1.969   1.255   3.888  0.4240  2.0677  0.3041
15091TIP3   OH266763   3.916   7.143  14.194  0.1773 -0.7454  0.1131
15091TIP3    H166764   3.872   7.109  14.116  2.0823  1.2952 -2.0099
15091TIP3    H266765   3.845   7.177  14.249 -1.1344  0.4918 -2.1785
15092TIP3   OH266766   2.587   1.129   4.057 -0.1049 -0.0541 -0.0679
15092TIP3    H166767   2.513   1.078   4.091  0.4991 -0.5874  0.4687
15092TIP3    H266768   2.547   1.209   4.022 -0.8288  0.1057  1.0844
15093TIP3   OH266769   5.506   5.545   3.719  0.2508  0.2272 -0.1801
15093TIP3    H166770   5.428   5.522   3.770  0.3544  0.1031 -0.0773
15093TIP3    H266771   5.547   5.615   3.770  2.1064 -2.0248  1.6484
15094TIP3   OH266772   1.510   5.456  14.157  0.5362  0.0138 -0.0158
15094TIP3    H166773   1.524   5.463  14.252  0.9845  1.7887 -0.1787
15094TIP3    H266774   1.463   5.536  14.134  1.1736 -0.0043 -1.4317
15095TIP3   OH266775   2.412   0.359  15.224 -0.0415 -0.0008 -0.3716
15095TIP3    H166776   2.375   0.442  15.195  0.8050  0.2842 -0.6613
15095TIP3    H266777   2.424   0.308  15.144  1.1394  0.3142 -0.4243
15096TIP3   OH266778   0.539   3.211   4.724 -0.4059 -0.3878  0.1262
15096TIP3    H166779   0.457   3.204   4.675 -1.2375 -0.3951  1.4872
15096TIP3    H266780   0.539   3.299   4.760 -0.3198 -0.7300  0.9889
15097TIP3   OH266781   5.914   5.101   0.545  0.1390 -0.4229  0.4300
15097TIP3    H166782   5.963   5.110   0.463 -0.0324 -2.3860  0.0813
15097TIP3    H266783   5.973   5.137   0.611  0.6380  0.3869 -0.4107
15098TIP3   OH266784   0.786   5.260   2.459 -0.4691  0.0479 -0.1231
15098TIP3    H166785   0.822   5.208   2.388 -1.1963  0.1908 -0.6131
15098TIP3    H266786   0.774   5.197   2.531 -1.2663 -0.4599 -0.6802
15099TIP3   OH266787   3.135   1.916   1.807  0.0962 -0.4847  0.1537
15099TIP3    H166788   3.136   1.974   1.883  1.3834 -1.5672  1.0087
15099TIP3    H266789   3.223   1.926   1.769  0.1025 -1.3794 -0.0774
15100TIP3   OH266790   4.347   1.278   2.642  0.1903 -0.3704  0.2316
15100TIP3    H166791   4.315   1.255   2.729 -0.2250 -3.1220 -0.5382
15100TIP3    H266792   4.440   1.296   2.654 -0.4276  2.5153  1.6592
15101TIP3   OH266793   6.624   5.506   3.766 -0.0028 -0.6683  0.3198
15101TIP3    H166794   6.647   5.573   3.701 -0.4685 -1.5909 -0.8325
15101TIP3    H266795   6.564   5.448   3.720 -0.3962 -1.3219  1.6155
15102TIP3   OH266796   0.409   4.357   1.426  0.3329 -0.2133  0.4671
15102TIP3    H166797   0.468   4.291   1.463  0.6442  0.1536  0.6306
15102TIP3    H266798   0.353   4.308   1.365  0.9389 -0.5259  0.1570
15103TIP3   OH266799   0.774   2.496   0.536  0.1411  0.0005  0.3771
15103TIP3    H166800   0.735   2.516   0.450  0.9912  1.5261  0.3039
15103TIP3    H266801   0.868   2.507   0.522  0.4442 -1.5071  1.0886
15104TIP3   OH266802   1.846   2.303  15.024 -0.0262  0.0796 -0.3834
15104TIP3    H166803   1.896   2.367  15.074  1.6603 -1.5514  0.1462
15104TIP3    H266804   1.756   2.311  15.056  0.1140  2.1560 -0.3845
15105TIP3   OH266805   4.617   4.766  11.687  0.5569 -0.0435  0.2925
15105TIP3    H166806   4.538   4.721  11.715  0.6358 -0.3612  0.0119
15105TIP3    H266807   4.684   4.698  11.686  0.6005 -0.0027 -0.4660
15106TIP3   OH266808   3.680   3.160   0.665  0.0052  0.0823 -0.3977
15106TIP3    H166809   3.640   3.128   0.583 -0.1282  0.4619 -0.4859
15106TIP3    H266810   3.639   3.246   0.678  0.1308  0.0796 -0.0038
15107TIP3   OH266811   6.986   1.403   4.470  0.0798  1.2346 -0.5443
15107TIP3    H166812   6.896   1.407   4.438 -0.8884 -0.0826  1.8109
15107TIP3    H266813   6.980   1.359   4.554  2.9971  0.8267 -0.4536
15108TIP3   OH266814   5.676   0.167   4.032 -0.5363  0.7903  0.4335
15108TIP3    H166815   5.715   0.099   3.976 -0.3625  0.7326  0.6225
15108TIP3    H266816   5.586   0.175   4.001 -0.2797  1.1514 -0.2232
15109TIP3   OH266817   4.216   5.167   4.473 -0.5411 -0.1103 -0.1332
15109TIP3    H166818   4.158   5.126   4.408 -0.9709  0.0706  0.1290
15109TIP3    H266819   4.251   5.093   4.524  0.7040 -0.3551 -1.2853
15110TIP3   OH266820   6.889   6.151   5.594 -0.0802 -1.0558  0.8076
15110TIP3    H166821   6.878   6.075   5.650  0.2363  0.2730  2.7875
15110TIP3    H266822   6.802   6.192   5.593  0.2953 -0.1725  1.7787
15111TIP3   OH266823   4.824   5.037  11.945 -0.2175  0.4792  0.4559
15111TIP3    H166824   4.762   5.028  11.873  0.8620  0.4234 -0.4927
15111TIP3    H266825   4.781   4.995  12.019 -0.0747 -2.4365 -0.9462
15112TIP3   OH266826   1.109   7.171   5.352 -0.5023  0.1760 -0.2888
15112TIP3    H166827   1.109   7.205   5.263 -0.7417 -0.2799 -0.4652
15112TIP3    H266828   1.186   7.114   5.356 -0.4483  0.2553 -0.1785
15113TIP3   OH266829   4.920   3.816   2.667 -0.1890  0.7779  0.5537
15113TIP3    H166830   4.884   3.810   2.579 -2.2711 -2.4019  1.4561
15113TIP3    H266831   4.856   3.869   2.715 -0.3972  0.3869  0.7125
15114TIP3   OH266832   3.985   3.152  14.287  0.0169 -0.5040  0.0851
15114TIP3    H166833   3.947   3.225  14.335  2.3028  0.7760  0.0993
15114TIP3    H266834   4.015   3.091  14.355  0.1102 -0.3725  0.1623
15115TIP3   OH266835   4.842   2.460   1.614 -0.3164  0.2603  0.5488
15115TIP3    H166836   4.898   2.475   1.690 -0.7722  0.8207  0.7783
15115TIP3    H266837   4.851   2.540   1.562  1.2236 -0.7170 -0.8023
15116TIP3   OH266838   4.042   6.916   5.231 -0.2578 -0.1775  0.7376
15116TIP3    H166839   3.989   6.883   5.303  0.9421 -0.3487  1.5713
15116TIP3    H266840   4.132   6.905   5.261  0.2473  0.3295 -0.5401
15117TIP3   OH266841   5.334   5.664   1.784 -0.1442 -0.5690  0.0988
15117TIP3    H166842   5.306   5.646   1.874 -1.1982  3.4780  0.7607
15117TIP3    H266843   5.429   5.649   1.785  0.0135  0.1931  2.1778
15118TIP3   OH266844   0.835   0.679   1.285  0.2136 -0.4751  0.0511
15118TIP3    H166845   0.810   0.670   1.376 -1.6431  1.3313 -0.1937
15118TIP3    H266846   0.792   0.606   1.240 -1.1365  0.1544  0.2758
15119TIP3   OH266847   3.792   0.997   3.015 -0.5907 -0.2415 -0.5744
15119TIP3    H166848   3.886   0.992   3.026 -0.2905 -3.0495 -3.0167
15119TIP3    H266849   3.763   0.906   3.013 -3.0271  0.4533 -1.8928
15120TIP3   OH266850   5.491   4.071   4.458 -0.2120  0.7919  0.0292
15120TIP3    H166851   5.403   4.052   4.427 -0.0102  1.4380 -0.9790
15120TIP3    H266852   5.512   4.157   4.422  0.7926  0.6924  0.3276
15121TIP3   OH266853   3.016   6.094   5.561 -0.2061 -0.7068 -0.0773
15121TIP3    H166854   2.994   6.127   5.648 -0.5927 -1.1806  0.0057
15121TIP3    H266855   3.102   6.053   5.572 -0.6335 -1.5340  0.2852
15122TIP3   OH266856   6.552   3.138   1.484 -0.2258  0.1418  0.4566
15122TIP3    H166857   6.565   3.222   1.440 -0.1973  0.1215  0.4260
15122TIP3    H266858   6.482   3.096   1.433  1.0667 -0.6714 -0.7253
15123TIP3   OH266859   5.261   3.899   2.427  0.1232 -0.1996 -0.4573
15123TIP3    H166860   5.214   3.854   2.498  0.5573  0.0587  0.0032
15123TIP3    H266861   5.212   3.980   2.415 -1.4719 -1.3375 -2.2147
15124TIP3   OH266862   0.226   5.945   4.978 -0.1147 -0.1259 -0.0260
15124TIP3    H166863   0.207   5.942   5.072  0.4027 -0.4529  0.0754
15124TIP3    H266864   0.162   6.006   4.942 -1.0088 -0.8024  0.3696
15125TIP3   OH266865   5.967   2.566  13.003 -0.3552  0.3066 -0.0847
15125TIP3    H166866   6.019   2.581  13.083  0.4971 -1.1581 -0.3150
15125TIP3    H266867   5.996   2.634  12.943 -0.0994  0.6738  0.4436
15126TIP3   OH266868   4.699   1.919   3.808 -0.1448 -0.0974 -0.5325
15126TIP3    H166869   4.640   1.922   3.883 -0.9548 -2.8735 -0.9486
15126TIP3    H266870   4.775   1.870   3.840 -0.6111 -1.5400 -1.5343
15127TIP3   OH266871   2.464   6.704  15.422  0.0591 -0.2501  0.1191
15127TIP3    H166872   2.380   6.657  15.419  0.3428 -0.7910  0.4918
15127TIP3    H266873   2.458   6.759  15.500 -1.3401  2.4135 -1.7293
15128TIP3   OH266874   4.747   6.435   2.703 -0.2364  0.2457 -0.0841
15128TIP3    H166875   4.719   6.394   2.621  0.8598 -0.1516 -0.2724
15128TIP3    H266876   4.842   6.446   2.693  0.3073 -1.7956  1.9649
15129TIP3   OH266877   5.727   2.837   2.988 -0.1628 -0.4723  0.1687
15129TIP3    H166878   5.820   2.860   2.989 -0.3962  0.8420 -1.6759
15129TIP3    H266879   5.684   2.908   3.036 -0.3627 -0.1410 -0.4925
15130TIP3   OH266880   6.212   5.226   2.978  0.0690 -0.3422  0.3842
15130TIP3    H166881   6.299   5.203   3.013  0.8846 -0.3610 -1.5108
15130TIP3    H266882   6.169   5.141   2.965 -0.0514 -0.3605  0.9110
15131TIP3   OH266883   0.867   5.409   4.480  0.0367 -0.8593  0.9073
15131TIP3    H166884   0.830   5.496   4.497 -0.1583 -0.3548 -1.6846
15131TIP3    H266885   0.828   5.353   4.548  0.4371  1.0841  2.8623
15132TIP3   OH266886   1.148   0.702   1.721 -0.1352 -0.1820  0.0035
15132TIP3    H166887   1.078   0.767   1.731 -1.4689 -1.5631 -0.0893
15132TIP3    H266888   1.103   0.621   1.700  1.5050 -1.1427  0.0357
15133TIP3   OH266889   1.181   3.678   4.229  0.3334 -0.4332  0.0013
15133TIP3    H166890   1.210   3.675   4.320  1.3238  3.7405  0.0132
15133TIP3    H266891   1.253   3.721   4.182 -1.1576 -0.2474 -2.2882
15134TIP3   OH266892   5.338   2.345   5.319  0.4219  0.1544 -0.0315
15134TIP3    H166893   5.306   2.431   5.348  0.5231 -0.2572  1.3706
15134TIP3    H266894   5.433   2.352   5.328  0.5380  0.3400 -1.2404
15135TIP3   OH266895   3.990   4.919   4.863  0.0584  0.5823  0.0451
15135TIP3    H166896   4.023   4.854   4.925 -1.7703  0.3104  0.8165
15135TIP3    H266897   4.017   5.003   4.899  2.4253  0.3359 -0.9465
15136TIP3   OH266898   1.038   3.876   0.771  0.7749 -0.2565  0.4905
15136TIP3    H166899   1.016   3.839   0.856  2.0265  0.4039  1.1320
15136TIP3    H266900   1.074   3.803   0.721 -0.2329 -0.7107  0.4030
15137TIP3   OH266901   3.199   1.095  13.449  0.3562 -0.1274 -0.5455
15137TIP3    H166902   3.159   1.073  13.533  0.4166 -0.4873 -0.6092
15137TIP3    H266903   3.282   1.048  13.449  0.7790  0.6122 -0.4198
15138TIP3   OH266904   2.721   5.931   0.477 -0.4132 -0.7704  0.5189
15138TIP3    H166905   2.641   5.972   0.446 -0.5826 -2.6079 -1.6940
15138TIP3    H266906   2.787   5.954   0.411  0.5114 -0.5928  1.4743
15139TIP3   OH266907   2.610   1.375  14.333  0.6458 -0.7481 -0.0750
15139TIP3    H166908   2.553   1.440  14.374 -0.3431 -0.9586 -1.0551
15139TIP3    H266909   2.697   1.395  14.367  0.5167  1.6265 -0.9296
15140TIP3   OH266910   2.313   3.663   0.546  0.1142  0.3253  0.7313
15140TIP3    H166911   2.380   3.649   0.479  0.7876 -1.1527  1.6532
15140TIP3    H266912   2.355   3.720   0.610 -0.9111  2.6851 -0.5657
15141TIP3   OH266913   6.167   0.430   0.889 -0.4310 -0.4353  0.2320
15141TIP3    H166914   6.142   0.477   0.969  1.6283  1.1664 -0.0123
15141TIP3    H266915   6.183   0.498   0.824  2.6922 -1.3609 -0.1348
15142TIP3   OH266916   4.835   0.590   3.550 -0.6222  0.0747  0.0530
15142TIP3    H166917   4.765   0.544   3.595  0.4168 -0.9953  0.6415
15142TIP3    H266918   4.916   0.554   3.587  0.2531  1.1429 -0.7143
15143TIP3   OH266919   7.095   5.987   1.420  0.0448 -0.1903  0.1382
15143TIP3    H166920   7.177   5.936   1.423  0.2520  0.1828  1.8532
15143TIP3    H266921   7.118   6.066   1.371  0.9499  0.2530  1.2188
15144TIP3   OH266922   4.311   4.177   2.274  0.5619 -0.2141  0.5811
15144TIP3    H166923   4.306   4.249   2.211 -0.8031 -1.6964 -1.1366
15144TIP3    H266924   4.404   4.159   2.283  0.8188  0.4207 -0.6026
15145TIP3   OH266925   3.887   4.795   1.080 -0.0018 -0.2450 -0.0925
15145TIP3    H166926   3.925   4.732   1.017 -2.0210 -1.6806  0.0288
15145TIP3    H266927   3.831   4.851   1.026 -0.8773 -0.7704  0.2646
15146TIP3   OH266928   0.003   5.075   2.891  0.3626 -0.1756 -0.0792
15146TIP3    H166929   0.082   5.065   2.838  1.6447 -1.5122  1.9221
15146TIP3    H266930   0.009   5.163   2.928  0.0476  0.3267 -1.1727
15147TIP3   OH266931   1.825   6.028   1.994  0.3948 -0.0708  0.3160
15147TIP3    H166932   1.906   6.007   2.040  0.6419  0.6301  0.2083
15147TIP3    H266933   1.759   6.038   2.063  0.1306 -1.7341  0.3445
15148TIP3   OH266934   0.906   2.605   4.998 -0.0534 -0.1167 -0.1981
15148TIP3    H166935   0.895   2.510   5.003 -0.9291  0.0409  1.5577
15148TIP3    H266936   1.000   2.617   4.982  0.0977 -1.2574 -0.2765
15149TIP3   OH266937   1.677   1.362   3.790  0.1922 -0.1596 -0.3931
15149TIP3    H166938   1.585   1.384   3.775  0.1690 -0.4720 -0.7177
15149TIP3    H266939   1.675   1.272   3.824  0.3876 -0.2194 -0.5373
15150TIP3   OH266940   3.416   2.045   3.118 -0.3923 -0.6691 -0.1610
15150TIP3    H166941   3.397   2.094   3.199  1.1870  1.5301 -1.0355
15150TIP3    H266942   3.412   2.111   3.049 -0.4802 -2.2764 -1.7453
15151TIP3   OH266943   1.816   6.279  13.324 -0.3560  0.7698  0.4755
15151TIP3    H166944   1.730   6.293  13.284  0.0499 -0.3549 -0.8776
15151TIP3    H266945   1.834   6.187  13.309  2.1178  1.4654 -1.4424
15152TIP3   OH266946   2.646   2.229   2.877 -0.2892  0.5931  0.5514
15152TIP3    H166947   2.642   2.318   2.912 -2.5745  0.6310  0.3334
15152TIP3    H266948   2.600   2.176   2.943  0.3759 -0.3106  0.3051
15153TIP3   OH266949   5.221   2.081   0.443 -0.3706  0.0216 -0.8016
15153TIP3    H166950   5.197   2.059   0.353 -2.1871  1.9827 -0.8718
15153TIP3    H266951   5.287   2.150   0.434 -0.1193 -0.1879 -0.6031
15154TIP3   OH266952   5.360   5.183   0.617 -0.1391  0.0324  0.3671
15154TIP3    H166953   5.337   5.115   0.680 -0.7681 -1.2321 -1.1702
15154TIP3    H266954   5.455   5.180   0.612 -0.2003 -1.2734 -0.2459
15155TIP3   OH266955   1.885   2.057   2.958 -0.4832  0.3106  0.0223
15155TIP3    H166956   1.918   2.013   3.036  0.9670 -0.0003 -0.7439
15155TIP3    H266957   1.918   2.147   2.966 -1.6913  0.7371  0.5403
15156TIP3   OH266958   6.805   1.884   5.289  0.0099  0.1079  0.2245
15156TIP3    H166959   6.851   1.800   5.283  0.9471  0.6759 -1.1726
15156TIP3    H266960   6.723   1.869   5.242  0.4078  0.1008 -0.4845
15157TIP3   OH266961   6.831   4.780   1.897  0.7847  0.2795 -0.2415
15157TIP3    H166962   6.772   4.709   1.873  0.8487 -0.1709  0.8622
15157TIP3    H266963   6.856   4.820   1.814 -0.6066  0.1032 -0.7603
15158TIP3   OH266964   1.188   6.788   1.489  0.2261 -0.7106 -0.1809
15158TIP3    H166965   1.128   6.783   1.564 -1.4591  1.1795 -1.2997
15158TIP3    H266966   1.138   6.752   1.416  1.2070 -0.9391 -0.7509
15159TIP3   OH266967   3.138   6.772   1.976 -0.5275 -0.1606  0.1061
15159TIP3    H166968   3.049   6.739   1.987  0.3177 -1.9771  1.9918
15159TIP3    H266969   3.188   6.734   2.048  1.8683  0.5738 -1.0506
15160TIP3   OH266970   5.429   3.258   2.806 -0.3167 -0.5660  0.2010
15160TIP3    H166971   5.421   3.232   2.897  3.8257  0.9892  1.2392
15160TIP3    H266972   5.364   3.328   2.795  1.6033  1.9478  3.2563
15161TIP3   OH266973   3.164   6.393   5.875 -0.0106 -0.2075  0.4207
15161TIP3    H166974   3.169   6.423   5.785 -1.2051 -1.4503 -0.0977
15161TIP3    H266975   3.200   6.304   5.873  0.6810  0.0315  1.3284
15162TIP3   OH266976   1.492   2.103   4.395 -0.5244 -0.2259 -0.3320
15162TIP3    H166977   1.410   2.114   4.444 -0.8339 -0.3486 -0.8071
15162TIP3    H266978   1.474   2.029   4.337 -0.9374  1.2266 -2.1637
15163TIP3   OH266979   5.964   3.579  14.617  0.0664 -0.2812  0.1294
15163TIP3    H166980   5.947   3.665  14.657 -0.2846 -0.6562  0.8064
15163TIP3    H266981   5.881   3.554  14.578  0.0107 -0.5562  0.4155
15164TIP3   OH266982   3.245   3.952  13.445 -0.4705  0.6477  0.5289
15164TIP3    H166983   3.200   3.950  13.361  1.7367 -1.9519 -0.7708
15164TIP3    H266984   3.337   3.936  13.423  0.1939 -0.1835  3.4225
15165TIP3   OH266985   4.459   1.054   5.306 -0.1382 -0.0503 -0.3429
15165TIP3    H166986   4.498   1.122   5.251  0.2026  1.8298  2.0600
15165TIP3    H266987   4.529   0.991   5.320  0.6784  0.9632  0.2484
15166TIP3   OH266988   2.822   4.837   1.131 -0.3393 -0.3969 -0.2020
15166TIP3    H166989   2.813   4.840   1.036 -1.1276  0.8264 -0.1221
15166TIP3    H266990   2.899   4.783   1.147 -1.6858 -2.8288 -1.4379
15167TIP3   OH266991   0.629   1.534  15.137 -0.2436 -0.3698  0.2179
15167TIP3    H166992   0.576   1.567  15.065  0.2486 -3.1473 -1.5353
15167TIP3    H266993   0.568   1.484  15.191 -0.2025  0.0035  0.6196
15168TIP3   OH266994   2.742   4.453   6.212  0.2195 -0.1906 -0.2359
15168TIP3    H166995   2.750   4.358   6.205  0.4689 -0.0950 -1.7408
15168TIP3    H266996   2.754   4.472   6.305 -1.4470 -1.7486  0.3366
15169TIP3   OH266997   0.332   0.348   5.415 -0.2303 -0.3056  0.7937
15169TIP3    H166998   0.345   0.315   5.503 -1.4014 -0.5219  0.9068
15169TIP3    H266999   0.237   0.342   5.401 -0.0939 -0.0230 -0.3745
15170TIP3   OH267000   4.809   0.087  12.821 -0.0123 -0.3500 -0.5094
15170TIP3    H167001   4.864   0.153  12.781  0.6424 -0.0799  0.7801
15170TIP3    H267002   4.864   0.009  12.826  0.2605 -0.1026  0.7114
15171TIP3   OH267003   1.601   2.790   1.658  0.4709 -0.7223  0.1221
15171TIP3    H167004   1.640   2.805   1.572 -0.1214 -0.2868 -0.0752
15171TIP3    H267005   1.556   2.872   1.679 -0.9413 -1.4490  0.0257
15172TIP3   OH267006   4.795   0.121   2.377 -0.8633  0.1545 -0.0375
15172TIP3    H167007   4.754   0.088   2.457  1.9902  2.0918  2.4286
15172TIP3    H267008   4.884   0.085   2.379 -0.3174  1.2955 -1.6750
15173TIP3   OH267009   4.738   7.024  14.912 -0.2418 -0.9182  0.0248
15173TIP3    H167010   4.660   7.034  14.967 -1.0426  1.0486 -1.3370
15173TIP3    H267011   4.733   7.097  14.850  1.2647 -2.3126 -1.8744
15174TIP3   OH267012   2.567   1.768   3.000  0.4912  0.3490 -0.5024
15174TIP3    H167013   2.555   1.802   3.088  2.0795  1.1821 -0.5762
15174TIP3    H267014   2.503   1.697   2.993 -1.5469  2.0072  0.3429
15175TIP3   OH267015   1.672   6.593   1.340  0.1889 -0.1631 -0.5393
15175TIP3    H167016   1.668   6.510   1.292  2.7284 -1.1582  0.7916
15175TIP3    H267017   1.594   6.592   1.396 -0.0854 -1.4273 -0.9133
15176TIP3   OH267018   5.562   0.960  13.606  0.2648  0.0989  0.3918
15176TIP3    H167019   5.522   0.873  13.611  1.8678 -0.7297 -0.2050
15176TIP3    H267020   5.560   0.993  13.695 -0.6627 -0.4034  0.5681
15177TIP3   OH267021   6.853   2.366   4.322 -0.5384 -0.5547 -0.5347
15177TIP3    H167022   6.891   2.287   4.284 -0.2527  0.4686 -2.5075
15177TIP3    H267023   6.769   2.337   4.358 -0.1530 -1.8633 -0.6372
15178TIP3   OH267024   2.959   4.560  11.949 -0.1189 -0.0927 -0.2773
15178TIP3    H167025   3.048   4.545  11.917 -0.4584 -1.5461 -0.6172
15178TIP3    H267026   2.909   4.583  11.870 -0.5442 -1.7392 -0.5206
15179TIP3   OH267027   4.762   6.166   0.363  0.2750 -1.0816  0.1205
15179TIP3    H167028   4.692   6.104   0.383 -1.3944  0.7136  0.0698
15179TIP3    H267029   4.717   6.244   0.330  2.4051 -0.5579 -1.8193
15180TIP3   OH267030   0.742   1.054   6.061 -0.6178 -0.1750 -0.0559
15180TIP3    H167031   0.659   1.098   6.042 -0.5829 -0.0181  0.1529
15180TIP3    H267032   0.790   1.115   6.117 -0.3374 -0.2420 -0.2183
15181TIP3   OH267033   2.874   0.128   5.351  1.3286  0.1985 -0.3040
15181TIP3    H167034   2.965   0.098   5.343  1.5863  0.5392  1.0292
15181TIP3    H267035   2.878   0.222   5.333  1.3723  0.3474  0.4434
15182TIP3   OH267036   1.171   4.565   5.794 -0.2912  0.0973 -0.3223
15182TIP3    H167037   1.112   4.511   5.741 -0.0709  0.5830 -1.0765
15182TIP3    H267038   1.229   4.607   5.730 -0.3906  1.1406  0.2526
15183TIP3   OH267039   3.292   5.645   5.831 -0.4812  0.7364  0.1184
15183TIP3    H167040   3.259   5.569   5.878 -0.5948  0.3683 -0.5542
15183TIP3    H267041   3.230   5.660   5.760  1.0908 -0.3849 -1.5878
15184TIP3   OH267042   3.834   5.868   0.608  0.1945 -0.2387 -0.5508
15184TIP3    H167043   3.889   5.841   0.681  0.2899 -0.0949 -0.5695
15184TIP3    H267044   3.895   5.899   0.542  0.1295 -0.7119 -0.8395
15185TIP3   OH267045   5.721   1.908   4.255 -0.2500  0.2405  0.0225
15185TIP3    H167046   5.774   1.987   4.256  0.1893 -0.0235 -0.8492
15185TIP3    H267047   5.780   1.839   4.287  0.0320 -0.0953 -1.1575
15186TIP3   OH267048   0.525   6.312   2.372  0.4075 -0.0103 -0.3847
15186TIP3    H167049   0.570   6.253   2.312  0.1407  0.1150 -0.7147
15186TIP3    H267050   0.509   6.391   2.320 -1.8783 -0.7338 -0.8889
15187TIP3   OH267051   1.751   4.421   1.064  0.0700  0.3329 -0.0947
15187TIP3    H167052   1.724   4.456   1.149  0.1898 -1.3070  0.6460
15187TIP3    H267053   1.708   4.478   1.000 -1.3005  0.6390  1.0598
15188TIP3   OH267054   1.156   2.061   3.342 -0.0639 -0.4311 -0.7064
15188TIP3    H167055   1.105   2.141   3.359  1.0774  0.1559  0.1173
15188TIP3    H267056   1.102   2.010   3.282 -0.3707  1.4190 -2.0719
15189TIP3   OH267057   6.432   4.658   5.226 -0.4206 -0.1195 -0.0366
15189TIP3    H167058   6.487   4.724   5.185  0.9307 -0.6868  0.8017
15189TIP3    H267059   6.489   4.614   5.289 -2.4174  0.8192  2.6362
15190TIP3   OH267060   3.105   2.416   5.652 -0.1340  0.6985  0.1035
15190TIP3    H167061   3.165   2.437   5.581 -1.1406  0.1973 -0.9250
15190TIP3    H267062   3.092   2.321   5.645 -1.5048  0.8761 -0.0958
15191TIP3   OH267063   0.174   5.658   3.670 -0.7335  0.1272 -0.4266
15191TIP3    H167064   0.092   5.685   3.712 -0.9190 -2.0373  0.7564
15191TIP3    H267065   0.242   5.708   3.717 -1.2524  0.9884 -0.5557
15192TIP3   OH267066   4.780   4.178   1.020 -0.2155 -0.0308  0.2641
15192TIP3    H167067   4.707   4.130   0.983  0.1522  0.8357 -1.6979
15192TIP3    H267068   4.858   4.132   0.989  0.1394  1.5831 -1.4620
15193TIP3   OH267069   3.828   4.465  14.820  0.2935  0.5839 -0.1811
15193TIP3    H167070   3.804   4.502  14.905 -1.8129  0.7974 -0.8314
15193TIP3    H267071   3.796   4.375  14.823  0.0132  0.6607 -0.8404
15194TIP3   OH267072   2.689   4.894   4.537 -0.3202 -0.2571 -0.0025
15194TIP3    H167073   2.739   4.920   4.459  0.6767 -0.5513  0.5269
15194TIP3    H267074   2.612   4.850   4.502  0.2656 -0.6561 -0.8242
15195TIP3   OH267075   6.423   3.210   5.269 -0.3024 -0.1502  0.0382
15195TIP3    H167076   6.458   3.127   5.304 -0.6635  0.9431  3.3201
15195TIP3    H267077   6.328   3.199   5.272 -0.5181  1.3536  3.6415
15196TIP3   OH267078   1.266   0.394   3.760 -0.5087 -0.3435  0.1700
15196TIP3    H167079   1.194   0.436   3.807  0.9703  1.7614  0.7036
15196TIP3    H267080   1.272   0.443   3.677 -0.4375 -1.3042 -0.4093
15197TIP3   OH267081   6.275   0.255  12.731 -0.5546  0.1550  0.1082
15197TIP3    H167082   6.309   0.222  12.814 -0.9618 -0.1738  0.1505
15197TIP3    H267083   6.304   0.346  12.727 -2.1795  0.7764  1.5358
15198TIP3   OH267084   2.286   1.132   5.239 -0.4421 -0.1062 -0.5987
15198TIP3    H167085   2.284   1.037   5.227  0.9349 -0.2713  0.2446
15198TIP3    H267086   2.200   1.154   5.275  0.2495 -1.5055  2.1958
15199TIP3   OH267087   6.700   0.873  13.800 -0.1568  0.9373 -0.7940
15199TIP3    H167088   6.726   0.781  13.808 -0.0421  1.1369  2.1053
15199TIP3    H267089   6.611   0.870  13.766  0.4705 -0.1187 -2.4703
15200TIP3   OH267090   2.178   0.587   5.207 -0.2232  0.2278  0.3005
15200TIP3    H167091   2.083   0.591   5.208 -0.2742 -0.6187 -0.5681
15200TIP3    H267092   2.199   0.494   5.199  0.6485  0.5403 -1.4389
15201TIP3   OH267093   5.038   2.401   3.132  0.0301  0.4264  0.4402
15201TIP3    H167094   4.992   2.466   3.186  0.7637  0.1338  1.4542
15201TIP3    H267095   5.014   2.423   3.042 -0.0260  1.8675  0.7855
15202TIP3   OH267096   1.850   7.087   2.455  0.3245 -0.0139  0.2833
15202TIP3    H167097   1.887   7.105   2.369 -0.2962 -2.2722 -0.5448
15202TIP3    H267098   1.759   7.116   2.449 -0.4027 -2.2255 -0.7211
15203TIP3   OH267099   6.776   3.565   2.593 -0.0684  0.2317 -0.1579
15203TIP3    H167100   6.729   3.612   2.662  1.0284 -0.9615  1.4307
15203TIP3    H267101   6.711   3.506   2.556 -1.3929  2.6274 -1.9761
15204TIP3   OH267102   0.144   2.351  14.772  0.6678  0.1047 -0.4211
15204TIP3    H167103   0.119   2.351  14.864 -0.9099 -0.2206 -0.8038
15204TIP3    H267104   0.142   2.259  14.746  1.9269  0.1162 -0.5844
15205TIP3   OH267105   1.505   4.616   2.468  0.3771  0.2104 -0.2554
15205TIP3    H167106   1.596   4.591   2.484 -0.1617 -0.8195  1.6367
15205TIP3    H267107   1.461   4.533   2.447 -0.4659  0.3496  0.8476
15206TIP3   OH267108   3.160   3.205   1.083 -0.1225 -0.1220  0.5672
15206TIP3    H167109   3.119   3.227   0.999 -0.7314 -1.1632  0.5727
15206TIP3    H267110   3.090   3.217   1.147  1.1223  3.7666  1.4535
15207TIP3   OH267111   7.108   3.181   4.290 -0.5379 -0.5233 -0.4702
15207TIP3    H167112   7.021   3.142   4.289 -1.1542  0.7888 -0.0928
15207TIP3    H267113   7.147   3.154   4.207 -2.3842  1.1432 -1.9848
15208TIP3   OH267114   6.780   5.828   2.003 -0.5906  0.4262  0.2389
15208TIP3    H167115   6.754   5.905   1.954  0.0814 -0.4910 -1.6747
15208TIP3    H267116   6.727   5.757   1.966  0.8815 -0.5287 -0.1337
15209TIP3   OH267117   6.143   6.313   3.009  0.0538 -0.2615 -0.0271
15209TIP3    H167118   6.102   6.231   3.035  0.6270 -0.7752 -0.7145
15209TIP3    H267119   6.214   6.326   3.073 -0.5531  0.1448  0.5876
15210TIP3   OH267120   2.623   2.612   1.648  0.2101 -0.3815  0.1762
15210TIP3    H167121   2.580   2.693   1.675  0.3574  0.0190 -0.7595
15210TIP3    H267122   2.608   2.608   1.554  0.8608 -1.0592  0.0993
15211TIP3   OH267123   2.945   2.495  12.925  0.0789 -0.1151 -0.2770
15211TIP3    H167124   2.907   2.554  12.989 -0.8120  0.8791 -1.6768
15211TIP3    H267125   3.035   2.480  12.956 -1.2283 -2.2755  2.9319
15212TIP3   OH267126   2.409   5.504   4.057  0.1425 -0.7072 -0.0360
15212TIP3    H167127   2.409   5.420   4.011 -1.9908  0.3820 -2.2844
15212TIP3    H267128   2.324   5.507   4.102  1.1454 -0.6583  1.9410
15213TIP3   OH267129   1.721   5.015   2.359  0.3268  0.1547  0.3775
15213TIP3    H167130   1.696   4.941   2.305 -1.1981  0.1361  1.0606
15213TIP3    H267131   1.700   5.092   2.306  1.0074  0.1347  0.0566
15214TIP3   OH267132   3.734   5.343  14.230  0.1627  0.0443  0.0089
15214TIP3    H167133   3.791   5.379  14.162 -0.4724 -1.3513 -1.3256
15214TIP3    H267134   3.645   5.362  14.198 -0.1668 -1.7419 -0.2479
15215TIP3   OH267135   0.905   0.926  14.105 -0.3526  0.2405  0.2519
15215TIP3    H167136   0.923   0.835  14.083 -1.9913  0.2395 -1.3126
15215TIP3    H267137   0.869   0.922  14.193  0.5152 -0.4885  0.5961
15216TIP3   OH267138   5.277   4.695   0.129  0.0399 -0.0005  0.2375
15216TIP3    H167139   5.275   4.765   0.195 -2.3088  1.0389 -0.8269
15216TIP3    H267140   5.337   4.726   0.062  0.5499  0.0542  0.7113
15217TIP3   OH267141   2.014   5.088  14.524 -0.3212 -0.0798  0.6198
15217TIP3    H167142   2.008   4.993  14.525  1.1375 -0.1942  1.6647
15217TIP3    H267143   1.966   5.116  14.602 -1.4361  0.1275 -0.1103
15218TIP3   OH267144   2.528   1.617   1.461 -0.3926 -0.2347 -0.2807
15218TIP3    H167145   2.528   1.658   1.547 -0.5477  2.2977 -1.4058
15218TIP3    H267146   2.600   1.554   1.465 -0.4276 -0.2066  1.6931
15219TIP3   OH267147   2.568   1.989   4.908 -0.2361  0.1591 -0.6684
15219TIP3    H167148   2.576   1.921   4.974 -1.3995  0.9202  0.3049
15219TIP3    H267149   2.648   1.983   4.857  0.4574 -0.7971  0.4853
15220TIP3   OH267150   0.741   1.959   5.210  0.1780 -0.5921  0.0797
15220TIP3    H167151   0.738   1.950   5.305  2.0342 -1.8861  0.0755
15220TIP3    H267152   0.820   2.011   5.194 -0.5123  0.2342 -0.7547
15221TIP3   OH267153   0.643   2.949   2.009 -0.4558  0.1895  0.5364
15221TIP3    H167154   0.713   2.926   2.071  1.5350 -0.2991 -1.7484
15221TIP3    H267155   0.665   3.037   1.979 -0.6951 -0.0356 -0.3314
15222TIP3   OH267156   6.908   5.771   4.253  1.2722  0.4892  0.0649
15222TIP3    H167157   6.825   5.768   4.206  0.6379  1.3450  1.0888
15222TIP3    H267158   6.907   5.856   4.299  1.9206 -0.2508  1.5176
15223TIP3   OH267159   7.197   1.230   5.265  0.8374 -0.8478 -0.5739
15223TIP3    H167160   7.180   1.289   5.339  0.1706 -0.4516 -1.0374
15223TIP3    H267161   7.168   1.144   5.297 -0.7260 -0.4421 -0.8255
15224TIP3   OH267162   4.464   6.116   5.458 -0.2524  0.3200  0.2350
15224TIP3    H167163   4.545   6.161   5.436 -0.4285 -0.3149 -1.9788
15224TIP3    H267164   4.455   6.049   5.390 -1.8463 -0.6507  1.3311
15225TIP3   OH267165   3.294   0.136  13.608  0.2408  0.1423  0.5739
15225TIP3    H167166   3.208   0.178  13.617 -0.0518  0.2299 -1.8153
15225TIP3    H267167   3.273   0.046  13.585  0.8198 -0.1103  1.0327
15226TIP3   OH267168   5.951   2.443   5.005 -0.7289 -0.3214  0.3138
15226TIP3    H167169   5.873   2.470   5.053  0.0260  0.4923  1.1280
15226TIP3    H267170   5.960   2.350   5.024 -0.8337 -0.1618  1.2098
15227TIP3   OH267171   3.529   2.427   4.390  0.9554 -0.8697 -0.0805
15227TIP3    H167172   3.500   2.337   4.379  0.5760 -0.5884 -1.6103
15227TIP3    H267173   3.463   2.480   4.345  0.7787  0.2477  1.3990
15228TIP3   OH267174   3.580   0.215   3.609 -0.0601 -0.1574  0.3392
15228TIP3    H167175   3.546   0.224   3.520  0.6204  1.6673  0.2416
15228TIP3    H267176   3.532   0.140   3.645 -0.5383 -0.7562 -1.4582
15229TIP3   OH267177   2.712   3.693   2.253 -0.0323  0.3970 -0.1006
15229TIP3    H167178   2.688   3.606   2.219  0.4340  1.0281 -2.1814
15229TIP3    H267179   2.629   3.732   2.280 -0.2203 -0.7711  1.1613
15230TIP3   OH267180   5.712   4.187  14.929 -0.5434 -0.1835  0.6359
15230TIP3    H167181   5.797   4.143  14.928 -0.4067  0.0834 -0.1540
15230TIP3    H267182   5.655   4.131  14.875 -0.8623 -0.3325  1.1143
15231TIP3   OH267183   5.735   1.659   2.635 -0.0693 -1.3191 -0.2593
15231TIP3    H167184   5.814   1.714   2.641 -0.7907 -0.3097  0.2002
15231TIP3    H267185   5.740   1.621   2.547  1.2138 -1.7291 -0.0421
15232TIP3   OH267186   6.323   4.259   3.255  0.7098  0.7303 -0.0363
15232TIP3    H167187   6.390   4.323   3.278  2.1737 -0.7947  0.0931
15232TIP3    H267188   6.364   4.203   3.189 -1.3155  1.2577 -1.8584
15233TIP3   OH267189   5.020   3.525   2.381 -0.1210 -0.2065 -0.0331
15233TIP3    H167190   5.002   3.617   2.362  0.6880 -0.2253 -0.9645
15233TIP3    H267191   5.114   3.521   2.398 -0.2585 -0.7618  0.6682
15234TIP3   OH267192   1.704   4.810   0.727 -0.1737 -0.3174  1.0399
15234TIP3    H167193   1.693   4.871   0.800 -1.9680 -1.0842  1.4636
15234TIP3    H267194   1.656   4.851   0.655 -0.8137 -0.8993  1.1307
15235TIP3   OH267195   0.751   7.056   1.330 -0.2957 -0.1931  0.1446
15235TIP3    H167196   0.717   7.016   1.250 -2.8818  2.1106 -0.0786
15235TIP3    H267197   0.835   7.093   1.305 -1.7629  1.9386 -2.1522
15236TIP3   OH267198   5.450   0.539   1.887 -0.2658 -0.3953 -0.0861
15236TIP3    H167199   5.465   0.527   1.793  0.7830 -2.6693  0.3140
15236TIP3    H267200   5.362   0.576   1.892 -0.9915 -1.7144 -1.9128
15237TIP3   OH267201   2.309   0.767  14.393  0.0312 -0.2061 -0.4965
15237TIP3    H167202   2.253   0.691  14.410 -1.8437  1.0801 -0.5824
15237TIP3    H267203   2.362   0.742  14.318 -0.2679 -1.5649 -0.2784
15238TIP3   OH267204   6.005   4.246  10.556  0.8740 -0.1350  0.2675
15238TIP3    H167205   5.946   4.181  10.518  1.0403 -0.4976  0.6321
15238TIP3    H267206   5.950   4.296  10.616  0.3649  1.0790 -1.1367
15239TIP3   OH267207   1.418   0.032  14.847 -0.0003  0.0731  0.0498
15239TIP3    H167208   1.423   0.125  14.869 -1.3149 -0.2302  1.8540
15239TIP3    H267209   1.473  -0.011  14.912 -2.4598 -0.6935  1.7631
15240TIP3   OH267210   0.326   4.779   5.610 -0.6076 -0.1694 -0.2444
15240TIP3    H167211   0.404   4.772   5.665 -0.5954  0.6907 -0.1252
15240TIP3    H267212   0.267   4.712   5.643  0.1123 -0.8816 -0.3943
15241TIP3   OH267213   1.681   6.315   1.305 -0.2576  0.1200  0.4682
15241TIP3    H167214   1.619   6.282   1.240  0.0372 -1.0023  0.7343
15241TIP3    H267215   1.684   6.246   1.371  2.3825 -0.5721 -0.2612
15242TIP3   OH267216   0.952   3.388   2.490  0.0758 -0.0736 -0.1986
15242TIP3    H167217   1.031   3.394   2.438  0.9389  0.8008  1.1249
15242TIP3    H267218   0.976   3.425   2.575 -2.1250  1.6052 -0.1938
15243TIP3   OH267219   0.099   5.454   4.947 -0.0026 -0.4779 -0.0227
15243TIP3    H167220   0.157   5.450   5.022 -1.9684  0.3353  1.6618
15243TIP3    H267221   0.157   5.455   4.871  2.1485  0.2320  1.5286
15244TIP3   OH267222   3.479   6.699   2.168 -0.1399  0.1788  0.0263
15244TIP3    H167223   3.556   6.738   2.209  1.2450 -1.8387 -0.5056
15244TIP3    H267224   3.410   6.708   2.234  1.3001 -0.5002  1.7116
15245TIP3   OH267225   3.585   0.963  13.034  0.4691 -0.1867 -0.9470
15245TIP3    H167226   3.528   1.022  12.986 -2.0602 -0.2214  1.7137
15245TIP3    H267227   3.663   1.014  13.053  0.1352  0.8558 -2.2438
15246TIP3   OH267228   1.574   0.322   1.099 -0.0605  0.3905 -0.2929
15246TIP3    H167229   1.651   0.266   1.089 -0.7441 -0.5908 -0.2116
15246TIP3    H267230   1.508   0.282   1.042 -1.5614 -0.7387  2.0888
15247TIP3   OH267231   5.702   1.705  14.535  0.5445  0.0875 -0.0416
15247TIP3    H167232   5.735   1.687  14.623  0.9167  0.9711  0.0171
15247TIP3    H267233   5.607   1.707  14.545  0.5652 -0.3293  0.2386
15248TIP3   OH267234   4.705   6.653   2.905  0.3051 -0.7910  0.3284
15248TIP3    H167235   4.743   6.718   2.845 -0.2963 -1.2097 -0.5277
15248TIP3    H267236   4.681   6.580   2.848  0.3148 -1.4625  1.1852
15249TIP3   OH267237   6.821   3.294   3.924  0.1656  0.3283  0.2309
15249TIP3    H167238   6.856   3.378   3.954 -0.7960 -0.1681  3.0236
15249TIP3    H267239   6.783   3.313   3.838  1.5385  2.2985 -0.0131
15250TIP3   OH267240   0.248   3.295   2.200 -0.6325  0.4570 -0.5500
15250TIP3    H167241   0.271   3.334   2.284 -2.0844 -2.0677  1.1456
15250TIP3    H267242   0.327   3.249   2.171  0.2302  2.2760 -1.2169
15251TIP3   OH267243   3.572   7.193   5.456 -0.6504  0.2441  0.2497
15251TIP3    H167244   3.632   7.139   5.404 -1.0155  0.8650 -0.8502
15251TIP3    H267245   3.535   7.132   5.520  1.1751 -0.1319  0.9824
15252TIP3   OH267246   6.307   1.714   0.610 -0.1373 -0.7291 -0.5059
15252TIP3    H167247   6.270   1.654   0.545  1.2206 -1.6886 -0.4252
15252TIP3    H267248   6.400   1.694   0.611 -0.1517 -0.9869  1.9716
15253TIP3   OH267249   4.672   3.491   2.087 -0.5741  0.8006 -0.0034
15253TIP3    H167250   4.608   3.507   2.157 -0.5908  0.8796 -0.0378
15253TIP3    H267251   4.744   3.445   2.131  0.3676  2.6848  0.4888
15254TIP3   OH267252   1.973   3.714   3.065 -0.3029  0.3143  0.2616
15254TIP3    H167253   2.061   3.700   3.101 -1.0394  0.2433  2.1506
15254TIP3    H267254   1.932   3.775   3.126 -2.0985 -0.8583  0.2945
15255TIP3   OH267255   5.766   2.717   4.062  0.6942  0.1745 -0.3042
15255TIP3    H167256   5.682   2.748   4.031  1.0165 -0.1030 -1.5151
15255TIP3    H267257   5.808   2.794   4.101 -0.3411  0.1781  0.8619
15256TIP3   OH267258   1.608   4.773   4.324  0.3079  0.0738  0.1467
15256TIP3    H167259   1.632   4.865   4.332 -1.1745  0.4128  0.9866
15256TIP3    H267260   1.521   4.767   4.362  0.2711 -1.6405 -0.1171
15257TIP3   OH267261   5.220   5.785   2.303 -0.2316 -0.1596  0.4179
15257TIP3    H167262   5.177   5.738   2.375 -2.8890  1.5752  0.0936
15257TIP3    H267263   5.187   5.742   2.224  0.6693 -0.4280  0.1800
15258TIP3   OH267264   7.127   0.907   2.971  0.3968 -0.0227  0.2600
15258TIP3    H167265   7.157   0.823   3.005  0.3325 -0.3900 -0.5697
15258TIP3    H267266   7.063   0.937   3.035  0.3460 -0.6554  0.5130
15259TIP3   OH267267   6.169   4.721   5.019 -0.0402 -0.3877 -0.5572
15259TIP3    H167268   6.087   4.750   5.059 -0.9008 -1.5565 -1.4097
15259TIP3    H267269   6.210   4.802   4.987 -0.8948  0.1996 -0.2089
15260TIP3   OH267270   1.676   2.760   3.123 -0.4289  0.2132 -0.0588
15260TIP3    H167271   1.740   2.823   3.090 -0.5310  0.7742  0.7581
15260TIP3    H267272   1.689   2.681   3.071  1.4854  0.0328  0.6257
15261TIP3   OH267273   2.806   4.277   1.671 -0.3662 -0.9772  0.3411
15261TIP3    H167274   2.884   4.228   1.697  0.4735 -0.5300 -1.2327
15261TIP3    H267275   2.829   4.369   1.686 -0.2746 -0.7889 -0.8674
15262TIP3   OH267276   5.715   3.098  11.243 -0.0037  0.2436  0.0186
15262TIP3    H167277   5.714   3.002  11.244 -1.4028  0.2349  0.8540
15262TIP3    H267278   5.808   3.121  11.241  0.3455 -1.1205 -0.8921
15263TIP3   OH267279   3.757   6.580   3.242  0.3648 -0.0980 -0.4379
15263TIP3    H167280   3.731   6.622   3.160  0.7995  2.0273  0.4406
15263TIP3    H267281   3.853   6.574   3.236  0.3133 -0.9008 -0.5105
15264TIP3   OH267282   0.047   0.121   1.412 -0.1585  0.3093 -0.2169
15264TIP3    H167283   0.070   0.182   1.481  0.4623  1.5447 -1.4696
15264TIP3    H267284   0.055   0.172   1.331 -0.3518 -1.2204 -1.2418
15265TIP3   OH267285   4.059   2.111   4.800  0.0176  0.1112 -0.2724
15265TIP3    H167286   4.145   2.149   4.782  0.4088 -1.1589 -1.2362
15265TIP3    H267287   4.025   2.087   4.714 -0.7452 -0.5751  0.2101
15266TIP3   OH267288   0.052   3.577   0.045  0.3054 -0.3377  0.0435
15266TIP3    H167289   0.088   3.561  -0.042  0.0087 -0.7407 -0.0093
15266TIP3    H267290  -0.043   3.573   0.033  0.2390  0.4304  0.2340
15267TIP3   OH267291   0.764   4.516  12.605  0.5653 -0.0773  0.2874
15267TIP3    H167292   0.691   4.573  12.629  0.1513 -0.8896  1.0275
15267TIP3    H267293   0.836   4.545  12.660  1.1700  1.4464 -1.2095
15268TIP3   OH267294   0.043   0.497   4.348 -0.3076 -0.5317 -0.1966
15268TIP3    H167295   0.137   0.496   4.329 -0.1148  1.5048  0.4686
15268TIP3    H267296   0.038   0.480   4.442 -0.6479 -0.9954 -0.2960
15269TIP3   OH267297   6.607   4.555   2.593  0.3407 -0.0856 -0.3090
15269TIP3    H167298   6.536   4.597   2.545 -0.6884  0.5905  1.6781
15269TIP3    H267299   6.570   4.473   2.625  0.0316  0.7360  1.6072
15270TIP3   OH267300   2.214   6.404   4.723 -0.4295 -0.3235 -0.0137
15270TIP3    H167301   2.279   6.338   4.748  0.0186  0.7864  1.9850
15270TIP3    H267302   2.132   6.372   4.760 -0.4873 -0.4297 -0.2337
15271TIP3   OH267303   0.769   7.170   2.021  0.2744  0.1736 -0.0546
15271TIP3    H167304   0.674   7.170   2.029  0.3308 -0.4945  0.8732
15271TIP3    H267305   0.785   7.166   1.927 -0.6034  0.7587 -0.2439
15272TIP3   OH267306   1.917   3.595  10.262 -0.5287 -0.4496  0.4852
15272TIP3    H167307   1.831   3.563  10.291 -0.2633 -1.2453  0.3984
15272TIP3    H267308   1.898   3.679  10.219 -0.8312  1.4426  3.9521
15273TIP3   OH267309   0.122   4.700   3.035  0.4357 -0.6226  0.0813
15273TIP3    H167310   0.091   4.740   3.116  0.9953  0.2861 -0.1311
15273TIP3    H267311   0.065   4.736   2.967  1.3077  0.3415 -0.1894
15274TIP3   OH267312   5.347   4.447   5.013  0.0512  0.1026  0.3168
15274TIP3    H167313   5.257   4.422   5.030  0.2619 -1.8274 -1.0550
15274TIP3    H267314   5.352   4.458   4.917  0.9887  1.4760  0.4793
15275TIP3   OH267315   2.588   2.595   5.963 -0.0812  0.2691 -0.4965
15275TIP3    H167316   2.549   2.657   5.901 -0.0717 -0.2797 -1.0568
15275TIP3    H267317   2.532   2.517   5.956  0.6382 -0.2318 -0.7118
15276TIP3   OH267318   2.130   1.339  14.983  0.6100  0.3832  0.1264
15276TIP3    H167319   2.164   1.269  15.039  0.2230 -0.0493 -0.1676
15276TIP3    H267320   2.045   1.360  15.020 -0.0583 -0.5420 -0.8076
15277TIP3   OH267321   1.025   2.492  12.926 -0.9180 -0.0250  0.7139
15277TIP3    H167322   0.969   2.527  12.995 -0.5056 -0.0753  1.0771
15277TIP3    H267323   0.966   2.438  12.873 -1.9426  2.3364 -0.7554
15278TIP3   OH267324   2.747   2.749   4.127  0.2962  0.3106 -0.5836
15278TIP3    H167325   2.690   2.807   4.178 -1.5206 -2.0660  0.2469
15278TIP3    H267326   2.747   2.787   4.039  0.8618  2.6628  0.3423
15279TIP3   OH267327   6.306   4.140   5.006 -0.6314 -0.4573  0.4034
15279TIP3    H167328   6.221   4.120   5.046 -0.4956 -1.6725  0.1348
15279TIP3    H267329   6.369   4.131   5.078 -0.7543  0.9376  0.7211
15280TIP3   OH267330   2.475   6.557   3.388 -0.2767  0.0003 -0.3780
15280TIP3    H167331   2.533   6.587   3.457  0.5580 -0.0340 -1.0498
15280TIP3    H267332   2.489   6.620   3.316 -2.6562  1.2997  0.1870
15281TIP3   OH267333   1.072   1.705   4.148  0.3409  0.1513  1.0419
15281TIP3    H167334   1.133   1.653   4.200  1.2856  1.9040  1.7784
15281TIP3    H267335   1.121   1.727   4.069 -0.6521 -1.4390 -0.0708
15282TIP3   OH267336   3.287   1.228   4.404  0.5107 -0.2659 -0.1226
15282TIP3    H167337   3.241   1.213   4.321  1.2510 -2.6236 -0.1851
15282TIP3    H267338   3.336   1.308   4.390 -2.6053  1.7794 -0.4475
15283TIP3   OH267339   2.677   6.648   1.097 -0.2640 -0.1297 -0.2855
15283TIP3    H167340   2.687   6.687   1.010  0.8721  0.7150  0.1912
15283TIP3    H267341   2.729   6.567   1.093 -0.3527 -0.1786 -0.4452
15284TIP3   OH267342   3.878   1.943   4.259  0.6495  0.3998 -0.1715
15284TIP3    H167343   3.831   1.869   4.220  1.0028 -0.4467  0.9532
15284TIP3    H267344   3.833   2.020   4.225 -0.6508 -0.3612 -0.2672
15285TIP3   OH267345   4.762   3.596  15.196 -0.1773 -0.1688 -0.3988
15285TIP3    H167346   4.762   3.587  15.101  1.4927 -0.7379 -0.3763
15285TIP3    H267347   4.843   3.643  15.216 -0.6561  0.2168  0.7195
15286TIP3   OH267348   3.093   2.558   2.868 -0.2430  0.2053  0.2349
15286TIP3    H167349   3.050   2.636   2.831  2.4699  1.2523 -0.9519
15286TIP3    H267350   3.063   2.555   2.959 -2.5890  0.9513 -0.4427
15287TIP3   OH267351   4.687   4.461   0.836  0.5056  0.1962 -0.0342
15287TIP3    H167352   4.612   4.453   0.894 -1.7314 -1.0263 -2.8205
15287TIP3    H267353   4.658   4.522   0.768  1.4535 -1.3369 -1.9133
15288TIP3   OH267354   2.609   5.858   3.815 -0.0593  0.5139  0.5533
15288TIP3    H167355   2.551   5.789   3.846  0.7059  0.0229  0.9207
15288TIP3    H267356   2.582   5.936   3.864 -0.6638  0.3846  0.4297
15289TIP3   OH267357   5.266   2.351   1.252 -0.0319 -0.5780  0.0965
15289TIP3    H167358   5.354   2.316   1.239 -0.4076 -1.4367 -0.2280
15289TIP3    H267359   5.251   2.346   1.346  0.7263  0.7428  0.3080
15290TIP3   OH267360   3.997   6.138   5.287  0.0237 -0.2871 -0.2059
15290TIP3    H167361   4.025   6.212   5.341  0.7339 -0.4449 -0.3516
15290TIP3    H267362   3.916   6.168   5.246 -1.1025 -0.5210  1.7115
15291TIP3   OH267363   0.912   6.522   4.242  0.1506  0.8441  0.3491
15291TIP3    H167364   0.981   6.503   4.178 -1.0348 -3.1920 -0.0002
15291TIP3    H267365   0.831   6.521   4.191 -0.6452 -0.4802  1.5726
15292TIP3   OH267366   0.945   6.709   0.544 -0.0339 -0.1106  0.7270
15292TIP3    H167367   0.935   6.732   0.452 -0.4000  1.0723  1.0359
15292TIP3    H267368   0.970   6.792   0.586 -0.3292 -0.5320  1.7602
15293TIP3   OH267369   2.990   3.049   1.819  0.1057  0.0216  0.1760
15293TIP3    H167370   3.035   2.964   1.813  1.0166  0.4355  0.8330
15293TIP3    H267371   2.968   3.071   1.729  3.0418  0.7084 -0.5115
15294TIP3   OH267372   3.890   2.346   4.916 -0.3696 -0.1264 -0.3776
15294TIP3    H167373   3.956   2.296   4.965 -1.8572 -0.3185  1.4996
15294TIP3    H267374   3.864   2.287   4.845 -0.0712 -0.9143  0.1492
15295TIP3   OH267375   4.463   4.050  10.218  0.3437  0.3451  0.2008
15295TIP3    H167376   4.376   4.083  10.240 -0.5192 -0.8237 -1.2466
15295TIP3    H267377   4.521   4.124  10.231 -0.9164  1.2629  0.8425
15296TIP3   OH267378   4.660   5.006   3.900  0.0521  0.3290  0.0131
15296TIP3    H167379   4.627   4.985   3.812 -1.5873 -0.2002  0.7112
15296TIP3    H267380   4.704   4.926   3.929 -1.4456 -0.3247  0.5559
15297TIP3   OH267381   4.903   2.578   3.715 -0.2260  1.6474 -0.0565
15297TIP3    H167382   4.841   2.506   3.708  0.0063  1.5216 -1.0062
15297TIP3    H267383   4.928   2.597   3.624  2.1401  0.7845  0.3347
15298TIP3   OH267384   4.715   6.553   5.318  0.7168  0.0954  0.1327
15298TIP3    H167385   4.807   6.573   5.335  0.4158 -0.0146  2.0930
15298TIP3    H267386   4.679   6.531   5.403 -1.1181  0.0369 -0.6132
15299TIP3   OH267387   1.883   0.232   3.364 -0.3985  0.7468  0.1143
15299TIP3    H167388   1.912   0.300   3.425  1.1562 -0.4085  0.7244
15299TIP3    H267389   1.948   0.234   3.293  1.5535 -2.0933  1.6461
15300TIP3   OH267390   0.450   2.776   1.879 -0.4342  0.0013 -0.5969
15300TIP3    H167391   0.387   2.843   1.855 -1.9690 -0.2621  2.2809
15300TIP3    H267392   0.515   2.822   1.932 -0.5415 -0.4645 -0.0526
15301TIP3   OH267393   5.637   4.470   0.520  0.4128  0.6073  0.0143
15301TIP3    H167394   5.546   4.464   0.489  0.4076  0.7693 -0.0053
15301TIP3    H267395   5.629   4.493   0.613  0.4374  1.2093 -0.1286
15302TIP3   OH267396   1.491   1.330   2.004  0.0009  0.2492 -0.3701
15302TIP3    H167397   1.471   1.378   2.084  0.9323  0.5592 -0.3062
15302TIP3    H267398   1.416   1.271   1.991  0.8369 -1.5126  2.0202
15303TIP3   OH267399   5.586   4.613   3.901  0.2192 -0.1252  0.1465
15303TIP3    H167400   5.506   4.657   3.874 -0.3125 -1.6205 -0.8805
15303TIP3    H267401   5.633   4.596   3.819  1.0943 -0.1879  0.6432
15304TIP3   OH267402   6.734   2.676  12.344  0.6779  0.5481  0.8538
15304TIP3    H167403   6.739   2.764  12.381  0.6034  1.8924 -2.0622
15304TIP3    H267404   6.825   2.645  12.344  1.1090  1.6979 -0.3417
15305TIP3   OH267405   1.941   5.197   2.355  0.1059  0.5243  0.0930
15305TIP3    H167406   1.855   5.164   2.382  0.3230 -0.4572 -0.3920
15305TIP3    H267407   1.926   5.236   2.269  0.3593 -0.7211 -0.5395
15306TIP3   OH267408   1.166   1.379   4.727  0.7099  0.5394 -0.0374
15306TIP3    H167409   1.115   1.395   4.807 -1.1901 -1.4940 -0.7469
15306TIP3    H267410   1.254   1.356   4.759 -0.2394 -1.1457  1.6010
15307TIP3   OH267411   2.931   4.490   1.080 -0.2346  0.0684 -0.5257
15307TIP3    H167412   2.970   4.566   1.123 -0.9415 -0.1653  0.5785
15307TIP3    H267413   2.930   4.513   0.987  2.5950  0.0266 -0.6490
15308TIP3   OH267414   6.851   1.014   4.428  0.4406 -0.5689 -0.1129
15308TIP3    H167415   6.820   1.103   4.412 -0.5426 -0.8580  0.0874
15308TIP3    H267416   6.944   1.023   4.448  0.3801  0.3917 -0.2541
15309TIP3   OH267417   1.832   5.341   4.779 -0.1393  0.3553 -0.2496
15309TIP3    H167418   1.848   5.418   4.834 -2.0554 -0.0531  0.9764
15309TIP3    H267419   1.737   5.341   4.766  0.0748 -0.5907 -2.0939
15310TIP3   OH267420   1.051   1.908   2.883  0.0094  0.4554 -0.0702
15310TIP3    H167421   1.098   1.989   2.900  0.6428  0.5092 -1.8636
15310TIP3    H267422   1.119   1.840   2.884 -0.8388 -0.6498  4.3788
15311TIP3   OH267423   0.717   5.163  14.116 -0.7031 -0.3887  0.5885
15311TIP3    H167424   0.739   5.184  14.026  2.0450  2.6199  1.7578
15311TIP3    H267425   0.634   5.208  14.132 -0.6605 -0.0471 -0.1563
15312TIP3   OH267426   6.807   4.842   0.689  0.2710  0.6179 -1.2868
15312TIP3    H167427   6.763   4.776   0.635 -0.0376  0.4621 -0.8509
15312TIP3    H267428   6.757   4.922   0.675  0.0727  0.5312 -1.0884
15313TIP3   OH267429   4.948   6.083   5.389 -0.4138 -0.1152 -0.2356
15313TIP3    H167430   5.031   6.064   5.432 -0.9868  0.9739  1.4701
15313TIP3    H267431   4.896   6.003   5.400 -0.3519 -0.0433  0.6642
15314TIP3   OH267432   7.080   3.471   4.222 -0.1707 -0.2394 -0.2646
15314TIP3    H167433   6.993   3.483   4.184 -0.7004 -0.3611  0.8632
15314TIP3    H267434   7.087   3.376   4.235  0.1288 -0.2272 -0.3364
15315TIP3   OH267435   4.849   6.746   2.695 -0.0951  0.7028  0.0215
15315TIP3    H167436   4.853   6.807   2.621 -0.0394  0.9827  0.2506
15315TIP3    H267437   4.917   6.682   2.677 -0.7609  0.1714 -0.6863
15316TIP3   OH267438   3.112   1.953   4.091  0.4742  0.8899 -0.3035
15316TIP3    H167439   3.031   1.990   4.123  0.0498 -0.2967  0.0419
15316TIP3    H267440   3.102   1.858   4.102  2.0962  0.7374  0.2190
15317TIP3   OH267441   3.235   5.583   4.562  0.1452  0.1534  0.1084
15317TIP3    H167442   3.244   5.676   4.579 -0.3003  0.6305 -1.9814
15317TIP3    H267443   3.324   5.549   4.566  0.6501  1.1845 -1.6431
15318TIP3   OH267444   2.037   1.948   2.539  0.1331  0.1102 -0.5914
15318TIP3    H167445   2.007   1.876   2.594 -0.1828  0.1214 -0.7444
15318TIP3    H267446   2.051   1.908   2.453  0.1081  0.1982 -0.6368
15319TIP3   OH267447   5.001   5.332   0.349 -0.6959  0.0363  0.1320
15319TIP3    H167448   4.991   5.252   0.401  0.1531  1.3459  2.4834
15319TIP3    H267449   5.082   5.318   0.300 -0.1075 -0.2425  1.1529
15320TIP3   OH267450   2.982   0.222   4.151 -0.2137  0.2237  0.0337
15320TIP3    H167451   3.057   0.212   4.210 -0.8413  1.2846  1.0646
15320TIP3    H267452   2.973   0.136   4.109  1.8767  0.2181 -0.5265
15321TIP3   OH267453   5.429   1.854   4.707 -0.3959  0.3019 -0.0192
15321TIP3    H167454   5.495   1.922   4.723  0.4385 -0.8807  1.9327
15321TIP3    H267455   5.414   1.815   4.793  0.3985 -3.0844 -1.2429
15322TIP3   OH267456   6.897   5.084   4.951 -0.1150 -0.5787  0.4623
15322TIP3    H167457   6.828   5.147   4.970  0.2029 -0.1870  0.3165
15322TIP3    H267458   6.940   5.070   5.035  0.9372  0.7376  0.1630
15323TIP3   OH267459   2.602   6.352   0.745 -0.3506 -0.1081 -0.0855
15323TIP3    H167460   2.547   6.430   0.745  1.6249  1.3934 -1.6829
15323TIP3    H267461   2.540   6.279   0.751 -2.2254  1.5296  2.2193
15324TIP3   OH267462   2.765   5.437  15.313 -0.2394 -0.6099 -0.8403
15324TIP3    H167463   2.724   5.481  15.387  0.2467 -0.8229 -0.4329
15324TIP3    H267464   2.778   5.506  15.248 -1.6690 -0.6384 -1.1750
15325TIP3   OH267465   0.694   3.888   3.728 -0.2001  0.2662 -0.4194
15325TIP3    H167466   0.741   3.889   3.644  0.3935  1.3088 -0.1009
15325TIP3    H267467   0.662   3.978   3.737  0.7339  0.4754  1.0119
15326TIP3   OH267468   2.177   4.092   4.067  0.0276 -0.4642  0.9652
15326TIP3    H167469   2.123   4.156   4.114 -0.8440 -0.3641 -0.1276
15326TIP3    H267470   2.242   4.146   4.020 -2.1494 -0.0720 -1.8558
15327TIP3   OH267471   4.071   2.717   3.237  0.1382  0.9411  0.1316
15327TIP3    H167472   4.054   2.812   3.240  0.6932  1.0761 -0.6180
15327TIP3    H267473   4.104   2.697   3.324 -1.0761  1.2135  0.6660
15328TIP3   OH267474   1.932   2.959   2.695 -0.3819 -0.4036  0.7315
15328TIP3    H167475   1.844   2.928   2.717  0.7838 -2.8871  2.4148
15328TIP3    H267476   1.925   2.990   2.605 -3.5647  2.2200  1.7105
15329TIP3   OH267477   7.209   4.216   0.878 -0.3594  0.4391 -0.0978
15329TIP3    H167478   7.222   4.242   0.787 -0.2164 -1.5169 -0.6862
15329TIP3    H267479   7.230   4.295   0.928 -0.5297  1.6011 -1.7360
15330TIP3   OH267480   1.469   5.474   1.144  0.0964 -0.1095 -0.3863
15330TIP3    H167481   1.534   5.446   1.080 -0.6658  0.6492 -1.5247
15330TIP3    H267482   1.421   5.544   1.101 -1.9432 -1.0891  0.1471
15331TIP3   OH267483   3.551   0.813   4.712  0.5696  0.4106 -0.5568
15331TIP3    H167484   3.522   0.723   4.727  2.3931 -0.1557 -0.1140
15331TIP3    H267485   3.602   0.835   4.790 -0.5560  2.1735 -0.2634
15332TIP3   OH267486   2.315   5.111   5.219 -0.8266  0.1745 -0.0758
15332TIP3    H167487   2.387   5.047   5.214 -0.9471  0.1682 -2.6455
15332TIP3    H267488   2.357   5.190   5.253  0.1212 -0.1901 -0.3516
15333TIP3   OH267489   2.584   4.135   1.580 -0.3937 -0.2196 -0.0162
15333TIP3    H167490   2.538   4.219   1.587  0.2250  0.1140  0.2005
15333TIP3    H267491   2.670   4.152   1.619 -0.8108 -1.4024  1.5118
15334TIP3   OH267492   3.891   6.104   1.754 -0.8145 -0.1415 -0.7581
15334TIP3    H167493   3.870   6.081   1.663  1.0144 -0.0081 -1.2436
15334TIP3    H267494   3.911   6.198   1.751  1.3795 -0.5571 -0.6711
15335TIP3   OH267495   6.325   2.058   4.510 -0.1895  0.5415  0.6624
15335TIP3    H167496   6.302   2.135   4.563  0.4774 -0.4590  2.4936
15335TIP3    H267497   6.363   1.996   4.573 -0.2561 -1.1057 -0.8472
15336TIP3   OH267498   6.938   2.826   3.838  0.4672 -0.3545  0.3843
15336TIP3    H167499   6.844   2.839   3.847  0.7368  3.0610 -0.2929
15336TIP3    H267500   6.975   2.854   3.921  0.9683 -0.6136  0.2586
15337TIP3   OH267501   4.429   7.006   0.861 -1.1341 -0.1294  0.0131
15337TIP3    H167502   4.446   6.946   0.787 -1.2018  1.1774 -1.0942
15337TIP3    H267503   4.515   7.017   0.903 -0.7310  0.4470 -0.9241
15338TIP3   OH267504   4.135   0.504   0.706 -0.5759  0.4423 -0.3592
15338TIP3    H167505   4.091   0.419   0.697  0.7635 -0.2803 -0.2108
15338TIP3    H267506   4.186   0.497   0.786  0.6972  0.8604 -1.1150
15339TIP3   OH267507   1.966   3.319  14.111 -0.7493 -0.0646 -0.3115
15339TIP3    H167508   1.993   3.403  14.148  0.4687 -0.3498 -0.5214
15339TIP3    H267509   1.934   3.341  14.023  1.1418  0.0060 -1.0271
15340TIP3   OH267510   3.827   0.253   4.166 -0.1540  0.3040 -0.2021
15340TIP3    H167511   3.856   0.234   4.256 -1.2396  1.4026  0.3995
15340TIP3    H267512   3.792   0.169   4.135  0.1696 -0.0732  0.4202
15341TIP3   OH267513   2.262   1.956   1.677  0.0717  0.3612  0.0195
15341TIP3    H167514   2.174   1.922   1.659  1.3491 -3.3251 -0.1686
15341TIP3    H267515   2.288   1.998   1.595 -1.0892  0.5080 -0.2959
15342TIP3   OH267516   1.424   1.601   1.428  0.4348 -0.3661 -0.5338
15342TIP3    H167517   1.354   1.656   1.394 -1.6181 -0.3404  3.1920
15342TIP3    H267518   1.476   1.659   1.483  0.6395 -1.3042  0.3002
15343TIP3   OH267519   3.026   5.150  12.430  0.1071  0.0653  0.9086
15343TIP3    H167520   3.032   5.084  12.498  2.9508 -0.2787  0.4425
15343TIP3    H267521   3.112   5.194  12.431 -0.7698  1.9793 -0.5440
15344TIP3   OH267522   6.773   1.626   3.997 -0.4632  0.2048  0.1026
15344TIP3    H167523   6.828   1.589   4.066 -2.2008 -3.3186 -0.1544
15344TIP3    H267524   6.685   1.625   4.034 -1.1097  0.3999 -1.3636
15345TIP3   OH267525   3.765   5.331   1.620  0.4216  0.0753  0.0960
15345TIP3    H167526   3.796   5.365   1.536  0.7609 -1.3072 -0.3683
15345TIP3    H267527   3.677   5.367   1.629  0.3520  0.1775 -0.9014
15346TIP3   OH267528   0.684   0.893   5.458  0.0311  0.4230  0.6570
15346TIP3    H167529   0.719   0.982   5.462 -0.7086  0.7043  0.9776
15346TIP3    H267530   0.760   0.837   5.476  0.2563  1.0392  1.7189
15347TIP3   OH267531   5.778   6.842   5.322  0.2632 -0.5846 -0.3919
15347TIP3    H167532   5.872   6.859   5.319  0.4777 -1.0042  2.1476
15347TIP3    H267533   5.745   6.899   5.392 -1.2677 -0.8991 -0.8096
15348TIP3   OH267534   3.766   0.088   5.230 -0.6520 -0.7927 -0.0387
15348TIP3    H167535   3.730   0.109   5.144  0.0716 -0.6962 -0.3309
15348TIP3    H267536   3.738   0.160   5.286  0.0822 -0.0923 -0.5457
15349TIP3   OH267537   3.320   5.326   1.409  0.4964 -0.5961  0.3656
15349TIP3    H167538   3.326   5.253   1.348 -0.9241 -1.2824  1.0073
15349TIP3    H267539   3.239   5.371   1.384  0.2903 -0.4509  1.2603
15350TIP3   OH267540   1.172   1.221  13.474  0.1330  0.2221  0.3588
15350TIP3    H167541   1.167   1.130  13.503  0.3744  0.0181 -0.2234
15350TIP3    H267542   1.262   1.248  13.492  0.3156  0.0587 -0.2949
15351TIP3   OH267543   0.294   6.227   0.960 -0.5717 -0.1042 -0.2062
15351TIP3    H167544   0.324   6.236   1.051 -1.0400 -1.9294  0.1810
15351TIP3    H267545   0.371   6.198   0.912 -0.6739 -0.6630 -0.0504
15352TIP3   OH267546   4.236   4.986   3.407 -0.2180 -0.6138  0.4352
15352TIP3    H167547   4.210   5.074   3.434 -0.3863 -0.4467 -0.2522
15352TIP3    H267548   4.326   4.996   3.374 -0.6403 -0.4720 -0.7144
15353TIP3   OH267549   1.637   4.616   5.141  0.2406  0.0530 -0.2237
15353TIP3    H167550   1.642   4.610   5.236 -3.0796 -0.5851  0.0221
15353TIP3    H267551   1.589   4.697   5.124  0.4675 -0.0342 -1.3649
15354TIP3   OH267552   3.862   0.001   2.559 -0.3721  0.2386 -0.1968
15354TIP3    H167553   3.950   0.038   2.554 -0.9399  1.6581 -0.2797
15354TIP3    H267554   3.834  -0.007   2.468 -0.5823  0.4440 -0.1505
15355TIP3   OH267555   3.511   7.042   0.779 -0.9042 -0.0428  0.4605
15355TIP3    H167556   3.496   7.007   0.691 -0.9367 -2.5701  1.3745
15355TIP3    H267557   3.423   7.059   0.812 -0.9701 -0.3172  0.4348
15356TIP3   OH267558   4.926   5.509   9.956 -0.4664 -0.6014  0.0182
15356TIP3    H167559   4.941   5.495   9.862 -1.8993 -0.1236 -0.2996
15356TIP3    H267560   4.831   5.507   9.966 -0.3394 -0.4993  1.4487
15357TIP3   OH267561   4.144   0.793   3.949  0.0141 -0.0614  0.3357
15357TIP3    H167562   4.160   0.830   4.036  1.5104  0.2066 -0.0143
15357TIP3    H267563   4.232   0.787   3.910 -0.7458  1.3798 -1.7720
15358TIP3   OH267564   1.083   0.481  15.191  0.3480 -0.0942  0.0330
15358TIP3    H167565   1.064   0.425  15.116  0.5544 -0.4659  0.2543
15358TIP3    H267566   1.163   0.528  15.166 -0.7336  1.3686 -0.8405
15359TIP3   OH267567   0.799   2.068   3.638 -0.0169 -0.3005 -0.1004
15359TIP3    H167568   0.789   2.121   3.717 -0.7268 -0.9057  0.2297
15359TIP3    H267569   0.838   2.128   3.574  0.2391  0.2980  0.5918
15360TIP3   OH267570   3.891   7.145   0.687  0.4907  0.3648  0.2336
15360TIP3    H167571   3.819   7.208   0.684 -0.7272 -0.9712 -0.0430
15360TIP3    H267572   3.925   7.151   0.776  0.4440  1.4350  0.1960
15361TIP3   OH267573   5.843   6.155  12.273 -0.3300 -0.2413 -0.0758
15361TIP3    H167574   5.829   6.073  12.226  0.4732 -0.7428  0.5242
15361TIP3    H267575   5.787   6.218  12.229  1.0581 -0.4438 -2.2962
15362TIP3   OH267576   6.541   4.772  15.240  0.8673 -0.3447 -0.2977
15362TIP3    H167577   6.599   4.737  15.307  0.3370  0.0634  0.3869
15362TIP3    H267578   6.544   4.707  15.170  1.0565 -1.0276  0.3258
15363TIP3   OH267579   3.690   5.994   3.321  0.1287  0.5799  0.0313
15363TIP3    H167580   3.741   5.931   3.271  0.4579 -0.1533  1.2450
15363TIP3    H267581   3.600   5.981   3.292  0.1077 -0.8996  0.6907
15364TIP3   OH267582   5.844   3.281   4.376  0.7334  0.0758 -0.2000
15364TIP3    H167583   5.904   3.239   4.437  1.6994  1.8716  0.1423
15364TIP3    H267584   5.873   3.251   4.289  2.6034  1.4288 -0.0935
15365TIP3   OH267585   0.872   2.262   3.441  0.3831 -0.3193 -0.2135
15365TIP3    H167586   0.881   2.357   3.430 -3.4264  0.2576  0.2341
15365TIP3    H267587   0.833   2.233   3.358  0.3082 -1.2527  0.1415
15366TIP3   OH267588   4.349   4.884   3.682  0.8819  0.1234 -0.5026
15366TIP3    H167589   4.397   4.823   3.626  0.1586  0.7683 -1.8499
15366TIP3    H267590   4.352   4.967   3.636  0.3909  0.7119  0.4979
15367TIP3   OH267591   6.953   4.213   3.304 -0.3167  0.0448  0.4125
15367TIP3    H167592   7.024   4.183   3.361  1.3775  0.0462 -1.5811
15367TIP3    H267593   6.972   4.174   3.219 -3.2455 -0.6682 -0.0056
15368TIP3   OH267594   1.792   0.663   4.844  0.5069 -0.1165  0.2258
15368TIP3    H167595   1.800   0.641   4.936 -2.6988 -1.4901  0.3260
15368TIP3    H267596   1.701   0.640   4.822  1.2301 -0.1331 -3.3281
15369TIP3   OH267597   6.275   2.189   3.997  0.6630 -0.0170  0.1045
15369TIP3    H167598   6.226   2.111   3.969  1.6064  0.1832 -2.3195
15369TIP3    H267599   6.215   2.235   4.055 -1.3325 -0.7283 -1.2726
15370TIP3   OH267600   4.542   6.750   5.242 -0.4154 -0.0275 -0.0160
15370TIP3    H167601   4.516   6.727   5.331 -3.8920 -0.4667 -0.9711
15370TIP3    H267602   4.598   6.678   5.213  0.6950  0.0850  1.7464
15371TIP3   OH267603   0.211   2.056   3.473 -0.1755 -0.6747  0.3513
15371TIP3    H167604   0.219   2.129   3.411 -1.6222 -1.0709 -0.3659
15371TIP3    H267605   0.165   1.988   3.423  1.0475 -2.0451  1.0431
15372TIP3   OH267606   3.150   0.756   2.070 -0.2536  0.5044 -0.3821
15372TIP3    H167607   3.246   0.753   2.075 -0.2486  1.8478  1.4466
15372TIP3    H267608   3.122   0.756   2.162 -2.0690 -0.6995 -0.8896
15373TIP3   OH267609   4.532   5.535   3.482 -0.3327 -0.2326 -0.7165
15373TIP3    H167610   4.496   5.515   3.568  0.9690  1.4216  0.2875
15373TIP3    H267611   4.516   5.456   3.430 -4.3010 -0.0576 -0.0934
15374TIP3   OH267612   1.706   3.632  14.421  0.2610  0.2522  0.0090
15374TIP3    H167613   1.647   3.568  14.381 -0.0584 -1.2433  2.6494
15374TIP3    H267614   1.756   3.668  14.348 -1.6533 -0.8045 -1.9310
15375TIP3   OH267615   3.995   1.414   3.063 -0.0163  0.3563 -0.0184
15375TIP3    H167616   3.978   1.399   2.969  1.1595 -0.5933 -0.0981
15375TIP3    H267617   4.038   1.499   3.066 -1.4498  1.1321 -0.1566
15376TIP3   OH267618   4.909   5.588   0.791 -0.5464 -0.4673 -0.1373
15376TIP3    H167619   4.891   5.535   0.713  1.0232 -0.6841 -0.3853
15376TIP3    H267620   4.983   5.545   0.832 -0.2045  0.6902  0.4919
15377TIP3   OH267621   7.014   6.861   3.796  0.0508 -0.0617  0.1259
15377TIP3    H167622   6.997   6.778   3.752 -1.4636  0.0873  0.3724
15377TIP3    H267623   7.108   6.863   3.808  0.1163 -1.7491  0.1209
15378TIP3   OH267624   5.396   6.603   4.915  0.1897  0.4122  0.4938
15378TIP3    H167625   5.330   6.672   4.913 -0.1722  0.1115  1.6196
15378TIP3    H267626   5.347   6.522   4.908  0.5844  0.2327 -0.4098
15379TIP3   OH267627   6.977   1.141   4.113 -0.0033  0.4682  0.6025
15379TIP3    H167628   6.905   1.189   4.073 -1.4582 -1.5933  0.6075
15379TIP3    H267629   6.951   1.049   4.107  2.1458 -0.2682  1.5877
15380TIP3   OH267630   5.254   2.063  11.950 -0.2927  0.0348 -0.0711
15380TIP3    H167631   5.313   2.139  11.949  1.0647 -0.9792 -1.3108
15380TIP3    H267632   5.266   2.022  11.864 -0.5177 -1.9479  0.7961
15381TIP3   OH267633   4.091   0.299   5.227 -0.0214 -0.5593  0.2936
15381TIP3    H167634   4.023   0.282   5.291 -0.7913 -0.1555 -0.4052
15381TIP3    H267635   4.061   0.376   5.179  0.3940 -1.0202 -0.7359
15382TIP3   OH267636   4.832   4.307   4.767  0.0648 -0.7674  0.2815
15382TIP3    H167637   4.904   4.370   4.759  0.3121 -1.1065 -0.3083
15382TIP3    H267638   4.765   4.352   4.818 -0.0331  0.2126 -0.6812
15383TIP3   OH267639   5.254   4.754   3.080 -0.1685 -0.1580  0.4403
15383TIP3    H167640   5.251   4.842   3.117  0.3037 -0.4042  1.0698
15383TIP3    H267641   5.200   4.701   3.138 -2.1644  0.1065 -1.0751
15384TIP3   OH267642   0.157   6.076   4.325 -0.2304  0.1603  0.4653
15384TIP3    H167643   0.225   6.143   4.318  0.3376 -0.6082 -2.6479
15384TIP3    H267644   0.205   5.995   4.343 -0.0447 -0.5642 -2.6932
15385TIP3   OH267645   6.877   2.738   5.983  0.8632 -0.0539 -0.2838
15385TIP3    H167646   6.825   2.726   5.904  1.7496 -1.7054 -0.6759
15385TIP3    H267647   6.876   2.652   6.025  0.0145  0.9029  1.7918
15386TIP3   OH267648   5.251   5.329   4.051 -0.2628 -0.0231  0.6929
15386TIP3    H167649   5.254   5.406   3.994  0.9830 -0.4769  0.1107
15386TIP3    H267650   5.163   5.295   4.041 -0.2345  0.2241 -0.5521
15387TIP3   OH267651   1.396   1.586   1.841 -0.0193  0.2552  0.1682
15387TIP3    H167652   1.468   1.523   1.846 -0.0841  0.2348  1.0189
15387TIP3    H267653   1.329   1.543   1.789  0.4880  0.1831 -0.4373
15388TIP3   OH267654   4.638   4.433   1.443  0.4412  0.1660 -0.0984
15388TIP3    H167655   4.652   4.449   1.350 -0.3898 -1.4851 -0.5419
15388TIP3    H267656   4.717   4.467   1.485  1.0885  0.4144 -1.4542
15389TIP3   OH267657   5.851   1.143   3.098  0.2530 -0.6363 -0.8544
15389TIP3    H167658   5.826   1.199   3.025  2.1696 -0.1051 -1.1635
15389TIP3    H267659   5.929   1.096   3.066  2.3448  1.0269  1.4349
15390TIP3   OH267660   3.908   3.887   4.449  0.0873  0.3711 -0.2525
15390TIP3    H167661   3.827   3.927   4.480 -2.0057 -2.3550 -1.7314
15390TIP3    H267662   3.911   3.907   4.356 -1.3732 -3.0383 -1.2096
15391TIP3   OH267663   3.034   5.017   2.397 -0.5906 -0.2752 -0.5079
15391TIP3    H167664   3.058   5.080   2.329  0.8614  0.8571  0.9706
15391TIP3    H267665   3.028   4.933   2.351 -1.3626  0.7048 -2.3067
15392TIP3   OH267666   6.091   4.395   1.545 -0.7032  0.3505 -0.0911
15392TIP3    H167667   6.164   4.395   1.607 -0.5075 -0.4905 -0.3059
15392TIP3    H267668   6.122   4.341   1.472 -1.7944 -0.6067  0.1320
15393TIP3   OH267669   0.687   0.033  14.652  0.2944 -0.2291 -0.4453
15393TIP3    H167670   0.669  -0.061  14.648  0.4583 -0.2294 -1.3021
15393TIP3    H267671   0.617   0.069  14.707 -0.0111 -0.7905 -0.4658
15394TIP3   OH267672   2.182   5.323   0.374  0.6817 -0.0430 -0.0221
15394TIP3    H167673   2.140   5.240   0.349  0.2012  0.2135 -0.0657
15394TIP3    H267674   2.126   5.391   0.336  0.3278  0.3320  1.1356
15395TIP3   OH267675   5.790   5.055   4.186 -0.3532 -0.3796 -0.4088
15395TIP3    H167676   5.737   5.005   4.124  0.7575 -0.2807 -1.4719
15395TIP3    H267677   5.823   5.129   4.134 -0.3376  0.3412  0.6089
15396TIP3   OH267678   0.553   1.487   4.489  0.4660  0.4023  0.0466
15396TIP3    H167679   0.504   1.433   4.551 -1.5557  2.2240  0.1753
15396TIP3    H267680   0.486   1.522   4.430  1.7044  2.3643 -0.2884
15397TIP3   OH267681   0.212   2.851   3.445  0.1099 -0.1976 -0.1485
15397TIP3    H167682   0.296   2.876   3.484 -0.4078 -0.4902  1.2100
15397TIP3    H267683   0.147   2.900   3.496 -0.5939 -0.5860 -0.6612
15398TIP3   OH267684   2.256   0.783   3.476  0.5273 -0.2307 -0.2862
15398TIP3    H167685   2.343   0.743   3.475  1.2103  1.1665  0.6130
15398TIP3    H267686   2.212   0.743   3.551  0.7284 -0.2518 -0.1807
15399TIP3   OH267687   1.955   2.518   1.632  0.1207 -0.1015  0.3430
15399TIP3    H167688   1.923   2.576   1.563 -0.1926 -0.5457  0.1166
15399TIP3    H267689   2.038   2.484   1.599 -0.7186 -1.4488 -0.4572
15400TIP3   OH267690   2.899   3.760  10.561  0.0908 -0.1081 -0.0133
15400TIP3    H167691   2.857   3.820  10.622  1.5371  0.7059  0.2157
15400TIP3    H267692   2.873   3.792  10.474 -0.2446  0.0111  0.1295
15401TIP3   OH267693   6.192   5.971   3.131  0.2541  0.1415 -0.1436
15401TIP3    H167694   6.163   6.048   3.181  0.9874  0.5937 -0.4004
15401TIP3    H267695   6.158   5.897   3.181  1.9352  0.5201  1.7339
15402TIP3   OH267696   1.186   1.649   2.801 -0.4989  0.2922 -0.4292
15402TIP3    H167697   1.193   1.615   2.712 -1.7925  0.2106 -0.5199
15402TIP3    H267698   1.273   1.636   2.838 -1.0340 -4.0543 -0.1360
15403TIP3   OH267699   2.573   4.928   2.556 -0.5197 -0.3148  0.3977
15403TIP3    H167700   2.635   4.964   2.492 -0.4645  1.8985  1.5876
15403TIP3    H267701   2.629   4.887   2.622 -0.4531 -0.5017  0.2262
15404TIP3   OH267702   3.233   2.765   0.442  0.2002 -0.4137 -0.1211
15404TIP3    H167703   3.234   2.724   0.355  1.8124  1.4241 -1.0370
15404TIP3    H267704   3.288   2.708   0.496 -0.3335 -1.2459 -0.4364
15405TIP3   OH267705   4.181   6.329   4.416  0.2910  0.6116  0.0662
15405TIP3    H167706   4.218   6.240   4.418 -0.5562  0.2602  1.2433
15405TIP3    H267707   4.248   6.384   4.457  0.3021  0.3009  0.4694
15406TIP3   OH267708   6.784   0.319   3.538 -0.1589  0.9351 -0.0167
15406TIP3    H167709   6.837   0.317   3.458 -0.1022  1.2284  0.0113
15406TIP3    H267710   6.749   0.408   3.541 -1.1185  0.5831 -0.3317
15407TIP3   OH267711   4.623   2.469   5.512 -0.1815 -0.0101 -0.3657
15407TIP3    H167712   4.600   2.540   5.452 -1.0726 -1.1059 -1.3545
15407TIP3    H267713   4.681   2.511   5.576  0.2783  1.3411 -1.5939
15408TIP3   OH267714   0.840   1.131   0.775  0.6069  0.0310 -0.3593
15408TIP3    H167715   0.753   1.113   0.739 -0.6480  2.2292  1.2925
15408TIP3    H267716   0.823   1.152   0.867  3.1010 -0.8345  0.3593
15409TIP3   OH267717   2.608   6.832   2.392 -0.1840  0.0270  0.3632
15409TIP3    H167718   2.609   6.899   2.324 -1.0228 -0.4584 -0.1445
15409TIP3    H267719   2.694   6.790   2.385 -0.0806  0.3058 -0.0700
15410TIP3   OH267720   1.508   2.809   3.919 -0.2741 -0.5147  0.0142
15410TIP3    H167721   1.418   2.835   3.899 -0.8133 -1.7024  0.7472
15410TIP3    H267722   1.550   2.801   3.834 -0.6799  0.6367 -0.3123
15411TIP3   OH267723   3.303   2.154   3.348 -0.0062 -0.1652  0.6407
15411TIP3    H167724   3.264   2.132   3.433 -1.8856  1.3684  0.2604
15411TIP3    H267725   3.364   2.225   3.368  1.3837 -1.4224  1.0029
15412TIP3   OH267726   5.070   0.545   3.161  0.0238  0.3403  0.7255
15412TIP3    H167727   5.119   0.487   3.102 -1.0543 -0.1022  0.2330
15412TIP3    H267728   5.055   0.492   3.240  0.7173  0.6333  1.0606
15413TIP3   OH267729   3.803   5.393   1.107  0.3048  0.3468  0.0757
15413TIP3    H167730   3.744   5.468   1.105 -0.6199 -0.3253  1.0496
15413TIP3    H267731   3.849   5.396   1.024 -0.2191  1.5963 -0.1857
15414TIP3   OH267732   6.279   2.383   3.794  0.3728  0.5677 -0.0354
15414TIP3    H167733   6.287   2.434   3.875 -0.5191  0.5091  0.1051
15414TIP3    H267734   6.257   2.295   3.824 -0.6606  0.7020 -0.3470
15415TIP3   OH267735   0.011   2.597   4.975 -0.8851  0.2407 -0.1643
15415TIP3    H167736  -0.002   2.662   5.043  1.5370 -0.3585  0.9750
15415TIP3    H267737  -0.042   2.628   4.902 -2.3796  1.7025  1.4564
15416TIP3   OH267738   5.985   7.113   2.533 -0.4098 -0.3766  0.0097
15416TIP3    H167739   5.921   7.184   2.523  0.9909  0.7404 -1.5118
15416TIP3    H267740   6.005   7.113   2.626 -1.6419  0.1117  0.3047
15417TIP3   OH267741   6.651   5.429   0.786 -0.3197 -0.1474  0.1349
15417TIP3    H167742   6.730   5.393   0.827 -0.1633 -1.1866 -1.0312
15417TIP3    H267743   6.579   5.396   0.841 -0.0168 -0.0797  0.5789
15418TIP3   OH267744   6.663   5.953   2.776  0.9123  0.3225  0.3268
15418TIP3    H167745   6.668   5.924   2.685  1.0104 -0.0984  0.4642
15418TIP3    H267746   6.591   5.902   2.813 -0.6830  2.1308 -0.1023
15419TIP3   OH267747   4.531   5.240  14.741  0.6091 -0.8534  0.0674
15419TIP3    H167748   4.589   5.291  14.684  0.4703 -0.3230  0.3981
15419TIP3    H267749   4.534   5.284  14.825  0.1377 -1.1317  0.2357
15420TIP3   OH267750   6.296   1.656   2.848  0.2607  0.2328  0.0699
15420TIP3    H167751   6.218   1.601   2.836 -0.5052  0.7395  2.2483
15420TIP3    H267752   6.354   1.603   2.903  0.2170  0.9616  0.8344
15421TIP3   OH267753   4.296   4.158   4.261  0.9337 -0.2451 -0.1097
15421TIP3    H167754   4.273   4.069   4.236  0.9280 -0.3601  0.2909
15421TIP3    H267755   4.294   4.157   4.357 -1.3213  0.7701 -0.0929
15422TIP3   OH267756   0.596   1.227   3.361  0.3683  0.1374 -0.1617
15422TIP3    H167757   0.514   1.178   3.372 -0.0954  1.1359  1.0915
15422TIP3    H267758   0.598   1.250   3.268 -0.5526 -0.2796 -0.2971
15423TIP3   OH267759   5.697   7.108   5.900  0.0592  0.4274  0.7089
15423TIP3    H167760   5.680   7.014   5.900 -0.8765  0.5772 -0.4979
15423TIP3    H267761   5.786   7.116   5.866 -0.4907  0.0491 -0.8824
15424TIP3   OH267762   0.685   5.271  15.313  0.1529  0.4590 -0.2011
15424TIP3    H167763   0.732   5.287  15.395  1.4149 -0.8600 -0.6288
15424TIP3    H267764   0.594   5.257  15.340  0.4972  0.3050  0.9417
15425TIP3   OH267765   6.576   2.306   3.031  0.1292 -0.1104 -0.0058
15425TIP3    H167766   6.524   2.273   3.104  0.5310  2.5645  1.6300
15425TIP3    H267767   6.520   2.370   2.988  0.3164 -0.8259 -1.3592
15426TIP3   OH267768   1.104   1.418   6.028  0.0636 -0.7594 -0.2765
15426TIP3    H167769   1.087   1.509   6.051  0.3198 -1.1061  1.4431
15426TIP3    H267770   1.195   1.418   5.998  0.0356 -0.4373 -0.3685
15427TIP3   OH267771   5.212   4.718   1.346  0.0600  0.1765  0.1814
15427TIP3    H167772   5.117   4.719   1.335 -0.0936 -0.7410  1.2204
15427TIP3    H267773   5.247   4.744   1.260 -1.0754 -2.1090 -1.0430
15428TIP3   OH267774   7.103   2.390   0.519  0.0714 -0.0070 -0.2143
15428TIP3    H167775   7.036   2.332   0.482 -0.6228 -0.0503  1.0324
15428TIP3    H267776   7.183   2.369   0.471 -0.5187 -0.9109 -0.8296
15429TIP3   OH267777   4.578   4.231   0.105  0.1664 -0.1734  0.7985
15429TIP3    H167778   4.552   4.143   0.079 -2.1747  0.4114  0.9148
15429TIP3    H267779   4.579   4.281   0.023  0.6200 -0.1017  0.8450
15430TIP3   OH267780   3.416   0.599   3.050 -0.9922  0.0743 -0.6378
15430TIP3    H167781   3.326   0.596   3.019 -1.3203 -0.3772  0.3174
15430TIP3    H267782   3.451   0.512   3.029 -0.4054  0.6258 -2.0448
15431TIP3   OH267783   6.457   5.096   4.133 -0.3963  0.3822  0.0783
15431TIP3    H167784   6.461   5.134   4.045  1.6511  1.2051  0.4547
15431TIP3    H267785   6.461   5.001   4.118  0.8654  0.5347 -0.7268
15432TIP3   OH267786   1.476   4.153   5.793  0.6009  0.2914 -0.0844
15432TIP3    H167787   1.448   4.243   5.777  0.4649  0.0273 -1.4358
15432TIP3    H267788   1.403   4.112   5.840  0.1910  0.5707 -0.4767
15433TIP3   OH267789   6.274   5.954   4.838  0.3605  0.2391 -0.8534
15433TIP3    H167790   6.338   5.902   4.887  1.1170  0.9342 -1.0781
15433TIP3    H267791   6.280   5.921   4.748 -1.2405 -1.2405 -0.4779
15434TIP3   OH267792   3.149   3.511   4.874 -0.4425 -0.1139  0.0617
15434TIP3    H167793   3.116   3.587   4.921  2.9948  0.8416  1.2489
15434TIP3    H267794   3.104   3.436   4.913 -2.8830  1.1513 -0.1735
15435TIP3   OH267795   4.963   2.300  12.929 -0.2961  0.1293  0.2095
15435TIP3    H167796   4.913   2.364  12.878 -1.7811  0.8632  2.4416
15435TIP3    H267797   5.014   2.353  12.990 -0.3950 -0.7621  1.0870
15436TIP3   OH267798   1.678   4.527  13.844 -0.0071  0.2371 -0.7698
15436TIP3    H167799   1.650   4.540  13.753 -1.2421 -0.4516 -0.5041
15436TIP3    H267800   1.629   4.593  13.893  0.0702  0.0908 -0.4969
15437TIP3   OH267801   5.991   6.915   3.541  0.1091  0.0674  0.3887
15437TIP3    H167802   5.978   6.878   3.629  0.0595 -0.1787  0.2786
15437TIP3    H267803   6.006   6.839   3.485  0.5733  0.2543  0.2559
15438TIP3   OH267804   3.157   6.277   1.103 -0.2627 -0.3745 -0.0538
15438TIP3    H167805   3.133   6.212   1.037 -2.6211  0.4144 -0.0752
15438TIP3    H267806   3.149   6.361   1.059  1.3789  0.0267  0.3614
15439TIP3   OH267807   1.525   4.797   3.376 -0.2032  0.0767 -0.5571
15439TIP3    H167808   1.439   4.786   3.416  0.2321 -0.2746  0.3070
15439TIP3    H267809   1.513   4.868   3.312 -0.8944  0.7480  0.2878
15440TIP3   OH267810   7.111   6.309  12.578 -0.3270  0.2670  0.0114
15440TIP3    H167811   7.148   6.274  12.659 -1.0636  0.5532  0.4869
15440TIP3    H267812   7.022   6.275  12.576 -0.3991  0.4823 -0.5495
15441TIP3   OH267813   0.806   5.375   5.029 -0.3812  0.3750  0.5644
15441TIP3    H167814   0.719   5.344   5.003 -0.7079  0.9315  0.9791
15441TIP3    H267815   0.863   5.348   4.957 -0.7611 -0.6453  0.6274
15442TIP3   OH267816   1.515   1.612   2.563  0.3497 -0.1049 -0.1745
15442TIP3    H167817   1.501   1.673   2.635  0.8239 -1.1334  0.8163
15442TIP3    H267818   1.431   1.569   2.550  0.1478  0.3947 -0.5375
15443TIP3   OH267819   0.202   2.892   3.839  0.6181 -0.1159  0.2312
15443TIP3    H167820   0.157   2.945   3.773 -2.1637 -0.5998  1.5575
15443TIP3    H267821   0.246   2.957   3.895  2.1404  0.3510 -1.4477
15444TIP3   OH267822   6.235   6.893  14.058 -0.0441 -0.1648 -0.3248
15444TIP3    H167823   6.278   6.945  14.126  1.6814  0.1867 -1.6266
15444TIP3    H267824   6.232   6.804  14.094  0.7858  0.0241  0.2500
15445TIP3   OH267825   3.407   3.124   1.267  0.4474  0.1769  0.2196
15445TIP3    H167826   3.483   3.085   1.225 -0.5271 -0.4721 -0.9830
15445TIP3    H267827   3.341   3.131   1.198 -1.0050 -0.3820  1.4888
15446TIP3   OH267828   2.738   4.572   3.798  0.3441 -0.0267 -0.2972
15446TIP3    H167829   2.699   4.511   3.735  1.4640  0.9382 -1.9712
15446TIP3    H267830   2.832   4.559   3.790  0.5580 -1.2702  2.6370
15447TIP3   OH267831   5.878   2.158   4.209 -0.6228  0.1717  0.4031
15447TIP3    H167832   5.954   2.217   4.217 -1.6024  1.3016  2.0187
15447TIP3    H267833   5.807   2.215   4.180 -0.9833 -0.7945 -0.6817
15448TIP3   OH267834   0.121   0.967  12.527 -0.2094 -0.5798  0.8505
15448TIP3    H167835   0.081   1.053  12.519  2.4804  0.6116 -1.3516
15448TIP3    H267836   0.197   0.980  12.583  0.4544 -1.4050  0.1784
15449TIP3   OH267837   3.230   3.036   2.107  0.2018  0.2057 -0.1659
15449TIP3    H167838   3.311   3.031   2.055  1.7858 -0.1176  2.1861
15449TIP3    H267839   3.260   3.056   2.196 -2.2276 -1.0308  1.0145
15450TIP3   OH267840   4.160   1.512   5.137  0.5044  0.6358  0.6631
15450TIP3    H167841   4.119   1.524   5.052 -1.5313 -0.1180  1.4867
15450TIP3    H267842   4.104   1.560   5.198  0.5788 -0.7635  1.8939
15451TIP3   OH267843   3.435   4.699   4.326  0.1264  0.2605  0.1311
15451TIP3    H167844   3.359   4.678   4.272  0.2198  0.2188  0.0155
15451TIP3    H267845   3.434   4.794   4.334  0.4094  0.3121 -0.3801
15452TIP3   OH267846   4.252   6.404   3.884 -0.1551  0.2618  0.8024
15452TIP3    H167847   4.195   6.479   3.870 -1.3815 -0.5391  1.3651
15452TIP3    H267848   4.265   6.400   3.979  1.2698  0.7269  0.6494
15453TIP3   OH267849   6.454   2.717   1.138 -0.5394  0.0923  0.0903
15453TIP3    H167850   6.400   2.783   1.093  0.3239  1.8441  1.4694
15453TIP3    H267851   6.419   2.715   1.228 -0.4532 -1.2667  0.1149
15454TIP3   OH267852   6.009   6.102   1.589  0.0205 -0.1317 -0.5680
15454TIP3    H167853   5.993   6.015   1.552  2.5840 -1.6007  1.3730
15454TIP3    H267854   6.095   6.127   1.554  0.0085  0.8965  0.0937
15455TIP3   OH267855   3.787   1.332   4.844  0.4401  0.2272 -0.3647
15455TIP3    H167856   3.809   1.269   4.776 -1.1145 -3.2630  2.0530
15455TIP3    H267857   3.697   1.358   4.825 -0.7869 -2.3851  1.2318
15456TIP3   OH267858   0.110   6.301   0.304 -0.2125 -0.3549  0.5117
15456TIP3    H167859   0.127   6.316   0.397 -2.1794 -0.5840  0.9508
15456TIP3    H267860   0.062   6.218   0.301  1.3713 -1.2773 -0.9115
15457TIP3   OH267861   5.372   3.147   3.884  0.2235  0.0926 -0.4893
15457TIP3    H167862   5.397   3.209   3.953  0.2847 -0.7008  0.2058
15457TIP3    H267863   5.452   3.100   3.864 -0.4746 -2.0124  1.2983
15458TIP3   OH267864   4.821   1.757   4.344 -0.2552  0.5699  0.4610
15458TIP3    H167865   4.860   1.844   4.334 -2.4954  1.4122 -2.2985
15458TIP3    H267866   4.866   1.703   4.280 -0.5993  0.3850  0.3738
15459TIP3   OH267867   5.716   0.034   0.463 -0.0764  0.0372  0.2241
15459TIP3    H167868   5.695  -0.049   0.505  0.4144 -0.4226 -0.4148
15459TIP3    H267869   5.670   0.031   0.379  0.8605 -0.0909 -0.2932
15460TIP3   OH267870   6.699   2.415   2.368 -0.3356 -0.6652  0.0121
15460TIP3    H167871   6.712   2.337   2.422 -0.0134 -0.7598 -0.1945
15460TIP3    H267872   6.769   2.474   2.395  0.1304 -0.9069 -0.6361
15461TIP3   OH267873   6.151   0.555  11.075 -0.0958 -0.4684 -0.2186
15461TIP3    H167874   6.063   0.578  11.046  0.4363  2.4536  0.1430
15461TIP3    H267875   6.138   0.510  11.158 -1.2759 -1.6087 -0.9834
15462TIP3   OH267876   2.671   3.487  11.494  0.1868  0.1449  0.3075
15462TIP3    H167877   2.601   3.489  11.559  0.6703 -0.2190  0.8528
15462TIP3    H267878   2.745   3.530  11.537  0.6794 -0.5904  0.2117
15463TIP3   OH267879   6.308   5.900   3.793 -0.9220  0.3135  0.3239
15463TIP3    H167880   6.362   5.955   3.849  0.2700  0.2181 -0.6858
15463TIP3    H267881   6.228   5.885   3.844 -0.5861  1.5967  1.2879
15464TIP3   OH267882   6.234   3.252  15.403  0.5287  0.0195 -0.5044
15464TIP3    H167883   6.160   3.205  15.363 -1.0527  1.8938  0.0916
15464TIP3    H267884   6.263   3.194  15.474  0.0461 -1.0127 -1.1143
15465TIP3   OH267885   1.759   5.804   5.260 -0.4283 -0.2463 -0.7221
15465TIP3    H167886   1.822   5.814   5.188 -0.1258  1.9758 -0.2482
15465TIP3    H267887   1.800   5.740   5.318  1.3562  0.9488 -0.5533
15466TIP3   OH267888   4.471   6.287   4.713  0.1269 -0.0804  0.1330
15466TIP3    H167889   4.418   6.364   4.693  0.0600 -0.3598 -0.7964
15466TIP3    H267890   4.498   6.300   4.804  0.1136  1.0329 -0.0072
15467TIP3   OH267891   0.677   3.042   4.925 -0.4325  0.2483  0.2764
15467TIP3    H167892   0.715   2.957   4.946  0.7354  0.4656 -0.8832
15467TIP3    H267893   0.597   3.020   4.876  0.6226 -0.1923 -1.2999
15468TIP3   OH267894   4.877   0.631   2.929 -1.0432 -0.3287 -0.0042
15468TIP3    H167895   4.957   0.619   2.979 -0.9815 -0.5665 -0.1544
15468TIP3    H267896   4.885   0.569   2.856 -1.6209 -0.7629  0.2937
15469TIP3   OH267897   3.941   4.504  13.967 -0.2208  0.2158  0.0100
15469TIP3    H167898   3.924   4.457  13.886 -0.6829  0.1096  0.1655
15469TIP3    H267899   3.953   4.595  13.940  1.7493 -0.1200 -0.4236
15470TIP3   OH267900   2.763   5.244   1.376 -0.4445  0.0019  0.7745
15470TIP3    H167901   2.696   5.312   1.365  0.4465  1.1812  2.2791
15470TIP3    H267902   2.715   5.161   1.367 -2.0466  0.8114  1.4597
15471TIP3   OH267903   6.234   6.499   4.982  0.0121  0.7784 -0.4202
15471TIP3    H167904   6.329   6.487   4.982 -0.2868 -2.2074 -0.9710
15471TIP3    H267905   6.209   6.493   5.075  0.2385  0.5459 -0.3757
15472TIP3   OH267906   2.549   0.908   3.831  0.3610  0.1236 -0.3878
15472TIP3    H167907   2.547   0.940   3.741 -0.6935 -1.3171 -0.9115
15472TIP3    H267908   2.636   0.932   3.863  0.3947  1.5315 -1.4422
15473TIP3   OH267909   2.249   4.829  15.228 -0.0966 -0.5992 -0.0458
15473TIP3    H167910   2.203   4.877  15.159 -1.0373  0.6272  1.3445
15473TIP3    H267911   2.186   4.762  15.256 -1.0946  0.9435  1.7129
15474TIP3   OH267912   0.176   1.109   1.766  0.2375  0.6336  0.5954
15474TIP3    H167913   0.135   1.030   1.732  0.1024  0.2736  1.5704
15474TIP3    H267914   0.268   1.102   1.740  0.1466  0.3382  0.3550
15475TIP3   OH267915   1.920   3.313   5.202 -0.0122 -0.1503 -0.0727
15475TIP3    H167916   1.840   3.354   5.236  0.0841 -1.5671  2.0597
15475TIP3    H267917   1.897   3.220   5.194  1.4702 -0.6258  0.8108
15476TIP3   OH267918   4.015   0.231   4.407  0.0375  0.6829  0.5222
15476TIP3    H167919   4.083   0.296   4.392  2.0432 -1.4912 -0.5755
15476TIP3    H267920   4.062   0.153   4.435 -1.8433 -1.2920 -1.3664
15477TIP3   OH267921   3.463   4.313   5.441 -0.2531 -0.0974  0.3868
15477TIP3    H167922   3.392   4.330   5.502 -0.6330  2.4344 -0.6514
15477TIP3    H267923   3.508   4.397   5.431  0.6576 -0.7513 -1.7359
15478TIP3   OH267924   5.486   3.734   2.464  0.1204  0.3189 -0.4355
15478TIP3    H167925   5.496   3.669   2.534  2.9986  0.9412 -0.1192
15478TIP3    H267926   5.418   3.792   2.496 -0.0110 -0.5309  0.9521
15479TIP3   OH267927   5.978   5.248  15.311 -0.7095  0.2183 -0.0202
15479TIP3    H167928   5.924   5.275  15.385 -1.3144  0.4920 -0.5537
15479TIP3    H267929   5.945   5.161  15.287  0.0509 -0.2403  0.5630
15480TIP3   OH267930   3.899   3.845   3.784  0.0399 -1.0450 -0.2564
15480TIP3    H167931   3.960   3.918   3.773 -0.2190 -0.8937 -0.7084
15480TIP3    H267932   3.950   3.768   3.756  0.4331 -1.0969  0.5714
15481TIP3   OH267933   0.673   3.152   0.856  0.0953 -0.4020  0.4534
15481TIP3    H167934   0.680   3.102   0.937  0.7104 -2.9849 -1.0548
15481TIP3    H267935   0.751   3.206   0.854 -0.7586  0.9827  2.3175
15482TIP3   OH267936   2.272   5.364   4.894 -0.1778  0.2681  0.4891
15482TIP3    H167937   2.366   5.361   4.875 -0.0863 -1.5403  1.0129
15482TIP3    H267938   2.243   5.447   4.857  1.2474 -0.0432 -1.5088
15483TIP3   OH267939   1.665   3.809   0.510 -0.0719 -0.1374 -0.2178
15483TIP3    H167940   1.676   3.740   0.444 -1.2795 -2.2571  1.6645
15483TIP3    H267941   1.742   3.803   0.565 -0.8278 -0.9832  0.7808
15484TIP3   OH267942   6.518   1.170  15.171  0.1194 -0.0704  0.6230
15484TIP3    H167943   6.586   1.138  15.231  1.5586 -0.1719 -0.9887
15484TIP3    H267944   6.563   1.179  15.087 -1.6354  0.8705 -0.2560
15485TIP3   OH267945   6.284   0.103   1.639 -0.3628  0.1523 -0.4775
15485TIP3    H167946   6.310   0.011   1.645 -1.0271 -0.1050 -1.3610
15485TIP3    H267947   6.338   0.147   1.704 -0.6271 -0.9928  0.5618
15486TIP3   OH267948   3.333   6.120   3.172 -0.2573  0.1287 -0.2466
15486TIP3    H167949   3.314   6.146   3.263 -1.1216 -1.8005  0.1718
15486TIP3    H267950   3.425   6.143   3.159  0.0262 -0.0157  1.3017
15487TIP3   OH267951   5.455   4.279   2.550  0.4705  0.5225  0.2587
15487TIP3    H167952   5.436   4.373   2.551 -0.4434  0.3925  2.4022
15487TIP3    H267953   5.388   4.243   2.492  1.2899  1.2302 -1.1876
15488TIP3   OH267954   4.118   4.271   2.467  0.1888  0.5205  0.8219
15488TIP3    H167955   4.172   4.247   2.392 -3.0668  2.3996 -2.3773
15488TIP3    H267956   4.049   4.204   2.469  0.5773  0.0938  2.7195
15489TIP3   OH267957   3.293   3.045   5.260  0.3371  0.2023 -0.1038
15489TIP3    H167958   3.354   3.084   5.322 -0.4220  0.4082  0.5134
15489TIP3    H267959   3.332   3.064   5.174  2.5300 -1.9089  0.3044
15490TIP3   OH267960   0.829   1.881   3.841  0.3629 -0.5135 -0.3204
15490TIP3    H167961   0.780   1.947   3.791  1.2228  0.4176  0.0203
15490TIP3    H267962   0.763   1.836   3.893 -0.2400  0.1330 -0.5125
15491TIP3   OH267963   4.262   2.408   4.940  0.2829 -0.5695  0.1175
15491TIP3    H167964   4.194   2.464   4.901  0.0500 -0.5590  0.5244
15491TIP3    H267965   4.260   2.431   5.033  0.8101 -0.6106  0.1375
15492TIP3   OH267966   6.244   2.028   0.821 -0.4340 -0.0272  0.7221
15492TIP3    H167967   6.184   1.955   0.834 -0.8066  0.2183  0.3735
15492TIP3    H267968   6.279   2.046   0.909  0.0531 -0.9514  0.7259
15493TIP3   OH267969   6.976   2.480   2.167  0.0799 -0.2528 -0.1105
15493TIP3    H167970   7.052   2.487   2.109  0.0553 -0.0940 -0.1239
15493TIP3    H267971   7.013   2.463   2.254  0.1259 -0.2626 -0.1320
15494TIP3   OH267972   4.524   1.246  15.210  0.0527 -0.5877  0.2583
15494TIP3    H167973   4.494   1.186  15.141 -0.0357  0.8103 -0.9724
15494TIP3    H267974   4.590   1.301  15.167 -1.2935  1.5244  0.7487
15495TIP3   OH267975   5.443   4.991  12.009 -0.4202  0.0423  0.7349
15495TIP3    H167976   5.379   4.941  11.959  0.7486 -0.2582 -0.5315
15495TIP3    H267977   5.463   4.936  12.085 -2.5416  0.6991  1.8496
15496TIP3   OH267978   3.684   4.186   0.423  0.2954  0.3422  0.1104
15496TIP3    H167979   3.591   4.162   0.432 -0.1995  1.6683 -1.1464
15496TIP3    H267980   3.731   4.105   0.442 -1.2386 -1.2464 -2.2829
15497TIP3   OH267981   4.738   6.325   1.648 -0.4395  0.0100  0.1356
15497TIP3    H167982   4.681   6.306   1.573 -0.5502  0.5637  0.0807
15497TIP3    H267983   4.745   6.241   1.693 -0.1535 -0.3945 -0.6401
15498TIP3   OH267984   6.592   3.846   3.487  0.4165 -0.1636  0.4433
15498TIP3    H167985   6.543   3.771   3.453 -0.5689  0.7887 -0.2904
15498TIP3    H267986   6.665   3.857   3.425  0.3553 -0.2857  0.3481
15499TIP3   OH267987   5.761   5.875   1.763  0.0117  0.6765  0.3827
15499TIP3    H167988   5.683   5.929   1.776 -1.5133 -1.5448  1.0887
15499TIP3    H267989   5.758   5.851   1.671 -1.5910 -1.3450  0.8832
15500TIP3   OH267990   2.166   5.549   4.201 -0.1061  0.0652 -0.8969
15500TIP3    H167991   2.077   5.565   4.233  0.3691  0.3367  0.3289
15500TIP3    H267992   2.223   5.590   4.266  0.9443 -0.7757 -1.2518
15501TIP3   OH267993   5.834   0.638   3.328  0.1287 -0.0429 -0.2801
15501TIP3    H167994   5.824   0.563   3.268  1.2747 -0.4889  0.0661
15501TIP3    H267995   5.853   0.712   3.270  0.4283 -0.3104 -0.5262
15502TIP3   OH267996   5.372   2.727   2.630 -0.1031  0.1689 -0.1441
15502TIP3    H167997   5.373   2.769   2.544 -0.4256  3.4458  1.2853
15502TIP3    H267998   5.283   2.742   2.663  0.6968  1.2786  1.6846
15503TIP3   OH267999   6.531   1.007   4.240  0.2386 -0.2310 -0.2306
15503TIP3    H168000   6.562   0.926   4.279  0.4165 -1.0110 -1.9332
15503TIP3    H268001   6.464   0.981   4.178 -0.0792  0.9686 -0.4285
15504TIP3   OH268002   5.359   0.604   0.610 -0.1583  0.6525  0.2425
15504TIP3    H168003   5.337   0.513   0.632  0.5871  0.7688  1.5432
15504TIP3    H268004   5.308   0.622   0.531 -1.2460 -0.5061  0.6449
15505TIP3   OH268005   1.447   6.019  14.673 -0.3726  0.4181  0.0128
15505TIP3    H168006   1.353   6.037  14.679 -0.3805  0.8169 -1.0579
15505TIP3    H268007   1.480   6.085  14.611  0.7313  0.6978  0.8596
15506TIP3   OH268008   5.911   3.633   1.045 -0.3286  0.0935  0.1761
15506TIP3    H168009   5.819   3.654   1.060 -0.1146  2.0667 -0.9430
15506TIP3    H268010   5.959   3.684   1.111 -0.0168 -1.3401  1.1085
15507TIP3   OH268011   6.339   3.616   3.898  0.1701 -0.3227  0.6377
15507TIP3    H168012   6.341   3.534   3.848  0.3860 -1.0739  1.8262
15507TIP3    H268013   6.277   3.671   3.851  1.3913 -0.4483 -1.2464
15508TIP3   OH268014   1.594   5.645  13.010  0.0748 -0.4699  0.0459
15508TIP3    H168015   1.662   5.587  13.045  0.4581 -0.0512  0.0068
15508TIP3    H268016   1.640   5.702  12.948 -0.4792 -0.7649 -0.6464
15509TIP3   OH268017   4.238   6.757   0.820  0.1127 -0.5870  0.0166
15509TIP3    H168018   4.270   6.748   0.910  1.1491 -1.3187 -0.4001
15509TIP3    H268019   4.307   6.719   0.766 -0.5762 -0.3329 -1.0849
15510TIP3   OH268020   3.691   3.883   2.488 -0.1483 -0.0227  0.4912
15510TIP3    H168021   3.723   3.942   2.420  0.7958 -0.1819  0.7768
15510TIP3    H268022   3.732   3.799   2.468 -1.9415 -0.7773 -0.2592
15511TIP3   OH268023   7.158   0.509   4.795  0.1864  0.1917  0.3012
15511TIP3    H168024   7.158   0.595   4.839 -1.6660  2.2266 -3.2155
15511TIP3    H268025   7.070   0.474   4.813  0.0073  0.2721 -0.4128
15512TIP3   OH268026   0.487   5.024   3.609  0.0937 -0.3583 -0.2604
15512TIP3    H168027   0.475   5.054   3.519 -1.7091  0.1659  0.1182
15512TIP3    H268028   0.536   5.095   3.651 -0.2094 -0.0115 -0.4932
15513TIP3   OH268029   5.543   6.759  14.581  1.1055  0.8004 -0.2373
15513TIP3    H168030   5.449   6.758  14.563  1.2881  1.5537 -1.2959
15513TIP3    H268031   5.549   6.774  14.675  0.1587 -0.6597  0.0990
15514TIP3   OH268032   3.798   4.649   4.978  0.1263 -0.5945 -0.2026
15514TIP3    H168033   3.757   4.590   5.041  0.0217 -0.5314 -0.2108
15514TIP3    H268034   3.885   4.666   5.013  0.4392 -1.3659 -0.5948
15515TIP3   OH268035   5.053   3.720   0.304  0.2042 -0.4841  0.1003
15515TIP3    H168036   5.099   3.701   0.222  1.0474 -0.2093  0.5033
15515TIP3    H268037   5.033   3.813   0.300  2.9161  0.2613  1.4773
15516TIP3   OH268038   5.927   0.852   3.886 -0.2938  0.4912 -0.5796
15516TIP3    H168039   6.001   0.796   3.909 -2.2094 -1.9276  0.1172
15516TIP3    H268040   5.895   0.817   3.803 -0.1808  2.0586 -1.3150
15517TIP3   OH268041   6.128   2.979   2.554  0.1702  0.6953  0.5229
15517TIP3    H168042   6.125   3.074   2.561  1.4619  0.9654 -1.5273
15517TIP3    H268043   6.203   2.953   2.607  2.0027  1.2758 -1.6296
15518TIP3   OH268044   1.085   1.569   1.256 -0.6088 -0.1510 -0.0235
15518TIP3    H168045   1.018   1.621   1.211 -0.8616  0.8548  1.4231
15518TIP3    H268046   1.091   1.610   1.343  1.3097 -0.7398  0.1444
15519TIP3   OH268047   7.026   7.123   3.757  0.0222 -0.7757  0.0781
15519TIP3    H168048   6.957   7.164   3.705  1.6468  0.7764 -0.9640
15519TIP3    H268049   6.997   7.032   3.767 -3.0297  0.2193  1.3085
15520TIP3   OH268050   1.281   5.606   1.447  0.2623  1.2696 -0.2596
15520TIP3    H168051   1.277   5.699   1.424  1.8410  1.7443  1.2431
15520TIP3    H268052   1.356   5.599   1.506  0.1285 -0.9612 -0.2935
15521TIP3   OH268053   4.237   6.076   4.356  0.1198 -0.1091 -0.3242
15521TIP3    H168054   4.256   6.105   4.267  1.5877  1.5091  0.4567
15521TIP3    H268055   4.225   5.981   4.347 -1.0797  0.1593 -2.3993
15522TIP3   OH268056   6.332   0.573  11.882 -0.2819  1.0047 -0.1820
15522TIP3    H168057   6.362   0.488  11.850 -0.1519  1.6307 -1.8385
15522TIP3    H268058   6.243   0.582  11.849 -1.0429  0.7108  1.6494
15523TIP3   OH268059   1.894   2.971   0.128 -0.1675 -0.1899  0.3791
15523TIP3    H168060   1.916   3.013   0.045  0.9981  0.2563  0.8957
15523TIP3    H268061   1.915   2.879   0.115 -0.6102 -0.2368 -0.0286
15524TIP3   OH268062   2.508   0.630   3.193 -0.4775  0.0748  0.1557
15524TIP3    H168063   2.423   0.603   3.159 -0.1659 -0.3256 -0.3369
15524TIP3    H268064   2.504   0.611   3.287 -0.7583 -0.4038  0.0514
15525TIP3   OH268065   3.774   2.471   0.422  0.6543 -0.7298  0.4347
15525TIP3    H168066   3.864   2.450   0.398  0.8770 -1.4699  1.8240
15525TIP3    H268067   3.783   2.534   0.494  0.0239  0.4963 -0.5186
15526TIP3   OH268068   6.779   4.910   4.271 -0.2903 -0.0281 -0.0662
15526TIP3    H168069   6.721   4.955   4.332 -1.4503  0.1388 -1.2542
15526TIP3    H268070   6.787   4.821   4.307 -1.4982 -0.1288 -0.0262
15527TIP3   OH268071   4.547   0.540  12.471  0.0147  0.0216 -0.0749
15527TIP3    H168072   4.561   0.543  12.377  0.5265  0.1331  0.0012
15527TIP3    H268073   4.527   0.448  12.490 -0.1016  0.0023 -0.2917
15528TIP3   OH268074   5.443   6.064   5.484 -0.1824  0.3823 -0.2046
15528TIP3    H168075   5.352   6.093   5.485 -0.7275 -1.0021 -2.3550
15528TIP3    H268076   5.446   5.990   5.545 -0.6628  0.0901 -0.5237
15529TIP3   OH268077   5.689   5.478   5.110 -0.3743  0.2255 -0.1236
15529TIP3    H168078   5.691   5.571   5.091 -0.8782  0.9623  2.9273
15529TIP3    H268079   5.762   5.464   5.169 -0.6386 -1.2235 -0.1044
15530TIP3   OH268080   2.991   2.107   0.158 -0.4221  0.5112 -0.4794
15530TIP3    H168081   2.966   2.102   0.250  2.9509 -1.2683  0.5236
15530TIP3    H268082   2.950   2.032   0.117  0.5442 -0.5019  0.3566
15531TIP3   OH268083   1.806   1.349   3.121  0.7760  0.1952 -0.2543
15531TIP3    H168084   1.852   1.270   3.151 -0.4025 -0.3033  0.2991
15531TIP3    H268085   1.778   1.392   3.202 -1.0293 -0.3092 -0.5693
15532TIP3   OH268086   4.899   0.938   2.952  0.1477  0.1787 -0.2219
15532TIP3    H168087   4.820   0.987   2.973  0.1485  1.0880 -2.1594
15532TIP3    H268088   4.893   0.859   3.006 -2.2146  0.0907 -0.4965
15533TIP3   OH268089   7.112   3.901   5.111 -0.0743 -0.1727  0.2906
15533TIP3    H168090   7.127   3.825   5.168 -1.3780 -1.0841 -0.5271
15533TIP3    H268091   7.126   3.868   5.022 -2.4810  0.0104 -0.2140
15534TIP3   OH268092   6.888   2.702   5.127  0.3276 -0.0592  0.2053
15534TIP3    H168093   6.924   2.663   5.207  1.1379  1.2997  0.5200
15534TIP3    H268094   6.945   2.776   5.108 -1.9945  1.8992  0.4468
15535TIP3   OH268095   5.446   6.992  14.424 -0.2402 -0.6827  0.0819
15535TIP3    H168096   5.505   6.936  14.475  3.1916  0.9737 -1.7108
15535TIP3    H268097   5.434   7.070  14.478  1.3179 -0.0152 -0.4536
15536TIP3   OH268098   3.366   4.260   3.103 -0.2316  0.2807  0.3000
15536TIP3    H168099   3.395   4.344   3.069 -0.8152  0.8511  1.1627
15536TIP3    H268100   3.340   4.210   3.026  1.3176  0.3995 -0.3381
15537TIP3   OH268101   5.850   3.520   0.810  0.1364 -0.0127  0.5635
15537TIP3    H168102   5.889   3.578   0.876  0.4960  1.4772 -0.8896
15537TIP3    H268103   5.811   3.580   0.747 -0.9139 -1.4229 -0.1705
15538TIP3   OH268104   1.530   3.660  12.991  0.0819 -0.2777 -0.6985
15538TIP3    H168105   1.605   3.602  12.986 -0.2190 -0.9720  1.4556
15538TIP3    H268106   1.469   3.627  12.924  1.2665 -0.2990 -1.7981
15539TIP3   OH268107   3.436   4.017  14.198 -0.0996 -0.0202  0.7702
15539TIP3    H168108   3.386   4.009  14.279 -1.0460  2.9187  0.6123
15539TIP3    H268109   3.526   4.035  14.227 -0.4267  0.9905  1.2145
15540TIP3   OH268110   5.011   3.121   1.826 -0.4817 -0.1020 -0.0676
15540TIP3    H168111   5.079   3.127   1.758 -1.7732  0.3673 -1.3787
15540TIP3    H268112   4.930   3.142   1.780 -1.6626 -1.5280  1.2455
15541TIP3   OH268113   6.792   4.954   1.091 -0.4541 -0.2790  0.0234
15541TIP3    H168114   6.705   4.941   1.054 -0.1576  0.3630 -0.9219
15541TIP3    H268115   6.790   5.041   1.129 -1.1637 -1.3798  2.7780
15542TIP3   OH268116   2.325   4.943   4.742 -0.1168 -0.4716 -0.0689
15542TIP3    H168117   2.361   4.866   4.786  0.9850 -0.8536 -1.5615
15542TIP3    H268118   2.400   4.983   4.698 -1.0448  0.2547 -1.0474
15543TIP3   OH268119   1.563   5.716   4.528 -0.1108 -0.7366 -0.0789
15543TIP3    H168120   1.469   5.717   4.507 -0.2088 -0.0873  0.3520
15543TIP3    H268121   1.567   5.744   4.620  0.5667  0.1410 -0.3704
15544TIP3   OH268122   1.243   0.552   0.717 -0.4523 -0.4279  0.0674
15544TIP3    H168123   1.180   0.569   0.786 -0.5627 -0.8933  0.0795
15544TIP3    H268124   1.246   0.634   0.667  0.7052  0.4349  1.4611
15545TIP3   OH268125   5.693   5.780   5.135 -0.0142  0.4507  0.0807
15545TIP3    H168126   5.667   5.872   5.143 -1.9861 -0.2366  4.4057
15545TIP3    H268127   5.789   5.781   5.142 -0.1391  2.1527  3.2212
15546TIP3   OH268128   4.975   7.068  14.096 -0.1325 -0.2348  0.5556
15546TIP3    H168129   5.067   7.070  14.122 -0.7489 -0.1171  2.8936
15546TIP3    H268130   4.936   6.998  14.149 -0.5930 -3.5648 -3.6076
15547TIP3   OH268131   3.315   0.074   2.907 -0.4306 -0.2442  0.1366
15547TIP3    H168132   3.395   0.109   2.869 -1.0410  0.0286 -0.9407
15547TIP3    H268133   3.256   0.063   2.832 -1.4889 -0.2007  0.9460
15548TIP3   OH268134   4.536   2.966   2.337 -0.4804  0.1226  0.4122
15548TIP3    H168135   4.572   3.046   2.301 -0.3243  1.0475  2.4583
15548TIP3    H268136   4.485   2.928   2.266  0.9654  1.0413 -1.1803
15549TIP3   OH268137   6.332   4.427   4.435  0.0368 -0.6012  0.1087
15549TIP3    H168138   6.241   4.426   4.406  0.4895  1.3412 -1.6467
15549TIP3    H268139   6.348   4.518   4.460  1.0790 -1.2325  1.9419
15550TIP3   OH268140   7.113   0.427   2.461 -0.0715 -0.1370  0.2354
15550TIP3    H168141   7.094   0.436   2.554 -0.0627  0.2594  0.1990
15550TIP3    H268142   7.169   0.349   2.456 -1.1210 -0.9249  0.4123
15551TIP3   OH268143   4.462   2.632   5.764 -0.3923 -0.0242 -0.4223
15551TIP3    H168144   4.426   2.606   5.849  1.3397 -1.9561 -0.1986
15551TIP3    H268145   4.557   2.627   5.776 -0.1034 -0.7270 -2.5654
15552TIP3   OH268146   4.639   6.005  14.829  0.4728  0.0486 -0.1326
15552TIP3    H168147   4.584   5.935  14.862  0.1718  0.2265 -0.2554
15552TIP3    H268148   4.610   6.019  14.739 -0.5604  1.4083  0.3840
15553TIP3   OH268149   1.557   5.920   5.048  0.0866  0.3721 -0.4921
15553TIP3    H168150   1.612   5.996   5.069 -1.4585  1.5270 -0.3918
15553TIP3    H268151   1.573   5.858   5.119 -0.0325  1.4290  0.4983
15554TIP3   OH268152   4.704   1.432  15.125  0.1585 -0.0238  0.0354
15554TIP3    H168153   4.758   1.464  15.197 -0.6632  0.7797  0.3084
15554TIP3    H268154   4.705   1.502  15.060  0.7491 -0.6708 -0.6744
15555TIP3   OH268155   3.408   5.401   4.310 -0.3517 -0.8567 -0.6239
15555TIP3    H168156   3.475   5.349   4.354  0.1460 -0.0286 -0.3887
15555TIP3    H268157   3.440   5.412   4.221 -0.1214 -0.3767 -0.4843
15556TIP3   OH268158   2.180   0.145  14.031 -0.0782 -0.0852 -0.8838
15556TIP3    H168159   2.202   0.056  14.006 -1.8584 -0.6258 -0.6307
15556TIP3    H268160   2.198   0.197  13.952  0.2945 -0.7666 -1.2579
15557TIP3   OH268161   0.237   2.769   0.794 -0.1298 -0.4446 -0.2507
15557TIP3    H168162   0.216   2.771   0.887  0.2704 -1.6942 -0.1143
15557TIP3    H268163   0.303   2.838   0.782  0.9744 -1.2883  0.7103
15558TIP3   OH268164   6.790   3.018   6.405  0.1501  0.4838  0.3893
15558TIP3    H168165   6.859   2.965   6.365 -0.4774  0.8367 -1.2348
15558TIP3    H268166   6.811   3.108   6.381 -0.4168  0.6760  0.5844
15559TIP3   OH268167   4.791   6.277  13.044 -0.2037 -0.0696  0.2473
15559TIP3    H168168   4.811   6.311  12.957 -2.2173  1.3763  0.2956
15559TIP3    H268169   4.756   6.189  13.028  1.4184 -0.6705 -0.1907
15560TIP3   OH268170   3.339   2.353  14.124  0.2868 -0.5391 -0.7096
15560TIP3    H168171   3.422   2.390  14.093  0.3102 -0.1254 -0.1774
15560TIP3    H268172   3.284   2.347  14.047  0.6422 -0.3434 -0.9805
15561TIP3   OH268173   4.653   1.686   5.600 -0.0289  0.2457  0.3466
15561TIP3    H168174   4.601   1.627   5.655 -0.7504  1.8245  1.4465
15561TIP3    H268175   4.619   1.773   5.620 -0.6382  0.9054 -2.9889
15562TIP3   OH268176   2.610   2.213   2.235  0.5017 -0.5349  0.4806
15562TIP3    H168177   2.579   2.215   2.325  0.3142 -0.3285  0.4121
15562TIP3    H268178   2.705   2.230   2.241  0.2865  0.8018  0.5449
15563TIP3   OH268179   0.794   0.570   2.095  0.1123 -0.1062 -0.5649
15563TIP3    H168180   0.761   0.481   2.081  2.4474 -1.1311 -0.0987
15563TIP3    H268181   0.887   0.565   2.070  1.4854  0.9714  3.4960
15564TIP3   OH268182   5.715   5.359   2.324 -0.2152 -0.7997 -0.2004
15564TIP3    H168183   5.624   5.389   2.333  0.5826  1.9220 -0.2060
15564TIP3    H268184   5.741   5.334   2.412 -0.3787  0.4430  0.2282
15565TIP3   OH268185   1.198   5.478   1.841 -0.4093 -0.0019  0.1179
15565TIP3    H168186   1.154   5.393   1.837 -0.3817 -0.0379  0.5184
15565TIP3    H268187   1.288   5.460   1.814 -0.6150  0.0550 -0.6172
15566TIP3   OH268188   4.803   5.431   1.576 -0.0368 -0.8864 -0.0231
15566TIP3    H168189   4.769   5.343   1.557  0.9513 -1.1927 -0.4524
15566TIP3    H268190   4.803   5.436   1.671  1.8433 -2.1813  0.1000
15567TIP3   OH268191   1.826   4.951   3.584 -0.3988 -0.0005  0.2062
15567TIP3    H168192   1.746   4.911   3.616 -1.4070  0.6479 -1.3870
15567TIP3    H268193   1.823   4.939   3.489  2.1690 -1.3449  0.1789
15568TIP3   OH268194   6.819   3.647   5.162  0.7198  0.1333  0.8516
15568TIP3    H168195   6.909   3.622   5.183  0.7937 -0.5040 -0.1791
15568TIP3    H268196   6.797   3.713   5.227  2.8726  2.3357 -0.5036
15569TIP3   OH268197   5.592   1.574   2.910  0.1262  0.4334 -0.1277
15569TIP3    H168198   5.605   1.587   2.816  0.7143  1.5398  0.0944
15569TIP3    H268199   5.497   1.573   2.921  0.0391  1.9747 -0.5304
15570TIP3   OH268200   4.163   4.001  15.155  0.3939 -0.0551 -0.1910
15570TIP3    H168201   4.170   4.027  15.064 -0.7975  1.2215  0.0493
15570TIP3    H268202   4.226   4.057  15.201 -1.6263  2.0130  0.2219
15571TIP3   OH268203   3.722   2.502  10.795  0.2947  0.4266 -0.9427
15571TIP3    H168204   3.759   2.585  10.765  1.0467  0.2382 -0.5798
15571TIP3    H268205   3.720   2.447  10.717  1.0608  0.3516 -0.9182
15572TIP3   OH268206   0.751   6.247   4.058  0.5060  0.1640 -0.3872
15572TIP3    H168207   0.819   6.212   4.000  2.2210  0.0971  1.5436
15572TIP3    H268208   0.765   6.342   4.056 -0.8429  0.3820 -1.6698
15573TIP3   OH268209   1.255   2.716   1.890 -0.0719 -0.8098 -0.0202
15573TIP3    H168210   1.292   2.727   1.802 -1.3525  2.8416 -0.2842
15573TIP3    H268211   1.327   2.682   1.942  2.2617  1.4426 -1.5177
15574TIP3   OH268212   4.194   5.581   5.568  0.4483 -0.5738 -0.6373
15574TIP3    H168213   4.159   5.524   5.500 -0.7875 -0.5479 -0.0522
15574TIP3    H268214   4.231   5.522   5.633 -1.8950 -0.8456  0.5560
15575TIP3   OH268215   1.714   2.898   1.189 -0.2666 -0.3357  0.1295
15575TIP3    H168216   1.621   2.898   1.163  0.0763 -0.0975 -1.1629
15575TIP3    H268217   1.751   2.822   1.145  0.3314  0.0441 -0.0218
15576TIP3   OH268218   6.453   3.642   1.680  0.0411 -0.0769 -0.0790
15576TIP3    H168219   6.471   3.598   1.597 -0.5287 -0.5980  0.0610
15576TIP3    H268220   6.535   3.639   1.728 -0.5293 -3.2839  0.9675
15577TIP3   OH268221   0.869   3.229   3.109  0.5843  0.5931  0.1721
15577TIP3    H168222   0.904   3.317   3.127 -1.9936  1.5450  0.9429
15577TIP3    H268223   0.826   3.204   3.191 -1.1282 -0.1794 -0.9304
15578TIP3   OH268224   4.100   5.529   4.954 -0.1775  0.0067  0.2736
15578TIP3    H168225   4.184   5.553   4.916  0.1617 -0.6860  0.5697
15578TIP3    H268226   4.093   5.434   4.939 -1.3759  0.2241 -0.6617
15579TIP3   OH268227   0.660   0.595   3.169  0.7137 -0.7145 -0.3053
15579TIP3    H168228   0.649   0.505   3.137  1.4274 -0.9330  0.0460
15579TIP3    H268229   0.688   0.585   3.260  0.6525 -0.1284 -0.2169
15580TIP3   OH268230   6.963   4.137   1.552  0.6347  0.6688 -0.2956
15580TIP3    H168231   6.898   4.156   1.485  0.6721 -0.7281 -0.7822
15580TIP3    H268232   6.948   4.201   1.621 -0.7474  0.8510 -0.7405
15581TIP3   OH268233   0.923   4.320   2.873 -0.0917 -0.1604 -0.1790
15581TIP3    H168234   0.900   4.258   2.942 -0.6000  0.9752  0.7066
15581TIP3    H268235   0.982   4.383   2.916 -2.4474  2.0763  0.0111
15582TIP3   OH268236   6.342   1.345   5.606  0.0984  0.2423 -0.0425
15582TIP3    H168237   6.305   1.257   5.612  2.4430 -0.9701 -1.9178
15582TIP3    H268238   6.274   1.402   5.643 -1.1919 -2.3760  1.9021
15583TIP3   OH268239   1.603   2.388   2.133 -0.3480  0.5738  0.3772
15583TIP3    H168240   1.550   2.416   2.059 -1.2985 -1.6617  0.1320
15583TIP3    H268241   1.655   2.465   2.155 -0.6856  1.5997 -2.0191
15584TIP3   OH268242   6.848   1.430  13.759  0.0717  0.4287 -0.1943
15584TIP3    H168243   6.911   1.496  13.787  0.3307  0.4661 -0.8506
15584TIP3    H268244   6.820   1.458  13.672  1.6453 -1.3093 -1.3620
15585TIP3   OH268245   2.970   3.306  15.178 -0.1508  0.1612  0.0741
15585TIP3    H168246   2.971   3.274  15.268  0.2113  0.4124  0.1615
15585TIP3    H268247   3.052   3.274  15.140  0.1473  0.8501  0.1186
15586TIP3   OH268248   6.554   1.288  14.366  0.2854  0.1265  0.2933
15586TIP3    H168249   6.600   1.287  14.450 -0.5708  0.2263  0.7649
15586TIP3    H268250   6.500   1.366  14.369  2.1338  1.5830 -1.3983
15587TIP3   OH268251   6.914   4.067  13.665  0.1880 -1.3493  0.4234
15587TIP3    H168252   6.974   4.097  13.596 -0.9637 -1.5152 -0.6877
15587TIP3    H268253   6.907   3.973  13.650 -1.6983 -1.0951 -0.6129
15588TIP3   OH268254   1.870   0.118  12.313  0.2219  0.2773  0.4034
15588TIP3    H168255   1.818   0.068  12.376  0.5570  0.6710  1.0025
15588TIP3    H268256   1.834   0.094  12.228 -0.6648  0.2302  0.7822
15589TIP3   OH268257   6.724   2.189   3.916 -1.0072 -0.4368  0.6953
15589TIP3    H168258   6.699   2.109   3.869 -1.1415 -1.1897  1.9927
15589TIP3    H268259   6.734   2.255   3.847 -0.1315 -1.7442 -0.4907
15590TIP3   OH268260   0.074   0.613   1.076 -0.3537 -0.0506 -0.1876
15590TIP3    H168261   0.057   0.705   1.093  0.1393 -0.3894  2.4756
15590TIP3    H268262  -0.012   0.573   1.070 -0.5876  0.5952 -1.8910
15591TIP3   OH268263   2.018   5.907   4.070  0.2989  0.6895  0.0063
15591TIP3    H168264   2.101   5.901   4.117  0.6798 -0.5816 -0.7807
15591TIP3    H268265   1.957   5.856   4.123  1.0115 -1.7659 -1.3786
15592TIP3   OH268266   1.008   2.846   0.851 -0.3184  0.6195  0.4212
15592TIP3    H168267   1.073   2.779   0.868 -0.9545  0.2488  1.4888
15592TIP3    H268268   1.017   2.908   0.923  0.6189  2.0148 -0.8116
15593TIP3   OH268269   3.933   6.026   4.666  0.2483 -0.2621  0.3351
15593TIP3    H168270   3.920   6.061   4.755 -0.8962 -0.5896  0.3201
15593TIP3    H268271   4.027   6.035   4.650  0.0837  2.8472  0.3221
15594TIP3   OH268272   6.862   1.532  11.702  0.1379 -0.9931  0.2872
15594TIP3    H168273   6.800   1.481  11.754 -0.7536  1.0117  1.2892
15594TIP3    H268274   6.823   1.619  11.697  2.0606 -0.1293 -0.5403
15595TIP3   OH268275   4.965   2.681   3.968  0.2976  0.0895  0.5146
15595TIP3    H168276   4.872   2.687   3.991  0.0003 -0.8403 -0.3483
15595TIP3    H268277   4.965   2.665   3.874  1.2725 -1.1110  0.6942
15596TIP3   OH268278   6.389   5.307   0.917  0.6146 -0.5291 -0.1926
15596TIP3    H168279   6.322   5.258   0.966 -0.1195  0.4954 -0.1441
15596TIP3    H268280   6.373   5.398   0.940 -0.1957  0.0808 -2.8633
15597TIP3   OH268281   1.809   5.800   4.880 -0.8954  0.1073 -0.0532
15597TIP3    H168282   1.800   5.890   4.849  0.0869 -0.0594 -0.8794
15597TIP3    H268283   1.792   5.747   4.802  3.0642 -0.3119 -0.8536
15598TIP3   OH268284   2.194   4.005   0.864 -0.7299  0.1505  0.0902
15598TIP3    H168285   2.171   3.936   0.926 -0.0617  1.0926  1.4217
15598TIP3    H268286   2.186   4.086   0.913  1.7841  0.7961 -0.4111
15599TIP3   OH268287   4.797   2.312   1.004 -0.3945 -0.8838  0.4510
15599TIP3    H168288   4.726   2.340   1.062 -1.3635 -0.4695 -0.8855
15599TIP3    H268289   4.873   2.304   1.062 -0.8644  1.3211  1.4844
15600TIP3   OH268290   5.881   6.601  10.946  0.3782  0.4430 -0.2976
15600TIP3    H168291   5.944   6.624  10.877 -0.2930  0.0983 -1.0373
15600TIP3    H268292   5.821   6.539  10.904  1.2909 -1.6075  1.1953
15601TIP3   OH268293   2.227   4.531   3.749 -0.3411 -0.5904  0.5921
15601TIP3    H168294   2.244   4.620   3.718  3.2453 -1.0933  0.6441
15601TIP3    H268295   2.177   4.542   3.829 -1.3439  1.2501 -0.2212
15602TIP3   OH268296   0.219   5.165   1.677 -0.0998 -0.0802  0.2082
15602TIP3    H168297   0.157   5.186   1.607  0.4517  1.8617  0.2520
15602TIP3    H268298   0.254   5.079   1.652 -1.3182 -0.3031 -0.8607
15603TIP3   OH268299   0.809   0.301   4.088  0.0335  0.1255  0.4447
15603TIP3    H168300   0.889   0.305   4.141  1.9342  0.0414 -2.2057
15603TIP3    H268301   0.763   0.224   4.119  1.5040 -0.4207  1.3822
15604TIP3   OH268302   0.229   0.247   2.718  0.4754  0.4292  0.3529
15604TIP3    H168303   0.266   0.227   2.633  0.0434  1.1480 -0.0150
15604TIP3    H268304   0.197   0.337   2.710  2.1057  1.2198  1.8415
15605TIP3   OH268305   4.435   4.935   0.165 -0.3253 -0.5429  0.3711
15605TIP3    H168306   4.462   4.874   0.235  0.7402 -0.7583 -0.2129
15605TIP3    H268307   4.492   5.011   0.176 -1.1314  0.0486  0.6088
15606TIP3   OH268308   2.496   6.286  12.199  0.2538  0.0015 -0.0041
15606TIP3    H168309   2.518   6.198  12.233  1.4627  0.6232  0.9273
15606TIP3    H268310   2.434   6.269  12.128  1.6189 -1.7302 -0.8843
15607TIP3   OH268311   6.216   3.063   4.625  0.1535 -0.2873 -0.3613
15607TIP3    H168312   6.225   3.110   4.541 -1.3339  0.3823 -0.1841
15607TIP3    H268313   6.121   3.059   4.639  0.3029 -2.2362  0.2888
15608TIP3   OH268314   4.327   6.307   3.000 -0.7522  0.1127 -0.3549
15608TIP3    H168315   4.302   6.235   3.058 -1.8705  0.5431 -0.2792
15608TIP3    H268316   4.398   6.270   2.946 -0.3841 -0.6046  0.5860
15609TIP3   OH268317   0.235   2.705   2.107  0.4432  0.4013 -0.4113
15609TIP3    H168318   0.261   2.615   2.126 -0.8803  0.2435  0.8047
15609TIP3    H268319   0.205   2.703   2.016  0.2568 -0.4434 -0.3392
15610TIP3   OH268320   7.183   5.702   3.052 -0.4507 -0.2010  0.1622
15610TIP3    H168321   7.135   5.689   3.134  0.4308  2.0179  1.0883
15610TIP3    H268322   7.140   5.643   2.990 -2.6882 -0.1721  1.5888
15611TIP3   OH268323   3.127   6.512   1.848 -0.6161  0.3361  0.1199
15611TIP3    H168324   3.050   6.568   1.858 -1.2691 -0.4893 -0.1521
15611TIP3    H268325   3.145   6.480   1.937 -1.7907 -1.0113 -0.1064
15612TIP3   OH268326   4.019   7.043   1.484  0.0846  0.3334 -0.1372
15612TIP3    H168327   3.941   7.018   1.434 -1.3166  1.2311  1.4773
15612TIP3    H268328   4.040   7.131   1.453  1.9614 -0.7727 -2.2461
15613TIP3   OH268329   5.595   0.760   2.861 -0.4791  0.1407 -0.1085
15613TIP3    H168330   5.556   0.840   2.895  1.1850 -0.0127  2.4821
15613TIP3    H268331   5.524   0.717   2.814 -1.5808  2.7961 -1.0639
15614TIP3   OH268332   1.508   1.768   3.360 -0.3695  0.1023 -0.0034
15614TIP3    H168333   1.437   1.831   3.347 -0.8334 -0.6779 -1.5574
15614TIP3    H268334   1.588   1.817   3.340 -0.5163  0.8024  1.0765
15615TIP3   OH268335   2.236   7.102   2.484 -0.0126  0.4096  0.2067
15615TIP3    H168336   2.322   7.079   2.519 -0.1696 -0.5241  0.0006
15615TIP3    H268337   2.174   7.065   2.546 -0.2754  0.1671 -0.1962
15616TIP3   OH268338   1.276   5.866   5.371  0.0288 -0.0161 -0.3482
15616TIP3    H168339   1.352   5.884   5.425  0.5336  1.3825 -1.4524
15616TIP3    H268340   1.236   5.952   5.357 -1.8180 -0.7177  0.2576
15617TIP3   OH268341   0.734   1.498  12.986  0.1022 -0.0705 -0.3179
15617TIP3    H168342   0.706   1.494  13.077 -0.2753 -0.8643 -0.4579
15617TIP3    H268343   0.806   1.561  12.985 -2.0164  2.5292 -0.0289
15618TIP3   OH268344   3.621   6.650   3.841 -0.0166 -0.1400 -0.6206
15618TIP3    H168345   3.670   6.675   3.919 -0.0131 -1.3963 -0.2022
15618TIP3    H268346   3.536   6.693   3.851 -0.1861 -0.6774  0.3269
15619TIP3   OH268347   3.324   2.095   4.129  0.4530  0.2734 -0.0903
15619TIP3    H168348   3.242   2.046   4.130  0.4470  0.2879  0.2415
15619TIP3    H268349   3.344   2.106   4.036 -0.4024  1.0678 -0.2024
15620TIP3   OH268350   1.301   4.443   4.963 -0.6384  0.0409 -0.1957
15620TIP3    H168351   1.293   4.443   5.059 -1.0027  2.3959 -0.1596
15620TIP3    H268352   1.222   4.486   4.932  1.5494  3.8641 -1.1644
15621TIP3   OH268353   4.746   6.382   4.517  0.0059 -0.1271 -0.8352
15621TIP3    H168354   4.732   6.295   4.480 -1.9119  0.5281 -1.8169
15621TIP3    H268355   4.841   6.389   4.527  0.4785 -1.1664 -3.6581
15622TIP3   OH268356   3.467   6.755   0.967  0.0198 -0.2794 -0.2891
15622TIP3    H168357   3.409   6.751   0.891 -0.8028 -1.3920  0.3578
15622TIP3    H268358   3.491   6.664   0.984 -0.6072 -0.1859  1.3322
15623TIP3   OH268359   4.525   0.195   3.494 -0.4404  0.1633  0.2619
15623TIP3    H168360   4.499   0.155   3.411 -0.4114  0.6352  0.0263
15623TIP3    H268361   4.471   0.151   3.559  1.1005 -1.8656  0.3010
15624TIP3   OH268362   2.318   1.237   4.058 -0.1020  0.1737  0.3527
15624TIP3    H168363   2.324   1.159   4.114  0.8969  1.4248  2.0651
15624TIP3    H268364   2.296   1.308   4.118  2.0936  1.7724 -0.6288
15625TIP3   OH268365   7.023   6.468   6.181 -0.1463  0.1891 -0.0421
15625TIP3    H168366   7.064   6.534   6.236  0.7031  0.4203 -0.9171
15625TIP3    H268367   7.087   6.451   6.112 -0.1328 -1.8812  0.3951
15626TIP3   OH268368   3.286   4.396   3.918 -0.0861 -0.5115 -0.6698
15626TIP3    H168369   3.277   4.396   3.823 -0.1303 -1.7452 -0.6880
15626TIP3    H268370   3.242   4.316   3.946 -0.6027  0.1323  0.4532
15627TIP3   OH268371   6.109   3.216   2.407 -0.7232 -0.2099  0.1859
15627TIP3    H168372   6.156   3.286   2.452 -1.3323  0.9397 -0.9264
15627TIP3    H268373   6.017   3.240   2.415 -0.8367  0.2111 -1.9452
15628TIP3   OH268374   3.404   0.805  13.773 -0.5602 -0.4998  0.4573
15628TIP3    H168375   3.322   0.785  13.728 -0.5112  1.9264 -0.9546
15628TIP3    H268376   3.385   0.795  13.866 -2.6533  0.4527  0.1901
15629TIP3   OH268377   4.505   1.013   1.181 -0.0665 -0.2686 -0.1462
15629TIP3    H168378   4.513   1.102   1.149 -0.0985 -0.4856 -0.7693
15629TIP3    H268379   4.416   0.986   1.156 -0.6923  0.0971  1.5162
15630TIP3   OH268380   1.188   2.609   5.018 -0.3551  0.4749 -0.0416
15630TIP3    H168381   1.249   2.590   4.947 -1.3750  0.2575 -0.8859
15630TIP3    H268382   1.201   2.702   5.036  0.2948  0.4072 -0.1367
15631TIP3   OH268383   3.798   4.078   3.430  0.1447  0.2927  0.3164
15631TIP3    H168384   3.747   4.088   3.510  1.3884  0.1688  1.1528
15631TIP3    H268385   3.841   4.163   3.417  0.0966  0.2552 -0.1138
15632TIP3   OH268386   0.296   0.733   0.352 -0.2519  0.5762  0.4453
15632TIP3    H168387   0.376   0.729   0.300  1.2960  2.1244  2.5063
15632TIP3    H268388   0.271   0.641   0.365  1.2556  0.0455 -0.1492
15633TIP3   OH268389   3.949   6.097   2.429  0.2615 -0.2936  0.0792
15633TIP3    H168390   4.033   6.096   2.381  0.3724  1.5388  0.1553
15633TIP3    H268391   3.884   6.075   2.363  0.7399 -1.0856 -0.1364
15634TIP3   OH268392   3.523   6.901   0.237 -0.4263  0.5597 -0.5139
15634TIP3    H168393   3.568   6.835   0.185 -0.7854 -0.2833  0.2047
15634TIP3    H268394   3.442   6.858   0.265  0.0983  0.6924  1.3515
15635TIP3   OH268395   6.913   7.140   0.785 -0.3795  0.3344  0.1038
15635TIP3    H168396   6.993   7.187   0.763  0.2661 -0.0756  1.4584
15635TIP3    H268397   6.889   7.093   0.705  1.5074 -0.5982  0.0421
15636TIP3   OH268398   0.392   1.022   0.251  0.2903  0.3983 -0.6040
15636TIP3    H168399   0.446   1.076   0.309  1.6968 -0.2127 -1.2681
15636TIP3    H268400   0.363   0.949   0.307  0.8894  0.2796 -0.4356
15637TIP3   OH268401   5.393   4.398   3.734 -0.4978 -0.6343 -1.1280
15637TIP3    H168402   5.370   4.352   3.815 -0.6895 -0.8459 -1.3024
15637TIP3    H268403   5.487   4.415   3.742 -0.5065 -0.6980 -0.8822
15638TIP3   OH268404   1.276   6.175   3.351 -0.1704  0.5513  0.1596
15638TIP3    H168405   1.299   6.105   3.290 -2.3228 -0.6714  0.6552
15638TIP3    H268406   1.252   6.249   3.294 -2.0591 -0.5416 -0.5505
15639TIP3   OH268407   5.742   5.082   3.822 -0.1580  0.2563 -0.3739
15639TIP3    H168408   5.793   5.136   3.882  0.1457 -0.9472  0.4789
15639TIP3    H268409   5.685   5.030   3.878  0.3311 -1.0959 -1.0721
15640TIP3   OH268410   1.681   4.044  15.366 -0.1443  0.3744  0.2232
15640TIP3    H168411   1.703   4.073  15.455 -2.6002  1.5796  0.5291
15640TIP3    H268412   1.634   3.962  15.378  1.1235 -0.4331 -0.1519
15641TIP3   OH268413   6.152   1.143  12.936 -0.1897  0.1180  0.4617
15641TIP3    H168414   6.161   1.102  12.850 -0.6762 -0.3388  0.6189
15641TIP3    H268415   6.064   1.180  12.936 -0.0045  0.5657  0.5771
15642TIP3   OH268416   3.077   6.536   3.796  0.9739  0.7910 -0.4894
15642TIP3    H168417   3.043   6.502   3.714  0.7289  0.7485 -0.3744
15642TIP3    H268418   3.103   6.626   3.776 -0.7294  1.3928 -0.2202
15643TIP3   OH268419   2.854   7.026   3.627  0.2032 -0.2917  0.0098
15643TIP3    H168420   2.890   7.112   3.605  1.5828 -0.8079  0.1111
15643TIP3    H268421   2.892   6.967   3.561  0.6227 -1.0803  0.9369
15644TIP3   OH268422   4.049   5.574  14.412 -0.4120  0.8238  0.1923
15644TIP3    H168423   4.130   5.610  14.377  0.1419  1.3108  1.8931
15644TIP3    H268424   4.007   5.647  14.456 -0.7308  0.0947  1.1460
15645TIP3   OH268425   3.847   1.220   3.655 -0.1133  0.1281 -0.1647
15645TIP3    H168426   3.850   1.162   3.731  1.1414  1.1471  0.6006
15645TIP3    H268427   3.900   1.296   3.680 -1.0659  1.2712 -1.4140
15646TIP3   OH268428   2.172   4.556   1.253  0.4231  0.4121  0.6927
15646TIP3    H168429   2.095   4.499   1.249  1.0234 -0.3575 -0.4530
15646TIP3    H268430   2.247   4.496   1.254  1.0381  1.1609  0.7541
15647TIP3   OH268431   2.941   5.889   3.380  0.3617 -0.3908  0.5137
15647TIP3    H168432   3.000   5.856   3.449  1.4121  1.0669  0.3545
15647TIP3    H268433   2.998   5.901   3.304 -0.3107  0.3010  0.1142
15648TIP3   OH268434   6.536   2.413   3.706 -0.2377  0.0049  0.6470
15648TIP3    H168435   6.514   2.379   3.620  0.1462 -1.1144  0.9628
15648TIP3    H268436   6.455   2.406   3.756  0.1743 -1.9793  1.1523
15649TIP3   OH268437   6.750   0.356   0.325  0.3095  0.0943  0.0497
15649TIP3    H168438   6.782   0.377   0.412  0.6627 -3.5721  0.9993
15649TIP3    H268439   6.819   0.385   0.266  1.4116  0.0422  1.2808
15650TIP3   OH268440   4.271   3.662   2.319  0.0667  0.2882  0.1861
15650TIP3    H168441   4.275   3.738   2.376  0.7696 -0.5219  1.2398
15650TIP3    H268442   4.248   3.698   2.233 -0.1464  1.6137  0.7748
15651TIP3   OH268443   5.379   7.134  14.646  0.3288  0.5813 -0.2560
15651TIP3    H168444   5.352   7.220  14.677  0.5309  0.3226  0.6523
15651TIP3    H268445   5.466   7.121  14.682 -0.9876 -1.4146  2.5459
15652TIP3   OH268446   6.513   6.332   3.059 -0.0917 -0.0694 -0.2085
15652TIP3    H168447   6.580   6.401   3.066 -0.8130  0.7286 -1.0332
15652TIP3    H268448   6.436   6.370   3.101 -0.6866 -0.1224 -1.2467
15653TIP3   OH268449   5.729   0.064   3.730  0.3429 -0.2603 -0.5000
15653TIP3    H168450   5.756   0.138   3.675 -0.0914  0.8072  0.6827
15653TIP3    H268451   5.636   0.051   3.709  0.4094 -0.4709 -0.6795
15654TIP3   OH268452   2.474   3.827   2.725 -0.1018 -0.4069  0.4531
15654TIP3    H168453   2.563   3.801   2.699 -0.5151 -0.9078 -0.5230
15654TIP3    H268454   2.482   3.851   2.817  0.5988 -2.6639  1.0462
15655TIP3   OH268455   5.404   0.935   1.862 -0.0260  0.2490  0.2096
15655TIP3    H168456   5.431   0.913   1.773 -1.6772 -0.0045 -0.2642
15655TIP3    H268457   5.395   1.030   1.862 -1.1860  0.1517 -0.2664
15656TIP3   OH268458   3.090   6.346   4.039 -0.3608 -0.3610 -0.0272
15656TIP3    H168459   3.084   6.385   3.952 -1.6130  0.7885  0.5319
15656TIP3    H268460   3.181   6.358   4.064 -0.2099  0.1799 -0.7995
15657TIP3   OH268461   5.236   1.254  13.357  0.4711  0.5074 -0.6530
15657TIP3    H168462   5.311   1.263  13.416  0.6427  0.2586 -0.8291
15657TIP3    H268463   5.185   1.334  13.371 -0.3088 -0.2328  0.9736
15658TIP3   OH268464   0.736   6.649  10.608  0.1065 -0.0304  0.9644
15658TIP3    H168465   0.660   6.704  10.627  0.2696  0.4990  0.1365
15658TIP3    H268466   0.811   6.701  10.636  0.1899 -0.4509  1.5480
15659TIP3   OH268467   1.596   4.120   4.920  0.2837  0.2150 -0.0626
15659TIP3    H168468   1.677   4.074   4.942  0.8869  0.6043 -1.4250
15659TIP3    H268469   1.586   4.186   4.989  1.9669  1.1937 -0.7052
15660TIP3   OH268470   0.161   1.780  12.628 -0.6915 -0.1801 -0.9021
15660TIP3    H168471   0.166   1.826  12.712 -1.7144  0.5018 -1.1802
15660TIP3    H268472   0.126   1.694  12.650 -2.9622  0.6864 -0.7925
15661TIP3   OH268473   0.207   2.798   1.529 -0.3319  0.0271  0.1109
15661TIP3    H168474   0.262   2.734   1.482 -1.2033 -0.3667 -0.4061
15661TIP3    H268475   0.129   2.805   1.475 -0.6638  0.8023  0.6883
15662TIP3   OH268476   4.224   4.590   5.282  0.0145 -0.5145  0.2619
15662TIP3    H168477   4.208   4.534   5.358  2.2240 -0.2652  0.9763
15662TIP3    H268478   4.249   4.528   5.213 -1.0976 -0.6659 -0.0230
15663TIP3   OH268479   0.951   1.969   2.608  0.7982 -0.2095 -0.0840
15663TIP3    H168480   0.975   1.921   2.688  0.3694  0.3551  0.3931
15663TIP3    H268481   0.875   2.021   2.634  1.0287  0.4402 -0.7010
15664TIP3   OH268482   3.500   4.281   1.404 -0.3861 -0.7922  0.3395
15664TIP3    H168483   3.498   4.366   1.360  2.2582 -0.4212  0.7194
15664TIP3    H268484   3.444   4.224   1.351 -0.8639  0.7674 -0.8928
15665TIP3   OH268485   2.370   2.992   5.546 -0.8604  0.1008 -0.0666
15665TIP3    H168486   2.311   2.942   5.602 -0.8364  1.9749  1.7502
15665TIP3    H268487   2.455   2.949   5.557 -0.8641  0.4183  1.3340
15666TIP3   OH268488   6.644   6.428   6.016 -0.0332  0.7205  0.0228
15666TIP3    H168489   6.600   6.398   5.937 -0.1005  0.1021  0.2868
15666TIP3    H268490   6.583   6.408   6.087  0.0786  1.1519  0.2455
15667TIP3   OH268491   5.481   3.807   1.504  0.6730 -0.3698  0.5232
15667TIP3    H168492   5.455   3.892   1.469  0.3400  0.5082  2.7265
15667TIP3    H268493   5.420   3.745   1.463  0.9116  0.4179 -1.1064
15668TIP3   OH268494   0.992   5.086   3.986 -0.2670 -0.0482 -0.1075
15668TIP3    H168495   0.973   5.179   3.994 -1.5903 -0.3428  0.3932
15668TIP3    H268496   0.929   5.054   3.922 -0.3155 -0.7401  0.2763
15669TIP3   OH268497   3.166   2.880   4.698  0.2333  0.1711 -0.4214
15669TIP3    H168498   3.157   2.872   4.793  0.0889  3.0141 -0.1155
15669TIP3    H268499   3.260   2.890   4.684  0.0592  2.8998 -0.1625
15670TIP3   OH268500   5.368   7.004   3.559  0.2681 -0.6185  0.6963
15670TIP3    H168501   5.331   7.054   3.487  0.7150 -3.4904 -1.7085
15670TIP3    H268502   5.395   7.070   3.623 -3.4215  1.9040 -0.0501
15671TIP3   OH268503   4.033   2.790   4.357  0.2529 -0.3710  0.0193
15671TIP3    H168504   3.969   2.832   4.299  2.0829  2.9948  0.1680
15671TIP3    H268505   4.080   2.729   4.301 -1.4704 -1.1163 -0.6696
15672TIP3   OH268506   5.919   3.269   1.974 -0.2831  0.3970  0.1047
15672TIP3    H168507   5.994   3.329   1.975  0.3355 -0.3154 -1.1122
15672TIP3    H268508   5.853   3.313   2.028  0.4043  1.8341 -0.1668
15673TIP3   OH268509   0.877   2.865   4.762  0.7020  0.1044 -0.0914
15673TIP3    H168510   0.859   2.772   4.777  1.2451 -0.0206 -0.1746
15673TIP3    H268511   0.793   2.902   4.737  0.3931 -0.2815  0.3513
15674TIP3   OH268512   6.683   6.160   1.164 -0.0171 -0.1092  0.2103
15674TIP3    H168513   6.700   6.231   1.103 -1.4122 -1.5773 -2.0089
15674TIP3    H268514   6.591   6.139   1.151  0.3579 -2.3358  0.7656
15675TIP3   OH268515   4.989   6.636   1.002 -0.8193 -0.2280  0.1974
15675TIP3    H168516   4.952   6.576   0.937 -0.2543 -2.0753  1.5000
15675TIP3    H268517   4.921   6.644   1.069 -0.6005  0.0069  0.3945
15676TIP3   OH268518   5.120   7.051  13.576 -0.2904  0.1087 -0.5805
15676TIP3    H168519   5.126   7.059  13.671 -0.5776  1.5682 -0.6620
15676TIP3    H268520   5.041   6.999  13.562 -1.0199  1.0354 -0.0322
15677TIP3   OH268521   0.884   4.783   4.142  0.1491  0.3026 -0.0411
15677TIP3    H168522   0.909   4.869   4.175  2.4439 -0.8385  1.4628
15677TIP3    H268523   0.894   4.790   4.047 -0.0944  1.7821  0.0182
15678TIP3   OH268524   4.125   1.222   1.851 -0.7206  0.2920 -0.2781
15678TIP3    H168525   4.140   1.283   1.924  1.6150 -0.5030  0.0081
15678TIP3    H268526   4.129   1.135   1.891 -0.4703 -0.1314 -1.1835
15679TIP3   OH268527   0.454   5.677   4.199 -0.0556 -0.7437  0.7057
15679TIP3    H168528   0.445   5.623   4.120 -0.1580 -1.1753  1.0084
15679TIP3    H268529   0.478   5.615   4.268  0.6226 -0.2812  0.8962
15680TIP3   OH268530   3.960   3.524  10.648 -0.2887 -0.0347  0.0302
15680TIP3    H168531   3.940   3.616  10.667  0.7448 -0.0758  1.4955
15680TIP3    H268532   4.056   3.519  10.650 -0.2913 -0.9131 -1.2458
15681TIP3   OH268533   4.719   2.718   1.935  0.2336  0.2785 -0.1739
15681TIP3    H168534   4.712   2.727   2.030 -0.3273 -1.2582 -0.0269
15681TIP3    H268535   4.800   2.763   1.912 -0.0442  1.3757  0.9189
15682TIP3   OH268536   0.982   1.832  14.754 -0.7716  0.0061  0.0980
15682TIP3    H168537   0.943   1.763  14.701 -0.6624  0.6326 -0.8099
15682TIP3    H268538   0.978   1.798  14.844  1.7202 -2.3634 -0.5367
15683TIP3   OH268539   4.870   1.376   4.167  0.3777 -0.1177  0.3984
15683TIP3    H168540   4.949   1.425   4.189  0.8751 -0.3858 -0.7217
15683TIP3    H268541   4.885   1.343   4.078 -1.5894  1.0341 -0.4358
15684TIP3   OH268542   2.161   3.967   0.577  0.7156 -0.8622  0.5824
15684TIP3    H168543   2.128   4.049   0.540  3.0332 -0.1277 -0.0024
15684TIP3    H268544   2.165   3.984   0.672  1.7391 -0.0631  0.4083
15685TIP3   OH268545   6.792   0.047   3.684 -0.2021  0.6004 -0.5158
15685TIP3    H168546   6.737   0.113   3.641  0.3473  0.1466 -1.9693
15685TIP3    H268547   6.739  -0.032   3.685  0.1718  0.3314 -1.3391
15686TIP3   OH268548   2.070   4.764   2.153 -0.3820 -0.5783 -0.0721
15686TIP3    H168549   2.120   4.812   2.087 -0.6459  0.3970  0.4108
15686TIP3    H268550   2.122   4.685   2.170  0.4189 -0.1375 -0.3980
15687TIP3   OH268551   3.728   2.686   2.132 -0.2454  0.4709  0.4761
15687TIP3    H168552   3.675   2.661   2.208 -0.4408 -0.2575  0.1114
15687TIP3    H268553   3.816   2.655   2.153 -0.4027 -0.1817  0.2002
15688TIP3   OH268554   4.702   6.449   3.809  0.1190 -0.0364 -0.3547
15688TIP3    H168555   4.674   6.522   3.864  0.2683 -0.5799  0.4464
15688TIP3    H268556   4.622   6.399   3.792 -0.1926  0.8608 -1.7859
15689TIP3   OH268557   6.632   6.386  13.492  0.2276 -0.0651  0.2895
15689TIP3    H168558   6.651   6.296  13.465  0.0088  0.0744 -0.3603
15689TIP3    H268559   6.702   6.438  13.454 -0.8939  0.3341 -1.3434
15690TIP3   OH268560   4.342   4.661   2.169  0.0744 -0.0474 -0.7308
15690TIP3    H168561   4.359   4.755   2.182  0.7787 -0.4242  1.4059
15690TIP3    H268562   4.427   4.619   2.179 -0.3530 -0.9946 -0.9608
15691TIP3   OH268563   2.646   5.555   3.888  0.2480 -0.0264 -0.5618
15691TIP3    H168564   2.691   5.479   3.852  0.2269 -0.7310  0.8289
15691TIP3    H268565   2.554   5.529   3.893  0.0990  0.4170 -0.8740
15692TIP3   OH268566   3.682   5.677   1.141  0.7128 -0.0199  0.2832
15692TIP3    H168567   3.624   5.749   1.115  0.4041 -0.2846  0.2276
15692TIP3    H268568   3.622   5.608   1.171  1.0003 -0.3099  0.1915
15693TIP3   OH268569   6.816   1.918   0.894  0.0580  0.3182  0.0321
15693TIP3    H168570   6.724   1.923   0.920  0.1082 -0.6493  0.4376
15693TIP3    H268571   6.861   1.883   0.971  0.7580  0.7068 -0.1892
15694TIP3   OH268572   5.458   4.607   3.207  0.0675 -0.1550  0.2998
15694TIP3    H168573   5.399   4.546   3.163 -1.4901  1.9453 -0.6936
15694TIP3    H268574   5.414   4.691   3.202  2.7840  1.3856  0.3043
15695TIP3   OH268575   1.589   5.092   2.738 -0.0258  0.1339  0.0453
15695TIP3    H168576   1.545   5.113   2.656  0.1822 -0.4017 -0.2116
15695TIP3    H268577   1.521   5.052   2.792  0.1389 -0.7216 -0.3631
15696TIP3   OH268578   0.532   3.398   0.379 -0.3454  0.3723  0.4981
15696TIP3    H168579   0.538   3.493   0.376 -1.2144  0.3965 -0.8029
15696TIP3    H268580   0.537   3.377   0.473  0.0546  1.6674  0.7843
15697TIP3   OH268581   3.657   0.819   2.127 -0.2966  0.2434 -0.0410
15697TIP3    H168582   3.655   0.879   2.053  1.1187  0.1230 -0.2084
15697TIP3    H268583   3.712   0.863   2.192  2.5831 -1.7055 -0.9929
15698TIP3   OH268584   6.381   6.700   0.196  0.2387 -0.5182  0.3071
15698TIP3    H168585   6.295   6.683   0.234 -0.7966  1.4769 -0.9455
15698TIP3    H268586   6.422   6.762   0.257  0.9558 -1.7204  1.0739
15699TIP3   OH268587   0.687   2.465   3.299 -0.6493  0.3758  0.0235
15699TIP3    H168588   0.637   2.387   3.275  0.7040 -0.2484 -0.8573
15699TIP3    H268589   0.669   2.477   3.393  2.0682 -3.3005  1.2563
15700TIP3   OH268590   6.703   2.922   3.497  0.2734  0.1253 -0.6826
15700TIP3    H168591   6.615   2.960   3.496  0.7696  1.3117 -1.8175
15700TIP3    H268592   6.695   2.840   3.448 -0.6218 -0.8558  1.0238
15701TIP3   OH268593   5.953   5.886   5.802  0.2160 -0.2982 -0.1911
15701TIP3    H168594   5.921   5.800   5.828  0.3584  0.4424  2.8829
15701TIP3    H268595   5.906   5.947   5.860  0.7185  1.6463 -1.7035
15702TIP3   OH268596   0.432   5.233   2.772  0.6131 -0.3908 -0.1910
15702TIP3    H168597   0.488   5.205   2.844 -1.8859 -0.5347  1.8762
15702TIP3    H268598   0.438   5.328   2.773  0.0088 -0.3376  0.8223
15703TIP3   OH268599   1.636   3.030   0.843  0.0878  0.0100  0.5875
15703TIP3    H168600   1.690   3.019   0.765  1.3257  4.4020  0.5710
15703TIP3    H268601   1.570   3.095   0.819 -2.0448 -1.4383  2.1343
15704TIP3   OH268602   4.870   3.379  14.353  0.6320 -0.3080  0.4784
15704TIP3    H168603   4.799   3.324  14.321 -0.2226  0.9657  0.0765
15704TIP3    H268604   4.858   3.383  14.448 -0.5851  0.8288  0.3106
15705TIP3   OH268605   5.108   0.141   3.196 -0.5283 -0.2882  0.2096
15705TIP3    H168606   5.105   0.235   3.216 -0.2465 -0.2301 -0.0322
15705TIP3    H268607   5.051   0.102   3.263  1.6972 -0.2807  2.2382
15706TIP3   OH268608   5.986   3.090   2.803  0.0220  0.3224  0.4976
15706TIP3    H168609   5.941   3.146   2.866 -0.7908  1.9499 -1.4057
15706TIP3    H268610   5.916   3.055   2.747  0.8241  0.3916 -0.5910
15707TIP3   OH268611   3.139   6.797   3.667  0.2175  0.4566 -0.3812
15707TIP3    H168612   3.164   6.888   3.683  0.0755  0.5303 -0.5799
15707TIP3    H268613   3.046   6.800   3.646 -0.4097  0.0005  1.9880
15708TIP3   OH268614   2.835   3.379  13.121  0.5424 -0.1938  0.5083
15708TIP3    H168615   2.863   3.400  13.210 -0.3214  1.5776  0.4035
15708TIP3    H268616   2.880   3.443  13.066  0.8965 -1.1295 -0.3309
15709TIP3   OH268617   0.060   1.055   3.370  0.1051  0.1562  0.2166
15709TIP3    H168618  -0.020   1.100   3.394 -0.7453  0.9623 -3.4998
15709TIP3    H268619   0.039   0.962   3.378  0.2714  0.2984  3.2271
15710TIP3   OH268620   3.135   4.034   4.283  0.4396  0.2867  0.2429
15710TIP3    H168621   3.098   4.073   4.204  0.2475  0.2437  0.3130
15710TIP3    H268622   3.079   4.065   4.354  0.5144  0.1921  0.3444
15711TIP3   OH268623   0.658   0.830  13.916 -0.0477 -0.1801 -0.4760
15711TIP3    H168624   0.644   0.772  13.991  0.0693 -0.5137 -0.7162
15711TIP3    H268625   0.748   0.815  13.889  0.1853  0.5599 -0.1591
15712TIP3   OH268626   3.210   0.817   1.101  0.1598  0.5141  0.4886
15712TIP3    H168627   3.172   0.784   1.019  0.4310  1.3893 -0.0000
15712TIP3    H268628   3.233   0.908   1.082 -1.6377  1.3924  2.1514
15713TIP3   OH268629   5.589   6.547  14.089  0.3693 -0.3320  0.3581
15713TIP3    H168630   5.535   6.503  14.155  0.8994 -1.3162  0.1571
15713TIP3    H268631   5.548   6.633  14.077 -1.6904 -1.3709 -0.4506
15714TIP3   OH268632   4.750   3.667  13.858  0.7292  0.0121 -0.5899
15714TIP3    H168633   4.710   3.677  13.772  1.1827  2.0814 -0.6211
15714TIP3    H268634   4.844   3.665  13.841  0.8153  0.2353 -0.1681
15715TIP3   OH268635   3.895   3.929   0.804 -0.0578  0.7332 -0.2121
15715TIP3    H168636   3.841   4.008   0.801 -0.7639  0.2287 -1.3937
15715TIP3    H268637   3.943   3.936   0.886 -0.1516  2.3640 -0.2654
15716TIP3   OH268638   3.275   3.721  15.022 -0.2870 -0.0854 -0.0433
15716TIP3    H168639   3.358   3.695  15.063 -0.8530  0.6247  1.5799
15716TIP3    H268640   3.301   3.785  14.955  0.3902  1.1152  1.3195
15717TIP3   OH268641   1.700   4.998  15.077 -0.0186 -0.1708  0.4201
15717TIP3    H168642   1.684   5.081  15.123  1.2046 -0.4656  1.4141
15717TIP3    H268643   1.648   4.934  15.125  0.3482 -0.2705  0.6889
15718TIP3   OH268644   6.936   7.206  14.865 -0.0271 -0.6555  0.0860
15718TIP3    H168645   6.997   7.278  14.852  1.4975 -2.0221 -0.6149
15718TIP3    H268646   6.850   7.243  14.843  0.4335  1.4131  1.4582
15719TIP3   OH268647   1.461   5.746   4.026  0.1112 -0.1423  0.1074
15719TIP3    H168648   1.555   5.742   4.047 -0.0199 -0.3443  0.6608
15719TIP3    H268649   1.418   5.703   4.099 -0.5045  1.0154  0.4524
15720TIP3   OH268650   3.308   3.791   3.023 -0.4510 -0.2561 -0.0615
15720TIP3    H168651   3.265   3.713   3.060 -0.6856  0.9214  2.3457
15720TIP3    H268652   3.402   3.772   3.031 -0.5079 -0.4770  0.1130
15721TIP3   OH268653   6.693   5.750   1.145 -0.0831  0.1480 -0.3196
15721TIP3    H168654   6.743   5.825   1.177  1.2242 -1.0518  0.5305
15721TIP3    H268655   6.662   5.706   1.224  1.9724 -2.0385 -0.6138
15722TIP3   OH268656   4.275   0.863  14.370  0.0652 -0.5209  0.3743
15722TIP3    H168657   4.353   0.808  14.371 -0.0368 -0.8379 -2.3035
15722TIP3    H268658   4.221   0.827  14.300 -0.1676  2.7274 -1.2824
15723TIP3   OH268659   6.161   4.946   1.288 -0.4912  0.2518 -0.1111
15723TIP3    H168660   6.068   4.966   1.298 -0.3366  0.7647  0.3445
15723TIP3    H268661   6.202   4.985   1.365 -0.1496 -1.7247  0.7692
15724TIP3   OH268662   0.755   6.578   2.753 -0.0013 -0.2182 -0.7458
15724TIP3    H168663   0.815   6.506   2.731 -0.2857 -0.3144 -1.2492
15724TIP3    H268664   0.801   6.629   2.819 -0.9549 -2.4778  1.8237
15725TIP3   OH268665   4.385   0.537   4.371  0.4184 -0.9114  0.4045
15725TIP3    H168666   4.336   0.616   4.349  0.2377 -0.9650  0.6154
15725TIP3    H268667   4.476   0.559   4.349  0.5046 -0.3320  1.2637
15726TIP3   OH268668   1.508   0.473   2.853  0.6546 -0.3594 -0.0026
15726TIP3    H168669   1.506   0.533   2.778 -2.0887  0.0829  0.3533
15726TIP3    H268670   1.580   0.507   2.908  0.6646  1.2120 -0.9066
15727TIP3   OH268671   5.351   1.965   3.913 -0.1972  0.0349  0.1900
15727TIP3    H168672   5.363   1.907   3.988 -0.6215  1.4560  1.4039
15727TIP3    H268673   5.340   2.051   3.951 -1.1155  0.7035 -1.4897
15728TIP3   OH268674   6.885   6.250   4.026  0.6243 -0.0915  0.0563
15728TIP3    H168675   6.967   6.299   4.029  0.7638 -0.3183 -0.0255
15728TIP3    H268676   6.863   6.235   4.118  0.2746  0.6333  0.0908
15729TIP3   OH268677   2.470   0.707   4.816  0.0363 -0.7851  0.2364
15729TIP3    H168678   2.399   0.771   4.816 -1.9084 -2.7919 -0.3217
15729TIP3    H268679   2.446   0.645   4.885  1.1207 -1.6453 -0.1183
15730TIP3   OH268680   6.198   1.305   3.070 -0.1200 -0.0595 -0.2609
15730TIP3    H168681   6.153   1.326   3.152 -0.0809  2.2245 -0.7473
15730TIP3    H268682   6.159   1.222   3.042 -0.5731 -0.5680  1.7346
15731TIP3   OH268683   3.689   6.441   0.764  0.8425 -0.0588  0.0681
15731TIP3    H168684   3.687   6.346   0.756  1.0132 -0.0163 -0.5268
15731TIP3    H268685   3.617   6.462   0.824 -1.4863 -0.3227 -2.4329
15732TIP3   OH268686   6.177   5.935   3.501 -0.3924  0.5676  0.0632
15732TIP3    H168687   6.126   5.992   3.559  0.7850  3.9757 -1.9281
15732TIP3    H268688   6.120   5.921   3.426 -0.6258 -0.8960  0.4900
15733TIP3   OH268689   1.015   5.748   4.719  0.1630  0.1526  0.1941
15733TIP3    H168690   0.987   5.793   4.799  2.8470  0.9928  0.7798
15733TIP3    H268691   1.107   5.773   4.708  0.7506 -2.2958 -1.5274
15734TIP3   OH268692   3.558   0.930   3.548 -0.3977  0.0009  0.5730
15734TIP3    H168693   3.537   0.837   3.555  0.3311 -0.1478  0.8696
15734TIP3    H268694   3.595   0.940   3.460 -1.8343  0.2988 -0.0222
15735TIP3   OH268695   2.491   7.218   4.694  0.2111  0.2409  0.4791
15735TIP3    H168696   2.524   7.156   4.629  1.0822  0.4363  0.7317
15735TIP3    H268697   2.423   7.169   4.741  0.3523 -0.2647  0.1681
15736TIP3   OH268698   2.006   1.918   0.931 -0.5190  0.2912  0.3797
15736TIP3    H168699   2.004   2.012   0.914 -1.0107  0.4999  1.5112
15736TIP3    H268700   1.996   1.878   0.845 -0.1040  1.2657 -0.1421
15737TIP3   OH268701   6.259   5.003   3.405 -0.1217  0.1663 -0.0289
15737TIP3    H168702   6.246   4.930   3.344 -0.9407  0.5816 -0.3744
15737TIP3    H268703   6.352   5.002   3.425 -0.2560 -1.5255  0.6674
15738TIP3   OH268704   4.415   0.021   3.700  0.4580  0.5380  0.4634
15738TIP3    H168705   4.339  -0.030   3.671  0.1381  1.1494  0.2046
15738TIP3    H268706   4.450  -0.029   3.774  0.4000 -0.2635 -0.0324
15739TIP3   OH268707   4.485   5.807   4.561 -0.2075  0.5577  0.2905
15739TIP3    H168708   4.509   5.890   4.604  0.8067 -0.3107  1.4570
15739TIP3    H268709   4.514   5.739   4.621  0.3885 -0.7073 -1.3597
15740TIP3   OH268710   6.531   3.551  12.218 -0.1052  0.0282 -0.0508
15740TIP3    H168711   6.621   3.573  12.196  0.0742  0.1080  0.7176
15740TIP3    H268712   6.502   3.622  12.275 -0.1280 -0.7610  0.9654
15741TIP3   OH268713   3.403   6.966   0.526 -0.1532 -0.1359 -0.2675
15741TIP3    H168714   3.349   6.996   0.452 -0.9954 -0.3119  0.2618
15741TIP3    H268715   3.431   6.878   0.500 -1.3971 -0.6597  0.0978
15742TIP3   OH268716   5.574   3.436   4.960  0.0667  0.1743 -0.1813
15742TIP3    H168717   5.505   3.401   5.015 -0.0241  1.4680  0.5729
15742TIP3    H268718   5.566   3.389   4.877  1.5804 -3.4573  1.5033
15743TIP3   OH268719   1.783   4.510   2.206 -0.3561  0.0699 -0.0489
15743TIP3    H168720   1.812   4.491   2.117 -0.9117  0.2220 -0.2667
15743TIP3    H268721   1.854   4.478   2.262 -1.8293 -4.2475 -0.2607
15744TIP3   OH268722   6.730   5.466   5.592 -0.1634 -0.3702 -0.2007
15744TIP3    H168723   6.791   5.537   5.613  1.0839 -1.4806  0.1044
15744TIP3    H268724   6.651   5.510   5.563  0.6404  1.1422 -0.2092
15745TIP3   OH268725   6.113   4.166   3.390 -0.2990 -0.5125 -0.1832
15745TIP3    H168726   6.187   4.198   3.338 -1.0985 -2.6741 -2.8637
15745TIP3    H268727   6.062   4.245   3.410  0.1728  0.4624 -2.5142
15746TIP3   OH268728   4.873   3.360   2.224 -0.3730 -0.5252  0.6445
15746TIP3    H168729   4.935   3.413   2.274  1.6952 -1.3191 -0.9126
15746TIP3    H268730   4.924   3.283   2.198 -1.4146 -0.3497 -2.3112
15747TIP3   OH268731   4.955   2.098   3.226 -0.1904 -0.3794 -0.7541
15747TIP3    H168732   4.961   2.146   3.308 -1.3679  1.0039 -1.4278
15747TIP3    H268733   5.014   2.144   3.166  0.4196 -1.1829 -0.7799
15748TIP3   OH268734   6.456   0.488   1.524  0.2875 -0.7616  0.6596
15748TIP3    H168735   6.551   0.475   1.520  0.7246  1.4068  2.0919
15748TIP3    H268736   6.444   0.553   1.593 -2.2827 -1.1091  0.6314
15749TIP3   OH268737   6.273   5.313   1.935  0.0012  0.4939  0.3757
15749TIP3    H168738   6.199   5.309   1.996  0.9472 -0.9042  1.5131
15749TIP3    H268739   6.342   5.357   1.984 -0.1289  2.0988 -0.7992
15750TIP3   OH268740   6.803   6.779   0.500 -0.1942 -0.3058 -0.4135
15750TIP3    H168741   6.818   6.770   0.594  0.5849  1.5972 -0.3141
15750TIP3    H268742   6.801   6.689   0.467  0.4534 -0.9672  1.2731
15751TIP3   OH268743   6.436   6.087   3.470 -0.0357  0.0051  0.5776
15751TIP3    H168744   6.517   6.104   3.422  1.1037 -1.3375  1.9266
15751TIP3    H268745   6.415   6.171   3.511  0.6972  0.3572  0.2650
15752TIP3   OH268746   3.373   1.155   3.321  0.5039  0.0836 -0.6173
15752TIP3    H168747   3.428   1.088   3.280 -0.8118 -1.9963  0.8038
15752TIP3    H268748   3.331   1.200   3.248  1.2442 -0.8180 -1.6338
15753TIP3   OH268749   5.905   6.866   1.685 -0.5286 -0.3015  0.6387
15753TIP3    H168750   5.891   6.868   1.779 -0.3624 -0.1306  0.6599
15753TIP3    H268751   5.883   6.954   1.655 -0.2617 -0.2570  0.5654
15754TIP3   OH268752   5.682   6.594   0.201 -0.1968  0.1780 -0.5803
15754TIP3    H168753   5.593   6.575   0.230 -0.4998  0.2029 -1.4604
15754TIP3    H268754   5.738   6.551   0.265 -0.8479 -0.9962 -0.7780
15755TIP3   OH268755   5.781   0.481   5.290  0.7779 -0.6384 -0.3015
15755TIP3    H168756   5.813   0.425   5.220 -0.2083  0.8550 -2.0182
15755TIP3    H268757   5.729   0.548   5.246  2.6800  2.2556  1.4863
15756TIP3   OH268758   5.066   2.502   5.228 -0.4244 -0.2755  0.6133
15756TIP3    H168759   5.025   2.454   5.156 -1.0758  0.1013  0.7269
15756TIP3    H268760   5.137   2.551   5.187 -1.0520  0.2668  0.1461
15757TIP3   OH268761   1.332   4.670  12.764 -0.1642  0.1509  0.2809
15757TIP3    H168762   1.238   4.662  12.748  0.1609 -0.3900 -1.6598
15757TIP3    H268763   1.354   4.593  12.816 -0.7501  0.1692  0.5644
15758TIP3   OH268764   6.768   7.220   5.156  0.7507 -0.5387 -0.2283
15758TIP3    H168765   6.849   7.193   5.199  0.3556 -1.1468  0.1480
15758TIP3    H268766   6.724   7.275   5.221  0.2343 -1.3160  0.0891
15759TIP3   OH268767   1.585   6.386   2.827 -0.2482 -0.3312 -0.2535
15759TIP3    H168768   1.620   6.450   2.766  1.3087 -1.0534 -0.1715
15759TIP3    H268769   1.565   6.436   2.906  1.4455  0.0325 -0.0022
15760TIP3   OH268770   0.654   0.331   4.953  0.4556 -0.1523  0.2882
15760TIP3    H168771   0.636   0.418   4.918 -1.4543 -1.2987 -1.7962
15760TIP3    H268772   0.584   0.316   5.016 -0.1882 -0.8149 -0.5802
15761TIP3   OH268773   2.431   4.995   1.340 -0.0693  0.4818  0.2634
15761TIP3    H168774   2.511   4.986   1.289 -0.7551  1.5636 -1.0861
15761TIP3    H268775   2.438   5.082   1.381 -0.6263  0.6654 -0.0233
15762TIP3   OH268776   3.472   4.089   5.299  0.6422 -0.9701  0.1465
15762TIP3    H168777   3.442   4.172   5.336  1.3178 -1.1176  1.0608
15762TIP3    H268778   3.393   4.036   5.293  0.1941 -0.2573 -0.4831
15763TIP3   OH268779   7.050   6.233  10.756  0.1003  0.3399  0.0518
15763TIP3    H168780   6.964   6.236  10.716 -1.1605 -0.6267  2.4808
15763TIP3    H268781   7.105   6.188  10.692 -0.6495  2.5106 -2.3061
15764TIP3   OH268782   1.001   1.781   4.883  0.2797  0.0954  0.2346
15764TIP3    H168783   1.059   1.840   4.931  0.1969 -0.3495  0.8981
15764TIP3    H268784   1.024   1.694   4.915 -1.3945 -0.0295  1.2275
15765TIP3   OH268785   2.101   6.898   5.843  0.3033  0.0614 -0.0296
15765TIP3    H168786   2.113   6.868   5.754 -2.5996  1.6137 -1.0827
15765TIP3    H268787   2.044   6.833   5.884  0.9578 -0.2185  0.4650
15766TIP3   OH268788   3.816   3.621   4.539  0.7159  0.2464  0.1902
15766TIP3    H168789   3.855   3.702   4.507  1.0806 -0.5783 -1.6139
15766TIP3    H268790   3.722   3.630   4.519  0.1543  1.5085  2.9527
15767TIP3   OH268791   3.096   4.308  12.499  0.4297 -0.3699 -0.0811
15767TIP3    H168792   3.057   4.261  12.426 -0.1757 -0.6479  0.4155
15767TIP3    H268793   3.133   4.387  12.460  0.0826 -0.5018 -0.6785
15768TIP3   OH268794   5.936   2.934   3.531  0.7774 -0.0855 -0.0506
15768TIP3    H168795   5.971   2.865   3.587 -1.1212  0.0634  1.4287
15768TIP3    H268796   5.843   2.913   3.522  0.4673  1.4480 -0.8162
15769TIP3   OH268797   0.881   3.132  13.039  0.1026 -0.2870  0.2425
15769TIP3    H168798   0.953   3.118  13.101  0.1184 -0.1632  0.2540
15769TIP3    H268799   0.804   3.146  13.094  0.1697  0.1002  0.2398
15770TIP3   OH268800   6.175   2.532   5.186 -0.7434  0.1812 -0.2247
15770TIP3    H168801   6.227   2.456   5.162 -2.0794 -0.4072 -1.3970
15770TIP3    H268802   6.111   2.540   5.116 -3.0249  0.1220  1.7337
15771TIP3   OH268803   1.967   3.736   0.106  0.0400 -0.5053  0.6749
15771TIP3    H168804   2.025   3.705   0.176 -0.1686 -0.0994  1.0290
15771TIP3    H268805   1.983   3.830   0.100 -0.8770 -0.3117  1.0568
15772TIP3   OH268806   5.229   4.879  13.947  0.0806  0.1061 -0.1721
15772TIP3    H168807   5.268   4.821  13.882  0.4053 -0.0424  0.1498
15772TIP3    H268808   5.304   4.917  13.992 -0.1269 -1.1213  1.2936
15773TIP3   OH268809   0.968   3.581   6.057 -0.5689 -0.4727 -0.6468
15773TIP3    H168810   1.046   3.525   6.055 -0.2988 -0.1950  0.8014
15773TIP3    H268811   0.929   3.565   6.142 -2.0709 -0.5326 -1.3203
15774TIP3   OH268812   3.009   1.428   4.109 -0.4823  0.0975 -0.1622
15774TIP3    H168813   3.000   1.334   4.124  1.2375  0.1808  1.7732
15774TIP3    H268814   2.956   1.469   4.177 -2.4037  0.6266 -1.8555
15775TIP3   OH268815   6.915   0.220  14.133  0.5231 -0.2773  0.2258
15775TIP3    H168816   6.823   0.211  14.157  0.3460 -0.7598 -0.6288
15775TIP3    H268817   6.935   0.143  14.080  1.4781 -0.2833  0.5611
15776TIP3   OH268818   1.930   1.243   3.377  0.3914  0.0344  0.0237
15776TIP3    H168819   2.020   1.231   3.406 -0.0422 -0.1270  1.4043
15776TIP3    H268820   1.894   1.310   3.437 -0.1246  0.8295 -1.1341
15777TIP3   OH268821   6.292   5.786   0.033 -0.1874 -0.2126  0.0878
15777TIP3    H168822   6.206   5.802  -0.004 -0.1843  1.1510  0.6104
15777TIP3    H268823   6.275   5.737   0.113 -0.4717 -0.1315  0.0794
15778TIP3   OH268824   5.584   4.352  12.854  0.3896 -0.2331  0.6339
15778TIP3    H168825   5.665   4.404  12.855  0.6170 -0.5908  1.5253
15778TIP3    H268826   5.580   4.316  12.766  1.7630 -1.0578  0.8751
15779TIP3   OH268827   6.159   0.240   3.771  0.2712 -0.3142 -0.1899
15779TIP3    H168828   6.097   0.298   3.813 -2.2754 -1.7337 -1.7165
15779TIP3    H268829   6.212   0.205   3.842 -0.8925  0.7069  1.2240
15780TIP3   OH268830   0.381   1.963   1.646 -0.1278 -0.1886 -1.0150
15780TIP3    H168831   0.465   1.973   1.690 -0.5466  0.8528 -0.4067
15780TIP3    H268832   0.371   1.869   1.634  0.8630 -0.3600 -0.5813
15781TIP3   OH268833   1.449   5.685   5.256 -0.4209 -0.4184 -0.2056
15781TIP3    H168834   1.396   5.749   5.303 -1.4095 -0.5904 -1.0554
15781TIP3    H268835   1.539   5.715   5.269 -0.7934  0.4712  0.3962
15782TIP3   OH268836   6.238   6.260   3.269  0.0650  0.3166  0.1895
15782TIP3    H168837   6.287   6.239   3.348  2.5283 -0.6084 -1.4532
15782TIP3    H268838   6.167   6.316   3.299  0.4937 -0.5354  3.1179
15783TIP3   OH268839   1.377   2.900  13.946 -0.1946 -0.4831  0.0685
15783TIP3    H168840   1.299   2.951  13.924  0.4937  0.2037 -0.8570
15783TIP3    H268841   1.438   2.916  13.874  1.8843  1.2758  2.0251
15784TIP3   OH268842   2.445   2.623   2.113  0.2540 -0.2385 -0.0916
15784TIP3    H168843   2.515   2.670   2.159  0.7744 -1.3142  0.2499
15784TIP3    H268844   2.477   2.533   2.107 -0.9403 -0.6667 -0.2707
15785TIP3   OH268845   3.088   2.536   3.910  0.1775  0.4052  0.2238
15785TIP3    H168846   3.170   2.500   3.944 -0.5293 -0.3991  1.1739
15785TIP3    H268847   3.097   2.631   3.919  1.5947  0.4433 -1.1565
15786TIP3   OH268848   1.238   6.132   3.616 -0.4110 -0.3766 -0.3334
15786TIP3    H168849   1.266   6.136   3.525  0.2953  1.0594 -0.0834
15786TIP3    H268850   1.315   6.159   3.666 -1.5488  1.4993  0.5181
15787TIP3   OH268851   1.994   3.444   4.983 -0.2904 -0.1896 -0.0645
15787TIP3    H168852   1.961   3.398   5.061  0.8631 -0.2354  0.4134
15787TIP3    H268853   1.923   3.436   4.919 -1.3296 -0.0148  1.0261
15788TIP3   OH268854   1.064   0.709   1.128  0.6307 -0.2625 -0.2179
15788TIP3    H168855   0.971   0.715   1.150  0.4656  1.7781 -1.2162
15788TIP3    H268856   1.109   0.724   1.211  0.0169  3.4552 -0.3744
15789TIP3   OH268857   4.612   2.944   0.083  0.7092 -0.0769  0.1897
15789TIP3    H168858   4.637   2.895   0.004 -1.5992 -0.8291 -0.1501
15789TIP3    H268859   4.654   3.029   0.073  1.9443 -0.7885 -0.9476
15790TIP3   OH268860   0.484   1.968   0.124  0.9798 -0.0566 -0.0286
15790TIP3    H168861   0.565   1.942   0.081  0.2700  0.2400 -1.5906
15790TIP3    H268862   0.456   2.046   0.077 -0.3953 -0.3435  0.2870
15791TIP3   OH268863   6.059   3.225   3.203 -0.3169  0.5252  0.5348
15791TIP3    H168864   6.144   3.230   3.246 -0.2675 -0.4080  0.5737
15791TIP3    H268865   6.002   3.183   3.268 -1.0374  1.8898  0.8299
15792TIP3   OH268866   1.783   5.805   5.726  0.0473 -0.4916  0.5762
15792TIP3    H168867   1.754   5.878   5.781  0.0670 -0.0894  0.0697
15792TIP3    H268868   1.817   5.848   5.647  0.8752 -1.0130  0.6452
15793TIP3   OH268869   2.273   6.935  13.646  0.1441  0.1830 -0.7318
15793TIP3    H168870   2.204   6.874  13.671 -0.5839  1.5441  0.7940
15793TIP3    H268871   2.353   6.899  13.686 -0.4079  0.5691  0.7987
15794TIP3   OH268872   6.194   6.836   2.543 -0.0248 -0.4568  0.1563
15794TIP3    H168873   6.122   6.825   2.604  0.6759 -0.5437  0.9925
15794TIP3    H268874   6.269   6.858   2.599  0.4336  0.3409 -0.7522
15795TIP3   OH268875   2.828   3.908   5.094  0.3937 -0.2673  0.2039
15795TIP3    H168876   2.798   3.827   5.134 -2.1194  0.2618 -0.4304
15795TIP3    H268877   2.805   3.976   5.157  1.0233  0.1077  0.0373
15796TIP3   OH268878   4.647   6.496  14.606 -0.1343  0.5139 -0.4334
15796TIP3    H168879   4.708   6.509  14.679 -0.7762  1.1291  0.0029
15796TIP3    H268880   4.595   6.576  14.603 -1.4633 -0.3095 -0.2798
15797TIP3   OH268881   6.952   6.033   1.892 -0.3109  0.7295  0.2265
15797TIP3    H168882   6.979   5.973   1.823  1.0665  1.3399  0.2079
15797TIP3    H268883   6.858   6.045   1.877 -0.0410  0.8941 -1.5801
15798TIP3   OH268884   2.400   1.324   1.482 -0.0903  0.3166 -0.1264
15798TIP3    H168885   2.322   1.363   1.521  0.2082 -0.1605  0.9834
15798TIP3    H268886   2.473   1.362   1.531  0.2974 -0.2460 -0.2650
15799TIP3   OH268887   5.348   6.549   5.916 -0.3141  0.5519  0.3591
15799TIP3    H168888   5.287   6.509   5.854 -1.1770  1.7194  0.4143
15799TIP3    H268889   5.401   6.609   5.863  2.1156 -1.7689 -0.0271
15800TIP3   OH268890   2.981   1.955  14.706  0.0199 -0.0451 -1.0493
15800TIP3    H168891   2.962   2.045  14.680 -0.1688  0.0302 -0.6600
15800TIP3    H268892   2.951   1.950  14.797  0.1996 -0.4478 -1.0122
15801TIP3   OH268893   2.296   6.261   2.583  0.5639 -0.4497 -0.5873
15801TIP3    H168894   2.378   6.311   2.587  0.1935  0.1178  0.0639
15801TIP3    H268895   2.248   6.298   2.509  0.1220  0.4418  0.1276
15802TIP3   OH268896   4.405   7.003  14.857  0.8291 -0.1652 -0.0039
15802TIP3    H168897   4.371   6.914  14.868  1.8082 -0.4967  0.4808
15802TIP3    H268898   4.447   7.023  14.941  1.4956  0.3646 -0.4535
15803TIP3   OH268899   3.129   5.244   4.075 -0.6950  0.4025  0.3206
15803TIP3    H168900   3.093   5.230   3.988  1.4115 -2.2918 -0.2702
15803TIP3    H268901   3.068   5.201   4.134 -1.1372  0.5416 -0.0311
15804TIP3   OH268902   2.827   3.005  15.118 -0.1579 -0.8812 -0.7832
15804TIP3    H168903   2.857   3.006  15.027 -0.6306  0.4220 -0.9486
15804TIP3    H268904   2.856   2.920  15.152  1.1664 -0.8678 -1.7734
15805TIP3   OH268905   4.966   6.335   5.514 -0.6494  0.1084  0.3241
15805TIP3    H168906   4.998   6.253   5.476 -4.2026 -1.1695 -0.3655
15805TIP3    H268907   4.966   6.397   5.441 -0.2237 -0.0109  0.2201
15806TIP3   OH268908   0.710   3.791   1.295  0.0357  0.3031  0.7529
15806TIP3    H168909   0.651   3.731   1.341 -1.4961  1.1169 -0.0457
15806TIP3    H268910   0.788   3.739   1.277 -1.7919 -2.0275 -1.2464
15807TIP3   OH268911   1.220   1.305  13.860 -0.1102  0.0975  0.2821
15807TIP3    H168912   1.186   1.348  13.939 -1.9566  0.0402 -0.4316
15807TIP3    H268913   1.173   1.221  13.857  0.1338 -0.0055 -0.7390
15808TIP3   OH268914   3.233   1.602   4.164 -0.2171 -0.1005 -0.2685
15808TIP3    H168915   3.174   1.530   4.143 -0.3378 -0.3926  1.0214
15808TIP3    H268916   3.175   1.673   4.191 -0.0799  0.3873 -1.1962
15809TIP3   OH268917   5.051   1.296   1.581 -0.0994  0.4063  0.1970
15809TIP3    H168918   5.030   1.352   1.506 -0.2544 -0.4097 -0.3692
15809TIP3    H268919   5.145   1.281   1.574 -0.3400 -0.8296 -0.6538
15810TIP3   OH268920   7.078   0.849  11.116  0.4412  1.1013  0.0706
15810TIP3    H168921   7.074   0.813  11.028  0.5301  0.2370  0.4072
15810TIP3    H268922   7.062   0.774  11.174 -1.3514  1.9493  0.7605
15811TIP3   OH268923   3.297   3.047   0.457  0.5333 -0.1343 -0.4206
15811TIP3    H168924   3.274   2.954   0.449  1.1821 -0.2695 -0.7822
15811TIP3    H268925   3.302   3.062   0.551  2.2578 -0.9421 -0.3481
15812TIP3   OH268926   2.995   0.046   1.655  0.1508  0.2083  0.3452
15812TIP3    H168927   3.074   0.081   1.615 -2.0956  4.2544 -1.0991
15812TIP3    H268928   2.978   0.103   1.730 -0.8742 -1.3050  1.3398
15813TIP3   OH268929   0.064   4.088   3.008 -0.2644 -0.5768  0.2909
15813TIP3    H168930  -0.003   4.152   3.031 -0.3609 -0.5458 -0.0658
15813TIP3    H268931   0.021   4.003   3.019 -0.2109 -0.5726  0.5322
15814TIP3   OH268932   1.212   4.410   2.696  0.2900 -0.1312  0.5683
15814TIP3    H168933   1.132   4.358   2.692  0.6888 -0.8723  1.7096
15814TIP3    H268934   1.193   4.487   2.643 -0.4920 -1.1856 -0.7513
15815TIP3   OH268935   4.516   6.249   4.428  0.0825  0.3914  0.8223
15815TIP3    H168936   4.534   6.244   4.522  1.0653 -0.4173  0.5985
15815TIP3    H268937   4.513   6.158   4.399 -1.1310  0.6029  0.2178
15816TIP3   OH268938   2.937   1.097   1.389 -0.0134 -0.0794 -0.1730
15816TIP3    H168939   3.030   1.111   1.409 -0.2867  2.5242 -0.4388
15816TIP3    H268940   2.890   1.137   1.461 -0.9176  2.2148 -1.9278
15817TIP3   OH268941   3.056   2.196   1.711  0.2624  0.1710  0.3663
15817TIP3    H168942   3.053   2.217   1.618  1.6818  0.5502  0.3855
15817TIP3    H268943   3.068   2.101   1.713  0.2841  0.1691  0.1675
15818TIP3   OH268944   3.277   2.603   1.819 -0.9068  0.4321  0.0289
15818TIP3    H168945   3.234   2.522   1.846  1.4855 -1.2550 -0.8512
15818TIP3    H268946   3.279   2.599   1.724  1.1052  0.4290  0.0278
15819TIP3   OH268947   6.958   6.168   4.938 -0.3221 -0.1203 -0.3861
15819TIP3    H168948   7.019   6.095   4.922  0.3981  0.3583  0.1417
15819TIP3    H268949   6.894   6.132   4.999  0.3199 -0.1761  0.2738
15820TIP3   OH268950   5.823   3.950  14.468  0.1581 -0.2102 -0.4844
15820TIP3    H168951   5.822   3.915  14.556  0.5032 -0.2999 -0.5126
15820TIP3    H268952   5.852   4.041  14.479 -0.4508 -0.0225 -0.4384
15821TIP3   OH268953   5.516   5.082   2.032 -0.2202  0.5025 -0.4676
15821TIP3    H168954   5.600   5.120   2.058  0.2664  0.4112 -1.8179
15821TIP3    H268955   5.472   5.063   2.115 -0.0609  3.0398  0.2728
15822TIP3   OH268956   6.782   5.096   2.385  0.5854  0.0647  0.1158
15822TIP3    H168957   6.744   5.063   2.467  2.2413  0.1553  0.9571
15822TIP3    H268958   6.741   5.181   2.373 -1.4518 -0.9347 -0.4536
15823TIP3   OH268959   0.837   3.491   5.282  0.1188 -0.3375  0.0486
15823TIP3    H168960   0.918   3.494   5.332 -1.7994  0.9486  3.4265
15823TIP3    H268961   0.779   3.435   5.334 -1.3943 -0.6953 -1.9114
15824TIP3   OH268962   5.876   2.064   2.100  0.5844 -0.3260  0.0778
15824TIP3    H168963   5.932   2.092   2.172  1.4857 -0.3541 -0.5903
15824TIP3    H268964   5.917   1.984   2.067 -0.0775 -0.5694 -0.1634
15825TIP3   OH268965   0.654   2.574   3.595 -0.1493  0.2009 -0.1747
15825TIP3    H168966   0.727   2.601   3.652 -0.0644  1.6161 -0.9052
15825TIP3    H268967   0.575   2.596   3.645 -0.0706  0.3417 -0.1111
15826TIP3   OH268968   2.132   1.637   3.582  0.3236 -0.4220 -0.4036
15826TIP3    H168969   2.126   1.543   3.564  1.4755 -0.5779 -0.0699
15826TIP3    H268970   2.222   1.660   3.559 -0.2059  0.8023 -1.3709
15827TIP3   OH268971   0.364   3.545   4.183  0.1903  0.3317 -0.5088
15827TIP3    H168972   0.372   3.594   4.101  0.6129 -0.2277 -0.8022
15827TIP3    H268973   0.341   3.456   4.156 -1.5214  0.5743  0.0657
15828TIP3   OH268974   3.932   6.183   2.982  0.1844  0.2349  0.1196
15828TIP3    H168975   3.863   6.228   3.031 -0.2550 -0.3845  0.0816
15828TIP3    H268976   3.971   6.252   2.928 -0.8890  0.4708 -0.4014
15829TIP3   OH268977   5.654   1.414   2.440 -0.2912  0.2220  0.7707
15829TIP3    H168978   5.590   1.407   2.370 -0.9372  0.7429  1.2947
15829TIP3    H268979   5.601   1.423   2.520  0.4112  1.9114  1.0908
15830TIP3   OH268980   0.584   5.145   5.129 -0.3366 -0.3139  0.8368
15830TIP3    H168981   0.670   5.104   5.118  0.0378  0.3954  1.0849
15830TIP3    H268982   0.603   5.235   5.155 -1.1614 -0.2245  1.1558
15831TIP3   OH268983   2.153   1.046   1.155 -0.6710 -0.2985  0.2812
15831TIP3    H168984   2.096   1.123   1.147  0.4265  0.5127 -0.0396
15831TIP3    H268985   2.199   1.059   1.237 -0.1518 -0.3702  0.0072
15832TIP3   OH268986   4.677   1.954  12.612  0.3599 -0.2009  0.7086
15832TIP3    H168987   4.692   2.030  12.669  4.3747 -1.1943  1.2809
15832TIP3    H268988   4.651   1.992  12.528  2.5709  1.9798  0.8784
15833TIP3   OH268989   2.202   1.122   1.954  0.4125 -0.6502 -0.3502
15833TIP3    H168990   2.254   1.159   1.883  1.2320 -0.8020  0.1508
15833TIP3    H268991   2.267   1.085   2.014 -0.2092  0.0848  0.8273
15834TIP3   OH268992   3.921   0.838   0.580 -0.5555  0.1969  0.2672
15834TIP3    H168993   3.933   0.931   0.602  0.3420  0.3042 -0.6177
15834TIP3    H268994   4.005   0.810   0.545 -1.3832 -0.4196 -1.3453
15835TIP3   OH268995   5.706   3.896   1.343 -0.1195 -0.0830  0.0009
15835TIP3    H168996   5.763   3.931   1.411 -0.2368 -0.7041  0.4239
15835TIP3    H268997   5.641   3.965   1.328 -0.2362 -0.0430  0.6873
15836TIP3   OH268998   0.454   4.194   0.427 -0.1280  0.3708 -0.6098
15836TIP3    H168999   0.530   4.237   0.465 -1.6026  1.6480  1.0553
15836TIP3    H269000   0.473   4.190   0.333  1.5747  1.4707 -0.3574
15837TIP3   OH269001   4.685   2.654   1.242 -0.0210 -0.6556 -0.4983
15837TIP3    H169002   4.719   2.682   1.327 -2.8432  0.4000  0.3787
15837TIP3    H269003   4.660   2.735   1.198 -0.7283 -1.3251 -1.3732
15838TIP3   OH269004   3.535   2.482   5.283  0.1979 -0.0545 -0.2097
15838TIP3    H169005   3.533   2.573   5.253  1.8953 -0.0575 -0.4205
15838TIP3    H269006   3.551   2.431   5.205  2.0605 -0.2797  0.2817
15839TIP3   OH269007   5.668   0.552   3.809 -0.0775 -0.3585 -0.3512
15839TIP3    H169008   5.681   0.466   3.768 -0.6056 -0.2519 -0.7598
15839TIP3    H269009   5.733   0.608   3.768  0.4189 -0.6177  0.0811
15840TIP3   OH269010   1.587   4.273   0.417  0.9076  0.2095 -0.1976
15840TIP3    H169011   1.532   4.328   0.363  0.1601  0.6167  0.9489
15840TIP3    H269012   1.676   4.304   0.400  0.7026  0.2699 -1.2311
15841TIP3   OH269013   2.530   1.514   2.522  0.0501  0.3756 -0.5409
15841TIP3    H169014   2.476   1.592   2.534 -0.2783  0.1917 -0.8037
15841TIP3    H269015   2.479   1.459   2.462 -0.7488 -1.0086  1.3023
15842TIP3   OH269016   3.927   6.901   3.882 -0.2088  0.0563  0.2941
15842TIP3    H169017   3.938   6.926   3.790 -1.1038  1.7966  0.6261
15842TIP3    H269018   3.835   6.877   3.889 -0.6103  1.7006  1.0976
15843TIP3   OH269019   2.453   0.220   2.226 -0.0538  0.2459 -0.1537
15843TIP3    H169020   2.544   0.233   2.255  1.3082 -0.4351 -3.5692
15843TIP3    H269021   2.415   0.308   2.228  0.7552  0.6013  1.0371
15844TIP3   OH269022   5.235   3.522   4.937 -0.1704  0.3887  0.6897
15844TIP3    H169023   5.243   3.617   4.947 -0.3538  0.3614  1.1001
15844TIP3    H269024   5.276   3.503   4.852 -0.5829  0.8923  0.3797
15845TIP3   OH269025   0.116   3.743   6.093 -0.4460 -0.3302  0.1711
15845TIP3    H169026   0.210   3.729   6.099 -0.7436 -1.8260  2.6705
15845TIP3    H269027   0.097   3.742   5.999  1.9958  0.0327 -0.3764
15846TIP3   OH269028   1.073   2.357   3.932  1.1860 -0.2676  0.4957
15846TIP3    H169029   1.019   2.406   3.995  1.4073  0.4044  0.1804
15846TIP3    H269030   1.070   2.267   3.963  0.0077 -0.2179  0.5785
15847TIP3   OH269031   0.904   4.473   0.984 -0.2967  0.3038  0.7344
15847TIP3    H169032   0.940   4.388   1.009  0.1490  0.3024  0.1206
15847TIP3    H269033   0.849   4.499   1.057 -1.5534 -1.1603  0.3453
15848TIP3   OH269034   2.361   0.982   4.271 -0.4902  0.2501 -0.1550
15848TIP3    H169035   2.349   0.907   4.213  1.5804 -1.6863  1.7175
15848TIP3    H269036   2.390   0.944   4.354  2.3798  3.1704  0.3979
15849TIP3   OH269037   0.694   0.918   3.161 -0.8422 -0.6782 -0.0914
15849TIP3    H169038   0.679   1.009   3.136 -1.4681 -0.4331  1.0858
15849TIP3    H269039   0.658   0.912   3.250  2.0154 -1.2792  1.1112
15850TIP3   OH269040   3.784   5.236   4.193  0.5889  0.0779 -0.3297
15850TIP3    H169041   3.864   5.185   4.196  0.4354 -0.2025 -0.7576
15850TIP3    H269042   3.787   5.292   4.270  0.0158 -1.7008  1.0380
15851TIP3   OH269043   6.370   5.671   1.112  0.0028 -0.7747  0.2151
15851TIP3    H169044   6.364   5.578   1.134  0.2672 -0.4530  1.7882
15851TIP3    H269045   6.299   5.712   1.162  1.0666  0.0845  1.0858
15852TIP3   OH269046   3.013   0.947  13.640 -0.7096  0.3824 -0.2830
15852TIP3    H169047   3.000   0.895  13.719 -0.7151  0.8478  0.0293
15852TIP3    H269048   2.938   0.927  13.585 -0.9606  0.4267  0.0414
15853TIP3   OH269049   7.206   5.402   5.310 -0.2998 -0.1798 -0.3310
15853TIP3    H169050   7.289   5.356   5.326  0.3087  1.2759  0.8815
15853TIP3    H269051   7.213   5.483   5.359 -0.9156  1.7703 -3.1886
15854TIP3   OH269052   6.894   2.312   0.093  0.2345  0.1158  0.2428
15854TIP3    H169053   6.820   2.313   0.154  0.1930  0.9628  0.1929
15854TIP3    H269054   6.907   2.404   0.070  0.6408 -0.1321 -0.5559
15855TIP3   OH269055   2.255   4.940   0.462  0.1859 -0.0777 -0.0363
15855TIP3    H169056   2.349   4.951   0.477  0.1049  2.2914 -0.7870
15855TIP3    H269057   2.226   4.885   0.534  1.8261  0.7847  1.3750
15856TIP3   OH269058   4.099   3.442  12.333 -0.3355  0.4058 -0.2644
15856TIP3    H169059   4.058   3.471  12.252 -1.0853 -0.8851 -0.3760
15856TIP3    H269060   4.032   3.456  12.400 -1.1026 -1.9090 -0.4799
15857TIP3   OH269061   3.862   2.362   2.555  0.8353  0.7489 -0.2025
15857TIP3    H169062   3.915   2.356   2.634  1.0025  3.8715  0.0517
15857TIP3    H269063   3.919   2.403   2.490  0.0530  0.1636 -1.3015
15858TIP3   OH269064   1.827   1.927   2.301  0.3731  0.4518 -0.1899
15858TIP3    H169065   1.744   1.927   2.253 -0.5360  0.6062  1.2948
15858TIP3    H269066   1.811   1.869   2.376  1.3591  1.0326  0.5001
15859TIP3   OH269067   2.545   5.533   0.440 -0.0868  0.3211 -0.1578
15859TIP3    H169068   2.482   5.603   0.454  0.2188  0.5349  0.1527
15859TIP3    H269069   2.607   5.542   0.512  0.3028  0.1160 -0.4672
15860TIP3   OH269070   3.755   1.001   5.360  0.1194  0.6790  0.1770
15860TIP3    H169071   3.687   0.998   5.427 -0.4627  0.6454 -0.4152
15860TIP3    H269072   3.757   1.093   5.332 -1.2729  0.2530 -1.4210
15861TIP3   OH269073   1.735   5.029   4.263  0.6051 -0.1957 -0.1542
15861TIP3    H169074   1.800   5.018   4.194  0.7293 -0.1486 -0.0455
15861TIP3    H269075   1.687   5.109   4.240  0.5019 -0.2992 -0.3010
15862TIP3   OH269076   3.245   4.455  11.107  0.3818 -0.7217  0.4872
15862TIP3    H169077   3.336   4.428  11.107  0.5485 -0.1781  0.6136
15862TIP3    H269078   3.197   4.381  11.068  0.9553 -0.7493 -0.1784
15863TIP3   OH269079   4.643   5.741   2.951 -0.1857  0.4606  0.1657
15863TIP3    H169080   4.683   5.744   3.038  0.7367  0.8365 -0.2525
15863TIP3    H269081   4.638   5.833   2.924 -1.4133  0.4249  0.2304
15864TIP3   OH269082   2.883   4.723   0.050 -0.1956 -0.3247  0.3937
15864TIP3    H169083   2.879   4.798   0.110  1.9638 -0.3220  0.5928
15864TIP3    H269084   2.957   4.670   0.081 -0.0727 -1.2048 -1.2639
15865TIP3   OH269085   4.926   4.070   1.512  0.1461  0.0459  0.1826
15865TIP3    H169086   4.840   4.108   1.526  0.2607 -0.4898  2.9437
15865TIP3    H269087   4.914   4.008   1.440 -1.9951 -0.5608  0.9876
15866TIP3   OH269088   2.746   6.776   4.285 -0.5171 -0.3576  0.2502
15866TIP3    H169089   2.659   6.739   4.269 -0.1571 -1.3094  0.4385
15866TIP3    H269090   2.806   6.703   4.274  0.2278  0.1950  0.5488
15867TIP3   OH269091   4.567   1.665   3.198  0.0394  0.5964  0.0204
15867TIP3    H169092   4.494   1.606   3.176  0.8528 -0.4605  0.1056
15867TIP3    H269093   4.533   1.752   3.178 -2.4283  0.4915  3.0179
15868TIP3   OH269094   1.244   1.688  12.778  0.5924  0.0658 -0.0218
15868TIP3    H169095   1.276   1.713  12.691  2.0454 -2.6584 -0.3961
15868TIP3    H269096   1.149   1.685  12.768  0.7140  0.2130 -1.4203
15869TIP3   OH269097   2.806   2.001   4.770  0.4696 -0.0596  0.7266
15869TIP3    H169098   2.852   2.073   4.812 -1.1301  0.8012  1.0536
15869TIP3    H269099   2.861   1.924   4.787  1.2115  0.7348  2.0464
15870TIP3   OH269100   2.344   2.256   4.830  0.5556  0.1782 -0.6830
15870TIP3    H169101   2.373   2.209   4.908  1.3721  1.3590 -0.2512
15870TIP3    H269102   2.248   2.259   4.839  0.2827 -2.7615 -1.5604
15871TIP3   OH269103   1.581   6.416   4.581 -0.1560  0.1441 -0.1822
15871TIP3    H169104   1.596   6.461   4.664 -1.6890  1.0628 -0.3647
15871TIP3    H269105   1.655   6.444   4.526  1.1764 -0.9028  0.9905
15872TIP3   OH269106   4.596   5.386   0.377  0.7058  0.0570 -0.5208
15872TIP3    H169107   4.614   5.429   0.293  0.0769  0.2870 -0.5466
15872TIP3    H269108   4.532   5.443   0.419  1.9845  0.6333  0.6910
15873TIP3   OH269109   4.247   5.780   4.386 -0.6341  0.2988 -0.0731
15873TIP3    H169110   4.179   5.780   4.454 -0.3687 -0.2446  0.1946
15873TIP3    H269111   4.324   5.744   4.429 -0.1594  0.9435 -0.3671
15874TIP3   OH269112   3.207   6.801   1.703  0.4007  0.0097  0.7165
15874TIP3    H169113   3.130   6.809   1.646  1.1535 -2.4161 -0.8530
15874TIP3    H269114   3.171   6.795   1.791 -0.9039  2.7262  0.4615
15875TIP3   OH269115   5.856   2.067   2.558 -0.2371  0.4104 -0.2353
15875TIP3    H169116   5.913   2.060   2.635 -0.6502 -0.0677  0.0270
15875TIP3    H269117   5.912   2.107   2.491  0.4411 -0.1475 -0.0122
15876TIP3   OH269118   4.504   6.631   2.172  0.3939  0.1245  0.1915
15876TIP3    H169119   4.448   6.659   2.244  0.9224  2.5601 -0.2571
15876TIP3    H269120   4.507   6.535   2.180 -2.4659  0.0095  1.1950
15877TIP3   OH269121   4.947   3.405   4.225  0.7891 -0.2465  0.1034
15877TIP3    H169122   4.889   3.405   4.302 -0.1645 -0.2376 -0.6000
15877TIP3    H269123   5.021   3.351   4.251  0.6177 -0.0093  1.1368
15878TIP3   OH269124   5.105   1.841  14.927  0.5704  0.4211 -0.2137
15878TIP3    H169125   5.031   1.868  14.982  1.5977  0.7940  1.0326
15878TIP3    H269126   5.116   1.748  14.947  1.9602  0.9071  1.5159
15879TIP3   OH269127   4.681   6.179  15.067  0.3524  0.0146 -0.1550
15879TIP3    H169128   4.679   6.108  15.131  0.6374  1.8354  2.0348
15879TIP3    H269129   4.630   6.147  14.993 -1.9819 -1.4032  1.9166
15880TIP3   OH269130   0.588   5.429   5.225  0.2158  0.3219 -0.0297
15880TIP3    H169131   0.545   5.497   5.172  0.6452  0.7350  0.1424
15880TIP3    H269132   0.556   5.445   5.314  0.1381  0.1493 -0.0263
15881TIP3   OH269133   7.180   5.556  14.526  0.4046  0.2677  0.5733
15881TIP3    H169134   7.168   5.475  14.477  0.4061 -0.4699  1.7443
15881TIP3    H269135   7.274   5.561  14.542  0.3125  0.0587  1.2109
15882TIP3   OH269136   1.723   5.489  13.618 -0.0004  0.2402  0.2210
15882TIP3    H169137   1.718   5.568  13.564 -0.4383  0.2665  0.2935
15882TIP3    H269138   1.676   5.513  13.698  3.4251  1.3737  2.1001
15883TIP3   OH269139   5.325   2.471   1.568  0.2528  0.1417 -0.3587
15883TIP3    H169140   5.269   2.396   1.548  1.0670 -0.3152 -1.0081
15883TIP3    H269141   5.279   2.547   1.532 -0.7543  0.0303  0.6269
15884TIP3   OH269142   3.715   5.414   4.411 -0.5806 -0.7911  0.1650
15884TIP3    H169143   3.783   5.409   4.479  1.8837  0.4391 -2.0004
15884TIP3    H269144   3.676   5.500   4.422 -0.3379 -0.6791  0.1553
15885TIP3   OH269145   4.584   1.406   2.972  0.4279 -0.1947  0.1934
15885TIP3    H169146   4.493   1.401   3.003  0.1200 -0.6485 -0.7442
15885TIP3    H269147   4.594   1.498   2.945  0.7907  0.2776  1.8500
15886TIP3   OH269148   5.600   3.753   2.910 -0.4015  0.2408 -0.1707
15886TIP3    H169149   5.652   3.819   2.957  0.2963 -0.3184 -0.1444
15886TIP3    H269150   5.664   3.704   2.859 -0.9167 -0.4215 -0.1951
15887TIP3   OH269151   7.071   0.830  14.938 -0.2891  0.4071  0.1867
15887TIP3    H169152   7.021   0.756  14.903  0.8073  0.4692 -1.6500
15887TIP3    H269153   7.116   0.795  15.015 -1.4969 -0.2127  0.6277
15888TIP3   OH269154   6.585   7.034   2.336 -0.3674  0.2408 -0.3961
15888TIP3    H169155   6.654   7.041   2.402 -1.2026 -2.4780  0.9022
15888TIP3    H269156   6.523   7.103   2.359 -0.2061 -0.0853  1.1555
15889TIP3   OH269157   4.743   2.552   5.118 -0.5109 -0.7303 -0.3742
15889TIP3    H169158   4.806   2.568   5.048  1.2542 -1.6271  0.9346
15889TIP3    H269159   4.764   2.619   5.184  0.0413 -1.8840  0.6657
15890TIP3   OH269160   5.478   2.706   5.232  0.0004 -0.1625 -0.1120
15890TIP3    H169161   5.446   2.688   5.320 -0.7454  0.9249 -0.1423
15890TIP3    H269162   5.421   2.656   5.174  0.9698 -1.5010  0.0240
15891TIP3   OH269163   6.531   3.413   1.347 -0.2218 -0.5225 -0.0367
15891TIP3    H169164   6.468   3.388   1.414  0.2383  0.0252  0.6073
15891TIP3    H269165   6.477   3.450   1.277 -0.6588 -0.6073  0.2494
15892TIP3   OH269166   1.364   0.711   4.410 -0.5799 -0.1319  0.0814
15892TIP3    H169167   1.457   0.700   4.393 -0.1069  1.9122  1.0003
15892TIP3    H269168   1.336   0.775   4.344 -1.3076 -0.5779 -0.0551
15893TIP3   OH269169   4.464   1.682   4.992 -0.2435  0.4270 -0.2623
15893TIP3    H169170   4.463   1.754   4.929  0.5295 -1.4732 -2.5935
15893TIP3    H269171   4.496   1.722   5.073 -1.3190  2.9939 -1.0122
15894TIP3   OH269172   3.909   0.660   3.877  0.2532  0.5000 -0.4306
15894TIP3    H169173   3.984   0.699   3.921  1.5974 -1.5266 -0.8063
15894TIP3    H269174   3.838   0.668   3.941  1.0828  1.3652  0.4232
15895TIP3   OH269175   5.657   2.615  11.766  0.0409 -0.2526 -0.2399
15895TIP3    H169176   5.602   2.548  11.806 -0.8083 -0.0986 -1.1104
15895TIP3    H269177   5.613   2.637  11.684 -0.0425  1.8069  0.2882
15896TIP3   OH269178   3.722   4.235   2.692  0.2718 -0.9289  0.0088
15896TIP3    H169179   3.731   4.295   2.618  0.3383 -1.1532 -0.1654
15896TIP3    H269180   3.803   4.184   2.691  0.3087 -0.8753  0.2856
15897TIP3   OH269181   4.304   2.644   3.886 -0.4851  0.0822 -0.0118
15897TIP3    H169182   4.289   2.697   3.965 -1.9393 -0.1925 -0.0806
15897TIP3    H269183   4.327   2.709   3.819  2.6188  0.1808  0.9910
15898TIP3   OH269184   5.282   5.529   3.864  0.5745  0.0353  0.0407
15898TIP3    H169185   5.236   5.470   3.804  0.2854 -0.9527  1.1928
15898TIP3    H269186   5.221   5.602   3.877  0.8801  0.5631 -1.2958
15899TIP3   OH269187   5.408   5.197   5.849  0.2566  0.4044 -0.4880
15899TIP3    H169188   5.340   5.140   5.887  1.7029 -1.2659 -0.2940
15899TIP3    H269189   5.449   5.144   5.781  1.0533  1.5649 -0.9450
15900TIP3   OH269190   2.620   6.178   3.991 -0.5694 -0.2010 -0.3994
15900TIP3    H169191   2.676   6.152   4.064 -0.7138  0.9053  0.1257
15900TIP3    H269192   2.557   6.107   3.982  1.4051 -1.9276 -1.5732
15901TIP3   OH269193   6.864   3.483  10.683 -0.5785 -0.2729  0.0353
15901TIP3    H169194   6.820   3.415  10.632  1.0625 -2.5193  1.3960
15901TIP3    H269195   6.793   3.538  10.716 -1.9973 -1.3507 -1.0654
15902TIP3   OH269196   0.527   1.024   1.406  0.2009 -0.2952  0.2057
15902TIP3    H169197   0.578   0.966   1.351  1.3214 -0.6701  1.5727
15902TIP3    H269198   0.468   0.966   1.455 -2.0743  0.1696 -1.7674
15903TIP3   OH269199   7.113   3.107   4.766 -0.3789  0.5082  0.7801
15903TIP3    H169200   7.112   3.137   4.675 -0.1967 -0.0345  0.5952
15903TIP3    H269201   7.205   3.106   4.789 -0.2896 -0.9472  0.4272
15904TIP3   OH269202   5.230   3.711   2.237  0.6764 -0.1274  0.0171
15904TIP3    H169203   5.278   3.757   2.168  0.4678  0.5804  0.3353
15904TIP3    H269204   5.214   3.778   2.304 -0.2349 -0.4908  0.1782
15905TIP3   OH269205   5.688   4.479  12.544  0.0472  0.3574  0.2147
15905TIP3    H169206   5.782   4.461  12.541  0.0417  0.3169 -3.2109
15905TIP3    H269207   5.648   4.395  12.565  0.6830 -0.2633 -1.0010
15906TIP3   OH269208   6.525   5.044   5.757 -0.0937  0.1873 -0.2296
15906TIP3    H169209   6.541   4.959   5.798 -0.6018  0.5550  0.7779
15906TIP3    H269210   6.604   5.095   5.775 -0.3246  0.3546  0.3273
15907TIP3   OH269211   4.185   6.195   2.635 -0.2788 -0.1118  0.1257
15907TIP3    H169212   4.264   6.143   2.652 -0.4880  0.0500  1.7890
15907TIP3    H269213   4.213   6.286   2.649 -0.8852 -0.0989  1.3702
15908TIP3   OH269214   5.589   6.933   5.651 -0.1326 -0.3352  0.2878
15908TIP3    H169215   5.668   6.917   5.702 -0.0586 -0.8995  0.0021
15908TIP3    H269216   5.544   6.848   5.649  0.0004 -0.3922 -0.8119
15909TIP3   OH269217   0.389   0.485  15.374 -0.2816  0.0862  0.1614
15909TIP3    H169218   0.394   0.580  15.358  2.6590  0.1919  1.2010
15909TIP3    H269219   0.417   0.445  15.291 -0.6646  0.1403  0.0037
15910TIP3   OH269220   0.145   3.841  15.012  0.2329  0.3434 -0.3118
15910TIP3    H169221   0.067   3.895  15.027  0.0993 -0.2140  1.2567
15910TIP3    H269222   0.127   3.794  14.931 -0.6630  0.9099 -0.4535
15911TIP3   OH269223   2.457   5.707   4.652  0.3404  0.2486 -0.2615
15911TIP3    H169224   2.447   5.617   4.621 -0.8266  0.7636 -1.4994
15911TIP3    H269225   2.524   5.744   4.594 -0.0382  0.4955 -0.5522
15912TIP3   OH269226   1.014   1.449   5.596  0.2661 -0.1805 -0.2722
15912TIP3    H169227   1.109   1.456   5.604  0.4705 -1.3979 -1.2568
15912TIP3    H269228   0.995   1.358   5.617 -0.7301  0.1263  0.2227
15913TIP3   OH269229   3.290   3.920  11.513 -0.4962 -0.0683 -0.5992
15913TIP3    H169230   3.245   3.878  11.586  1.2696 -1.1966 -0.1082
15913TIP3    H269231   3.304   4.010  11.542 -1.6833  0.0942 -0.4555
15914TIP3   OH269232   5.048   7.098   4.707 -0.2883  0.4655  0.1038
15914TIP3    H169233   4.989   7.140   4.770  1.8277  0.4173  2.2755
15914TIP3    H269234   5.089   7.171   4.660 -0.7225  0.5726 -0.1122
15915TIP3   OH269235   4.419   3.951  14.092 -1.0586 -0.0435 -0.0757
15915TIP3    H169236   4.449   3.867  14.057  0.3629 -0.6166  2.2847
15915TIP3    H269237   4.324   3.944  14.093 -0.9592 -1.8170  0.4446
15916TIP3   OH269238   3.580   3.773   3.015 -0.5720  0.3233 -0.7844
15916TIP3    H169239   3.617   3.767   3.103 -2.4993  1.4334  0.1729
15916TIP3    H269240   3.654   3.799   2.960  0.6886 -0.4308  0.4690
15917TIP3   OH269241   7.074   5.725   2.067 -0.3475 -0.5818 -0.1586
15917TIP3    H169242   7.051   5.648   2.119  1.1775  0.2905  1.9187
15917TIP3    H269243   7.009   5.791   2.091 -0.0981 -0.4129  0.0516
15918TIP3   OH269244   0.658   7.105   2.804  0.2566 -0.0955 -0.1590
15918TIP3    H169245   0.742   7.095   2.758 -0.0579  2.5645 -1.4624
15918TIP3    H269246   0.627   7.191   2.779 -1.8926 -0.1521  1.9985
15919TIP3   OH269247   5.140   1.821   3.774  0.0092  0.6656 -0.2457
15919TIP3    H169248   5.150   1.812   3.679  0.9567 -0.5330 -0.0510
15919TIP3    H269249   5.220   1.866   3.802  0.0294  0.4413  0.0608
15920TIP3   OH269250   5.660   4.705  14.113 -0.0689 -0.0360  0.2467
15920TIP3    H169251   5.692   4.790  14.141 -1.4910  0.5056  0.2566
15920TIP3    H269252   5.679   4.646  14.186  0.1774  0.4364  0.5641
15921TIP3   OH269253   5.781   2.129   1.314  0.0163  0.4487  0.5699
15921TIP3    H169254   5.763   2.074   1.237 -3.0788  1.3674  0.4758
15921TIP3    H269255   5.732   2.087   1.385  0.3178  1.3028  1.2927
15922TIP3   OH269256   3.566   3.197   3.662  0.3039 -0.1124  0.2338
15922TIP3    H169257   3.495   3.225   3.604 -1.2454 -1.0431  1.6018
15922TIP3    H269258   3.565   3.261   3.734  1.1280  0.0895  0.0794
15923TIP3   OH269259   2.134   3.446   0.523  0.2510  0.4196  0.1030
15923TIP3    H169260   2.194   3.372   0.513 -1.2156 -0.9018  0.6439
15923TIP3    H269261   2.191   3.523   0.533  1.8241 -0.7165  0.1660
15924TIP3   OH269262   3.460   4.207   1.768  0.3453 -0.0543  0.2543
15924TIP3    H169263   3.371   4.226   1.735  1.0216  0.2652 -1.5243
15924TIP3    H269264   3.496   4.293   1.790  0.6281 -0.0595 -0.1823
15925TIP3   OH269265   4.257   3.790   4.408  0.2320 -0.1035 -0.0171
15925TIP3    H169266   4.230   3.776   4.499  1.5263 -1.2734  0.2181
15925TIP3    H269267   4.314   3.867   4.412 -0.6890  0.5940 -0.0512
15926TIP3   OH269268   1.771   3.510   4.837  0.4907  0.3129  0.3565
15926TIP3    H169269   1.774   3.426   4.791 -3.0623 -1.2985  2.6149
15926TIP3    H269270   1.735   3.571   4.773 -0.5453 -0.8707 -0.2265
15927TIP3   OH269271   6.778   6.489   1.996  0.1490 -0.0562  0.2276
15927TIP3    H169272   6.826   6.562   2.034 -1.1250  0.6358  0.5331
15927TIP3    H269273   6.690   6.522   1.981  0.0086 -1.0081 -1.2377
15928TIP3   OH269274   4.791   0.247   0.670  0.1190  0.0616 -0.1353
15928TIP3    H169275   4.866   0.197   0.702  0.6958  2.4411  2.5835
15928TIP3    H269276   4.715   0.207   0.712  0.3968  0.4117  0.7143
15929TIP3   OH269277   4.000   4.787   0.710  0.2459  0.6988  0.1795
15929TIP3    H169278   4.081   4.746   0.680 -1.0652 -0.9197 -1.3816
15929TIP3    H269279   3.945   4.714   0.739 -0.6255  1.7678  1.3121
15930TIP3   OH269280   0.168   6.432   0.822 -0.2844 -0.3635 -0.4211
15930TIP3    H169281   0.213   6.357   0.861 -0.0977  0.0352  0.1294
15930TIP3    H269282   0.150   6.491   0.895 -0.0906  0.3073 -0.9006
15931TIP3   OH269283   3.443   3.938   3.258  0.0073 -0.4511  0.5130
15931TIP3    H169284   3.367   3.952   3.201  0.3043 -0.5269  0.0956
15931TIP3    H269285   3.510   3.901   3.201  0.0347 -1.3243  1.0838
15932TIP3   OH269286   2.169   2.321   1.703  0.0586  0.0346 -0.6382
15932TIP3    H169287   2.210   2.401   1.670 -0.6435  1.1104  0.9533
15932TIP3    H269288   2.180   2.327   1.798 -2.7972 -0.1556 -0.2319
15933TIP3   OH269289   0.025   4.141   3.510 -0.0709  0.2573  0.5879
15933TIP3    H169290   0.044   4.231   3.485 -0.3665  0.0837 -0.2776
15933TIP3    H269291   0.017   4.144   3.606  1.9025  0.7779  0.7725
15934TIP3   OH269292   6.923   4.671   4.652  0.0456  0.2117 -0.3895
15934TIP3    H169293   6.894   4.736   4.715  0.6246 -1.2630  1.4648
15934TIP3    H269294   6.903   4.587   4.692 -2.0485 -0.8596 -3.3530
15935TIP3   OH269295   1.982   0.995   0.496 -0.0241  0.0525 -0.1105
15935TIP3    H169296   2.036   0.963   0.568 -1.1732 -0.1156  0.6990
15935TIP3    H269297   1.991   0.928   0.428  1.4719  0.4595 -0.3516
15936TIP3   OH269298   0.198   0.056   0.963  0.1913  0.1323 -0.2822
15936TIP3    H169299   0.178  -0.038   0.958  2.8457 -0.7027  2.0606
15936TIP3    H269300   0.276   0.067   0.909  2.2148  0.0638  2.4169
15937TIP3   OH269301   5.231   1.068   3.504  0.0864 -0.3005 -0.0370
15937TIP3    H169302   5.209   1.155   3.469 -1.4268  0.3296  2.2593
15937TIP3    H269303   5.317   1.080   3.545 -1.9377  1.6470  4.3789
15938TIP3   OH269304   0.728   5.666   0.386  0.0219  0.1393 -0.6295
15938TIP3    H169305   0.647   5.712   0.363  0.9509  1.3747 -1.6099
15938TIP3    H269306   0.724   5.655   0.481 -0.2598  2.2798 -0.3375
15939TIP3   OH269307   3.840   3.233  15.110 -0.2638 -0.1968 -0.5213
15939TIP3    H169308   3.871   3.293  15.177 -0.3009  0.4772 -1.0886
15939TIP3    H269309   3.865   3.275  15.027  1.2793 -1.7866 -0.9307
15940TIP3   OH269310   3.135   0.357  10.631  0.1944  0.0477  0.5650
15940TIP3    H169311   3.071   0.335  10.699  0.9070 -0.8342  0.9690
15940TIP3    H269312   3.083   0.390  10.558 -0.5350  2.3339  1.9968
15941TIP3   OH269313   3.993   2.877   4.829  0.6330 -0.6598  0.3440
15941TIP3    H169314   4.057   2.938   4.866  1.2933 -0.0132 -1.7108
15941TIP3    H269315   4.031   2.791   4.845  1.4369 -0.3439  0.2182
15942TIP3   OH269316   5.137   4.308  13.509  0.3923 -0.5859 -0.3289
15942TIP3    H169317   5.113   4.233  13.454  2.0896 -1.3126 -0.1512
15942TIP3    H269318   5.095   4.290  13.593 -1.5232  0.1118 -1.0814
15943TIP3   OH269319   0.578   3.658   2.880 -0.2015  0.0881 -0.4131
15943TIP3    H169320   0.558   3.697   2.795 -0.2472  1.1993  0.0916
15943TIP3    H269321   0.662   3.614   2.867 -0.9665 -1.1317 -1.4500
15944TIP3   OH269322   1.090   1.054   3.827  0.3563 -0.0749  0.1075
15944TIP3    H169323   1.065   1.145   3.809  0.3527 -0.0633  0.1722
15944TIP3    H269324   1.085   1.011   3.741 -0.3610 -0.1830  0.1998
15945TIP3   OH269325   2.772   4.152  14.981 -0.0787 -0.0153  0.0640
15945TIP3    H169326   2.837   4.158  14.911 -0.0670  0.1768  0.0892
15945TIP3    H269327   2.690   4.177  14.939 -0.1574 -0.3784  0.0017
15946TIP3   OH269328   1.711   4.685  14.995  0.2668  0.4937  0.3910
15946TIP3    H169329   1.730   4.765  14.945  1.3073  0.6037  0.9484
15946TIP3    H269330   1.761   4.695  15.076  2.1662 -1.7005 -0.4274
15947TIP3   OH269331   5.988   2.694   0.600  0.1052 -0.4958  0.3231
15947TIP3    H169332   5.919   2.751   0.633  1.8609  2.2344 -0.3930
15947TIP3    H269333   6.032   2.661   0.679 -0.1375  0.1977  0.7528
15948TIP3   OH269334   6.722   4.030   2.680  0.1402 -0.1608  0.1833
15948TIP3    H169335   6.755   3.961   2.621  1.0659 -0.4793  1.0428
15948TIP3    H269336   6.786   4.100   2.672 -1.3705  1.1263 -1.5274
15949TIP3   OH269337   4.142   2.636   0.200  0.1449 -0.3745 -0.0777
15949TIP3    H169338   4.160   2.613   0.291 -1.1478  2.4871  1.0093
15949TIP3    H269339   4.221   2.682   0.171 -0.6608  1.6581  0.7746
15950TIP3   OH269340   3.914   6.036  15.231  0.0467  0.0758 -0.0572
15950TIP3    H169341   3.927   5.946  15.204 -1.8571 -0.0848 -0.6504
15950TIP3    H269342   3.920   6.087  15.150 -1.1778  0.1676 -0.1099
15951TIP3   OH269343   2.902   1.783  14.365 -0.3778  0.3473 -0.1942
15951TIP3    H169344   2.882   1.715  14.430  0.3021  0.9419  0.6498
15951TIP3    H269345   2.943   1.735  14.293 -2.6740 -0.5806 -0.9973
15952TIP3   OH269346   5.852   5.821   3.776 -0.5543  0.2412  0.4186
15952TIP3    H169347   5.837   5.903   3.728 -3.0066 -1.7442 -2.5958
15952TIP3    H269348   5.768   5.800   3.815  0.2851 -0.4116  1.9564
15953TIP3   OH269349   0.449   4.161  15.165 -0.4064 -0.4672  0.1470
15953TIP3    H169350   0.417   4.086  15.114  0.4258 -1.1590  0.6105
15953TIP3    H269351   0.434   4.236  15.108 -1.0998 -1.0001 -0.4067
15954TIP3   OH269352   3.247   3.821   4.169 -0.3323  0.2978  0.2990
15954TIP3    H169353   3.211   3.890   4.226 -0.2699  0.1939  0.4626
15954TIP3    H269354   3.341   3.833   4.173 -0.2748 -0.3562  1.0305
15955TIP3   OH269355   3.414   1.167   4.996 -0.2150  0.1595  0.2730
15955TIP3    H169356   3.451   1.153   5.083 -1.2528  0.1364  0.7280
15955TIP3    H269357   3.487   1.199   4.943  0.6213 -0.6047  0.9380
15956TIP3   OH269358   1.407   3.625  11.857  0.6968 -0.3190  0.4674
15956TIP3    H169359   1.488   3.675  11.851  0.1664  0.5545  0.3871
15956TIP3    H269360   1.342   3.688  11.889  0.0192 -0.9707  0.4078
15957TIP3   OH269361   6.994   2.242   3.180  0.9531  0.1419 -0.3904
15957TIP3    H169362   6.948   2.189   3.114 -0.1648  1.1110 -0.4199
15957TIP3    H269363   7.001   2.183   3.256 -3.6879  0.9385  0.9923
15958TIP3   OH269364   4.417   7.094  12.126  0.3734 -0.2640  0.1525
15958TIP3    H169365   4.364   7.170  12.104  0.9408  0.0513 -0.1568
15958TIP3    H269366   4.390   7.070  12.215  0.3711  0.4625  0.3527
15959TIP3   OH269367   1.719   4.555   4.229 -0.1304 -0.1463  0.4300
15959TIP3    H169368   1.804   4.550   4.272 -1.0331 -0.7274  2.2512
15959TIP3    H269369   1.680   4.636   4.263 -0.6428 -0.3291  0.2902
15960TIP3   OH269370   2.243   5.636   5.074 -0.2330  0.0854  0.2680
15960TIP3    H169371   2.308   5.668   5.011  1.7448  0.0324  2.1707
15960TIP3    H269372   2.249   5.540   5.067  0.7541  0.0610  1.2269
15961TIP3   OH269373   1.644   0.500  11.958  0.1829 -0.2823  0.5232
15961TIP3    H169374   1.625   0.508  11.865 -0.2094  0.3571  0.6557
15961TIP3    H269375   1.564   0.464  11.996  0.7521 -1.6796  0.4439
15962TIP3   OH269376   4.834   4.428   2.262 -0.0841 -0.1954 -0.2395
15962TIP3    H169377   4.873   4.360   2.318 -0.9033 -0.9432 -0.5558
15962TIP3    H269378   4.886   4.424   2.181  0.0382 -0.2707 -0.1574
15963TIP3   OH269379   4.380   4.407   4.741 -0.0516  0.4928 -0.8427
15963TIP3    H169380   4.293   4.420   4.778  0.2531  1.0602 -0.3167
15963TIP3    H269381   4.372   4.327   4.689 -0.7294  0.2046 -0.3090
15964TIP3   OH269382   4.169   3.540   5.000  0.8743 -0.1713 -0.2142
15964TIP3    H169383   4.148   3.623   4.958 -1.1488  0.0821  1.1577
15964TIP3    H269384   4.148   3.474   4.934  0.7646  0.3313 -0.6913
15965TIP3   OH269385   1.589   4.452  10.423  0.3927  0.2351 -0.3901
15965TIP3    H169386   1.621   4.431  10.511  0.4266 -0.6906 -0.6071
15965TIP3    H269387   1.614   4.543  10.409 -0.1759  0.5987  0.8116
15966TIP3   OH269388   1.815   4.166   5.427  0.1840  0.0357  0.0970
15966TIP3    H169389   1.732   4.140   5.467 -0.3040 -1.0559 -1.5449
15966TIP3    H269390   1.881   4.119   5.478 -0.1568  0.9955  1.4860
15967TIP3   OH269391   1.305   1.354  11.266  0.2001  0.0345 -0.4326
15967TIP3    H169392   1.256   1.436  11.273  0.0132 -0.1123  0.0545
15967TIP3    H269393   1.279   1.317  11.182 -0.2796  0.1201 -0.3275
15968TIP3   OH269394   4.144   1.397   2.491  0.4150 -0.4085 -0.5119
15968TIP3    H169395   4.145   1.475   2.546 -2.4278 -1.9103  1.9114
15968TIP3    H269396   4.216   1.343   2.524  2.1185  0.8388 -1.9222
15969TIP3   OH269397   0.488   5.318  14.054 -0.1198 -0.3435  0.4002
15969TIP3    H169398   0.428   5.390  14.033  1.0255  0.8106  1.0092
15969TIP3    H269399   0.481   5.260  13.978  0.4899  1.4559 -1.1179
15970TIP3   OH269400   6.067   3.132  15.229  0.0455 -0.0067  0.6591
15970TIP3    H169401   6.112   3.201  15.180 -0.6168  0.5048  0.7535
15970TIP3    H269402   6.114   3.052  15.206  0.1670  0.3200 -0.3013
15971TIP3   OH269403   1.429   1.075   5.324 -0.5725  0.2482 -0.0066
15971TIP3    H169404   1.480   1.070   5.404 -0.3827 -2.7472 -0.1878
15971TIP3    H269405   1.423   1.169   5.304  2.8024  0.8765  1.2756
15972TIP3   OH269406   3.283   1.594   0.903 -0.0761  0.3782 -0.3370
15972TIP3    H169407   3.230   1.634   0.972  0.1030 -1.5815  1.0032
15972TIP3    H269408   3.373   1.601   0.934 -0.0345 -0.9645 -0.0754
15973TIP3   OH269409   2.649   0.877   4.225 -0.2017  0.0784  0.7816
15973TIP3    H169410   2.632   0.965   4.191 -0.7715  0.2298  1.4421
15973TIP3    H269411   2.637   0.819   4.150  0.0805  0.5476  0.3648
15974TIP3   OH269412   2.605   2.061   1.345 -0.2672 -0.2743  0.6072
15974TIP3    H169413   2.647   2.129   1.293 -1.9283 -0.3215 -0.9075
15974TIP3    H269414   2.595   2.099   1.432  2.2303 -0.0368  0.8508
15975TIP3   OH269415   7.159   1.676  13.247 -0.1523 -0.1331  0.1086
15975TIP3    H169416   7.091   1.705  13.186 -0.0406  1.3233  0.6311
15975TIP3    H269417   7.162   1.745  13.314  0.4426 -1.1760  1.1973
15976TIP3   OH269418   5.370   4.559   2.645  0.5658  0.6347  0.4281
15976TIP3    H169419   5.398   4.607   2.723  1.2095  0.3681  0.3641
15976TIP3    H269420   5.325   4.482   2.679  3.1901 -0.9219  0.6177
15977TIP3   OH269421   6.405   0.928   1.688 -0.0821  0.0267  0.2280
15977TIP3    H169422   6.341   0.984   1.733 -1.9498 -2.4121  0.8651
15977TIP3    H269423   6.468   0.904   1.756  0.7297  1.2616 -0.0493
15978TIP3   OH269424   6.292   6.101   1.457 -0.5650  0.5679  0.2397
15978TIP3    H169425   6.370   6.063   1.416 -0.1165  0.8164  0.8535
15978TIP3    H269426   6.323   6.181   1.498 -1.6042  1.9132 -1.4934
15979TIP3   OH269427   7.196   2.511   1.145  0.3448  0.1200 -0.0002
15979TIP3    H169428   7.279   2.504   1.098 -0.0569  1.9385 -1.0902
15979TIP3    H269429   7.162   2.596   1.119 -1.6009 -0.3518  0.8795
15980TIP3   OH269430   2.995   1.649   0.983  0.3788 -0.4052  0.3824
15980TIP3    H169431   2.945   1.677   0.906 -1.6138 -2.3113  0.8770
15980TIP3    H269432   2.980   1.554   0.988  0.5627 -0.3647  3.0171
15981TIP3   OH269433   1.919   6.905   3.360 -0.5342  0.0389 -0.0433
15981TIP3    H169434   1.956   6.841   3.420 -0.6659  1.2432  1.3812
15981TIP3    H269435   1.969   6.985   3.377 -0.1536  0.2656 -1.9967
15982TIP3   OH269436   2.069   6.934   2.672  0.2275 -0.0423 -0.3629
15982TIP3    H169437   2.030   7.018   2.646 -0.9059 -0.6684 -0.7772
15982TIP3    H269438   1.993   6.876   2.681  1.0927 -1.3355 -1.2340
15983TIP3   OH269439   2.006   5.482   0.279 -0.5890  0.2901  0.6736
15983TIP3    H169440   1.925   5.522   0.248 -1.9094 -1.6514  1.4362
15983TIP3    H269441   2.075   5.539   0.246 -2.1224  0.7875 -1.9396
15984TIP3   OH269442   0.718   3.529  12.659  0.7741  0.0752 -0.2702
15984TIP3    H169443   0.729   3.548  12.566 -3.6180  1.2632 -0.7633
15984TIP3    H269444   0.712   3.434  12.663  2.5520 -0.0986 -0.8948
15985TIP3   OH269445   4.550   1.662   1.643  0.1747  0.4762 -0.3207
15985TIP3    H169446   4.560   1.598   1.714 -0.1924  0.8992  0.1190
15985TIP3    H269447   4.625   1.721   1.653 -0.4739  1.2112  0.4381
15986TIP3   OH269448   4.533   1.766   4.326 -0.3511  0.3140  0.4231
15986TIP3    H169449   4.516   1.821   4.403 -0.9229  2.2067 -0.9712
15986TIP3    H269450   4.626   1.745   4.331 -0.6374 -0.7428  2.3016
15987TIP3   OH269451   4.080   7.204  15.406  0.2902  0.4387 -0.1902
15987TIP3    H169452   4.017   7.248  15.350  0.4885 -0.2826 -1.0000
15987TIP3    H269453   4.160   7.257  15.398  0.2467  0.4742 -0.4045
15988TIP3   OH269454   6.273   2.294   0.690 -0.5456  0.2952 -0.7103
15988TIP3    H169455   6.280   2.199   0.702  1.2336  0.6621  2.2448
15988TIP3    H269456   6.182   2.314   0.710 -0.7076 -0.6899 -0.4109
15989TIP3   OH269457   1.434   2.937  14.700  0.0362  0.1655  0.3053
15989TIP3    H169458   1.497   2.913  14.768  0.0992  1.5303  0.7382
15989TIP3    H269459   1.431   2.860  14.642  0.6200 -0.6724  1.3612
15990TIP3   OH269460   1.659   2.174  12.905 -0.0079 -0.3153 -0.0918
15990TIP3    H169461   1.564   2.166  12.917 -0.2095 -0.3435 -1.4935
15990TIP3    H269462   1.695   2.166  12.993 -0.9149 -5.6693  0.1622
15991TIP3   OH269463   6.860   4.586   3.745  1.0259  0.1573 -0.7224
15991TIP3    H169464   6.851   4.533   3.825  1.8946 -2.6513 -2.3461
15991TIP3    H269465   6.774   4.625   3.732  0.4232 -0.5921  0.7653
15992TIP3   OH269466   5.410   2.768   5.875 -0.6087  0.0395 -0.1956
15992TIP3    H169467   5.475   2.708   5.840 -1.8153 -2.1710  1.0969
15992TIP3    H269468   5.452   2.808   5.951 -0.7667 -1.5431  0.7667
15993TIP3   OH269469   5.905   4.392   0.503  0.5691 -0.7101 -0.6571
15993TIP3    H169470   5.820   4.432   0.523  0.8352  0.7997 -2.2990
15993TIP3    H269471   5.887   4.333   0.430  1.0882  0.6000 -1.9047
15994TIP3   OH269472   4.242   6.875   3.300  0.2457 -0.5391  0.1449
15994TIP3    H169473   4.252   6.794   3.351  2.4370  0.6513  1.7442
15994TIP3    H269474   4.147   6.886   3.293 -0.1708 -1.5524  2.7745
15995TIP3   OH269475   4.161   2.029   2.518  0.2508  0.0684  0.8170
15995TIP3    H169476   4.097   1.958   2.518  0.3791 -0.0482  0.7076
15995TIP3    H269477   4.158   2.064   2.607 -0.7875  0.8213  0.5074
15996TIP3   OH269478   0.072   7.145  14.329 -0.6862  0.6009  0.5272
15996TIP3    H169479   0.024   7.094  14.394 -0.5619  1.7059  1.4986
15996TIP3    H269480   0.151   7.093  14.312  0.2679  1.2105  2.7514
15997TIP3   OH269481   1.170   0.537   9.493 -0.5675  0.4954 -0.1111
15997TIP3    H169482   1.238   0.603   9.482 -0.3681  0.3025 -0.0506
15997TIP3    H269483   1.199   0.463   9.439 -1.0334  0.6397 -0.5668
15998TIP3   OH269484   2.010   2.832  15.290  0.7731 -0.0997 -0.2015
15998TIP3    H169485   1.918   2.823  15.267  0.8912  2.0579 -1.9136
15998TIP3    H269486   2.032   2.752  15.337 -2.1333 -0.3699  0.8703
15999TIP3   OH269487   6.890   4.200  13.228 -0.2966 -0.1427  0.7309
15999TIP3    H169488   6.945   4.216  13.304 -0.0649 -2.1309  1.0383
15999TIP3    H269489   6.950   4.201  13.154 -0.0418 -1.0102  0.9166
16000TIP3   OH269490   2.303   6.798   2.530  0.3199  0.3868 -0.4154
16000TIP3    H169491   2.228   6.844   2.568  1.0513 -0.6974  2.6503
16000TIP3    H269492   2.373   6.863   2.529 -0.2472  1.0229 -2.0368
16001TIP3   OH269493   0.031   4.254  14.586 -0.2414 -0.3475 -0.5504
16001TIP3    H169494   0.117   4.287  14.558  0.1636 -0.8531  0.0643
16001TIP3    H269495  -0.011   4.226  14.504  0.4902 -0.7945 -0.7884
16002TIP3   OH269496   4.239   5.898   5.682  0.1497 -0.2228  0.9456
16002TIP3    H169497   4.183   5.903   5.759 -1.9786  1.8460 -0.5811
16002TIP3    H269498   4.228   5.983   5.639  3.2817 -0.3120 -0.3223
16003TIP3   OH269499   6.573   5.902   4.932 -0.1299  0.0256  0.2162
16003TIP3    H169500   6.642   5.883   4.996 -0.5760 -1.8579  0.1806
16003TIP3    H269501   6.599   5.855   4.853 -0.6720  0.6002 -0.3226
16004TIP3   OH269502   2.503   0.823   2.302 -0.2163  0.0723  0.2422
16004TIP3    H169503   2.556   0.898   2.329  2.0009 -1.7867  1.4459
16004TIP3    H269504   2.556   0.779   2.235 -2.3831  0.5874 -1.9371
16005TIP3   OH269505   3.308   0.408  13.816 -0.1358 -0.5264  0.5304
16005TIP3    H169506   3.245   0.478  13.805  0.9160  0.5038  0.8867
16005TIP3    H269507   3.256   0.328  13.816 -1.5578  0.3575  1.9768
16006TIP3   OH269508   4.413   3.273   2.916  0.0530 -0.0177  0.7410
16006TIP3    H169509   4.478   3.246   2.851  0.7190 -0.5539  1.6063
16006TIP3    H269510   4.335   3.222   2.894 -0.3222  1.0776 -0.6842
16007TIP3   OH269511   0.721   4.997  15.290 -0.4289 -0.1313  0.5338
16007TIP3    H169512   0.706   4.990  15.196 -1.7018 -0.7004  0.7572
16007TIP3    H269513   0.690   5.084  15.313  2.9570  1.3902 -0.0596
16008TIP3   OH269514   0.995   4.447   2.302  0.1821 -0.1537 -0.3550
16008TIP3    H169515   1.066   4.511   2.304 -0.1910  0.2546 -0.2345
16008TIP3    H269516   0.934   4.476   2.369 -0.8253  0.3488 -1.4491
16009TIP3   OH269517   3.608   2.556   2.775  0.6169 -0.2438  0.0848
16009TIP3    H169518   3.522   2.595   2.792 -0.0985 -1.7501  0.1292
16009TIP3    H269519   3.610   2.479   2.833  2.1679 -0.0062  0.3741
16010TIP3   OH269520   5.045   0.299   5.197  0.2480 -0.2427 -0.6364
16010TIP3    H169521   5.086   0.223   5.156 -0.7056 -1.3899  0.4831
16010TIP3    H269522   4.954   0.273   5.212  0.6588 -0.1244  2.6895
16011TIP3   OH269523   6.243   6.111   4.078 -0.4159  0.5455 -0.5448
16011TIP3    H169524   6.188   6.106   4.156  0.8881 -0.9169  0.3416
16011TIP3    H269525   6.188   6.079   4.007 -0.3997 -2.0286  0.5251
16012TIP3   OH269526   0.223   5.715  12.280 -0.1058 -0.3259  0.3851
16012TIP3    H169527   0.275   5.634  12.278 -0.3964 -0.5043 -0.1986
16012TIP3    H269528   0.175   5.715  12.197  2.1667  1.9517 -1.0820
16013TIP3   OH269529   2.748   5.671   3.623  0.3431  0.3545  0.0268
16013TIP3    H169530   2.710   5.746   3.576 -0.7340 -1.0126 -1.3900
16013TIP3    H269531   2.690   5.659   3.699  0.4333  0.8526  0.1802
16014TIP3   OH269532   5.808   0.769   1.354  0.1626 -0.0124  0.0272
16014TIP3    H169533   5.817   0.825   1.277 -0.6998 -0.4301 -0.3946
16014TIP3    H269534   5.891   0.720   1.358  0.9304  1.2657  0.4108
16015TIP3   OH269535   4.941   1.192  13.885 -0.6698  0.3577  0.5488
16015TIP3    H169536   5.004   1.197  13.813 -0.4838  0.1076  0.6955
16015TIP3    H269537   4.867   1.143  13.849 -1.4283  1.8919 -0.0985
16016TIP3   OH269538   1.162   5.614   2.503  0.3439 -0.3014 -0.0816
16016TIP3    H169539   1.196   5.538   2.550  0.6055  1.3858  2.6828
16016TIP3    H269540   1.075   5.628   2.540 -0.8816 -0.8300 -2.5791
16017TIP3   OH269541   0.121   7.105   2.494  0.1009 -0.4551 -0.8340
16017TIP3    H169542   0.038   7.072   2.460  0.0651 -1.7311  0.4279
16017TIP3    H269543   0.133   7.061   2.578  1.1589  1.1020 -0.1148
16018TIP3   OH269544   6.680   0.677   4.620 -0.3548  0.2553 -0.1724
16018TIP3    H169545   6.672   0.606   4.684  0.1015 -0.4940 -0.9337
16018TIP3    H269546   6.739   0.739   4.662  1.1858 -0.9550 -0.4730
16019TIP3   OH269547   0.879   4.831  15.132 -0.3409  0.2850 -0.4242
16019TIP3    H169548   0.818   4.856  15.202 -0.3803 -0.2284 -0.2763
16019TIP3    H269549   0.829   4.845  15.052 -0.5836  0.0727 -0.3122
16020TIP3   OH269550   2.251   0.218   0.023 -0.0544 -0.1994  0.3290
16020TIP3    H169551   2.293   0.242  -0.059  2.1401 -1.7880  0.8774
16020TIP3    H269552   2.315   0.239   0.091 -1.1403 -0.4305  1.4847
16021TIP3   OH269553   3.468   3.098   5.438 -1.0907  0.0872 -0.1461
16021TIP3    H169554   3.479   3.129   5.527  0.7186 -1.4749  0.2486
16021TIP3    H269555   3.556   3.104   5.399 -1.4025 -1.1330 -1.1255
16022TIP3   OH269556   3.966   3.602   4.788  0.3918  0.3484  0.4180
16022TIP3    H169557   3.976   3.508   4.800  1.2285  0.3374 -0.2837
16022TIP3    H269558   3.914   3.611   4.708 -1.0928  0.4795  1.3610
16023TIP3   OH269559   5.453   5.641   3.097 -0.2604  0.6333 -0.2205
16023TIP3    H169560   5.518   5.574   3.073 -2.6766 -0.8677 -3.3538
16023TIP3    H269561   5.390   5.594   3.152 -0.1554  1.3419  0.5245
16024TIP3   OH269562   0.747   3.558   0.094 -0.5362 -0.0364  0.1940
16024TIP3    H169563   0.678   3.566   0.160 -2.0932  1.5680 -1.4826
16024TIP3    H269564   0.796   3.640   0.101  0.3482 -0.5832  0.4561
16025TIP3   OH269565   7.102   3.898   3.476 -0.5055 -0.0294 -0.5151
16025TIP3    H169566   7.109   3.993   3.486 -3.0852  0.0288  2.0375
16025TIP3    H269567   7.184   3.864   3.513 -1.0648  1.1465  2.0271
16026TIP3   OH269568   2.659   3.241   0.185 -0.1310  0.0922 -0.0056
16026TIP3    H169569   2.587   3.201   0.137 -0.9966  0.1174  1.2129
16026TIP3    H269570   2.646   3.336   0.175  0.7835  0.1050 -1.2601
16027TIP3   OH269571   3.739   0.969  13.861  0.6757  0.3441  0.7088
16027TIP3    H169572   3.792   0.979  13.782 -1.0572 -1.2880 -0.7663
16027TIP3    H269573   3.676   1.041  13.857  0.1726 -0.1122  0.2167
16028TIP3   OH269574   0.906   1.472   0.772 -0.3087  0.0263  0.4307
16028TIP3    H169575   0.810   1.465   0.770 -0.5464  2.2653  1.1082
16028TIP3    H269576   0.926   1.496   0.863  0.9267 -0.5754  0.3335
16029TIP3   OH269577   3.081   2.352  14.299  0.8719  0.2905  0.2977
16029TIP3    H169578   3.148   2.402  14.344  2.0284 -1.1325  0.2238
16029TIP3    H269579   3.123   2.269  14.277 -0.3445  0.0627 -1.4078
16030TIP3   OH269580   3.493   3.013  12.269  0.6836  0.4025 -0.5274
16030TIP3    H169581   3.488   3.024  12.174  0.0215  1.2941 -0.4109
16030TIP3    H269582   3.450   3.092  12.303 -1.2623 -1.0092  0.4833
16031TIP3   OH269583   0.842   5.126   3.575 -0.1411 -0.0034  0.4780
16031TIP3    H169584   0.807   5.038   3.558  0.1018 -0.2560  1.2609
16031TIP3    H269585   0.783   5.184   3.526 -0.2196 -0.6037 -0.1655
16032TIP3   OH269586   4.224   5.856   1.448  0.4709 -1.0835 -0.5908
16032TIP3    H169587   4.147   5.909   1.428 -0.0963 -0.7972  1.9563
16032TIP3    H269588   4.188   5.771   1.475  1.0223 -0.9930  0.4888
16033TIP3   OH269589   1.967   4.003   1.516 -0.2510 -0.3177 -0.6199
16033TIP3    H169590   2.042   3.948   1.537  0.6571  0.8523 -0.7001
16033TIP3    H269591   1.967   4.071   1.583 -0.9899 -0.0547 -0.8730
16034TIP3   OH269592   7.098   1.979   1.603 -0.2921  0.1418 -0.2797
16034TIP3    H169593   7.120   2.070   1.582  1.3437 -0.3058 -0.6870
16034TIP3    H269594   7.165   1.952   1.666  0.1686 -1.2157 -1.2969
16035TIP3   OH269595   6.509   0.536   3.473 -0.0020  0.0069 -0.7293
16035TIP3    H169596   6.437   0.494   3.521 -1.8563  2.7882 -0.8443
16035TIP3    H269597   6.467   0.582   3.401  1.4808  3.4059  0.3150
16036TIP3   OH269598   6.906   1.698  12.188 -0.3340  0.2572  0.4501
16036TIP3    H169599   6.833   1.709  12.127  0.5587  0.0723 -0.6704
16036TIP3    H269600   6.936   1.608  12.175  0.7317  0.6375  0.1626
16037TIP3   OH269601   5.761   4.822   2.125  0.6403 -0.0141 -0.2225
16037TIP3    H169602   5.666   4.819   2.112  0.6096  1.0014 -0.2901
16037TIP3    H269603   5.783   4.734   2.158 -0.3217 -0.2472 -0.1627
16038TIP3   OH269604   2.480   1.756   3.969  0.0681  0.8133 -0.2949
16038TIP3    H169605   2.456   1.702   3.893 -0.6803 -0.6320  0.9012
16038TIP3    H269606   2.530   1.697   4.025  0.2271  1.7172  0.5382
16039TIP3   OH269607   3.621   6.494  14.197  0.4145  0.2474  0.2407
16039TIP3    H169608   3.702   6.477  14.245  0.4944 -0.6973 -0.2084
16039TIP3    H269609   3.556   6.510  14.265  0.8175  0.2596  0.6265
16040TIP3   OH269610   0.233   5.657   3.076  0.1061  0.2089  0.3477
16040TIP3    H169611   0.249   5.737   3.025  0.6643 -0.0876  0.0520
16040TIP3    H269612   0.147   5.672   3.116 -0.7286  0.1317 -1.3141
16041TIP3   OH269613   1.956   2.172   0.831  0.2707 -0.7195 -0.3872
16041TIP3    H169614   1.872   2.203   0.798 -0.1555 -2.1420 -0.7171
16041TIP3    H269615   2.002   2.139   0.753  0.1709 -2.0657  0.1029
16042TIP3   OH269616   5.797   0.104   1.861  0.1298 -0.0016  0.5173
16042TIP3    H169617   5.734   0.116   1.790 -0.5551  1.4112  1.3253
16042TIP3    H269618   5.743   0.100   1.940  1.0179  0.8409  1.1834
16043TIP3   OH269619   3.054   1.728   5.168 -0.0463  0.2774 -0.0091
16043TIP3    H169620   3.028   1.726   5.260  1.6065 -2.1309  0.5257
16043TIP3    H269621   3.150   1.724   5.170  0.0162 -0.1791 -1.8316
16044TIP3   OH269622   2.825   6.436  13.367 -0.1813 -0.1387  0.0281
16044TIP3    H169623   2.762   6.413  13.435  0.4716  1.1624  1.0969
16044TIP3    H269624   2.770   6.466  13.294 -0.8443 -0.5577  0.3403
16045TIP3   OH269625   3.890   6.629   1.101  0.8022  0.4955 -0.1329
16045TIP3    H169626   3.868   6.540   1.131  0.1256  1.1380  1.3592
16045TIP3    H269627   3.920   6.674   1.179 -2.1329  2.5905 -0.0800
16046TIP3   OH269628   7.077   0.928  14.189 -0.1092  0.3437 -0.0102
16046TIP3    H169629   6.996   0.934  14.138  0.4582 -1.0330 -1.1467
16046TIP3    H269630   7.051   0.885  14.271 -0.7593  1.1624  0.2221
16047TIP3   OH269631   2.238   5.487   1.636 -0.2614 -0.1283  0.2051
16047TIP3    H169632   2.332   5.484   1.656 -0.3109 -0.1404  0.4327
16047TIP3    H269633   2.203   5.404   1.668 -0.7395  0.7599  2.0958
16048TIP3   OH269634   4.158   5.039  13.358  0.1453  0.6354  0.3168
16048TIP3    H169635   4.086   5.005  13.412 -0.1120 -0.0413 -0.4218
16048TIP3    H269636   4.219   4.965  13.351 -0.2084  0.4317 -0.9515
16049TIP3   OH269637   2.403   6.466   5.783  0.1218  0.1476 -0.5919
16049TIP3    H169638   2.416   6.560   5.788  1.3860 -0.0122 -0.6578
16049TIP3    H269639   2.491   6.428   5.790 -0.3657 -1.0288 -0.4934
16050TIP3   OH269640   0.171   6.589   5.769  0.0692 -0.1413  0.2154
16050TIP3    H169641   0.249   6.644   5.776  0.2349 -0.2437 -0.6485
16050TIP3    H269642   0.203   6.505   5.736 -0.1496 -0.8610  1.7733
16051TIP3   OH269643   1.311   1.841   1.238  0.0504 -0.3261  0.0973
16051TIP3    H169644   1.270   1.803   1.160  1.3515 -0.7130 -0.4414
16051TIP3    H269645   1.378   1.900   1.203  1.7986 -1.7496  0.8564
16052TIP3   OH269646   0.427   6.599  14.605 -0.9781  0.6946  0.3592
16052TIP3    H169647   0.367   6.534  14.643 -0.0028  0.7191  2.0317
16052TIP3    H269648   0.511   6.581  14.648 -0.3952  2.2785 -0.0714
16053TIP3   OH269649   5.053   5.156   4.898 -0.0818 -0.6864  0.0291
16053TIP3    H169650   5.049   5.210   4.819  0.9006  0.9404  1.0217
16053TIP3    H269651   5.048   5.066   4.866 -1.9116 -0.0632 -1.7002
16054TIP3   OH269652   1.923   2.957   4.559 -0.4878  0.1718 -0.2548
16054TIP3    H169653   1.832   2.983   4.573  0.1458  2.5176 -0.0097
16054TIP3    H269654   1.940   2.978   4.467 -0.4013 -1.0317 -0.5261
16055TIP3   OH269655   2.571   4.741   4.154 -0.1722 -0.3208  0.6259
16055TIP3    H169656   2.607   4.830   4.162 -1.1841  0.2650 -0.7329
16055TIP3    H269657   2.593   4.715   4.065 -2.8467  0.0146 -0.2272
16056TIP3   OH269658   3.476   5.686   2.449  0.7339 -0.4057  0.0602
16056TIP3    H169659   3.511   5.656   2.533 -1.0362  1.5415  1.5965
16056TIP3    H269660   3.463   5.606   2.399 -0.0344 -1.8826  2.4359
16057TIP3   OH269661   4.077   6.051   0.792  0.1999  0.0707  0.4890
16057TIP3    H169662   4.001   6.080   0.741  1.0330 -1.7800 -1.9815
16057TIP3    H269663   4.065   5.957   0.801  1.0632  0.0772  2.1600
16058TIP3   OH269664   0.357   0.403   0.716  0.5322 -0.0489 -0.1273
16058TIP3    H169665   0.282   0.399   0.776  1.1564 -0.9882  0.6257
16058TIP3    H269666   0.330   0.464   0.648 -0.7796 -0.0895  0.3238
16059TIP3   OH269667   0.979   3.398   4.358 -0.2090 -0.1910  0.2485
16059TIP3    H169668   1.050   3.337   4.375  0.0686  0.0489 -0.0406
16059TIP3    H269669   0.974   3.403   4.262  0.1557  0.6878  0.2699
16060TIP3   OH269670   6.146   0.679   4.823  0.1350  0.0241 -0.3477
16060TIP3    H169671   6.137   0.723   4.739  2.2565 -1.7959 -1.6504
16060TIP3    H269672   6.215   0.727   4.869  0.4436 -0.2034 -0.5641
16061TIP3   OH269673   0.343   0.824   4.313  0.5072  0.4762  0.5475
16061TIP3    H169674   0.319   0.753   4.254 -0.2584  0.3834  0.9514
16061TIP3    H269675   0.422   0.861   4.275  1.0325 -0.7075  0.4283
16062TIP3   OH269676   4.752   2.906   3.938  0.7564  0.5599 -1.0358
16062TIP3    H169677   4.844   2.922   3.958  0.6312 -1.0643  1.3266
16062TIP3    H269678   4.726   2.837   3.999 -1.8350  0.3968 -2.1762
16063TIP3   OH269679   6.042   4.753   0.513  0.4652 -0.2896 -0.1542
16063TIP3    H169680   5.958   4.748   0.467  0.4032  1.8571 -0.3885
16063TIP3    H269681   6.021   4.793   0.597  1.2806  0.7263 -0.4040
16064TIP3   OH269682   5.297   0.007   5.298 -0.2692  0.2373 -0.2501
16064TIP3    H169683   5.257   0.007   5.385  0.0769 -3.6708  0.0789
16064TIP3    H269684   5.385   0.041   5.312 -1.0628  2.2250  0.3156
16065TIP3   OH269685   0.125   5.455  15.252  0.2673 -0.2419  0.4792
16065TIP3    H169686   0.066   5.461  15.327  0.3491 -2.6536  0.8075
16065TIP3    H269687   0.088   5.515  15.188 -1.8435 -0.7517  1.1416
16066TIP3   OH269688   4.109   0.308  12.853 -0.5013  0.1882 -0.2880
16066TIP3    H169689   4.140   0.226  12.815  1.5118 -0.1011  1.7726
16066TIP3    H269690   4.157   0.376  12.806 -1.6227  0.1912 -1.4883
16067TIP3   OH269691   4.989   2.001   4.781  0.9850 -0.3429 -0.1139
16067TIP3    H169692   4.991   1.971   4.872  2.2732 -0.3607 -0.1344
16067TIP3    H269693   4.896   2.018   4.764  0.9153  2.0403  1.9960
16068TIP3   OH269694   0.401   3.662   1.641 -0.4270  0.1403  0.1165
16068TIP3    H169695   0.377   3.576   1.605 -2.2951 -0.4626  2.5696
16068TIP3    H269696   0.337   3.722   1.603 -0.5869  0.0212  0.1935
16069TIP3   OH269697   4.749   2.187   3.788 -0.1284 -0.1335 -0.0568
16069TIP3    H169698   4.739   2.093   3.799 -0.2703 -0.2528 -1.1399
16069TIP3    H269699   4.790   2.197   3.702 -1.0549  0.8382 -0.3985
16070TIP3   OH269700   5.118   0.777   2.725 -0.4422  0.4334 -0.2915
16070TIP3    H169701   5.051   0.709   2.715  0.5355 -0.5421 -0.4027
16070TIP3    H269702   5.124   0.816   2.638 -2.1696  1.8263  0.1596
16071TIP3   OH269703   6.680   5.137   3.001 -0.2071  0.4559 -0.5565
16071TIP3    H169704   6.674   5.049   3.039  0.1567  0.9246  0.6410
16071TIP3    H269705   6.773   5.149   2.983 -0.2461  0.6256 -0.6450
16072TIP3   OH269706   2.390   6.262   4.867  0.3549 -0.0916  0.2114
16072TIP3    H169707   2.461   6.199   4.860  0.6691  0.3898 -1.5689
16072TIP3    H269708   2.416   6.321   4.938  1.2207 -0.5291  0.2642
16073TIP3   OH269709   0.838   2.187   0.203  0.7729  0.1141  0.4009
16073TIP3    H169710   0.833   2.115   0.141  0.4134  1.0952 -0.7364
16073TIP3    H269711   0.747   2.215   0.214  0.6070 -0.9567  2.5358
16074TIP3   OH269712   6.442   1.790   4.916  0.4683 -0.0439 -0.1586
16074TIP3    H169713   6.537   1.804   4.908  0.7060 -1.7516 -0.7852
16074TIP3    H269714   6.412   1.860   4.973  2.2649  0.0152  0.7755
16075TIP3   OH269715   2.296   1.039   3.557 -0.3299  0.4359  0.4149
16075TIP3    H169716   2.271   0.959   3.512 -0.8324  2.1586 -2.6120
16075TIP3    H269717   2.213   1.072   3.594 -0.6411  0.9195 -0.6943
16076TIP3   OH269718   0.335   1.838   5.009  0.3597 -0.0853  0.6336
16076TIP3    H169719   0.383   1.921   5.010  0.6287 -0.2422  0.8977
16076TIP3    H269720   0.399   1.773   5.037  0.6808 -0.6604 -1.2684
16077TIP3   OH269721   4.844   0.686   4.362 -0.2843  0.5517 -0.2253
16077TIP3    H169722   4.915   0.700   4.425 -0.2133  0.5471 -0.3040
16077TIP3    H269723   4.889   0.670   4.279 -0.3414 -0.5177 -0.0658
16078TIP3   OH269724   1.086   4.667   3.914  0.4056 -0.5106  0.3847
16078TIP3    H169725   1.086   4.593   3.975  0.7889  0.5437  1.7205
16078TIP3    H269726   1.177   4.672   3.883  0.6248 -0.0139  1.0722
16079TIP3   OH269727   1.710   6.326   4.068  0.2119 -0.3214  0.6110
16079TIP3    H169728   1.741   6.388   4.133  2.2168 -0.3135 -0.2593
16079TIP3    H269729   1.789   6.277   4.043 -0.6404 -0.8339 -1.2381
16080TIP3   OH269730   2.000   5.937  14.040  0.1140 -0.0822 -0.5176
16080TIP3    H169731   1.940   5.992  14.092 -0.0132 -1.6437  1.0849
16080TIP3    H269732   1.947   5.909  13.966 -1.4985 -2.0198  1.2329
16081TIP3   OH269733   6.836   6.435   5.305 -0.5851 -0.7520 -0.4280
16081TIP3    H169734   6.900   6.499   5.273 -1.6203 -0.0807 -1.2249
16081TIP3    H269735   6.831   6.451   5.399  0.1943 -0.6162 -0.4021
16082TIP3   OH269736   0.212   6.764  14.876 -0.2977  0.4216 -0.1732
16082TIP3    H169737   0.196   6.767  14.782 -1.2344  1.3683  0.0000
16082TIP3    H269738   0.249   6.850  14.897  1.1642 -0.2430  0.1332
16083TIP3   OH269739   0.269   6.139  12.704  0.7422  0.0797 -0.3666
16083TIP3    H169740   0.350   6.137  12.653  1.4518 -1.4648  0.7255
16083TIP3    H269741   0.298   6.147  12.795 -0.1545 -2.4391  0.2299
16084TIP3   OH269742   2.634   3.471   5.549 -0.0982  0.3533 -0.5539
16084TIP3    H169743   2.661   3.550   5.502  0.0957  0.6064 -0.0209
16084TIP3    H269744   2.553   3.497   5.594 -0.3996  0.0494 -0.9099
16085TIP3   OH269745   6.388   6.163  14.450 -0.5942 -0.1601  0.7615
16085TIP3    H169746   6.385   6.197  14.539 -0.6957  0.6072  0.4684
16085TIP3    H269747   6.301   6.182  14.414 -0.6404 -0.6934  0.5814
16086TIP3   OH269748   4.079   5.944   5.916 -0.4886  0.6069  0.3275
16086TIP3    H169749   4.063   5.879   5.985 -1.6774  0.4006 -0.1201
16086TIP3    H269750   4.002   6.002   5.920 -0.5049  0.6662 -0.7488
16087TIP3   OH269751   2.560   6.833   1.979  0.2335  0.6010 -0.2168
16087TIP3    H169752   2.626   6.899   1.956  0.0513  0.5568 -0.8986
16087TIP3    H269753   2.575   6.762   1.916  1.9258 -1.0575  1.8962
16088TIP3   OH269754   0.160   3.791   1.544  0.5997 -0.1642  0.2082
16088TIP3    H169755   0.126   3.866   1.494 -2.7381 -0.3669  1.8716
16088TIP3    H269756   0.166   3.823   1.634  0.3416 -1.5018  0.7317
16089TIP3   OH269757   2.632   6.627   4.962 -0.0783 -0.2425  0.4604
16089TIP3    H169758   2.720   6.636   4.925 -0.5760  0.5025 -0.5944
16089TIP3    H269759   2.610   6.714   4.993 -1.3472  0.1604 -1.4323
16090TIP3   OH269760   1.713   5.275   2.870 -0.1518 -0.4841 -0.4082
16090TIP3    H169761   1.680   5.197   2.823 -0.6222  0.2828 -1.3929
16090TIP3    H269762   1.703   5.253   2.962 -2.6925 -0.6405 -0.6369
16091TIP3   OH269763   6.950   6.386   4.765  0.3395  0.0574  0.2578
16091TIP3    H169764   6.955   6.323   4.837 -1.5747 -2.4032 -1.5542
16091TIP3    H269765   6.856   6.395   4.748  0.4165  4.2431  0.9427
16092TIP3   OH269766   6.078   6.653   5.275 -0.8723  0.3469 -0.2448
16092TIP3    H169767   6.096   6.708   5.199  0.8037  2.9682  1.8434
16092TIP3    H269768   6.111   6.567   5.251  3.4656  1.9941 -1.2514
16093TIP3   OH269769   3.188   1.909   4.920  0.6792  0.4446  0.5162
16093TIP3    H169770   3.271   1.946   4.888  0.6146 -0.8406 -1.2864
16093TIP3    H269771   3.209   1.874   5.006  1.8908  0.6201  0.3099
16094TIP3   OH269772   3.880   5.688   1.314 -0.5408  0.2546  0.1285
16094TIP3    H169773   3.806   5.678   1.254 -0.2420 -1.3547 -0.0148
16094TIP3    H269774   3.957   5.690   1.256 -0.3571  0.2516  0.3740
16095TIP3   OH269775   7.107   5.748   3.769 -0.1657  0.6001 -0.3106
16095TIP3    H169776   7.056   5.668   3.781  0.1933  0.0077 -2.2651
16095TIP3    H269777   7.104   5.793   3.854 -0.6457 -1.3142  0.7261
16096TIP3   OH269778   5.097   4.075   9.558 -0.1080 -0.1828 -0.1265
16096TIP3    H169779   5.177   4.034   9.590  0.1644 -1.1446 -1.8921
16096TIP3    H269780   5.123   4.164   9.535 -0.0277  0.1268  1.1437
16097TIP3   OH269781   6.635   0.826   4.394 -0.2699 -0.3088 -0.4712
16097TIP3    H169782   6.663   0.751   4.446 -1.3153 -1.5824 -1.6914
16097TIP3    H269783   6.697   0.896   4.417 -0.4082 -0.9507  2.0848
16098TIP3   OH269784   2.376   2.992   4.703 -0.2229 -0.1914  0.5422
16098TIP3    H169785   2.423   2.964   4.782  2.1301 -0.2335 -0.7676
16098TIP3    H269786   2.331   2.914   4.672 -0.5729 -0.3510  1.4394
16099TIP3   OH269787   2.469   3.052   0.153  0.6479 -0.1986 -0.3745
16099TIP3    H169788   2.484   3.003   0.234 -3.2104 -1.5405 -0.3006
16099TIP3    H269789   2.486   2.988   0.084  0.0991 -0.2661 -0.4505
16100TIP3   OH269790   4.290   7.052   1.937 -0.7510  0.5162  0.0705
16100TIP3    H169791   4.316   6.962   1.955 -3.0061  0.0524  1.4452
16100TIP3    H269792   4.205   7.044   1.893 -0.7885  1.9526 -0.1582
16101TIP3   OH269793   3.187   6.077   3.892  0.1340  0.0171 -0.5183
16101TIP3    H169794   3.238   6.158   3.894  1.5957 -0.8311 -1.7403
16101TIP3    H269795   3.127   6.088   3.819 -1.8787  1.2065  1.2023
16102TIP3   OH269796   0.765   7.219   5.226 -0.2232  0.1350 -0.6440
16102TIP3    H169797   0.721   7.148   5.180  2.0047 -0.7046 -1.6211
16102TIP3    H269798   0.829   7.253   5.163  0.5739  1.2512  0.6943
16103TIP3   OH269799   6.607   1.455   1.973  0.1717 -0.0307 -0.3777
16103TIP3    H169800   6.653   1.484   2.052  3.2444 -2.4341 -1.0957
16103TIP3    H269801   6.568   1.371   1.997 -0.2256 -0.0274 -0.9867
16104TIP3   OH269802   4.197   1.290  14.061 -0.3412 -0.3296 -0.0794
16104TIP3    H169803   4.249   1.311  13.984 -0.4516  1.9721  0.4264
16104TIP3    H269804   4.220   1.357  14.126 -0.0608 -2.3263  2.0296
16105TIP3   OH269805   2.564   7.111  15.100  0.1276  0.1880 -0.9099
16105TIP3    H169806   2.540   7.020  15.121 -1.5879  0.3507 -1.9710
16105TIP3    H269807   2.655   7.105  15.070  0.3159 -1.0453 -0.1773
16106TIP3   OH269808   2.748   3.200   5.352  0.1043 -0.0649  0.4928
16106TIP3    H169809   2.782   3.113   5.372 -0.5415 -0.3023  0.5808
16106TIP3    H269810   2.778   3.217   5.263 -0.5490 -0.7830  0.1173
16107TIP3   OH269811   4.655   0.779  12.620 -0.3736  0.1183  0.2492
16107TIP3    H169812   4.672   0.715  12.551 -1.3487  0.6010 -0.4605
16107TIP3    H269813   4.599   0.733  12.682  1.9318 -0.9164  1.7196
16108TIP3   OH269814   7.130   5.888   5.984  0.1389 -0.0537  0.0194
16108TIP3    H169815   7.078   5.808   5.994  0.0655 -0.1668 -1.1254
16108TIP3    H269816   7.071   5.950   5.941  1.0949 -0.3817 -1.8570
16109TIP3   OH269817   4.318   0.186   4.727  0.3567 -0.7431  0.4316
16109TIP3    H169818   4.306   0.270   4.683  0.4372 -1.4031 -0.8978
16109TIP3    H269819   4.276   0.198   4.813 -3.1729 -0.5351 -1.1247
16110TIP3   OH269820   4.308   3.635   3.940 -0.1087  0.1067  0.2836
16110TIP3    H169821   4.221   3.674   3.951  0.8031  1.9886  1.3817
16110TIP3    H269822   4.355   3.660   4.020  1.2114 -1.5448  0.0635
16111TIP3   OH269823   5.556   5.691  14.480  0.7074 -0.1519  0.0763
16111TIP3    H169824   5.558   5.774  14.433  0.5996  0.5412  1.2781
16111TIP3    H269825   5.512   5.710  14.562 -1.1170 -1.8405 -0.4430
16112TIP3   OH269826   0.847   7.179  14.291  0.0253 -0.4753  0.0690
16112TIP3    H169827   0.770   7.151  14.340  0.7718 -1.5376  0.6848
16112TIP3    H269828   0.823   7.166  14.199 -1.2360  1.1435  0.1271
16113TIP3   OH269829   4.303   2.481   5.212 -0.0996  0.1262  0.3731
16113TIP3    H169830   4.274   2.431   5.288 -0.9123 -0.6230 -0.4128
16113TIP3    H269831   4.361   2.548   5.248  1.7897 -1.9544  1.3414
16114TIP3   OH269832   6.451   1.967   4.247  0.2163 -0.3416 -0.1077
16114TIP3    H169833   6.466   2.046   4.196  3.5119 -0.8427 -0.1122
16114TIP3    H269834   6.434   1.998   4.336 -1.0585  0.3765 -0.5700
16115TIP3   OH269835   6.728   0.151   3.229 -0.2067 -0.0241  0.3146
16115TIP3    H169836   6.765   0.169   3.143 -0.3011 -0.1055  0.2558
16115TIP3    H269837   6.790   0.091   3.270  1.5960  2.5401  1.6194
16116TIP3   OH269838   5.467   3.656   0.592  0.6851  0.0252  0.0140
16116TIP3    H169839   5.382   3.668   0.550  0.0994 -0.1582  1.1028
16116TIP3    H269840   5.454   3.581   0.649  1.3014  0.5672  0.8868
16117TIP3   OH269841   6.223   5.116  14.401  0.1487  0.0790 -0.5208
16117TIP3    H169842   6.282   5.170  14.347  0.7417 -0.7825 -0.7557
16117TIP3    H269843   6.281   5.063  14.454 -0.4405  0.7974  0.8825
16118TIP3   OH269844   6.415   0.143   0.667  0.9583 -0.4376  0.1522
16118TIP3    H169845   6.451   0.055   0.673  0.4332 -0.5869  1.2160
16118TIP3    H269846   6.415   0.176   0.757  1.9155  0.9649 -0.3152
16119TIP3   OH269847   1.442   5.073   1.334  0.2749  0.7188 -0.9011
16119TIP3    H169848   1.357   5.063   1.291 -0.5241  0.3807  0.6610
16119TIP3    H269849   1.482   4.987   1.328 -0.3967  0.3149  0.1060
16120TIP3   OH269850   0.527   4.400  13.085 -0.2657  0.5430  0.6651
16120TIP3    H169851   0.610   4.415  13.131  0.4230 -0.0757 -0.3428
16120TIP3    H269852   0.551   4.354  13.005 -1.6680 -0.3951  0.7324
16121TIP3   OH269853   6.912   6.129   2.596  0.7042 -0.3439 -0.1082
16121TIP3    H169854   6.945   6.043   2.574  1.2807  0.2478 -1.6833
16121TIP3    H269855   6.817   6.117   2.606  0.9342 -1.3851  1.0207
16122TIP3   OH269856   7.131   1.640   3.680  0.2731 -0.6603 -0.6581
16122TIP3    H169857   7.089   1.675   3.601  1.4411  2.5299 -0.0000
16122TIP3    H269858   7.057   1.621   3.738 -0.4821  1.3189 -0.8801
16123TIP3   OH269859   7.099   4.943   0.306 -0.9067 -0.0282  0.1403
16123TIP3    H169860   7.071   5.032   0.327 -0.6127 -0.1886  1.2892
16123TIP3    H269861   7.085   4.934   0.212 -0.3849  1.4242 -0.0852
16124TIP3   OH269862   2.145   2.061   4.100  0.7677  0.1160 -0.3832
16124TIP3    H169863   2.065   2.064   4.048  0.6964  1.5707 -0.2310
16124TIP3    H269864   2.120   2.095   4.186  1.3156 -0.4178 -0.0013
16125TIP3   OH269865   6.631   0.295   4.095  0.4634  0.5421  0.3205
16125TIP3    H169866   6.684   0.371   4.123  1.1094  0.0588  0.4309
16125TIP3    H269867   6.692   0.241   4.045  0.2062 -0.2650  0.8645
16126TIP3   OH269868   3.442   7.170  14.648 -0.3334 -0.4838  0.0668
16126TIP3    H169869   3.410   7.213  14.568  1.2100 -1.2038 -0.9840
16126TIP3    H269870   3.523   7.216  14.668 -0.4610 -0.6414  0.9497
16127TIP3   OH269871   4.614   3.165   0.532 -0.2156 -0.2297  0.1662
16127TIP3    H169872   4.598   3.232   0.598  0.8510  0.2314 -0.0236
16127TIP3    H269873   4.661   3.096   0.579  1.6442  0.6379 -0.3363
16128TIP3   OH269874   5.032   6.509  13.589  0.3959 -0.3361 -0.3770
16128TIP3    H169875   5.052   6.416  13.590  0.8082 -0.2505  0.2780
16128TIP3    H269876   5.006   6.529  13.679 -0.2485  0.0669 -0.6426
16129TIP3   OH269877   5.697   3.881   2.325  0.4369 -0.6770  0.5434
16129TIP3    H169878   5.647   3.896   2.244  0.2662 -1.9155  0.3871
16129TIP3    H269879   5.632   3.849   2.387  0.8297 -1.2273  0.6795
16130TIP3   OH269880   3.185   6.660   3.358 -0.3711  0.5529  0.1642
16130TIP3    H169881   3.217   6.749   3.371  1.3195  0.4591 -2.5287
16130TIP3    H269882   3.240   6.606   3.415  0.4129  0.9961 -0.1590
16131TIP3   OH269883   3.141   4.971   1.269  0.7431  0.4697  0.0355
16131TIP3    H169884   3.090   5.052   1.270  3.0592  2.0157  1.4395
16131TIP3    H269885   3.121   4.930   1.353 -0.1905 -0.3129 -0.5463
16132TIP3   OH269886   2.953   4.480   4.145  0.0677 -0.1481  0.0242
16132TIP3    H169887   2.941   4.391   4.179 -0.5633 -0.3193 -0.6268
16132TIP3    H269888   2.948   4.470   4.049  1.9870  0.2898 -0.1715
16133TIP3   OH269889   2.430   0.182   1.614 -0.0570  0.2428  0.2159
16133TIP3    H169890   2.475   0.248   1.666 -0.5717  0.7352  0.0464
16133TIP3    H269891   2.344   0.219   1.596 -0.7918 -0.9502  1.0727
16134TIP3   OH269892   1.416   2.958   3.391  0.2681  0.6777  0.2392
16134TIP3    H169893   1.509   2.949   3.369  0.2585  1.8513 -0.4051
16134TIP3    H269894   1.415   2.987   3.482  0.6212  2.0684 -0.1735
16135TIP3   OH269895   5.784   4.190   2.993 -0.4878 -0.3229  0.3550
16135TIP3    H169896   5.736   4.243   3.056 -2.0341  0.2964 -1.2463
16135TIP3    H269897   5.756   4.100   3.009 -1.5758 -0.0590 -0.0189
16136TIP3   OH269898   4.765   5.191   5.660  0.7049  0.3468  0.1927
16136TIP3    H169899   4.778   5.271   5.711  0.0801 -0.5837  1.8874
16136TIP3    H269900   4.678   5.200   5.621  1.7548  1.7220 -2.0731
16137TIP3   OH269901   2.646   0.908  14.766 -0.5367 -0.8188  0.2732
16137TIP3    H169902   2.570   0.893  14.710 -1.8950 -1.2153  2.1433
16137TIP3    H269903   2.644   0.837  14.829  0.7887 -0.2305  1.0199
16138TIP3   OH269904   3.876   2.359   1.430  0.2727 -0.4410 -0.3119
16138TIP3    H169905   3.875   2.336   1.337  1.4468  0.0138 -0.4527
16138TIP3    H269906   3.867   2.275   1.475 -0.2601 -0.6687 -0.8275
16139TIP3   OH269907   5.555   5.563   4.348 -0.3120  0.2177 -0.1104
16139TIP3    H169908   5.579   5.568   4.440 -0.2292  1.2129 -0.1779
16139TIP3    H269909   5.624   5.512   4.307  0.8150  1.5807  0.0061
16140TIP3   OH269910   5.026   3.817   1.695 -0.8400  0.1045 -0.0256
16140TIP3    H169911   4.931   3.819   1.681 -0.9093 -1.0056  0.1556
16140TIP3    H269912   5.044   3.893   1.750 -1.8580 -0.4711  1.1762
16141TIP3   OH269913   5.729   6.196   2.834  0.7898 -0.4558 -0.2745
16141TIP3    H169914   5.785   6.156   2.768 -0.0714  0.2711 -1.4709
16141TIP3    H269915   5.665   6.128   2.856  0.1965 -0.2363 -1.2641
16142TIP3   OH269916   5.858   6.867  14.136 -0.3288  0.1149  0.3490
16142TIP3    H169917   5.769   6.876  14.171 -0.1858  2.8327  0.2260
16142TIP3    H269918   5.905   6.944  14.170  1.5081 -0.3643 -0.9426
16143TIP3   OH269919   6.535   1.498   5.113 -0.5325  0.0335 -0.0281
16143TIP3    H169920   6.471   1.455   5.170 -0.3541 -0.4488 -0.1870
16143TIP3    H269921   6.508   1.474   5.024 -0.0757 -0.2653 -0.0940
16144TIP3   OH269922   2.585   1.949   3.569  0.1282  0.5683 -1.0678
16144TIP3    H169923   2.583   1.949   3.664 -1.7305  2.2317 -1.0296
16144TIP3    H269924   2.576   1.857   3.544  1.0185  0.0742  0.3453
16145TIP3   OH269925   0.157   3.747   1.022  0.4923  0.0196 -0.0702
16145TIP3    H169926   0.071   3.777   0.993  0.7934  0.6223 -0.3497
16145TIP3    H269927   0.142   3.711   1.109 -0.2366 -0.8583 -0.5361
16146TIP3   OH269928   0.693   6.358  11.962  0.3076  0.2731  0.6285
16146TIP3    H169929   0.701   6.301  11.885 -2.3694 -0.3271  0.6879
16146TIP3    H269930   0.707   6.299  12.037  2.9246  0.8593  0.7000
16147TIP3   OH269931   3.505   2.355   0.319  0.0997  0.3934  0.1650
16147TIP3    H169932   3.517   2.342   0.225 -0.4881 -1.8747  0.3593
16147TIP3    H269933   3.575   2.304   0.360  0.0706  0.9772  0.9776
16148TIP3   OH269934   5.424   6.408  11.993  1.0150 -0.3576 -0.1732
16148TIP3    H169935   5.373   6.379  11.917 -0.4556  0.6288  0.3971
16148TIP3    H269936   5.384   6.363  12.067 -0.0108  1.5399  0.4678
16149TIP3   OH269937   6.519   1.693   0.848 -0.3447  0.0926 -0.2274
16149TIP3    H169938   6.432   1.664   0.822 -0.8663 -0.9412  2.3799
16149TIP3    H269939   6.513   1.789   0.850 -1.7498  0.0068  0.8637
16150TIP3   OH269940   4.453   2.614   1.046 -0.5784  0.2486  0.3211
16150TIP3    H169941   4.534   2.658   1.072 -0.5156  0.4929 -0.2658
16150TIP3    H269942   4.394   2.627   1.119 -0.3609  0.7947  0.4046
16151TIP3   OH269943   4.589   5.383  13.987 -0.0985 -0.4625  0.0120
16151TIP3    H169944   4.545   5.337  14.059  0.3574 -0.1564  0.4975
16151TIP3    H269945   4.535   5.461  13.972  0.6010  0.2357  1.0295
16152TIP3   OH269946   6.112   3.140   0.955  1.2004  0.3848 -0.0844
16152TIP3    H169947   6.101   3.045   0.948  1.3459  0.3981 -0.4670
16152TIP3    H269948   6.137   3.154   1.047 -2.2412  0.3697  1.0230
16153TIP3   OH269949   3.588   2.411   2.547 -0.2221 -0.7723  0.1280
16153TIP3    H169950   3.572   2.469   2.622 -0.8572 -0.9296  0.1181
16153TIP3    H269951   3.680   2.386   2.556 -1.0330 -3.3540  2.6915
16154TIP3   OH269952   5.286   1.072   4.581  0.0244  0.6397 -0.1490
16154TIP3    H169953   5.266   1.151   4.631 -1.6131 -0.1091  0.4442
16154TIP3    H269954   5.215   1.065   4.517  1.4506  0.9308 -1.8499
16155TIP3   OH269955   4.731   6.954   3.048  0.1085  0.3973 -0.1853
16155TIP3    H169956   4.819   6.985   3.030  0.5703 -0.4714  0.5075
16155TIP3    H269957   4.678   6.990   2.976  1.0717  0.6521 -0.7913
16156TIP3   OH269958   6.748   6.171   1.596  0.0910  0.3598  0.2930
16156TIP3    H169959   6.744   6.083   1.557  0.5861  0.1335  0.7376
16156TIP3    H269960   6.673   6.217   1.558  0.8478  0.3277 -1.3352
16157TIP3   OH269961   6.473   3.081  12.310  0.1522  0.1516 -0.1187
16157TIP3    H169962   6.462   3.101  12.403  2.2073 -1.5567  0.5914
16157TIP3    H269963   6.445   3.160  12.265  1.6678  2.1113  2.1101
16158TIP3   OH269964   3.282   1.089   0.993 -0.0798 -0.1457  0.8171
16158TIP3    H169965   3.189   1.109   1.003  0.1932  1.5827  0.1867
16158TIP3    H269966   3.312   1.074   1.082 -0.8563 -0.2440  1.0755
16159TIP3   OH269967   3.829   1.117  12.015  0.2262 -0.0248  0.0478
16159TIP3    H169968   3.830   1.133  11.920 -2.7673 -0.1606 -0.0864
16159TIP3    H269969   3.741   1.085  12.033 -0.2174  2.5655  3.2968
16160TIP3   OH269970   2.063   5.036   0.837 -0.1824 -0.5971  0.0998
16160TIP3    H169971   1.975   5.022   0.870 -0.8605  0.3930 -1.1870
16160TIP3    H269972   2.090   5.120   0.875  0.6920 -1.4243  1.3996
16161TIP3   OH269973   0.969   6.644   1.337  0.3437 -0.0437 -0.5837
16161TIP3    H169974   1.026   6.596   1.277 -0.2524  0.7409 -1.7977
16161TIP3    H269975   0.883   6.601   1.328  0.6440 -1.0932  1.0910
16162TIP3   OH269976   0.650   6.106  14.873 -0.3266  0.1584 -0.1669
16162TIP3    H169977   0.620   6.156  14.798  1.2131 -1.1617 -1.7539
16162TIP3    H269978   0.578   6.046  14.892 -0.3473 -0.1785 -1.2449
16163TIP3   OH269979   0.949   2.027  15.102  0.3671  0.1874 -0.6062
16163TIP3    H169980   1.022   2.073  15.061 -0.6922 -0.9823 -4.1693
16163TIP3    H269981   0.968   1.935  15.087 -0.2315 -0.3212  1.4972
16164TIP3   OH269982   0.671   0.814   0.636  0.0934  0.5838 -0.4244
16164TIP3    H169983   0.720   0.791   0.715  2.7469  0.4549 -1.9722
16164TIP3    H269984   0.642   0.904   0.651 -0.3211  0.2161  1.0805
16165TIP3   OH269985   4.310   1.784   1.559  0.0546 -0.0219 -0.3413
16165TIP3    H169986   4.336   1.832   1.480 -0.2440  0.5779 -0.0829
16165TIP3    H269987   4.393   1.756   1.599  0.2358  0.3596 -0.4463
16166TIP3   OH269988   4.189   4.086  14.346 -0.0659 -0.2709  0.3185
16166TIP3    H169989   4.254   4.042  14.401  1.3914 -1.5510 -2.2678
16166TIP3    H269990   4.115   4.025  14.343  0.0427 -0.4102  0.4543
16167TIP3   OH269991   4.846   0.934   0.747  0.0023  0.2165 -0.4292
16167TIP3    H169992   4.917   0.998   0.750  0.2329  0.0083 -1.2680
16167TIP3    H269993   4.888   0.852   0.721 -0.3636 -0.1813  0.1986
16168TIP3   OH269994   3.642   6.097  11.956  0.7567 -0.5128  0.0602
16168TIP3    H169995   3.594   6.161  11.903  2.0683  1.2383  0.8532
16168TIP3    H269996   3.657   6.142  12.040  0.6273 -2.3799  1.1408
16169TIP3   OH269997   6.519   1.448   3.940  0.3409  0.4086  0.1111
16169TIP3    H169998   6.552   1.513   3.878 -1.6184  1.1911 -0.2089
16169TIP3    H269999   6.502   1.498   4.020  1.8080 -0.3751  0.9376
16170TIP3   OH270000   4.289   3.988   0.962 -0.2437  0.6203  0.4433
16170TIP3    H170001   4.210   4.041   0.973 -1.0840  0.0854 -2.3734
16170TIP3    H270002   4.263   3.919   0.902  1.3370 -1.9825  2.5300
16171TIP3   OH270003   6.422   0.982  10.240 -0.4119 -0.2036  0.1264
16171TIP3    H170004   6.482   0.907  10.239  0.3085  0.3213 -2.4931
16171TIP3    H270005   6.442   1.030  10.160 -2.0380  1.8804  0.8753
16172TIP3   OH270006   4.321   6.897   5.292 -0.0627 -0.4463 -0.1465
16172TIP3    H170007   4.405   6.852   5.295  0.2389  0.0617 -0.6862
16172TIP3    H270008   4.341   6.984   5.259 -0.4444  0.5798  2.1716
16173TIP3   OH270009   0.395   5.929  14.415 -0.7730  0.4966 -0.4754
16173TIP3    H170010   0.444   5.862  14.462 -0.4130  0.8633 -0.3199
16173TIP3    H270011   0.324   5.881  14.372 -1.1507  0.1715  0.4920
16174TIP3   OH270012   4.492   0.649  14.408  0.6209 -0.4020 -0.1825
16174TIP3    H170013   4.433   0.584  14.371  1.9216 -0.8195 -1.6360
16174TIP3    H270014   4.553   0.669  14.337  0.8240  1.7317  0.5184
16175TIP3   OH270015   2.285   5.264   4.507  0.0956  0.3394  0.5180
16175TIP3    H170016   2.358   5.218   4.549 -0.5912 -0.4039  0.9191
16175TIP3    H270017   2.246   5.316   4.577 -0.2007  0.1712  0.4795
16176TIP3   OH270018   0.301   0.844   1.454 -0.4965  0.2782 -0.4847
16176TIP3    H170019   0.220   0.831   1.503 -0.6401  0.1286 -0.7597
16176TIP3    H270020   0.302   0.773   1.390 -0.9636  1.2335 -1.5799
16177TIP3   OH270021   4.573   4.129   2.576 -0.4187 -0.4080 -0.4216
16177TIP3    H170022   4.487   4.130   2.617 -0.1288  1.2547  0.2329
16177TIP3    H270023   4.610   4.215   2.595  0.9212 -0.6501 -1.6926
16178TIP3   OH270024   3.026   7.209   9.864 -0.4971 -0.3296  0.6435
16178TIP3    H170025   3.045   7.124   9.902 -0.7931 -0.4631  0.4965
16178TIP3    H270026   3.099   7.264   9.890  0.5980 -1.0867 -0.7163
16179TIP3   OH270027   7.210   0.778   3.339  0.4930 -0.1551 -0.0805
16179TIP3    H170028   7.240   0.729   3.263 -0.0703  0.1240 -0.4857
16179TIP3    H270029   7.128   0.737   3.364  0.2106  0.3392 -0.1890
16180TIP3   OH270030   4.584   1.736  11.342 -0.2455  0.1631 -0.1718
16180TIP3    H170031   4.577   1.818  11.293  0.5088  0.6368  0.4841
16180TIP3    H270032   4.661   1.748  11.398 -1.1604 -0.2873  1.2547
16181TIP3   OH270033   2.370   5.804  12.626 -0.0323  0.4979 -0.1924
16181TIP3    H170034   2.302   5.739  12.645 -0.2071  0.8949  0.6203
16181TIP3    H270035   2.446   5.774  12.676  0.0624  0.6051 -0.2728
16182TIP3   OH270036   1.605   5.507   4.265  0.2765  1.1584  0.1573
16182TIP3    H170037   1.637   5.588   4.306  1.7002 -0.3421  2.2068
16182TIP3    H270038   1.655   5.438   4.307 -2.4022 -1.0053  0.0334
16183TIP3   OH270039   1.342   3.228   3.884 -0.8402  0.5125  0.1525
16183TIP3    H170040   1.339   3.247   3.978 -1.5248  0.9391  0.0548
16183TIP3    H270041   1.328   3.313   3.842 -0.1277  0.3941 -0.3468
16184TIP3   OH270042   2.857   0.129  13.667  0.1360 -0.7665 -0.9013
16184TIP3    H170043   2.917   0.186  13.620  1.4710 -1.7185 -0.4344
16184TIP3    H270044   2.903   0.044  13.670  0.1361 -0.7592  2.0619
16185TIP3   OH270045   3.533   6.148  10.879 -0.1958 -0.5642  0.3827
16185TIP3    H170046   3.628   6.149  10.867 -0.1185 -2.8736  0.2782
16185TIP3    H270047   3.517   6.209  10.951  1.2434  0.5610 -0.1958
16186TIP3   OH270048   1.200   6.407   1.380 -0.1976  0.1591  0.6350
16186TIP3    H170049   1.228   6.485   1.332  0.2133 -0.1789  0.3210
16186TIP3    H270050   1.123   6.376   1.333  1.0828 -1.0438 -0.7412
16187TIP3   OH270051   1.941   6.861   9.456 -0.1949  0.2107  0.4056
16187TIP3    H170052   1.947   6.882   9.363 -2.2928 -2.3866 -0.4346
16187TIP3    H270053   1.891   6.933   9.494 -0.3344  0.7183 -0.7054
16188TIP3   OH270054   0.760   6.320  14.165  0.6046 -0.2067  0.0365
16188TIP3    H170055   0.840   6.277  14.196  1.2327 -0.4896 -1.8438
16188TIP3    H270056   0.711   6.250  14.123  0.6627  0.4948 -1.2308
16189TIP3   OH270057   4.581   0.971  12.957 -0.2678  0.6753  0.1609
16189TIP3    H170058   4.652   0.961  12.894 -1.7257  0.3069 -1.5232
16189TIP3    H270059   4.534   1.049  12.928 -1.4121  0.0557  0.2855
16190TIP3   OH270060   1.194   5.016   2.638  0.3527 -0.3922 -0.4535
16190TIP3    H170061   1.194   5.018   2.542  2.2389 -0.2953 -0.5017
16190TIP3    H270062   1.285   4.998   2.661  0.6045  2.4981  1.3570
16191TIP3   OH270063   4.847   4.516   5.504 -0.4931 -0.3598  0.4547
16191TIP3    H170064   4.890   4.582   5.557 -1.0308  0.7656 -0.4669
16191TIP3    H270065   4.871   4.433   5.545  0.0789  0.4003  1.7213
16192TIP3   OH270066   1.850   6.256   1.542  0.1791 -0.2034 -0.9475
16192TIP3    H170067   1.917   6.322   1.525  0.8814 -1.2482 -2.4145
16192TIP3    H270068   1.881   6.211   1.620 -0.0286  0.8177 -0.2544
16193TIP3   OH270069   1.193   6.969   4.209  0.2816  0.2995 -0.2191
16193TIP3    H170070   1.182   6.899   4.144  0.7422 -0.3646  0.3955
16193TIP3    H270071   1.287   6.970   4.227  0.0321 -0.3134  1.2703
16194TIP3   OH270072   2.532   6.550  12.139  0.1732  0.0534 -0.5756
16194TIP3    H170073   2.573   6.534  12.054  1.6020 -0.0764  0.1119
16194TIP3    H270074   2.525   6.464  12.179  0.1928  0.2024 -0.2497
16195TIP3   OH270075   2.092   5.776   2.738  0.1003 -0.1513 -0.2848
16195TIP3    H170076   2.090   5.855   2.683  0.9125  0.8228  1.0148
16195TIP3    H270077   2.023   5.720   2.703  0.4272  0.5307 -2.1230
16196TIP3   OH270078   4.727   6.490  11.460 -0.7127  0.2688  0.1243
16196TIP3    H170079   4.666   6.535  11.402 -1.6636 -1.5046 -0.3222
16196TIP3    H270080   4.721   6.538  11.543 -0.7670  1.6719 -0.6666
16197TIP3   OH270081   1.028   0.911   5.729 -0.1405  0.2029 -0.1124
16197TIP3    H170082   1.073   0.994   5.744  0.5339 -0.2725  0.5191
16197TIP3    H270083   0.962   0.906   5.798  0.3055 -0.1166  0.3000
16198TIP3   OH270084   6.576   6.505   2.674  0.1194  0.0241  0.3211
16198TIP3    H170085   6.568   6.415   2.643  1.9933  0.0874 -0.4848
16198TIP3    H270086   6.650   6.502   2.735  0.2142  1.0233  0.2604
16199TIP3   OH270087   0.950   1.199   3.023  0.2758 -0.0921 -0.1283
16199TIP3    H170088   1.018   1.221   2.959 -0.3863 -0.1609 -0.8710
16199TIP3    H270089   0.955   1.104   3.032  0.4792 -0.0641  0.0401
16200TIP3   OH270090   1.833   3.999   2.959  0.1668 -0.6295 -0.1207
16200TIP3    H170091   1.844   3.950   3.041  0.4276  1.3569  1.0926
16200TIP3    H270092   1.738   4.006   2.948  0.0508  1.4926  1.6031
16201TIP3   OH270093   1.664   6.299  12.572 -0.3001  0.7709  0.0406
16201TIP3    H170094   1.606   6.344  12.633  1.4230  1.7684  1.0352
16201TIP3    H270095   1.746   6.288  12.622 -0.2226 -2.3576 -0.5868
16202TIP3   OH270096   5.838   6.618   5.074  0.1756  0.0825 -0.1706
16202TIP3    H170097   5.884   6.534   5.078  2.1410  1.0765 -0.9767
16202TIP3    H270098   5.847   6.654   5.163  0.0384 -0.1856 -0.0466
16203TIP3   OH270099   1.958   5.939  12.769  0.1098 -0.1610  0.1189
16203TIP3    H170100   2.007   6.017  12.797  0.2344 -0.3389  0.3973
16203TIP3    H270101   1.945   5.952  12.675 -1.8593  1.3131  0.5268
16204TIP3   OH270102   2.113   1.610   2.384 -0.0298 -0.4505 -0.1518
16204TIP3    H170103   2.183   1.553   2.353 -0.6893 -1.4719  0.1848
16204TIP3    H270104   2.074   1.647   2.305  0.1338 -0.8101 -0.4008
16205TIP3   OH270105   6.695   4.496   0.447  0.3372 -0.3575  0.1546
16205TIP3    H170106   6.657   4.555   0.513 -1.8493 -1.0978 -0.3648
16205TIP3    H270107   6.663   4.409   0.472  0.8105 -0.8660 -0.9582
16206TIP3   OH270108   3.191   6.456   2.110 -0.4179 -0.4132 -0.4437
16206TIP3    H170109   3.276   6.430   2.144 -0.2543 -0.0796 -0.5977
16206TIP3    H270110   3.128   6.403   2.159 -0.0749 -1.3701 -1.0025
16207TIP3   OH270111   3.100   4.198  11.701 -0.0908  0.0323 -0.0965
16207TIP3    H170112   3.061   4.280  11.670  1.0212  0.0683 -1.4929
16207TIP3    H270113   3.179   4.225  11.748  0.5413 -0.2449 -0.9804
16208TIP3   OH270114   2.356   3.836   5.268 -0.2577  1.1829 -0.3205
16208TIP3    H170115   2.372   3.744   5.289 -4.3289  0.5342  0.7307
16208TIP3    H270116   2.372   3.882   5.350 -0.9233  0.9883 -0.0792
16209TIP3   OH270117   0.701   4.245  11.902 -0.5900 -0.1366 -0.4296
16209TIP3    H170118   0.778   4.191  11.921 -1.1262 -0.4503  0.9699
16209TIP3    H270119   0.687   4.234  11.808  1.8737  1.0282 -1.0077
16210TIP3   OH270120   4.309   0.851  12.509  0.5649 -0.0125 -0.0082
16210TIP3    H170121   4.255   0.830  12.433 -0.2985 -1.9443  1.0628
16210TIP3    H270122   4.344   0.766  12.538  0.0524  0.4860  2.3052
16211TIP3   OH270123   6.243   1.445   3.564 -0.1318 -0.4949 -0.2643
16211TIP3    H170124   6.199   1.528   3.578 -0.3597 -0.5652 -0.5683
16211TIP3    H270125   6.258   1.411   3.652 -1.1728 -0.7273 -0.1702
16212TIP3   OH270126   2.112   5.462   5.408 -0.3152 -0.1707  0.0855
16212TIP3    H170127   2.097   5.456   5.314 -1.3790  0.0677  0.2222
16212TIP3    H270128   2.063   5.388   5.445 -2.7758  1.6237  0.7004
16213TIP3   OH270129   0.007   4.656  14.639 -0.0319  0.0672  0.0768
16213TIP3    H170130  -0.052   4.614  14.577  1.6727 -0.4673 -1.2765
16213TIP3    H270131   0.094   4.623  14.615  0.6430 -1.0760  3.4821
16214TIP3   OH270132   1.387   0.720  15.327  0.3977 -0.0861  0.9050
16214TIP3    H170133   1.457   0.661  15.298 -0.0856 -1.5039  2.5011
16214TIP3    H270134   1.400   0.799  15.275  1.9850 -1.0385 -0.2350
16215TIP3   OH270135   1.569   0.205  11.824  0.6038 -0.0032 -0.7052
16215TIP3    H170136   1.590   0.232  11.735  0.3274  0.3498 -0.6649
16215TIP3    H270137   1.482   0.242  11.841  0.2801 -0.7945 -0.5972
16216TIP3   OH270138   7.067   5.683  15.313 -0.2728  0.2449  0.4617
16216TIP3    H170139   7.144   5.735  15.337 -0.0019 -0.1184  0.3856
16216TIP3    H270140   7.001   5.748  15.289  0.0400  0.5579  0.4349
16217TIP3   OH270141   5.958   2.140  15.368 -0.0673  0.7787  0.5231
16217TIP3    H170142   6.021   2.082  15.410 -1.6033 -1.3594  0.0532
16217TIP3    H270143   5.873   2.113  15.404 -0.8982  2.6017  0.0889
16218TIP3   OH270144   6.320   6.274  13.865  0.3005  0.6161 -0.1998
16218TIP3    H170145   6.382   6.241  13.931  0.4993  1.1680 -0.1094
16218TIP3    H270146   6.372   6.331  13.809  0.0998  0.2534 -0.7601
16219TIP3   OH270147   0.324   3.942   3.297  0.1298 -0.1114 -0.2699
16219TIP3    H170148   0.316   4.029   3.336  1.7094 -0.7103  1.5987
16219TIP3    H270149   0.371   3.957   3.215 -1.7740  1.0067 -1.2354
16220TIP3   OH270150   3.802   4.138   5.103  0.2453  0.1081 -0.1011
16220TIP3    H170151   3.739   4.106   5.038  0.4805 -1.8804  0.5893
16220TIP3    H270152   3.839   4.059   5.142  0.2405  1.2058  2.3401
16221TIP3   OH270153   3.785   6.746  12.817 -0.3461  0.4247  0.0362
16221TIP3    H170154   3.838   6.666  12.816 -0.5916  0.2594 -0.7454
16221TIP3    H270155   3.696   6.716  12.797 -0.8961  0.6025  2.0775
16222TIP3   OH270156   1.001   2.621   2.927  0.2951 -0.1026  0.3536
16222TIP3    H170157   0.958   2.539   2.902  2.0282 -1.3538  1.2948
16222TIP3    H270158   1.022   2.664   2.844 -0.1089 -0.8814 -0.1615
16223TIP3   OH270159   3.730   4.316   2.952 -0.0941  0.0831 -0.1649
16223TIP3    H170160   3.703   4.302   2.862 -1.4818  0.0710  0.2376
16223TIP3    H270161   3.659   4.366   2.991 -0.1158 -1.0096  1.2665
16224TIP3   OH270162   2.699   3.918   5.662 -0.2994  0.5258  0.5786
16224TIP3    H170163   2.636   3.851   5.691 -0.3580  1.0250  1.6390
16224TIP3    H270164   2.784   3.883   5.687 -0.1541  0.0027 -0.5626
16225TIP3   OH270165   7.153   3.941   4.468  0.0701  0.0072  0.2983
16225TIP3    H170166   7.066   3.903   4.476  0.3345 -1.1380 -1.6828
16225TIP3    H270167   7.201   3.906   4.543 -0.9674  0.1358  1.0497
16226TIP3   OH270168   0.609   0.859   4.245  0.7087  0.0618  0.2372
16226TIP3    H170169   0.653   0.876   4.161 -1.1435  1.5566 -0.5004
16226TIP3    H270170   0.678   0.871   4.311  1.9861 -0.2088 -0.9915
16227TIP3   OH270171   5.593   4.025   2.062 -0.1645 -0.8375 -0.4776
16227TIP3    H170172   5.632   4.090   2.120 -1.6975 -0.3213  0.0143
16227TIP3    H270173   5.617   4.055   1.974 -1.9240  1.2060 -0.3454
16228TIP3   OH270174   2.066   0.463   5.689  0.5102  0.4293 -0.2096
16228TIP3    H170175   2.055   0.532   5.624 -0.3916 -0.5591 -1.1281
16228TIP3    H270176   1.982   0.417   5.690  0.4092  0.5583  1.8309
16229TIP3   OH270177   2.517   0.804   4.453 -0.0856 -0.2951  0.4799
16229TIP3    H170178   2.550   0.728   4.501 -0.0963 -0.1070  0.7849
16229TIP3    H270179   2.581   0.817   4.382 -0.8834 -1.5197 -0.5135
16230TIP3   OH270180   3.752   1.844  13.247  0.6017  0.0684  0.1632
16230TIP3    H170181   3.726   1.812  13.333  1.8870  1.1380  0.9910
16230TIP3    H270182   3.823   1.786  13.220 -0.3046 -0.7459 -0.5609
16231TIP3   OH270183   6.361   6.431   0.597  0.1646  0.5946  0.0697
16231TIP3    H170184   6.327   6.366   0.536 -1.0434  1.3255 -0.0717
16231TIP3    H270185   6.330   6.402   0.683 -0.6379  1.1468 -0.0320
16232TIP3   OH270186   5.130   2.530  14.541 -0.0051  0.1373  0.6116
16232TIP3    H170187   5.051   2.517  14.595  0.7059 -2.7134  1.1440
16232TIP3    H270188   5.202   2.504  14.598  1.2857  1.7538 -0.1932
16233TIP3   OH270189   0.478   2.526  14.148 -0.4286 -0.3228  0.2408
16233TIP3    H170190   0.572   2.512  14.136 -0.4311 -1.3182  1.2652
16233TIP3    H270191   0.449   2.563  14.065  0.9186  0.2930  0.0101
16234TIP3   OH270192   0.721   2.429   4.511  0.2719  0.0799 -0.4798
16234TIP3    H170193   0.801   2.382   4.536  0.5380 -1.3750 -3.5067
16234TIP3    H270194   0.650   2.384   4.556  0.9989  0.4331  1.0660
16235TIP3   OH270195   7.199   2.728   2.292  0.1842  0.1303 -0.6278
16235TIP3    H170196   7.143   2.730   2.369 -0.1750  0.2805 -0.8909
16235TIP3    H270197   7.239   2.641   2.293  0.5374  0.2908 -0.0227
16236TIP3   OH270198   4.139   5.782   3.617 -0.6441  1.2269  0.2552
16236TIP3    H170199   4.132   5.714   3.683  0.4443 -0.3901 -1.2054
16236TIP3    H270200   4.057   5.777   3.568 -0.4969  0.8103  0.0416
16237TIP3   OH270201   4.773   2.061   5.186 -0.1131  0.3271 -0.0108
16237TIP3    H170202   4.728   2.144   5.197  0.3327  0.7085 -0.9214
16237TIP3    H270203   4.863   2.078   5.214 -0.2678 -0.1408  0.7978
16238TIP3   OH270204   2.099   6.636   0.893 -0.0429  0.2840  0.1150
16238TIP3    H170205   2.012   6.652   0.856 -0.9769  1.6660  2.6327
16238TIP3    H270206   2.105   6.541   0.899 -0.8179  0.1105 -1.2671
16239TIP3   OH270207   5.706   5.249   5.533  0.3797 -0.1932 -0.1652
16239TIP3    H170208   5.786   5.198   5.544  1.7029  2.0610  1.7149
16239TIP3    H270209   5.644   5.208   5.594  0.5540 -1.1103 -0.5919
16240TIP3   OH270210   2.333   1.716   2.545 -0.5176  0.0827 -0.3646
16240TIP3    H170211   2.255   1.712   2.490 -0.5143  0.6823 -0.4259
16240TIP3    H270212   2.378   1.796   2.517 -0.5110  0.3968  0.5012
16241TIP3   OH270213   1.300   0.594  14.040 -0.0917 -0.0184  0.0502
16241TIP3    H170214   1.274   0.554  13.957  0.7033  0.1053 -0.2678
16241TIP3    H270215   1.391   0.622  14.026  0.2536 -0.5419  1.1656
16242TIP3   OH270216   6.471   3.195  15.257  0.2168 -0.1925  0.4938
16242TIP3    H170217   6.378   3.207  15.241  0.5681  1.4569 -0.5153
16242TIP3    H270218   6.491   3.254  15.329  0.6793  0.3191 -0.0405
16243TIP3   OH270219   0.826   6.124   1.260 -0.0179 -0.1949  0.5646
16243TIP3    H170220   0.749   6.171   1.291  0.4682  1.3981 -0.5278
16243TIP3    H270221   0.793   6.043   1.224 -1.1388  0.2889  0.4806
16244TIP3   OH270222   4.921   1.954   0.427  0.0158 -0.1509 -1.0537
16244TIP3    H170223   4.855   2.022   0.441  0.4304  0.3544 -1.5023
16244TIP3    H270224   4.957   1.938   0.514 -0.9392 -0.7037 -0.7339
16245TIP3   OH270225   3.214   2.017   0.023 -0.3827  0.0620 -0.2279
16245TIP3    H170226   3.150   2.064   0.077  1.8102  2.7972  0.2168
16245TIP3    H270227   3.172   2.010  -0.063 -2.0773 -0.1021  0.5747
16246TIP3   OH270228   0.187   3.967   5.410  0.0124 -0.1236 -0.3984
16246TIP3    H170229   0.130   3.962   5.487  2.0932  2.3195  1.4754
16246TIP3    H270230   0.129   3.998   5.340 -1.4869 -0.2189  0.7316
16247TIP3   OH270231   2.153   6.187   1.984  0.2731 -0.4539  0.0235
16247TIP3    H170232   2.182   6.278   1.992  0.5001 -0.4833 -0.4241
16247TIP3    H270233   2.180   6.146   2.066  2.1784 -0.6678 -0.6500
16248TIP3   OH270234   5.138   0.405   0.821 -0.3059  0.1467  0.1730
16248TIP3    H170235   5.228   0.416   0.850  0.5687  1.4524 -2.7152
16248TIP3    H270236   5.087   0.461   0.880  0.9807  0.6553  0.8445
16249TIP3   OH270237   1.866   6.504   2.317  0.9466  0.4050  0.5006
16249TIP3    H170238   1.883   6.597   2.331 -0.1676  0.8929 -1.1698
16249TIP3    H270239   1.792   6.501   2.257  0.0899 -1.5788  1.5431
16250TIP3   OH270240   6.071   0.118   4.401  0.2517  0.3983  0.2661
16250TIP3    H170241   6.102   0.197   4.356 -3.1692  1.1271 -1.1322
16250TIP3    H270242   6.047   0.059   4.330 -0.5761 -0.4732  1.2494
16251TIP3   OH270243   3.985   3.133   1.519 -0.1053 -0.0082 -0.0626
16251TIP3    H170244   3.913   3.141   1.456 -0.0403  1.6206  0.0441
16251TIP3    H270245   4.012   3.223   1.536  1.3344 -0.5545  0.6330
16252TIP3   OH270246   0.491   3.358   3.700 -0.0736 -0.3799 -0.2629
16252TIP3    H170247   0.519   3.447   3.679 -0.0025 -0.3810 -0.1749
16252TIP3    H270248   0.511   3.307   3.622 -1.0522 -0.1179 -0.6969
16253TIP3   OH270249   4.939   2.075   3.981 -0.2995  0.2584  0.1082
16253TIP3    H170250   4.885   2.079   4.060 -0.9309 -1.3430 -0.2155
16253TIP3    H270251   4.899   2.138   3.921  0.9542  2.4967  1.4541
16254TIP3   OH270252   5.005   4.997   2.277 -0.3058 -0.3459 -0.1737
16254TIP3    H170253   5.060   5.006   2.355 -0.3265 -1.4339 -0.0188
16254TIP3    H270254   4.934   4.939   2.304 -1.0780  0.3776 -0.6180
16255TIP3   OH270255   5.096   5.105   3.578 -0.1934 -0.1896 -0.8228
16255TIP3    H170256   5.042   5.029   3.556  0.7963 -1.1480 -0.0778
16255TIP3    H270257   5.077   5.122   3.670 -1.1199  1.0985 -1.2252
16256TIP3   OH270258   4.725   0.292   5.737 -0.0212  0.8159  0.1369
16256TIP3    H170259   4.743   0.385   5.729 -2.7639  1.5513  1.4430
16256TIP3    H270260   4.804   0.249   5.701  1.2163  3.5725 -0.7093
16257TIP3   OH270261   2.088   3.207   4.653 -0.4776  0.1392  0.4026
16257TIP3    H170262   2.082   3.129   4.598  3.4798 -0.8126  0.9950
16257TIP3    H270263   2.137   3.269   4.599 -0.3832  0.8393  1.2821
16258TIP3   OH270264   2.026   4.354   3.678 -0.2351 -0.5299  0.6609
16258TIP3    H170265   2.089   4.424   3.697 -1.0678  0.8073 -1.2038
16258TIP3    H270266   2.072   4.296   3.618 -0.0980 -0.6941  0.9222
16259TIP3   OH270267   5.955   2.489   0.405 -0.3162  0.5820  0.4309
16259TIP3    H170268   5.923   2.551   0.339  2.9325  3.1826  1.0416
16259TIP3    H270269   5.977   2.543   0.480  0.3136 -1.7296  2.0316
16260TIP3   OH270270   1.854   1.884   0.009 -0.0412  0.3858 -0.3514
16260TIP3    H170271   1.809   1.887  -0.075  0.9925 -1.4092 -1.0189
16260TIP3    H270272   1.806   1.819   0.060 -0.1018  0.7898  0.1157
16261TIP3   OH270273   1.900   4.726   5.430 -0.1860  0.4645 -0.1204
16261TIP3    H170274   1.893   4.775   5.512 -0.3750  0.4568 -0.1310
16261TIP3    H270275   1.825   4.666   5.431  0.6570 -0.6070  0.4060
16262TIP3   OH270276   3.163   3.588   0.204 -0.5623  0.1857 -0.6146
16262TIP3    H170277   3.185   3.498   0.179  0.3241  0.4405 -0.8089
16262TIP3    H270278   3.187   3.641   0.128 -1.7373  0.5220 -0.7721
16263TIP3   OH270279   4.364   3.309  15.067  0.1628  0.8739 -0.2712
16263TIP3    H170280   4.410   3.339  14.989  0.1693  1.9734  0.1379
16263TIP3    H270281   4.278   3.282  15.035  0.0803  1.5442 -0.6315
16264TIP3   OH270282   5.587   5.709   3.922  0.3355  0.1486 -0.4486
16264TIP3    H170283   5.643   5.638   3.953 -1.0285 -1.5228 -1.6225
16264TIP3    H270284   5.531   5.730   3.997  0.8661  0.1164 -0.0391
16265TIP3   OH270285   1.280   1.616   0.300  0.0470  0.4903 -0.6780
16265TIP3    H170286   1.280   1.598   0.394 -0.4975 -0.9017 -0.9297
16265TIP3    H270287   1.248   1.536   0.259  0.6519  0.9257 -2.0894
16266TIP3   OH270288   3.638   2.670   3.219  0.4027 -0.0031  0.6495
16266TIP3    H170289   3.575   2.650   3.288  0.5094  0.3756  0.8577
16266TIP3    H270290   3.661   2.762   3.233  0.9610 -0.1217  0.5479
16267TIP3   OH270291   4.300   0.095   2.408 -0.3357  0.2995 -0.3671
16267TIP3    H170292   4.370   0.038   2.441 -0.9575 -0.1503  0.2045
16267TIP3    H270293   4.302   0.082   2.313 -0.4700 -0.6885 -0.2475
16268TIP3   OH270294   4.952   3.162  14.999  0.5607 -0.3654 -0.2662
16268TIP3    H170295   4.865   3.200  15.011 -0.7781 -3.2879  0.1422
16268TIP3    H270296   4.991   3.162  15.087 -0.0036 -1.1843 -0.0103
16269TIP3   OH270297   2.341   5.441  14.177  0.1299 -0.3704  0.1347
16269TIP3    H170298   2.369   5.514  14.122 -0.0767  0.4032  1.0314
16269TIP3    H270299   2.254   5.465  14.207 -1.2341 -2.3300 -1.8850
16270TIP3   OH270300   3.090   5.239   2.247  0.2956  0.6967  0.3229
16270TIP3    H170301   3.092   5.324   2.291  1.8663 -0.6282  3.0357
16270TIP3    H270302   3.163   5.243   2.185 -1.5758  2.3639 -1.9545
16271TIP3   OH270303   0.467   5.719  14.676  0.1079 -0.2885  0.4103
16271TIP3    H170304   0.509   5.743  14.758  0.3953 -3.2320  1.2216
16271TIP3    H270305   0.539   5.709  14.614 -0.1488  2.5183 -0.4806
16272TIP3   OH270306   5.389   4.418   2.975  0.0149 -0.5130 -0.6221
16272TIP3    H170307   5.438   4.340   3.000  0.1640 -0.7058 -1.4847
16272TIP3    H270308   5.454   4.475   2.933 -0.2340 -0.2275 -0.6260
16273TIP3   OH270309   1.035   1.429   4.980 -0.2615 -0.0936  0.0566
16273TIP3    H170310   1.093   1.377   5.035  0.9477  2.4441  1.3828
16273TIP3    H270311   0.948   1.416   5.018  0.0641 -0.9087  0.5370
16274TIP3   OH270312   0.921   2.475  14.561 -0.3061  0.3671  0.4844
16274TIP3    H170313   0.936   2.569  14.549  1.0514  0.2518  1.1969
16274TIP3    H270314   0.864   2.451  14.487 -1.6179  1.9495  0.9031
16275TIP3   OH270315   6.166   5.153   3.859 -0.2365 -0.2679  0.4103
16275TIP3    H170316   6.155   5.193   3.773 -0.3502  1.4714  1.1813
16275TIP3    H270317   6.260   5.157   3.876 -0.3698  0.8847  1.0006
16276TIP3   OH270318   6.302   2.576  13.894 -0.2208  0.2194 -0.8631
16276TIP3    H170319   6.293   2.614  13.807 -1.3561 -1.6744 -1.6458
16276TIP3    H270320   6.237   2.622  13.947  0.0228  0.9315 -1.1680
16277TIP3   OH270321   4.990   6.392   4.825  0.1711  0.5316  0.1637
16277TIP3    H170322   4.954   6.306   4.847 -1.3659  0.5416 -2.0322
16277TIP3    H270323   4.913   6.446   4.806  1.1029  2.4140  1.4324
16278TIP3   OH270324   0.757   0.878   3.998  0.8796  0.3082 -0.2895
16278TIP3    H170325   0.691   0.820   3.959  0.6276  0.4589 -0.0867
16278TIP3    H270326   0.718   0.965   3.996  0.6682  0.2487  0.7345
16279TIP3   OH270327   6.190   2.607  15.242 -0.1542 -0.0795 -0.4897
16279TIP3    H170328   6.132   2.558  15.299 -0.3371  0.0179 -0.5905
16279TIP3    H270329   6.252   2.650  15.301 -1.3416  1.3565 -0.2325
16280TIP3   OH270330   1.526   1.022   0.724  0.7047  0.1666 -0.8976
16280TIP3    H170331   1.595   0.966   0.759 -0.0339  0.4137  1.0879
16280TIP3    H270332   1.476   0.965   0.664  1.0406 -0.7710 -0.3029
16281TIP3   OH270333   1.815   3.415  13.907  0.3283  0.3498  0.0394
16281TIP3    H170334   1.881   3.477  13.875  1.2503 -0.0725  1.0569
16281TIP3    H270335   1.732   3.450  13.874  0.8785  1.8129  0.1134
16282TIP3   OH270336   1.624   4.901   4.927 -0.0238  0.1570 -0.6762
16282TIP3    H170337   1.659   4.848   4.856 -1.1039 -0.8358 -0.5072
16282TIP3    H270338   1.697   4.955   4.956  0.5606  0.2432 -2.2152
16283TIP3   OH270339   6.549   4.599   4.190 -0.3425  0.3592  0.8104
16283TIP3    H170340   6.568   4.506   4.193 -1.7123 -0.0039 -0.7900
16283TIP3    H270341   6.601   4.636   4.262  2.0956 -1.2657  0.0299
16284TIP3   OH270342   7.031   4.521   0.479 -0.0702  0.8250  0.1937
16284TIP3    H170343   7.041   4.523   0.574  2.1912 -0.6176  0.0818
16284TIP3    H270344   7.052   4.610   0.451  0.7288  0.9070  0.9924
16285TIP3   OH270345   7.201   0.745   0.585 -0.0935  0.5631  0.1144
16285TIP3    H170346   7.168   0.793   0.661 -1.7415  1.2658 -0.9863
16285TIP3    H270347   7.176   0.799   0.510  1.4148 -0.1533 -0.9424
16286TIP3   OH270348   2.855   4.297   2.616  0.3508  0.2169  0.3205
16286TIP3    H170349   2.934   4.348   2.632  0.3213 -0.0694  1.4535
16286TIP3    H270350   2.792   4.330   2.680 -0.5805  0.6959 -0.8041
16287TIP3   OH270351   1.194   4.839   3.142  0.2025 -0.1257 -0.1319
16287TIP3    H170352   1.220   4.796   3.224  0.1337  0.6174  0.2960
16287TIP3    H270353   1.115   4.887   3.165  0.4706  0.5039 -0.4922
16288TIP3   OH270354   0.106   2.708  15.124  0.1949  0.4414  0.2451
16288TIP3    H170355   0.067   2.740  15.042 -0.6502 -2.1451 -0.4538
16288TIP3    H270356   0.033   2.670  15.171  1.1459 -0.5699  0.9387
16289TIP3   OH270357   6.330   3.023   0.506 -0.1921 -0.2003  0.1228
16289TIP3    H170358   6.306   2.931   0.496 -0.9479  0.1779 -2.1526
16289TIP3    H270359   6.258   3.071   0.467 -0.3821  1.4769  2.3023
16290TIP3   OH270360   5.627   5.134   5.027 -0.1767 -0.2613  0.1924
16290TIP3    H170361   5.676   5.089   4.958 -1.5432  0.6157 -1.4467
16290TIP3    H270362   5.596   5.064   5.084 -0.2219 -1.1881 -0.9251
16291TIP3   OH270363   2.900   1.338   5.160 -0.5763  0.4775 -0.1661
16291TIP3    H170364   2.834   1.380   5.215 -0.1448 -0.1551  0.8626
16291TIP3    H270365   2.980   1.339   5.214 -0.2858 -0.6685 -0.5526
16292TIP3   OH270366   4.510   0.483   3.228  0.0522 -0.2767  0.0564
16292TIP3    H170367   4.520   0.489   3.323  0.0666  2.0984 -0.0118
16292TIP3    H270368   4.443   0.549   3.207  1.2062  0.4212 -1.6955
16293TIP3   OH270369   0.474   5.556   3.143 -0.3878 -0.0089  0.1207
16293TIP3    H170370   0.539   5.620   3.172 -0.2848  0.1485 -0.4443
16293TIP3    H270371   0.394   5.607   3.129 -0.9063 -0.3492  1.7047
16294TIP3   OH270372   5.319   1.510   2.873  0.6706  0.4404  0.2101
16294TIP3    H170373   5.238   1.558   2.857  0.1315  0.3706  2.3545
16294TIP3    H270374   5.295   1.418   2.867  0.1922  0.3886  2.2729
16295TIP3   OH270375   4.711   2.475   4.290 -0.2319  0.8916 -0.5114
16295TIP3    H170376   4.625   2.499   4.326 -0.6872 -0.4622 -0.6345
16295TIP3    H270377   4.690   2.417   4.217  0.8070  0.3382 -0.3768
16296TIP3   OH270378   1.096   2.244   3.076  0.0588 -0.6501 -0.2584
16296TIP3    H170379   1.168   2.211   3.022  0.2081  1.3321 -1.3885
16296TIP3    H270380   1.140   2.279   3.154  0.2499 -0.1545 -0.5833
16297TIP3   OH270381   2.241   6.741   0.343  0.1398 -0.0758  0.1408
16297TIP3    H170382   2.321   6.751   0.292 -0.6797 -1.6584 -1.5999
16297TIP3    H270383   2.182   6.808   0.309  0.2739  0.2140  0.4757
16298TIP3   OH270384   1.953   0.351   3.919  0.5786  0.3677  0.2401
16298TIP3    H170385   1.865   0.340   3.882  0.4156  0.9511  0.4419
16298TIP3    H270386   2.006   0.284   3.876 -0.0957 -0.3593  0.5361
16299TIP3   OH270387   0.713   5.690  10.516 -0.4113  0.6325  0.4836
16299TIP3    H170388   0.787   5.697  10.457 -0.7587 -1.0255 -0.2135
16299TIP3    H270389   0.737   5.620  10.577 -1.1616  0.4676  0.6055
16300TIP3   OH270390   4.321   5.607   4.828 -0.3109 -0.1774  0.5204
16300TIP3    H170391   4.380   5.679   4.806 -1.4096  0.1542 -1.6517
16300TIP3    H270392   4.341   5.539   4.764 -2.7995  0.3196 -0.9701
16301TIP3   OH270393   6.134   2.674   3.482  0.0108  0.2659  0.0354
16301TIP3    H170394   6.128   2.640   3.571 -0.8905  0.1465 -0.0656
16301TIP3    H270395   6.050   2.653   3.442  0.2962  0.5818 -0.7529
16302TIP3   OH270396   1.766   5.402   0.742 -0.1079  0.2394  0.9705
16302TIP3    H170397   1.859   5.417   0.722  0.2305 -1.5900  1.0103
16302TIP3    H270398   1.736   5.345   0.671 -0.8594 -0.2144  1.6414
16303TIP3   OH270399   1.661   1.319   2.568 -0.3303 -0.1373 -0.3494
16303TIP3    H170400   1.738   1.325   2.512 -0.5798  0.4652 -0.6452
16303TIP3    H270401   1.626   1.409   2.570 -0.4516 -0.1896  0.5886
16304TIP3   OH270402   1.796   1.829   3.337 -0.1298  0.4214  0.2470
16304TIP3    H170403   1.815   1.749   3.386  1.1938 -0.0057 -0.8966
16304TIP3    H270404   1.797   1.898   3.403  0.8228 -0.2307  0.9368
16305TIP3   OH270405   1.371   4.117   3.479  0.0370  0.7735  0.4193
16305TIP3    H170406   1.465   4.132   3.488  0.8301 -3.1500  0.4560
16305TIP3    H270407   1.330   4.192   3.523  3.1459  1.7798  1.8527
16306TIP3   OH270408   4.734   0.363   3.776 -0.0312  0.1236 -0.1863
16306TIP3    H170409   4.709   0.324   3.693 -2.2605  0.3515  0.3143
16306TIP3    H270410   4.745   0.289   3.835  2.2981 -0.0899 -0.8115
16307TIP3   OH270411   7.053   3.475   2.669 -0.3705 -0.1550 -0.4651
16307TIP3    H170412   6.976   3.525   2.642 -0.2522  0.8975  1.0069
16307TIP3    H270413   7.017   3.399   2.714 -0.5804  0.4496  0.4207
16308TIP3   OH270414   5.581   4.637   1.792  0.0958 -1.0135 -0.4333
16308TIP3    H170415   5.505   4.670   1.841  0.7064 -0.8933  0.4582
16308TIP3    H270416   5.626   4.716   1.762  0.7159 -1.0525  0.3779
16309TIP3   OH270417   3.673   5.090   2.058 -0.0292 -0.1620 -0.3897
16309TIP3    H170418   3.638   5.080   1.970  0.0795 -1.7421 -0.2782
16309TIP3    H270419   3.749   5.032   2.062 -0.9637 -1.3982  1.1918
16310TIP3   OH270420   4.261   4.157   4.712  0.6400  0.2778 -0.0986
16310TIP3    H170421   4.198   4.156   4.783 -0.2855  0.1865 -0.8991
16310TIP3    H270422   4.220   4.107   4.641  1.6182  0.1882 -0.6358
16311TIP3   OH270423   1.100   0.762  13.880  0.0665 -0.4489  0.6706
16311TIP3    H170424   1.021   0.710  13.867 -0.0073 -0.1843 -0.0068
16311TIP3    H270425   1.172   0.700  13.867 -0.0262 -0.7167  1.4084
16312TIP3   OH270426   2.088   2.103   5.420  0.1141 -0.4519 -0.2180
16312TIP3    H170427   2.173   2.146   5.419 -0.7880  1.5545  1.8224
16312TIP3    H270428   2.087   2.052   5.501 -0.2616 -1.3362 -0.7535
16313TIP3   OH270429   2.715   2.194   5.236 -0.4203  1.1701 -0.0415
16313TIP3    H170430   2.688   2.203   5.144 -3.6177  1.2847  0.8046
16313TIP3    H270431   2.748   2.105   5.242  0.5597  1.3978 -1.4236
16314TIP3   OH270432   4.536   4.054   3.797 -0.1360 -0.3051 -0.5478
16314TIP3    H170433   4.603   3.987   3.788 -1.4872 -2.4012  2.9519
16314TIP3    H270434   4.552   4.093   3.883 -1.5925  1.3235 -0.9499
16315TIP3   OH270435   6.165   5.482   0.303  0.5537  0.4766 -0.2841
16315TIP3    H170436   6.137   5.535   0.378  1.1020  0.9856 -0.4312
16315TIP3    H270437   6.259   5.472   0.314  0.4602 -0.4907 -0.2558
16316TIP3   OH270438   2.329   2.744   4.611 -0.1026  0.8950 -0.0384
16316TIP3    H170439   2.409   2.714   4.654  0.6659  1.7705 -0.8168
16316TIP3    H270440   2.334   2.706   4.523 -2.2146 -1.8307  0.8828
16317TIP3   OH270441   4.153   4.260   2.823  0.5324  0.0668 -0.4408
16317TIP3    H170442   4.164   4.351   2.796  3.2758  0.0809  0.3436
16317TIP3    H270443   4.121   4.266   2.913  0.0702  0.2460 -0.6174
16318TIP3   OH270444   4.858   4.223   5.336 -0.3998 -0.2193  0.2658
16318TIP3    H170445   4.908   4.276   5.398 -0.2073  0.0569 -0.1178
16318TIP3    H270446   4.767   4.236   5.361 -0.4543  1.3075 -0.5795
16319TIP3   OH270447   4.033   5.226   1.720  0.9217  0.2436 -0.5073
16319TIP3    H170448   4.070   5.215   1.808  0.0676 -0.8159 -0.2625
16319TIP3    H270449   3.940   5.239   1.734  1.0683  2.4703 -1.1504
16320TIP3   OH270450   4.018   2.807   2.533  0.7001 -0.6451 -0.2966
16320TIP3    H170451   3.955   2.879   2.534 -0.3338 -1.5025  1.8784
16320TIP3    H270452   4.104   2.850   2.531  0.1000  0.5703 -0.9416
16321TIP3   OH270453   4.622   0.021   1.757  0.8041  0.5958 -0.5476
16321TIP3    H170454   4.551  -0.029   1.717 -0.6765  0.8619  1.5791
16321TIP3    H270455   4.649   0.083   1.690 -0.8098  0.3069 -1.5016
16322TIP3   OH270456   6.827   5.358   0.479 -0.2481 -0.0964  0.1005
16322TIP3    H170457   6.819   5.415   0.402 -1.6525  0.8659  0.9132
16322TIP3    H270458   6.848   5.419   0.551  0.2986 -0.8860  0.6260
16323TIP3   OH270459   3.601   1.952   3.317  0.0794  0.0266 -0.4123
16323TIP3    H170460   3.512   1.951   3.282  0.5393  0.2549 -1.6751
16323TIP3    H270461   3.615   1.863   3.349 -0.5814 -0.0303 -0.2665
16324TIP3   OH270462   5.719   2.789   5.083  0.3199 -0.3880 -0.5456
16324TIP3    H170463   5.776   2.750   5.149  0.3949  1.3550  0.4845
16324TIP3    H270464   5.634   2.797   5.127  1.0243  3.3347  0.4699
16325TIP3   OH270465   6.484   5.965  15.389 -0.3731 -0.5279  0.3882
16325TIP3    H170466   6.468   5.978  15.296  1.2874 -3.5545 -0.4425
16325TIP3    H270467   6.414   5.905  15.417  0.0596 -0.9042  0.6819
16326TIP3   OH270468   6.831   3.996   0.404 -0.1697  0.0896 -0.1119
16326TIP3    H170469   6.902   3.971   0.463 -0.1316  1.6325  0.5571
16326TIP3    H270470   6.861   4.078   0.365 -1.2627  0.3849 -0.3667
16327TIP3   OH270471   5.819   4.414   5.225  0.4333  0.3949  0.3007
16327TIP3    H170472   5.761   4.366   5.165  0.5275  1.1013 -0.3723
16327TIP3    H270473   5.768   4.421   5.306  0.3023 -0.5728  0.3181
16328TIP3   OH270474   0.079   1.218   2.169 -0.0223 -0.2639 -0.1427
16328TIP3    H170475   0.051   1.128   2.152  0.9854 -0.8936  1.3696
16328TIP3    H270476   0.011   1.254   2.226 -1.4895  0.6632 -2.3152
16329TIP3   OH270477   3.873   4.976   5.788  0.4012  0.2255  0.0551
16329TIP3    H170478   3.943   5.007   5.845  1.1233  0.7321 -1.0823
16329TIP3    H270479   3.915   4.959   5.704 -0.8800  0.7959 -0.7397
16330TIP3   OH270480   2.805   3.501   5.260  0.1440  0.2550 -0.4880
16330TIP3    H170481   2.781   3.415   5.226  0.5975 -1.0151  2.1417
16330TIP3    H270482   2.721   3.541   5.284  0.0490 -0.8849  1.2991
16331TIP3   OH270483   5.669   2.871   2.479  0.3637 -0.3589 -0.4703
16331TIP3    H170484   5.692   2.857   2.571 -1.5941  0.5147  0.1918
16331TIP3    H270485   5.582   2.909   2.481  0.1003 -0.6946 -2.7268
16332TIP3   OH270486   0.112   6.125   2.017  0.1983 -0.1596  0.6993
16332TIP3    H170487   0.080   6.146   1.929  1.0039  0.8346  0.6344
16332TIP3    H270488   0.126   6.210   2.059  0.6210 -0.6159  1.5061
16333TIP3   OH270489   5.835   4.846   3.144 -0.0357  0.3467  0.4870
16333TIP3    H170490   5.746   4.877   3.125 -0.0497  1.4654  2.1786
16333TIP3    H270491   5.828   4.750   3.138 -1.3890  0.4053  0.7491
16334TIP3   OH270492   1.184   5.604  15.249  0.4045  0.4201  0.4906
16334TIP3    H170493   1.119   5.634  15.187 -0.4324  0.4479  1.3554
16334TIP3    H270494   1.134   5.563  15.319  1.2675  0.9142  1.4363
16335TIP3   OH270495   3.631   0.626   3.508  0.5133 -0.0953  0.6952
16335TIP3    H170496   3.542   0.604   3.480  0.5992 -1.6833  1.5403
16335TIP3    H270497   3.682   0.629   3.428  0.1475 -1.4953  0.3858
16336TIP3   OH270498   0.304   5.802  14.159 -0.4719 -0.4078 -0.1563
16336TIP3    H170499   0.386   5.752  14.161 -0.1198  0.1580  2.5568
16336TIP3    H270500   0.237   5.738  14.183 -0.8004 -0.7294 -1.7993
16337TIP3   OH270501   0.017   1.218   4.183  0.1573  0.0846 -0.3842
16337TIP3    H170502  -0.075   1.191   4.182 -0.9649  3.3070  2.1768
16337TIP3    H270503   0.016   1.307   4.148  2.7357 -0.5484 -2.3944
16338TIP3   OH270504   1.591   5.300  14.758  0.1526 -0.7581 -0.5596
16338TIP3    H170505   1.530   5.257  14.818  0.0865  1.5958  1.2177
16338TIP3    H270506   1.559   5.390  14.752  3.0174  0.4249 -0.0467
16339TIP3   OH270507   6.056   6.255   2.756 -0.2808  0.2328 -0.5507
16339TIP3    H170508   6.022   6.177   2.799 -0.3437 -0.2531 -1.4584
16339TIP3    H270509   6.091   6.308   2.827 -1.4410 -0.0082  0.2367
16340TIP3   OH270510   2.695   3.838  15.160  0.3538  0.2384 -0.1875
16340TIP3    H170511   2.700   3.755  15.208  0.2924  0.7191  0.6755
16340TIP3    H270512   2.776   3.840  15.108  1.9015  0.9879  2.0811
16341TIP3   OH270513   1.026   3.349   1.933  0.4204 -0.1002  0.1241
16341TIP3    H170514   1.083   3.276   1.958 -0.0614 -0.0674  1.4294
16341TIP3    H270515   1.068   3.426   1.972 -0.8147 -0.1607  1.7062
16342TIP3   OH270516   0.953   3.550   0.567 -0.3068 -0.1290  0.0601
16342TIP3    H170517   0.916   3.633   0.598  0.2729 -0.4355  1.7191
16342TIP3    H270518   0.901   3.527   0.491  0.3492  2.4033 -1.2723
16343TIP3   OH270519   1.727   2.226  13.166  0.0284 -0.5836  0.0239
16343TIP3    H170520   1.807   2.276  13.183 -1.2345  1.6464 -0.3212
16343TIP3    H270521   1.721   2.165  13.240  1.1631  0.3886  0.9602
16344TIP3   OH270522   4.020   2.504   5.217 -0.2780  0.0350 -0.2090
16344TIP3    H170523   4.114   2.506   5.202 -0.1754 -0.1153  0.3802
16344TIP3    H270524   3.996   2.412   5.206 -0.3725  0.0858 -0.4387
16345TIP3   OH270525   2.682   0.335   2.541  0.0804 -0.4517 -0.4525
16345TIP3    H170526   2.619   0.407   2.543 -0.3978 -0.8830  0.1259
16345TIP3    H270527   2.723   0.337   2.627 -0.3519 -1.2393 -0.2271
16346TIP3   OH270528   4.660   0.018   5.194  0.4050 -0.1800  0.1930
16346TIP3    H170529   4.710  -0.063   5.191 -0.7994 -0.9357 -1.3311
16346TIP3    H270530   4.721   0.084   5.226  0.9361 -1.9773  3.2352
16347TIP3   OH270531   0.939   4.931   5.784  0.1465 -0.6360 -0.3139
16347TIP3    H170532   0.986   4.929   5.867  2.4980 -2.2301 -1.5914
16347TIP3    H270533   0.970   4.854   5.736 -1.2830  0.1063 -2.6082
16348TIP3   OH270534   5.121   6.529   1.249  0.1158 -0.5231 -0.3064
16348TIP3    H170535   5.119   6.536   1.153  0.2734 -0.6318 -0.3179
16348TIP3    H270536   5.101   6.618   1.279 -1.9354 -0.8899 -0.4184
16349TIP3   OH270537   5.629   4.906   4.021  0.1016  0.2033  0.1570
16349TIP3    H170538   5.645   4.814   4.003  0.3060  0.4952 -1.2856
16349TIP3    H270539   5.555   4.906   4.081 -0.0643 -0.8956 -0.0260
16350TIP3   OH270540   3.745   6.813  13.888 -0.5067 -0.5499  0.6170
16350TIP3    H170541   3.833   6.779  13.874 -2.1390 -4.1488 -2.7469
16350TIP3    H270542   3.705   6.751  13.950 -1.1079  0.2645  1.0651
16351TIP3   OH270543   0.127   3.788   3.534 -0.1784 -0.2921  0.4553
16351TIP3    H170544   0.156   3.699   3.554  0.3853 -0.7428 -2.0010
16351TIP3    H270545   0.204   3.842   3.549 -0.6194 -0.0926  2.3028
16352TIP3   OH270546   4.111   3.953  12.480 -0.1178 -0.0295 -0.1319
16352TIP3    H170547   4.050   3.908  12.539 -0.3931  0.6894  0.1540
16352TIP3    H270548   4.161   4.011  12.538  0.3325 -0.0787 -0.4679
16353TIP3   OH270549   4.166   0.694  12.017 -0.0641  0.2243 -0.6452
16353TIP3    H170550   4.183   0.745  11.938 -1.3692 -1.5284 -2.1681
16353TIP3    H270551   4.074   0.667  12.008 -0.2915  0.0706  1.5649
16354TIP3   OH270552   0.469   3.332   2.816  0.8907 -0.4748 -0.0120
16354TIP3    H170553   0.495   3.420   2.789  0.7510 -0.6870 -0.8505
16354TIP3    H270554   0.539   3.303   2.875  1.1611  0.0195 -0.0861
16355TIP3   OH270555   5.823   5.203  12.247 -0.0440 -0.1180  0.6950
16355TIP3    H170556   5.862   5.170  12.166  0.8628 -0.1618  1.1342
16355TIP3    H270557   5.737   5.161  12.251  0.0813 -0.4565 -0.0224
16356TIP3   OH270558   2.374   0.624   4.209 -0.7610  0.1345 -0.1336
16356TIP3    H170559   2.443   0.587   4.265 -0.7211 -1.9222 -1.4310
16356TIP3    H270560   2.418   0.644   4.127 -1.7657 -1.9091 -1.2504
16357TIP3   OH270561   0.546   6.907  15.040 -0.0443  0.7410 -0.0789
16357TIP3    H170562   0.540   6.942  15.129 -0.6796 -1.2819  0.7368
16357TIP3    H270563   0.461   6.925  15.001 -0.7380 -0.6932  0.6915
16358TIP3   OH270564   2.125   3.804  13.355  0.0146 -0.2946  0.0451
16358TIP3    H170565   2.084   3.861  13.289  1.5130 -0.0491 -0.7152
16358TIP3    H270566   2.077   3.721  13.347 -0.6038  0.1029 -0.5330
16359TIP3   OH270567   7.113   4.687   1.570 -0.2787  0.5726 -0.1570
16359TIP3    H170568   7.055   4.760   1.591 -1.1511  0.4497 -1.9956
16359TIP3    H270569   7.143   4.704   1.481  1.4827 -0.0788  0.2610
16360TIP3   OH270570   6.918   3.747   2.814  0.0738 -0.0331  0.0536
16360TIP3    H170571   6.921   3.682   2.885 -1.2302  0.3061  0.4473
16360TIP3    H270572   6.844   3.720   2.760 -0.2855  0.9447  0.0431
16361TIP3   OH270573   3.018   2.989   1.183 -0.0576  0.3508  0.0009
16361TIP3    H170574   3.060   2.962   1.101  0.1032 -1.4993  0.6282
16361TIP3    H270575   2.924   2.982   1.165 -0.0186 -0.8437  0.1875
16362TIP3   OH270576   2.866   4.831   4.830 -0.4857 -0.3522 -0.5727
16362TIP3    H170577   2.907   4.917   4.825  1.9070 -1.3770  0.1212
16362TIP3    H270578   2.865   4.799   4.740  1.0964 -0.6352 -0.5206
16363TIP3   OH270579   1.652   1.772   0.393 -0.7004 -0.4506 -0.4465
16363TIP3    H170580   1.742   1.806   0.390 -0.4067 -1.1867 -0.2764
16363TIP3    H270581   1.604   1.824   0.329 -0.5412  1.0546  0.6084
16364TIP3   OH270582   6.816   3.366   5.006 -0.3538 -0.2344  0.8482
16364TIP3    H170583   6.787   3.454   5.029  0.5889  1.2351 -2.7694
16364TIP3    H270584   6.908   3.362   5.034 -0.5492 -0.2795  1.4868
16365TIP3   OH270585   5.815   7.037   3.376 -0.3353 -0.1432 -0.5780
16365TIP3    H170586   5.899   6.995   3.397 -0.4901 -0.5929 -0.8450
16365TIP3    H270587   5.838   7.105   3.313  0.0073  0.6167  0.3508
16366TIP3   OH270588   6.388   5.650   4.054  0.1990  0.1134 -0.4333
16366TIP3    H170589   6.403   5.719   4.119 -0.6390  0.8526 -0.9971
16366TIP3    H270590   6.467   5.596   4.058 -0.4725 -0.8422  2.3464
16367TIP3   OH270591   5.093   3.743   4.409  0.6895 -0.8020 -0.6893
16367TIP3    H170592   5.054   3.716   4.326 -0.4986 -0.6018 -0.2248
16367TIP3    H270593   5.021   3.786   4.456  1.0522 -1.7605  0.8195
16368TIP3   OH270594   2.910   5.291   0.101  0.6549  0.3621 -0.0164
16368TIP3    H170595   2.853   5.295   0.178  1.4464 -1.9450  0.7667
16368TIP3    H270596   2.919   5.382   0.073  0.1459  1.2594  2.4867
16369TIP3   OH270597   4.232   5.480   3.252 -0.4852  0.4794 -0.1017
16369TIP3    H170598   4.241   5.565   3.294  0.4080  0.2557  0.1642
16369TIP3    H270599   4.180   5.497   3.173 -1.3930  1.0516  0.6003
16370TIP3   OH270600   4.955   6.960   3.361  0.3283  0.4373 -0.5134
16370TIP3    H170601   4.966   6.907   3.440 -2.2965  0.3138 -0.1479
16370TIP3    H270602   4.938   7.048   3.393 -2.4599  0.0890 -0.7287
16371TIP3   OH270603   5.264   5.527   4.356  0.0557  0.2002  0.2564
16371TIP3    H170604   5.358   5.518   4.341 -0.3891 -0.9106 -2.6942
16371TIP3    H270605   5.245   5.619   4.336  0.2695 -0.0538 -1.2208
16372TIP3   OH270606   4.778   4.332   0.288  0.0296  0.0359  0.2901
16372TIP3    H170607   4.728   4.314   0.208 -1.9957  1.0239  1.2533
16372TIP3    H270608   4.796   4.246   0.325 -1.9252 -0.3728  0.4220
16373TIP3   OH270609   1.549   4.864  15.263 -0.6684  0.7588 -0.1399
16373TIP3    H170610   1.518   4.775  15.277  1.2145 -0.1014 -1.0529
16373TIP3    H270611   1.542   4.906  15.349 -0.2322 -0.7170  0.6469
16374TIP3   OH270612   4.143   0.229  10.819  0.1823  0.5681 -0.1468
16374TIP3    H170613   4.160   0.151  10.766 -0.1908 -1.0904  2.0399
16374TIP3    H270614   4.051   0.249  10.805  0.0803  0.1259 -0.1105
16375TIP3   OH270615   6.109   5.985   0.228 -0.2679 -0.1226 -0.0380
16375TIP3    H170616   6.173   6.013   0.163 -0.1777  2.0467  0.8938
16375TIP3    H270617   6.031   6.037   0.208 -1.1682 -1.4432 -0.0743
16376TIP3   OH270618   1.574   7.183   3.206 -0.1117  0.1282  0.3290
16376TIP3    H170619   1.529   7.210   3.125  0.7757  1.3576  0.2191
16376TIP3    H270620   1.521   7.110   3.239 -1.2732  0.4897 -0.6350
16377TIP3   OH270621   6.643   6.650   1.038 -0.4210 -0.6922 -0.0389
16377TIP3    H170622   6.669   6.560   1.020 -0.1872 -0.3055 -1.8926
16377TIP3    H270623   6.551   6.644   1.064 -0.9942 -1.3296 -2.0590
16378TIP3   OH270624   3.069   3.250   4.918 -0.4361 -0.5047 -0.1377
16378TIP3    H170625   3.119   3.169   4.910 -1.9939 -1.4681 -0.3769
16378TIP3    H270626   3.109   3.294   4.994 -0.4648 -2.1548  0.8904
16379TIP3   OH270627   2.656   6.397   5.708  0.0847  0.7020  0.0925
16379TIP3    H170628   2.727   6.452   5.674 -0.0535  0.3064 -0.8650
16379TIP3    H270629   2.700   6.317   5.738 -0.2232 -1.4803 -4.4641
16380TIP3   OH270630   0.784   5.514   1.322 -0.2347  0.2967  0.4842
16380TIP3    H170631   0.805   5.448   1.388 -1.7247 -1.0138 -0.2816
16380TIP3    H270632   0.699   5.486   1.287  0.1855  1.3481 -1.4880
16381TIP3   OH270633   7.043   4.238  13.448  0.4922 -0.0836  0.5406
16381TIP3    H170634   7.052   4.324  13.490  0.6756 -0.1822  0.7044
16381TIP3    H270635   7.132   4.214  13.422  0.3909 -0.0614  0.1688
16382TIP3   OH270636   2.304   6.867   2.169  0.3996 -0.2354  0.5262
16382TIP3    H170637   2.287   6.800   2.103 -0.6465  0.9620 -0.4719
16382TIP3    H270638   2.400   6.870   2.176  0.6222  0.5622 -1.9788
16383TIP3   OH270639   5.668   6.243   1.372 -0.0545 -0.2252  0.2188
16383TIP3    H170640   5.704   6.290   1.447  1.3710 -0.3161 -0.3709
16383TIP3    H270641   5.602   6.185   1.409  1.4851 -1.1849  1.5983
16384TIP3   OH270642   3.073   2.588  13.717 -0.1488  0.2858  0.5347
16384TIP3    H170643   3.057   2.612  13.809 -0.1505 -2.4228  1.3390
16384TIP3    H270644   2.987   2.595  13.676 -0.5255 -0.1981  1.2110
16385TIP3   OH270645   1.595   0.131   3.414 -0.1291  0.2666  0.1424
16385TIP3    H170646   1.605   0.066   3.344  0.8062  0.7575 -0.1947
16385TIP3    H270647   1.685   0.155   3.437 -0.4475  0.6890  0.9755
16386TIP3   OH270648   1.847   3.017   3.793  0.2164  0.6421  0.7159
16386TIP3    H170649   1.852   2.962   3.871  2.1448 -0.0042  0.1768
16386TIP3    H270650   1.892   3.098   3.818  1.6043  0.1032  0.0415
16387TIP3   OH270651   2.709   6.134   4.300  0.2574  0.0813  0.3416
16387TIP3    H170652   2.718   6.091   4.385  2.2010 -1.9819 -0.8105
16387TIP3    H270653   2.795   6.127   4.259 -1.1285 -1.0927 -2.7340
16388TIP3   OH270654   4.528   5.910   5.655 -0.4878  0.3445  0.1501
16388TIP3    H170655   4.480   5.961   5.590  2.8523  1.6236 -1.5274
16388TIP3    H270656   4.587   5.972   5.697  0.7618 -1.3600  1.0791
16389TIP3   OH270657   4.639   6.549  13.694 -0.1703  0.4252  0.1738
16389TIP3    H170658   4.665   6.497  13.770  1.6890  0.5927 -0.3146
16389TIP3    H270659   4.554   6.586  13.719 -1.6893 -2.9156  0.4808
16390TIP3   OH270660   0.849   4.609   0.000 -0.1355  0.4100  0.6161
16390TIP3    H170661   0.779   4.674   0.012  0.4771  1.3891 -0.8829
16390TIP3    H270662   0.838   4.578  -0.090  1.5482  0.8359  0.2361
16391TIP3   OH270663   5.955   2.315  12.177  0.3226 -0.5197  0.5061
16391TIP3    H170664   6.021   2.357  12.122 -0.3032 -0.2939 -0.0906
16391TIP3    H270665   5.915   2.386  12.226  0.6021 -0.6719  0.9649
16392TIP3   OH270666   6.823   3.093   3.703 -0.5166 -0.1459 -0.4180
16392TIP3    H170667   6.793   3.073   3.792 -0.0793  0.4852 -0.1208
16392TIP3    H270668   6.774   3.033   3.647 -0.9226 -0.4326  0.2341
16393TIP3   OH270669   4.626   3.893   2.441  0.3196 -0.0214  0.5717
16393TIP3    H170670   4.590   3.829   2.503  0.2509  0.5592  1.1439
16393TIP3    H270671   4.608   3.978   2.482  2.5775  0.2916  1.0460
16394TIP3   OH270672   6.022   6.279   3.982 -0.2533 -0.6049  0.2477
16394TIP3    H170673   6.026   6.243   3.894 -1.1995 -1.1226  0.4036
16394TIP3    H270674   5.969   6.359   3.973  0.1647 -0.3214  0.2502
16395TIP3   OH270675   0.382   6.192   3.753  0.5601 -0.3065 -0.2242
16395TIP3    H170676   0.288   6.195   3.769  0.3338  3.9378 -1.1258
16395TIP3    H270677   0.390   6.162   3.662 -0.3049  2.6857 -1.3765
16396TIP3   OH270678   0.427   5.483   0.010 -0.3199  0.0760 -0.1748
16396TIP3    H170679   0.516   5.516  -0.003  1.4729 -3.4617  1.7981
16396TIP3    H270680   0.373   5.562   0.015  2.8184  2.4325 -0.4169
16397TIP3   OH270681   6.789   6.799   5.155  0.1866  0.3334 -0.0076
16397TIP3    H170682   6.767   6.882   5.111 -1.0580 -0.6721 -1.3687
16397TIP3    H270683   6.870   6.770   5.114 -0.7296 -0.3708 -1.3876
16398TIP3   OH270684   0.813   2.110   3.142  0.1760 -0.0844 -0.0517
16398TIP3    H170685   0.770   2.032   3.179 -1.9119 -0.0541 -2.2223
16398TIP3    H270686   0.759   2.135   3.068  2.2365  1.9549 -0.9961
16399TIP3   OH270687   2.751   3.287   0.865  0.2990  0.1428  0.5783
16399TIP3    H170688   2.796   3.206   0.889 -0.0273 -0.0961  0.4026
16399TIP3    H270689   2.674   3.290   0.923 -2.2063 -1.9958 -2.2693
16400TIP3   OH270690   6.846   6.730   0.771  0.8670  0.3468 -0.3536
16400TIP3    H170691   6.768   6.746   0.823  1.2687 -1.7858  1.0323
16400TIP3    H270692   6.918   6.730   0.834  1.7473  0.4967 -1.3290
16401TIP3   OH270693   3.915   3.403   1.391  0.3329  0.0762  0.2841
16401TIP3    H170694   3.913   3.496   1.416 -0.2938  0.6214 -1.5851
16401TIP3    H270695   4.005   3.390   1.359  0.0659  0.4086 -0.6370
16402TIP3   OH270696   6.297   1.825  13.937 -0.0420  0.1431 -0.4510
16402TIP3    H170697   6.207   1.792  13.939  0.8176 -2.3635 -0.0037
16402TIP3    H270698   6.307   1.872  14.020 -0.8895  0.3479 -0.4525
16403TIP3   OH270699   0.748   0.273   4.646 -0.3475  0.5116 -0.3181
16403TIP3    H170700   0.739   0.278   4.741 -0.3977 -0.9231 -0.2146
16403TIP3    H270701   0.807   0.344   4.623 -0.0475  0.6550  0.8337
16404TIP3   OH270702   3.693   7.119   0.956  0.0125  0.6265  0.7475
16404TIP3    H170703   3.677   7.051   1.021 -0.7819 -2.6399 -2.5106
16404TIP3    H270704   3.627   7.103   0.888  1.8993  2.5743 -1.7484
16405TIP3   OH270705   6.941   5.635   1.576  0.0477  0.2934 -0.3835
16405TIP3    H170706   7.014   5.583   1.542 -0.9141 -1.5619  0.2403
16405TIP3    H270707   6.945   5.621   1.671  0.2633  2.0911 -0.1025
16406TIP3   OH270708   3.050   2.431   0.532  0.3483  0.7868  0.2780
16406TIP3    H170709   3.052   2.402   0.441 -0.8289  0.4660  0.3380
16406TIP3    H270710   3.139   2.417   0.564  1.0358  1.7812 -1.0836
16407TIP3   OH270711   7.001   5.132   0.483 -0.1093  0.3017  0.1270
16407TIP3    H170712   7.033   5.124   0.572  0.5109 -0.6256 -0.1617
16407TIP3    H270713   6.930   5.196   0.488  0.6358  1.0814  1.0907
16408TIP3   OH270714   3.441   0.017   3.725 -0.4597  0.0403 -0.4189
16408TIP3    H170715   3.366  -0.034   3.695 -0.0270 -0.3758 -0.8275
16408TIP3    H270716   3.471  -0.029   3.804 -0.5514  0.1298 -0.3314
16409TIP3   OH270717   6.381   0.643   3.232  0.5433  0.4466 -0.3940
16409TIP3    H170718   6.446   0.603   3.174 -0.0441 -0.1309 -0.6774
16409TIP3    H270719   6.321   0.690   3.173 -1.7159 -2.4531 -0.6506
16410TIP3   OH270720   2.159   5.590  13.270 -0.5589  0.0613 -0.0429
16410TIP3    H170721   2.151   5.517  13.332 -1.1249 -0.0286 -0.2138
16410TIP3    H270722   2.086   5.648  13.292  0.1757  0.8417  0.4236
16411TIP3   OH270723   6.736   1.956   4.717  0.0856 -0.1690 -0.1869
16411TIP3    H170724   6.747   1.861   4.715  1.3372 -0.0319 -2.3069
16411TIP3    H270725   6.729   1.977   4.811 -1.7463 -2.4581  0.2646
16412TIP3   OH270726   0.819   3.003   0.190  0.1456 -0.5071 -0.5649
16412TIP3    H170727   0.735   3.025   0.232  0.0679  0.3295 -1.1355
16412TIP3    H270728   0.842   2.917   0.226 -0.0268  0.0788  1.0236
16413TIP3   OH270729   1.208   6.402   5.554 -0.0534 -0.0605 -0.4002
16413TIP3    H170730   1.155   6.359   5.486  1.5005 -1.7627 -0.6053
16413TIP3    H270731   1.155   6.395   5.633 -0.9385 -0.0268 -0.9696
16414TIP3   OH270732   0.240   5.406   2.942 -0.3496 -0.2761 -0.0489
16414TIP3    H170733   0.229   5.497   2.971 -1.0681 -0.4257  0.1588
16414TIP3    H270734   0.270   5.414   2.852 -1.5999  0.1749 -0.4461
16415TIP3   OH270735   6.694   2.692   3.342  0.3028 -0.6620  0.1328
16415TIP3    H170736   6.727   2.693   3.253  1.5852  2.2443  0.5336
16415TIP3    H270737   6.773   2.686   3.397 -0.4209 -1.7167  1.1267
16416TIP3   OH270738   1.785   6.884   2.614  0.2112 -0.2009 -0.1415
16416TIP3    H170739   1.764   6.919   2.700 -1.8967 -0.7855 -0.3812
16416TIP3    H270740   1.791   6.962   2.558 -2.2005  0.0074 -0.2065
16417TIP3   OH270741   7.027   2.658   1.871  0.8757 -0.3125  0.3859
16417TIP3    H170742   6.998   2.745   1.845  2.4821 -0.0348 -0.6642
16417TIP3    H270743   6.978   2.598   1.813 -0.4429 -0.1640  1.3065
16418TIP3   OH270744   2.343   7.171   1.269  0.5316  0.1915 -0.6015
16418TIP3    H170745   2.409   7.236   1.246  0.8060  0.3317  0.4966
16418TIP3    H270746   2.366   7.094   1.216  1.2229  0.4357 -0.6702
16419TIP3   OH270747   1.173   6.439   0.776  0.5110 -0.5541  0.0568
16419TIP3    H170748   1.117   6.465   0.702  0.5547  0.2255  0.2885
16419TIP3    H270749   1.217   6.520   0.802  0.6610 -0.8696  0.8008
16420TIP3   OH270750   0.047   3.089  13.386  0.0223 -0.2514  0.9069
16420TIP3    H170751   0.090   3.084  13.471  2.0181  0.8236  0.0358
16420TIP3    H270752   0.057   3.181  13.359  0.7449 -0.8591 -1.0853
16421TIP3   OH270753   5.884   6.792   4.831 -0.1681  0.2286  0.3045
16421TIP3    H170754   5.815   6.857   4.839 -0.0922  0.2859  0.4974
16421TIP3    H270755   5.920   6.784   4.919 -1.7114 -1.7739  0.8302
16422TIP3   OH270756   0.785   1.646   4.162 -0.1372  0.4189  0.3587
16422TIP3    H170757   0.754   1.570   4.210 -0.5208  0.1956 -0.2392
16422TIP3    H270758   0.880   1.647   4.177 -0.1198 -0.2213  0.3069
16423TIP3   OH270759   4.604   6.034   4.666  0.1552  0.2631  0.5473
16423TIP3    H170760   4.693   6.029   4.703  1.3262  2.0024 -1.7739
16423TIP3    H270761   4.573   6.121   4.692  0.9237  1.4414 -2.1867
16424TIP3   OH270762   2.226   4.540   2.225  0.7747 -0.1567  0.0878
16424TIP3    H170763   2.283   4.506   2.294 -0.8102 -0.1981  1.4388
16424TIP3    H270764   2.138   4.523   2.256 -0.0221  1.2635 -1.2302
16425TIP3   OH270765   4.427   1.545   5.675 -0.3419  0.2235 -0.6533
16425TIP3    H170766   4.376   1.472   5.640 -0.7341  0.0348  0.2794
16425TIP3    H270767   4.362   1.600   5.718 -0.3454  2.1364 -2.9131
16426TIP3   OH270768   0.982   0.362   3.253 -0.4066 -0.4161  0.1026
16426TIP3    H170769   0.948   0.435   3.202  2.3298  0.8091 -0.1649
16426TIP3    H270770   1.023   0.304   3.189 -2.8244 -2.4948  0.2650
16427TIP3   OH270771   0.237   4.770   4.449 -0.2257  0.8522 -0.2840
16427TIP3    H170772   0.241   4.677   4.428  0.0389  1.2938 -2.3790
16427TIP3    H270773   0.194   4.773   4.534  0.9415 -1.2474  0.4579
16428TIP3   OH270774   4.065   2.941   2.922 -0.2466  0.5045 -0.3198
16428TIP3    H170775   4.051   2.984   3.006  3.0709  0.7605  0.2209
16428TIP3    H270776   4.060   2.848   2.941  0.4413  0.5610  0.2001
16429TIP3   OH270777   6.999   2.519   0.727  0.3377 -0.3769 -0.3265
16429TIP3    H170778   7.052   2.470   0.664  2.6304  1.1803  0.2709
16429TIP3    H270779   7.063   2.553   0.790 -1.2319  2.5218 -0.1646
16430TIP3   OH270780   5.730   2.417   4.186 -0.1728 -0.4570 -0.0551
16430TIP3    H170781   5.702   2.367   4.109  2.5048 -0.8281 -0.9084
16430TIP3    H270782   5.742   2.506   4.154 -1.1127 -0.1227  0.4897
16431TIP3   OH270783   1.951   6.874  12.793 -0.1632  0.0328  0.2755
16431TIP3    H170784   1.880   6.815  12.765 -0.3772  0.0554  0.7612
16431TIP3    H270785   2.025   6.850  12.738 -1.1874  1.5916 -1.9434
16432TIP3   OH270786   2.646   6.688   5.346 -0.3300 -0.2949  0.6237
16432TIP3    H170787   2.712   6.656   5.284  0.6207  1.4405  0.6734
16432TIP3    H270788   2.568   6.635   5.327  0.1278 -0.2735 -1.6170
16433TIP3   OH270789   1.331   5.690   1.061 -0.2369  0.2484 -0.1582
16433TIP3    H170790   1.307   5.770   1.015  0.4175  0.2561 -0.5002
16433TIP3    H270791   1.376   5.721   1.140  2.0111  0.2634 -1.3443
16434TIP3   OH270792   0.190   1.479   3.401  0.2727 -0.1612  0.4428
16434TIP3    H170793   0.122   1.442   3.345  0.0331 -2.0898  1.9114
16434TIP3    H270794   0.261   1.415   3.397  0.8352  0.4007  1.1893
16435TIP3   OH270795   3.818   5.054   4.695  0.2806 -0.1779 -0.1406
16435TIP3    H170796   3.890   5.004   4.735 -0.5444 -0.0726  1.5567
16435TIP3    H270797   3.783   5.107   4.766 -0.6788  0.7352 -1.2442
16436TIP3   OH270798   2.881   0.468   3.298  0.6595 -0.6979 -0.4700
16436TIP3    H170799   2.899   0.400   3.364  0.4500  0.5594  0.9428
16436TIP3    H270800   2.926   0.545   3.331 -2.5015  1.0133  0.2464
16437TIP3   OH270801   3.908   6.704   2.610  0.4573  0.3872 -0.4996
16437TIP3    H170802   3.815   6.682   2.621  1.0105 -1.0705  1.9878
16437TIP3    H270803   3.928   6.761   2.684  1.2308  2.0137 -1.9006
16438TIP3   OH270804   2.775   6.585   4.610 -0.1506 -0.1358 -0.8330
16438TIP3    H170805   2.749   6.674   4.633  0.1786 -0.3026  0.1965
16438TIP3    H270806   2.715   6.528   4.659  1.1327 -0.4985  0.3837
16439TIP3   OH270807   5.359   6.366   5.182 -0.6549 -0.4542  0.3471
16439TIP3    H170808   5.329   6.365   5.091 -3.0311  2.1032  0.9674
16439TIP3    H270809   5.279   6.373   5.233  0.7425  1.3607  2.4615
16440TIP3   OH270810   2.721   1.416   2.941  0.2213  0.2189  0.4156
16440TIP3    H170811   2.776   1.345   2.908 -0.9744 -0.4764 -0.1817
16440TIP3    H270812   2.782   1.478   2.980  1.3510 -0.8821  0.4747
16441TIP3   OH270813   0.015   2.569  14.356 -0.1637  0.4416 -0.0398
16441TIP3    H170814  -0.052   2.520  14.403  0.2658 -0.3291 -0.2015
16441TIP3    H270815   0.081   2.590  14.422  1.7168 -2.8493 -0.6097
16442TIP3   OH270816   5.284   4.118   2.081  0.2579 -0.6191 -0.8066
16442TIP3    H170817   5.361   4.062   2.083  0.4862 -0.4352  2.6789
16442TIP3    H270818   5.318   4.207   2.079 -0.0257 -0.5198 -3.0887
16443TIP3   OH270819   5.619   1.562   3.485  0.2028 -0.1362  0.1055
16443TIP3    H170820   5.649   1.560   3.394  2.1339 -0.2505  0.6857
16443TIP3    H270821   5.599   1.655   3.501 -0.2446 -0.1272 -0.4424
16444TIP3   OH270822   4.354   4.398   2.076 -0.2686 -0.0061  0.1948
16444TIP3    H170823   4.419   4.404   2.007 -0.6891 -1.0431 -0.3144
16444TIP3    H270824   4.335   4.489   2.099  0.9144  0.3160 -0.0500
16445TIP3   OH270825   3.573   3.336   2.191 -0.5800 -0.4090  0.2552
16445TIP3    H170826   3.546   3.274   2.259  1.5939 -1.3676  0.3491
16445TIP3    H270827   3.505   3.331   2.124 -1.6659 -1.0647  1.3699
16446TIP3   OH270828   4.602   4.174   2.189  0.0628 -0.6401  0.1928
16446TIP3    H170829   4.634   4.175   2.098 -0.7163 -1.1128 -0.0921
16446TIP3    H270830   4.682   4.173   2.242  0.5402  0.2115 -0.4700
16447TIP3   OH270831   4.177   5.330   3.764 -0.4966 -0.5081 -0.0579
16447TIP3    H170832   4.179   5.409   3.817 -1.2782 -1.9100  2.2258
16447TIP3    H270833   4.105   5.344   3.702  0.2393  1.0497 -0.6181
16448TIP3   OH270834   2.870   1.535   5.552  0.1356  0.2692 -0.7834
16448TIP3    H170835   2.923   1.552   5.630  0.8886 -1.0298 -0.9794
16448TIP3    H270836   2.902   1.598   5.488  0.9134  0.0389 -0.6412
16449TIP3   OH270837   1.919   2.798  13.800 -0.3937 -0.3823  0.4089
16449TIP3    H170838   1.874   2.720  13.769 -2.6125  0.8521  0.3250
16449TIP3    H270839   1.902   2.864  13.733  0.7498  0.3996  0.8623
16450TIP3   OH270840   5.017   4.034   0.894 -0.2373 -0.0894  0.3083
16450TIP3    H170841   5.096   4.088   0.891 -0.7028  0.5584 -0.8888
16450TIP3    H270842   5.023   3.978   0.817 -0.5019 -0.6902  0.7173
16451TIP3   OH270843   5.966   3.692   1.329 -0.2936 -0.0607 -0.4291
16451TIP3    H170844   6.027   3.688   1.402  0.1804  0.4918 -0.7880
16451TIP3    H270845   5.886   3.731   1.366  0.7540  2.5313 -0.7144
16452TIP3   OH270846   6.338   0.032  12.021 -0.3272 -0.1856 -0.2600
16452TIP3    H170847   6.387  -0.042  12.057 -0.2509 -0.1994 -0.3920
16452TIP3    H270848   6.350   0.102  12.086 -2.6944 -1.0908  1.3011
16453TIP3   OH270849   4.700   4.617   1.168  0.4916  0.6040 -0.1278
16453TIP3    H170850   4.742   4.679   1.108  0.3037  1.5628  0.7154
16453TIP3    H270851   4.644   4.671   1.224 -0.3295 -0.4228  0.0802
16454TIP3   OH270852   4.751   0.244   4.287  0.8689 -0.3737  0.0225
16454TIP3    H170853   4.702   0.244   4.370  0.9740 -1.2748  0.0965
16454TIP3    H270854   4.763   0.336   4.266 -0.5470 -0.1371  0.1912
16455TIP3   OH270855   3.510   1.574  14.670 -0.3425 -0.0484  0.1040
16455TIP3    H170856   3.565   1.651  14.656  1.8133 -1.5094  0.1959
16455TIP3    H270857   3.493   1.540  14.582  0.7175 -0.7945  0.1735
16456TIP3   OH270858   0.165   5.945   1.512  0.1010 -0.5923  0.2253
16456TIP3    H170859   0.232   5.878   1.530 -0.8727 -1.5377  0.4470
16456TIP3    H270860   0.204   5.999   1.443  0.9945 -1.2702  0.1722
16457TIP3   OH270861   6.441   0.809  12.349 -0.3075  0.2181  0.4884
16457TIP3    H170862   6.424   0.892  12.305  1.9160  0.2169 -0.5373
16457TIP3    H270863   6.444   0.831  12.442 -0.7813  1.0733  0.3103
16458TIP3   OH270864   0.508   6.490   3.277 -0.6459 -0.6178  0.2183
16458TIP3    H170865   0.601   6.472   3.262 -0.5473  0.7731 -1.0769
16458TIP3    H270866   0.505   6.584   3.297 -1.7124 -0.7968  0.9840
16459TIP3   OH270867   6.808   5.787   3.821  0.5892  0.0424  0.1629
16459TIP3    H170868   6.751   5.749   3.754  1.2808 -0.2520 -0.2816
16459TIP3    H270869   6.813   5.880   3.798 -1.7402  0.6232  1.7164
16460TIP3   OH270870   0.762   5.851   3.859  0.3351 -0.7322  0.0701
16460TIP3    H170871   0.700   5.924   3.858 -0.3576 -1.2889  0.9084
16460TIP3    H270872   0.841   5.887   3.899  1.3322  0.5370 -2.7506
16461TIP3   OH270873   6.228   0.156   4.017  0.9247  0.0270 -0.5166
16461TIP3    H170874   6.135   0.169   4.032  0.7324 -1.7650  0.1054
16461TIP3    H270875   6.270   0.187   4.097  0.6640 -0.9968  0.0393
16462TIP3   OH270876   0.315   0.121   4.077 -0.2579  0.3334 -0.5708
16462TIP3    H170877   0.337   0.117   4.170  2.8791 -0.0723 -1.2239
16462TIP3    H270878   0.327   0.031   4.046 -1.5340  0.4087 -1.3599
16463TIP3   OH270879   4.580   6.883  10.426 -0.0590 -0.0757  0.0826
16463TIP3    H170880   4.504   6.905  10.373  0.8400 -0.1524 -1.2777
16463TIP3    H270881   4.633   6.825  10.371  0.9297 -0.1356  1.0452
16464TIP3   OH270882   3.568   0.533  14.131 -0.3175 -0.2430 -0.2215
16464TIP3    H170883   3.557   0.466  14.064 -0.9886  1.1652 -1.5600
16464TIP3    H270884   3.569   0.616  14.083  1.0257  0.7078  1.3269
16465TIP3   OH270885   0.330   3.309  12.038 -0.2427  0.1209  0.1192
16465TIP3    H170886   0.290   3.238  11.987  1.0781 -0.1623 -0.5705
16465TIP3    H270887   0.380   3.359  11.974  2.2017 -0.7637  1.2359
16466TIP3   OH270888   1.862   5.970   4.474 -0.4290 -0.0165  0.1086
16466TIP3    H170889   1.790   5.944   4.417 -0.4521 -0.9480  0.5469
16466TIP3    H270890   1.934   5.910   4.452 -0.3582 -0.2262  0.8757
16467TIP3   OH270891   0.645   6.295   1.382  0.2321 -0.7494 -0.2648
16467TIP3    H170892   0.592   6.329   1.454 -0.2576 -1.7261 -0.1506
16467TIP3    H270893   0.722   6.352   1.380 -0.0830 -0.2790  0.5758
16468TIP3   OH270894   1.027   4.654   2.941 -0.3576  0.1295 -0.2373
16468TIP3    H170895   1.039   4.741   2.979  2.8601  0.1322 -0.9987
16468TIP3    H270896   0.997   4.670   2.852 -0.9848  0.3728  0.0106
16469TIP3   OH270897   4.749   3.944  12.938 -0.2689 -0.2204 -0.1971
16469TIP3    H170898   4.745   3.921  12.845 -0.0199 -0.3107 -0.1860
16469TIP3    H270899   4.658   3.957  12.963 -0.4002 -1.0058 -0.2557
16470TIP3   OH270900   3.706   4.221  14.227 -0.2672  0.7380 -0.0783
16470TIP3    H170901   3.764   4.154  14.190  0.6430  1.0053  0.8160
16470TIP3    H270902   3.682   4.276  14.152  0.0414  0.1906 -0.5893
16471TIP3   OH270903   6.202   2.406   1.076 -0.5571  0.5630  0.4969
16471TIP3    H170904   6.210   2.413   1.171 -0.6045 -2.1469  0.7840
16471TIP3    H270905   6.108   2.412   1.059 -0.5416  1.1458  0.5930
16472TIP3   OH270906   4.005   5.972   0.433  0.4981  0.1154 -0.0994
16472TIP3    H170907   3.965   5.966   0.346 -1.1489  1.3338  0.5123
16472TIP3    H270908   4.045   6.059   0.435 -1.0240  0.8430  0.9191
16473TIP3   OH270909   1.543   6.762  13.190 -1.1796 -0.4090 -0.2776
16473TIP3    H170910   1.470   6.800  13.238 -0.4097  0.3343  0.3270
16473TIP3    H270911   1.594   6.837  13.160 -1.0547 -0.8982 -1.3272
16474TIP3   OH270912   4.957   5.042   4.568  0.0507  0.0806  0.5802
16474TIP3    H170913   5.044   5.011   4.543 -0.5092 -1.4154  0.3896
16474TIP3    H270914   4.943   5.005   4.655 -0.1185  0.9235  0.9180
16475TIP3   OH270915   1.350   1.373  14.710  0.4688 -0.0423  0.1654
16475TIP3    H170916   1.317   1.307  14.771  3.2972 -1.4056  0.3822
16475TIP3    H270917   1.310   1.349  14.626 -0.8115 -0.1981  0.7823
16476TIP3   OH270918   3.929   1.614  14.792  0.1689 -0.0820  0.5695
16476TIP3    H170919   3.876   1.691  14.773 -0.3277 -0.7370 -0.8248
16476TIP3    H270920   3.922   1.603  14.887 -0.7502  0.8650  0.6302
16477TIP3   OH270921   4.624   5.362  14.484  0.0441  0.6850 -0.1050
16477TIP3    H170922   4.659   5.421  14.417 -0.9322 -0.0229 -1.2696
16477TIP3    H270923   4.698   5.304  14.505  0.4837  1.1829 -0.2472
16478TIP3   OH270924   7.024   5.294  13.443 -0.0543 -0.0072  0.0801
16478TIP3    H170925   7.036   5.355  13.515  0.7651 -0.0325 -0.0277
16478TIP3    H270926   7.040   5.208  13.482  0.3508 -0.0236 -0.1162
16479TIP3   OH270927   3.644   6.928   1.115  0.3853  0.2346  0.3816
16479TIP3    H170928   3.611   6.917   1.205  0.0373 -1.4997  0.0720
16479TIP3    H270929   3.579   6.886   1.060  0.3792  1.6577 -0.7623
16480TIP3   OH270930   2.301   0.850   5.181  0.0084  0.0675 -0.1755
16480TIP3    H170931   2.246   0.774   5.162  1.3883 -0.7621 -1.0471
16480TIP3    H270932   2.329   0.837   5.272 -0.6179  0.0900  0.0206
16481TIP3   OH270933   3.874   2.965   4.242  0.1668  0.0339 -0.1965
16481TIP3    H170934   3.843   3.033   4.302  1.3087 -0.8924  1.5635
16481TIP3    H270935   3.799   2.945   4.187 -0.4959  1.9753 -0.0636
16482TIP3   OH270936   0.446   6.878   4.785 -0.2678 -0.4229  0.2749
16482TIP3    H170937   0.392   6.812   4.742  0.0341 -0.9808  0.7347
16482TIP3    H270938   0.384   6.928   4.838 -0.3382 -1.0761  0.8233
16483TIP3   OH270939   1.399   0.334   0.623  0.1721  0.4181 -0.2231
16483TIP3    H170940   1.388   0.309   0.715  2.3237  1.3125  0.3377
16483TIP3    H270941   1.346   0.413   0.614 -0.4348  0.0572  0.1194
16484TIP3   OH270942   0.294   5.938   3.051  0.1286  0.3844 -0.1778
16484TIP3    H170943   0.358   5.911   2.985 -0.8667  1.1566 -1.5231
16484TIP3    H270944   0.316   6.030   3.069 -0.1451  0.4376 -0.1096
16485TIP3   OH270945   5.677   6.985   0.933  0.5030 -0.1318  0.6016
16485TIP3    H170946   5.590   6.951   0.913  0.0435  0.2044  1.9335
16485TIP3    H270947   5.664   7.078   0.949  1.2777  0.1164 -0.1111
16486TIP3   OH270948   0.595   4.242   3.073 -0.5806  0.4405 -0.2960
16486TIP3    H170949   0.599   4.331   3.038  0.6838  0.0984 -1.1194
16486TIP3    H270950   0.676   4.201   3.042 -0.7000 -0.7188  0.8402
16487TIP3   OH270951   0.349   5.310   4.116 -0.5051 -0.2253 -0.0291
16487TIP3    H170952   0.426   5.364   4.100 -0.3935 -0.4696 -0.3329
16487TIP3    H270953   0.279   5.352   4.066 -0.8695  0.6786  1.1905
16488TIP3   OH270954   3.942   5.619   3.167  0.4283  0.3189 -0.1165
16488TIP3    H170955   3.996   5.696   3.186  0.4550  0.3234 -0.2128
16488TIP3    H270956   3.882   5.649   3.098 -0.7622  0.8105  1.0677
16489TIP3   OH270957   6.583   3.063  14.799 -0.0052 -0.1302 -0.0451
16489TIP3    H170958   6.497   3.038  14.765 -0.5519 -0.5091  1.5422
16489TIP3    H270959   6.629   2.981  14.813 -0.0422 -0.0245  0.7392
16490TIP3   OH270960   5.682   0.947   3.229 -0.6101 -0.3619  0.1809
16490TIP3    H170961   5.734   1.025   3.212  0.3799 -0.8998  0.6309
16490TIP3    H270962   5.595   0.967   3.193  0.0140  0.4001 -0.9632
16491TIP3   OH270963   6.917   1.719   1.108 -0.0597 -0.1320  0.4127
16491TIP3    H170964   6.863   1.642   1.126 -0.0235  0.0791  1.4446
16491TIP3    H270965   6.994   1.708   1.163  1.3414 -0.7913 -1.5565
16492TIP3   OH270966   7.047   2.769  12.910 -0.4540 -0.1428  0.4962
16492TIP3    H170967   7.078   2.691  12.864  0.3764  0.1258  0.5901
16492TIP3    H270968   7.087   2.763  12.997  0.9960  1.2504 -0.0544
16493TIP3   OH270969   6.482   5.422   1.550 -0.2155 -0.1345 -0.2585
16493TIP3    H170970   6.421   5.462   1.488  1.9747  1.6239 -1.4441
16493TIP3    H270971   6.514   5.496   1.602 -0.0803 -1.2188  1.2589
16494TIP3   OH270972   0.569   2.299  11.306  0.1314 -0.0231  0.0737
16494TIP3    H170973   0.555   2.337  11.219  1.8725 -0.8291 -0.5978
16494TIP3    H270974   0.622   2.365  11.352 -1.5391  0.8160  0.8931
16495TIP3   OH270975   6.928   1.693   4.393  0.4680 -0.2183  0.7863
16495TIP3    H170976   6.962   1.639   4.465  1.6257 -1.0132 -0.3305
16495TIP3    H270977   6.992   1.764   4.385  0.4394 -0.2360  0.4124
16496TIP3   OH270978   1.916   1.989   1.923  0.5902 -0.3122  0.1480
16496TIP3    H170979   1.838   2.010   1.975  0.4998 -0.3271  0.0189
16496TIP3    H270980   1.904   2.037   1.842 -0.2855 -1.8817 -0.7113
16497TIP3   OH270981   2.637   6.778  13.033  0.0073  0.0723 -0.1141
16497TIP3    H170982   2.597   6.849  13.083 -0.9234 -0.4798 -0.0262
16497TIP3    H270983   2.583   6.771  12.954 -0.9098 -1.5198  0.5955
16498TIP3   OH270984   2.267   7.067   4.726 -0.2896  0.1143 -0.2135
16498TIP3    H170985   2.187   7.072   4.778  0.5719  0.2716  1.1383
16498TIP3    H270986   2.236   7.049   4.637 -1.7270 -1.6901  0.5827
16499TIP3   OH270987   1.852   1.222  15.066 -0.0167 -0.0144  0.0369
16499TIP3    H170988   1.763   1.243  15.093 -0.3322 -1.0300 -0.1916
16499TIP3    H270989   1.865   1.131  15.091  0.3075 -0.4459 -1.5806
16500TIP3   OH270990   2.678   3.568  14.989  0.0223  0.0034 -0.1148
16500TIP3    H170991   2.678   3.597  14.898  3.0356  0.1358 -0.1960
16500TIP3    H270992   2.726   3.636  15.036 -0.3227 -0.7012  1.3181
16501TIP3   OH270993   1.019   1.396  14.911 -0.4918  0.1389  0.4192
16501TIP3    H170994   0.938   1.383  14.961  0.2628  0.2689  1.7075
16501TIP3    H270995   1.042   1.308  14.880 -0.0660 -0.2459  1.7614
16502TIP3   OH270996   0.500   6.361  15.044 -0.0476  0.3529  0.2832
16502TIP3    H170997   0.530   6.275  15.074 -3.5236 -0.5964  1.5211
16502TIP3    H270998   0.498   6.415  15.124 -0.8854  0.6058  0.0971
16503TIP3   OH270999   0.318   5.317   3.209 -0.0925  0.4338  0.0526
16503TIP3    H171000   0.376   5.394   3.214  0.1127  0.2515  0.4755
16503TIP3    H271001   0.253   5.341   3.142 -1.1159  1.7153  1.4322
16504TIP3   OH271002   2.092   4.599   0.263 -0.5744 -0.2195 -0.2804
16504TIP3    H171003   2.160   4.569   0.324 -2.1844 -1.7906  0.8363
16504TIP3    H271004   2.091   4.694   0.273  2.8132  0.1408 -1.8670
16505TIP3   OH271005   5.863   6.113   4.131 -0.4757 -0.4265 -0.1348
16505TIP3    H171006   5.914   6.168   4.071  0.5069 -0.0384  1.0237
16505TIP3    H271007   5.775   6.149   4.127 -0.2653  0.0347 -0.8160
16506TIP3   OH271008   5.446   3.055   3.590 -0.3975  0.5546  0.2320
16506TIP3    H171009   5.498   3.112   3.646 -1.0934 -1.3137  2.9933
16506TIP3    H271010   5.393   3.115   3.537  1.8938  2.4290 -0.1019
16507TIP3   OH271011   2.618   4.620   1.168  0.0901  0.4828 -0.0268
16507TIP3    H171012   2.661   4.686   1.114 -0.9808  0.7265 -0.6116
16507TIP3    H271013   2.676   4.544   1.164  1.5210  1.4803  0.9530
16508TIP3   OH271014   0.126   5.227  10.022 -0.1345  0.1458 -0.8048
16508TIP3    H171015   0.169   5.282   9.957  1.2487  2.2248  1.6463
16508TIP3    H271016   0.193   5.213  10.089 -2.1234  0.2169  1.3299
16509TIP3   OH271017   2.268   6.240   5.861 -0.1142  0.1599  0.3125
16509TIP3    H171018   2.309   6.324   5.839  0.6233  0.0273  1.1432
16509TIP3    H271019   2.213   6.260   5.937 -0.4715  0.0205  0.0969
16510TIP3   OH271020   4.099   4.718   5.021 -0.7378  0.6679 -0.0984
16510TIP3    H171021   4.097   4.714   5.117 -0.2815  0.6609 -0.0904
16510TIP3    H271022   4.182   4.676   4.996 -0.3501  1.6232 -0.4517
16511TIP3   OH271023   2.303   4.962  13.550 -0.1675  0.8652 -0.2511
16511TIP3    H171024   2.246   4.894  13.514 -0.4696  1.9218 -1.9241
16511TIP3    H271025   2.271   4.976  13.639 -0.8215 -0.3854 -0.2769
16512TIP3   OH271026   1.910   3.976   5.680  1.0901  0.0510 -0.4920
16512TIP3    H171027   1.936   4.000   5.768  2.3781 -0.7259 -0.6465
16512TIP3    H271028   1.815   3.990   5.678  0.9587 -0.4909  1.1826
16513TIP3   OH271029   2.387   1.294   2.748  0.0801  0.4701 -0.4927
16513TIP3    H171030   2.402   1.387   2.730 -1.2100  0.6037 -1.0267
16513TIP3    H271031   2.298   1.291   2.784 -0.4898 -0.6871 -1.8675
16514TIP3   OH271032   3.501   3.157  11.525  0.3496  0.2025  0.1162
16514TIP3    H171033   3.417   3.175  11.568  0.0296 -0.5405 -0.1849
16514TIP3    H271034   3.504   3.061  11.518 -0.1176  0.3071 -2.4996
16515TIP3   OH271035   1.823   0.308  14.505 -0.6839  0.0114 -0.5579
16515TIP3    H171036   1.906   0.339  14.470 -0.9607  1.0869 -0.3115
16515TIP3    H271037   1.818   0.345  14.593 -1.3695 -0.1317 -0.5273
16516TIP3   OH271038   1.047   4.149  13.437 -0.0267 -0.4592 -0.6483
16516TIP3    H171039   1.132   4.123  13.402  0.3016  0.4886 -0.5807
16516TIP3    H271040   1.047   4.244  13.432 -1.1335 -0.4459 -0.7576
16517TIP3   OH271041   0.562   5.784   3.265  0.0145 -0.9896  0.8409
16517TIP3    H171042   0.580   5.841   3.191  2.2537 -3.1613 -0.4201
16517TIP3    H271043   0.547   5.844   3.339  2.3149  1.2322 -0.3513
16518TIP3   OH271044   1.249   4.348   1.841 -0.0613 -0.2963  0.4137
16518TIP3    H171045   1.207   4.342   1.927  3.2881 -0.2408  2.2548
16518TIP3    H271046   1.263   4.442   1.827  1.9350 -0.4121  1.2864
16519TIP3   OH271047   5.184   0.824   5.166  0.5292  0.4642  0.3381
16519TIP3    H171048   5.257   0.807   5.106 -0.0486 -0.1359 -0.2160
16519TIP3    H271049   5.219   0.886   5.229  2.2675 -1.5895  1.5129
16520TIP3   OH271050   4.449   2.894   5.387 -0.5393 -0.5262 -0.6058
16520TIP3    H171051   4.431   2.987   5.371 -1.0856 -0.3396  0.9512
16520TIP3    H271052   4.498   2.892   5.469  1.5324 -1.4826 -1.7822
16521TIP3   OH271053   1.035   0.897   4.070  0.1437  0.3391 -0.3427
16521TIP3    H171054   1.075   0.945   3.997 -1.0481  1.3502 -0.3683
16521TIP3    H271055   0.942   0.892   4.047 -0.0820 -0.1996  0.6430
16522TIP3   OH271056   7.212   6.469  14.251  0.1788 -0.3600  0.1741
16522TIP3    H171057   7.231   6.562  14.265 -1.4911  0.0923 -0.2873
16522TIP3    H271058   7.116   6.464  14.256  0.2955 -2.3163  1.6665
16523TIP3   OH271059   6.792   3.727   4.895 -0.4792 -0.2002  0.4546
16523TIP3    H171060   6.762   3.648   4.851 -0.5009 -0.7504  1.4144
16523TIP3    H271061   6.795   3.702   4.988  3.3505 -0.3874  0.4635
16524TIP3   OH271062   5.657   1.469   0.364  0.4378  0.7012  0.0894
16524TIP3    H171063   5.571   1.458   0.403  0.5311 -0.7462 -0.0352
16524TIP3    H271064   5.646   1.538   0.299 -1.3928 -1.3417 -1.9432
16525TIP3   OH271065   4.844   2.057  14.668  0.2651  0.1356 -0.2266
16525TIP3    H171066   4.848   2.036  14.761 -0.4512 -1.6862 -0.5620
16525TIP3    H271067   4.869   1.976  14.624  2.0659  1.3876 -1.6438
16526TIP3   OH271068   3.561   5.419   4.097 -0.1742 -0.4606 -0.2098
16526TIP3    H171069   3.651   5.391   4.116  0.0577 -0.9881 -1.9609
16526TIP3    H271070   3.568   5.470   4.016 -1.1169  1.6955  0.9586
16527TIP3   OH271071   5.535   6.815   1.622 -0.5150 -0.3880  0.0335
16527TIP3    H171072   5.551   6.738   1.676 -0.3178 -1.6606 -1.7397
16527TIP3    H271073   5.613   6.869   1.632 -0.4959 -0.5767  1.0067
16528TIP3   OH271074   2.853   3.022   0.843 -0.4624 -0.1100  0.9485
16528TIP3    H171075   2.844   2.942   0.895 -1.9467  0.0599  0.9863
16528TIP3    H271076   2.794   3.009   0.769 -0.5830  0.8727  0.8677
16529TIP3   OH271077   0.295   4.898  13.465 -0.1322  0.1786 -0.1257
16529TIP3    H171078   0.378   4.943  13.479  0.0157 -0.2400  0.3997
16529TIP3    H271079   0.234   4.966  13.437  0.1461  0.6648  0.4356
16530TIP3   OH271080   3.991   5.901   2.893  0.1105  0.0502 -0.0132
16530TIP3    H171081   3.995   5.886   2.987 -0.3615  1.8994  0.3420
16530TIP3    H271082   3.989   5.996   2.884  2.2928  0.0102 -1.9830
16531TIP3   OH271083   3.087   4.133   5.409 -0.4492  0.1008  0.2890
16531TIP3    H171084   3.133   4.194   5.468  0.5482  0.1356 -0.4970
16531TIP3    H271085   3.078   4.180   5.327 -2.7714  0.4297  0.6904
16532TIP3   OH271086   3.192   5.815   3.055 -0.6506 -0.2163 -0.6285
16532TIP3    H171087   3.159   5.784   2.971 -0.6645 -0.5470 -0.5035
16532TIP3    H271088   3.177   5.742   3.115  1.2023 -0.7959 -0.7820
16533TIP3   OH271089   0.344   3.106   2.907 -0.0205 -0.4933  0.1888
16533TIP3    H171090   0.435   3.077   2.899  0.3823  0.3517  1.4686
16533TIP3    H271091   0.326   3.149   2.823  1.4726  1.1669  0.6382
16534TIP3   OH271092   2.038   4.199   0.503  0.9930  0.0178 -0.8668
16534TIP3    H171093   2.090   4.256   0.559  0.3123  1.3416 -1.5161
16534TIP3    H271094   1.978   4.259   0.458  0.1417 -1.2428 -1.4715
16535TIP3   OH271095   1.403   2.747   6.178 -0.5562 -0.6915  0.0085
16535TIP3    H171096   1.424   2.666   6.131 -1.0010 -0.9132  0.1946
16535TIP3    H271097   1.331   2.785   6.129 -0.0073 -0.1345 -0.3852
16536TIP3   OH271098   4.089   5.981   1.908 -0.4580  0.1492 -0.3390
16536TIP3    H171099   4.018   6.018   1.856  0.4857  2.5063 -0.1202
16536TIP3    H271100   4.085   5.887   1.893 -2.3959  0.4215 -1.8439
16537TIP3   OH271101   2.886   7.214   4.018  0.6088 -0.1450 -0.0983
16537TIP3    H171102   2.868   7.181   4.106 -1.2204  2.0721  0.4727
16537TIP3    H271103   2.902   7.136   3.965  0.1801 -1.6336  1.8569
16538TIP3   OH271104   4.639   4.854   3.305  0.2648  0.0641  0.5846
16538TIP3    H171105   4.732   4.855   3.281  0.7046 -1.1820  2.0775
16538TIP3    H271106   4.633   4.914   3.379 -0.9224  3.2380 -1.8679
16539TIP3   OH271107   1.968   1.041   4.478 -0.3969  0.8754  0.1669
16539TIP3    H171108   1.919   1.054   4.397  0.1132  2.2238  0.0521
16539TIP3    H271109   1.927   0.965   4.519 -3.2522  2.4850  0.5468
16540TIP3   OH271110   2.429   5.156   0.295 -0.5987 -0.2662 -0.5950
16540TIP3    H171111   2.473   5.233   0.259  0.9422 -0.7058  0.2488
16540TIP3    H271112   2.355   5.191   0.345 -1.7585  0.4436 -2.6958
16541TIP3   OH271113   2.227   6.531   5.230 -0.6079  0.6232 -0.0292
16541TIP3    H171114   2.240   6.437   5.216  0.9960  0.3560  2.4912
16541TIP3    H271115   2.302   6.572   5.187  0.5007  0.3973  1.5813
16542TIP3   OH271116   5.358   5.526   5.147 -0.1332 -0.0283 -0.7201
16542TIP3    H171117   5.304   5.548   5.223  0.0457 -1.8885  0.0064
16542TIP3    H271118   5.367   5.608   5.099 -1.4908  0.8714  0.4817
16543TIP3   OH271119   5.439   2.294   2.181  0.6374 -0.3091  0.0688
16543TIP3    H171120   5.465   2.373   2.134  3.2118 -0.5818  0.8657
16543TIP3    H271121   5.516   2.270   2.233 -0.8884 -1.9780  1.7378
16544TIP3   OH271122   3.810   3.652   2.386  0.0172  0.3929 -0.1228
16544TIP3    H171123   3.739   3.598   2.420  0.8194  0.5085  1.8380
16544TIP3    H271124   3.890   3.607   2.414  0.7094  2.1601  0.9173
16545TIP3   OH271125   6.172   5.631   2.607  0.2914 -0.3975 -0.8092
16545TIP3    H171126   6.128   5.666   2.684 -1.4255  0.0064 -1.9211
16545TIP3    H271127   6.135   5.679   2.534 -0.3223 -2.7664 -2.1709
16546TIP3   OH271128   4.617   2.222   2.254 -0.0123  0.2809  0.5994
16546TIP3    H171129   4.556   2.159   2.218 -0.7900  0.4957  1.5239
16546TIP3    H271130   4.703   2.190   2.227 -0.5276  0.2263 -1.1035
16547TIP3   OH271131   4.135   3.086   4.979 -0.2556 -0.2305 -0.1692
16547TIP3    H171132   4.142   3.149   5.050  1.5481 -0.0807 -0.4253
16547TIP3    H271133   4.194   3.015   5.003 -0.1101 -0.4856 -1.1999
16548TIP3   OH271134   7.045   0.036   4.871 -0.0661 -0.1842  0.5040
16548TIP3    H171135   7.023   0.069   4.958 -0.0088  0.2935  0.3384
16548TIP3    H271136   6.987  -0.039   4.859 -0.9161  0.4699  0.4712
16549TIP3   OH271137   7.001   3.484   3.877 -0.5681 -0.4281 -0.1403
16549TIP3    H171138   7.090   3.497   3.910 -1.5960  0.9626  2.4276
16549TIP3    H271139   7.011   3.428   3.801  2.5629  0.3000 -0.4030
16550TIP3   OH271140   4.715   4.467  13.798 -0.3353 -0.1302 -0.2953
16550TIP3    H171141   4.741   4.549  13.757 -1.1463  0.1973 -0.1760
16550TIP3    H271142   4.690   4.491  13.887 -1.1948 -0.3888 -0.4527
16551TIP3   OH271143   0.079   0.246  11.128  0.9043 -0.0988  0.3613
16551TIP3    H171144   0.066   0.155  11.102 -2.1893  0.3689 -0.1888
16551TIP3    H271145   0.035   0.296  11.059  1.0313  1.7082  1.5391
16552TIP3   OH271146   6.090   1.130   4.824  0.3947 -0.4292 -0.4212
16552TIP3    H171147   6.000   1.139   4.854  0.4224  2.3867 -0.8944
16552TIP3    H271148   6.143   1.134   4.905  0.1575 -1.0819 -0.2284
16553TIP3   OH271149   1.130   2.344   5.463  0.1377 -0.5197  0.2007
16553TIP3    H171150   1.141   2.435   5.491  1.8418 -0.8698  0.8478
16553TIP3    H271151   1.050   2.344   5.411 -0.9466  0.9743  1.7331
16554TIP3   OH271152   6.024   0.708   0.920  0.0026  0.0417  0.3400
16554TIP3    H171153   6.023   0.672   0.832  0.7746  0.6509  0.0679
16554TIP3    H271154   5.936   0.746   0.932  0.5748  1.9402 -1.0300
16555TIP3   OH271155   4.032   1.852   1.610  0.4682 -0.4840  0.4587
16555TIP3    H171156   4.045   1.939   1.572 -1.4507 -1.0664 -1.7203
16555TIP3    H271157   4.117   1.809   1.599  1.1113  0.7167  0.5449
16556TIP3   OH271158   3.610   0.761   0.188  0.2453 -0.2517 -0.2237
16556TIP3    H171159   3.617   0.816   0.111  0.4280 -0.3510 -0.2764
16556TIP3    H271160   3.695   0.719   0.197 -0.4162 -1.9127 -1.2241
16557TIP3   OH271161   4.909   0.660  15.258  0.4159 -0.4661 -0.0738
16557TIP3    H171162   4.847   0.665  15.185 -0.3752  0.2128  0.6135
16557TIP3    H271163   4.862   0.611  15.326 -0.9382  3.1595  1.8661
16558TIP3   OH271164   1.813   0.671   2.345  0.6654 -0.1848  0.5258
16558TIP3    H171165   1.743   0.627   2.296  0.4516 -1.3277  1.7895
16558TIP3    H271166   1.785   0.666   2.437  2.1657 -0.2375  1.0063
16559TIP3   OH271167   2.591   2.644   4.663  0.1886 -0.5570  0.5971
16559TIP3    H171168   2.559   2.602   4.743  0.9869  0.2544  1.3690
16559TIP3    H271169   2.621   2.572   4.608  0.6463 -1.0668  1.4931
16560TIP3   OH271170   3.321   0.423   1.916  0.7713 -0.1941  0.4734
16560TIP3    H171171   3.351   0.513   1.928  3.4094 -0.9114 -0.0244
16560TIP3    H271172   3.288   0.420   1.826  0.0322  0.4020  0.7150
16561TIP3   OH271173   0.749   2.740  14.163  0.5524 -0.1498 -0.2152
16561TIP3    H171174   0.832   2.771  14.199 -0.8846  1.1699  2.2358
16561TIP3    H271175   0.774   2.672  14.100  3.3815 -1.3573  1.9778
16562TIP3   OH271176   4.003   2.399   2.805  0.1220  0.4132  0.1504
16562TIP3    H171177   3.969   2.415   2.893 -1.2623  1.0575 -0.4675
16562TIP3    H271178   4.021   2.487   2.771 -1.0666  0.2900 -0.8395
16563TIP3   OH271179   2.770   2.906   3.891  0.0966  0.3944  0.6239
16563TIP3    H171180   2.689   2.884   3.844  0.1634 -1.6418  1.3732
16563TIP3    H271181   2.769   3.002   3.895 -0.1207  0.6839 -3.0684
16564TIP3   OH271182   0.065   7.127   3.513  0.5795 -0.5025  0.4220
16564TIP3    H171183  -0.023   7.162   3.527  0.4092 -0.8645  0.2798
16564TIP3    H271184   0.081   7.071   3.588  1.5798  1.2654  1.5895
16565TIP3   OH271185   3.450   6.496   5.691 -0.1496 -0.1722  0.3912
16565TIP3    H171186   3.529   6.549   5.692  0.8787 -1.3924 -2.9480
16565TIP3    H271187   3.449   6.452   5.777  0.9908  2.2246  1.7207
16566TIP3   OH271188   7.019   5.311   1.828  0.3338  0.0721 -0.2108
16566TIP3    H171189   7.089   5.261   1.870  1.0620  1.3309  0.1050
16566TIP3    H271190   7.031   5.400   1.860 -0.2602  0.6843 -1.6482
16567TIP3   OH271191   2.712   4.723  12.077  0.6190  0.2105  0.6333
16567TIP3    H171192   2.781   4.663  12.051  2.8388  1.9357  2.1105
16567TIP3    H271193   2.697   4.779  12.001 -0.2896 -1.1150 -0.1934
16568TIP3   OH271194   4.801   3.621   0.148 -0.3898  0.2597 -0.2925
16568TIP3    H171195   4.802   3.696   0.208 -1.3098 -0.5432  0.7665
16568TIP3    H271196   4.714   3.623   0.108 -0.7081 -0.6593  0.3188
16569TIP3   OH271197   4.324   0.780   5.337 -0.4306  0.2083 -0.3922
16569TIP3    H171198   4.388   0.850   5.327  0.0841 -0.1584  0.2156
16569TIP3    H271199   4.266   0.811   5.407  0.0355 -0.1321  0.1548
16570TIP3   OH271200   4.447   2.357   0.573 -0.1824  0.5287 -0.1251
16570TIP3    H171201   4.444   2.396   0.660 -0.5197 -0.1447  0.1690
16570TIP3    H271202   4.538   2.326   0.564  0.2344  1.8045 -0.5644
16571TIP3   OH271203   4.127   3.705   1.773 -0.2820  0.1722 -0.3157
16571TIP3    H171204   4.209   3.751   1.756 -0.0582  0.6763  1.8427
16571TIP3    H271205   4.148   3.643   1.842 -1.9546  1.2314  1.2390
16572TIP3   OH271206   5.698   2.603   5.472 -0.0452 -0.1397 -0.1007
16572TIP3    H171207   5.711   2.691   5.508 -0.6612 -0.9940  2.4304
16572TIP3    H271208   5.786   2.572   5.451  0.2796  0.6574  0.0485
16573TIP3   OH271209   4.837   2.839   2.697 -0.0585 -0.1197  0.0131
16573TIP3    H171210   4.772   2.891   2.743  0.3271  0.4535 -0.0755
16573TIP3    H271211   4.793   2.809   2.618 -1.1721 -2.2548  1.3506
16574TIP3   OH271212   4.751   1.028  13.532 -0.2034 -0.5018 -0.4033
16574TIP3    H171213   4.658   1.033  13.556 -0.6448  0.2510 -2.1648
16574TIP3    H271214   4.751   0.995  13.442  1.2284 -0.0822 -0.5740
16575TIP3   OH271215   1.913   6.132  14.807  0.2352  0.6797 -0.5525
16575TIP3    H171216   1.844   6.066  14.813 -0.0484  1.1104  2.2123
16575TIP3    H271217   1.995   6.083  14.818  0.0678  0.6823  0.7842
16576TIP3   OH271218   1.512   3.455  14.293  0.1558  0.1439 -0.1744
16576TIP3    H171219   1.493   3.409  14.375  1.7194 -0.8235 -0.3184
16576TIP3    H271220   1.568   3.395  14.244 -0.0024  1.0891 -1.5691
16577TIP3   OH271221   7.012   6.575  14.062  0.4029 -0.0186  0.3304
16577TIP3    H171222   6.932   6.617  14.032 -1.0657 -2.0846  1.0985
16577TIP3    H271223   7.077   6.594  13.994 -0.1948  3.1323  0.5045
16578TIP3   OH271224   1.638   5.110   3.091  0.2445  0.1833 -0.3356
16578TIP3    H171225   1.556   5.091   3.138 -0.6404  0.9707 -1.4931
16578TIP3    H271226   1.681   5.025   3.084 -0.1347 -0.1362  0.8995
16579TIP3   OH271227   1.629   5.910   4.313  0.5450 -0.3136  0.0700
16579TIP3    H171228   1.617   5.861   4.394 -0.5661  2.0012  1.3920
16579TIP3    H271229   1.563   5.979   4.316 -0.3869 -0.8398 -3.4283
16580TIP3   OH271230   1.136   5.391  12.640  0.1081  0.3346  0.3485
16580TIP3    H171231   1.060   5.447  12.623  1.2961  1.6757 -0.6892
16580TIP3    H271232   1.129   5.369  12.733 -2.0630 -0.3741  0.0706
16581TIP3   OH271233   3.461   4.940   4.543 -0.3114 -0.3730  0.0906
16581TIP3    H171234   3.466   4.962   4.636 -4.0707  0.6801  0.1941
16581TIP3    H271235   3.477   5.023   4.498 -2.0173 -0.0430  0.0132
16582TIP3   OH271236   0.885   2.653   3.746  0.2506  0.5203  0.2289
16582TIP3    H171237   0.811   2.655   3.806 -0.6704  0.9396 -0.8900
16582TIP3    H271238   0.928   2.738   3.759  0.4446  0.3507  0.7438
16583TIP3   OH271239   1.334   3.099  14.345 -0.4300  0.2232 -0.2367
16583TIP3    H171240   1.399   3.045  14.300 -0.0390 -1.0969  1.7833
16583TIP3    H271241   1.386   3.166  14.390 -0.8524  1.8436 -2.0239
16584TIP3   OH271242   1.819   4.056  15.123  0.5566  0.0805  0.2185
16584TIP3    H171243   1.772   4.063  15.206  0.0932  0.1423 -0.0442
16584TIP3    H271244   1.833   3.962  15.110 -2.3417 -0.2698 -1.2397
16585TIP3   OH271245   5.658   4.207  15.208 -0.6561 -0.9536  0.2662
16585TIP3    H171246   5.579   4.260  15.214  0.5325  0.8546  0.7913
16585TIP3    H271247   5.669   4.188  15.115 -1.5208 -0.9697  0.1628
16586TIP3   OH271248   3.382   2.321   0.559 -0.2341  0.2561  0.3093
16586TIP3    H171249   3.459   2.306   0.614 -0.7709 -1.1295  0.7303
16586TIP3    H271250   3.414   2.308   0.470  0.0549 -0.2005  0.4724
16587TIP3   OH271251   1.821   4.981   2.623 -0.6988 -0.5022  0.2721
16587TIP3    H171252   1.751   5.018   2.676 -0.9531  0.2161 -0.5311
16587TIP3    H271253   1.785   4.978   2.534  0.3719  0.1133 -0.2063
16588TIP3   OH271254   1.770   5.087  13.742  0.2567  0.1647 -0.2027
16588TIP3    H171255   1.804   5.168  13.777 -0.5781  1.2925 -1.8565
16588TIP3    H271256   1.785   5.022  13.811 -1.7089  2.2821  2.4232
16589TIP3   OH271257   0.157   2.667   2.889 -0.1924  0.3237  0.2789
16589TIP3    H171258   0.159   2.761   2.907  0.7282  0.1451  1.2295
16589TIP3    H271259   0.169   2.660   2.794 -1.9891  1.2032 -0.0537
16590TIP3   OH271260   7.219   1.669   4.202  0.3648 -0.1567 -0.2848
16590TIP3    H171261   7.131   1.708   4.192  0.3741 -0.1339 -0.2782
16590TIP3    H271262   7.220   1.597   4.140  1.0123  0.9987 -1.6706
16591TIP3   OH271263   6.249   6.650   0.437  0.1728  0.0559  0.5241
16591TIP3    H171264   6.301   6.590   0.490  1.3973  1.7142  1.3134
16591TIP3    H271265   6.162   6.646   0.475  0.3117 -0.9870  0.7524
16592TIP3   OH271266   0.063   3.191   3.160  0.5542 -0.0743 -0.5490
16592TIP3    H171267   0.083   3.121   3.223 -0.8654 -0.0844 -0.0885
16592TIP3    H271268   0.149   3.215   3.124  1.0881 -2.1145 -0.8012
16593TIP3   OH271269   6.256   0.091   2.710  0.2832  1.2175  0.5710
16593TIP3    H171270   6.203   0.011   2.716  1.4397  0.2003 -1.4331
16593TIP3    H271271   6.346   0.059   2.706  0.7306  2.5270 -0.9917
16594TIP3   OH271272   2.893   3.648   1.748  0.6691 -0.2661 -0.1593
16594TIP3    H171273   2.916   3.603   1.830  1.7494  0.8789  0.2008
16594TIP3    H271274   2.798   3.639   1.742  0.8390 -2.5877 -0.1238
16595TIP3   OH271275   3.639   3.390  13.072 -0.1731  0.2511 -0.1184
16595TIP3    H171276   3.603   3.379  12.984  1.1200  0.3099 -0.6708
16595TIP3    H271277   3.589   3.329  13.126 -1.1868  0.4271 -0.8238
16596TIP3   OH271278   3.953   3.604   3.625 -0.2719  0.8417  0.0608
16596TIP3    H171279   3.898   3.561   3.690 -1.0890  0.9349 -0.5429
16596TIP3    H271280   4.039   3.564   3.636 -1.5204 -3.0241 -2.2584
16597TIP3   OH271281   1.470   1.665   2.885  0.0468 -0.3371 -0.2872
16597TIP3    H171282   1.545   1.610   2.909  0.5421  0.4586  0.0415
16597TIP3    H271283   1.474   1.739   2.946 -0.7569 -0.0711 -0.5491
16598TIP3   OH271284   5.924   4.947   1.924  0.3690 -0.5411  0.5744
16598TIP3    H171285   5.952   4.879   1.863 -0.2058 -0.6894  0.4752
16598TIP3    H271286   5.885   4.899   1.997 -0.2132 -0.3071  0.4155
16599TIP3   OH271287   1.735   0.650   0.910 -0.1388  0.1661 -0.7925
16599TIP3    H171288   1.738   0.724   0.970 -0.2931  0.3640 -1.0269
16599TIP3    H271289   1.642   0.636   0.893 -0.3907 -2.0507  1.6522
16600TIP3   OH271290   0.680   6.124   2.301  0.2875 -0.0422  0.0766
16600TIP3    H171291   0.711   6.141   2.212  0.4354 -1.7387 -0.2282
16600TIP3    H271292   0.760   6.117   2.353  0.2607 -0.3025  0.0860
16601TIP3   OH271293   3.965   6.198   3.328 -0.2673 -0.3302  0.4268
16601TIP3    H171294   3.985   6.260   3.399 -0.9756  0.3186  0.0751
16601TIP3    H271295   3.899   6.243   3.276  0.7681 -0.4758 -1.0716
16602TIP3   OH271296   3.569   6.048   1.954 -0.2326  0.0235  0.0241
16602TIP3    H171297   3.523   6.083   1.877 -1.0094 -0.9103  0.0426
16602TIP3    H271298   3.635   6.114   1.974 -1.1299  1.1075 -0.4179
16603TIP3   OH271299   5.916   2.863   1.592 -0.7580 -0.0821  0.1302
16603TIP3    H171300   5.854   2.811   1.542  0.8485 -1.5557 -0.4321
16603TIP3    H271301   5.886   2.855   1.683 -2.2193  0.5043 -0.2634
16604TIP3   OH271302   6.133   2.690   1.518  0.2756 -0.1437  0.1301
16604TIP3    H171303   6.154   2.636   1.594 -1.9263 -1.1018  0.1246
16604TIP3    H271304   6.089   2.767   1.553 -0.1744 -0.2787 -0.1360
16605TIP3   OH271305   6.887   0.281   1.331  0.1876 -0.3752 -0.2924
16605TIP3    H171306   6.928   0.367   1.341 -0.4200 -0.0040 -0.9560
16605TIP3    H271307   6.793   0.299   1.330  0.0504 -1.0669 -0.2994
16606TIP3   OH271308   0.890   1.147   5.814  0.0990  0.4853 -0.7067
16606TIP3    H171309   0.962   1.200   5.848  1.0826 -0.3831 -1.3825
16606TIP3    H271310   0.831   1.136   5.888  2.1690 -1.3365  0.7963
16607TIP3   OH271311   1.525   4.419   5.821 -0.1114 -0.1696 -0.1473
16607TIP3    H171312   1.605   4.409   5.872  1.5300  0.6295 -2.4130
16607TIP3    H271313   1.467   4.471   5.877  1.1410 -0.3121  1.3231
16608TIP3   OH271314   4.874   7.106   2.695  0.5253 -0.0920 -0.1636
16608TIP3    H171315   4.826   7.097   2.613  0.4700 -0.4253 -0.0966
16608TIP3    H271316   4.813   7.076   2.762  0.6002  0.1006 -0.0072
16609TIP3   OH271317   4.966   1.273   3.676  0.3808 -0.8125 -0.3135
16609TIP3    H171318   4.988   1.365   3.665 -0.7121 -0.4538  0.4246
16609TIP3    H271319   4.878   1.264   3.641 -0.0205 -1.3050  0.7740
16610TIP3   OH271320   6.151   3.856   3.976  0.3124 -0.4525  0.7553
16610TIP3    H171321   6.205   3.824   3.904  0.3401  1.3264 -0.0537
16610TIP3    H271322   6.061   3.845   3.945  0.3351  1.8671 -0.3333
16611TIP3   OH271323   0.456   1.316   2.784  0.2749  0.0800  0.2426
16611TIP3    H171324   0.549   1.301   2.797  0.0720 -0.8282  0.7644
16611TIP3    H271325   0.415   1.231   2.801 -0.5518  0.1761 -1.0822
16612TIP3   OH271326   2.119   0.753   4.310  0.1702 -0.3584 -0.0243
16612TIP3    H171327   2.196   0.708   4.275  1.3709  1.5651 -0.0056
16612TIP3    H271328   2.097   0.818   4.243 -0.3228  0.3246  0.7769
16613TIP3   OH271329   1.126   4.282   2.072  0.1852 -0.2918  0.3141
16613TIP3    H171330   1.129   4.330   2.155 -1.8848 -0.3553  0.4854
16613TIP3    H271331   1.147   4.192   2.096  0.3229 -0.1733  0.6462
16614TIP3   OH271332   3.560   1.392   3.361 -0.4203  0.0420 -0.5893
16614TIP3    H171333   3.497   1.321   3.356  0.2404 -0.6705  0.5873
16614TIP3    H271334   3.644   1.348   3.375  0.0631  1.0373 -0.2545
16615TIP3   OH271335   1.212   7.053   3.434 -0.2501 -0.3113  0.7773
16615TIP3    H171336   1.158   6.986   3.476 -0.8551  0.6987  1.6853
16615TIP3    H271337   1.161   7.134   3.444  0.8003  0.4238  0.3922
16616TIP3   OH271338   4.089   7.139   4.748 -0.3094 -0.3833  0.3771
16616TIP3    H171339   3.993   7.141   4.752 -0.3223  0.4013 -0.2291
16616TIP3    H271340   4.113   7.220   4.705  0.5716 -1.1309 -0.5889
16617TIP3   OH271341   4.509   5.520   5.725  0.2328 -0.2543  0.0354
16617TIP3    H171342   4.499   5.426   5.708  0.7287 -0.3583  0.3255
16617TIP3    H271343   4.603   5.533   5.734  0.0649 -0.0539  1.8739
16618TIP3   OH271344   1.441   3.473   4.212 -0.1855  0.1408 -0.3106
16618TIP3    H171345   1.382   3.407   4.174  1.3300 -0.9382 -0.8970
16618TIP3    H271346   1.406   3.556   4.181 -0.5918 -0.5485 -1.8516
16619TIP3   OH271347   0.645   2.940   3.020 -0.4211 -0.4080  0.1130
16619TIP3    H171348   0.718   2.881   3.040 -0.1154 -0.3300 -0.7297
16619TIP3    H271349   0.618   2.916   2.932 -2.1057 -1.1217  0.7788
16620TIP3   OH271350   4.199   2.661   5.643 -0.2423  0.1719 -0.1418
16620TIP3    H171351   4.286   2.639   5.674 -1.2256 -0.6202  2.2666
16620TIP3    H271352   4.196   2.757   5.644  0.2031  0.1777  0.9724
16621TIP3   OH271353   2.343   4.435  14.746  0.3835 -0.5455  0.7993
16621TIP3    H171354   2.288   4.457  14.671  1.2070 -1.4677 -0.1017
16621TIP3    H271355   2.424   4.483  14.731  0.1961  0.0683  1.6412
16622TIP3   OH271356   4.595   2.199  14.162 -0.2230  0.0451  0.3736
16622TIP3    H171357   4.646   2.129  14.122 -1.7883 -0.8102 -0.1959
16622TIP3    H271358   4.532   2.225  14.095 -1.1726  0.3953  1.3731
16623TIP3   OH271359   3.700   5.244   3.698 -0.0043 -0.2207  0.1415
16623TIP3    H171360   3.739   5.186   3.764 -0.6665 -1.4385 -0.4961
16623TIP3    H271361   3.657   5.184   3.636 -2.6430  1.0039  0.6468
16624TIP3   OH271362   7.066   0.871   0.337  0.0708  0.2778 -1.0327
16624TIP3    H171363   6.985   0.908   0.301  0.5442 -0.6460 -3.2568
16624TIP3    H271364   7.067   0.781   0.304  0.2143 -0.9642  2.0624
16625TIP3   OH271365   5.396   2.325   4.966 -0.0707  0.2900  0.2086
16625TIP3    H171366   5.311   2.303   4.930 -0.0202  1.1418 -0.4660
16625TIP3    H271367   5.450   2.345   4.890  1.5420 -2.7710  0.3998
16626TIP3   OH271368   7.062   3.684   5.290  0.1128 -0.4461 -0.2326
16626TIP3    H171369   7.156   3.673   5.302  0.1740  0.4607  0.1886
16626TIP3    H271370   7.023   3.647   5.369  0.0580 -1.5134 -0.7418
16627TIP3   OH271371   1.199   6.680   3.517 -0.9626 -0.5712 -0.7795
16627TIP3    H171372   1.271   6.648   3.462 -0.8439 -1.6822 -0.0017
16627TIP3    H271373   1.143   6.604   3.530 -2.2163  0.2439 -1.2381
16628TIP3   OH271374   3.922   6.307   3.900 -0.5273  0.2724 -0.3522
16628TIP3    H171375   4.001   6.357   3.922 -0.8459  0.2712  0.9134
16628TIP3    H271376   3.939   6.272   3.813  0.2740  1.4401 -0.6854
16629TIP3   OH271377   3.382   5.414  10.397 -0.1136  0.1061  0.3361
16629TIP3    H171378   3.450   5.371  10.345  0.2597 -0.8980  1.5949
16629TIP3    H271379   3.381   5.366  10.480 -0.7337  1.6034  1.2429
16630TIP3   OH271380   4.643   5.106   0.221  0.2436  0.2273 -0.1114
16630TIP3    H171381   4.732   5.080   0.196 -0.1891 -0.2697 -1.2274
16630TIP3    H271382   4.653   5.190   0.264  1.5506 -1.0335  2.2500
16631TIP3   OH271383   6.998   6.304   3.479  0.5022 -0.2763  0.1929
16631TIP3    H171384   7.058   6.320   3.552  1.5339  0.5313 -0.7995
16631TIP3    H271385   7.043   6.240   3.424  0.3709  0.1639 -0.4430
16632TIP3   OH271386   4.023   2.211   3.786 -0.2001 -0.5818  0.1026
16632TIP3    H171387   4.032   2.306   3.774 -0.1550 -0.5321  0.5339
16632TIP3    H271388   4.079   2.190   3.860 -0.0997 -0.9716 -0.0795
16633TIP3   OH271389   6.694   5.641  15.041 -0.0604 -0.6682  0.0444
16633TIP3    H171390   6.736   5.562  15.007 -0.1590 -0.6514 -0.1152
16633TIP3    H271391   6.714   5.640  15.135  1.1590 -0.1340 -0.1876
16634TIP3   OH271392   4.738   0.209   2.997  0.2611  0.5287 -0.4617
16634TIP3    H171393   4.688   0.166   3.067  0.0227  0.4385 -0.6870
16634TIP3    H271394   4.751   0.298   3.029 -1.9938  1.2653 -1.3418
16635TIP3   OH271395   2.084   0.646   5.454  0.0128  0.1795 -0.0073
16635TIP3    H171396   2.102   0.739   5.443  0.5881  0.2230  1.0749
16635TIP3    H271397   2.168   0.603   5.435 -0.5483 -0.2345 -1.6560
16636TIP3   OH271398   3.959   7.015  14.984  0.1104  0.1520 -0.1450
16636TIP3    H171399   3.999   7.096  15.017 -1.0771  0.8849 -0.4560
16636TIP3    H271400   3.868   7.038  14.967  0.2059 -0.7259 -2.0816
16637TIP3   OH271401   0.364   3.067   1.476  0.5069 -0.1520  0.1553
16637TIP3    H171402   0.396   3.104   1.394  1.0774 -1.3866 -0.2039
16637TIP3    H271403   0.318   2.987   1.451  1.1799 -0.8534  1.0780
16638TIP3   OH271404   3.268   4.791   3.490 -0.0406  0.2688 -0.3424
16638TIP3    H171405   3.304   4.876   3.517  0.8329 -0.4267  0.7421
16638TIP3    H271406   3.272   4.793   3.394  4.1468 -0.2126 -0.3606
16639TIP3   OH271407   2.439   6.700   4.069 -0.7358  0.3483 -0.5151
16639TIP3    H171408   2.473   6.659   4.148  1.2643  1.3866 -0.7563
16639TIP3    H271409   2.400   6.782   4.099 -0.4703  0.4814 -0.5271
16640TIP3   OH271410   5.230   0.432   4.467  0.2617 -0.3619 -0.1207
16640TIP3    H171411   5.272   0.515   4.491 -0.4830 -0.0584  0.1684
16640TIP3    H271412   5.300   0.381   4.426 -0.0053  1.7776 -3.6388
16641TIP3   OH271413   4.972   5.762   4.469  0.1802 -0.9057  0.6666
16641TIP3    H171414   5.063   5.737   4.482  0.9522 -0.0046 -2.2404
16641TIP3    H271415   4.970   5.856   4.485  0.2307 -0.5809 -1.0414
16642TIP3   OH271416   1.091   3.443   3.655  0.3383 -0.3875  1.0140
16642TIP3    H171417   1.091   3.365   3.599  1.5631 -0.0153  0.4711
16642TIP3    H271418   1.110   3.410   3.743 -0.1754 -0.8032  0.9777
16643TIP3   OH271419   6.463   5.062   2.336 -0.5125 -0.2298 -0.2969
16643TIP3    H171420   6.374   5.043   2.364 -0.7586  0.4158 -0.6172
16643TIP3    H271421   6.489   5.139   2.388 -0.4922  0.1584 -0.8652
16644TIP3   OH271422   5.188   6.531   0.773  0.1183 -0.1923  0.1373
16644TIP3    H171423   5.184   6.623   0.746  2.4901 -0.4185 -1.2782
16644TIP3    H271424   5.217   6.484   0.695  0.1112 -1.9818  1.1591
16645TIP3   OH271425   3.150   6.897  12.919 -0.1923 -0.6336  0.0749
16645TIP3    H171426   3.092   6.974  12.923 -0.5067 -0.8896  0.4404
16645TIP3    H271427   3.093   6.826  12.888  0.1009 -0.7193 -0.2685
16646TIP3   OH271428   5.677   6.362  13.876 -0.2967 -0.0032 -0.6913
16646TIP3    H171429   5.684   6.423  13.803  0.0507 -0.3958 -0.9913
16646TIP3    H271430   5.626   6.409  13.942  2.4817  1.7952  0.3473
16647TIP3   OH271431   6.340   1.990   1.624 -0.4889 -0.1601 -0.2757
16647TIP3    H171432   6.261   1.952   1.587 -1.1200  2.9831 -2.5235
16647TIP3    H271433   6.409   1.966   1.562  0.0800 -1.4356  0.7830
16648TIP3   OH271434   3.646   3.481   1.102  0.2299  0.1276 -0.3692
16648TIP3    H171435   3.593   3.432   1.038  0.4461  1.2478 -1.4531
16648TIP3    H271436   3.677   3.557   1.053 -2.3789  2.9328  1.9462
16649TIP3   OH271437   4.802   1.778   4.697 -0.8163 -0.3065 -0.2961
16649TIP3    H171438   4.885   1.733   4.683 -0.6466  0.4990 -2.0906
16649TIP3    H271439   4.803   1.801   4.790  1.2799  0.2772 -0.4195
16650TIP3   OH271440   4.891   7.162   4.449 -0.4307  0.8324  0.3785
16650TIP3    H171441   4.926   7.100   4.512 -1.1155 -0.6915 -0.6793
16650TIP3    H271442   4.964   7.221   4.430  0.5114 -0.1913  0.7469
16651TIP3   OH271443   6.388   4.518   0.128  0.3572  0.4861 -0.3463
16651TIP3    H171444   6.323   4.530   0.059  1.6156  1.2417 -1.4442
16651TIP3    H271445   6.471   4.539   0.086  1.5311 -1.9425  0.5763
16652TIP3   OH271446   1.558   7.178   2.467  0.1716  0.1871  0.6622
16652TIP3    H171447   1.507   7.200   2.545 -1.5348  0.9206 -0.5991
16652TIP3    H271448   1.556   7.257   2.413  2.0999  0.0011  0.2542
16653TIP3   OH271449   4.203   1.353   2.068 -0.3601 -0.9221 -0.9751
16653TIP3    H171450   4.235   1.443   2.065 -0.1761 -0.9962 -1.4096
16653TIP3    H271451   4.121   1.357   2.117 -0.1018 -0.5949 -0.5738
16654TIP3   OH271452   0.204   3.278   4.160 -0.2229 -0.4955 -0.3275
16654TIP3    H171453   0.205   3.183   4.153 -2.0441 -0.9651  3.3909
16654TIP3    H271454   0.114   3.303   4.143 -0.3783  0.2005  1.3164
16655TIP3   OH271455   2.046   3.389  11.974 -0.6656 -1.2144 -0.4936
16655TIP3    H171456   2.023   3.297  11.990 -0.6591 -1.1488 -0.1064
16655TIP3    H271457   2.140   3.394  11.990 -0.5733 -1.2497 -1.0195
16656TIP3   OH271458   0.902   4.740   2.678  0.3423  0.2151  0.0036
16656TIP3    H171459   0.917   4.651   2.645 -0.0171  0.4102 -0.6922
16656TIP3    H271460   0.826   4.771   2.630  0.6524  1.0216  0.0217
16657TIP3   OH271461   0.139   5.270  13.025  0.9683  0.2505  0.0129
16657TIP3    H171462   0.136   5.175  13.012  1.0810  0.4899 -1.9837
16657TIP3    H271463   0.059   5.290  13.073  0.8057 -0.8118  0.2089
16658TIP3   OH271464   4.016   2.048   3.047  0.0876  0.0579 -0.4250
16658TIP3    H171465   3.925   2.078   3.046  0.2531  0.5613 -0.5632
16658TIP3    H271466   4.032   2.024   3.139 -0.2660 -0.2944 -0.4515
16659TIP3   OH271467   3.645   5.219   0.730  0.6642  0.5214  0.0122
16659TIP3    H171468   3.721   5.163   0.718  0.6089  0.2145  0.9979
16659TIP3    H271469   3.623   5.211   0.823 -1.3866 -0.4908 -0.4801
16660TIP3   OH271470   1.019   3.195   2.862  0.2092 -0.1910 -0.2429
16660TIP3    H171471   0.963   3.236   2.927  0.3185  1.2630 -1.0319
16660TIP3    H271472   0.973   3.114   2.838 -0.2460 -0.3189  0.9953
16661TIP3   OH271473   1.783   2.981   2.170  0.3520 -0.6297 -0.3316
16661TIP3    H171474   1.820   2.996   2.257  1.3238  1.1784 -1.0125
16661TIP3    H271475   1.847   2.924   2.127  1.3071  0.7472 -0.7814
16662TIP3   OH271476   4.904   6.087   2.691  0.7014 -0.0779  0.1456
16662TIP3    H171477   4.998   6.091   2.711  0.5110  0.1999  1.0079
16662TIP3    H271478   4.901   6.066   2.598  1.6230 -0.1228  0.1128
16663TIP3   OH271479   2.499   0.356   5.135 -0.0042 -0.2147  0.6602
16663TIP3    H171480   2.464   0.268   5.147 -0.4644 -0.1880 -0.3416
16663TIP3    H271481   2.537   0.379   5.220  1.8636 -2.1084  0.4285
16664TIP3   OH271482   3.274   0.977   0.131 -0.1289  0.1331  0.0719
16664TIP3    H171483   3.226   0.938   0.058  0.1962 -1.2860  0.5852
16664TIP3    H271484   3.228   0.948   0.209 -1.8088  3.4239  0.4688
16665TIP3   OH271485   1.718   1.933   3.583  0.0685 -0.2277  0.7008
16665TIP3    H171486   1.733   1.853   3.633 -1.2473 -0.9221  0.0366
16665TIP3    H271487   1.767   2.000   3.631  0.8404 -1.3260  1.5181
16666TIP3   OH271488   4.548   5.802   3.783  0.3479 -0.5980  0.0756
16666TIP3    H171489   4.534   5.710   3.805 -0.1510 -0.0559  2.3560
16666TIP3    H271490   4.460   5.839   3.779  0.5391 -0.2160 -0.9218
16667TIP3   OH271491   2.035   5.893   3.433  0.2199  0.2226 -0.0914
16667TIP3    H171492   2.066   5.805   3.414 -1.1081 -0.6175  1.4384
16667TIP3    H271493   2.046   5.941   3.350  2.0071 -1.0307 -0.6290
16668TIP3   OH271494   6.720   5.200   5.597  0.1932 -0.1376 -0.2071
16668TIP3    H171495   6.631   5.204   5.631  0.4976  2.1818  0.4918
16668TIP3    H271496   6.751   5.291   5.600  2.4845 -0.8385 -0.6846
16669TIP3   OH271497   1.004   3.406  15.347 -0.2284 -0.7944  0.1001
16669TIP3    H171498   1.090   3.373  15.373 -0.3945 -1.4238 -0.1305
16669TIP3    H271499   0.967   3.442  15.428  1.0063  1.2361 -0.1779
16670TIP3   OH271500   1.270   0.783   1.416 -0.4627 -0.1163  0.0840
16670TIP3    H171501   1.225   0.833   1.483 -2.7544 -0.1154 -1.3417
16670TIP3    H271502   1.317   0.848   1.364 -0.3518  0.1080  0.4628
16671TIP3   OH271503   0.680   1.718  14.717  0.1016  0.7178 -0.2558
16671TIP3    H171504   0.747   1.665  14.674 -0.2732  0.5815 -0.6732
16671TIP3    H271505   0.598   1.671  14.700 -0.0669  0.7291  0.4953
16672TIP3   OH271506   1.328   5.972  15.163 -0.6111 -0.5953  0.3717
16672TIP3    H171507   1.328   5.931  15.076  0.8689 -0.4203  0.2509
16672TIP3    H271508   1.312   6.065  15.146 -0.7464 -0.6264  0.3282
16673TIP3   OH271509   3.769   5.653   2.829  0.3152  0.2708 -0.0015
16673TIP3    H171510   3.736   5.579   2.778 -0.3805  0.1834  0.5663
16673TIP3    H271511   3.717   5.652   2.909 -1.4477  2.8760 -1.0098
16674TIP3   OH271512   0.680   5.320  14.793 -0.0101  0.9904 -0.0048
16674TIP3    H171513   0.715   5.232  14.774 -0.6541  0.7587 -0.1338
16674TIP3    H271514   0.674   5.323  14.889 -0.5636  0.6602 -0.0237
16675TIP3   OH271515   5.036   5.575   3.179  0.2614  0.5997  0.7038
16675TIP3    H171516   5.058   5.667   3.171  2.0997  0.1901  0.5544
16675TIP3    H271517   4.941   5.573   3.191  0.1276  2.4615  0.1549
16676TIP3   OH271518   2.111   5.748  12.361 -0.3191 -0.0753 -0.1109
16676TIP3    H171519   2.108   5.668  12.309 -0.2324 -0.7843  0.9545
16676TIP3    H271520   2.102   5.719  12.452  1.1602  0.9683  0.4197
16677TIP3   OH271521   4.897   4.133   2.268 -0.0231  0.3345  0.0236
16677TIP3    H171522   4.911   4.073   2.195  1.3310 -0.1712  0.6428
16677TIP3    H271523   4.926   4.083   2.345  0.3677  1.4977  0.6560
16678TIP3   OH271524   2.766   6.967   0.949 -0.3448  0.1383 -0.1805
16678TIP3    H171525   2.797   7.002   0.866 -1.3964 -0.1791 -0.7164
16678TIP3    H271526   2.681   6.929   0.930 -0.8152  0.4548  1.1392
16679TIP3   OH271527   6.896   3.041   4.967 -0.2153  0.0688 -0.7444
16679TIP3    H171528   6.938   3.049   4.881  0.7119 -0.8530 -0.3971
16679TIP3    H271529   6.804   3.057   4.950  0.3323  3.3439 -1.3522
16680TIP3   OH271530   4.628   2.834   1.045 -0.2118  0.4668  0.5941
16680TIP3    H171531   4.697   2.810   0.984  1.0749  0.8607  1.8454
16680TIP3    H271532   4.558   2.870   0.990  0.5763  0.0721 -0.6942
16681TIP3   OH271533   1.866   5.245   0.239 -0.3053 -0.4406  0.3671
16681TIP3    H171534   1.920   5.324   0.227 -0.0946 -0.8261 -1.6424
16681TIP3    H271535   1.922   5.174   0.208 -1.8175 -0.8745 -1.5659
16682TIP3   OH271536   1.463   2.293   4.123 -0.8200 -0.2562 -0.2328
16682TIP3    H171537   1.528   2.224   4.110 -1.8053 -1.0110 -1.4834
16682TIP3    H271538   1.423   2.273   4.207 -0.8741 -1.0340 -0.4372
16683TIP3   OH271539   1.623   4.046   2.643 -0.0771 -0.0497  0.3806
16683TIP3    H171540   1.570   3.992   2.702  1.2504 -0.7357  0.9876
16683TIP3    H271541   1.711   4.041   2.679  0.3341  1.4399 -0.3393
16684TIP3   OH271542   0.308   3.967   3.619 -0.2410  0.1153  0.6192
16684TIP3    H171543   0.258   4.042   3.588 -0.0095  0.5720  1.3208
16684TIP3    H271544   0.276   3.951   3.707  1.4749  1.0227  1.4502
16685TIP3   OH271545   4.417   2.695   4.956 -0.8946  0.2223  0.1697
16685TIP3    H171546   4.494   2.638   4.965 -0.6710  0.5881  0.6778
16685TIP3    H271547   4.388   2.682   4.866  0.5704  1.0740 -0.4686
16686TIP3   OH271548   6.705   5.679   1.417  0.3111 -0.6170 -0.1581
16686TIP3    H171549   6.793   5.679   1.455  0.0190 -0.0418  0.5350
16686TIP3    H271550   6.653   5.628   1.479  0.2932 -1.5601 -0.9253
16687TIP3   OH271551   3.442   5.871   3.262  0.1738  0.4282  0.4839
16687TIP3    H171552   3.361   5.900   3.220  0.6850  0.5231 -0.4383
16687TIP3    H271553   3.412   5.814   3.333 -0.6801 -0.3546 -0.4706
16688TIP3   OH271554   5.741   6.929   1.196 -0.1467 -0.0617  0.0197
16688TIP3    H171555   5.806   6.999   1.187  0.3516 -0.5835 -0.5177
16688TIP3    H271556   5.706   6.918   1.107 -3.4547  2.5083  0.7975
16689TIP3   OH271557   6.907   1.831   4.983 -0.1259 -0.1727 -0.2317
16689TIP3    H171558   6.823   1.874   4.996 -0.5411 -0.5554 -1.5041
16689TIP3    H271559   6.972   1.901   4.996 -0.6939  0.4049 -0.4463
16690TIP3   OH271560   5.848   6.780   3.159  0.1291 -0.4982  0.5011
16690TIP3    H171561   5.928   6.784   3.211 -0.4261  1.7603  1.3149
16690TIP3    H271562   5.867   6.833   3.081  1.6335 -5.3529 -2.9136
16691TIP3   OH271563   1.189   0.109   1.459  0.2887  0.2413 -0.1514
16691TIP3    H171564   1.187   0.014   1.471  1.9557  0.0196 -1.3417
16691TIP3    H271565   1.262   0.125   1.399  0.7411  2.3809  0.8474
16692TIP3   OH271566   5.385   0.784   4.971 -0.1973  0.1350 -0.8025
16692TIP3    H171567   5.453   0.719   4.957  2.2783  2.8365 -2.4388
16692TIP3    H271568   5.333   0.783   4.890 -1.7363 -1.3553  0.1255
16693TIP3   OH271569   0.068   4.764   0.773 -0.0169  0.4071  0.0104
16693TIP3    H171570   0.054   4.832   0.839  0.1017  0.4350  0.0067
16693TIP3    H271571   0.050   4.807   0.690 -1.8381 -0.0650  0.1153
16694TIP3   OH271572   1.498   6.997   4.081  0.5318  0.1629  0.1697
16694TIP3    H171573   1.463   6.930   4.022  0.7120  1.0840 -1.0295
16694TIP3    H271574   1.436   7.070   4.074 -0.9705 -0.6449  3.2467
16695TIP3   OH271575   1.828   5.769   4.197 -0.7129  0.7450 -0.2670
16695TIP3    H171576   1.785   5.712   4.133  0.3580 -0.3633 -0.0467
16695TIP3    H271577   1.759   5.828   4.228 -2.3741 -1.6109  0.8345
16696TIP3   OH271578   6.181   3.962   5.166 -0.1613 -0.1129  0.3748
16696TIP3    H171579   6.176   3.902   5.091  1.2568 -0.2294  0.3465
16696TIP3    H271580   6.096   3.955   5.209 -0.4413 -1.2148 -0.3367
16697TIP3   OH271581   4.059   5.748   6.135  0.0195 -0.1525  0.4294
16697TIP3    H171582   4.131   5.691   6.109  0.6627 -0.2885  2.3807
16697TIP3    H271583   3.985   5.688   6.146  0.3922 -0.4738  1.3125
16698TIP3   OH271584   0.256   4.525   4.315  0.2665 -0.0584  0.4515
16698TIP3    H171585   0.306   4.482   4.246 -1.1537 -1.7875  0.4367
16698TIP3    H271586   0.165   4.505   4.296 -0.3616  1.6386  1.3952
16699TIP3   OH271587   6.265   6.329   4.718  0.2395  0.1165  0.0028
16699TIP3    H171588   6.343   6.282   4.746  0.9487  0.9016 -0.6126
16699TIP3    H271589   6.233   6.280   4.642  1.2712  0.8764 -0.9553
16700TIP3   OH271590   0.868   3.686   2.393 -0.1107  0.1193  0.0140
16700TIP3    H171591   0.842   3.603   2.353 -0.6260 -0.0014  0.5698
16700TIP3    H271592   0.927   3.661   2.464 -0.2329  0.2239  0.1553
16701TIP3   OH271593   2.462   3.872   3.010 -0.1856  0.6756 -0.3780
16701TIP3    H171594   2.535   3.893   3.069  1.1136 -0.7051 -1.4003
16701TIP3    H271595   2.399   3.942   3.023  0.6030  1.0512  1.7385
16702TIP3   OH271596   0.752   6.996   2.404  0.1002 -0.4118 -0.2846
16702TIP3    H171597   0.783   7.029   2.488 -1.1892  0.1123  0.0068
16702TIP3    H271598   0.657   7.007   2.407 -0.0771 -1.3979 -1.3776
16703TIP3   OH271599   2.913   0.436   4.322 -0.1839 -0.7297 -0.3347
16703TIP3    H171600   2.927   0.341   4.321 -0.8011 -0.9204  1.8750
16703TIP3    H271601   2.980   0.469   4.382 -0.1408  0.2126 -0.8851
16704TIP3   OH271602   6.172   1.509   4.348  0.1945  0.2038 -0.4789
16704TIP3    H171603   6.088   1.473   4.377 -0.5397  0.2405 -2.4063
16704TIP3    H271604   6.228   1.432   4.336  0.0723  0.0813 -0.2710
16705TIP3   OH271605   2.084   3.449  14.598  0.1114 -0.3222 -0.3963
16705TIP3    H171606   1.998   3.409  14.584 -1.0079  1.0703  1.9320
16705TIP3    H271607   2.117   3.408  14.678  0.6030  0.7248 -0.0467
16706TIP3   OH271608   1.752   6.391   1.824  0.1829  0.3888 -0.4721
16706TIP3    H171609   1.682   6.363   1.764  0.1622  0.8864 -0.6840
16706TIP3    H271610   1.821   6.326   1.812 -1.7328 -2.5183  2.6477
16707TIP3   OH271611   4.670   6.303   5.486  0.2443  0.6807  0.5313
16707TIP3    H171612   4.630   6.370   5.541  0.5806 -0.5712  2.3832
16707TIP3    H271613   4.760   6.297   5.518  0.1959 -0.6924  0.4599
16708TIP3   OH271614   6.184   0.212   2.084  0.0013 -0.7210 -0.8095
16708TIP3    H171615   6.147   0.177   2.165  0.5778  1.1068  0.2976
16708TIP3    H271616   6.107   0.232   2.030 -0.7786  2.1790  1.0992
16709TIP3   OH271617   1.307   2.769   4.140 -0.4372  0.4211  0.2124
16709TIP3    H171618   1.355   2.755   4.059 -1.1058  1.0370 -0.3087
16709TIP3    H271619   1.283   2.681   4.170 -0.1685  0.1894 -0.2514
16710TIP3   OH271620   0.405   2.063   1.060 -0.2336 -0.2365  0.6203
16710TIP3    H171621   0.444   1.997   1.117 -0.7107 -0.9027  0.1780
16710TIP3    H271622   0.352   2.117   1.118  0.3004 -0.1252  1.0119
16711TIP3   OH271623   4.094   2.920   5.911 -0.1836 -0.6264 -0.0570
16711TIP3    H171624   4.141   2.844   5.944 -0.3857 -1.1866 -1.0244
16711TIP3    H271625   4.019   2.884   5.863  0.0876  0.1475 -1.1114
16712TIP3   OH271626   4.582   1.451   4.877  0.1241 -0.4447  0.4029
16712TIP3    H171627   4.534   1.508   4.938  0.6096 -0.7434  1.0729
16712TIP3    H271628   4.674   1.475   4.890  0.1208  1.0323 -1.7930
16713TIP3   OH271629   7.183   2.032   2.772  0.0232  0.0193  0.0184
16713TIP3    H171630   7.223   2.119   2.782 -0.8735  0.1832  3.3961
16713TIP3    H271631   7.238   1.988   2.708  2.4935  1.9780  0.6214
16714TIP3   OH271632   5.808   5.324   3.491  0.0422  0.5281 -0.7356
16714TIP3    H171633   5.791   5.243   3.442  0.1183  0.1803 -0.2018
16714TIP3    H271634   5.903   5.330   3.494  0.1904 -1.2125  2.1014
16715TIP3   OH271635   6.222   3.701   3.139  0.5119  0.3072 -0.2250
16715TIP3    H171636   6.182   3.621   3.104 -0.7639  0.8507 -0.0769
16715TIP3    H271637   6.157   3.770   3.121  1.9941  1.5072 -1.2458
16716TIP3   OH271638   6.226   7.195   4.602 -0.1172 -0.0187 -0.1309
16716TIP3    H171639   6.205   7.247   4.525  0.9487 -0.2373 -0.5915
16716TIP3    H271640   6.224   7.257   4.675  2.6974  1.0844 -0.8667
16717TIP3   OH271641   1.698   7.159   1.267  0.4247 -0.6439  0.6319
16717TIP3    H171642   1.747   7.187   1.345  1.2927  1.1101 -0.4920
16717TIP3    H271643   1.763   7.114   1.213  0.2006 -0.4605  0.2126
16718TIP3   OH271644   0.338   1.169  11.632 -0.5915  0.1250 -0.0133
16718TIP3    H171645   0.281   1.103  11.593  0.4743 -0.4488 -0.6473
16718TIP3    H271646   0.285   1.248  11.636 -1.6929 -0.6102  0.1898
16719TIP3   OH271647   6.309   7.137   3.914 -0.5632  0.3612 -0.0922
16719TIP3    H171648   6.268   7.215   3.951  1.1301  0.4716  1.7158
16719TIP3    H271649   6.380   7.171   3.860 -1.1018  0.1014 -0.9811
16720TIP3   OH271650   1.371   5.161   4.195 -0.1927 -0.4320  0.2225
16720TIP3    H171651   1.453   5.171   4.146 -0.7865 -0.0504 -0.7282
16720TIP3    H271652   1.333   5.080   4.162 -0.5070 -0.2677  0.1763
16721TIP3   OH271653   1.888   6.755   5.956  0.2356  0.2408  0.0837
16721TIP3    H171654   1.915   6.719   6.040  0.3160  2.2363  0.9653
16721TIP3    H271655   1.793   6.741   5.953 -0.1821  2.2572  1.6582
16722TIP3   OH271656   4.140   5.003   0.789  0.1861 -0.4040  0.1112
16722TIP3    H171657   4.142   4.997   0.885 -1.2646  3.1589  0.5545
16722TIP3    H271658   4.069   4.945   0.763  0.8274 -1.6982  1.1274
16723TIP3   OH271659   1.024   0.982   4.654 -0.2777 -0.3238  0.4067
16723TIP3    H171660   0.989   1.070   4.669  0.3628  0.0601 -0.2916
16723TIP3    H271661   1.117   0.995   4.635 -0.2434 -1.1136 -0.0315
16724TIP3   OH271662   4.886   0.690   1.634 -0.2865 -0.5071  0.7404
16724TIP3    H171663   4.969   0.703   1.589 -0.1599  0.7282  1.2950
16724TIP3    H271664   4.825   0.665   1.564  0.5531 -1.4709  0.3464
16725TIP3   OH271665   0.652   3.371  15.334  0.0135  0.5229 -0.0954
16725TIP3    H171666   0.696   3.441  15.383 -0.4850  0.4346  0.5010
16725TIP3    H271667   0.718   3.303  15.325  0.4166  0.9477 -0.4226
16726TIP3   OH271668   2.443   0.670   5.633 -0.1397  0.7518  0.3785
16726TIP3    H171669   2.524   0.655   5.681 -0.5151 -1.9464  0.2989
16726TIP3    H271670   2.412   0.583   5.609 -0.7368  1.8161 -3.5327
16727TIP3   OH271671   3.523   5.738   5.673 -0.1115  0.0274  0.4115
16727TIP3    H171672   3.458   5.710   5.737 -1.4981  1.0506 -0.5086
16727TIP3    H271673   3.567   5.657   5.647 -0.7425 -0.6311  1.3267
16728TIP3   OH271674   2.410   6.962  13.007  0.1801  0.4894  0.2093
16728TIP3    H171675   2.404   7.057  13.001  1.9110  0.6178  0.2133
16728TIP3    H271676   2.377   6.942  13.094 -0.7017  1.0100  0.0171
16729TIP3   OH271677   5.127   0.066   4.054 -0.1861  0.2023 -0.2318
16729TIP3    H171678   5.096   0.110   4.133  1.0954  1.1249 -0.2047
16729TIP3    H271679   5.207   0.021   4.082 -0.6491 -0.9117 -0.6231
16730TIP3   OH271680   4.341   2.876   3.727  0.2197 -0.2682 -0.1711
16730TIP3    H171681   4.357   2.919   3.643  1.3203  2.7569  1.4248
16730TIP3    H271682   4.252   2.900   3.750  0.8841  1.4990  0.7906
16731TIP3   OH271683   0.194   5.629   0.906 -0.7915  0.6118  1.0309
16731TIP3    H171684   0.234   5.642   0.992 -0.6021  1.4477  0.8321
16731TIP3    H271685   0.184   5.535   0.898  2.8422  0.1468  0.3307
16732TIP3   OH271686   1.161   0.121   3.699  0.0146 -0.0998  0.8174
16732TIP3    H171687   1.204   0.203   3.721  1.5072 -0.6413 -0.0167
16732TIP3    H271688   1.226   0.054   3.718 -1.0577 -1.0843  1.1317
16733TIP3   OH271689   6.492   6.190   4.848 -0.4729  0.1586  1.1133
16733TIP3    H171690   6.510   6.098   4.868 -1.5190 -0.0875  0.9982
16733TIP3    H271691   6.487   6.233   4.933 -0.0517  0.0900  1.1708
16734TIP3   OH271692   0.199   6.624   2.846 -0.1965 -0.0172  0.1187
16734TIP3    H171693   0.132   6.640   2.779  0.4019 -1.2531 -0.8009
16734TIP3    H271694   0.274   6.677   2.818 -0.3447  0.3847  0.4685
16735TIP3   OH271695   0.837   0.833   5.919  0.1880  0.1246  0.0388
16735TIP3    H171696   0.777   0.860   5.849  0.7104  0.2637 -0.3566
16735TIP3    H271697   0.795   0.866   5.999  0.2536  1.1376 -0.3330
16736TIP3   OH271698   2.458   5.491   4.470 -0.3647 -0.2028 -0.1210
16736TIP3    H171699   2.530   5.430   4.455 -0.6763 -0.9304  1.2482
16736TIP3    H271700   2.379   5.439   4.455 -0.6573 -0.4904  2.0906
16737TIP3   OH271701   1.140   1.768  15.241 -0.2367  0.3355  0.5448
16737TIP3    H171702   1.184   1.694  15.199 -0.6544  0.9857 -1.1152
16737TIP3    H271703   1.054   1.771  15.200  0.2248  2.5326 -0.3990
16738TIP3   OH271704   2.718   4.405   0.813  0.1269  0.5000  0.2071
16738TIP3    H171705   2.697   4.352   0.890 -0.2523 -0.8983 -0.8199
16738TIP3    H271706   2.781   4.353   0.764 -1.5977  0.1494 -1.7311
16739TIP3   OH271707   4.437   5.304   3.357  0.2352 -0.8415 -0.2052
16739TIP3    H171708   4.473   5.237   3.299  1.9961  0.1684 -0.3290
16739TIP3    H271709   4.370   5.347   3.305  1.4120 -0.3120 -1.3214
16740TIP3   OH271710   0.890   1.607   5.387 -0.5211 -0.1095 -0.0940
16740TIP3    H171711   0.923   1.548   5.455  1.0249 -0.2178 -0.8864
16740TIP3    H271712   0.960   1.670   5.374 -1.3171  0.6715 -0.7075
16741TIP3   OH271713   0.898   1.241  13.608 -0.0250  0.5519 -0.2247
16741TIP3    H171714   0.923   1.190  13.530  0.5909 -1.0895  0.9880
16741TIP3    H271715   0.980   1.252  13.657 -0.6653  0.1698  0.9707
16742TIP3   OH271716   2.996   4.713   1.604  0.1792 -0.2612  0.2744
16742TIP3    H171717   3.067   4.766   1.569 -0.5546  1.7410  1.6965
16742TIP3    H271718   3.015   4.624   1.572  2.8107  0.3610 -0.0987
16743TIP3   OH271719   4.151   5.641   2.149  0.8830  0.4636 -0.1720
16743TIP3    H171720   4.214   5.624   2.219  1.2766  0.4796 -0.5224
16743TIP3    H271721   4.078   5.685   2.193  0.6894 -0.3990  0.4105
16744TIP3   OH271722   3.320   0.520   3.922  0.6180  0.2137 -0.3184
16744TIP3    H171723   3.338   0.478   3.838 -0.2580 -0.7473 -0.0370
16744TIP3    H271724   3.367   0.467   3.986 -1.3155 -0.9908  0.1592
16745TIP3   OH271725   5.418   3.607   3.440  0.3491 -0.0428  0.9682
16745TIP3    H171726   5.508   3.629   3.467  0.2021  1.4422  0.3346
16745TIP3    H271727   5.427   3.574   3.351  0.1082  1.9220  0.1708
16746TIP3   OH271728   2.024   1.378  13.038 -0.4425 -0.7172 -0.3946
16746TIP3    H171729   2.080   1.417  12.971  0.4501  0.0352  0.7535
16746TIP3    H271730   1.939   1.419  13.025 -0.1332 -0.1656 -0.7160
16747TIP3   OH271731   0.076   3.107   0.789  0.1187  0.5152 -0.6776
16747TIP3    H171732   0.069   3.201   0.773 -0.7781  0.7649  0.8846
16747TIP3    H271733   0.016   3.091   0.862  1.2006 -1.0474 -0.0718
16748TIP3   OH271734   2.050   1.356   2.130 -0.0034  0.1020  0.2357
16748TIP3    H171735   2.104   1.344   2.051 -0.8600  0.9037 -0.5017
16748TIP3    H271736   2.099   1.312   2.199  0.9227 -0.3679 -0.6835
16749TIP3   OH271737   0.288   2.168   0.337  0.3535 -0.0048 -0.0935
16749TIP3    H171738   0.314   2.212   0.256  0.4530  3.3009  1.5817
16749TIP3    H271739   0.369   2.127   0.368  1.0220  1.0710 -0.3248
16750TIP3   OH271740   1.996   3.675  12.860 -0.4118  0.3568  0.0493
16750TIP3    H171741   1.933   3.628  12.914 -2.3432  1.1901 -1.3653
16750TIP3    H271742   2.045   3.729  12.922 -1.9342  0.6254  1.0828
16751TIP3   OH271743   4.204   4.800   0.117 -0.3328 -0.0205 -0.8859
16751TIP3    H171744   4.292   4.832   0.137 -0.7586  0.8515 -0.3723
16751TIP3    H271745   4.219   4.724   0.060  0.7185  0.8561 -1.8170
16752TIP3   OH271746   3.221   4.609   4.116  0.0043 -0.2718  0.1620
16752TIP3    H171747   3.139   4.565   4.135 -0.5993  0.6119 -0.3078
16752TIP3    H271748   3.268   4.549   4.057 -0.9065 -0.1938 -0.6684
16753TIP3   OH271749   5.610   6.407   2.980  0.0965  0.0315 -0.2794
16753TIP3    H171750   5.578   6.356   3.055 -0.2488  1.5951  0.6752
16753TIP3    H271751   5.621   6.342   2.910 -0.5509 -1.3076  0.8138
16754TIP3   OH271752   4.102   6.179  13.860 -0.0779  0.2365  0.0469
16754TIP3    H171753   4.090   6.084  13.864 -0.3527  0.3033  0.9690
16754TIP3    H271754   4.137   6.195  13.772  0.3259 -0.7575  0.0125
16755TIP3   OH271755   3.606   2.669   2.424  0.8716 -0.3146  0.2266
16755TIP3    H171756   3.631   2.601   2.486  0.4302 -2.0124 -1.3526
16755TIP3    H271757   3.517   2.645   2.397  1.5727 -0.5184 -2.1119
16756TIP3   OH271758   1.373   3.566  12.261  0.0637  0.4412 -0.7938
16756TIP3    H171759   1.426   3.611  12.195  0.9903 -1.6246 -1.5529
16756TIP3    H271760   1.334   3.492  12.215 -1.5503  0.5188  0.3529
16757TIP3   OH271761   2.538   2.536   4.903  0.2837 -0.2863 -0.2469
16757TIP3    H171762   2.569   2.448   4.925  1.0509  0.5296  2.3231
16757TIP3    H271763   2.452   2.542   4.944  1.1808  0.8393  1.6254
16758TIP3   OH271764   3.106   0.656   2.989  0.0394  0.1279  0.0042
16758TIP3    H171765   3.050   0.706   3.049 -0.3759 -0.2280 -0.0841
16758TIP3    H271766   3.045   0.621   2.924  0.2369 -1.0198  0.4126
16759TIP3   OH271767   2.541   3.611   3.110  0.0863 -0.2898  0.0401
16759TIP3    H171768   2.553   3.684   3.050 -2.0482 -0.1213 -0.2771
16759TIP3    H271769   2.602   3.628   3.182 -0.4258  1.8812  0.0261
16760TIP3   OH271770   2.010   0.695   0.565  0.3596 -0.2254 -0.2360
16760TIP3    H171771   2.022   0.600   0.564 -0.4265 -0.3278 -0.0857
16760TIP3    H271772   2.041   0.724   0.479 -1.6698 -0.9103 -1.2522
16761TIP3   OH271773   4.986   0.662   4.142 -0.5052  0.9715 -0.1018
16761TIP3    H171774   4.985   0.574   4.182 -1.0117  2.0828  2.5828
16761TIP3    H271775   5.074   0.670   4.106 -0.8770 -1.1094 -1.6678
16762TIP3   OH271776   6.068   4.208   2.835  0.4215 -0.0075  0.4866
16762TIP3    H171777   6.006   4.143   2.868  0.1588  1.0092  2.1342
16762TIP3    H271778   6.036   4.229   2.747  2.1356 -4.0917 -1.3318
16763TIP3   OH271779   4.679   6.250   0.030  0.5463  0.5948  0.3188
16763TIP3    H171780   4.706   6.331   0.075  0.0900  1.0707 -0.2454
16763TIP3    H271781   4.583   6.254   0.030  0.2831 -1.6223  3.3476
16764TIP3   OH271782   2.805   4.368  10.214 -0.4804 -0.1257  0.3296
16764TIP3    H171783   2.745   4.318  10.158 -0.8383  1.0735 -0.3848
16764TIP3    H271784   2.748   4.415  10.275 -0.2297  0.5236  0.0677
16765TIP3   OH271785   0.468   2.508   1.946 -0.0255  0.0767  0.5031
16765TIP3    H171786   0.463   2.600   1.918 -2.9188 -0.3999 -0.9619
16765TIP3    H271787   0.464   2.458   1.864  2.7518 -1.4635  1.1675
16766TIP3   OH271788   5.951   0.822   1.732 -0.2340 -0.0112 -0.4003
16766TIP3    H171789   6.034   0.780   1.753  0.9616  2.0749 -0.7352
16766TIP3    H271790   5.922   0.862   1.814  0.2300  1.1294 -0.7811
16767TIP3   OH271791   4.455   5.754   4.159  0.0296 -0.2026  0.4607
16767TIP3    H171792   4.374   5.734   4.112 -0.3544 -0.5935  1.2708
16767TIP3    H271793   4.478   5.672   4.203 -0.7311  0.6564  2.5936
16768TIP3   OH271794   2.514   3.643   4.539 -0.0295  0.5964 -0.1884
16768TIP3    H171795   2.597   3.634   4.492  0.5822 -0.6863  1.0690
16768TIP3    H271796   2.457   3.577   4.500 -0.5356  1.5678 -1.1438
16769TIP3   OH271797   3.403   2.608   1.548  0.4978  0.4255 -0.2506
16769TIP3    H171798   3.497   2.596   1.530  0.5713  0.0289  0.3899
16769TIP3    H271799   3.380   2.688   1.500  1.5009  1.3624  0.7635
16770TIP3   OH271800   4.146   2.414  14.506 -0.0889  0.1200 -0.2396
16770TIP3    H171801   4.100   2.336  14.476 -1.2021  0.0630  1.4869
16770TIP3    H271802   4.093   2.487  14.473  0.2447  0.1307 -0.7637
16771TIP3   OH271803   6.921   5.460   4.351  0.0394 -0.4892 -0.1221
16771TIP3    H171804   6.931   5.418   4.265  1.6611  0.5149 -0.4742
16771TIP3    H271805   6.826   5.462   4.365 -0.2423 -1.1648 -1.6395
16772TIP3   OH271806   3.919   1.200   3.964  0.1756 -0.5195  0.1590
16772TIP3    H171807   3.913   1.294   3.981 -1.3125 -0.2199 -1.7006
16772TIP3    H271808   3.880   1.159   4.041 -0.6825  0.4673  0.2690
16773TIP3   OH271809   4.432   7.087  14.604  0.4518 -0.1270  0.1108
16773TIP3    H171810   4.462   7.055  14.689  1.3465 -0.8393 -0.4563
16773TIP3    H271811   4.401   7.009  14.558  0.6623  0.1392 -0.4939
16774TIP3   OH271812   5.090   5.119  10.408  0.2730  0.2310 -0.0234
16774TIP3    H171813   5.025   5.172  10.454 -0.2647 -0.5074  0.0736
16774TIP3    H271814   5.167   5.176  10.403  0.2576  0.4322  1.5370
16775TIP3   OH271815   4.212   6.963   3.897 -0.4648  0.2069  0.2928
16775TIP3    H171816   4.231   6.875   3.864  1.4231  0.2241  1.2069
16775TIP3    H271817   4.127   6.954   3.940 -2.3218 -0.1517 -3.1332
16776TIP3   OH271818   0.421   0.687   4.551 -0.0098  0.9269  1.1226
16776TIP3    H171819   0.371   0.735   4.485  2.7729  0.3539 -1.6465
16776TIP3    H271820   0.405   0.595   4.531  0.2813  0.7400  1.7293
16777TIP3   OH271821   1.966   2.826   3.350  0.2528  0.1796 -0.1188
16777TIP3    H171822   2.006   2.909   3.322 -1.3438  1.7238  1.8184
16777TIP3    H271823   2.018   2.758   3.307  4.5882  1.9968  1.6672
16778TIP3   OH271824   0.134   6.565   2.438 -0.2203  1.0678 -0.5813
16778TIP3    H171825   0.180   6.571   2.354  0.3271  1.3927 -0.2684
16778TIP3    H271826   0.099   6.653   2.453 -4.3496  0.0086 -2.6523
16779TIP3   OH271827   1.448   4.941   3.809 -0.3978  0.5922  0.0863
16779TIP3    H171828   1.417   5.031   3.806  0.8180  1.0712  0.9528
16779TIP3    H271829   1.427   4.912   3.898 -2.2774 -0.5835 -0.6669
16780TIP3   OH271830   1.498   6.350  13.914 -0.4869  0.0616  0.2622
16780TIP3    H171831   1.478   6.418  13.849 -0.3315  0.0033  0.1521
16780TIP3    H271832   1.489   6.394  13.998  0.4940  0.4647  0.1746
16781TIP3   OH271833   6.356   5.651   3.599 -0.1282 -0.5021  0.2103
16781TIP3    H171834   6.327   5.610   3.680  1.4978 -1.9865  0.1153
16781TIP3    H271835   6.394   5.579   3.548 -0.2881  0.5493 -1.4820
16782TIP3   OH271836   1.419   5.312  11.639 -0.1232  0.4007  0.5456
16782TIP3    H171837   1.486   5.263  11.686 -1.1342 -0.5912  0.9964
16782TIP3    H271838   1.340   5.258  11.644 -0.7896  1.1937 -0.5884
16783TIP3   OH271839   7.193   0.048   0.744  0.0990 -0.7364  0.3186
16783TIP3    H171840   7.184   0.129   0.794 -0.2400 -1.0443  0.7563
16783TIP3    H271841   7.236   0.076   0.662  0.6918 -0.2456  0.7870
16784TIP3   OH271842   1.376   6.372   2.343  0.6001 -0.2000  0.1634
16784TIP3    H171843   1.383   6.329   2.428  0.3444  0.0739  0.3279
16784TIP3    H271844   1.465   6.400   2.322  0.5383  0.4559  0.7317
16785TIP3   OH271845   5.144   5.613   1.600  0.2306 -0.3724  0.1274
16785TIP3    H171846   5.173   5.531   1.562  1.2312 -0.2046  0.4943
16785TIP3    H271847   5.212   5.636   1.663  0.2025  0.9596 -0.2910
16786TIP3   OH271848   6.519   0.147   1.807 -0.1916  0.0401 -0.2339
16786TIP3    H171849   6.472   0.085   1.862 -0.1818 -2.4312 -2.8019
16786TIP3    H271850   6.611   0.137   1.832 -0.1602 -1.2262 -0.7834
16787TIP3   OH271851   5.363   1.042   3.832  0.4952  0.4695 -0.2950
16787TIP3    H171852   5.396   0.998   3.754 -1.0521 -1.4916  0.0680
16787TIP3    H271853   5.333   1.128   3.802  0.2761 -0.1091 -1.7733
16788TIP3   OH271854   3.321   4.301   4.696  0.9871 -0.2195  0.3706
16788TIP3    H171855   3.342   4.387   4.660 -0.7088 -0.3214 -1.0107
16788TIP3    H271856   3.307   4.316   4.789 -1.1715  1.4151 -0.1447
16789TIP3   OH271857   6.817   0.844  11.553 -0.2039 -0.2144 -0.1118
16789TIP3    H171858   6.790   0.849  11.461 -2.2278 -2.4456  0.2419
16789TIP3    H271859   6.767   0.770  11.588  0.9295  0.2167  2.6621
16790TIP3   OH271860   5.322   6.522   2.489  0.1756 -0.4378 -0.0538
16790TIP3    H171861   5.412   6.507   2.462  0.3994  0.1739  0.3153
16790TIP3    H271862   5.329   6.585   2.561 -0.6428  0.9903 -1.1639
16791TIP3   OH271863   6.876   1.078  12.172  0.1467  0.0082  0.4294
16791TIP3    H171864   6.783   1.059  12.160  0.4726 -0.3482 -2.1316
16791TIP3    H271865   6.881   1.119  12.258 -2.5444  1.1113  0.1611
16792TIP3   OH271866   3.828   4.886   2.189 -0.5399 -0.5924 -0.4089
16792TIP3    H171867   3.838   4.839   2.272  2.6207  2.2430  1.0778
16792TIP3    H271868   3.900   4.853   2.134 -1.9839 -1.7056 -1.7076
16793TIP3   OH271869   6.049   6.699   3.392 -0.1789 -0.9481  0.6699
16793TIP3    H171870   6.070   6.651   3.313 -0.2500 -0.9920  0.6773
16793TIP3    H271871   6.133   6.722   3.431 -0.1105  0.2562 -0.1305
16794TIP3   OH271872   1.458   4.724   4.050 -0.0141 -0.3402 -0.2426
16794TIP3    H171873   1.516   4.763   4.115  0.2573 -3.2478  1.4468
16794TIP3    H271874   1.375   4.710   4.096 -1.1564  1.0344 -1.7454
16795TIP3   OH271875   0.145   6.973  12.481  0.4675  0.4314 -0.1703
16795TIP3    H171876   0.086   6.913  12.527 -0.1781  0.7851 -0.5196
16795TIP3    H271877   0.187   7.024  12.550 -0.4070  0.8780  0.0423
16796TIP3   OH271878   4.284   3.619   2.751 -0.0312 -0.2969  0.5542
16796TIP3    H171879   4.310   3.581   2.835 -0.5768 -0.7936  0.5071
16796TIP3    H271880   4.245   3.546   2.703  1.2844 -0.2790 -0.5823
16797TIP3   OH271881   4.325   1.174   1.552 -0.2541  0.1124  0.1283
16797TIP3    H171882   4.408   1.171   1.504 -0.2812  0.5277  0.0543
16797TIP3    H271883   4.280   1.093   1.528 -0.6751  0.7442 -1.2719
16798TIP3   OH271884   2.816   4.418   3.312 -0.3863 -0.1462 -0.5573
16798TIP3    H171885   2.798   4.485   3.377 -0.3972 -1.1241  0.4843
16798TIP3    H271886   2.756   4.437   3.240  0.3788  1.5937 -0.7832
16799TIP3   OH271887   4.983   3.210   1.269 -0.2186 -0.0517 -0.3354
16799TIP3    H171888   4.999   3.284   1.210  0.0053  1.0586  1.0598
16799TIP3    H271889   5.062   3.204   1.322 -0.5583 -0.7960  0.1113
16800TIP3   OH271890   3.273   2.108   2.369  0.4084 -0.2152 -0.1364
16800TIP3    H171891   3.333   2.050   2.417 -0.5649 -0.6498  0.5820
16800TIP3    H271892   3.295   2.196   2.400  0.9206 -0.3311 -0.1566
16801TIP3   OH271893   0.550   2.412   2.460 -0.1392  0.2413  0.0370
16801TIP3    H171894   0.527   2.319   2.451 -3.2846  0.6593  2.1506
16801TIP3    H271895   0.485   2.458   2.407 -0.2374  1.3275  1.0700
16802TIP3   OH271896   6.744   5.949   5.417 -0.2979  0.1917 -0.1039
16802TIP3    H171897   6.676   5.917   5.476 -0.0904  0.1511  0.1169
16802TIP3    H271898   6.711   6.032   5.384  0.1042  0.8226  1.0059
16803TIP3   OH271899   2.329   5.420   2.213 -0.0899 -0.1067 -0.0464
16803TIP3    H171900   2.404   5.370   2.245  1.3289  1.9775  0.0828
16803TIP3    H271901   2.362   5.464   2.134 -1.6011 -0.1885 -0.7589
16804TIP3   OH271902   4.904   4.255   4.477 -0.2955 -0.0820  0.0645
16804TIP3    H171903   4.883   4.330   4.422  0.5835  0.0809 -0.0528
16804TIP3    H271904   4.890   4.286   4.567 -0.2351  0.1187  0.0034
16805TIP3   OH271905   2.562   6.956   3.024 -0.5257  0.8975  0.4862
16805TIP3    H171906   2.580   7.018   2.954  0.7501  0.9897  0.8702
16805TIP3    H271907   2.587   6.871   2.988  0.0777  0.9372  0.7891
16806TIP3   OH271908   0.056   1.515   4.741 -0.0966  0.2948  0.2958
16806TIP3    H171909   0.037   1.608   4.757 -2.6250  0.1198 -1.0972
16806TIP3    H271910   0.075   1.510   4.647 -1.1983 -0.7227  0.1008
16807TIP3   OH271911   6.940   4.796   2.366  0.0933  0.5542 -0.3372
16807TIP3    H171912   6.910   4.774   2.454  0.0345  0.3664 -0.4039
16807TIP3    H271913   6.989   4.878   2.377  0.1622  0.4831 -0.1177
16808TIP3   OH271914   6.624   5.730   4.738 -0.1334  0.5377 -0.0331
16808TIP3    H171915   6.585   5.695   4.658 -0.4146 -1.2329  0.8380
16808TIP3    H271916   6.705   5.680   4.749  0.5714  1.6642  0.1313
16809TIP3   OH271917   2.164   6.681   4.885 -0.0764 -0.6327 -0.6071
16809TIP3    H171918   2.124   6.653   4.967  0.8716  1.6815  0.7195
16809TIP3    H271919   2.170   6.601   4.833 -0.3920 -2.2422  1.6926
16810TIP3   OH271920   2.299   0.495   3.097 -0.5068 -0.2369 -0.2446
16810TIP3    H171921   2.243   0.513   3.021 -0.5524 -2.5996 -0.8439
16810TIP3    H271922   2.239   0.460   3.163  0.0933 -2.1087 -0.6356
16811TIP3   OH271923   6.558   6.970   5.412  0.2512 -0.3469  0.2140
16811TIP3    H171924   6.634   7.012   5.453 -0.7736  0.8165  1.0010
16811TIP3    H271925   6.592   6.887   5.378  2.0487  0.5026 -0.1914
16812TIP3   OH271926   3.261   2.403   5.416 -0.5592 -0.1064  0.1923
16812TIP3    H171927   3.342   2.410   5.366  0.6367  3.4571  2.3225
16812TIP3    H271928   3.201   2.355   5.358  1.8788  0.3601 -2.9534
16813TIP3   OH271929   1.278   1.279   2.742  0.0800 -0.0193 -0.1984
16813TIP3    H171930   1.264   1.245   2.831 -0.6852 -0.8472 -0.6210
16813TIP3    H271931   1.199   1.329   2.723  0.1065 -0.1037 -0.5305
16814TIP3   OH271932   0.151   4.433   5.710  0.5673  0.4058 -0.1124
16814TIP3    H171933   0.095   4.358   5.731  0.9418 -0.2766 -1.3779
16814TIP3    H271934   0.092   4.495   5.667  0.5889  0.0627 -0.6548
16815TIP3   OH271935   5.188   3.449   3.483  0.7426  0.2790  0.4266
16815TIP3    H171936   5.238   3.530   3.488  1.4542 -0.1986  1.4772
16815TIP3    H271937   5.200   3.408   3.569 -0.6973 -0.3028  0.3831
16816TIP3   OH271938   4.532   0.049   5.469  0.3411 -0.0781  0.5907
16816TIP3    H171939   4.459   0.107   5.449 -0.2749 -0.3457  1.9362
16816TIP3    H271940   4.589   0.053   5.392 -1.2346 -0.1022 -0.6162
16817TIP3   OH271941   5.240   5.014   3.179 -0.1747  0.1066  0.7036
16817TIP3    H171942   5.191   5.072   3.121 -0.6399 -1.6576 -0.7732
16817TIP3    H271943   5.265   5.069   3.253 -0.1320  2.2918 -0.8458
16818TIP3   OH271944   1.434   2.256   3.003  0.0875  0.1542  0.4565
16818TIP3    H171945   1.424   2.351   2.993  0.0906  0.1277  0.1959
16818TIP3    H271946   1.524   2.245   3.033  0.5284  0.1483 -0.8199
16819TIP3   OH271947   1.339   0.947   3.344 -0.1806 -0.6246 -0.2933
16819TIP3    H171948   1.245   0.959   3.333  0.1865  0.1200 -3.3239
16819TIP3    H271949   1.363   0.878   3.283  1.5177  0.5671 -1.0450
16820TIP3   OH271950   2.885   1.151   4.060  0.1702  0.9830  0.2892
16820TIP3    H171951   2.803   1.177   4.019 -0.0674  0.6588  0.5547
16820TIP3    H271952   2.859   1.112   4.144  0.2176 -3.0203 -1.3293
16821TIP3   OH271953   3.168   3.660   1.665  0.0169  0.3953 -0.1294
16821TIP3    H171954   3.154   3.754   1.671 -1.4886  0.2588 -1.2098
16821TIP3    H271955   3.084   3.621   1.686  0.7387 -0.7542  0.7735
16822TIP3   OH271956   0.147   3.172  14.985 -0.5082 -0.1652 -0.7840
16822TIP3    H171957   0.106   3.095  14.946 -2.1271  0.6000 -0.6470
16822TIP3    H271958   0.090   3.245  14.961  0.9241  0.9978 -0.8035
16823TIP3   OH271959   1.413   2.773   3.136 -0.2570  0.6874 -0.3129
16823TIP3    H171960   1.506   2.769   3.111 -0.4582 -0.1077 -0.9397
16823TIP3    H271961   1.378   2.846   3.086  0.0205  0.9837 -0.0844
16824TIP3   OH271962   6.172   3.454   5.316 -0.2838  0.1349  0.1807
16824TIP3    H171963   6.153   3.360   5.307 -0.8636  0.2852 -0.2628
16824TIP3    H271964   6.198   3.464   5.408  1.6438 -0.7597 -0.2272
16825TIP3   OH271965   2.652   3.638   4.273  0.1086  0.5052  0.8326
16825TIP3    H171966   2.583   3.630   4.207  1.2748  0.4393 -0.4352
16825TIP3    H271967   2.641   3.726   4.308 -1.2325  0.1373  1.3907
16826TIP3   OH271968   5.239   4.426  13.167  0.3333  0.4372  0.6076
16826TIP3    H171969   5.209   4.351  13.219  1.0092 -0.6530 -0.5125
16826TIP3    H271970   5.181   4.498  13.192 -0.4941 -0.5217  1.5376
16827TIP3   OH271971   3.341   3.645   5.927  0.2904  0.0814 -0.1717
16827TIP3    H171972   3.257   3.668   5.886 -0.3262  0.4440  1.2419
16827TIP3    H271973   3.369   3.565   5.882 -1.4105 -0.7291  0.1436
16828TIP3   OH271974   5.157   2.258   3.894  0.0526  0.0327  0.0335
16828TIP3    H171975   5.189   2.252   3.984  0.1570 -0.8884 -0.0519
16828TIP3    H271976   5.074   2.211   3.895  0.8368 -1.4663 -0.6868
16829TIP3   OH271977   5.122   1.522  11.666 -0.0864 -0.0073 -0.2130
16829TIP3    H171978   5.128   1.553  11.756  1.0260  2.2388 -0.9800
16829TIP3    H271979   5.202   1.554  11.625 -1.2672  0.3416 -2.3781
16830TIP3   OH271980   5.948   4.011   1.158  0.3079 -0.3228  0.1968
16830TIP3    H171981   5.866   3.985   1.202 -0.0674 -0.0928 -0.3619
16830TIP3    H271982   5.922   4.030   1.068  0.7879  0.8199  0.2880
16831TIP3   OH271983   1.401   3.681   5.070  0.0259 -0.2130 -0.4793
16831TIP3    H171984   1.399   3.700   5.164 -0.2320 -1.2858 -0.2557
16831TIP3    H271985   1.342   3.606   5.059 -0.5160  0.3520 -1.6082
16832TIP3   OH271986   2.651   6.313   2.941  0.0927 -0.5041 -0.1384
16832TIP3    H171987   2.569   6.341   2.980  0.1905 -0.0514 -0.2520
16832TIP3    H271988   2.660   6.221   2.967  0.6215  0.0248  1.6930
16833TIP3   OH271989   5.224   0.855   3.021 -0.2294  0.0332  0.2400
16833TIP3    H171990   5.166   0.805   2.963  0.2764  2.9386 -3.1046
16833TIP3    H271991   5.169   0.880   3.095 -1.2647 -2.7909  0.5741
16834TIP3   OH271992   0.285   3.329  11.247  0.2261  0.3763  0.0401
16834TIP3    H171993   0.327   3.330  11.333  0.3125 -0.7004  0.0325
16834TIP3    H271994   0.277   3.421  11.222 -0.4391  0.7482  1.5049
16835TIP3   OH271995   3.642   6.421   0.024 -0.0307 -0.4060 -0.1860
16835TIP3    H171996   3.660   6.336  -0.015 -1.4546 -1.1491  0.6711
16835TIP3    H271997   3.637   6.404   0.118  0.4841  0.7940  0.0813
16836TIP3   OH271998   5.962   5.455  13.602 -0.3839 -0.2930 -0.2195
16836TIP3    H171999   6.030   5.434  13.667 -0.8120  1.8362  1.0012
16836TIP3    H272000   6.009   5.458  13.519  0.8189  0.1059  0.4448
16837TIP3   OH272001   1.530   4.250   5.155  0.1368  0.0644 -0.0886
16837TIP3    H172002   1.463   4.317   5.169  0.3582  0.0109  1.3326
16837TIP3    H272003   1.611   4.290   5.188  0.5792 -0.3234 -0.6835
16838TIP3   OH272004   5.145   3.434  14.554  0.3682 -0.5445 -0.7797
16838TIP3    H172005   5.136   3.525  14.579  2.8526 -0.7675  1.4139
16838TIP3    H272006   5.061   3.394  14.574 -0.3662  1.0149 -0.6652
16839TIP3   OH272007   4.208   1.120   3.597  0.1598  0.0277 -0.7811
16839TIP3    H172008   4.136   1.079   3.644  0.3211  0.2414 -0.3340
16839TIP3    H272009   4.281   1.059   3.607  0.6305  0.7700  0.5790
16840TIP3   OH272010   2.592   1.966   2.374  0.0881  0.3116  0.0320
16840TIP3    H172011   2.628   2.055   2.384  0.6384  0.2706 -1.3199
16840TIP3    H272012   2.591   1.931   2.463  3.1548  0.4546  0.2465
16841TIP3   OH272013   3.947   5.317   3.939 -0.3520 -0.2891 -0.3416
16841TIP3    H172014   3.876   5.254   3.951  0.1833 -0.5851  1.4901
16841TIP3    H272015   4.015   5.268   3.891  0.6455 -1.6473  2.2818
16842TIP3   OH272016   1.631   2.201  15.167  0.0346  0.6522  0.4864
16842TIP3    H172017   1.550   2.150  15.160  0.6045 -0.1589 -0.4589
16842TIP3    H272018   1.700   2.140  15.143  0.9481  1.3238  1.3262
16843TIP3   OH272019   1.175   2.456  14.661 -0.2006  0.5855 -0.9746
16843TIP3    H172020   1.093   2.453  14.611 -1.2218  2.0490  0.5206
16843TIP3    H272021   1.187   2.548  14.682  0.7339  0.1342  0.5881
16844TIP3   OH272022   6.327   6.222   0.390  0.2229 -0.7980  0.1515
16844TIP3    H172023   6.318   6.178   0.306  0.5643  0.2597 -0.4603
16844TIP3    H272024   6.379   6.162   0.443  1.3404 -0.8111 -0.9139
16845TIP3   OH272025   3.837   2.883   5.102 -0.1117  0.3483  0.2044
16845TIP3    H172026   3.759   2.870   5.048  0.2703  0.3575 -0.3566
16845TIP3    H272027   3.899   2.929   5.045  0.8335 -0.9012  0.1618
16846TIP3   OH272028   4.557   0.540   0.546  0.1237 -0.1364  0.2011
16846TIP3    H172029   4.506   0.466   0.578  1.4198 -0.7391  0.9690
16846TIP3    H272030   4.493   0.599   0.506 -0.7217 -2.6942 -2.5347
16847TIP3   OH272031   5.254   0.365   1.504  0.2186 -0.1333  0.0680
16847TIP3    H172032   5.252   0.424   1.429 -2.1810  0.3283  0.4085
16847TIP3    H272033   5.253   0.423   1.581  0.6422 -0.6049  0.4358
16848TIP3   OH272034   5.768   0.514  13.778 -1.0637  0.1478 -0.2814
16848TIP3    H172035   5.824   0.517  13.701  1.5477  1.3867  1.5525
16848TIP3    H272036   5.695   0.458  13.752  0.1576 -0.1916 -3.3313
16849TIP3   OH272037   2.890   4.297   1.282  0.4605  0.3549 -0.0437
16849TIP3    H172038   2.802   4.332   1.294 -0.0597 -0.2010 -1.8492
16849TIP3    H272039   2.924   4.342   1.204  0.5493 -1.5971 -1.2160
16850TIP3   OH272040   0.356   4.586   2.940  0.0317  0.4130 -0.3050
16850TIP3    H172041   0.374   4.493   2.944  4.3397  1.1083  0.7333
16850TIP3    H272042   0.269   4.596   2.980 -0.3674 -3.0050 -0.0774
16851TIP3   OH272043   6.567   1.171   2.021 -0.3018 -0.3163  0.7216
16851TIP3    H172044   6.518   1.117   2.083  0.5847 -2.7195 -0.5368
16851TIP3    H272045   6.633   1.112   1.984  0.5899  1.5865 -0.9333
16852TIP3   OH272046   6.543   4.166   6.167  0.1811  0.0262 -0.3890
16852TIP3    H172047   6.474   4.232   6.176 -1.1502 -1.2598 -0.6862
16852TIP3    H272048   6.536   4.137   6.075 -1.1637 -2.4225  0.3782
16853TIP3   OH272049   3.347   0.139   4.067  0.1782 -0.1078 -0.2792
16853TIP3    H172050   3.380   0.157   4.156  0.7331 -0.2621 -0.4464
16853TIP3    H272051   3.400   0.065   4.037 -0.0598 -0.1035 -0.7092
16854TIP3   OH272052   1.661   0.560   5.196  0.0454 -0.0088 -0.3640
16854TIP3    H172053   1.588   0.499   5.193 -1.0404  1.2446 -0.3954
16854TIP3    H272054   1.624   0.640   5.234  1.0961  1.0545 -1.4731
16855TIP3   OH272055   3.068   2.406   3.654  0.3356 -0.4969  0.1164
16855TIP3    H172056   2.984   2.401   3.609  1.0532 -0.5274 -1.2523
16855TIP3    H272057   3.045   2.416   3.747 -1.1757  1.0180 -0.3893
16856TIP3   OH272058   6.056   4.685   2.586  0.1471 -0.7882  0.0330
16856TIP3    H172059   6.014   4.732   2.658  0.5927 -2.8172  1.6851
16856TIP3    H272060   6.023   4.730   2.507 -0.6941  1.2212  1.4253
16857TIP3   OH272061   2.264   3.034   1.857  0.1611  0.2211 -0.2986
16857TIP3    H172062   2.326   2.978   1.903  1.0416  1.7581  0.4950
16857TIP3    H272063   2.199   3.057   1.923  0.4562  1.0324 -0.2764
16858TIP3   OH272064   3.732   2.782   2.649  0.3480 -0.1612 -0.5301
16858TIP3    H172065   3.708   2.788   2.557 -2.5056 -0.5342  0.1019
16858TIP3    H272066   3.685   2.706   2.682 -0.6721  1.3252  1.7327
16859TIP3   OH272067   3.885   2.778   5.353 -0.2402 -0.3273  0.0523
16859TIP3    H172068   3.856   2.783   5.262 -0.9913 -0.8334  0.2508
16859TIP3    H272069   3.970   2.820   5.353  1.0471 -2.7079 -1.4399
16860TIP3   OH272070   4.733   4.177   3.586  0.3154 -0.4660 -0.1659
16860TIP3    H172071   4.670   4.113   3.619  0.5785 -0.4412  0.4048
16860TIP3    H272072   4.680   4.242   3.539 -0.0012 -0.8488 -0.3395
16861TIP3   OH272073   5.381   1.575   2.579  0.4365  0.0550 -0.1094
16861TIP3    H172074   5.329   1.616   2.648 -0.7055 -1.2359 -0.1584
16861TIP3    H272075   5.317   1.526   2.527  1.2938  0.8378 -1.9882
16862TIP3   OH272076   3.141   4.015   3.532 -0.4831 -0.2784  0.5666
16862TIP3    H172077   3.124   4.084   3.467 -2.1008 -0.9933  0.1584
16862TIP3    H272078   3.097   4.045   3.611  1.3366  0.5067  1.3308
16863TIP3   OH272079   7.220   6.248  14.705 -0.3005  0.5168 -0.2598
16863TIP3    H172080   7.214   6.252  14.800 -1.9083 -1.8373 -0.1626
16863TIP3    H272081   7.148   6.304  14.675  0.4870  1.6200 -0.1292
16864TIP3   OH272082   0.832   3.620   4.418  0.1224  0.0465 -0.0174
16864TIP3    H172083   0.880   3.703   4.409 -0.6955  0.5094 -0.2498
16864TIP3    H272084   0.899   3.552   4.411  0.9433  0.7108  1.1806
16865TIP3   OH272085   0.010   6.129   2.609 -0.6083  0.1351  0.0817
16865TIP3    H172086   0.004   6.067   2.681 -0.3559 -0.1227 -0.1154
16865TIP3    H272087  -0.080   6.155   2.591 -0.8962 -1.4151 -0.9076
16866TIP3   OH272088   1.145   5.692   5.180  0.6296  0.6983 -0.6853
16866TIP3    H172089   1.224   5.651   5.145  2.0517  0.0425  2.8972
16866TIP3    H272090   1.177   5.761   5.237 -1.5833  2.5797 -1.5672
16867TIP3   OH272091   2.429   3.011   3.781 -0.0759 -0.1191  0.5045
16867TIP3    H172092   2.355   3.024   3.722  0.4380 -0.7701 -0.3173
16867TIP3    H272093   2.430   2.917   3.798  1.9775 -0.5483 -1.4812
16868TIP3   OH272094   5.627   6.296   4.224  0.3239 -0.6418 -0.1627
16868TIP3    H172095   5.587   6.301   4.138  0.7689  1.6857 -0.3112
16868TIP3    H272096   5.613   6.383   4.262  1.2845 -1.1936  1.5688
16869TIP3   OH272097   0.546   5.438   4.306  0.0092 -0.0686  0.1802
16869TIP3    H172098   0.549   5.380   4.382 -0.6522 -1.5052 -0.8453
16869TIP3    H272099   0.598   5.394   4.239  0.4123  1.0691 -0.2942
16870TIP3   OH272100   0.905   4.360   3.903 -0.4565 -0.2556  0.6247
16870TIP3    H172101   0.962   4.395   3.972 -2.0414  0.3400  1.6862
16870TIP3    H272102   0.826   4.413   3.907 -0.5607 -0.0968 -1.8020
16871TIP3   OH272103   2.431   4.400   5.160  0.3615 -0.0561 -0.2401
16871TIP3    H172104   2.487   4.335   5.116 -1.6719 -0.9707 -1.6194
16871TIP3    H272105   2.402   4.356   5.240  1.6592  0.4849  0.5700
16872TIP3   OH272106   5.032   3.034   2.659  0.0737 -0.7971 -0.1955
16872TIP3    H172107   5.104   3.012   2.599 -0.3456  1.0903 -1.4977
16872TIP3    H272108   4.993   2.950   2.681  1.4382 -1.7102 -1.0610
16873TIP3   OH272109   5.392   2.478   2.826 -0.6882  0.6790 -0.3791
16873TIP3    H172110   5.329   2.530   2.875  0.9454  1.3617  1.0676
16873TIP3    H272111   5.441   2.429   2.892  0.2427  0.0765 -1.4679
16874TIP3   OH272112   6.809   4.657   4.397 -0.6855 -0.6967 -0.3575
16874TIP3    H172113   6.834   4.672   4.488 -1.4605  0.0251 -0.2563
16874TIP3    H272114   6.781   4.565   4.395  2.5155 -1.7664 -0.6227
16875TIP3   OH272115   1.320   6.286   4.701  0.8584 -0.0522 -0.0882
16875TIP3    H172116   1.414   6.300   4.712  0.7266  0.9059 -0.0553
16875TIP3    H272117   1.280   6.330   4.777  0.2755  1.5052 -1.2336
16876TIP3   OH272118   2.268   4.599   1.650 -0.1576  0.1650 -0.7008
16876TIP3    H172119   2.253   4.662   1.580  0.7662  0.6915 -0.4435
16876TIP3    H272120   2.231   4.640   1.728 -0.5476 -0.1031 -0.7445
16877TIP3   OH272121   3.596   6.950   4.567  0.0349 -0.2534  0.5673
16877TIP3    H172122   3.536   6.971   4.639  2.3343  0.7588  2.3380
16877TIP3    H272123   3.543   6.957   4.488 -2.6032 -1.3490  2.1211
16878TIP3   OH272124   3.411   5.007   3.858  0.0718  0.0902  0.1714
16878TIP3    H172125   3.419   5.098   3.889 -0.3126 -0.1699  1.0573
16878TIP3    H272126   3.326   4.978   3.891  0.9854 -1.1899  1.5061
16879TIP3   OH272127   7.063   4.051   4.761 -0.4814 -0.1622  0.5681
16879TIP3    H172128   7.062   3.957   4.779 -3.2128 -0.1514  0.9825
16879TIP3    H272129   7.156   4.075   4.762  0.2142 -2.5425  2.0251
16880TIP3   OH272130   1.577   2.713  10.853  0.1847  0.3437  0.6875
16880TIP3    H172131   1.662   2.739  10.887 -0.3599  0.4399  2.0274
16880TIP3    H272132   1.528   2.684  10.929 -0.5172 -1.0528 -0.2584
16881TIP3   OH272133   5.517   2.169   2.519 -0.1978  0.2229  0.0358
16881TIP3    H172134   5.456   2.138   2.586  0.9531  0.2270  1.1152
16881TIP3    H272135   5.603   2.147   2.553  0.3946 -0.7925 -1.9633
16882TIP3   OH272136   2.004   4.691   3.561 -0.0175 -0.0031 -0.1579
16882TIP3    H172137   2.055   4.719   3.637 -0.9864  0.3501  0.3632
16882TIP3    H272138   1.928   4.749   3.559 -1.3729 -1.6815  0.1670
16883TIP3   OH272139   3.007   0.059   0.109  0.1555 -0.4323  0.1176
16883TIP3    H172140   3.011   0.142   0.157  1.5525 -1.7234  2.3791
16883TIP3    H272141   3.002   0.086   0.017 -3.8322  2.1789  0.8285
16884TIP3   OH272142   3.404   5.138   2.500  0.3325  0.3225 -0.2438
16884TIP3    H172143   3.427   5.049   2.472 -0.5643 -0.0562  0.1473
16884TIP3    H272144   3.402   5.189   2.419 -0.9928 -0.4656 -0.7494
16885TIP3   OH272145   3.883   5.539  13.369 -0.9300  0.1540  0.0924
16885TIP3    H172146   3.897   5.595  13.445 -1.4506  1.1516 -0.5282
16885TIP3    H272147   3.811   5.481  13.395 -1.2574  0.6414  0.3032
16886TIP3   OH272148   7.190   4.778   3.552 -0.3530 -0.1790 -0.2326
16886TIP3    H172149   7.247   4.798   3.627 -1.9136  0.9627  0.7077
16886TIP3    H272150   7.149   4.695   3.574  0.2856 -0.5752 -0.5144
16887TIP3   OH272151   1.077   4.098  14.526 -0.0614  0.8673 -0.1589
16887TIP3    H172152   1.142   4.035  14.493 -0.9144  0.9003 -2.0026
16887TIP3    H272153   0.993   4.065  14.495 -0.7082  1.9858  0.3390
16888TIP3   OH272154   4.759   2.519  14.082 -0.1175  0.1306 -0.6052
16888TIP3    H172155   4.850   2.543  14.071 -0.3663  0.4984 -2.0432
16888TIP3    H272156   4.761   2.434  14.127  0.9072  0.2244 -0.4641
16889TIP3   OH272157   5.536   1.914   5.857  0.4103 -0.0827 -0.3470
16889TIP3    H172158   5.625   1.915   5.824  0.6899  1.2115  0.3684
16889TIP3    H272159   5.490   1.979   5.804 -0.2577 -1.1075 -1.0603
16890TIP3   OH272160   0.932   2.349   4.698  0.6018  0.5445  0.0391
16890TIP3    H172161   0.914   2.321   4.788 -1.8179 -0.4577 -0.6884
16890TIP3    H272162   0.955   2.269   4.651 -0.5657  0.6456 -0.7508
16891TIP3   OH272163   5.532   0.978  11.958 -0.1297  0.3286 -0.2087
16891TIP3    H172164   5.571   1.022  12.033 -0.8334  2.1225 -0.8371
16891TIP3    H272165   5.541   0.885  11.977  0.5587  0.7363  1.6373
16892TIP3   OH272166   6.847   6.653   4.405 -0.1528 -0.2173  0.2565
16892TIP3    H172167   6.862   6.558   4.408  1.4482  0.0196  0.7629
16892TIP3    H272168   6.756   6.664   4.432 -1.2162 -1.7714 -2.3340
16893TIP3   OH272169   2.082   3.497   2.221  0.2661  0.0794 -0.0604
16893TIP3    H172170   2.143   3.497   2.147  0.7367  0.8098  0.3157
16893TIP3    H272171   1.998   3.519   2.181  0.4076 -0.0861 -0.4628
16894TIP3   OH272172   4.329   2.086   5.058  0.5640  0.1731  0.6184
16894TIP3    H172173   4.380   2.123   4.986 -1.0285 -0.2105 -0.7841
16894TIP3    H272174   4.367   2.000   5.073  1.4433  0.5853  0.8531
16895TIP3   OH272175   2.964   5.817   1.403 -0.1585 -0.4857  0.4700
16895TIP3    H172176   2.920   5.851   1.325 -0.0324 -0.9298  0.2019
16895TIP3    H272177   2.980   5.894   1.457 -2.8674 -0.4903  1.4322
16896TIP3   OH272178   2.729   2.864   5.040 -0.3060 -0.0219  0.0084
16896TIP3    H172179   2.799   2.860   5.105  0.0082  1.4512 -0.2194
16896TIP3    H272180   2.745   2.788   4.983 -0.5436 -1.2899  1.5684
16897TIP3   OH272181   4.411   6.841   2.705  0.6617  0.5442 -0.5242
16897TIP3    H172182   4.446   6.800   2.626 -2.7631 -1.8414 -1.0223
16897TIP3    H272183   4.407   6.770   2.769 -0.5881  1.3801  0.3742
16898TIP3   OH272184   5.447   5.355   2.011 -0.2224 -0.0356 -0.1132
16898TIP3    H172185   5.462   5.260   2.016  0.7072  0.0116 -1.6961
16898TIP3    H272186   5.531   5.392   1.985 -0.6454  1.2196  0.2325
16899TIP3   OH272187   3.378   2.121   5.534  0.4679  0.0622  0.2165
16899TIP3    H172188   3.285   2.114   5.555 -0.0511  0.6495 -1.6623
16899TIP3    H272189   3.389   2.211   5.504  1.2411 -0.5028 -1.2952
16900TIP3   OH272190   3.865   4.389   4.315  0.0434  0.1255  0.0232
16900TIP3    H172191   3.930   4.358   4.251 -0.6051 -2.2465  0.4161
16900TIP3    H272192   3.903   4.366   4.400 -0.0041  1.4425  0.4189
16901TIP3   OH272193   3.609   5.537  13.848 -0.0269  0.2840 -0.4818
16901TIP3    H172194   3.681   5.523  13.911  0.0020  0.6471 -0.4301
16901TIP3    H272195   3.649   5.524  13.763  0.0596  0.2994 -0.4447
16902TIP3   OH272196   5.712   5.016   2.542  0.3864  0.0397  0.0545
16902TIP3    H172197   5.661   4.937   2.527 -1.9095  1.7297 -1.7416
16902TIP3    H272198   5.647   5.083   2.565  2.1987  1.5354  1.1491
16903TIP3   OH272199   1.426   6.670   3.384 -0.1454 -0.3920  0.4005
16903TIP3    H172200   1.435   6.680   3.289 -0.2420 -2.2056  0.1668
16903TIP3    H272201   1.502   6.716   3.420 -0.0890  0.2829 -0.5434
16904TIP3   OH272202   0.697   6.224   2.873 -0.4476 -0.1777 -0.2102
16904TIP3    H172203   0.700   6.233   2.778 -1.4022  2.7820 -0.0883
16904TIP3    H272204   0.775   6.271   2.905 -0.0869 -1.2143  0.4772
16905TIP3   OH272205   0.393   3.236   5.189  1.2036  0.6920  0.0989
16905TIP3    H172206   0.483   3.206   5.202  1.2611  0.8087 -0.0278
16905TIP3    H272207   0.349   3.216   5.271  1.7727  2.1617  0.7978
16906TIP3   OH272208   0.122   4.754  14.881  0.5334 -0.9881  0.3456
16906TIP3    H172209   0.081   4.726  14.799  0.6618 -1.1883  0.3472
16906TIP3    H272210   0.206   4.708  14.882  0.9524 -0.2392  0.1266
16907TIP3   OH272211   1.680   2.512  14.785 -0.0888 -0.1981  0.0038
16907TIP3    H172212   1.668   2.508  14.880 -0.5246  2.2703  0.1102
16907TIP3    H272213   1.761   2.560  14.773 -0.2509 -0.1350 -0.8646
16908TIP3   OH272214   4.963   2.849   1.891  0.0438  0.2011  0.0818
16908TIP3    H172215   4.998   2.864   1.979 -0.8457  0.0969  0.4685
16908TIP3    H272216   4.982   2.929   1.843 -0.9263  0.9487  0.8732
16909TIP3   OH272217   4.068   5.002  14.467  0.0658 -0.2701 -0.2797
16909TIP3    H172218   4.088   4.927  14.523  0.0563  0.4017  0.6501
16909TIP3    H272219   4.071   5.078  14.526 -3.0670  0.1368 -0.4893
16910TIP3   OH272220   5.160   5.283   2.325  0.5143 -0.2303 -0.0712
16910TIP3    H172221   5.134   5.203   2.370 -0.5527 -0.0472 -0.3508
16910TIP3    H272222   5.080   5.334   2.318  1.1700  0.8337  0.0279
16911TIP3   OH272223   1.671   3.801   5.152 -0.0886  0.2662 -0.0637
16911TIP3    H172224   1.601   3.753   5.109  0.6444  0.4765 -1.5604
16911TIP3    H272225   1.626   3.864   5.209 -1.1059  0.2389 -0.8085
16912TIP3   OH272226   7.189   6.767   5.821 -0.8255 -0.0262 -0.1980
16912TIP3    H172227   7.234   6.685   5.803 -0.5547 -0.1290  0.8504
16912TIP3    H272228   7.150   6.793   5.738  2.1510  0.6959 -1.5078
16913TIP3   OH272229   7.025   2.875   3.566  0.2264 -0.1051  0.1747
16913TIP3    H172230   6.976   2.793   3.566 -0.0334  0.0481  0.3738
16913TIP3    H272231   6.981   2.929   3.632  0.1322  0.3547 -0.2625
16914TIP3   OH272232   5.269   5.076  12.712 -0.6422 -0.4859  0.1050
16914TIP3    H172233   5.275   5.046  12.622 -0.5761 -0.2937  0.0451
16914TIP3    H272234   5.317   5.011  12.763  1.4585  0.6865 -0.2823
16915TIP3   OH272235   2.789   1.517  13.799  0.3529  0.1604  0.6247
16915TIP3    H172236   2.838   1.571  13.738 -1.1939  1.8892  0.8071
16915TIP3    H272237   2.739   1.456  13.744  0.2536  0.5694  0.2632
16916TIP3   OH272238   3.721   1.115  11.385  0.3572 -0.1484 -0.1266
16916TIP3    H172239   3.681   1.155  11.308  0.5117  0.1704 -0.0423
16916TIP3    H272240   3.781   1.181  11.418  1.0464 -0.6622 -0.3195
16917TIP3   OH272241   7.076   3.172   3.768 -0.0430 -0.2096 -0.6767
16917TIP3    H172242   6.985   3.145   3.781 -0.9115  2.2805 -0.8811
16917TIP3    H272243   7.069   3.262   3.735  2.5119  0.2091 -0.2714
16918TIP3   OH272244   0.415   2.916   4.822 -0.0231  0.1856  0.8617
16918TIP3    H172245   0.365   2.905   4.903  1.1901  0.4273  1.6688
16918TIP3    H272246   0.359   2.968   4.766 -1.4186 -1.0417  1.0565
16919TIP3   OH272247   6.944   6.849   6.320  0.2211  0.7946  0.2400
16919TIP3    H172248   6.976   6.925   6.272 -0.7075  0.2733 -1.2874
16919TIP3    H272249   7.023   6.800   6.344  0.7840  1.8862  0.6697
16920TIP3   OH272250   5.253   0.831   4.730 -0.1012 -0.2642  0.1023
16920TIP3    H172251   5.284   0.917   4.703  0.8244 -0.6945 -0.2702
16920TIP3    H272252   5.160   0.843   4.750 -0.3884  0.4628 -1.5312
16921TIP3   OH272253   6.940   6.576   4.006 -0.2737  0.4152  0.1072
16921TIP3    H172254   6.855   6.612   3.982  0.6479  1.3968 -1.8543
16921TIP3    H272255   6.975   6.638   4.070 -0.0777  1.2765 -0.8133
16922TIP3   OH272256   6.195   2.874   5.859  0.1605 -0.2295 -0.4840
16922TIP3    H172257   6.135   2.808   5.826  0.5865 -0.2324 -1.2971
16922TIP3    H272258   6.221   2.843   5.946 -2.6976  0.8790  0.8745
16923TIP3   OH272259   1.572   5.866   4.765 -0.3261 -0.0926  0.0614
16923TIP3    H172260   1.553   5.861   4.859 -2.7269 -0.5959 -0.3871
16923TIP3    H272261   1.600   5.957   4.751 -2.7333  0.8497  0.8522
16924TIP3   OH272262   4.956   0.108   2.847  0.4410  0.6339 -0.5719
16924TIP3    H172263   4.914   0.038   2.797 -0.9430  1.5571 -0.7557
16924TIP3    H272264   4.887   0.143   2.902  1.7046  0.2645  1.3595
16925TIP3   OH272265   1.589   5.587   1.753  0.1050 -0.0261  0.8058
16925TIP3    H172266   1.660   5.634   1.709 -2.2550  1.7769 -1.4148
16925TIP3    H272267   1.565   5.643   1.827 -0.3084  0.3860  0.3598
16926TIP3   OH272268   6.693   0.375   2.330  0.5569  0.3466 -0.1902
16926TIP3    H172269   6.729   0.427   2.402 -0.1822  0.7445 -0.0970
16926TIP3    H272270   6.758   0.384   2.260  0.5475  1.2387 -0.1034
16927TIP3   OH272271   1.760   1.510   5.706 -0.4594  0.1106 -0.0111
16927TIP3    H172272   1.813   1.433   5.725  0.1905  0.3248 -0.9031
16927TIP3    H272273   1.692   1.509   5.774 -1.2332 -1.9570 -0.6995
16928TIP3   OH272274   5.172   4.639   4.384  0.0819 -0.0224 -0.2905
16928TIP3    H172275   5.226   4.564   4.408 -1.8715 -1.1786  0.7984
16928TIP3    H272276   5.122   4.609   4.308 -2.7483 -1.0357  1.7552
16929TIP3   OH272277   6.934   6.582   3.707 -0.0884  0.2331 -0.3493
16929TIP3    H172278   6.965   6.539   3.787  0.1149  0.6149 -0.2224
16929TIP3    H272279   6.849   6.619   3.730  1.2926  3.0052  0.6255
16930TIP3   OH272280   2.792   4.684  13.847 -0.3322  0.3284 -0.2087
16930TIP3    H172281   2.823   4.654  13.762 -0.1190  0.6768 -0.2543
16930TIP3    H272282   2.702   4.652  13.852  0.3132 -1.5014  0.3303
16931TIP3   OH272283   1.439   1.337   3.953 -0.2224 -0.2529  0.1666
16931TIP3    H172284   1.365   1.398   3.955  0.2714  0.3315  1.6402
16931TIP3    H272285   1.427   1.288   3.872 -1.3044  0.9721 -0.4483
16932TIP3   OH272286   5.850   6.522   1.939 -0.5346  0.3014  0.2100
16932TIP3    H172287   5.906   6.572   1.998  0.0546  0.8206 -0.7620
16932TIP3    H272288   5.911   6.474   1.883 -0.9918  1.4643 -1.3730
16933TIP3   OH272289   6.515   5.902  14.414 -0.4676  0.4473  0.2056
16933TIP3    H172290   6.435   5.937  14.453 -0.0901 -0.3876  1.8274
16933TIP3    H272291   6.572   5.978  14.404 -1.2354  0.9572 -0.4288
16934TIP3   OH272292   6.622   2.749   2.873 -0.2184  0.7729 -0.2324
16934TIP3    H172293   6.667   2.670   2.904 -1.3879  0.4642  0.7502
16934TIP3    H272294   6.529   2.724   2.871 -0.4147  1.5250 -1.8026
16935TIP3   OH272295   6.425   1.325   4.619 -0.2194  0.0523  0.4358
16935TIP3    H172296   6.333   1.300   4.633 -0.2864  0.4125  0.6507
16935TIP3    H272297   6.435   1.327   4.524 -0.3683 -0.2296  0.4127
16936TIP3   OH272298   6.515   0.897   3.498  0.3118 -0.1189  0.0478
16936TIP3    H172299   6.537   0.989   3.512  2.0619 -0.3122 -1.1306
16936TIP3    H272300   6.587   0.848   3.538 -0.2036 -0.9689 -0.0170
16937TIP3   OH272301   5.741   3.839   2.611  0.0774  0.3679 -0.1867
16937TIP3    H172302   5.700   3.925   2.619  0.8189  0.6237  1.3998
16937TIP3    H272303   5.669   3.780   2.589 -0.5904  1.2577 -0.4364
16938TIP3   OH272304   1.341   6.309   3.987 -0.3580  0.3143 -0.6729
16938TIP3    H172305   1.340   6.214   3.972  0.0442  0.2137 -0.1142
16938TIP3    H272306   1.399   6.320   4.062 -0.0843  1.0451 -0.9839
16939TIP3   OH272307   3.288   2.163   2.664 -0.2950 -0.0508 -0.2845
16939TIP3    H172308   3.217   2.103   2.642  0.1489 -0.8178  0.3395
16939TIP3    H272309   3.258   2.208   2.743 -0.1971 -0.1720 -0.1796
16940TIP3   OH272310   0.936   1.341   3.551 -0.0690  0.1875 -0.0018
16940TIP3    H172311   0.970   1.371   3.467 -1.1210  3.2143  0.5242
16940TIP3    H272312   0.900   1.254   3.532  1.7870 -0.2262 -2.0848
16941TIP3   OH272313   0.736   5.092   2.661  0.0699 -0.5346  0.3785
16941TIP3    H172314   0.818   5.090   2.710 -1.2076 -0.6994  2.6779
16941TIP3    H272315   0.674   5.046   2.718 -1.3129 -1.6510 -1.9001
16942TIP3   OH272316   0.859   6.159  14.485 -0.5763 -0.2433  0.2198
16942TIP3    H172317   0.910   6.208  14.549  1.2557 -1.6882 -0.0404
16942TIP3    H272318   0.770   6.192  14.494  0.0477  1.0967  1.9858
16943TIP3   OH272319   3.877   3.089   5.661  0.3630 -0.0053  0.0046
16943TIP3    H172320   3.931   3.115   5.736 -2.9793  0.0218  2.6601
16943TIP3    H272321   3.895   2.996   5.649 -0.9426 -0.7258  2.7744
16944TIP3   OH272322   6.945   4.203   3.603 -0.5054 -0.1344 -0.4481
16944TIP3    H172323   6.886   4.128   3.599 -0.4352 -0.3012  1.1405
16944TIP3    H272324   6.999   4.188   3.680  0.2899  0.9948 -0.7517
16945TIP3   OH272325   4.262   5.109   3.922  0.2292  0.1589  0.0919
16945TIP3    H172326   4.191   5.048   3.904  0.3212  0.3683 -1.1074
16945TIP3    H272327   4.275   5.155   3.839  2.0192 -0.1411  0.1663
16946TIP3   OH272328   0.326   2.902  13.986  0.7209 -0.0593  0.1160
16946TIP3    H172329   0.397   2.920  14.049  0.5141  2.6641 -0.2979
16946TIP3    H272330   0.263   2.972  14.001 -0.8078 -1.1152 -1.0917
16947TIP3   OH272331   5.447   5.549   2.556 -0.0626  0.3491 -0.1393
16947TIP3    H172332   5.389   5.473   2.557 -0.7509  0.8626 -0.6434
16947TIP3    H272333   5.459   5.571   2.464  0.3476  0.6980 -0.0120
16948TIP3   OH272334   0.897   1.269   6.112 -0.6336  0.0822  0.3830
16948TIP3    H172335   0.977   1.318   6.093 -1.2903  0.8123 -0.5882
16948TIP3    H272336   0.826   1.333   6.101 -1.6022 -1.2575 -1.8726
16949TIP3   OH272337   2.457   1.198   0.078 -0.2259  0.4786 -0.0588
16949TIP3    H172338   2.484   1.106   0.086  0.2958  0.7520  2.3990
16949TIP3    H272339   2.375   1.195   0.030  0.4253 -1.1359 -1.1627
16950TIP3   OH272340   2.848   2.238   1.956  0.1401 -0.5343 -0.3646
16950TIP3    H172341   2.796   2.165   1.989  1.5593 -0.8271  1.3443
16950TIP3    H272342   2.939   2.211   1.969  0.7657  0.2284 -2.6736
16951TIP3   OH272343   7.200   0.029   1.937  0.3478  0.3580  0.6093
16951TIP3    H172344   7.156   0.084   2.002 -0.7208 -1.0003  1.0835
16951TIP3    H272345   7.169   0.062   1.852  0.4471  1.0667  0.8415
16952TIP3   OH272346   6.306   0.461   3.633 -0.6597  0.0155  0.3080
16952TIP3    H172347   6.248   0.458   3.556  0.5844 -0.6285 -0.6334
16952TIP3    H272348   6.272   0.393   3.691  0.5252 -2.0275 -1.2812
16953TIP3   OH272349   0.461   0.463   2.117 -0.6214 -0.1633  0.4831
16953TIP3    H172350   0.447   0.542   2.065 -0.6698  0.2561  1.1264
16953TIP3    H272351   0.509   0.494   2.194  0.8949 -1.0271 -0.0706
16954TIP3   OH272352   4.491   3.326   3.269  0.7884  0.2791 -0.3648
16954TIP3    H172353   4.415   3.329   3.327  1.6223  1.6177  0.7624
16954TIP3    H272354   4.544   3.253   3.302  0.9741  0.6659  0.2179
16955TIP3   OH272355   5.611   3.623   3.766  0.0058  0.1337  0.0876
16955TIP3    H172356   5.548   3.561   3.727 -1.1516  0.4631  1.3733
16955TIP3    H272357   5.663   3.653   3.691  0.5341 -2.2784 -0.6041
16956TIP3   OH272358   3.991   0.872   5.292 -0.5059 -0.1388 -0.2820
16956TIP3    H172359   3.902   0.848   5.320 -0.5135  0.0390 -0.1464
16956TIP3    H272360   4.045   0.856   5.369 -0.6956  1.3575  0.2046
16957TIP3   OH272361   5.342   3.494   4.685  0.4614  0.4056 -0.1677
16957TIP3    H172362   5.301   3.477   4.600  0.6848 -0.0559 -0.1862
16957TIP3    H272363   5.403   3.422   4.697 -1.2029 -0.8375  1.4114
16958TIP3   OH272364   2.167   6.045   0.548 -0.0502 -0.3105  0.1232
16958TIP3    H172365   2.138   5.991   0.475  1.2366  0.6107 -1.1096
16958TIP3    H272366   2.107   6.119   0.549 -0.8241 -0.9259  0.8061
16959TIP3   OH272367   2.646   6.573   3.936  0.0430 -0.0585  0.3278
16959TIP3    H172368   2.701   6.540   4.007  0.1265 -0.6714 -0.0198
16959TIP3    H272369   2.583   6.631   3.980 -0.5322 -1.1835  1.0529
16960TIP3   OH272370   1.982   1.268   4.083 -0.2069 -0.1864 -0.3792
16960TIP3    H172371   1.987   1.183   4.129  1.1617 -0.4135 -0.9033
16960TIP3    H272372   1.985   1.333   4.154  0.4721 -0.5548 -0.0578
16961TIP3   OH272373   6.454   2.999   6.371 -0.2026  0.3033  0.0722
16961TIP3    H172374   6.413   3.083   6.391 -0.1188  0.1764  0.8018
16961TIP3    H272375   6.548   3.015   6.378 -0.1603  0.3101 -0.4571
16962TIP3   OH272376   0.584   0.611   4.874  0.4575  0.0184 -0.3582
16962TIP3    H172377   0.605   0.682   4.935 -0.2481 -0.0981  0.0279
16962TIP3    H272378   0.641   0.627   4.798  1.0590  0.3879  0.1638
16963TIP3   OH272379   6.278   1.249   4.287 -0.4932 -0.5248  0.1925
16963TIP3    H172380   6.294   1.199   4.368  0.4775 -2.0629 -0.8898
16963TIP3    H272381   6.210   1.199   4.241  0.5234 -0.9139 -0.9380
16964TIP3   OH272382   4.053   2.593   4.159 -0.2927  0.4613 -0.4237
16964TIP3    H172383   4.128   2.545   4.193 -0.3426  0.3433 -0.4818
16964TIP3    H272384   3.977   2.540   4.184 -0.3118  0.2328 -0.9612
16965TIP3   OH272385   6.174   0.205   5.782 -0.3805 -0.3715  0.1671
16965TIP3    H172386   6.267   0.191   5.799 -0.3214 -0.9347 -0.5788
16965TIP3    H272387   6.170   0.225   5.689 -0.9010  0.7486  0.4088
16966TIP3   OH272388   0.784   3.478   2.857  0.0495  0.1726 -1.1028
16966TIP3    H172389   0.869   3.482   2.813  0.2214 -0.7409 -0.8721
16966TIP3    H272390   0.774   3.386   2.881 -0.3466  0.5357  0.1745
16967TIP3   OH272391   5.364   0.430   3.300  0.2276  0.5448  0.0933
16967TIP3    H172392   5.331   0.449   3.212  0.4590 -1.2593 -0.4317
16967TIP3    H272393   5.441   0.375   3.285  0.6608  0.7504  1.4176
16968TIP3   OH272394   6.236   4.802   3.228 -0.4043 -0.3646  0.2957
16968TIP3    H172395   6.187   4.725   3.254 -0.8064  0.3991  1.9617
16968TIP3    H272396   6.328   4.777   3.238 -0.5172 -0.8202  0.2075
16969TIP3   OH272397   6.059   4.440   5.076  0.0552  0.5205  0.4213
16969TIP3    H172398   6.019   4.469   4.994  0.3436  1.9290  0.7477
16969TIP3    H272399   5.987   4.433   5.137  0.0960  1.6352  0.6195
16970TIP3   OH272400   5.534   0.105   5.356 -0.6331 -0.3565 -0.9262
16970TIP3    H172401   5.494   0.146   5.433 -0.4244  0.1771 -1.1019
16970TIP3    H272402   5.594   0.040   5.392 -1.1686 -0.7131 -0.6497
16971TIP3   OH272403   1.921   1.028  12.058  0.6768 -0.4391  0.0848
16971TIP3    H172404   1.909   1.057  11.967  1.2696  1.2413  0.5014
16971TIP3    H272405   1.908   1.108  12.109  0.0155 -1.4320  1.5198
16972TIP3   OH272406   5.375   4.847   1.867  0.6722 -0.5503 -0.2562
16972TIP3    H172407   5.304   4.834   1.930  2.2022 -1.8532  1.3167
16972TIP3    H272408   5.417   4.928   1.895  0.4807 -0.3581 -0.5175
16973TIP3   OH272409   4.987   4.276   0.541  0.7568  0.2219  0.1153
16973TIP3    H172410   4.995   4.203   0.479  0.1652 -0.1362  0.4511
16973TIP3    H272411   4.898   4.269   0.576 -0.0267  2.2866 -1.2943
16974TIP3   OH272412   3.976   1.561   4.001 -0.0048  0.9586  0.2636
16974TIP3    H172413   3.970   1.536   4.094 -0.5889 -0.6140 -0.1567
16974TIP3    H272414   4.066   1.589   3.989  0.0023  1.4479  1.3724
16975TIP3   OH272415   6.685   0.643   3.934 -0.1983 -0.4143 -1.2183
16975TIP3    H172416   6.590   0.641   3.947 -0.2434 -1.1041 -1.6017
16975TIP3    H272417   6.710   0.734   3.949 -0.6409 -0.5845  0.8305
16976TIP3   OH272418   5.511   2.266   1.222 -0.0913  0.3664 -0.1809
16976TIP3    H172419   5.561   2.253   1.303 -3.0279  0.6090  1.8022
16976TIP3    H272420   5.531   2.189   1.169  1.8909  0.1993  0.7020
16977TIP3   OH272421   1.962   1.715  13.182 -0.3975  0.2623 -0.1457
16977TIP3    H172422   1.954   1.747  13.272  0.5962 -0.9457  0.3926
16977TIP3    H272423   2.003   1.787  13.134 -1.2955  1.0672  0.2458
16978TIP3   OH272424   2.649   5.715   2.431  0.0782 -0.3216  0.2736
16978TIP3    H172425   2.688   5.659   2.364  0.8960  1.8658 -1.1866
16978TIP3    H272426   2.673   5.674   2.514  2.1102 -1.2047 -0.6913
16979TIP3   OH272427   3.335   7.099   9.844 -0.1755 -0.2480 -0.3620
16979TIP3    H172428   3.405   7.037   9.823  1.7022  1.5505  0.1965
16979TIP3    H272429   3.340   7.165   9.775 -0.1935  0.7755  0.5878
16980TIP3   OH272430   4.725   4.742  13.746  0.0732  0.3272 -0.2498
16980TIP3    H172431   4.808   4.782  13.719 -0.3544  0.0142 -2.1935
16980TIP3    H272432   4.660   4.811  13.737 -0.3749 -0.2552 -1.9176
16981TIP3   OH272433   0.938   0.871   5.250  0.5389  0.4760 -0.4287
16981TIP3    H172434   1.018   0.910   5.215  0.4933 -0.6822 -1.9511
16981TIP3    H272435   0.933   0.901   5.341  3.1056 -0.0428 -0.0637
16982TIP3   OH272436   5.409   2.483   4.127  0.0041  0.3352  0.0015
16982TIP3    H172437   5.442   2.481   4.217 -0.8941 -0.0517  0.3291
16982TIP3    H272438   5.404   2.576   4.105  0.4906  0.4257  0.2412
16983TIP3   OH272439   1.493   3.016   1.711 -0.4470 -0.5977 -0.2128
16983TIP3    H172440   1.540   3.093   1.742  0.2298 -0.8943 -0.4828
16983TIP3    H272441   1.408   3.049   1.684 -0.5172 -0.1002  0.5822
16984TIP3   OH272442   6.399   4.296   4.676  0.6129 -0.2306  0.1316
16984TIP3    H172443   6.390   4.323   4.584 -1.0678  0.3234  0.4118
16984TIP3    H272444   6.309   4.300   4.710  0.5152 -4.1104  0.7968
16985TIP3   OH272445   5.654   4.322   2.730 -0.0488 -0.8963  0.2667
16985TIP3    H172446   5.687   4.240   2.767 -3.3880 -1.1756  3.0508
16985TIP3    H272447   5.576   4.296   2.681 -0.8493  0.5217  0.7492
16986TIP3   OH272448   3.794   6.127   0.701  0.3892  0.0480 -0.2635
16986TIP3    H172449   3.706   6.163   0.700 -0.3009 -1.4759  0.7641
16986TIP3    H272450   3.784   6.039   0.663  0.9180 -1.1623  2.2005
16987TIP3   OH272451   6.547   2.787   5.518 -0.0715 -0.2749  0.1662
16987TIP3    H172452   6.624   2.735   5.495  0.1775  0.1105  0.1146
16987TIP3    H272453   6.556   2.867   5.467 -1.5285 -1.0175 -1.3647
16988TIP3   OH272454   2.248   3.170   2.745  0.3821 -0.0578  0.4445
16988TIP3    H172455   2.310   3.145   2.676 -0.6846 -0.1220 -0.5123
16988TIP3    H272456   2.198   3.242   2.708 -1.0010 -0.8548  0.6768
16989TIP3   OH272457   6.173   4.894   2.337  0.1947  0.0171  0.1589
16989TIP3    H172458   6.079   4.905   2.330  0.2710  0.3604 -0.4393
16989TIP3    H272459   6.202   4.960   2.400 -0.1215 -0.9662  1.3614
16990TIP3   OH272460   5.249   0.615   4.004 -0.0075  0.0048 -0.1575
16990TIP3    H172461   5.259   0.555   3.930 -2.0162 -2.1704  1.2101
16990TIP3    H272462   5.333   0.610   4.051  0.3857 -0.5602 -0.8933
16991TIP3   OH272463   6.386   6.112   0.945  0.0292 -0.0394  0.3083
16991TIP3    H172464   6.438   6.082   0.871 -1.5638 -1.3544 -0.3353
16991TIP3    H272465   6.349   6.196   0.917  0.4168  0.0622  0.0981
16992TIP3   OH272466   3.784   3.016   3.733  0.1085  0.0009 -0.3798
16992TIP3    H172467   3.767   2.957   3.659  1.0329  1.6236 -1.9789
16992TIP3    H272468   3.736   3.096   3.711 -1.0358 -0.0435  1.6935
16993TIP3   OH272469   5.285   7.095  15.017 -0.4693 -0.3558  0.0234
16993TIP3    H172470   5.216   7.068  15.077  0.6701 -2.7717  0.3475
16993TIP3    H272471   5.285   7.028  14.948  1.4321 -0.3397 -0.0404
16994TIP3   OH272472   5.274   6.207  15.188  0.2221 -0.4895 -0.0018
16994TIP3    H172473   5.197   6.246  15.229 -0.8630 -1.7218 -0.7794
16994TIP3    H272474   5.239   6.160  15.112  1.7422 -1.1358 -0.3315
16995TIP3   OH272475   0.971   6.507   3.472 -0.4098 -0.2235 -0.1646
16995TIP3    H172476   0.921   6.546   3.400  1.3873  0.9287 -0.8612
16995TIP3    H272477   1.004   6.424   3.437  0.0484  0.1033 -0.5292
16996TIP3   OH272478   4.258   6.668  14.103  0.1822 -0.2991 -0.7533
16996TIP3    H172479   4.307   6.617  14.168  1.1298 -0.7139 -1.7442
16996TIP3    H272480   4.170   6.632  14.105 -0.0781  0.3396  0.9568
16997TIP3   OH272481   1.253   4.933   4.033 -0.6423  0.0200  0.5269
16997TIP3    H172482   1.208   4.849   4.029 -0.3523 -0.0896 -0.8829
16997TIP3    H272483   1.184   4.999   4.030 -1.1915 -0.0180  4.8696
16998TIP3   OH272484   3.138   6.981   3.316  0.6984 -0.2384  0.0773
16998TIP3    H172485   3.199   7.027   3.259 -1.0961  0.9410 -0.9906
16998TIP3    H272486   3.154   7.018   3.403  2.6030 -1.1566  0.1569
16999TIP3   OH272487   6.595   3.369   4.554  0.4435 -0.1136 -0.0465
16999TIP3    H172488   6.502   3.362   4.578  0.3622 -0.5782 -0.4904
16999TIP3    H272489   6.640   3.312   4.616  0.7569  2.0968  1.9004
17000TIP3   OH272490   0.922   0.567   5.844  0.5455  0.0737 -0.5186
17000TIP3    H172491   0.916   0.640   5.905  0.2748 -0.9124  0.6608
17000TIP3    H272492   1.009   0.575   5.805  0.5175  1.0135 -0.4082
17001TIP3   OH272493   3.729   6.977   5.347 -0.5300 -0.1592  0.2030
17001TIP3    H172494   3.793   6.913   5.378  0.0706  0.4216  0.1775
17001TIP3    H272495   3.764   7.008   5.264 -1.0044 -0.0568  0.0357
17002TIP3   OH272496   0.437   5.308   5.807 -0.3222  0.1033  0.7547
17002TIP3    H172497   0.513   5.274   5.761 -0.0777 -0.8754  1.8402
17002TIP3    H272498   0.449   5.403   5.806 -0.3408  0.1298 -1.1719
17003TIP3   OH272499   0.954   5.340   5.619 -0.0762 -0.2208 -0.7700
17003TIP3    H172500   1.037   5.389   5.625  0.4044 -1.1638  2.1138
17003TIP3    H272501   0.981   5.252   5.594  0.0359 -0.8645  1.4177
17004TIP3   OH272502   3.691   3.651   4.910 -0.0012  0.0485  0.2072
17004TIP3    H172503   3.631   3.725   4.923 -1.4438 -0.9713 -0.4073
17004TIP3    H272504   3.778   3.691   4.905 -0.6746  1.6289  0.5232
17005TIP3   OH272505   6.124   6.939   4.607  0.6026  0.2067  0.1119
17005TIP3    H172506   6.163   7.023   4.586 -0.2252  0.7107  0.5496
17005TIP3    H272507   6.032   6.958   4.623  0.0182 -1.0278 -1.4561
17006TIP3   OH272508   4.389   4.369   0.559 -0.2747 -1.0263  0.4738
17006TIP3    H172509   4.365   4.304   0.625  0.2227 -1.0304  0.6539
17006TIP3    H272510   4.402   4.319   0.479  0.0180 -1.1417  0.5909
17007TIP3   OH272511   2.554   0.050   0.719 -0.0522  0.0612  0.9275
17007TIP3    H172512   2.549   0.146   0.716 -0.7841  0.0084 -0.1586
17007TIP3    H272513   2.474   0.023   0.764 -1.3551 -0.1166 -1.3331
17008TIP3   OH272514   1.296   6.634   0.245 -0.0152 -0.2245 -0.2372
17008TIP3    H172515   1.320   6.726   0.258 -1.3627  0.2688 -1.0654
17008TIP3    H272516   1.228   6.636   0.178 -0.5456 -1.7848  0.2177
17009TIP3   OH272517   5.288   1.499   3.150 -0.1181  0.0908 -0.1405
17009TIP3    H172518   5.320   1.585   3.177 -1.5509  1.0060 -1.1393
17009TIP3    H272519   5.297   1.500   3.054 -0.6711 -0.6374 -0.2062
17010TIP3   OH272520   0.608   0.801   5.758 -0.4560 -0.1386  0.1068
17010TIP3    H172521   0.569   0.714   5.767 -0.6845 -0.0170  0.2809
17010TIP3    H272522   0.615   0.814   5.663 -0.7232 -0.2113  0.0763
17011TIP3   OH272523   0.144   4.195   2.214 -0.2837  0.3076 -0.2868
17011TIP3    H172524   0.055   4.174   2.189 -0.3133 -0.3786  0.3869
17011TIP3    H272525   0.139   4.284   2.249 -0.2337  1.3312 -2.6992
17012TIP3   OH272526   7.116   3.498   4.541 -0.1682  0.0234  0.1614
17012TIP3    H172527   7.122   3.521   4.448  0.8075 -1.5581 -0.2045
17012TIP3    H272528   7.036   3.446   4.548  0.1768 -0.5289  0.0420
17013TIP3   OH272529   6.987   1.381   1.569  0.9549 -0.4970 -0.0493
17013TIP3    H172530   7.076   1.357   1.542  1.6873  0.5879  1.2796
17013TIP3    H272531   6.991   1.380   1.665 -0.5515 -0.6780  0.0266
17014TIP3   OH272532   0.228   7.100  13.326 -0.0646  0.3129 -0.8237
17014TIP3    H172533   0.231   7.159  13.251 -2.7751  1.4179 -0.1581
17014TIP3    H272534   0.174   7.026  13.297 -1.6708  1.0490  0.1668
17015TIP3   OH272535   3.895   0.319   5.436 -0.0504 -0.4022 -0.6605
17015TIP3    H172536   3.809   0.289   5.465  0.7269 -1.5303  0.6051
17015TIP3    H272537   3.954   0.297   5.508  1.4693 -0.5434 -1.8762
17016TIP3   OH272538   5.140   4.459   4.169  1.3699  0.0602 -0.5341
17016TIP3    H172539   5.113   4.404   4.095  1.0801  1.1380 -1.2671
17016TIP3    H272540   5.230   4.483   4.149  1.1051  0.8389 -0.8825
17017TIP3   OH272541   2.347   6.383   1.504  0.2146  0.2552 -0.3848
17017TIP3    H172542   2.408   6.366   1.576 -0.8894  0.7908  0.7079
17017TIP3    H272543   2.265   6.407   1.547 -0.5785  0.2361 -1.8291
17018TIP3   OH272544   3.335   0.732   3.654 -0.6473  0.0876  0.2920
17018TIP3    H172545   3.247   0.705   3.682 -0.4617 -0.4487  0.3761
17018TIP3    H272546   3.320   0.809   3.599 -0.9356  1.8396  2.6787
17019TIP3   OH272547   5.052   4.605  13.274 -0.3268 -0.2330  0.0905
17019TIP3    H172548   5.089   4.642  13.355  0.8091  0.2092 -0.6197
17019TIP3    H272549   4.963   4.579  13.300  0.3782 -1.1298  1.7734
17020TIP3   OH272550   6.084   0.469   4.501  0.4616  0.7292  0.1250
17020TIP3    H172551   6.093   0.419   4.420 -1.5079  0.6130 -0.0666
17020TIP3    H272552   6.121   0.555   4.481 -1.1646  1.1421 -1.3741
17021TIP3   OH272553   0.890   5.319   4.243  0.3249 -0.1175  0.7990
17021TIP3    H172554   0.812   5.325   4.188  1.4165  0.2473 -0.7686
17021TIP3    H272555   0.861   5.353   4.328 -1.2488 -0.1093  0.3036
17022TIP3   OH272556   3.155   5.361   4.418  0.4832 -0.6002 -0.0921
17022TIP3    H172557   3.167   5.436   4.476 -0.5534 -1.3763  1.1506
17022TIP3    H272558   3.235   5.360   4.364  1.6490 -0.0883  1.5554
17023TIP3   OH272559   1.620   1.290   5.893 -1.0836  0.1872 -0.0554
17023TIP3    H172560   1.702   1.250   5.865 -1.1332  0.4498 -0.5932
17023TIP3    H272561   1.645   1.377   5.924 -1.2264  0.4880 -0.7654
17024TIP3   OH272562   0.146   3.077   4.365  0.5861 -0.7667 -0.8585
17024TIP3    H172563   0.054   3.105   4.361  0.5357 -0.7501  0.1373
17024TIP3    H272564   0.183   3.128   4.436  1.0785 -1.6023 -0.5006
17025TIP3   OH272565   6.904   7.178  14.338 -0.3070  0.2342 -0.2933
17025TIP3    H172566   6.901   7.265  14.298 -0.4038  0.8159  0.9059
17025TIP3    H272567   6.812   7.156  14.354 -0.2465  0.2616  0.1036
17026TIP3   OH272568   4.901   4.950   2.583  0.7572 -0.4262 -0.0158
17026TIP3    H172569   4.971   5.016   2.586  1.1475 -0.8750  1.5875
17026TIP3    H272570   4.868   4.945   2.673 -0.4068 -1.2323 -0.4566
17027TIP3   OH272571   2.560   5.719  10.573  0.0870 -0.1399  0.1839
17027TIP3    H172572   2.522   5.694  10.489  0.2807  0.2738 -0.0297
17027TIP3    H272573   2.499   5.685  10.639 -0.0287 -0.5236 -0.1185
17028TIP3   OH272574   0.625   0.488   2.907 -0.4281 -0.1623  0.2512
17028TIP3    H172575   0.547   0.436   2.928 -0.3353 -0.0590  0.8663
17028TIP3    H272576   0.668   0.439   2.837 -1.4055  0.1336 -0.5831
17029TIP3   OH272577   3.663   3.677   5.895  0.1978 -0.8156  0.9200
17029TIP3    H172578   3.641   3.708   5.982 -0.5849  1.9906 -0.1537
17029TIP3    H272579   3.579   3.667   5.850  0.6481  0.3763 -0.2669
17030TIP3   OH272580   1.791   2.491   1.381 -0.0914  0.0912 -0.0551
17030TIP3    H172581   1.715   2.547   1.387 -0.4036 -0.2921 -0.3508
17030TIP3    H272582   1.767   2.412   1.429 -0.2158 -0.3789 -0.8545
17031TIP3   OH272583   5.613   2.529  14.741  0.1640  0.0049 -0.0277
17031TIP3    H172584   5.642   2.557  14.828 -0.5144  0.6976 -0.0184
17031TIP3    H272585   5.576   2.608  14.701  0.5427 -0.2886 -0.9821
17032TIP3   OH272586   0.612   2.164   2.922  0.6393  0.4493 -0.1945
17032TIP3    H172587   0.613   2.090   2.860  0.7951  1.6618 -1.7100
17032TIP3    H272588   0.523   2.165   2.956  0.8952 -1.0211  0.6347
17033TIP3   OH272589   2.254   2.191   6.010 -0.4356  0.2348 -0.1658
17033TIP3    H172590   2.307   2.205   6.088 -0.7691  1.7728 -0.1794
17033TIP3    H272591   2.278   2.104   5.979  0.6073  0.1106  0.9456
17034TIP3   OH272592   0.791   3.499   3.888  0.6161 -0.3752  0.3240
17034TIP3    H172593   0.835   3.569   3.839  0.3241 -0.9548 -0.7846
17034TIP3    H272594   0.766   3.435   3.822 -0.4277 -0.8471  1.1510
17035TIP3   OH272595   2.993   6.329   0.791  0.3552  0.2349  0.3059
17035TIP3    H172596   3.079   6.371   0.789 -0.3194  1.9390  2.7781
17035TIP3    H272597   2.941   6.377   0.726  0.5346  1.0318  0.7413
17036TIP3   OH272598   1.722   0.378   3.786  0.7890 -0.2007 -0.3533
17036TIP3    H172599   1.644   0.336   3.821  1.1438 -0.4860  0.1028
17036TIP3    H272600   1.698   0.401   3.696 -0.3293  1.0383  0.2188
17037TIP3   OH272601   4.626   0.647   4.567  0.2024 -0.1348  0.4855
17037TIP3    H172602   4.690   0.665   4.499  1.9568 -1.3234  1.7438
17037TIP3    H272603   4.660   0.690   4.645 -1.4284  0.6368  0.8265
17038TIP3   OH272604   4.708   7.209  13.400 -0.3615 -0.0604  0.3712
17038TIP3    H172605   4.695   7.207  13.495 -2.1821 -1.2759  0.1629
17038TIP3    H272606   4.644   7.274  13.370 -0.3817 -0.2849 -0.0724
17039TIP3   OH272607   5.806   6.058   1.179  0.2381  0.3597 -0.1489
17039TIP3    H172608   5.901   6.066   1.177  0.1748  1.6743 -3.0233
17039TIP3    H272609   5.777   6.130   1.235  0.9029 -0.2054  0.9530
17040TIP3   OH272610   2.141   3.211   4.919  0.6260  0.3880 -0.1491
17040TIP3    H172611   2.088   3.282   4.954  0.1101 -0.0521 -0.0305
17040TIP3    H272612   2.115   3.204   4.827 -1.5816 -1.6421  0.5460
17041TIP3   OH272613   5.321   1.584   4.798  0.5566  0.1754  0.1373
17041TIP3    H172614   5.378   1.511   4.822 -2.1940 -1.9321  0.7054
17041TIP3    H272615   5.344   1.603   4.707  1.9796 -0.7379  0.2780
17042TIP3   OH272616   1.517   6.231   4.867 -0.2837  0.4044 -0.1025
17042TIP3    H172617   1.594   6.202   4.916  0.4388  1.7713 -0.3948
17042TIP3    H272618   1.456   6.157   4.872  1.2899 -0.9691 -0.4170
17043TIP3   OH272619   4.395   3.276   5.007 -0.1721 -0.3938 -0.6546
17043TIP3    H172620   4.323   3.304   4.951 -0.0999 -1.7362 -1.4526
17043TIP3    H272621   4.458   3.236   4.947 -0.2528 -2.2149  0.3976
17044TIP3   OH272622   5.419   5.602   1.140 -0.0736 -0.4708 -0.4787
17044TIP3    H172623   5.404   5.516   1.180 -0.1955 -1.0051 -1.6337
17044TIP3    H272624   5.331   5.636   1.123 -0.0817  0.7855  1.7665
17045TIP3   OH272625   6.584   6.443  14.032 -0.4271  0.1134 -0.3530
17045TIP3    H172626   6.655   6.425  13.970  1.9885  2.7234  1.3720
17045TIP3    H272627   6.543   6.523  14.000 -0.2743  0.5383  0.4746
17046TIP3   OH272628   0.823   4.327   0.738  0.2184  0.0042 -0.6331
17046TIP3    H172629   0.917   4.342   0.738 -0.0345  2.1036 -1.8926
17046TIP3    H272630   0.789   4.385   0.807 -0.2341  0.2051 -1.0151
17047TIP3   OH272631   3.165   7.080   3.920  0.5231  0.0946  0.8327
17047TIP3    H172632   3.176   7.087   3.825 -0.8116 -1.7442  0.4814
17047TIP3    H272633   3.129   7.164   3.946  0.2255  0.3750 -0.4004
17048TIP3   OH272634   7.101   2.055   3.405 -0.2311 -0.3723  0.3374
17048TIP3    H172635   7.104   2.060   3.500 -1.0914  0.8055  0.3196
17048TIP3    H272636   7.168   1.991   3.382  0.1656 -0.4700  1.7139
17049TIP3   OH272637   6.279   3.686   0.121  0.4370  0.4406 -0.3827
17049TIP3    H172638   6.204   3.676   0.180 -0.3564  0.6748 -1.3130
17049TIP3    H272639   6.264   3.620   0.053  2.5742 -1.4700  0.8643
17050TIP3   OH272640   3.952   3.224   1.892  0.6559  0.2720 -0.9130
17050TIP3    H172641   3.995   3.277   1.825  0.0397  4.4092  1.6019
17050TIP3    H272642   3.989   3.255   1.974 -1.7342 -1.3913  0.9379
17051TIP3   OH272643   4.258   3.156   0.977 -0.6522 -0.1303  0.4317
17051TIP3    H172644   4.210   3.120   1.051 -1.0782 -0.4929 -0.0161
17051TIP3    H272645   4.342   3.110   0.979 -1.0544 -0.9033  0.0814
17052TIP3   OH272646   6.774   1.505   1.181 -0.7449  0.1537 -0.1254
17052TIP3    H172647   6.771   1.443   1.254 -0.9386 -0.2893 -0.5042
17052TIP3    H272648   6.699   1.481   1.127 -1.1549  1.0879  0.0203
17053TIP3   OH272649   5.763   5.527   4.031 -0.2763 -0.3254 -0.4836
17053TIP3    H172650   5.798   5.442   4.005 -0.5211 -0.9109  1.0401
17053TIP3    H272651   5.837   5.573   4.071 -0.3265 -0.0848 -0.6595
17054TIP3   OH272652   2.257   3.666   3.029 -0.0158  0.3954  0.0766
17054TIP3    H172653   2.333   3.722   3.020 -0.2802  1.0205  1.5118
17054TIP3    H272654   2.292   3.577   3.025  0.7867  0.6762  0.6630
17055TIP3   OH272655   1.280   3.150   0.199 -0.1965  0.2775  0.3679
17055TIP3    H172656   1.271   3.242   0.175  1.3433  0.2880 -0.2730
17055TIP3    H272657   1.300   3.105   0.117 -1.5598 -0.7526  0.5618
17056TIP3   OH272658   3.737   5.480   0.603  0.6769 -0.4494  0.2615
17056TIP3    H172659   3.689   5.426   0.665  0.8188 -0.5510  0.2826
17056TIP3    H272660   3.676   5.492   0.530  0.8782 -1.1716 -0.0287
17057TIP3   OH272661   4.986   3.438   0.349 -0.2227  0.2585  0.1435
17057TIP3    H172662   5.039   3.516   0.334  1.5732 -0.5088  2.0305
17057TIP3    H272663   4.993   3.389   0.267  0.0910  1.2263 -0.4335
17058TIP3   OH272664   3.586   4.650   4.830  0.0311  0.3997  0.3885
17058TIP3    H172665   3.668   4.673   4.874  1.1322 -0.8687 -0.8930
17058TIP3    H272666   3.602   4.669   4.738 -0.4006 -1.6210 -0.1555
17059TIP3   OH272667   3.836   6.033  11.713  0.2642  1.1417 -0.3054
17059TIP3    H172668   3.927   6.062  11.710  0.1832  1.5108  0.6217
17059TIP3    H272669   3.826   5.994  11.799 -0.3458  0.7086 -0.5657
17060TIP3   OH272670   1.182   6.369   5.160  0.0339 -0.4146 -0.1200
17060TIP3    H172671   1.267   6.336   5.187  0.6527  0.2911 -1.1144
17060TIP3    H272672   1.202   6.431   5.089 -1.3636 -0.9002 -0.9801
17061TIP3   OH272673   2.849   0.632   5.216  0.2144 -0.1702 -0.3459
17061TIP3    H172674   2.778   0.688   5.185 -0.3571  0.2234  1.5640
17061TIP3    H272675   2.829   0.616   5.308  2.1317 -0.7884  0.0128
17062TIP3   OH272676   2.291   0.464   1.195 -0.7284  0.5629  0.3561
17062TIP3    H172677   2.293   0.560   1.201 -0.5744  0.4495  3.1681
17062TIP3    H272678   2.225   0.437   1.258 -0.1691 -1.2270  0.2306
17063TIP3   OH272679   5.642   2.898  15.344 -0.1914 -0.5423 -0.0088
17063TIP3    H172680   5.677   2.810  15.337 -0.3814 -0.6111 -0.0943
17063TIP3    H272681   5.705   2.953  15.298  0.7591 -0.4111  1.3720
17064TIP3   OH272682   2.148   5.695   1.167 -0.4661  0.2805  0.5361
17064TIP3    H172683   2.178   5.745   1.243 -1.7303  0.4042  0.9754
17064TIP3    H272684   2.053   5.702   1.170 -0.8325 -3.1040  1.3240
17065TIP3   OH272685   3.606   0.285   1.979  0.5381  0.0932 -0.0665
17065TIP3    H172686   3.571   0.352   2.038 -0.0142 -0.1502 -0.1156
17065TIP3    H272687   3.546   0.285   1.904  0.6508 -0.3183 -0.1595
17066TIP3   OH272688   3.826   2.477   4.318  0.8959 -0.0675  0.3909
17066TIP3    H172689   3.749   2.484   4.262  1.8922  1.5157 -0.8489
17066TIP3    H272690   3.794   2.500   4.406 -0.2275 -0.4003  0.0816
17067TIP3   OH272691   4.656   5.184   2.297  0.0353 -0.4872  0.4923
17067TIP3    H172692   4.625   5.202   2.209 -0.9336  0.5141  1.0118
17067TIP3    H272693   4.584   5.213   2.354 -0.0710 -2.6755  1.5562
17068TIP3   OH272694   0.743   5.645   4.603  0.2576  0.4998 -0.2274
17068TIP3    H172695   0.743   5.627   4.697 -0.2905  1.1337 -0.1016
17068TIP3    H272696   0.753   5.740   4.596 -2.0209  0.7696 -0.7240
17069TIP3   OH272697   1.611   0.676   1.855 -0.0385 -0.4878 -0.2966
17069TIP3    H172698   1.546   0.728   1.808 -0.3409 -1.7693 -1.3374
17069TIP3    H272699   1.646   0.616   1.790  2.2231  0.1513  0.2299
17070TIP3   OH272700   0.816   3.118   1.557 -0.3016 -0.4106  0.1210
17070TIP3    H172701   0.755   3.187   1.532  1.6694  1.4918  0.1880
17070TIP3    H272702   0.873   3.160   1.622 -0.4520 -2.8475  1.9263
17071TIP3   OH272703   2.052   5.838   3.012 -0.2098  0.0078  0.9353
17071TIP3    H172704   2.092   5.829   2.926 -0.5610  1.7621  0.5528
17071TIP3    H272705   1.960   5.814   2.998 -0.2280  0.1204  0.8619
17072TIP3   OH272706   5.812   3.349  15.144 -0.4491  0.0627  0.7399
17072TIP3    H172707   5.727   3.393  15.139 -1.0428 -1.0483  0.6263
17072TIP3    H272708   5.823   3.309  15.058 -0.0028 -0.1573  0.8965
17073TIP3   OH272709   4.865   6.830   0.575 -0.4993 -0.0484 -0.7175
17073TIP3    H172710   4.956   6.819   0.547 -0.9269 -0.0393 -2.2094
17073TIP3    H272711   4.813   6.807   0.498 -1.7400  0.7052 -0.1453
17074TIP3   OH272712   3.488   2.401   1.309  0.2278  0.1201  0.1570
17074TIP3    H172713   3.528   2.463   1.370  0.0898 -0.5518  0.9566
17074TIP3    H272714   3.411   2.446   1.276  0.3878  0.5511  0.3656
17075TIP3   OH272715   1.476   6.153   3.742  0.8747  0.4124 -0.2158
17075TIP3    H172716   1.486   6.102   3.823  1.0260 -0.6664 -0.8957
17075TIP3    H272717   1.553   6.129   3.690  1.5470  2.1941 -0.1185
17076TIP3   OH272718   0.697   3.151   4.095 -1.0429  0.0962  0.3280
17076TIP3    H172719   0.637   3.082   4.122  0.1096  0.1128  3.3285
17076TIP3    H272720   0.642   3.229   4.084 -1.9295 -0.5659 -0.0051
17077TIP3   OH272721   1.986   5.046   4.133  0.4826 -0.2112  0.0178
17077TIP3    H172722   2.071   5.061   4.176  0.2799 -0.9175  0.6925
17077TIP3    H272723   2.007   4.991   4.058  0.9001  1.3886 -1.0931
17078TIP3   OH272724   2.058   5.131   2.061  0.1028  0.3493 -0.3179
17078TIP3    H172725   1.995   5.082   2.115  0.0575 -0.3231 -0.9628
17078TIP3    H272726   2.115   5.064   2.025  0.7042  0.8842 -0.3778
17079TIP3   OH272727   0.648   4.940   5.413 -0.4934  0.0963  0.1268
17079TIP3    H172728   0.636   5.014   5.474 -1.5541  0.9263 -1.0437
17079TIP3    H272729   0.568   4.940   5.360  0.1993 -0.9145 -0.9437
17080TIP3   OH272730   2.348   6.807   3.831  0.0698  0.3279  1.1075
17080TIP3    H172731   2.354   6.724   3.784 -0.2916 -0.5065  2.4796
17080TIP3    H272732   2.372   6.785   3.921  1.1132  1.9445  1.2636
17081TIP3   OH272733   2.633   1.302  14.064 -0.4137  0.2507 -0.5713
17081TIP3    H172734   2.642   1.389  14.023 -0.3527  0.3008 -0.4521
17081TIP3    H272735   2.614   1.321  14.155 -0.1894  0.1392 -0.5009
17082TIP3   OH272736   2.330   2.578   4.383 -0.6044 -0.3547 -0.3165
17082TIP3    H172737   2.244   2.538   4.392 -0.5030 -0.3369  0.8892
17082TIP3    H272738   2.389   2.505   4.362 -0.3936 -0.9152  2.0233
17083TIP3   OH272739   2.026   5.895   2.507  0.1426  0.3155 -0.0412
17083TIP3    H172740   1.934   5.880   2.528 -0.0884  2.3363  0.6932
17083TIP3    H272741   2.050   5.823   2.450 -1.5349 -0.9587  0.7638
17084TIP3   OH272742   3.197   1.075   5.441 -0.3972  0.6196 -0.1588
17084TIP3    H172743   3.182   1.109   5.529  1.2650  0.5980  0.1539
17084TIP3    H272744   3.238   0.989   5.454  2.7260  1.8913 -0.8757
17085TIP3   OH272745   6.707   5.950  13.226 -0.0431  0.2698  0.3207
17085TIP3    H172746   6.657   5.987  13.154 -1.9967 -0.5338  1.1738
17085TIP3    H272747   6.795   5.936  13.190  0.4964  4.4088 -0.3922
17086TIP3   OH272748   2.674   5.957   5.129  0.0418  0.2916  0.1083
17086TIP3    H172749   2.765   5.985   5.120  0.1913  0.7161  2.3737
17086TIP3    H272750   2.680   5.873   5.176 -0.6567 -0.9988 -1.9718
17087TIP3   OH272751   6.317   2.112   2.825  0.0064  0.4534 -0.2436
17087TIP3    H172752   6.251   2.175   2.796 -0.3379  0.8622  1.3459
17087TIP3    H272753   6.301   2.101   2.918  1.3889 -0.4300 -0.0750
17088TIP3   OH272754   2.407   1.138   5.754  0.2130 -0.0184 -0.8309
17088TIP3    H172755   2.432   1.131   5.662 -0.1138 -2.1621 -0.8087
17088TIP3    H272756   2.376   1.228   5.763  0.1444  0.2204 -2.8422
17089TIP3   OH272757   1.143   5.058   1.239  0.0212 -0.4719 -0.1267
17089TIP3    H172758   1.181   4.999   1.173 -0.0931  1.2738 -1.8484
17089TIP3    H272759   1.139   5.005   1.319  0.1317 -2.7095 -1.5049
17090TIP3   OH272760   3.962   1.396   4.215 -0.2986  0.1197 -0.0999
17090TIP3    H172761   4.017   1.369   4.289 -1.2727 -0.4523  0.4452
17090TIP3    H272762   3.874   1.406   4.253 -0.6594  0.6105 -1.0232
17091TIP3   OH272763   4.518   5.925   0.060  0.3789  0.6028 -0.0868
17091TIP3    H172764   4.565   5.888   0.134  0.2720 -0.0010 -0.3050
17091TIP3    H272765   4.520   6.019   0.073  1.9699  0.6237 -0.2858
17092TIP3   OH272766   0.416   1.550  14.294  0.2044 -0.0078  0.3121
17092TIP3    H172767   0.510   1.549  14.312 -0.0004 -0.7008  1.4079
17092TIP3    H272768   0.380   1.611  14.359 -0.0183  0.8898 -0.6281
17093TIP3   OH272769   4.770   5.691   3.226 -0.1780  0.4919  0.3873
17093TIP3    H172770   4.812   5.734   3.300  0.5548  3.1926 -1.4606
17093TIP3    H272771   4.676   5.707   3.239  0.0121  1.8518  0.2852
17094TIP3   OH272772   4.702   0.047   4.587 -0.3856 -0.7327 -0.0387
17094TIP3    H172773   4.752   0.119   4.626 -0.4872 -0.6113 -0.1333
17094TIP3    H272774   4.768  -0.009   4.547 -0.1210 -1.6217  1.5299
17095TIP3   OH272775   5.555   5.529   0.417 -0.4531  0.3077  0.5037
17095TIP3    H172776   5.568   5.475   0.496 -1.7370 -0.2366  0.3519
17095TIP3    H272777   5.629   5.506   0.361 -0.9471 -1.2669  0.4635
17096TIP3   OH272778   0.766   3.681   3.296  0.1013 -0.2134  0.2331
17096TIP3    H172779   0.794   3.733   3.371  0.1069 -0.7280  0.5905
17096TIP3    H272780   0.702   3.737   3.251 -1.2375 -0.5869  1.6110
17097TIP3   OH272781   1.297   6.896   5.266  0.4187 -0.3028 -0.1988
17097TIP3    H172782   1.349   6.922   5.341 -0.4364  1.3534 -0.1142
17097TIP3    H272783   1.271   6.806   5.283  0.0106  0.1334  1.6403
17098TIP3   OH272784   1.478   2.696   1.120  0.6335  0.0674 -0.5100
17098TIP3    H172785   1.446   2.773   1.072  0.1710  0.5627  0.5433
17098TIP3    H272786   1.405   2.634   1.118  0.5288  0.1814 -0.2549
17099TIP3   OH272787   1.947   4.851   2.380  0.5032  0.0212  0.3096
17099TIP3    H172788   1.975   4.831   2.290 -1.0535  0.5160 -0.3125
17099TIP3    H272789   1.876   4.913   2.370 -1.7884 -2.1771  1.7112
17100TIP3   OH272790   0.306   5.058  14.018  0.2665 -0.1509  0.1066
17100TIP3    H172791   0.234   5.118  14.038  0.7803  0.9684 -1.2950
17100TIP3    H272792   0.311   5.057  13.923 -0.0492 -2.8490  0.0303
17101TIP3   OH272793   4.368   1.474   3.127  0.4295  0.8582 -0.0741
17101TIP3    H172794   4.291   1.530   3.142 -1.0640 -0.6174 -1.7556
17101TIP3    H272795   4.379   1.427   3.210 -0.4490  1.1180  0.2021
17102TIP3   OH272796   2.665   6.433  15.324 -0.2136  0.2941 -0.1727
17102TIP3    H172797   2.591   6.376  15.344 -1.8748  2.2881 -0.3428
17102TIP3    H272798   2.668   6.436  15.229 -0.0793  0.4307 -0.1640
17103TIP3   OH272799   3.447   2.811   4.682 -0.0162  0.1737 -0.2931
17103TIP3    H172800   3.462   2.810   4.587  2.7358 -0.3046  0.0428
17103TIP3    H272801   3.424   2.720   4.703 -0.2641  0.1974 -0.4642
17104TIP3   OH272802   1.321   1.503   1.148  0.1285 -0.3454  0.2378
17104TIP3    H172803   1.238   1.518   1.192 -0.0676  0.4950 -0.3831
17104TIP3    H272804   1.325   1.408   1.134 -0.5586 -0.4274  0.5826
17105TIP3   OH272805   5.677   2.618   3.344  0.5150 -0.2492 -0.4040
17105TIP3    H172806   5.683   2.711   3.324  0.0362 -0.3495 -1.0377
17105TIP3    H272807   5.666   2.575   3.259 -2.4169 -0.6266  0.0360
17106TIP3   OH272808   2.584   1.320   4.851  0.2621  0.3801  0.3805
17106TIP3    H172809   2.572   1.230   4.820  0.4675  0.7917 -0.9574
17106TIP3    H272810   2.576   1.314   4.946 -1.2045 -0.8185  0.2183
17107TIP3   OH272811   2.803   1.104   4.333 -0.3085 -0.7115  0.6806
17107TIP3    H172812   2.723   1.150   4.360  1.6194  2.9452  0.9029
17107TIP3    H272813   2.859   1.107   4.411  1.3854  0.2959 -0.5030
17108TIP3   OH272814   1.507   0.328   3.584  0.3624  0.0907 -0.1056
17108TIP3    H172815   1.452   0.277   3.643  0.3305  0.7329  0.4298
17108TIP3    H272816   1.515   0.273   3.506 -0.7361 -0.1739 -0.0548
17109TIP3   OH272817   4.739   3.420   4.041  0.3838 -0.2163  0.3811
17109TIP3    H172818   4.811   3.379   4.089 -0.0385  1.0844  2.2172
17109TIP3    H272819   4.668   3.427   4.106 -1.2589 -1.0027 -1.2360
17110TIP3   OH272820   0.978   6.259  13.494  0.0955  0.5345 -0.3940
17110TIP3    H172821   0.899   6.233  13.541  0.5257  1.4778  0.9050
17110TIP3    H272822   1.049   6.240  13.555  0.5962  2.5976 -0.2845
17111TIP3   OH272823   1.422   2.331  14.566  0.4196  0.0329 -0.1893
17111TIP3    H172824   1.361   2.405  14.568  1.4795  0.9229  0.0365
17111TIP3    H272825   1.507   2.370  14.544  0.8325 -1.2467 -0.9641
17112TIP3   OH272826   2.083   5.256  12.218 -0.3887 -0.2290  0.0642
17112TIP3    H172827   2.027   5.266  12.141 -1.1931  0.4796  0.7223
17112TIP3    H272828   2.032   5.202  12.279 -1.2408  1.9659  1.4374
17113TIP3   OH272829   0.580   4.564   0.392  0.0874  0.0234 -0.0701
17113TIP3    H172830   0.567   4.654   0.362 -4.0522  0.4359  2.2250
17113TIP3    H272831   0.568   4.511   0.313  0.4237  1.3678 -1.0743
17114TIP3   OH272832   4.002   4.533   2.500  0.0766 -0.1413  0.1553
17114TIP3    H172833   4.036   4.445   2.513  0.3621 -0.1486 -0.5752
17114TIP3    H272834   4.007   4.547   2.405  2.0579  1.4490  0.4185
17115TIP3   OH272835   0.897   3.052   3.353 -0.5681 -0.1213  0.0414
17115TIP3    H172836   0.927   3.141   3.335  1.2716 -0.9355 -1.1240
17115TIP3    H272837   0.814   3.045   3.307 -0.9406  1.0923  0.4810
17116TIP3   OH272838   2.814   4.531   5.960 -1.0000 -0.1398  0.3238
17116TIP3    H172839   2.767   4.519   6.043 -0.8614  3.5195  1.0747
17116TIP3    H272840   2.882   4.595   5.980  2.4291 -2.8593 -1.5036
17117TIP3   OH272841   4.776   0.966   2.331 -0.0431 -0.1051 -0.7321
17117TIP3    H172842   4.848   0.933   2.385  0.3087  0.3238 -0.9351
17117TIP3    H272843   4.748   1.046   2.374 -1.3999 -1.0307  0.1812
17118TIP3   OH272844   2.737   5.755   0.905  0.0380 -0.3839 -0.1273
17118TIP3    H172845   2.715   5.669   0.941  1.2565 -0.4236  0.5675
17118TIP3    H272846   2.661   5.809   0.924  0.7981 -0.2639  3.0526
17119TIP3   OH272847   4.577   6.569   4.597 -0.1608 -0.7360 -0.2585
17119TIP3    H172848   4.584   6.562   4.692 -0.0138 -0.3364 -0.2358
17119TIP3    H272849   4.645   6.509   4.564 -0.2187 -0.8828 -0.1137
17120TIP3   OH272850   1.036   6.179   5.039 -0.1540  0.5120 -0.4670
17120TIP3    H172851   1.077   6.253   5.084  1.5688 -0.2412 -0.7402
17120TIP3    H272852   1.108   6.119   5.019 -1.3996 -0.8981 -0.9391
17121TIP3   OH272853   2.792   6.324   3.285 -0.4056 -0.2072  0.1438
17121TIP3    H172854   2.865   6.385   3.294 -1.3833  0.9210  0.6823
17121TIP3    H272855   2.765   6.306   3.375 -0.4526 -1.0433 -0.0333
17122TIP3   OH272856   0.060   2.276   2.801 -0.0245 -0.3567 -0.4074
17122TIP3    H172857   0.156   2.272   2.802  0.0376  0.7074 -0.5864
17122TIP3    H272858   0.037   2.310   2.887 -0.3122 -1.6334  0.0284
17123TIP3   OH272859   2.440   2.238   4.133  0.2605 -0.2977  0.9526
17123TIP3    H172860   2.532   2.212   4.123 -0.2291 -1.2221 -2.2663
17123TIP3    H272861   2.391   2.156   4.132 -0.8461  0.2050 -2.6200
17124TIP3   OH272862   0.077   0.802   4.603  0.2732 -0.2002  0.6485
17124TIP3    H172863   0.084   0.772   4.512  0.8179  1.6172  0.0440
17124TIP3    H272864   0.135   0.878   4.607  0.5189 -0.4439  2.6291
17125TIP3   OH272865   2.884   4.635  10.961 -0.3200  0.1069  0.4142
17125TIP3    H172866   2.816   4.697  10.937  0.1740  0.6611  0.4237
17125TIP3    H272867   2.907   4.590  10.880 -0.0897  0.5342  0.2395
17126TIP3   OH272868   1.464   6.530   5.577  0.2638 -0.2434  0.6434
17126TIP3    H172869   1.523   6.499   5.509  0.8967  1.1542  0.5186
17126TIP3    H272870   1.389   6.471   5.573 -0.2825  0.4937 -2.0949
17127TIP3   OH272871   3.696   2.492   3.728  0.2801 -0.5315 -0.2919
17127TIP3    H172872   3.608   2.523   3.753  1.0685  0.9635  0.7682
17127TIP3    H272873   3.679   2.424   3.663 -1.6476  0.1273 -0.5558
17128TIP3   OH272874   1.794   2.342   5.246  0.5356 -0.4266 -0.2818
17128TIP3    H172875   1.725   2.391   5.201 -1.0797 -1.1114  1.3138
17128TIP3    H272876   1.771   2.250   5.233  1.1532 -0.6687  0.2604
17129TIP3   OH272877   4.225   4.685   4.691  0.1359 -0.0630  0.1701
17129TIP3    H172878   4.133   4.678   4.717 -0.2734  2.0104 -0.5373
17129TIP3    H272879   4.273   4.642   4.761 -1.1207  2.4250  2.7482
17130TIP3   OH272880   4.043   3.342   2.134  0.1090  0.2914  0.3075
17130TIP3    H172881   3.976   3.317   2.197 -0.6843 -0.4556 -0.8122
17130TIP3    H272882   4.025   3.434   2.116 -2.0006 -0.4295 -1.5948
17131TIP3   OH272883   1.121   0.042   5.097  0.2930 -0.0075  0.1958
17131TIP3    H172884   1.055   0.093   5.050  0.7796 -0.8234 -1.4657
17131TIP3    H272885   1.177   0.007   5.027  1.1275 -1.1882  1.4247
17132TIP3   OH272886   0.228   6.697   4.657  0.3525 -0.6498 -0.3559
17132TIP3    H172887   0.208   6.762   4.589 -0.3557  0.3974  0.8052
17132TIP3    H272888   0.244   6.616   4.609 -1.8622 -0.3785 -1.6950
17133TIP3   OH272889   0.873   3.476  15.121 -0.8088 -0.3219  0.4427
17133TIP3    H172890   0.786   3.435  15.127 -0.1991 -1.5408  1.3168
17133TIP3    H272891   0.916   3.453  15.203  0.2896  0.4217  0.0907
17134TIP3   OH272892   5.090   1.961   5.304 -0.3062  0.8206  0.7253
17134TIP3    H172893   5.168   1.907   5.315  1.0688  2.5431 -0.1415
17134TIP3    H272894   5.024   1.919   5.360  0.6313 -1.7668  0.0499
17135TIP3   OH272895   0.892   6.690   2.406 -0.3949  0.3972 -0.9671
17135TIP3    H172896   0.928   6.766   2.452 -0.1404  0.7395 -1.7150
17135TIP3    H272897   0.941   6.615   2.440 -1.0610  0.4739  0.2221
17136TIP3   OH272898   3.083   6.909   0.797 -0.1208 -0.4719  0.1334
17136TIP3    H172899   3.066   6.994   0.837  1.0022 -0.5994  0.9219
17136TIP3    H272900   3.026   6.908   0.720  0.9522  1.6580 -0.7954
17137TIP3   OH272901   3.596   0.531   5.340 -0.2070 -0.3511  0.2543
17137TIP3    H172902   3.587   0.574   5.425 -0.2585 -0.5762  0.3624
17137TIP3    H272903   3.536   0.456   5.344 -0.9334  0.1780 -0.3262
17138TIP3   OH272904   1.613   0.258   5.566  0.0743 -0.0589 -0.3172
17138TIP3    H172905   1.523   0.286   5.581  0.4054  0.0639  1.6518
17138TIP3    H272906   1.611   0.163   5.579 -0.2392 -0.4790 -2.9156
17139TIP3   OH272907   3.946   4.055   2.748  0.2513  0.9115  0.4189
17139TIP3    H172908   4.007   4.129   2.750 -0.4531  1.5237 -0.2799
17139TIP3    H272909   4.001   3.980   2.728  0.9239  1.2921  0.7664
17140TIP3   OH272910   4.159   0.548   5.122 -0.2882  0.7374  0.1879
17140TIP3    H172911   4.170   0.593   5.205 -1.2047  1.1465  0.1016
17140TIP3    H272912   4.240   0.499   5.110  0.4131  1.7413  0.6700
17141TIP3   OH272913   1.301   5.414   2.656 -0.0774  0.0536  0.0701
17141TIP3    H172914   1.380   5.459   2.686 -0.8853 -0.1506  2.7690
17141TIP3    H272915   1.332   5.331   2.620  1.1451  1.3227 -1.9705
17142TIP3   OH272916   3.884   0.417   1.648 -0.2272 -0.7295 -0.2287
17142TIP3    H172917   3.969   0.378   1.665  0.1951  0.4959  0.6233
17142TIP3    H272918   3.857   0.455   1.732 -1.0045  0.0327 -0.7932
17143TIP3   OH272919   2.104   0.201   2.385  0.0809 -0.0937  0.0630
17143TIP3    H172920   2.180   0.152   2.355  1.2488  1.1684  0.8000
17143TIP3    H272921   2.113   0.203   2.481 -1.0572 -0.1916  0.1879
17144TIP3   OH272922   2.866   6.576   5.202 -0.3659  0.0047 -0.1943
17144TIP3    H172923   2.882   6.662   5.161 -1.2953  0.6064  0.6546
17144TIP3    H272924   2.948   6.529   5.191 -0.0948  0.7084 -1.3842
17145TIP3   OH272925   2.760   0.332   5.001  0.3599 -0.2392  0.0795
17145TIP3    H172926   2.672   0.339   5.038  1.6184  1.5635  3.1855
17145TIP3    H272927   2.780   0.420   4.969  1.7977  0.0395  1.5853
17146TIP3   OH272928   1.924   0.222   2.132 -0.6458  0.1535 -0.4050
17146TIP3    H172929   1.924   0.317   2.142 -0.5742  0.1005  0.1285
17146TIP3    H272930   1.974   0.190   2.207 -2.8368 -0.4490  0.8717
17147TIP3   OH272931   7.008   5.045   5.195  0.5102 -0.3989  0.4201
17147TIP3    H172932   7.090   5.087   5.167  1.2932 -1.3381  1.2392
17147TIP3    H272933   7.014   5.041   5.290  0.0572 -1.5678  0.4168
17148TIP3   OH272934   3.897   0.474   4.751 -0.3952  0.4071  0.1571
17148TIP3    H172935   3.860   0.470   4.839  1.2223 -2.2925  0.8236
17148TIP3    H272936   3.875   0.390   4.711  1.6583  0.2538 -0.7867
17149TIP3   OH272937   1.918   6.695  12.445 -0.0101  0.2608  0.6051
17149TIP3    H172938   1.969   6.668  12.522  1.2864  0.8261 -0.0162
17149TIP3    H272939   1.914   6.791  12.451  1.4494  0.4657 -0.7819
17150TIP3   OH272940   6.269   4.097   4.062 -0.0001  0.1412  0.9262
17150TIP3    H172941   6.214   4.030   4.021 -1.2437  1.8492 -0.3569
17150TIP3    H272942   6.243   4.097   4.154 -0.7281 -0.4314  0.7340
17151TIP3   OH272943   4.063   4.806   5.308  0.0380 -0.3482 -0.0972
17151TIP3    H172944   3.993   4.782   5.368  0.1384 -0.6905 -0.1169
17151TIP3    H272945   4.125   4.733   5.313 -0.4557 -0.8792 -1.4091
17152TIP3   OH272946   3.596   1.827   4.760  0.1376  0.2035  0.0316
17152TIP3    H172947   3.625   1.801   4.673 -1.3906  2.4142 -1.2452
17152TIP3    H272948   3.520   1.883   4.744  1.4366  2.9645  2.5988
17153TIP3   OH272949   3.057   3.687   0.678  0.3321 -0.3376 -0.8016
17153TIP3    H172950   3.001   3.624   0.723 -2.6656  0.3743 -3.1955
17153TIP3    H272951   3.030   3.772   0.712  2.4867 -0.0728  0.4686
17154TIP3   OH272952   5.853   3.721   3.225 -0.0764 -0.0489  0.0895
17154TIP3    H172953   5.875   3.803   3.270  0.0237 -0.4214  0.7268
17154TIP3    H272954   5.877   3.652   3.287  0.1202 -0.5759 -0.5577
17155TIP3   OH272955   6.499   3.269   4.940  0.3889 -0.1562 -0.4080
17155TIP3    H172956   6.571   3.325   4.970 -1.2518  2.6138 -1.2806
17155TIP3    H272957   6.473   3.219   5.017  1.5696  0.7039  0.5815
17156TIP3   OH272958   7.117   1.880   3.081  0.1297  0.1563 -0.1977
17156TIP3    H172959   7.036   1.860   3.035  0.0843 -0.5176  0.1518
17156TIP3    H272960   7.128   1.807   3.143  0.5413  0.6855  0.3718
17157TIP3   OH272961   2.653   3.979   0.558  0.3343 -0.3851 -0.4407
17157TIP3    H172962   2.562   3.991   0.530  0.4400 -0.7856 -0.9827
17157TIP3    H272963   2.655   3.891   0.597  0.5730 -0.5460 -0.8089
17158TIP3   OH272964   3.988   6.871   3.205  0.8306 -0.3164 -0.2770
17158TIP3    H172965   3.974   6.780   3.231  0.7640 -0.1532  0.2738
17158TIP3    H272966   3.909   6.894   3.155  0.7048 -0.4634 -0.1472
17159TIP3   OH272967   2.839   5.997   3.668 -0.1884 -0.6161 -0.2291
17159TIP3    H172968   2.789   5.932   3.717 -1.6290 -0.1628 -1.0473
17159TIP3    H272969   2.788   6.011   3.589  1.2225 -0.0775 -1.0766
17160TIP3   OH272970   6.971   1.674   5.225 -0.1636 -0.2195  0.5385
17160TIP3    H172971   6.958   1.728   5.147 -0.1309  0.3145  0.8962
17160TIP3    H272972   7.020   1.598   5.194  0.0459  0.0986  0.0805
17161TIP3   OH272973   3.902   0.412  14.721  0.2414 -0.0656  0.2974
17161TIP3    H172974   3.928   0.504  14.731 -2.0027  0.6210  0.4617
17161TIP3    H272975   3.828   0.415  14.662  0.3498 -1.8420  0.0320
17162TIP3   OH272976   3.436   1.297   1.940  0.7005 -0.0359  0.6250
17162TIP3    H172977   3.378   1.242   1.886  2.1611 -2.4754  1.3612
17162TIP3    H272978   3.395   1.383   1.939 -0.1349 -0.2776 -3.1650
17163TIP3   OH272979   2.142   3.811  15.009 -0.2426 -0.0451 -0.1364
17163TIP3    H172980   2.049   3.829  15.024 -0.1764  1.1907 -1.0523
17163TIP3    H272981   2.185   3.837  15.090 -0.4288  1.9524 -0.6167
17164TIP3   OH272982   5.809   6.051   5.980  0.5213 -0.0702 -0.3524
17164TIP3    H172983   5.855   6.067   6.062 -0.1500  2.0560 -0.3280
17164TIP3    H272984   5.831   6.126   5.924 -1.6122  0.2362 -0.8954
17165TIP3   OH272985   4.728   3.446  14.946  0.2253  0.1641  0.2055
17165TIP3    H172986   4.822   3.444  14.967  0.3334 -0.7385 -0.3099
17165TIP3    H272987   4.714   3.367  14.894 -0.7283  0.5551 -0.1399
17166TIP3   OH272988   6.765   1.316   3.687  0.2796  0.4532 -0.6522
17166TIP3    H172989   6.819   1.373   3.632  1.5863 -1.2165 -1.2138
17166TIP3    H272990   6.692   1.290   3.630  0.4086  0.5144 -0.8480
17167TIP3   OH272991   0.273   7.166   3.854 -0.0608 -0.2541 -0.0947
17167TIP3    H172992   0.271   7.091   3.795 -1.4009 -1.4683  1.3839
17167TIP3    H272993   0.307   7.238   3.801  4.2787 -2.4990 -0.7813
17168TIP3   OH272994   0.525   2.928   4.031 -0.3113  0.1825  0.3628
17168TIP3    H172995   0.558   2.858   4.087 -1.0818  0.0764  0.7018
17168TIP3    H272996   0.432   2.935   4.054 -0.2969  1.1524  0.1655
17169TIP3   OH272997   6.975   5.308   4.064 -0.1322 -0.4685  0.4124
17169TIP3    H172998   7.046   5.364   4.096  2.7061 -1.9038 -2.6963
17169TIP3    H272999   6.924   5.364   4.006  0.9465 -0.3244 -0.4343
17170TIP3   OH273000   5.803   0.334   3.661 -0.1804  0.1790 -0.5228
17170TIP3    H173001   5.847   0.363   3.581 -0.2641  0.0083 -0.6318
17170TIP3    H273002   5.856   0.370   3.732  0.6800 -0.8173 -0.6376
17171TIP3   OH273003   3.851   1.100   4.203  0.4613 -0.0733  0.2555
17171TIP3    H173004   3.768   1.144   4.186  0.0426 -0.7677  0.4574
17171TIP3    H273005   3.849   1.079   4.296  0.5653 -0.6992  0.1210
17172TIP3   OH273006   4.562   3.224  14.477 -0.0941 -0.6090 -0.7974
17172TIP3    H173007   4.529   3.281  14.407 -1.1338 -2.9118 -2.2969
17172TIP3    H273008   4.507   3.246  14.552 -1.2628 -0.4065 -1.6671
17173TIP3   OH273009   0.776   6.399   1.737  0.4288 -0.0055  0.3698
17173TIP3    H173010   0.834   6.412   1.662 -1.0715 -3.0177 -1.5048
17173TIP3    H273011   0.818   6.330   1.788  0.1836  0.2609  0.9403
17174TIP3   OH273012   2.657   0.280   3.183  0.1933 -0.5263 -0.3774
17174TIP3    H173013   2.687   0.348   3.243  1.0133 -1.3990  0.2450
17174TIP3    H273014   2.706   0.202   3.209 -1.1179 -1.4996 -0.7157
17175TIP3   OH273015   2.108   4.568   3.997  0.6533 -0.1430  0.6168
17175TIP3    H173016   2.017   4.598   4.001  1.0922  1.1189  2.7858
17175TIP3    H273017   2.159   4.642   4.031  2.5452 -0.7096 -0.8174
17176TIP3   OH273018   6.018   3.341   0.603  0.3758  0.1047 -0.0130
17176TIP3    H173019   6.030   3.365   0.695  1.9681  1.3250 -0.4957
17176TIP3    H273020   6.087   3.278   0.585  2.5773  2.6445 -1.2542
17177TIP3   OH273021   0.205   5.455   1.758 -0.5186 -0.1007  0.5009
17177TIP3    H173022   0.135   5.470   1.820  0.0574  0.9915  0.9155
17177TIP3    H273023   0.219   5.360   1.759 -1.9869 -0.3324  0.3836
17178TIP3   OH273024   2.608   2.636   3.352  0.6711 -0.2811 -0.0475
17178TIP3    H173025   2.537   2.676   3.302  0.7084  1.7324  1.3789
17178TIP3    H273026   2.576   2.549   3.376 -2.1044  1.1643  2.0293
17179TIP3   OH273027   2.250   6.800  11.108 -0.0700  0.0765  0.1454
17179TIP3    H173028   2.254   6.707  11.084  0.6465  0.4914 -1.5114
17179TIP3    H273029   2.211   6.842  11.031 -1.1759  1.0706  1.2008
17180TIP3   OH273030   1.644   3.975   1.481 -0.1694  0.7363  0.4182
17180TIP3    H173031   1.670   4.067   1.478  0.1840  0.6288  0.0865
17180TIP3    H273032   1.697   3.937   1.550 -1.6624  1.1832  1.8659
17181TIP3   OH273033   4.566   6.273   2.860  0.3388  0.0025  0.5372
17181TIP3    H173034   4.628   6.250   2.929  0.3334 -0.9566  0.2269
17181TIP3    H273035   4.615   6.332   2.803 -0.2971  2.6022  2.4847
17182TIP3   OH273036   4.465   1.141   5.598  0.2622 -0.4574  0.3601
17182TIP3    H173037   4.522   1.064   5.598  0.3932 -0.3778  1.7194
17182TIP3    H273038   4.399   1.121   5.531  0.0989 -1.9100  0.9034
17183TIP3   OH273039   2.322   6.804   5.124  0.2004 -0.3414  0.1418
17183TIP3    H173040   2.238   6.842   5.100 -0.2247 -0.1803  1.7650
17183TIP3    H273041   2.353   6.858   5.197  1.7416 -0.3716 -0.4424
17184TIP3   OH273042   3.183   0.583   4.200  0.3005 -0.0563  0.4026
17184TIP3    H173043   3.190   0.668   4.158  1.4367 -0.3233  0.0117
17184TIP3    H273044   3.230   0.593   4.283  3.2047 -1.0892 -0.9782
17185TIP3   OH273045   2.882   2.596   5.986 -0.2365  0.0124  0.4687
17185TIP3    H173046   2.922   2.518   6.024 -1.7246 -0.7278  0.6124
17185TIP3    H273047   2.788   2.576   5.985 -0.3908 -0.1257 -3.6925
17186TIP3   OH273048   3.307   0.945   4.882  0.5521  0.1055  0.0887
17186TIP3    H173049   3.344   1.010   4.942  0.6693  0.8060 -0.7292
17186TIP3    H273050   3.354   0.959   4.800 -0.7843  0.2911 -0.6568
17187TIP3   OH273051   6.582   3.050   2.558  0.1975 -0.0902 -0.4441
17187TIP3    H173052   6.522   3.091   2.496  0.3577 -1.6192 -1.6905
17187TIP3    H273053   6.532   3.045   2.639 -1.2675 -0.9765 -1.3405
17188TIP3   OH273054   2.343   3.824   0.261 -0.0544 -0.1508 -0.1120
17188TIP3    H173055   2.265   3.779   0.293  0.6777 -1.3595  0.0751
17188TIP3    H273056   2.360   3.893   0.326 -1.2411  0.4564 -0.4313
17189TIP3   OH273057   0.793   0.169   3.385 -0.1391 -0.1482 -0.8857
17189TIP3    H173058   0.888   0.158   3.391 -0.3809 -1.7549  0.7107
17189TIP3    H273059   0.781   0.231   3.313  2.1051  0.0294 -1.1815
17190TIP3   OH273060   3.902   1.323   0.499  0.2910 -0.4850  0.1205
17190TIP3    H173061   3.919   1.405   0.545  0.2652  0.0235 -0.7450
17190TIP3    H273062   3.807   1.313   0.503  0.2067 -0.0190 -0.5000
17191TIP3   OH273063   3.868   0.299   1.937 -0.2323 -1.0432 -0.0891
17191TIP3    H173064   3.889   0.267   1.849  1.5426  0.9609 -0.4771
17191TIP3    H273065   3.773   0.289   1.944 -0.5446 -0.4533 -2.5758
17192TIP3   OH273066   0.170   3.946   4.321 -0.0659  0.3058  0.7217
17192TIP3    H173067   0.144   3.955   4.229  0.0538  0.3285  0.6907
17192TIP3    H273068   0.087   3.943   4.368 -0.2037 -1.7774  0.4350
17193TIP3   OH273069   0.933   7.117  15.243  0.1522  0.0730  0.7191
17193TIP3    H173070   0.894   7.201  15.218 -1.3508 -0.6701  0.4771
17193TIP3    H273071   1.013   7.112  15.191 -0.0013  1.1256  0.3473
17194TIP3   OH273072   2.116   5.690   3.280  0.5671 -0.2998 -0.5614
17194TIP3    H173073   2.191   5.630   3.271  0.7770  0.1765 -2.4768
17194TIP3    H273074   2.101   5.722   3.191 -0.6588  1.1586  0.1360
17195TIP3   OH273075   3.145   1.191   4.962  0.6285 -0.7293  0.0345
17195TIP3    H173076   3.236   1.199   4.990  1.0568 -1.1917 -1.1468
17195TIP3    H273077   3.145   1.221   4.871 -0.6745  0.6066  0.4258
17196TIP3   OH273078   2.881   2.625   4.351 -0.3554  0.3998 -0.4492
17196TIP3    H173079   2.815   2.651   4.415 -0.2175 -0.1251 -0.0845
17196TIP3    H273080   2.840   2.642   4.266 -2.0561 -2.3863 -0.3124
17197TIP3   OH273081   5.206   6.554   3.393  0.0940 -0.2577  1.0656
17197TIP3    H173082   5.148   6.538   3.319  0.0370  2.0122  0.5567
17197TIP3    H273083   5.149   6.594   3.459  0.5754 -0.3761  1.5596
17198TIP3   OH273084   3.095   6.504   5.030  0.1023 -0.0618 -0.2745
17198TIP3    H173085   3.123   6.595   5.024 -1.5098  0.5143  0.5155
17198TIP3    H273086   3.173   6.454   5.005  2.2829  1.4023  2.8797
17199TIP3   OH273087   0.751   0.909   4.834  0.2883  0.0858  0.1850
17199TIP3    H173088   0.745   0.842   4.766 -0.1586  0.2982  0.0151
17199TIP3    H273089   0.837   0.950   4.819 -0.0496  0.5197 -0.6165
17200TIP3   OH273090   4.036   5.592   4.654  0.2264  0.2053  0.6574
17200TIP3    H173091   4.045   5.510   4.704  0.9370  0.1011  0.3602
17200TIP3    H273092   4.051   5.661   4.719  2.4424  0.0580  0.3665
17201TIP3   OH273093   2.573   4.802   3.443 -0.2656 -0.8461  0.2699
17201TIP3    H173094   2.596   4.849   3.363 -2.1646 -0.1173  0.0901
17201TIP3    H273095   2.516   4.731   3.412 -2.8117  0.7254  1.0917
17202TIP3   OH273096   7.016   7.212   5.291 -0.0911 -0.2674 -0.0789
17202TIP3    H173097   7.032   7.160   5.370  0.0161  1.1120  0.8405
17202TIP3    H273098   7.073   7.288   5.301 -1.5963  0.9668 -0.4528
17203TIP3   OH273099   4.385   1.710   4.678  0.2363 -0.4909 -0.0000
17203TIP3    H173100   4.312   1.723   4.739  0.4858 -0.1035  0.2211
17203TIP3    H273101   4.391   1.616   4.667 -0.1666 -0.5351  0.1471
17204TIP3   OH273102   5.561   0.804   4.372  0.9033 -0.1084 -0.2317
17204TIP3    H173103   5.555   0.835   4.281  0.0067 -1.3223 -0.6073
17204TIP3    H273104   5.619   0.867   4.414  0.8896  0.8079 -1.5068
17205TIP3   OH273105   5.293   5.180   5.082  0.2538  0.4582  0.0123
17205TIP3    H173106   5.285   5.088   5.108 -0.4070  0.6184  0.4019
17205TIP3    H273107   5.205   5.204   5.051  0.2241  1.1709  0.6287
17206TIP3   OH273108   0.821   2.820   2.166 -0.1868 -0.5298  0.2269
17206TIP3    H173109   0.846   2.728   2.160 -0.4064 -0.8266  2.6411
17206TIP3    H273110   0.860   2.850   2.248 -0.6612  1.3597 -0.1886
17207TIP3   OH273111   5.349   0.940   2.180  0.2164  0.4344 -0.1191
17207TIP3    H173112   5.407   0.873   2.216 -1.3623 -1.3835 -0.7701
17207TIP3    H273113   5.358   0.931   2.085 -0.8356  0.3735 -0.2220
17208TIP3   OH273114   5.102   1.153   2.073  0.7642  0.0606 -0.2677
17208TIP3    H173115   5.091   1.209   1.997  0.1617 -0.2216 -0.3938
17208TIP3    H273116   5.030   1.090   2.068 -0.5090  1.2669  1.5984
17209TIP3   OH273117   7.077   1.211  14.706  0.2111  0.1973 -0.4424
17209TIP3    H173118   7.012   1.279  14.723 -1.0630 -1.0236 -0.2499
17209TIP3    H273119   7.160   1.258  14.703 -0.7916  2.0047 -2.0252
17210TIP3   OH273120   6.319   2.596   5.546 -0.2856 -0.7364  0.0917
17210TIP3    H173121   6.388   2.661   5.534 -0.8297 -0.3506 -1.1286
17210TIP3    H273122   6.265   2.629   5.617 -0.1956 -0.1656 -0.1041
17211TIP3   OH273123   3.585   0.664   3.795  0.4369 -0.1347 -0.1386
17211TIP3    H173124   3.507   0.679   3.742 -0.6480 -0.0526  1.4000
17211TIP3    H273125   3.579   0.571   3.820 -0.0551  0.2568  1.2895
17212TIP3   OH273126   6.775   0.890   2.889 -0.5144  0.0982  0.0885
17212TIP3    H173127   6.819   0.962   2.934  0.6668  0.7289 -1.9551
17212TIP3    H273128   6.684   0.919   2.880 -0.1939  1.0491 -0.1330
17213TIP3   OH273129   2.655   7.026   2.207  0.2301 -0.5780 -0.4123
17213TIP3    H173130   2.646   7.120   2.223  1.7589 -0.2361 -1.3142
17213TIP3    H273131   2.676   7.020   2.114 -0.7968 -1.9053 -0.5939
17214TIP3   OH273132   1.232   0.649   2.368 -0.2469  0.3259  0.2065
17214TIP3    H173133   1.157   0.653   2.428  0.3416 -1.2806  1.1060
17214TIP3    H273134   1.194   0.626   2.283 -0.7178 -1.3499  0.8360
17215TIP3   OH273135   3.350   3.985   2.412 -0.8038 -0.3325  0.2115
17215TIP3    H173136   3.434   4.021   2.440 -0.7024 -0.7106  0.4023
17215TIP3    H273137   3.372   3.922   2.343 -0.7663 -1.5600  1.2906
17216TIP3   OH273138   3.282   5.792   2.299  0.1095  0.0880  0.2308
17216TIP3    H173139   3.354   5.764   2.356  0.9432 -0.6952 -1.1665
17216TIP3    H273140   3.212   5.728   2.316  0.1532  0.1653  0.7307
17217TIP3   OH273141   2.096   3.068   5.461  0.3320  0.0490  0.2777
17217TIP3    H173142   2.001   3.077   5.454  0.3208 -0.1187  0.2242
17217TIP3    H273143   2.112   2.974   5.459  0.4322  0.0377  1.1724
17218TIP3   OH273144   0.438   5.800   5.254 -0.2777  0.4502 -0.0167
17218TIP3    H173145   0.409   5.712   5.278  0.2946 -0.0354 -1.0707
17218TIP3    H273146   0.368   5.836   5.201 -0.4891  0.6251  0.3724
17219TIP3   OH273147   0.330   6.647  13.141  0.5823  0.4174 -0.5096
17219TIP3    H173148   0.388   6.707  13.093  0.4803  0.5640 -0.4532
17219TIP3    H273149   0.356   6.657  13.232  1.8193 -1.0124 -0.6797
17220TIP3   OH273150   5.308   5.992   4.272 -0.0536  0.1498 -0.2853
17220TIP3    H173151   5.360   6.033   4.341 -0.6015  0.1601  0.1258
17220TIP3    H273152   5.221   6.032   4.279  0.0489  0.5881 -1.3733
17221TIP3   OH273153   5.647   6.908   3.565 -0.1992 -0.2897 -0.3486
17221TIP3    H173154   5.568   6.938   3.520  0.5197 -0.2546 -1.6305
17221TIP3    H273155   5.716   6.967   3.534  0.1623  0.4358  1.6317
17222TIP3   OH273156   6.921   2.640   3.523  0.2944 -0.0455 -0.1831
17222TIP3    H173157   6.992   2.592   3.481  2.0412  0.2498  2.2047
17222TIP3    H273158   6.905   2.591   3.604 -0.8089  1.0712  0.2981
17223TIP3   OH273159   4.428   0.125  12.792  0.2344  0.4009  0.1222
17223TIP3    H173160   4.435   0.216  12.764  0.3196  1.1884  2.4862
17223TIP3    H273161   4.339   0.098  12.767 -0.9469  2.1775  2.1503
17224TIP3   OH273162   0.943   4.042   0.146  0.1584  0.2238 -0.2265
17224TIP3    H173163   0.879   4.113   0.135 -0.0859 -0.0832 -0.8326
17224TIP3    H273164   1.005   4.055   0.075  0.1473 -0.1337 -0.3024
17225TIP3   OH273165   5.760   6.404  15.407  0.2272 -0.4360  0.1469
17225TIP3    H173166   5.751   6.488  15.453  0.8625  0.9368 -2.0559
17225TIP3    H273167   5.671   6.382  15.379 -0.0801 -1.0093  1.4816
17226TIP3   OH273168   2.682   6.821   3.288 -0.5174 -0.5188  0.2296
17226TIP3    H173169   2.696   6.747   3.229  2.4446  0.5019 -0.5290
17226TIP3    H273170   2.656   6.893   3.230 -0.1980 -0.1877  0.4899
17227TIP3   OH273171   5.437   3.983   5.028 -0.2379  0.3210  0.3429
17227TIP3    H173172   5.423   4.051   5.094  0.4075  1.1365 -0.3314
17227TIP3    H273173   5.532   3.968   5.029 -0.0630  1.1066 -1.0924
17228TIP3   OH273174   5.604   1.615   3.196 -1.0119 -0.1432  0.2323
17228TIP3    H173175   5.531   1.675   3.213 -2.0205 -1.0797 -0.6306
17228TIP3    H273176   5.610   1.610   3.101  0.1682 -0.1217  0.2878
17229TIP3   OH273177   4.647   4.830   1.621  0.4772 -0.6396  0.1304
17229TIP3    H173178   4.556   4.837   1.649 -0.1800 -0.9524 -1.7667
17229TIP3    H273179   4.693   4.791   1.696 -1.0117 -0.8194  0.9835
17230TIP3   OH273180   4.958   1.251   3.941  0.5811  0.0311  0.3164
17230TIP3    H173181   4.933   1.161   3.920 -0.2521  0.1986  0.5507
17230TIP3    H273182   4.967   1.294   3.856  3.2935 -0.8380  0.0840
17231TIP3   OH273183   2.513   3.231   5.456  0.1006 -0.5041 -0.7024
17231TIP3    H173184   2.531   3.325   5.449  1.7471 -0.5035  2.0318
17231TIP3    H273185   2.579   3.190   5.401 -0.3279 -0.1020 -1.5385
17232TIP3   OH273186   6.605   4.457   4.624  0.0083  0.2330 -0.8159
17232TIP3    H173187   6.552   4.536   4.615  0.9240  1.0029  0.3328
17232TIP3    H273188   6.545   4.393   4.664 -0.3901  0.7183 -0.6199
17233TIP3   OH273189   4.562   1.033  12.558 -0.2934 -0.2168 -0.1509
17233TIP3    H173190   4.484   0.986  12.527 -0.9977  0.0438  1.1307
17233TIP3    H273191   4.611   0.968  12.608  0.7122 -0.5702 -1.5273
17234TIP3   OH273192   5.455   0.024   3.671  0.5249  0.0957  0.0863
17234TIP3    H173193   5.473   0.096   3.611  2.7079  0.8245  1.4828
17234TIP3    H273194   5.429   0.066   3.752 -1.6763 -0.8526 -0.0619
17235TIP3   OH273195   2.616   1.678   3.583  0.5323 -0.7355 -0.4015
17235TIP3    H173196   2.598   1.591   3.546 -1.7614 -0.5282  0.1126
17235TIP3    H273197   2.675   1.660   3.657  0.4272 -1.8087 -0.5568
17236TIP3   OH273198   2.838   1.563  13.501 -0.0809 -0.7081  0.5630
17236TIP3    H173199   2.852   1.510  13.422 -1.1402 -0.3077  0.0904
17236TIP3    H273200   2.758   1.528  13.539  0.8195 -1.3887  1.8969
17237TIP3   OH273201   0.039   3.983   4.083  0.3351  0.2401 -0.3529
17237TIP3    H173202  -0.018   3.906   4.085 -0.1394  0.5493 -1.3393
17237TIP3    H273203  -0.019   4.057   4.100  0.2482  0.6345 -2.1201
17238TIP3   OH273204   0.431   3.466  15.162 -0.1960  0.7472 -0.0012
17238TIP3    H173205   0.473   3.430  15.240 -0.9550  0.4619  0.2850
17238TIP3    H273206   0.342   3.488  15.190 -0.3518  1.0244 -0.6805
17239TIP3   OH273207   5.467   5.931   4.570  0.8585  0.3517  0.7049
17239TIP3    H173208   5.540   5.953   4.628  1.3138  1.6274 -0.3090
17239TIP3    H273209   5.475   5.993   4.497 -1.0981  0.3622  0.4528
17240TIP3   OH273210   0.774   1.385   4.257  0.0028  0.0640  0.0628
17240TIP3    H173211   0.814   1.381   4.344 -0.8675 -0.5552  0.4588
17240TIP3    H273212   0.746   1.295   4.240  0.0471  0.2072 -0.8048
17241TIP3   OH273213   5.773   3.716  12.390 -0.1275 -0.2589  0.5594
17241TIP3    H173214   5.768   3.676  12.303  0.8679  0.0074  0.3586
17241TIP3    H273215   5.850   3.675  12.430 -0.0216  0.3098  0.9512
17242TIP3   OH273216   3.938   5.837   3.831 -0.6264  0.4042 -0.0272
17242TIP3    H173217   3.849   5.857   3.859 -1.1202 -1.1545 -0.3671
17242TIP3    H273218   3.941   5.741   3.828  1.4621  0.3705  1.2136
17243TIP3   OH273219   3.756   5.683   4.131  0.3058 -0.3196 -0.0567
17243TIP3    H173220   3.671   5.675   4.089 -0.2995 -1.1064  1.2663
17243TIP3    H273221   3.813   5.719   4.062 -0.8669 -0.6005 -1.2221
17244TIP3   OH273222   4.179   5.060   2.865 -0.0436 -0.4800 -0.0264
17244TIP3    H173223   4.160   4.987   2.807 -1.4262  0.1876 -0.4609
17244TIP3    H273224   4.120   5.130   2.836  1.1251  0.7642  0.4699
17245TIP3   OH273225   3.782   2.135   4.102 -0.4784 -0.1036 -0.0368
17245TIP3    H173226   3.780   2.077   4.026 -1.3296 -0.6151  0.3604
17245TIP3    H273227   3.754   2.220   4.068 -2.4413 -0.6936 -0.0350
17246TIP3   OH273228   3.615   6.455   4.116  0.4087  0.0515 -0.3243
17246TIP3    H173229   3.673   6.522   4.080 -0.4528  1.6792  1.1709
17246TIP3    H273230   3.658   6.429   4.198 -0.3040  0.3006  0.1320
17247TIP3   OH273231   1.384   2.223   5.359  0.2977 -0.5403 -0.3895
17247TIP3    H173232   1.333   2.249   5.436  1.2809 -2.1899  0.8761
17247TIP3    H273233   1.386   2.302   5.304 -1.1213  0.4295  0.8753
17248TIP3   OH273234   1.732   5.680   1.002 -0.4673  1.1531 -0.6510
17248TIP3    H173235   1.668   5.675   0.931  0.7604  1.9627 -1.8652
17248TIP3    H273236   1.814   5.706   0.959  1.1376 -1.4735  0.5394
17249TIP3   OH273237   5.889   3.784   3.922  0.5509 -0.5348  0.0059
17249TIP3    H173238   5.868   3.878   3.920  4.0120  0.5948  3.2342
17249TIP3    H273239   5.853   3.753   4.005  1.1317 -1.5538 -0.1084
17250TIP3   OH273240   6.100   5.958   5.561 -0.0139 -0.3639  0.4415
17250TIP3    H173241   6.061   5.885   5.514  1.9840 -0.7830 -0.6816
17250TIP3    H273242   6.054   5.960   5.645 -0.7054 -2.3504  0.1658
17251TIP3   OH273243   1.338   3.966   4.519  0.5252  0.6298  0.4509
17251TIP3    H173244   1.289   3.963   4.601 -0.0823  1.4268  0.1282
17251TIP3    H273245   1.338   4.058   4.495 -0.6741  0.2140 -1.2643
17252TIP3   OH273246   0.816   1.184  13.940  0.3435  0.2809  0.3927
17252TIP3    H173247   0.785   1.148  14.023 -3.2178 -0.3393 -1.0224
17252TIP3    H273248   0.819   1.278  13.954  1.6192  0.0939  1.6853
17253TIP3   OH273249   0.118   0.225   1.659  0.3165  0.5285 -0.4325
17253TIP3    H173250   0.184   0.290   1.634  0.9456 -0.3885 -1.2203
17253TIP3    H273251   0.168   0.147   1.681 -0.4548  0.1768  0.1322
17254TIP3   OH273252   6.753   6.202   0.098 -0.2630  0.1195  0.8708
17254TIP3    H173253   6.675   6.234   0.052  0.7448 -0.2177 -1.2135
17254TIP3    H273254   6.720   6.141   0.163 -1.7485  0.1152  0.1471
17255TIP3   OH273255   4.294   2.891   2.691 -0.2948  0.3112 -0.3585
17255TIP3    H173256   4.382   2.859   2.711 -0.5854  0.4134  1.2459
17255TIP3    H273257   4.237   2.819   2.715 -0.6761  0.3777 -1.0585
17256TIP3   OH273258   6.017   1.561   2.881  0.0531 -0.2788 -0.4178
17256TIP3    H173259   6.040   1.595   2.967 -0.5743  2.3387 -1.2012
17256TIP3    H273260   5.928   1.527   2.891  0.2450 -0.6473  0.0968
17257TIP3   OH273261   1.701   4.245   1.569  0.6436  0.2151 -0.2285
17257TIP3    H173262   1.625   4.295   1.538  1.0604  0.9170 -0.1318
17257TIP3    H273263   1.711   4.272   1.660  0.2743 -0.7921  0.1154
17258TIP3   OH273264   7.163   5.715   5.079  0.0239 -0.2310 -0.6846
17258TIP3    H173265   7.195   5.740   4.992  1.3204  1.4750  0.2119
17258TIP3    H273266   7.217   5.639   5.103 -0.0464 -0.4447 -1.2024
17259TIP3   OH273267   4.264   2.373   4.288  0.5229 -0.4245 -0.1747
17259TIP3    H173268   4.181   2.353   4.332 -1.2675  1.4501 -2.4279
17259TIP3    H273269   4.299   2.287   4.264 -0.7431 -1.2678  0.7987
17260TIP3   OH273270   3.549   0.160   5.018  0.0553  0.5513  0.8112
17260TIP3    H173271   3.548   0.072   4.981 -0.3179  0.7057  0.4515
17260TIP3    H273272   3.498   0.153   5.099  0.3868  0.3453  1.0070
17261TIP3   OH273273   0.625   3.092   0.375 -0.2802 -0.1207  0.0836
17261TIP3    H173274   0.578   3.144   0.441 -0.8274  1.1598 -1.2718
17261TIP3    H273275   0.651   3.013   0.422  0.7853  1.4386  2.3007
17262TIP3   OH273276   1.539   7.180   4.592  0.0446 -0.3008  0.0815
17262TIP3    H173277   1.620   7.226   4.573 -0.2292  0.5072  0.7598
17262TIP3    H273278   1.539   7.171   4.688 -0.4677 -0.6445  0.0535
17263TIP3   OH273279   5.385   6.903   4.751 -0.3066 -0.0583  0.0565
17263TIP3    H173280   5.313   6.842   4.732 -0.5688  1.1621 -3.5334
17263TIP3    H273281   5.342   6.980   4.789 -0.9941  0.6520 -2.0365
17264TIP3   OH273282   4.143   5.332   4.738  0.2323 -0.0378  0.5409
17264TIP3    H173283   4.165   5.259   4.795  0.2235 -0.3996  0.0905
17264TIP3    H273284   4.192   5.315   4.657 -0.3551  0.0506  0.1574
17265TIP3   OH273285   2.813   1.743   0.779 -0.6191  0.0735 -0.1772
17265TIP3    H173286   2.828   1.713   0.689 -4.7134 -1.8626 -0.4280
17265TIP3    H273287   2.734   1.796   0.774 -0.3359  0.8290  2.2068
17266TIP3   OH273288   6.600   5.448   3.206 -0.2660 -0.0787 -0.0388
17266TIP3    H173289   6.670   5.404   3.157  0.4575  1.1673 -0.1544
17266TIP3    H273290   6.617   5.541   3.194 -0.2314  0.2765  2.3144
17267TIP3   OH273291   2.738   1.103   2.299  0.2684  0.0236  0.0009
17267TIP3    H173292   2.824   1.127   2.331 -0.0144 -0.3282  1.0435
17267TIP3    H273293   2.679   1.119   2.372 -0.3157 -1.2650 -0.1592
17268TIP3   OH273294   2.935   5.877   5.067 -0.0060  0.0224  0.6615
17268TIP3    H173295   2.946   5.874   5.162  0.8799  0.7336  0.6032
17268TIP3    H273296   3.024   5.884   5.033 -0.0850 -2.9092 -0.3942
17269TIP3   OH273297   6.047   2.000   4.704  0.3299  0.0021 -0.0359
17269TIP3    H173298   6.119   1.938   4.690  0.2522 -0.2302  0.5877
17269TIP3    H273299   6.090   2.081   4.732  0.2463 -0.9786  3.3616
17270TIP3   OH273300   3.019   2.229   5.339 -0.0533 -0.0548 -0.3767
17270TIP3    H173301   3.063   2.175   5.404  0.2317 -0.5191 -0.9382
17270TIP3    H273302   2.968   2.167   5.287 -1.6539  0.5084  0.4615
17271TIP3   OH273303   0.349   6.674   3.836  0.5163 -0.2658  0.1640
17271TIP3    H173304   0.374   6.673   3.743 -1.2388 -2.4038 -0.3824
17271TIP3    H273305   0.420   6.721   3.880  0.6514  2.2179 -2.4339
17272TIP3   OH273306   6.607   4.670   3.787  0.1214  0.6161  0.3787
17272TIP3    H173307   6.523   4.692   3.748 -0.4277  0.0513  1.2179
17272TIP3    H273308   6.645   4.754   3.813 -1.3498  0.7428  2.3417
17273TIP3   OH273309   6.579   3.522   5.102 -0.0506 -0.0144  0.2412
17273TIP3    H173310   6.642   3.586   5.136 -0.4357  0.9061 -0.7024
17273TIP3    H273311   6.521   3.574   5.045 -0.2819 -1.2339 -0.6764
17274TIP3   OH273312   1.048   4.536   3.338 -0.3955 -0.6653 -0.1978
17274TIP3    H173313   1.070   4.625   3.364  0.4614 -0.6680 -0.8549
17274TIP3    H273314   1.114   4.481   3.380 -0.2927 -0.8783 -0.6319
17275TIP3   OH273315   5.387   0.703   0.160  0.3070  0.6944  0.3672
17275TIP3    H173316   5.347   0.775   0.112  0.8641  0.1409 -0.9768
17275TIP3    H273317   5.481   0.721   0.156  0.5771 -0.7699 -1.1891
17276TIP3   OH273318   5.695   1.423   1.821 -0.0323  0.0389 -0.4950
17276TIP3    H173319   5.765   1.361   1.842 -0.2839 -0.2580 -0.5414
17276TIP3    H273320   5.740   1.495   1.776  0.1325 -0.5184 -1.2354
17277TIP3   OH273321   6.502   6.805   5.057 -0.2084 -0.9573 -0.0617
17277TIP3    H173322   6.527   6.842   4.972  1.0798  0.5886  0.9454
17277TIP3    H273323   6.585   6.773   5.094 -0.3988  0.2057  1.4450
17278TIP3   OH273324   2.628   5.283   4.415 -0.4710 -0.1792 -0.3736
17278TIP3    H173325   2.691   5.285   4.486 -0.1220 -2.3619 -0.5724
17278TIP3    H273326   2.679   5.258   4.338 -0.9242  1.6977 -1.3478
17279TIP3   OH273327   4.736   1.592   0.241  0.3715 -0.0375 -0.2155
17279TIP3    H173328   4.784   1.570   0.161  1.2978  0.2595  0.2342
17279TIP3    H273329   4.644   1.581   0.218  0.6883 -1.8468 -0.7570
17280TIP3   OH273330   2.851   3.303   1.216 -0.1034 -0.3017  0.2785
17280TIP3    H173331   2.814   3.218   1.192  0.2292  0.0312 -1.5258
17280TIP3    H273332   2.782   3.344   1.269 -0.4283 -1.5055  0.8455
17281TIP3   OH273333   5.855   0.723   3.655  1.0094  0.0614 -0.6206
17281TIP3    H173334   5.945   0.725   3.620  1.1665 -0.4130 -0.2610
17281TIP3    H273335   5.800   0.752   3.582  1.2858 -1.3413 -1.4271
17282TIP3   OH273336   3.534   2.159   4.292 -0.2102 -0.5005 -0.3516
17282TIP3    H173337   3.598   2.123   4.230 -0.5672  0.3409 -1.2251
17282TIP3    H273338   3.450   2.129   4.259 -0.4596  0.5425 -0.7055
17283TIP3   OH273339   4.472   2.077   4.075  0.4719  0.1755  0.0537
17283TIP3    H173340   4.461   2.099   4.167  1.0738 -1.6575  0.6057
17283TIP3    H273341   4.490   1.983   4.074 -3.2716 -0.7501 -2.1968
17284TIP3   OH273342   5.628   3.927   5.467  0.2770 -0.1638 -0.2571
17284TIP3    H173343   5.557   3.928   5.532  0.0879 -0.5404 -0.4552
17284TIP3    H273344   5.703   3.966   5.513 -0.4490  1.6404 -0.5030
17285TIP3   OH273345   0.396   4.572   1.647  0.6531  0.5920 -0.6539
17285TIP3    H173346   0.422   4.601   1.735  0.6200 -3.1804  0.7915
17285TIP3    H273347   0.323   4.512   1.663 -0.2838  0.8746 -3.4544
17286TIP3   OH273348   2.052   0.393   3.207 -0.2872 -0.3001  0.5001
17286TIP3    H173349   2.031   0.371   3.117 -0.0645 -0.4030  0.4713
17286TIP3    H273350   1.994   0.466   3.229 -0.9259 -0.8204  0.5442
17287TIP3   OH273351   2.196   3.944   4.379 -0.0603 -0.0253 -0.0675
17287TIP3    H173352   2.235   4.031   4.393  1.5962 -0.8332  0.6429
17287TIP3    H273353   2.106   3.953   4.410  0.1016  1.4142  0.0755
17288TIP3   OH273354   0.006   4.415   1.405 -0.1519 -0.2768  1.0744
17288TIP3    H173355   0.054   4.332   1.404  0.9681  0.3480  0.8086
17288TIP3    H273356   0.072   4.481   1.380 -1.0468  0.6722  1.1522
17289TIP3   OH273357   2.829   2.863   5.875  0.0741 -0.0390 -0.0828
17289TIP3    H173358   2.855   2.779   5.913  0.4557  0.1193  0.0058
17289TIP3    H273359   2.893   2.925   5.909 -0.9931  0.5398  0.9692
17290TIP3   OH273360   3.769   3.074   5.411 -0.2325 -0.1689  0.1794
17290TIP3    H173361   3.805   3.095   5.497  1.2216  2.0140 -0.8543
17290TIP3    H273362   3.833   3.014   5.372  0.4126  0.7558 -0.2398
17291TIP3   OH273363   0.448   0.018   3.076  0.1394 -0.4882 -0.3747
17291TIP3    H173364   0.353   0.005   3.072  0.1628 -0.8492  0.1687
17291TIP3    H273365   0.459   0.091   3.137  0.2119 -0.4329 -0.4539
17292TIP3   OH273366   4.117   4.226   0.954 -0.0198 -0.0235 -0.2804
17292TIP3    H173367   4.048   4.246   0.891 -1.0454 -0.5808  0.6420
17292TIP3    H273368   4.071   4.211   1.036  1.2360 -0.0690  0.4336
17293TIP3   OH273369   0.918   4.229   3.684 -0.2002  0.0553  0.4688
17293TIP3    H173370   0.893   4.306   3.631  0.9400 -0.3829 -0.7647
17293TIP3    H273371   0.931   4.264   3.772  2.1167  1.6792 -0.4354
17294TIP3   OH273372   3.192   4.860   3.978 -0.3060  0.0609  0.5307
17294TIP3    H173373   3.233   4.776   3.997 -0.6141  0.3490  2.6793
17294TIP3    H273374   3.102   4.851   4.007 -0.9828  0.4562 -1.2841
17295TIP3   OH273375   2.593   3.845   3.880  0.3799 -0.7277  0.5275
17295TIP3    H173376   2.564   3.770   3.932 -0.8576 -0.3084  0.4865
17295TIP3    H273377   2.576   3.921   3.936  0.4621 -0.3872  0.0970
17296TIP3   OH273378   4.689   3.907  15.141  0.0051  0.7813  0.2971
17296TIP3    H173379   4.633   3.959  15.199 -2.2749 -3.0197  1.8202
17296TIP3    H273380   4.767   3.888  15.193 -0.3945  0.3794  0.7450
17297TIP3   OH273381   3.464   5.092   3.152 -0.0498  0.5220 -0.6644
17297TIP3    H173382   3.431   5.142   3.077 -0.0823  0.5998 -0.5996
17297TIP3    H273383   3.389   5.085   3.211  0.4876  2.2928  0.3282
17298TIP3   OH273384   6.852   5.713   5.003  0.4872 -0.7605  0.1198
17298TIP3    H173385   6.914   5.718   4.930 -0.2011 -2.2593 -0.5952
17298TIP3    H273386   6.901   5.669   5.072  1.3145  1.1207  0.8137
17299TIP3   OH273387   4.300   5.883   3.808 -0.2464 -0.0325  0.1248
17299TIP3    H173388   4.276   5.944   3.737  1.0509  1.0247  0.5492
17299TIP3    H273389   4.245   5.911   3.881  1.0304  1.3345  0.6162
17300TIP3   OH273390   3.398   2.386   3.934  0.1290  0.3301  0.1987
17300TIP3    H173391   3.406   2.433   3.851 -0.0867  0.6979  0.3822
17300TIP3    H273392   3.402   2.293   3.909  3.2865  0.3761  0.0838
17301TIP3   OH273393   3.477   3.878  12.303 -0.0045  0.2721  0.0054
17301TIP3    H173394   3.492   3.841  12.216 -0.2282 -3.1908  1.2791
17301TIP3    H273395   3.395   3.925  12.295 -0.1142 -0.1319 -1.6255
17302TIP3   OH273396   0.711   5.049  14.730  0.4235 -0.4048  0.3185
17302TIP3    H173397   0.619   5.047  14.705  0.5352  1.9903 -0.5639
17302TIP3    H273398   0.758   5.045  14.646  1.1226 -1.2237  0.7358
17303TIP3   OH273399   4.503   2.276   3.074 -0.0274  0.6026 -0.1708
17303TIP3    H173400   4.503   2.359   3.026  0.1938  0.5381 -0.2856
17303TIP3    H273401   4.411   2.252   3.081 -0.3733  2.2393  2.2746
17304TIP3   OH273402   7.036   5.933   5.201  0.4619 -0.0776 -0.3744
17304TIP3    H173403   7.071   5.853   5.163 -1.3071 -0.8125 -0.5427
17304TIP3    H273404   6.964   5.958   5.143 -0.1635  0.6238  0.6675
17305TIP3   OH273405   6.783   3.345   6.034 -0.5414 -0.7132  0.1638
17305TIP3    H173406   6.761   3.347   5.940  0.3437  0.5532 -0.0425
17305TIP3    H273407   6.699   3.358   6.078 -0.8214 -0.2606 -0.4871
17306TIP3   OH273408   5.220   1.238   4.142 -0.1732 -0.0598 -1.0968
17306TIP3    H173409   5.191   1.194   4.063 -1.8612 -0.2666 -0.4027
17306TIP3    H273410   5.186   1.185   4.214 -3.1793  2.7102 -0.1958
17307TIP3   OH273411   3.013   4.691   1.246  0.5421  0.1527 -0.4334
17307TIP3    H173412   3.072   4.762   1.268 -0.2754  0.4372  0.9674
17307TIP3    H273413   3.028   4.625   1.314 -0.9740  0.3821  0.1571
17308TIP3   OH273414   2.873   1.964   3.163  0.3889 -0.0749 -0.1103
17308TIP3    H173415   2.837   2.030   3.104  2.2582 -0.4027 -1.7529
17308TIP3    H273416   2.831   1.980   3.247 -2.2746  0.5324 -1.4686
17309TIP3   OH273417   3.136   2.182   5.006  1.2970  0.0514  0.7806
17309TIP3    H173418   3.194   2.178   5.081  0.6434  0.2067  1.3066
17309TIP3    H273419   3.131   2.092   4.974  1.4856 -0.0367  1.0010
17310TIP3   OH273420   3.225   6.495   0.917 -0.0528  0.3414  0.2398
17310TIP3    H173421   3.180   6.579   0.926 -0.2759  0.2840 -0.2927
17310TIP3    H273422   3.227   6.479   0.822  0.1689 -0.1541  0.3250
17311TIP3   OH273423   6.144   6.148   4.982  0.1230 -0.1080 -0.0734
17311TIP3    H173424   6.199   6.078   4.947  1.3473  1.1123 -0.6827
17311TIP3    H273425   6.176   6.162   5.070  0.4745  0.2904 -0.2654
17312TIP3   OH273426   7.046   3.800   4.851  0.0074 -0.3352  0.1319
17312TIP3    H173427   6.956   3.766   4.852 -0.0915 -0.0801  0.1082
17312TIP3    H273428   7.097   3.733   4.807 -0.3145 -0.1355 -0.5499
17313TIP3   OH273429   7.183   1.058   1.359 -0.2035  0.3654 -0.0486
17313TIP3    H173430   7.223   1.140   1.389  0.7601 -0.0074 -0.2604
17313TIP3    H273431   7.175   1.004   1.437 -1.9572  1.0781  0.3126
17314TIP3   OH273432   2.513   2.331   1.994 -0.1776  0.2468  0.5349
17314TIP3    H173433   2.536   2.295   2.080 -1.5266 -0.1707  0.7441
17314TIP3    H273434   2.503   2.254   1.938 -4.0211  0.0773  1.2105
17315TIP3   OH273435   1.496   4.270   2.510 -0.1783 -0.6734 -0.6710
17315TIP3    H173436   1.552   4.202   2.546 -0.4960  0.9717  3.5369
17315TIP3    H273437   1.407   4.235   2.520 -0.2217 -0.8592 -1.5880
17316TIP3   OH273438   0.705   0.475   5.710  1.1514  0.3410  0.2897
17316TIP3    H173439   0.752   0.514   5.783  1.2026  0.6303  0.1053
17316TIP3    H273440   0.698   0.382   5.732  0.5983  0.5354  0.9641
17317TIP3   OH273441   1.376   5.435   5.355 -0.2799  0.5144  0.0585
17317TIP3    H173442   1.404   5.522   5.326  2.4205 -0.7667 -1.5713
17317TIP3    H273443   1.433   5.414   5.428 -1.1401  0.2119  0.6591
17318TIP3   OH273444   4.555   0.299   0.963  0.0553  0.4053 -0.1466
17318TIP3    H173445   4.602   0.236   0.909 -0.2205  0.2040 -0.1529
17318TIP3    H273446   4.610   0.377   0.962 -0.4848  0.7895 -1.6285
17319TIP3   OH273447   3.761   6.329   5.471 -0.0311  0.0769  0.3355
17319TIP3    H173448   3.840   6.307   5.422 -1.0642 -0.7776 -1.0238
17319TIP3    H273449   3.736   6.416   5.440 -1.9861 -1.3673 -2.5913
17320TIP3   OH273450   0.031   4.167   1.521  0.8717  0.5166  0.5463
17320TIP3    H173451  -0.065   4.159   1.514  0.7946  0.9792  1.0340
17320TIP3    H273452   0.049   4.158   1.614  1.1680  1.8020  0.6223
17321TIP3   OH273453   4.595   2.466  15.287 -0.1237  0.7568 -0.9354
17321TIP3    H173454   4.548   2.470  15.370  0.4609  1.7084 -0.6325
17321TIP3    H273455   4.542   2.409  15.232  0.0230 -0.8082  0.4385
17322TIP3   OH273456   3.677   4.622   4.178  0.0230  0.0053 -0.1673
17322TIP3    H173457   3.636   4.619   4.264  1.7114 -0.8733  0.6525
17322TIP3    H273458   3.636   4.549   4.130  1.1340 -1.3822  0.9113
17323TIP3   OH273459   1.159   5.637   0.535 -0.0902 -0.4531  0.5807
17323TIP3    H173460   1.238   5.657   0.484 -0.1136  2.6584  1.5166
17323TIP3    H273461   1.089   5.637   0.470  0.2500  0.5738  0.1743
17324TIP3   OH273462   5.286   2.716  14.076  0.2869 -0.3440 -0.4255
17324TIP3    H173463   5.338   2.794  14.096  0.3325  0.0358 -1.9066
17324TIP3    H273464   5.331   2.645  14.121  0.5776  0.3943  0.4607
17325TIP3   OH273465   0.815   3.425   5.010 -0.0696 -0.2460 -0.3894
17325TIP3    H173466   0.803   3.482   4.934 -0.9509 -0.7998 -0.6737
17325TIP3    H273467   0.790   3.479   5.085 -1.1545 -0.3308 -0.6806
17326TIP3   OH273468   3.993   7.152   4.085 -0.6524 -0.2965  0.7233
17326TIP3    H173469   4.038   7.208   4.148 -1.6846  0.7103  0.6055
17326TIP3    H273470   3.964   7.211   4.016  1.1508 -1.4915 -1.1590
17327TIP3   OH273471   0.076   2.774   0.588 -0.6235 -0.4401  0.0430
17327TIP3    H173472  -0.004   2.802   0.632 -1.4786 -1.5112 -0.7985
17327TIP3    H273473   0.140   2.764   0.659 -1.3554  0.0077  0.7728
17328TIP3   OH273474   1.280   3.492   3.847  0.1635  0.7478 -0.0564
17328TIP3    H173475   1.227   3.568   3.870 -0.6980  0.6009 -1.4447
17328TIP3    H273476   1.337   3.522   3.777  1.3963  0.6818  0.8739
17329TIP3   OH273477   0.584   5.156  10.655 -0.5106  0.2184  0.4640
17329TIP3    H173478   0.530   5.128  10.581  2.0360  1.4438 -2.0856
17329TIP3    H273479   0.664   5.103  10.647  0.1365  0.9213  1.8867
17330TIP3   OH273480   3.742   0.618   2.779  0.1836 -0.1683 -0.7349
17330TIP3    H173481   3.803   0.547   2.796  0.4221 -0.1593 -1.4903
17330TIP3    H273482   3.787   0.673   2.715 -0.3556  0.1839 -0.8184
17331TIP3   OH273483   3.714   5.136  15.275 -0.1133 -0.6427 -0.3051
17331TIP3    H173484   3.780   5.199  15.245 -0.7320 -0.5266 -1.4868
17331TIP3    H273485   3.709   5.072  15.204 -0.3778 -1.3490  0.3385
17332TIP3   OH273486   5.414   4.245   0.450  0.1783  0.3315 -0.0287
17332TIP3    H173487   5.503   4.249   0.415  1.4796 -0.7172  2.8131
17332TIP3    H273488   5.358   4.273   0.378  2.8117  1.2863 -1.8462
17333TIP3   OH273489   1.313   6.955   1.116 -0.4783 -0.8435 -0.6764
17333TIP3    H173490   1.290   6.983   1.204  1.4584  2.9397 -1.1447
17333TIP3    H273491   1.396   6.909   1.126 -1.3877 -2.4619 -0.3528
17334TIP3   OH273492   4.459   6.828   5.007 -0.5004 -0.3820 -0.2698
17334TIP3    H173493   4.389   6.891   4.986  0.7659  0.6963 -1.4566
17334TIP3    H273494   4.449   6.812   5.100 -0.4529  2.1701  0.2489
17335TIP3   OH273495   4.647   3.888   3.538 -0.4844  0.0569  0.5851
17335TIP3    H173496   4.654   3.813   3.479 -0.2463  1.3141 -1.0746
17335TIP3    H273497   4.553   3.902   3.548 -0.5400  0.5402 -0.4817
17336TIP3   OH273498   4.562   1.836   4.047 -0.3916 -0.0205  0.2344
17336TIP3    H173499   4.599   1.750   4.026 -1.9380 -0.5258 -0.6003
17336TIP3    H273500   4.543   1.831   4.141  0.4974 -0.1846  0.4197
17337TIP3   OH273501   3.281   5.905   1.638 -0.4103 -0.4378  0.5523
17337TIP3    H173502   3.314   5.958   1.710  1.4097  0.5259 -0.9061
17337TIP3    H273503   3.225   5.965   1.588 -0.2043 -0.5556  0.1734
17338TIP3   OH273504   3.515   5.878  12.538 -0.1647  0.2687 -0.9761
17338TIP3    H173505   3.450   5.947  12.522 -1.9103 -0.6070  1.6195
17338TIP3    H273506   3.471   5.797  12.509 -0.2705 -0.3210  0.7006
17339TIP3   OH273507   0.312   3.222  14.221 -0.0601  0.6194  0.2054
17339TIP3    H173508   0.395   3.173  14.222  0.6645  1.7644 -0.7085
17339TIP3    H273509   0.245   3.155  14.205  0.7816 -0.2140  0.0727
17340TIP3   OH273510   3.045   4.476   1.490  0.2805 -0.2350 -0.1183
17340TIP3    H173511   3.119   4.443   1.540 -2.2093 -0.7635  3.6408
17340TIP3    H273512   3.020   4.403   1.433  2.4063 -0.1027 -1.3183
17341TIP3   OH273513   2.061   5.704   1.550  0.2155 -0.0899  0.3739
17341TIP3    H173514   2.132   5.648   1.582  0.2459  0.3001  0.9993
17341TIP3    H273515   2.074   5.787   1.595  0.0100  0.3337 -0.3453
17342TIP3   OH273516   2.005   0.445   4.691 -0.0688 -0.3697 -0.6443
17342TIP3    H173517   1.968   0.395   4.764 -0.6811 -2.1629 -2.1002
17342TIP3    H273518   2.100   0.443   4.706 -0.2467  0.1775  0.6218
17343TIP3   OH273519   0.615   6.864   3.918 -0.1675  0.3649 -0.3578
17343TIP3    H173520   0.618   6.960   3.925  0.2610  0.2512  1.6132
17343TIP3    H273521   0.651   6.845   3.832  0.0694  1.9650 -0.6417
17344TIP3   OH273522   2.618   3.173   3.882 -0.1827 -0.4634 -0.1045
17344TIP3    H173523   2.588   3.262   3.866  0.5464 -0.1226  0.3765
17344TIP3    H273524   2.546   3.117   3.852 -0.5940  0.2804 -0.5151
17345TIP3   OH273525   3.484   6.399   5.298 -0.0958 -0.4520 -0.3174
17345TIP3    H173526   3.512   6.309   5.317 -0.6820 -0.8849 -1.4308
17345TIP3    H273527   3.551   6.453   5.339 -0.7983 -1.3153  2.1757
17346TIP3   OH273528   0.581   6.513   3.797  0.5382  0.3806 -0.0696
17346TIP3    H173529   0.598   6.425   3.761  0.8230  0.9311 -1.3508
17346TIP3    H273530   0.511   6.500   3.860  0.7886 -0.8253 -0.0150
17347TIP3   OH273531   3.085   3.248   2.016 -0.4842 -0.4249 -0.0016
17347TIP3    H173532   3.124   3.197   2.087  0.2656  0.5336  0.2940
17347TIP3    H273533   3.071   3.185   1.945  0.9370 -0.9328  0.1523
17348TIP3   OH273534   2.814   2.240   4.371 -0.1692  0.4376 -0.4733
17348TIP3    H173535   2.886   2.291   4.408  0.6841 -0.5433 -0.7199
17348TIP3    H273536   2.769   2.204   4.448  1.1804 -1.0249 -0.3134
17349TIP3   OH273537   0.962   2.627   2.424 -0.4536  0.6089  1.6806
17349TIP3    H173538   0.909   2.706   2.430 -2.0695 -0.4652  2.6181
17349TIP3    H273539   0.964   2.606   2.331 -2.9719 -0.0629  1.6935
17350TIP3   OH273540   4.292   3.391   5.812  0.5525 -0.0884 -0.4075
17350TIP3    H173541   4.359   3.400   5.745  0.7318 -0.1545 -0.2364
17350TIP3    H273542   4.333   3.425   5.892 -0.0852  1.2213 -0.5999
17351TIP3   OH273543   2.161   2.765   2.670  0.2920  0.6060 -0.0006
17351TIP3    H173544   2.087   2.705   2.666  0.3761  0.5042 -0.0174
17351TIP3    H273545   2.123   2.851   2.650  0.1842  0.5495 -0.0384
17352TIP3   OH273546   5.365   2.304   0.419  0.2619  0.2810 -0.1122
17352TIP3    H173547   5.441   2.325   0.363  0.1500  1.6201  0.2188
17352TIP3    H273548   5.294   2.358   0.384  0.3226  1.5565  1.6225
17353TIP3   OH273549   0.050   2.480   3.639 -0.3516  0.0514  0.0365
17353TIP3    H173550   0.060   2.399   3.689 -0.6788  0.1358  0.2402
17353TIP3    H273551   0.023   2.546   3.704 -1.4796  0.0003 -0.3662
17354TIP3   OH273552   5.830   7.130   0.080 -0.2382 -0.2391  0.1471
17354TIP3    H173553   5.819   7.059   0.018 -0.5568  0.7298 -0.9437
17354TIP3    H273554   5.922   7.153   0.075 -0.3907  0.2569 -0.4501
17355TIP3   OH273555   5.337   0.684   4.504  0.0126  0.1080 -0.5805
17355TIP3    H173556   5.344   0.723   4.591  0.9038 -1.8465  0.2948
17355TIP3    H273557   5.408   0.724   4.454  0.4406  0.1844  0.0627
17356TIP3   OH273558   6.231   2.800   4.024  0.1626 -0.0860  0.3312
17356TIP3    H173559   6.292   2.802   4.098 -0.1077 -0.2124  0.5635
17356TIP3    H273560   6.202   2.709   4.019 -0.7356  0.1563  0.8473
17357TIP3   OH273561   3.883   5.291   4.605 -0.0586  0.1848  0.4080
17357TIP3    H173562   3.852   5.202   4.618 -0.8546  0.4288  0.2509
17357TIP3    H273563   3.956   5.301   4.665  2.0031 -1.5281 -1.6386
17358TIP3   OH273564   1.574   3.667   1.761 -0.3180  0.3610  0.3553
17358TIP3    H173565   1.553   3.751   1.719 -0.3602 -0.1809 -0.7272
17358TIP3    H273566   1.495   3.614   1.750  0.3303 -0.4382 -0.5611
17359TIP3   OH273567   5.505   0.675   1.052  0.1339 -0.2045 -0.9331
17359TIP3    H173568   5.476   0.732   1.123  0.0307  1.2939 -2.1455
17359TIP3    H273569   5.424   0.640   1.014  0.1934 -1.1294 -0.2570
17360TIP3   OH273570   2.354   6.901   1.819  0.5863  0.1694 -0.1647
17360TIP3    H173571   2.389   6.878   1.906  0.5487  3.3814  0.8373
17360TIP3    H273572   2.397   6.985   1.798 -1.3446  0.7632 -2.0615
17361TIP3   OH273573   4.811   3.461   1.642  0.0242 -0.3612 -0.2614
17361TIP3    H173574   4.862   3.483   1.720  0.8429  1.5910 -1.2585
17361TIP3    H273575   4.859   3.501   1.570 -0.3116 -2.7319 -1.9162
17362TIP3   OH273576   5.709   3.933   3.094 -0.9340 -0.1705 -0.1766
17362TIP3    H173577   5.696   3.969   3.181  0.0855 -1.8812  0.7530
17362TIP3    H273578   5.747   3.846   3.109  0.7374  0.0654 -2.3441
17363TIP3   OH273579   0.428   2.478   0.399  0.5725 -0.6845  0.6607
17363TIP3    H173580   0.461   2.504   0.485 -0.4439  1.8580  0.3607
17363TIP3    H273581   0.423   2.560   0.350 -0.7722 -1.7957 -1.1626
17364TIP3   OH273582   6.226   2.446   2.133 -0.2787 -0.3520  0.3467
17364TIP3    H173583   6.318   2.441   2.161  0.2224  4.1423  0.1707
17364TIP3    H273584   6.229   2.428   2.039  0.6769  0.8950  0.1109
17365TIP3   OH273585   1.988   1.909   3.154 -0.6522  0.0726 -0.1170
17365TIP3    H173586   1.923   1.853   3.196  0.0883  0.1679  1.2070
17365TIP3    H273587   2.071   1.861   3.163  0.3060  2.0028  2.4898
17366TIP3   OH273588   2.405   3.741   2.322  0.1169  0.3900  0.8615
17366TIP3    H173589   2.321   3.761   2.280  0.8540 -0.2087 -0.9654
17366TIP3    H273590   2.442   3.827   2.343  1.8934  1.1787 -4.2008
17367TIP3   OH273591   0.598   1.729  13.569  0.2196  0.2082  0.0642
17367TIP3    H173592   0.612   1.650  13.517 -0.9547 -0.4245  0.6462
17367TIP3    H273593   0.508   1.755  13.548 -0.8160 -0.8497  2.6944
17368TIP3   OH273594   5.566   6.785   3.201  1.0635 -0.1454  0.3270
17368TIP3    H173595   5.532   6.753   3.284 -0.0063  1.6471  0.6163
17368TIP3    H273596   5.659   6.761   3.202  0.8715 -0.8753  1.6557
17369TIP3   OH273597   1.549   6.419   3.745  0.2079 -0.1402 -0.4557
17369TIP3    H173598   1.518   6.336   3.780 -0.1532  0.4237  0.6075
17369TIP3    H273599   1.535   6.412   3.650 -0.3020 -1.0789 -0.3253
17370TIP3   OH273600   2.771   0.722   2.801 -0.2534 -0.2069 -0.0857
17370TIP3    H173601   2.754   0.769   2.883 -1.1282 -0.0427 -0.3452
17370TIP3    H273602   2.854   0.677   2.816 -0.0453  0.3860  0.6348
17371TIP3   OH273603   0.372   1.344   4.654  0.6040 -0.1700 -0.3525
17371TIP3    H173604   0.408   1.370   4.739  0.8645 -0.8088 -0.2594
17371TIP3    H273605   0.279   1.328   4.671  0.6183 -0.1249 -0.2292
17372TIP3   OH273606   5.540   3.747  11.715  0.0987 -0.0244  0.1501
17372TIP3    H173607   5.557   3.778  11.803  0.6141 -0.3682  0.1699
17372TIP3    H273608   5.446   3.761  11.703  0.1419  0.6158  0.5181
17373TIP3   OH273609   5.796   6.662   0.991  0.0929 -0.0791 -0.5864
17373TIP3    H173610   5.849   6.685   1.068  0.1167 -0.0884 -0.5999
17373TIP3    H273611   5.843   6.588   0.952 -0.5836 -0.8985  0.0983
17374TIP3   OH273612   5.360   5.805   5.758  0.3831 -0.5617 -0.2677
17374TIP3    H173613   5.444   5.843   5.732 -0.0995  0.7597  0.0331
17374TIP3    H273614   5.382   5.717   5.790  1.5550 -0.4778 -0.7941
17375TIP3   OH273615   5.171   0.064   4.578  0.2688 -0.0338  0.1341
17375TIP3    H173616   5.247   0.008   4.595  0.2564 -0.5874 -1.5079
17375TIP3    H273617   5.201   0.152   4.599  0.5855 -0.5080  1.8485
17376TIP3   OH273618   6.301   3.444   5.001  0.2457 -0.0263  0.2087
17376TIP3    H173619   6.378   3.424   5.055 -0.7633  1.2109  2.2217
17376TIP3    H273620   6.239   3.375   5.023  0.2205 -0.1627 -0.2709
17377TIP3   OH273621   2.657   6.447  14.178  0.3886  0.3282  0.2153
17377TIP3    H173622   2.614   6.530  14.156  1.4557  0.7081 -0.5235
17377TIP3    H273623   2.592   6.399  14.228  0.5343  2.6487  2.9563
17378TIP3   OH273624   3.390   4.428   3.321 -0.2652 -0.5094  0.0157
17378TIP3    H173625   3.445   4.499   3.289 -1.1080  0.8308  1.4120
17378TIP3    H273626   3.420   4.351   3.274  0.9321  0.6978 -1.2696
17379TIP3   OH273627   4.149   0.511  14.581 -0.1246 -0.1600 -0.2698
17379TIP3    H173628   4.210   0.578  14.613 -1.3198  1.0769 -0.4818
17379TIP3    H273629   4.067   0.559  14.566 -1.3174 -1.8773  0.5348
17380TIP3   OH273630   5.950   2.133   1.559 -0.1209  0.1459  0.0506
17380TIP3    H173631   5.863   2.110   1.527  0.3406 -0.5160 -0.7700
17380TIP3    H273632   5.936   2.158   1.650 -0.9301 -1.7219  0.4946
17381TIP3   OH273633   5.010   2.960   0.478 -0.3416 -0.5246 -0.2275
17381TIP3    H173634   4.957   2.972   0.557 -2.6486  0.3907 -1.8340
17381TIP3    H273635   5.097   2.990   0.504 -1.1128  0.1352  1.8541
17382TIP3   OH273636   2.077   2.078  13.299 -0.1425  0.2042  0.0564
17382TIP3    H173637   2.053   2.170  13.290  2.2423  1.0094  1.1237
17382TIP3    H273638   2.146   2.077  13.365  0.8488 -2.1760 -0.8849
17383TIP3   OH273639   2.869   3.209   4.721  0.1408  0.3652  0.6799
17383TIP3    H173640   2.799   3.270   4.698  0.1636  0.1601  0.0472
17383TIP3    H273641   2.910   3.248   4.798 -0.6672  0.4851  1.0603
17384TIP3   OH273642   5.895   2.052   3.911 -0.1144  0.7255  0.2838
17384TIP3    H173643   5.886   1.957   3.899  2.9611  0.2292  1.2213
17384TIP3    H273644   5.840   2.071   3.987 -0.9200 -0.2367 -0.0242
17385TIP3   OH273645   2.348   4.682   3.403  0.2308  0.1312  0.0124
17385TIP3    H173646   2.311   4.688   3.491  0.5724 -0.3644  0.1928
17385TIP3    H273647   2.273   4.662   3.346  0.3676 -1.9688  0.5207
17386TIP3   OH273648   1.206   3.454   6.017  0.3126  0.6177  0.3014
17386TIP3    H173649   1.288   3.498   6.038  1.6647 -1.3213 -0.5349
17386TIP3    H273650   1.212   3.438   5.922 -0.7948  0.0175  0.3185
17387TIP3   OH273651   7.146   4.661   1.092 -0.4607  0.5378  0.0808
17387TIP3    H173652   7.119   4.685   1.003  0.1918 -1.5162 -0.7426
17387TIP3    H273653   7.105   4.576   1.107  0.1381  0.4690  1.4186
17388TIP3   OH273654   1.538   4.329   3.799 -0.8116 -0.0556 -0.4983
17388TIP3    H173655   1.535   4.422   3.776 -2.4840 -0.4335 -2.0283
17388TIP3    H273656   1.586   4.327   3.882  1.3949  1.8849 -1.6124
17389TIP3   OH273657   3.021   2.806   3.975  0.4046  0.5266 -0.4893
17389TIP3    H173658   3.012   2.834   4.066 -0.4341  0.9976 -0.7062
17389TIP3    H273659   2.931   2.804   3.942  0.5614 -1.0603 -0.8920
17390TIP3   OH273660   6.375   4.996   4.592  0.3211 -0.1617 -0.5700
17390TIP3    H173661   6.430   4.949   4.529  0.4255 -1.1993  0.2793
17390TIP3    H273662   6.422   5.077   4.608  1.1112 -0.6017 -0.6006
17391TIP3   OH273663   1.033   2.655  13.261 -0.1395  0.1429 -0.2423
17391TIP3    H173664   0.970   2.698  13.321 -0.7359  1.2477 -1.6019
17391TIP3    H273665   1.057   2.575  13.306 -0.5581  0.9356  1.4976
17392TIP3   OH273666   2.965   2.116  13.445  0.1719 -0.2423  0.2416
17392TIP3    H173667   3.030   2.088  13.509  1.5708  0.4217 -0.8130
17392TIP3    H273668   2.930   2.034  13.409 -0.5450 -0.6127  1.7348
17393TIP3   OH273669   7.002   3.236   3.088 -0.5217  0.6890 -0.0514
17393TIP3    H173670   7.006   3.180   3.011  0.1612  1.2452 -0.4235
17393TIP3    H273671   7.080   3.214   3.138 -1.4583 -0.4026  1.0221
17394TIP3   OH273672   1.582   6.722   4.282  0.1532  0.6610 -0.7990
17394TIP3    H173673   1.628   6.737   4.364  1.5312  0.4165 -1.5012
17394TIP3    H273674   1.589   6.806   4.235 -2.2306  1.4210  0.0401
17395TIP3   OH273675   6.589   5.987   2.486  0.2212  0.3410  0.0888
17395TIP3    H173676   6.513   5.933   2.511 -0.2351  0.2826 -1.3102
17395TIP3    H273677   6.618   5.949   2.403  0.5473  1.5939 -0.3836
17396TIP3   OH273678   5.632   3.938  13.843 -0.6283 -0.2914 -0.0240
17396TIP3    H173679   5.721   3.929  13.878 -0.3367  0.3384 -0.5759
17396TIP3    H273680   5.621   4.032  13.830 -1.2265 -0.4000 -0.3357
17397TIP3   OH273681   1.805   6.858  12.010  0.0125 -0.5393 -0.0537
17397TIP3    H173682   1.728   6.805  12.027 -1.1968  1.5732  1.5016
17397TIP3    H273683   1.878   6.806  12.043 -1.0451 -1.4867  0.8681
17398TIP3   OH273684   6.449   1.214   3.166  0.5113 -0.1849  0.1644
17398TIP3    H173685   6.386   1.276   3.129  0.7468  0.6484  1.1230
17398TIP3    H273686   6.395   1.148   3.210  0.2755 -0.3046 -0.3037
17399TIP3   OH273687   3.339   0.481  14.473 -0.5434 -0.5628 -0.3478
17399TIP3    H173688   3.294   0.424  14.535 -1.3645  0.3874 -0.0490
17399TIP3    H273689   3.361   0.559  14.523  0.3842 -0.5132 -0.8083
17400TIP3   OH273690   4.232   1.709   5.773 -0.4706  0.2545 -0.2542
17400TIP3    H173691   4.169   1.663   5.828 -0.4893 -2.0613 -2.0500
17400TIP3    H273692   4.178   1.762   5.714 -0.8473 -1.8345 -1.8858
17401TIP3   OH273693   3.319   2.597   4.257  0.3935  0.3196 -0.1010
17401TIP3    H173694   3.321   2.634   4.169 -0.5583 -0.0498 -0.2887
17401TIP3    H273695   3.274   2.662   4.310 -0.1515 -0.0020 -0.1617
17402TIP3   OH273696   4.235   6.902  15.286  0.0617 -1.0460  0.3891
17402TIP3    H173697   4.237   6.988  15.244 -0.6936 -0.6950  1.0613
17402TIP3    H273698   4.164   6.855  15.242  0.9678 -1.6177 -0.5075
17403TIP3   OH273699   3.359   5.451   3.745  0.0607  0.7780 -0.0207
17403TIP3    H173700   3.323   5.536   3.770 -1.2150  0.9947 -2.3186
17403TIP3    H273701   3.345   5.396   3.822 -0.6607  2.1902  0.9128
17404TIP3   OH273702   2.583   6.045  15.364  0.2234  0.5458  0.5077
17404TIP3    H173703   2.558   6.107  15.296  1.2430  2.0787  1.4747
17404TIP3    H273704   2.677   6.059  15.376  1.1992 -3.1842 -1.2082
17405TIP3   OH273705   2.142   1.431   3.215  0.6140  0.7494  0.3574
17405TIP3    H173706   2.053   1.437   3.180  0.7018  1.4916  0.2317
17405TIP3    H273707   2.157   1.338   3.229 -0.2140  0.6237  0.4559
17406TIP3   OH273708   0.662   6.782  12.869  0.4418  0.1169 -0.0806
17406TIP3    H173709   0.710   6.865  12.868 -2.0426  1.6348 -0.6308
17406TIP3    H273710   0.615   6.780  12.786  0.7919 -2.1133 -0.2889
17407TIP3   OH273711   6.286   2.627   1.794  0.1196  0.3437 -0.2062
17407TIP3    H173712   6.325   2.540   1.788  0.5975  0.6242 -1.9353
17407TIP3    H273713   6.192   2.610   1.803 -0.0782 -0.4492 -2.7886
17408TIP3   OH273714   6.244   1.088   3.969  0.4314  0.4710  0.5806
17408TIP3    H173715   6.318   1.027   3.965 -1.0820 -1.4526  0.2862
17408TIP3    H273716   6.172   1.035   4.003 -1.3536  1.6826 -1.1082
17409TIP3   OH273717   2.889   6.680   4.907  0.6469  0.5704  0.5435
17409TIP3    H173718   2.965   6.686   4.849 -0.3263 -1.2975 -1.0664
17409TIP3    H273719   2.921   6.711   4.992  3.2586 -0.3261 -0.0120
17410TIP3   OH273720   3.074   2.967   3.375  0.0880  0.1671  0.4639
17410TIP3    H173721   3.170   2.971   3.380  0.1422 -0.1750 -0.0873
17410TIP3    H273722   3.047   2.937   3.461  0.6657 -2.1235 -0.0730
17411TIP3   OH273723   6.213   0.309   2.557 -0.2640 -0.0977  0.1887
17411TIP3    H173724   6.131   0.341   2.596 -0.9860 -1.6697  0.0228
17411TIP3    H273725   6.252   0.253   2.623  0.8880  0.8852  0.3884
17412TIP3   OH273726   4.123   5.719   1.879  0.0027  0.4805  0.0109
17412TIP3    H173727   4.166   5.679   1.955  0.5421 -1.1105 -1.0917
17412TIP3    H273728   4.030   5.698   1.891 -0.4024  2.9107  1.7840
17413TIP3   OH273729   4.561   5.083   1.381 -0.3199  0.2562 -0.3363
17413TIP3    H173730   4.485   5.026   1.378  0.8693 -1.4885  0.7893
17413TIP3    H273731   4.528   5.166   1.416 -1.5765 -0.6741  0.7586
17414TIP3   OH273732   3.678   2.194   0.457  0.2770  0.7355 -0.2314
17414TIP3    H173733   3.655   2.140   0.532  0.3900 -0.0412 -0.7448
17414TIP3    H273734   3.715   2.273   0.496  0.7897  0.1420  0.5364
17415TIP3   OH273735   1.789   5.555   5.011  0.1526 -0.0469 -0.3704
17415TIP3    H173736   1.784   5.646   4.982 -0.1444  0.2573  0.6028
17415TIP3    H273737   1.722   5.510   4.959  0.3505  0.2662 -0.9097
17416TIP3   OH273738   5.716   2.500   1.210  0.3844 -0.3899  0.3067
17416TIP3    H173739   5.704   2.589   1.178  1.2336 -0.3299  0.1240
17416TIP3    H273740   5.654   2.447   1.160 -0.2691  0.1225  0.5658
17417TIP3   OH273741   2.275   4.942   1.113 -0.2983  0.5378  0.3527
17417TIP3    H173742   2.309   4.950   1.202 -2.2705  1.3451  1.0747
17417TIP3    H273743   2.306   5.020   1.068  0.4944  0.2529  0.3942
17418TIP3   OH273744   3.898   3.124   1.180  0.2635  0.1599  0.2538
17418TIP3    H173745   3.924   3.215   1.163 -2.7191  1.3308  1.3541
17418TIP3    H273746   3.839   3.103   1.107  0.5655 -0.7460  0.2648
17419TIP3   OH273747   0.317   4.155  13.670 -0.3474  0.0815 -0.3190
17419TIP3    H173748   0.389   4.214  13.647  1.1361 -0.7580  1.8172
17419TIP3    H273749   0.329   4.079  13.613 -0.0134  0.2679 -0.5009
17420TIP3   OH273750   7.164   4.685   4.497  0.2610 -0.1648  0.4996
17420TIP3    H173751   7.085   4.685   4.551  0.1184  1.4979  0.3408
17420TIP3    H273752   7.191   4.594   4.495 -0.4188 -0.4600  2.3777
17421TIP3   OH273753   2.165   4.934   3.414  0.2895  0.1166 -0.3468
17421TIP3    H173754   2.214   4.872   3.359  0.9825 -0.1570  0.5504
17421TIP3    H273755   2.076   4.898   3.417  0.4335 -0.2750 -0.6767
17422TIP3   OH273756   5.831   6.280   5.857 -0.1762 -0.7338  0.0595
17422TIP3    H173757   5.904   6.342   5.858  0.2364 -1.1667 -1.3328
17422TIP3    H273758   5.754   6.334   5.876  0.2429  0.1054 -0.5683
17423TIP3   OH273759   6.480   4.750   2.357 -0.1232  0.3741  0.3214
17423TIP3    H173760   6.470   4.773   2.449  0.1062 -0.0509  0.4599
17423TIP3    H273761   6.488   4.834   2.311 -0.9871  0.6121  0.5883
17424TIP3   OH273762   6.774   3.981   3.631  0.1298 -0.1923 -0.1095
17424TIP3    H173763   6.703   3.944   3.578 -0.0571 -1.0811  0.7491
17424TIP3    H273764   6.787   3.918   3.701  1.7672 -0.0284 -0.2356
17425TIP3   OH273765   6.463   3.977   2.774 -0.1061 -0.2377  0.1973
17425TIP3    H173766   6.552   3.996   2.744 -0.5642 -0.7825 -1.6329
17425TIP3    H273767   6.472   3.966   2.869  1.4209  1.6268  0.3429
17426TIP3   OH273768   6.073   6.427   4.415 -0.0469 -0.0558  0.0176
17426TIP3    H173769   6.114   6.513   4.410  0.3138  0.1396  3.5670
17426TIP3    H273770   5.979   6.446   4.419  0.0111  0.1619  0.4206
17427TIP3   OH273771   2.344   1.503   4.843 -0.4573 -0.2143 -0.0836
17427TIP3    H173772   2.439   1.499   4.856 -0.7504  0.0398  2.6611
17427TIP3    H273773   2.310   1.424   4.884 -1.3802 -1.1614 -2.4839
17428TIP3   OH273774   1.862   1.350   4.631  0.2937  0.4568 -0.4764
17428TIP3    H173775   1.942   1.391   4.664  1.0965  0.0792 -1.8986
17428TIP3    H273776   1.883   1.326   4.541 -1.1095 -0.5362 -0.5552
17429TIP3   OH273777   3.450   4.439   2.236 -0.2086  0.3062  1.0375
17429TIP3    H173778   3.418   4.529   2.237 -1.7290 -0.2069  2.5592
17429TIP3    H273779   3.519   4.440   2.170 -0.9403  2.3198  0.1948
17430TIP3   OH273780   7.036   6.655   5.042 -0.1395 -0.5276  0.7030
17430TIP3    H173781   7.115   6.606   5.063  0.7897  0.5941 -0.0706
17430TIP3    H273782   6.998   6.609   4.967 -0.6501 -1.4964  1.5288
17431TIP3   OH273783   6.447   0.052   3.728  0.0184  0.3685 -0.0567
17431TIP3    H173784   6.459   0.146   3.740  1.1675  0.8233 -3.6701
17431TIP3    H273785   6.368   0.045   3.673 -1.4592 -1.0294  2.0666
17432TIP3   OH273786   1.736   4.920   3.940 -0.1497 -0.3486  0.3555
17432TIP3    H173787   1.644   4.913   3.916 -0.1025 -2.0114  0.5363
17432TIP3    H273788   1.763   4.830   3.959  1.9674 -0.1857 -1.4206
17433TIP3   OH273789   3.031   5.147   4.318  0.2195 -0.1441  0.3663
17433TIP3    H173790   3.108   5.107   4.277  0.1095  1.0649 -1.0814
17433TIP3    H273791   3.067   5.207   4.384  0.4124 -1.5449  1.5917
17434TIP3   OH273792   3.806   4.221   3.968 -0.0358 -0.0825  0.0452
17434TIP3    H173793   3.760   4.256   3.893 -0.8926 -0.7375  0.2463
17434TIP3    H273794   3.895   4.204   3.936  0.0594  1.1250 -0.3654
17435TIP3   OH273795   3.622   0.399  14.601 -0.3809  0.0080  0.1105
17435TIP3    H173796   3.562   0.326  14.617 -0.4631  0.0181 -0.1522
17435TIP3    H273797   3.602   0.463  14.670  0.3361 -0.6169  0.9182
17436TIP3   OH273798   2.044   1.591   4.241  0.1219 -0.3240  0.5670
17436TIP3    H173799   2.136   1.618   4.243 -0.2165  1.1894 -1.6353
17436TIP3    H273800   2.030   1.562   4.151 -1.6022 -0.4234  0.8432
17437TIP3   OH273801   3.836   0.100   2.303 -0.2628  0.1594  0.1705
17437TIP3    H173802   3.877   0.025   2.259  0.5576 -0.5718  2.0371
17437TIP3    H273803   3.745   0.099   2.274 -0.0807 -1.1326 -0.4100
17438TIP3   OH273804   6.827   0.420  12.787  0.1087 -0.4140 -0.3486
17438TIP3    H173805   6.876   0.500  12.768  0.0336 -0.9913 -3.6334
17438TIP3    H273806   6.761   0.446  12.851  0.8506  1.8484 -0.4185
17439TIP3   OH273807   1.494   0.243   1.880  0.3190 -0.0694 -0.1316
17439TIP3    H173808   1.458   0.212   1.963 -1.6338  0.1701 -0.8540
17439TIP3    H273809   1.433   0.311   1.851  2.6437  2.1446 -0.2515
17440TIP3   OH273810   4.035   4.608   1.633  0.3024 -0.4466 -0.1874
17440TIP3    H173811   4.007   4.579   1.546  1.0600  0.1431 -0.6441
17440TIP3    H273812   3.974   4.679   1.656  0.4522 -0.2192 -0.4897
17441TIP3   OH273813   0.865   4.315   1.534  0.1431  0.3014 -0.3117
17441TIP3    H173814   0.812   4.237   1.516  2.3244 -0.8754 -2.1166
17441TIP3    H273815   0.808   4.388   1.511 -1.1408 -0.8225 -0.9104
17442TIP3   OH273816   3.945   2.999   2.311  0.4826 -0.1950  0.0454
17442TIP3    H173817   4.024   3.022   2.359  2.5694  1.9278 -3.9456
17442TIP3    H273818   3.894   3.080   2.309  0.3377 -0.2971 -1.0458
17443TIP3   OH273819   5.966   1.839   1.850  0.0458  0.3318  0.8687
17443TIP3    H173820   6.041   1.897   1.836  0.5051 -0.5167 -0.4041
17443TIP3    H273821   5.890   1.896   1.845  0.5892  1.2646  2.5074
17444TIP3   OH273822   1.074   5.113   1.997  0.2151 -0.4094  0.1717
17444TIP3    H173823   1.052   5.154   1.913 -0.0513 -0.8546  0.0220
17444TIP3    H273824   1.080   5.187   2.058 -2.2305 -0.2630  0.3509
17445TIP3   OH273825   6.865   0.480   4.804 -0.5494 -0.2715  0.0534
17445TIP3    H173826   6.832   0.509   4.719 -1.2751  1.0255  0.7546
17445TIP3    H273827   6.871   0.559   4.857  1.1957 -0.8504  0.8081
17446TIP3   OH273828   4.237   0.893   1.117  0.5227  0.4402 -0.4559
17446TIP3    H173829   4.254   0.871   1.025 -1.8645 -1.6658 -0.4886
17446TIP3    H273830   4.144   0.912   1.120  0.3397 -0.5574  1.6963
17447TIP3   OH273831   3.330   2.113   5.192 -0.7568 -0.0707 -0.0415
17447TIP3    H173832   3.277   2.075   5.262 -1.2727  1.3173  0.3757
17447TIP3    H273833   3.420   2.088   5.213 -1.2110 -2.6380 -0.8700
17448TIP3   OH273834   5.881   3.807   4.219  0.1282  0.0119 -0.1902
17448TIP3    H173835   5.916   3.896   4.219  0.2606 -0.0141  1.3293
17448TIP3    H273836   5.790   3.817   4.247 -0.9277 -0.0168 -3.2565
17449TIP3   OH273837   4.889   5.561   2.131  0.1650  0.3184  0.8233
17449TIP3    H173838   4.908   5.529   2.219  0.3211  1.8594  1.3755
17449TIP3    H273839   4.941   5.641   2.122  0.8193 -0.2532 -1.0054
17450TIP3   OH273840   3.640   4.854   5.834 -0.3112  0.4999  0.1140
17450TIP3    H173841   3.711   4.897   5.787 -0.3647  0.0025 -0.4282
17450TIP3    H273842   3.627   4.909   5.911  1.4565 -0.0250  0.8523
17451TIP3   OH273843   6.746   2.629   5.784 -0.3503 -0.1537  0.4318
17451TIP3    H173844   6.734   2.537   5.760 -0.7342 -0.3137  1.2110
17451TIP3    H273845   6.771   2.672   5.702  0.5711 -1.0806  0.2030
17452TIP3   OH273846   0.674   4.847   2.538  0.4570 -0.9794 -0.0075
17452TIP3    H173847   0.700   4.939   2.538 -0.7738 -0.6085 -0.3165
17452TIP3    H273848   0.611   4.840   2.610 -1.1898 -1.0207 -1.3831
17453TIP3   OH273849   6.852   5.383   5.312  0.0866  0.2536 -0.2383
17453TIP3    H173850   6.785   5.317   5.325  1.6334 -1.1845  0.8813
17453TIP3    H273851   6.804   5.466   5.307 -1.8501 -0.8761 -1.1299
17454TIP3   OH273852   3.993   1.694  15.415 -0.1368 -0.4874 -0.3174
17454TIP3    H173853   4.007   1.726  15.504 -0.6154  2.1051 -1.1102
17454TIP3    H273854   3.917   1.636  15.422 -0.9881  0.7268  0.7631
17455TIP3   OH273855   6.384   1.194   2.680  0.0924 -0.5533 -0.8172
17455TIP3    H173856   6.313   1.241   2.723 -0.5052 -2.3637  0.3281
17455TIP3    H273857   6.447   1.261   2.656 -1.5857  1.0172 -1.0724
17456TIP3   OH273858   0.472   4.899  14.415  0.4178 -0.2748 -0.0442
17456TIP3    H173859   0.481   4.911  14.509  1.4081 -0.9066 -0.0366
17456TIP3    H273860   0.466   4.987  14.379  0.2136 -0.0264  0.5851
17457TIP3   OH273861   3.456   3.372   0.673  0.5625 -0.2686  0.2865
17457TIP3    H173862   3.395   3.331   0.613  1.5163  0.5760 -1.3142
17457TIP3    H273863   3.423   3.349   0.760 -2.2114  0.4433 -0.4879
17458TIP3   OH273864   6.195   3.743   3.433  0.0939  0.3114  0.5167
17458TIP3    H173865   6.240   3.708   3.356  1.5796  0.2129  1.3997
17458TIP3    H273866   6.115   3.783   3.398  1.0483  0.8439 -1.1541
17459TIP3   OH273867   6.012   5.757   4.489 -0.5454 -0.5454 -0.1423
17459TIP3    H173868   5.998   5.667   4.460 -1.2719 -0.2043 -0.8987
17459TIP3    H273869   5.990   5.810   4.412  0.1273  0.2639  0.2141
17460TIP3   OH273870   2.411   3.125   5.215 -0.5266 -0.0460 -0.3647
17460TIP3    H173871   2.455   3.133   5.130  1.8728  0.2433  0.8044
17460TIP3    H273872   2.424   3.033   5.239  2.0892  0.6182  1.2134
17461TIP3   OH273873   5.562   5.671   5.393 -0.1716  0.1449 -0.0014
17461TIP3    H173874   5.635   5.608   5.402 -1.1585 -0.9069  1.0755
17461TIP3    H273875   5.603   5.750   5.359  0.8101 -1.6912 -3.6066
17462TIP3   OH273876   5.281   6.154   3.637 -0.1449  0.1331 -0.1855
17462TIP3    H173877   5.260   6.234   3.687 -0.4023 -0.3859  0.5483
17462TIP3    H273878   5.236   6.167   3.553  0.4698  1.1121 -0.3787
17463TIP3   OH273879   1.539   4.437   0.094  0.2999  0.8487  0.4351
17463TIP3    H173880   1.481   4.420   0.168 -1.9666  1.5675 -1.0645
17463TIP3    H273881   1.596   4.508   0.124 -1.6611  2.2640  0.9959
17464TIP3   OH273882   4.771   5.077  13.669 -0.2741 -0.5011  0.3561
17464TIP3    H173883   4.774   5.024  13.748  0.2707 -2.7402 -1.0718
17464TIP3    H273884   4.774   5.168  13.700 -0.8972 -1.2802  2.8882
17465TIP3   OH273885   3.840   0.505   5.141  0.0654 -0.7772  0.0745
17465TIP3    H173886   3.917   0.562   5.147 -0.5465  0.1873 -0.9508
17465TIP3    H273887   3.778   0.541   5.205 -1.1767  1.1424 -2.0648
17466TIP3   OH273888   0.679   3.462   0.858  0.2299 -0.0843  0.0718
17466TIP3    H173889   0.702   3.546   0.817 -0.4937 -0.7818 -1.8641
17466TIP3    H273890   0.763   3.420   0.876  0.5781  0.1816 -0.8843
17467TIP3   OH273891   0.965   0.312   4.321 -0.8732 -0.2897  0.4224
17467TIP3    H173892   0.917   0.369   4.380 -3.6114 -0.5667 -1.3854
17467TIP3    H273893   0.995   0.240   4.377 -0.5211  1.0487  2.0319
17468TIP3   OH273894   2.424   0.773   1.354  0.3497 -0.2098  0.1097
17468TIP3    H173895   2.497   0.778   1.416  1.1281  0.5309 -0.8412
17468TIP3    H273896   2.346   0.792   1.408  0.8868 -0.6003  1.0531
17469TIP3   OH273897   4.699   0.372   2.013 -0.5443 -0.2787  0.6486
17469TIP3    H173898   4.782   0.382   1.967 -1.1917 -0.5179 -0.6436
17469TIP3    H273899   4.721   0.374   2.106  0.8662 -0.1450  0.3228
17470TIP3   OH273900   3.652   2.912  12.468  0.3933 -0.0580 -0.5283
17470TIP3    H173901   3.590   2.933  12.398 -0.5421 -0.0312  0.3037
17470TIP3    H273902   3.660   2.993  12.518 -0.0783 -0.5084  0.2747
17471TIP3   OH273903   5.589   6.495   0.665 -0.5275 -0.2928 -0.2902
17471TIP3    H173904   5.594   6.503   0.760 -1.0378 -1.0704 -0.1918
17471TIP3    H273905   5.608   6.583   0.632 -1.9029  0.3713  0.5897
17472TIP3   OH273906   6.067   1.504   3.822  0.0241  0.2396 -0.4771
17472TIP3    H173907   6.116   1.427   3.853 -1.0953  0.0915  1.0496
17472TIP3    H273908   6.053   1.556   3.901  0.3620  1.8035 -1.4232
17473TIP3   OH273909   4.931   7.095   5.624  0.2893 -0.0539  0.0841
17473TIP3    H173910   4.924   7.025   5.559  0.0859 -0.5880  0.6785
17473TIP3    H273911   4.873   7.068   5.695  1.4538 -0.1001  1.0469
17474TIP3   OH273912   5.109   6.987   0.361  0.0825 -0.0874  0.1075
17474TIP3    H173913   5.103   6.923   0.289  2.2399 -0.4547  0.1826
17474TIP3    H273914   5.052   7.058   0.334  2.0936  0.6017 -2.9198
17475TIP3   OH273915   2.221   1.519   5.138 -0.0660  0.0115 -0.2352
17475TIP3    H173916   2.255   1.541   5.225  2.2411  5.1442 -2.0367
17475TIP3    H273917   2.287   1.461   5.101 -0.0530 -0.6043  0.7158
17476TIP3   OH273918   6.058   6.574   2.513 -0.2316 -0.6528 -0.7569
17476TIP3    H173919   6.142   6.572   2.557 -0.6625  0.5810  0.1734
17476TIP3    H273920   6.077   6.611   2.426 -0.0127  1.1007  0.0018
17477TIP3   OH273921   5.095   6.778   1.376  0.3620 -0.1636 -0.7168
17477TIP3    H173922   5.086   6.865   1.336  0.5508  1.1297  1.8663
17477TIP3    H273923   5.169   6.787   1.436 -0.5353 -1.6965  0.6711
17478TIP3   OH273924   4.404   1.106  15.405  0.7020 -0.0756 -0.5840
17478TIP3    H173925   4.327   1.159  15.386  0.2166 -0.4701  0.2394
17478TIP3    H273926   4.471   1.139  15.344  0.2346  1.0580 -0.5141
17479TIP3   OH273927   2.644   5.838   1.460 -0.4499 -0.0203  0.9763
17479TIP3    H173928   2.715   5.834   1.397 -1.1473 -0.7501  0.2100
17479TIP3    H273929   2.624   5.931   1.467  0.1489  0.1357  0.7113
17480TIP3   OH273930   4.022   1.003  15.192 -0.1120 -0.2883  0.0853
17480TIP3    H173931   4.011   0.939  15.262  1.0440 -0.9683 -0.3351
17480TIP3    H273932   3.945   0.990  15.136 -0.1996 -0.8904  0.3396
17481TIP3   OH273933   6.113   5.346   2.575  0.1759 -0.9024  0.1400
17481TIP3    H173934   6.018   5.358   2.574 -0.1502 -2.8905  1.0885
17481TIP3    H273935   6.148   5.434   2.587 -1.6079 -0.2385  0.9324
17482TIP3   OH273936   1.213   0.943   5.232 -0.1967  1.1639  0.7146
17482TIP3    H173937   1.251   1.002   5.166  1.1215  1.0172  1.3178
17482TIP3    H273938   1.222   0.991   5.315 -0.6051  0.7823  0.9824
17483TIP3   OH273939   4.718   1.364   3.574 -0.2868  0.2313 -0.0764
17483TIP3    H173940   4.646   1.406   3.622 -2.4520 -1.3612 -1.7526
17483TIP3    H273941   4.745   1.430   3.509 -1.8890  0.0364 -0.9849
17484TIP3   OH273942   4.570   4.161   5.015  0.0591 -0.4129  0.0185
17484TIP3    H173943   4.552   4.140   4.923  0.1369 -2.1843  0.3666
17484TIP3    H273944   4.662   4.140   5.027  0.1296  0.1071  0.4297
17485TIP3   OH273945   2.291   2.299  14.803  0.5924 -0.1252 -0.6542
17485TIP3    H173946   2.370   2.249  14.827 -0.3132 -2.2341 -1.8086
17485TIP3    H273947   2.301   2.314  14.709 -0.0589  0.2393 -0.6654
17486TIP3   OH273948   6.145   1.562   0.445  0.8192  0.0429 -1.0533
17486TIP3    H173949   6.166   1.590   0.356  0.5903  0.4807 -0.9700
17486TIP3    H273950   6.050   1.572   0.452  1.0693  2.1084 -0.0542
17487TIP3   OH273951   0.022   4.423   4.516 -0.1155 -0.1027 -0.2717
17487TIP3    H173952   0.104   4.383   4.543 -0.5775 -1.8771 -1.3840
17487TIP3    H273953  -0.022   4.357   4.464 -1.0304  1.7661 -2.0242
17488TIP3   OH273954   4.195   1.747   0.619 -0.8895  0.3023  0.4062
17488TIP3    H173955   4.261   1.678   0.619 -0.9029  0.2883  0.5486
17488TIP3    H273956   4.244   1.827   0.641 -1.4378 -0.2447  4.5266
17489TIP3   OH273957   6.611   2.513   4.733 -0.3103  0.1775 -0.1351
17489TIP3    H173958   6.540   2.485   4.790  0.3267 -1.8320 -0.2417
17489TIP3    H273959   6.643   2.594   4.772 -0.1849 -0.8837  2.1545
17490TIP3   OH273960   0.624   6.496   4.434  0.2984 -0.1812  0.3553
17490TIP3    H173961   0.547   6.551   4.418  0.8814  0.5544  0.0198
17490TIP3    H273962   0.693   6.534   4.380  0.2846 -2.3119 -1.3219
17491TIP3   OH273963   2.597   5.115   4.693 -0.4458  0.3193 -0.1010
17491TIP3    H173964   2.672   5.173   4.682 -0.7671  0.4783 -1.8376
17491TIP3    H273965   2.625   5.033   4.652 -0.3898 -0.4112  1.3626
17492TIP3   OH273966   6.114   2.448   0.183 -0.3497 -0.1836  0.0829
17492TIP3    H173967   6.197   2.496   0.183 -0.9630  0.9098 -0.5305
17492TIP3    H273968   6.089   2.444   0.275 -0.1502  0.4350  0.1699
17493TIP3   OH273969   0.457   5.908  15.421 -0.0880 -1.0756 -0.4073
17493TIP3    H173970   0.403   5.833  15.398 -0.4266 -1.7244  2.2159
17493TIP3    H273971   0.404   5.958  15.483  1.8656 -1.1747  1.4570
17494TIP3   OH273972   0.489   0.689   1.658  0.7410  0.2742 -0.2040
17494TIP3    H173973   0.445   0.645   1.731 -0.5977 -0.6148 -1.4914
17494TIP3    H273974   0.419   0.735   1.612  1.0390 -1.3055 -2.4188
17495TIP3   OH273975   6.414   6.908   4.422  0.8704  0.1692 -0.1833
17495TIP3    H173976   6.419   6.993   4.378 -1.6551  0.8630  0.6737
17495TIP3    H273977   6.324   6.879   4.407 -0.1602  0.4120  4.2301
17496TIP3   OH273978   0.211   1.809   4.304  0.1043  0.1091 -0.0621
17496TIP3    H173979   0.188   1.874   4.370  1.2364  1.8135 -1.2819
17496TIP3    H273980   0.127   1.766   4.282 -0.8014  1.6591  0.2482
17497TIP3   OH273981   0.512   1.790   0.384  0.0011 -0.2044 -0.0732
17497TIP3    H173982   0.452   1.716   0.386 -1.9733  1.2876  1.5187
17497TIP3    H273983   0.476   1.849   0.318  0.4471  0.1563 -0.0056
17498TIP3   OH273984   5.163   2.744   4.236  0.3434  0.2939 -0.2158
17498TIP3    H173985   5.082   2.705   4.271  1.4069 -0.6414  1.3372
17498TIP3    H273986   5.171   2.708   4.148 -0.5069 -0.2525 -0.0838
17499TIP3   OH273987   3.291   5.960   2.795  0.0658  0.0197  0.1048
17499TIP3    H173988   3.354   6.017   2.750 -0.3654 -0.1488 -0.7368
17499TIP3    H273989   3.250   5.910   2.724 -1.2629  0.3768  0.6026
17500TIP3   OH273990   5.339   5.907   3.304  0.1724  0.3718  0.0948
17500TIP3    H173991   5.345   5.842   3.374  0.8447  1.2232  0.8586
17500TIP3    H273992   5.411   5.968   3.322 -0.0690  0.9921 -0.9494
17501TIP3   OH273993   2.733   2.129   4.082 -0.6329  0.2255  0.4849
17501TIP3    H173994   2.709   2.116   4.174 -1.3571  0.3383  0.3168
17501TIP3    H273995   2.778   2.214   4.081  1.7016 -0.9171  1.1372
17502TIP3   OH273996   3.082   4.241   5.776  0.8563  0.5600  0.5575
17502TIP3    H173997   3.086   4.179   5.848 -0.0895 -1.2164 -0.8213
17502TIP3    H273998   3.007   4.212   5.724  1.0691  2.2020 -0.7629
17503TIP3   OH273999   6.891   4.163   0.832  0.2387 -0.5524 -0.5064
17503TIP3    H174000   6.886   4.233   0.766 -1.2608  0.0359  0.1813
17503TIP3    H274001   6.984   4.157   0.853  0.5164  0.5873 -1.2638
17504TIP3   OH274002   4.060   6.138  14.772  0.1352  0.4101  0.3257
17504TIP3    H174003   3.994   6.110  14.708  0.5786  1.0211 -0.4078
17504TIP3    H274004   4.143   6.126  14.727  0.6144 -1.0144  1.4849
17505TIP3   OH274005   5.242   3.849  14.909 -0.3974 -0.4302  0.6664
17505TIP3    H174006   5.211   3.940  14.910  1.2803  0.1707  1.1796
17505TIP3    H274007   5.162   3.797  14.900 -1.2339  1.1380 -3.1224
17506TIP3   OH274008   4.566   1.271  12.409  0.2476  0.2266 -0.4007
17506TIP3    H174009   4.571   1.183  12.446  1.5311  0.0799 -0.8764
17506TIP3    H274010   4.565   1.256  12.314  1.2664  0.7355 -0.5037
17507TIP3   OH274011   4.276   4.698   3.223 -0.7821 -0.7596  0.0713
17507TIP3    H174012   4.278   4.603   3.220  0.3372 -0.7628  0.4160
17507TIP3    H274013   4.285   4.720   3.316 -1.7253 -0.3181  0.0707
17508TIP3   OH274014   2.926   0.685   3.504  0.1356 -0.6257  0.7422
17508TIP3    H174015   2.926   0.701   3.598  1.6776 -1.5771  0.9445
17508TIP3    H274016   3.019   0.679   3.481 -0.1936  0.4719 -1.0114
17509TIP3   OH274017   2.852   3.282   6.262  0.2683  0.0894  0.8239
17509TIP3    H174018   2.864   3.248   6.173 -0.6120  0.1658  0.6701
17509TIP3    H274019   2.938   3.315   6.287  1.0204 -1.6913  0.7434
17510TIP3   OH274020   5.617   6.240   0.242 -0.6725  0.1907 -0.3326
17510TIP3    H174021   5.594   6.267   0.331  0.1311 -1.8573  0.5665
17510TIP3    H274022   5.533   6.227   0.199 -1.0746  2.0734 -0.2111
17511TIP3   OH274023   1.075   6.818  14.105  0.0972 -1.1266 -0.0934
17511TIP3    H174024   1.127   6.791  14.029  1.1025 -1.6544  0.7525
17511TIP3    H274025   0.985   6.814  14.075  0.4634 -1.5560 -1.1894
17512TIP3   OH274026   6.708   0.140   4.898  0.2121  0.1161 -0.5031
17512TIP3    H174027   6.617   0.111   4.895 -0.2346  1.4832 -0.8486
17512TIP3    H274028   6.746   0.092   4.971 -0.8702 -0.2533 -0.1585
17513TIP3   OH274029   4.560   1.885   2.140  1.2134 -0.6093 -0.6426
17513TIP3    H174030   4.479   1.919   2.178  1.1719 -2.5217  1.2045
17513TIP3    H274031   4.605   1.962   2.105  0.5328  1.1626  2.0525
17514TIP3   OH274032   5.474   4.991   2.982 -0.1710  0.0338 -0.5125
17514TIP3    H174033   5.563   5.025   2.989  0.0033 -0.5215  0.0555
17514TIP3    H274034   5.444   4.986   3.073 -0.5809 -0.3054 -0.6664
17515TIP3   OH274035   5.438   6.095   2.646 -0.2980  0.0175 -0.2193
17515TIP3    H174036   5.471   6.180   2.677  1.6074 -0.7794  0.1215
17515TIP3    H274037   5.479   6.084   2.560 -0.3773 -0.6241 -0.1771
17516TIP3   OH274038   5.954   4.309  12.593 -0.1824  0.5840  0.2613
17516TIP3    H174039   5.945   4.266  12.508 -1.8525  3.3697 -1.1173
17516TIP3    H274040   6.002   4.390  12.574 -0.7817  1.3830  1.9040
17517TIP3   OH274041   7.023   6.800   5.489  0.1733 -0.3570 -0.3827
17517TIP3    H174042   7.024   6.722   5.434  1.4738 -1.5529  1.2349
17517TIP3    H274043   6.963   6.778   5.561 -0.4048  0.6129 -0.5599
17518TIP3   OH274044   4.504   2.645   5.299  0.4395 -0.1394  0.0385
17518TIP3    H174045   4.471   2.733   5.320  2.4645  0.8160 -0.4642
17518TIP3    H274046   4.582   2.662   5.245  0.8533 -2.2663 -0.0966
17519TIP3   OH274047   3.033   2.186   1.039 -0.0997 -0.2638 -0.0507
17519TIP3    H174048   2.985   2.170   1.121  0.5583  0.3986  0.4740
17519TIP3    H274049   3.058   2.098   1.009  2.2483 -0.4390  2.0608
17520TIP3   OH274050   6.348   2.103  13.016  0.1492  0.2062  0.3621
17520TIP3    H174051   6.285   2.157  13.064 -1.4257 -0.7504 -0.5549
17520TIP3    H274052   6.329   2.120  12.924  0.9763 -0.4141  0.0693
17521TIP3   OH274053   4.651   2.209  14.778  0.9994 -0.1438  0.2205
17521TIP3    H174054   4.616   2.252  14.700  2.1262 -0.7211 -0.6377
17521TIP3    H274055   4.708   2.140  14.744  0.2006 -1.5248  1.5632
17522TIP3   OH274056   6.389   1.522   3.063 -0.1506 -0.1854  0.0540
17522TIP3    H174057   6.308   1.471   3.064 -0.0335 -0.3623  0.3177
17522TIP3    H274058   6.378   1.586   3.133 -0.9536  1.1716 -1.2450
17523TIP3   OH274059   4.469   6.809   4.527  0.2280  0.3491  0.5371
17523TIP3    H174060   4.514   6.829   4.445 -1.3515  2.0063  0.0256
17523TIP3    H274061   4.511   6.728   4.558  0.6301 -0.5099 -2.0377
17524TIP3   OH274062   3.339   3.416   2.852 -0.6498 -0.1145 -0.1746
17524TIP3    H174063   3.247   3.431   2.874 -0.6660 -0.8893  0.3321
17524TIP3    H274064   3.353   3.467   2.772 -1.5582 -0.1044 -0.3392
17525TIP3   OH274065   4.094   1.013   5.088 -0.1265  0.5636 -0.8753
17525TIP3    H174066   4.092   1.099   5.131 -0.4249  0.0859  0.1171
17525TIP3    H274067   4.045   0.956   5.148  1.3279 -0.6253 -0.7454
17526TIP3   OH274068   6.006   6.169   4.348  0.5277  0.5717 -0.0803
17526TIP3    H174069   5.940   6.162   4.279  0.3819  0.4627  0.0689
17526TIP3    H274070   6.050   6.252   4.331  1.5056 -0.1439 -1.1934
17527TIP3   OH274071   3.968   0.113   3.866  0.3949 -0.2484  0.3529
17527TIP3    H174072   3.895   0.105   3.805 -0.2367  1.4798  0.8286
17527TIP3    H274073   4.046   0.098   3.813 -0.1108  1.6282 -1.0336
17528TIP3   OH274074   3.982   5.451   0.913  0.3958  0.3952  0.1826
17528TIP3    H174075   3.987   5.360   0.882  2.2368 -0.2421  2.1668
17528TIP3    H274076   3.972   5.502   0.833 -2.3108 -1.5791 -0.9292
17529TIP3   OH274077   0.260   5.018   2.811 -0.3886 -0.1128 -0.2808
17529TIP3    H174078   0.318   5.090   2.789 -1.4533  1.1446  0.8147
17529TIP3    H274079   0.294   4.984   2.894  1.1419 -2.0902 -1.6164
17530TIP3   OH274080   7.131   6.377   3.912  0.0340  0.2174 -0.1370
17530TIP3    H174081   7.172   6.383   3.825 -0.4992  2.2571 -0.2939
17530TIP3    H274082   7.089   6.462   3.925  2.1063  0.9091  3.1425
17531TIP3   OH274083   1.215   2.966   2.053 -0.5288  0.2741  0.2462
17531TIP3    H174084   1.222   2.898   1.986  2.1703  1.1312 -0.4596
17531TIP3    H274085   1.301   3.006   2.056 -0.7734  0.8662  3.6603
17532TIP3   OH274086   1.234   0.997   2.409  0.2677  0.1676  0.5545
17532TIP3    H174087   1.295   0.935   2.448  1.4840 -0.8351 -2.6488
17532TIP3    H274088   1.149   0.953   2.411  1.1289 -1.8439 -1.7761
17533TIP3   OH274089   2.563   5.700  15.358  0.2624  0.0462 -0.6170
17533TIP3    H174090   2.589   5.754  15.432  0.7971 -1.6543  0.5045
17533TIP3    H274091   2.605   5.740  15.282 -1.1345  2.4253 -0.2180
17534TIP3   OH274092   3.701   0.862   4.951  0.3451 -0.4278  0.0920
17534TIP3    H174093   3.693   0.948   4.993 -2.0053  0.4414 -1.8792
17534TIP3    H274094   3.712   0.801   5.023  3.0807  1.5355  1.5303
17535TIP3   OH274095   0.997   6.456   1.573  0.1434 -0.2609  0.3259
17535TIP3    H174096   0.973   6.527   1.512 -0.6055 -0.9161 -0.1610
17535TIP3    H274097   1.080   6.484   1.610 -1.0076  1.7750  1.5359
17536TIP3   OH274098   2.121   5.032   3.695 -0.7706 -1.0342 -0.8360
17536TIP3    H174099   2.172   5.112   3.707 -1.1296 -0.9897  0.6712
17536TIP3    H274100   2.106   5.026   3.601  1.1408 -0.5194 -1.2158
17537TIP3   OH274101   2.003   6.968   3.655  0.0802  0.0802  0.1828
17537TIP3    H174102   2.088   7.001   3.684  0.0102  0.6273 -0.2041
17537TIP3    H274103   1.983   7.020   3.577 -1.5644  1.4573  1.4287
17538TIP3   OH274104   4.134   0.484   2.792 -0.0725  0.3903  0.5677
17538TIP3    H174105   4.054   0.463   2.839  0.3210  0.2714  1.2021
17538TIP3    H274106   4.178   0.399   2.780  0.0341  0.4733  0.3648
17539TIP3   OH274107   6.315   7.029  15.390  0.6456  0.3059 -0.0654
17539TIP3    H174108   6.395   7.071  15.357  0.3364  0.8863 -0.0891
17539TIP3    H274109   6.330   6.936  15.376  2.0781  0.2322  1.5748
17540TIP3   OH274110   4.663   4.544   3.878 -0.0104  0.5296 -0.3520
17540TIP3    H174111   4.583   4.574   3.920 -0.2407 -2.1378  1.3396
17540TIP3    H274112   4.730   4.607   3.907 -0.9371  1.0524  0.7503
17541TIP3   OH274113   4.314   7.066  14.269 -0.1284  0.9646 -0.1733
17541TIP3    H174114   4.236   7.010  14.271 -0.9365  1.8929 -2.3636
17541TIP3    H274115   4.386   7.006  14.251 -0.0442 -0.0865  3.0990
17542TIP3   OH274116   2.962   6.318   4.799  0.2242 -0.3764 -0.7724
17542TIP3    H174117   2.978   6.273   4.882  2.6549 -1.1919 -1.5967
17542TIP3    H274118   2.969   6.411   4.820 -0.1290 -0.5412  0.1038
17543TIP3   OH274119   0.056   0.217   2.501  0.2701  0.2801  0.0734
17543TIP3    H174120   0.110   0.161   2.445 -1.5262 -1.7953  0.2617
17543TIP3    H274121   0.067   0.180   2.588 -0.8556  0.2843  0.2261
17544TIP3   OH274122   1.073   6.799   3.808  0.1087  0.4927  0.1557
17544TIP3    H174123   1.167   6.794   3.789 -0.1019 -1.1382 -0.6172
17544TIP3    H274124   1.038   6.716   3.775 -1.0326 -0.5774  3.5913
17545TIP3   OH274125   3.422   5.870   5.444  0.4827 -0.2995  0.0097
17545TIP3    H174126   3.444   5.780   5.467 -3.4731 -1.5706 -0.4709
17545TIP3    H274127   3.396   5.910   5.527 -0.0997 -0.4018 -0.1179
17546TIP3   OH274128   2.015   1.643   0.753  0.1192  0.7142 -0.0512
17546TIP3    H174129   1.989   1.588   0.679  1.9630 -0.8094  0.3590
17546TIP3    H274130   1.938   1.645   0.810 -0.4674 -0.2337 -0.7844
17547TIP3   OH274131   3.628   6.473   3.476 -0.2151  0.6242  0.4357
17547TIP3    H174132   3.654   6.505   3.390 -1.1231  0.8002  0.2130
17547TIP3    H274133   3.636   6.377   3.469 -0.5421  0.6210  0.0689
17548TIP3   OH274134   6.980   3.545  14.598  0.0187 -0.2002  0.0961
17548TIP3    H174135   7.067   3.510  14.578 -0.0392 -0.4882  0.3413
17548TIP3    H274136   6.919   3.483  14.557 -0.0850 -0.3918  0.5307
17549TIP3   OH274137   6.185   1.226   1.365  0.1653  0.5178 -0.3076
17549TIP3    H174138   6.120   1.242   1.433  1.4857 -1.6227  1.6279
17549TIP3    H274139   6.267   1.214   1.413  1.1758 -1.0404 -2.2680
17550TIP3   OH274140   0.193   2.442   4.450  0.1833  0.3811 -0.2334
17550TIP3    H174141   0.177   2.442   4.355  0.3940  1.1852 -0.2796
17550TIP3    H274142   0.285   2.466   4.459 -0.1020  1.3910  0.1955
17551TIP3   OH274143   1.843   6.565   0.763  0.2612 -0.1101  0.0018
17551TIP3    H174144   1.876   6.609   0.684 -0.0080 -0.9431 -0.5938
17551TIP3    H274145   1.755   6.537   0.739 -0.6478  1.4188  1.3114
17552TIP3   OH274146   0.582   1.655  13.995 -0.1564  0.2890 -0.6195
17552TIP3    H174147   0.499   1.607  13.993  0.1459 -0.2217 -1.4041
17552TIP3    H274148   0.584   1.695  14.082 -0.3776 -1.2070  0.1159
17553TIP3   OH274149   6.598   2.784  14.241 -0.3672  0.3012  0.1445
17553TIP3    H174150   6.574   2.718  14.306  0.6275 -0.2519 -0.0320
17553TIP3    H274151   6.598   2.737  14.158  3.3666 -0.3542  0.3503
17554TIP3   OH274152   5.325   4.832   2.397  0.3024 -0.1880 -0.6780
17554TIP3    H174153   5.319   4.778   2.475  0.3216  3.5059  2.1633
17554TIP3    H274154   5.411   4.813   2.360  1.1328 -0.6564  1.3908
17555TIP3   OH274155   2.303   3.260   2.423  0.3445  0.2108  0.1524
17555TIP3    H174156   2.332   3.347   2.398 -1.2307  0.1650 -2.2130
17555TIP3    H274157   2.242   3.275   2.495  1.2965  0.8797  0.8419
17556TIP3   OH274158   6.595   0.230   2.075  0.4307 -0.1650  0.5373
17556TIP3    H174159   6.537   0.162   2.040  2.3622 -2.3708  1.3556
17556TIP3    H274160   6.553   0.256   2.157 -0.3663 -0.3418  0.1947
17557TIP3   OH274161   3.991   1.427   3.753  0.0884 -0.1585  0.1878
17557TIP3    H174162   4.004   1.499   3.691  1.3726 -1.3662 -0.9980
17557TIP3    H274163   3.939   1.466   3.824  0.5172  1.8566 -0.5389
17558TIP3   OH274164   6.688   4.549   1.769 -0.4210 -0.3504  0.0337
17558TIP3    H174165   6.592   4.546   1.772 -0.4350 -0.6131  3.3891
17558TIP3    H274166   6.715   4.460   1.791  0.5348  0.2101  1.2574
17559TIP3   OH274167   1.392   2.020  13.710  0.0692 -0.4558 -0.5546
17559TIP3    H174168   1.308   1.974  13.716 -0.1446 -0.0725 -0.5946
17559TIP3    H274169   1.416   2.014  13.617 -0.5859  0.6190 -0.7990
17560TIP3   OH274170   1.200   5.490   5.578  0.0874  0.1292 -0.2115
17560TIP3    H174171   1.242   5.487   5.492 -0.2215  0.0205 -0.3624
17560TIP3    H274172   1.250   5.555   5.628 -0.2128  0.7778 -0.7365
17561TIP3   OH274173   4.454   1.729   1.923  0.2212  0.4543  0.1674
17561TIP3    H174174   4.494   1.781   1.854 -0.2003  2.1738  1.1527
17561TIP3    H274175   4.489   1.767   2.004 -0.7814 -0.2347  0.9366
17562TIP3   OH274176   1.754   5.717  15.309 -0.2846 -0.0788  0.0035
17562TIP3    H174177   1.712   5.748  15.389 -0.2640  0.3918 -0.1616
17562TIP3    H274178   1.730   5.782  15.243 -1.0408 -0.9347 -0.5893
17563TIP3   OH274179   0.472   2.117   2.598  0.0774  0.2442  0.3131
17563TIP3    H174180   0.484   2.064   2.519  2.3242  1.0117  0.0698
17563TIP3    H274181   0.495   2.058   2.670  1.7582  0.5756  0.0955
17564TIP3   OH274182   0.574   4.372  14.955 -0.1210 -0.4207  0.4468
17564TIP3    H174183   0.588   4.445  14.894 -0.0212  1.1986  2.2890
17564TIP3    H274184   0.624   4.300  14.919  1.5197  1.0543 -0.3774
17565TIP3   OH274185   5.898   6.281   5.584  0.3459 -0.9630 -0.7250
17565TIP3    H174186   5.904   6.273   5.679 -0.0978  3.8396 -0.0760
17565TIP3    H274187   5.806   6.259   5.565 -0.2149  0.2892  0.3598
17566TIP3   OH274188   2.425   3.898   1.204 -0.0331 -0.1432  0.4261
17566TIP3    H174189   2.499   3.849   1.241  0.9553 -1.4688 -2.9755
17566TIP3    H274190   2.458   3.935   1.123 -2.5861  0.8994 -0.2469
17567TIP3   OH274191   3.222   5.392   3.228  0.4648  0.4298  0.4431
17567TIP3    H174192   3.226   5.318   3.289 -0.4660 -0.3049 -0.3341
17567TIP3    H274193   3.177   5.356   3.151  1.9154  1.2139 -0.8328
17568TIP3   OH274194   6.274   0.768   1.213  0.2520 -0.1849  0.2915
17568TIP3    H174195   6.353   0.719   1.233  1.9193  2.4319  0.6689
17568TIP3    H274196   6.272   0.838   1.278 -1.5698  0.7052 -0.6354
17569TIP3   OH274197   5.389   1.418  15.187  0.2521  0.0496 -0.0121
17569TIP3    H174198   5.416   1.384  15.101  0.6604  0.5344 -0.0765
17569TIP3    H274199   5.424   1.354  15.249  1.7963  0.8011 -0.0787
17570TIP3   OH274200   4.682   5.919   0.565 -0.1246 -0.0732  0.0016
17570TIP3    H174201   4.633   5.837   0.563 -1.4626  0.6502  1.2649
17570TIP3    H274202   4.758   5.900   0.621 -0.4296 -0.4593  0.2893
17571TIP3   OH274203   6.636   0.932   5.920  0.8622  0.0141  0.1472
17571TIP3    H174204   6.685   1.010   5.946  1.6525 -0.6580  0.7255
17571TIP3    H274205   6.548   0.945   5.957  1.0947  0.4541  0.5482
17572TIP3   OH274206   3.782   0.225   5.750  0.5919 -0.0431  0.1779
17572TIP3    H174207   3.872   0.234   5.720  0.5034  0.1563 -0.0375
17572TIP3    H274208   3.730   0.240   5.671  0.4190 -2.7650 -0.3307
17573TIP3   OH274209   1.056   0.090   4.040  0.4071 -0.7751 -0.2764
17573TIP3    H174210   0.991   0.019   4.036 -1.3737  0.8452 -2.4174
17573TIP3    H274211   1.072   0.101   4.134  0.1049 -3.3904  0.1764
17574TIP3   OH274212   0.198   6.679   4.372 -0.0905 -0.0327  0.0170
17574TIP3    H174213   0.152   6.716   4.297 -0.8870 -0.4755  0.2807
17574TIP3    H274214   0.290   6.700   4.357 -0.4430  1.4490 -0.1871
17575TIP3   OH274215   2.380   3.568   5.313 -0.3473  0.4492  0.0764
17575TIP3    H174216   2.340   3.513   5.381 -2.7148  1.0389 -0.7428
17575TIP3    H274217   2.405   3.506   5.244  0.3699  0.0567  0.6662
17576TIP3   OH274218   0.549   0.545   1.401  0.3120  0.2597 -0.1523
17576TIP3    H174219   0.589   0.611   1.458 -1.2576  0.7445  0.4376
17576TIP3    H274220   0.603   0.466   1.415  0.4418  0.5884  1.4247
17577TIP3   OH274221   2.989   2.401   4.482  0.0399 -0.1974  0.2967
17577TIP3    H174222   3.033   2.439   4.558  0.2375  0.1604  0.0070
17577TIP3    H274223   2.980   2.473   4.421 -1.2703 -0.1819  0.4843
17578TIP3   OH274224   6.057   2.719   5.348 -0.0414  0.2390  0.4284
17578TIP3    H174225   6.111   2.658   5.298 -0.8766  0.9082 -1.3628
17578TIP3    H274226   6.019   2.666   5.418 -0.6263 -1.2770 -0.9981
17579TIP3   OH274227   1.650   3.234   2.125  0.1373  0.2324  0.3535
17579TIP3    H174228   1.652   3.284   2.043 -2.3029  0.4070  0.3205
17579TIP3    H274229   1.728   3.179   2.122  1.8700  2.6003 -0.5289
17580TIP3   OH274230   6.480   1.497   4.817 -0.0929 -0.3678 -0.3866
17580TIP3    H174231   6.392   1.494   4.854 -0.3416  2.0901 -0.6620
17580TIP3    H274232   6.472   1.451   4.733 -0.7114 -1.4651  0.2404
17581TIP3   OH274233   1.028   4.941   4.632  0.0674 -0.2045  0.0306
17581TIP3    H174234   1.106   4.995   4.618 -0.3045  0.0594 -1.0808
17581TIP3    H274235   0.985   4.981   4.708 -0.1522  1.0236 -0.7215
17582TIP3   OH274236   4.764   5.643   4.623 -0.1002 -0.5648 -0.2884
17582TIP3    H174237   4.787   5.558   4.586 -0.3891 -0.9730  0.4673
17582TIP3    H274238   4.825   5.704   4.580  1.0491 -1.3460  0.1827
17583TIP3   OH274239   5.547   0.537   5.809  0.0086 -0.2417  0.3316
17583TIP3    H174240   5.560   0.443   5.793  0.3815 -0.3554  1.2742
17583TIP3    H274241   5.451   0.548   5.810 -0.0574 -0.3076 -1.4046
17584TIP3   OH274242   6.856   0.196   3.915 -0.3681 -0.1313  0.0422
17584TIP3    H174243   6.930   0.181   3.975 -0.4960 -0.2600  0.1689
17584TIP3    H274244   6.863   0.127   3.850 -0.3455 -0.1116  0.0238
17585TIP3   OH274245   3.241   5.232   2.706  0.4511  0.3290 -0.0606
17585TIP3    H174246   3.160   5.233   2.655 -0.0094 -1.0305  0.6025
17585TIP3    H274247   3.308   5.204   2.643  0.2005  0.3546 -0.3398
17586TIP3   OH274248   2.190   6.196   1.313  0.3643  0.6503 -0.6317
17586TIP3    H174249   2.097   6.216   1.321  0.3167 -0.1295  1.2049
17586TIP3    H274250   2.232   6.248   1.382  1.3535  1.2729 -1.6773
17587TIP3   OH274251   1.020   0.836   2.115  0.5997  0.0220 -0.3369
17587TIP3    H174252   1.011   0.866   2.025 -2.0166  0.2390 -0.0740
17587TIP3    H274253   1.049   0.746   2.107  0.4963  0.0686 -1.4004
17588TIP3   OH274254   4.007   0.989   3.813 -0.4910 -0.0041 -0.2601
17588TIP3    H174255   4.030   0.912   3.864  0.9376  0.7440  0.2655
17588TIP3    H274256   3.986   1.056   3.878 -2.9736 -0.2510 -0.7052
17589TIP3   OH274257   6.749   1.840   4.217  0.3286  0.3489 -0.3991
17589TIP3    H174258   6.712   1.893   4.287  1.3713  0.9124 -0.2461
17589TIP3    H274259   6.808   1.779   4.262  1.4196  1.0711 -0.7927
17590TIP3   OH274260   3.287   2.780   3.592 -0.0647  0.4501 -0.0704
17590TIP3    H174261   3.259   2.723   3.520  0.1375 -0.2985  0.4301
17590TIP3    H274262   3.206   2.807   3.635 -0.0991 -0.9666  0.8118
17591TIP3   OH274263   3.717   1.984   3.846 -0.3491  0.1594 -0.3515
17591TIP3    H174264   3.778   1.954   3.778 -0.4409 -1.1156  0.1187
17591TIP3    H274265   3.711   1.912   3.907 -1.3396  0.7738  0.3046
17592TIP3   OH274266   6.597   2.600   0.160  0.1334  0.3262  0.7766
17592TIP3    H174267   6.571   2.584   0.069 -0.2467  1.2688  0.7061
17592TIP3    H274268   6.682   2.643   0.154  0.5235 -0.3968  0.9154
17593TIP3   OH274269   2.772   4.863   1.534  0.6602  0.2959  0.5245
17593TIP3    H174270   2.862   4.830   1.532  0.3651 -0.5039 -0.8007
17593TIP3    H274271   2.720   4.788   1.562  0.2115  0.2094 -0.5077
17594TIP3   OH274272   3.507   0.852   4.244 -0.4600 -0.2971  0.4339
17594TIP3    H174273   3.502   0.843   4.149 -0.3449 -3.4843  0.6416
17594TIP3    H274274   3.420   0.884   4.270 -0.7426 -0.1591 -0.6516
17595TIP3   OH274275   0.701   1.365   1.773 -0.4281 -0.5025  0.3462
17595TIP3    H174276   0.766   1.310   1.817 -1.6601 -2.5910 -0.2530
17595TIP3    H274277   0.685   1.319   1.690 -0.0991  1.8777 -1.1095
17596TIP3   OH274278   4.731   5.099   5.315 -0.8074  0.5511  0.8436
17596TIP3    H174279   4.666   5.168   5.330  1.3606  2.7007  1.0052
17596TIP3    H274280   4.786   5.132   5.244 -0.0227 -1.3130  0.5072
17597TIP3   OH274281   1.369   0.136   2.166  0.3024 -0.6623 -0.0995
17597TIP3    H174282   1.397   0.049   2.194  0.1586 -0.0746  2.0360
17597TIP3    H274283   1.275   0.126   2.146  0.3760 -1.0701 -0.2487
17598TIP3   OH274284   1.967   3.396   4.050 -0.1018  0.3622  0.0729
17598TIP3    H174285   1.872   3.402   4.060 -0.3089  1.6666 -1.9367
17598TIP3    H274286   1.980   3.327   3.985  0.2460  0.6913 -0.2176
17599TIP3   OH274287   3.590   1.138   2.158 -0.1482 -0.0782  0.7166
17599TIP3    H174288   3.510   1.164   2.203 -1.6904 -0.3868 -1.6578
17599TIP3    H274289   3.568   1.144   2.065  2.6777  0.0299 -0.0310
17600TIP3   OH274290   2.031   7.138   3.423 -0.2698 -0.1434  0.3822
17600TIP3    H174291   1.965   7.184   3.475  0.7844  1.1802  0.6109
17600TIP3    H274292   2.045   7.195   3.347 -0.4838 -1.1631 -0.4388
17601TIP3   OH274293   0.082   1.851   1.944 -0.0598  0.0511  0.0356
17601TIP3    H174294   0.060   1.878   2.033  2.5881 -0.1457  0.8202
17601TIP3    H274295   0.086   1.933   1.894  0.0255  0.3052  0.4643
17602TIP3   OH274296   4.566   0.221   2.774  0.2109  0.0826 -0.0018
17602TIP3    H174297   4.613   0.198   2.854  0.2176 -0.4093 -0.1409
17602TIP3    H274298   4.565   0.316   2.773  1.3258  0.1088 -0.0687
17603TIP3   OH274299   1.399   3.818   1.597  0.1031  0.4323  0.2279
17603TIP3    H174300   1.360   3.774   1.521 -0.0684 -1.4882  1.3636
17603TIP3    H274301   1.462   3.880   1.558  0.6126 -1.0550 -1.4926
17604TIP3   OH274302   0.250   1.019   4.547  0.3881  0.0315 -0.0697
17604TIP3    H174303   0.221   1.103   4.512  0.9231  0.5561  0.7231
17604TIP3    H274304   0.278   0.970   4.470 -0.7445  0.2360 -0.6349
17605TIP3   OH274305   6.221   3.778   3.690 -0.2412  0.2510 -0.4825
17605TIP3    H174306   6.181   3.864   3.683 -1.3400 -0.1346  0.6650
17605TIP3    H274307   6.225   3.746   3.600  0.0547  1.4402 -0.8978
17606TIP3   OH274308   0.954   0.612   2.488  0.1172 -0.1980  0.4095
17606TIP3    H174309   0.906   0.648   2.562 -1.8887 -1.9728  0.0635
17606TIP3    H274310   0.891   0.613   2.415  0.7661 -2.0029 -0.2446
17607TIP3   OH274311   4.128   4.294   1.923  0.2851 -0.2526 -0.2050
17607TIP3    H174312   4.198   4.307   1.988  2.1879 -0.0025 -2.1850
17607TIP3    H274313   4.116   4.199   1.919  0.1625 -0.2704  0.4903
17608TIP3   OH274314   6.105   4.623   3.020 -0.0461 -0.5776 -0.2572
17608TIP3    H174315   6.053   4.543   3.025 -1.0707  0.0641 -0.4709
17608TIP3    H274316   6.123   4.645   3.111  0.1020 -0.9546 -0.1907
17609TIP3   OH274317   3.928   3.922  13.629  0.2839  0.2204  0.4593
17609TIP3    H174318   3.907   3.847  13.685  2.7514 -0.8526  0.0942
17609TIP3    H274319   3.999   3.967  13.675  0.4184  0.9757 -0.4630
17610TIP3   OH274320   5.407   5.428   5.553  0.1520  0.0709  0.3389
17610TIP3    H174321   5.457   5.507   5.529 -1.4246  0.8285 -0.6701
17610TIP3    H274322   5.349   5.457   5.623  0.1255 -0.4212  0.5217
17611TIP3   OH274323   4.782   3.407   4.881  0.0164  0.5173  0.1559
17611TIP3    H174324   4.796   3.469   4.953 -0.8031  2.4162 -1.2235
17611TIP3    H274325   4.819   3.325   4.912  1.6432  1.8186  1.8865
17612TIP3   OH274326   1.444   7.104  11.568  0.7687  0.0159 -0.0384
17612TIP3    H174327   1.360   7.138  11.536 -0.4728 -2.1401  0.7232
17612TIP3    H274328   1.475   7.047  11.498  0.2973 -1.1571  0.6708
17613TIP3   OH274329   0.605   7.152   3.335 -0.1955  0.4775 -0.3380
17613TIP3    H174330   0.571   7.203   3.409  1.1056  2.1286 -0.8161
17613TIP3    H274331   0.655   7.215   3.283 -0.4726 -0.7969 -2.2611
17614TIP3   OH274332   4.578   1.923   5.334  0.0829  0.3698  0.0263
17614TIP3    H174333   4.658   1.953   5.291 -0.4767  0.6073 -0.8801
17614TIP3    H274334   4.522   2.001   5.338 -0.7963 -0.1829 -0.9864
17615TIP3   OH274335   1.034   5.494   3.497  0.0056 -0.8119 -0.0508
17615TIP3    H174336   1.011   5.566   3.439  4.6475  0.1527 -1.1598
17615TIP3    H274337   1.012   5.526   3.585 -0.7040  0.7342 -0.7639
17616TIP3   OH274338   2.564   4.358   4.536 -0.2892  0.2785  0.1599
17616TIP3    H174339   2.592   4.416   4.465  0.0330 -1.1270 -0.8908
17616TIP3    H274340   2.474   4.385   4.555 -0.9949 -0.4329 -1.9632
17617TIP3   OH274341   2.777   3.589   3.605  0.2093 -0.7973 -0.1132
17617TIP3    H174342   2.841   3.612   3.672 -1.3883  1.0936  0.8625
17617TIP3    H274343   2.729   3.670   3.589 -1.5990 -2.0143 -1.1781
17618TIP3   OH274344   6.835   4.163   2.296 -0.2833  0.5012 -0.0664
17618TIP3    H174345   6.836   4.254   2.325  1.9682  1.6447 -3.1913
17618TIP3    H274346   6.753   4.154   2.249  0.8269  2.0499 -2.4958
17619TIP3   OH274347   5.137   1.558   5.535  0.8072  0.8280  0.3528
17619TIP3    H174348   5.231   1.565   5.554  1.0649  0.2085 -0.6143
17619TIP3    H274349   5.094   1.567   5.620  1.7322  1.2544  0.7886
17620TIP3   OH274350   6.162   0.748   0.530  0.0956 -0.6227  0.1227
17620TIP3    H174351   6.229   0.731   0.597  0.4192  0.2413  0.0299
17620TIP3    H274352   6.161   0.843   0.520 -1.7670 -0.5426  0.7321
17621TIP3   OH274353   4.860   6.006   2.420 -0.0907 -1.0008  0.0052
17621TIP3    H174354   4.862   5.971   2.331 -1.5970 -0.8671 -0.1211
17621TIP3    H274355   4.785   5.962   2.460 -0.4271  0.1529  0.6767
17622TIP3   OH274356   7.129   7.044   5.498 -0.0636  0.2066 -0.4379
17622TIP3    H174357   7.224   7.033   5.496 -0.0307  0.3863  0.0044
17622TIP3    H274358   7.094   6.955   5.492  0.1749 -0.0674  1.5953
17623TIP3   OH274359   5.798   6.484   5.356 -0.8144  0.0604  0.7319
17623TIP3    H174360   5.850   6.445   5.426  0.3952  0.8407  0.2961
17623TIP3    H274361   5.769   6.568   5.392 -0.2353  0.4385  0.3155
17624TIP3   OH274362   6.384   1.311   1.588  0.2428 -0.5372 -0.4146
17624TIP3    H174363   6.335   1.361   1.654  1.5027 -2.7029  2.4138
17624TIP3    H274364   6.459   1.367   1.568  1.3355 -0.8670  2.2480
17625TIP3   OH274365   4.106   5.185  15.263 -0.1292 -0.2043  0.1876
17625TIP3    H174366   4.093   5.107  15.316 -0.5857  0.1319  0.5814
17625TIP3    H274367   4.198   5.208  15.276  0.1816 -1.0306 -0.4386
17626TIP3   OH274368   6.557   1.400   2.614 -0.3505 -0.2491 -0.1900
17626TIP3    H174369   6.575   1.372   2.524 -1.5448 -3.5196  0.4656
17626TIP3    H274370   6.589   1.491   2.617 -0.0300 -0.0826 -3.7925
17627TIP3   OH274371   0.523   2.641   4.851 -0.0655  0.2006  0.5037
17627TIP3    H174372   0.606   2.636   4.803 -0.6319  0.6966 -0.5398
17627TIP3    H274373   0.488   2.728   4.831 -1.0011 -0.1295  0.6624
17628TIP3   OH274374   1.650   2.570   4.622 -0.0920  0.3138 -0.3254
17628TIP3    H174375   1.727   2.519   4.644 -0.1939  0.6998  0.9734
17628TIP3    H274376   1.670   2.607   4.536 -0.1767 -2.1553 -1.4983
17629TIP3   OH274377   2.023   0.569   4.086  0.0156  0.1636 -0.1517
17629TIP3    H174378   1.999   0.524   4.005 -0.7715  0.8600 -0.3181
17629TIP3    H274379   2.090   0.633   4.058 -0.5096  0.6472 -0.3290
17630TIP3   OH274380   3.420   3.388   3.117 -0.4536 -0.0508 -0.3403
17630TIP3    H174381   3.495   3.441   3.143  0.1393 -1.2638  0.5210
17630TIP3    H274382   3.408   3.407   3.024  0.3285  0.8549 -0.2693
17631TIP3   OH274383   3.782   3.908   1.405 -0.0386  0.5777  0.2342
17631TIP3    H174384   3.749   3.914   1.495 -1.9005  2.6138 -0.4819
17631TIP3    H274385   3.729   3.839   1.365  0.6832 -0.2211  0.6247
17632TIP3   OH274386   4.114   1.416  14.727 -0.0109 -0.4817  0.2079
17632TIP3    H174387   4.075   1.331  14.749 -0.0048 -0.7091 -0.6468
17632TIP3    H274388   4.043   1.478  14.736 -0.9459 -1.0382 -2.4536
17633TIP3   OH274389   3.695   4.633   4.546  0.3641 -0.2207 -0.0644
17633TIP3    H174390   3.750   4.618   4.469  0.5995 -0.5208  0.1614
17633TIP3    H274391   3.618   4.576   4.531  0.4110 -0.2813 -0.0771
17634TIP3   OH274392   3.042   0.287   5.052  0.3908 -0.6507 -0.0050
17634TIP3    H174393   3.067   0.280   4.960  1.1288  3.2089 -0.2285
17634TIP3    H274394   2.946   0.282   5.051  0.3157  0.6881 -1.1689
17635TIP3   OH274395   1.640   3.982   5.669  0.5245  0.5529 -0.4529
17635TIP3    H174396   1.616   3.889   5.669  1.8094  0.1923 -0.8966
17635TIP3    H274397   1.565   4.026   5.709 -0.3088 -0.6180 -0.6589
17636TIP3   OH274398   2.300   4.119   5.680 -0.2118  0.1377 -0.5899
17636TIP3    H174399   2.311   4.132   5.775 -1.8974  0.0140 -0.3522
17636TIP3    H274400   2.326   4.203   5.641  0.0028  0.3617  0.0199
17637TIP3   OH274401   3.599   0.595   4.302 -0.1573 -0.2874  0.8666
17637TIP3    H174402   3.515   0.633   4.328  0.0789  2.0574 -1.3347
17637TIP3    H274403   3.648   0.586   4.383 -3.0150 -3.3306  2.4842
17638TIP3   OH274404   5.584   6.146   4.443 -0.8039 -0.1728 -0.6529
17638TIP3    H174405   5.605   6.183   4.356  1.7254 -0.5949 -0.3026
17638TIP3    H274406   5.649   6.185   4.501 -0.9107 -1.7562  0.5868
17639TIP3   OH274407   6.165   3.523   0.982 -0.6381 -0.0043  0.1785
17639TIP3    H174408   6.173   3.615   0.957  0.2020  1.1288  3.9795
17639TIP3    H274409   6.079   3.516   1.022  0.0395 -0.3124  1.6646
17640TIP3   OH274410   3.935   3.695   3.342 -0.0875  0.1474 -0.5883
17640TIP3    H174411   3.958   3.697   3.435  0.9648 -1.0699 -0.7974
17640TIP3    H274412   3.840   3.703   3.341 -0.5503 -3.2617  0.8599
17641TIP3   OH274413   6.014   0.099   5.065 -0.7662  0.1229  0.0387
17641TIP3    H174414   6.076   0.026   5.066 -1.2040 -0.4103 -2.5666
17641TIP3    H274415   6.057   0.169   5.115  0.7398 -1.1059  0.5324
17642TIP3   OH274416   4.985   3.663   4.161 -0.2952 -0.1104 -0.6688
17642TIP3    H174417   4.955   3.673   4.071 -0.2107 -0.2699 -0.7170
17642TIP3    H274418   4.978   3.569   4.177 -1.0726  0.0155 -0.2353
17643TIP3   OH274419   1.887   2.181   2.396 -0.5944  0.1108  0.4827
17643TIP3    H174420   1.908   2.094   2.363 -0.6430 -0.2009  1.2482
17643TIP3    H274421   1.793   2.176   2.416 -0.4933  0.1871  0.9755
17644TIP3   OH274422   5.234   4.708   0.736 -0.5692 -0.6075  0.4826
17644TIP3    H174423   5.167   4.697   0.804 -1.6408 -0.5066 -0.5378
17644TIP3    H274424   5.186   4.732   0.658  0.7089 -0.1061 -0.1829
17645TIP3   OH274425   2.275   0.012   2.246  0.0055  0.2723 -0.5237
17645TIP3    H174426   2.362   0.050   2.252  0.4466 -0.5175 -1.7637
17645TIP3    H274427   2.272  -0.052   2.317  0.8486 -0.4937 -1.1603
17646TIP3   OH274428   2.345   4.047   4.926 -0.2267  0.2803 -0.2249
17646TIP3    H174429   2.336   4.114   4.859  1.2704  2.5936  1.6988
17646TIP3    H274430   2.439   4.040   4.941 -0.4605 -0.9875  0.8668
17647TIP3   OH274431   2.181   6.399   0.253  0.1100 -0.2747 -0.0634
17647TIP3    H174432   2.192   6.320   0.200  0.5110  0.0301 -0.4569
17647TIP3    H274433   2.257   6.399   0.312 -0.2231 -0.5034  0.3671
17648TIP3   OH274434   4.554   2.184   5.552 -0.6066 -0.7862  0.3679
17648TIP3    H174435   4.496   2.147   5.486  2.0634 -0.8554 -2.1037
17648TIP3    H274436   4.550   2.279   5.537  0.8992 -0.8761 -0.7611
17649TIP3   OH274437   7.037   1.485   0.906  0.0700 -0.0922  0.2069
17649TIP3    H174438   7.052   1.438   0.987 -1.0210 -0.2300  0.3540
17649TIP3    H274439   6.942   1.481   0.893  0.0598  1.1655 -0.3168
17650TIP3   OH274440   1.907   2.189   2.687 -0.4161  0.2756 -0.0683
17650TIP3    H174441   1.893   2.206   2.594  0.5188  0.0572 -0.2601
17650TIP3    H274442   1.938   2.098   2.691  2.1646  1.1008  0.1630
17651TIP3   OH274443   5.652   1.199   0.782 -0.1221 -0.0974  0.1765
17651TIP3    H174444   5.708   1.196   0.860 -0.5952  1.1296  0.5978
17651TIP3    H274445   5.649   1.292   0.760 -1.4694 -0.2207 -0.2243
17652TIP3   OH274446   6.584   6.853   1.445 -0.2963 -0.0441 -0.1095
17652TIP3    H174447   6.533   6.912   1.390  1.1365  2.4446  1.0856
17652TIP3    H274448   6.649   6.815   1.386 -1.0764 -0.2521 -0.8486
17653TIP3   OH274449   5.150   6.692   4.931 -0.2725 -0.0778  0.1529
17653TIP3    H174450   5.120   6.613   4.976  0.3751 -0.3537  0.1219
17653TIP3    H274451   5.075   6.751   4.932 -0.4512 -0.3061  1.0745
17654TIP3   OH274452   4.347   1.399   4.280 -0.0080 -0.2514 -0.0557
17654TIP3    H174453   4.432   1.439   4.297 -0.0420 -0.1592 -0.1030
17654TIP3    H274454   4.327   1.350   4.360 -0.2226  0.2841  0.2219
17655TIP3   OH274455   1.256   4.705   5.243 -0.0903 -0.7420  0.0894
17655TIP3    H174456   1.289   4.718   5.154  2.2055 -1.8894  0.6842
17655TIP3    H274457   1.289   4.780   5.292 -0.0894 -0.8476  0.2523
17656TIP3   OH274458   6.197   1.947   1.214  0.0921 -0.5975  0.4691
17656TIP3    H174459   6.140   1.906   1.279 -3.7074  2.7348 -0.3397
17656TIP3    H274460   6.177   1.902   1.132  0.0574 -0.6816  0.5239
17657TIP3   OH274461   1.054   5.414   5.245 -0.1432 -0.5715 -0.0397
17657TIP3    H174462   1.081   5.402   5.154  2.1926  0.2827  0.4607
17657TIP3    H274463   1.132   5.392   5.296 -0.4486  1.7567  1.5905
17658TIP3   OH274464   3.682   1.514   4.237 -0.4103  0.4193  0.4089
17658TIP3    H174465   3.633   1.522   4.319  2.0742 -3.0007  2.5055
17658TIP3    H274466   3.620   1.474   4.176 -0.8078 -2.5110  2.5412
17659TIP3   OH274467   1.761   5.897   2.508  0.5242  0.1797  0.0986
17659TIP3    H174468   1.734   5.963   2.444  1.2867  0.5409  0.1331
17659TIP3    H274469   1.715   5.920   2.588 -1.1368 -0.7983 -0.5331
17660TIP3   OH274470   2.262   5.692   4.402  0.0808  0.1336 -0.1187
17660TIP3    H174471   2.223   5.769   4.441  0.8536  0.3816  0.1948
17660TIP3    H274472   2.327   5.662   4.466 -0.1291 -0.7099 -0.2826
17661TIP3   OH274473   5.886   2.594   3.516  0.7779  0.0398  0.3782
17661TIP3    H174474   5.808   2.594   3.460  0.3365 -1.8895  0.9291
17661TIP3    H274475   5.851   2.596   3.605  1.4299  1.0590  0.6243
17662TIP3   OH274476   6.564   7.079   5.712  0.3897  0.1112  0.2156
17662TIP3    H174477   6.562   7.170   5.742  0.1541 -0.3466  1.6620
17662TIP3    H274478   6.636   7.076   5.649  0.7491  1.1752  0.5564
17663TIP3   OH274479   7.183   7.159   5.990 -0.3050  0.2009  0.6346
17663TIP3    H174480   7.140   7.177   5.907  1.3135 -1.2008 -0.5752
17663TIP3    H274481   7.157   7.069   6.011  0.3586  0.0852  0.9607
17664TIP3   OH274482   3.498   6.157   5.134 -0.4697  0.1422  0.4136
17664TIP3    H174483   3.411   6.156   5.174  0.3926  0.9122  2.4423
17664TIP3    H274484   3.494   6.228   5.069 -1.1575  0.6380  0.9828
17665TIP3   OH274485   4.539   0.371   4.795  0.5294  0.0205 -0.3713
17665TIP3    H174486   4.465   0.329   4.752 -0.7359  1.6387  0.1315
17665TIP3    H274487   4.517   0.465   4.794  1.4230  0.3144  1.9293
17666TIP3   OH274488   2.052   3.202   3.802 -0.7495  0.4945 -0.2382
17666TIP3    H174489   2.122   3.224   3.863 -0.3224 -0.6456 -0.2931
17666TIP3    H274490   2.096   3.152   3.732 -1.4834  0.4664 -0.6899
17667TIP3   OH274491   0.788   6.229   5.217  0.2686 -0.6271  0.0797
17667TIP3    H174492   0.729   6.292   5.176  0.0950 -0.9855 -0.2269
17667TIP3    H274493   0.868   6.279   5.235 -0.3694  0.0493  1.1620
17668TIP3   OH274494   3.903   2.794   5.796 -0.3310 -0.2275  0.1665
17668TIP3    H174495   3.835   2.784   5.729 -1.3982  0.1314  1.1832
17668TIP3    H274496   3.890   2.720   5.855  0.0748 -0.0746  0.4529
17669TIP3   OH274497   1.991   5.408   5.145 -0.1117  0.0149 -0.2260
17669TIP3    H174498   1.911   5.428   5.097 -0.1362 -1.9560 -1.0802
17669TIP3    H274499   2.023   5.327   5.106  2.7630  1.1609 -0.4846
17670TIP3   OH274500   5.276   4.196   2.366  0.1297  0.4039 -0.3171
17670TIP3    H174501   5.276   4.159   2.278  1.6829  0.5983 -0.4376
17670TIP3    H274502   5.192   4.239   2.375  0.2250  0.9774 -1.9828
17671TIP3   OH274503   6.383   0.247   0.932 -0.2916  0.2198 -0.3228
17671TIP3    H174504   6.312   0.308   0.952 -1.5974 -2.1742  3.5709
17671TIP3    H274505   6.437   0.247   1.011  1.8422 -0.9075 -1.6934
17672TIP3   OH274506   5.489   5.682   0.102  0.1074 -0.2197  0.0998
17672TIP3    H174507   5.467   5.666   0.010  0.1046 -0.8541  0.2099
17672TIP3    H274508   5.577   5.719   0.099  0.2574 -0.5884 -0.1356
17673TIP3   OH274509   4.389   1.480   5.292  0.3658 -0.3906  0.3353
17673TIP3    H174510   4.315   1.481   5.231  1.4294  0.1054 -1.0158
17673TIP3    H274511   4.386   1.565   5.335 -1.3568 -1.3445  2.2784
17674TIP3   OH274512   4.361   4.456   0.894  0.2185 -0.5976  0.2999
17674TIP3    H174513   4.395   4.448   0.983  2.1634  1.5980 -0.1515
17674TIP3    H274514   4.274   4.494   0.905  0.6285  0.1020  1.2896
17675TIP3   OH274515   0.735   1.093   2.479  0.6876 -0.0119 -0.2292
17675TIP3    H174516   0.727   1.047   2.563  1.0362 -1.0927 -0.7772
17675TIP3    H274517   0.806   1.049   2.434  2.4760  2.3742  0.0357
17676TIP3   OH274518   2.485   1.401   0.264 -0.2309 -0.2298 -0.2717
17676TIP3    H174519   2.402   1.447   0.262  0.2220  0.6099 -0.5261
17676TIP3    H274520   2.472   1.325   0.208  0.2021  1.8177 -3.4939
17677TIP3   OH274521   3.992   2.148   3.533 -0.3462  0.1943  1.0259
17677TIP3    H174522   4.062   2.213   3.536 -1.5053  1.4738  0.9911
17677TIP3    H274523   3.983   2.117   3.623 -0.6253  1.0078  1.2816
17678TIP3   OH274524   6.363   2.593   0.312  0.2596 -0.0222 -0.7095
17678TIP3    H174525   6.436   2.588   0.251  1.2014 -0.1197  0.3821
17678TIP3    H274526   6.369   2.513   0.364 -0.0230  0.4200  0.0345
17679TIP3   OH274527   6.890   1.136   2.489 -0.1560  0.0712 -0.4261
17679TIP3    H174528   6.915   1.090   2.569  1.8433 -0.2320 -1.1698
17679TIP3    H274529   6.918   1.226   2.504 -1.0481  0.3261 -0.2592
17680TIP3   OH274530   6.865   1.065   3.750 -0.8461 -0.3782  0.3995
17680TIP3    H174531   6.829   1.153   3.746 -2.7928 -1.0936  0.9682
17680TIP3    H274532   6.908   1.052   3.666  1.4185  1.8470  1.1019
17681TIP3   OH274533   0.226   3.409   1.842  0.3481 -0.4787  0.9750
17681TIP3    H174534   0.318   3.427   1.824  0.3009 -1.1914 -0.0700
17681TIP3    H274535   0.184   3.495   1.846  0.6539 -0.1991 -0.8857
17682TIP3   OH274536   0.621   1.702   5.351  0.1386  0.1279  0.1061
17682TIP3    H174537   0.706   1.658   5.346 -0.1925 -0.4306 -1.1051
17682TIP3    H274538   0.639   1.784   5.398  1.5345  0.4338 -0.8914
17683TIP3   OH274539   0.596   2.731   4.201 -0.4919 -0.3918 -0.1063
17683TIP3    H174540   0.546   2.771   4.271 -1.3955 -0.3579 -0.7619
17683TIP3    H274541   0.662   2.678   4.246  0.0418  0.9704  0.7631
17684TIP3   OH274542   5.258   4.226   3.562  0.0034  0.2714  0.2414
17684TIP3    H174543   5.330   4.163   3.571 -1.4484 -1.3286  1.0898
17684TIP3    H274544   5.258   4.273   3.645  0.4420  0.7312 -0.0072
17685TIP3   OH274545   5.144   0.837   1.210  0.4597  0.4607 -0.0051
17685TIP3    H174546   5.206   0.898   1.251 -1.1644  3.1684 -1.3363
17685TIP3    H274547   5.060   0.858   1.249 -0.2147 -0.6477 -0.8090
17686TIP3   OH274548   0.222   3.512   3.565 -0.7306  0.2062 -0.0175
17686TIP3    H174549   0.192   3.423   3.582 -0.5930 -0.3115 -2.2116
17686TIP3    H274550   0.292   3.502   3.500  0.7017  1.7827  1.1983
17687TIP3   OH274551   5.701   2.438   2.473  0.1037 -0.0950 -0.1155
17687TIP3    H174552   5.758   2.497   2.423  1.1023 -2.2037 -1.6294
17687TIP3    H274553   5.672   2.373   2.409 -1.6168 -0.8031  1.3015
17688TIP3   OH274554   1.315   2.005   4.062 -0.2762  0.2069  0.2773
17688TIP3    H174555   1.362   1.966   3.988  0.1936  0.8282  0.2370
17688TIP3    H274556   1.329   1.945   4.135 -0.5303 -0.2815 -0.0651
17689TIP3   OH274557   5.191   6.055   2.766  0.4004 -0.2202 -0.0766
17689TIP3    H174558   5.205   5.963   2.790 -1.4174 -0.5197 -0.0493
17689TIP3    H274559   5.271   6.079   2.719  2.5020 -0.7367  2.8992
17690TIP3   OH274560   2.281   2.200   5.649  0.3416 -0.0149  0.3200
17690TIP3    H174561   2.301   2.248   5.730  0.7305 -1.2094  0.9578
17690TIP3    H274562   2.364   2.159   5.625  0.1754  0.1525 -0.5819
17691TIP3   OH274563   3.840   0.349  12.771  0.5114 -0.3936  0.0242
17691TIP3    H174564   3.798   0.308  12.847  0.3348 -0.5036 -0.1303
17691TIP3    H274565   3.931   0.361  12.797  1.0566 -2.6633 -0.6036
17692TIP3   OH274566   4.664   4.485   3.572 -0.3202  0.3439 -0.1033
17692TIP3    H174567   4.626   4.493   3.659 -0.1556 -0.8950  0.0880
17692TIP3    H274568   4.590   4.460   3.516 -0.2482  0.2786 -0.1691
17693TIP3   OH274569   0.290   1.430   2.273  0.0159 -0.2177  0.6244
17693TIP3    H174570   0.292   1.395   2.184  0.8540 -0.3721  0.6980
17693TIP3    H274571   0.271   1.523   2.261 -0.0469 -0.2709  0.2970
17694TIP3   OH274572   5.527   0.903   2.521  0.0102 -0.3850 -0.0823
17694TIP3    H174573   5.560   0.906   2.611 -2.0258 -0.8374  0.7477
17694TIP3    H274574   5.513   0.810   2.504 -1.0806 -0.2028 -0.2603
17695TIP3   OH274575   2.953   1.433   4.425  0.0311 -0.1987  0.1728
17695TIP3    H174576   2.977   1.524   4.437 -1.6337  0.0761  1.7803
17695TIP3    H274577   2.917   1.405   4.509 -0.9816 -1.8646 -0.7409
17696TIP3   OH274578   1.004   4.488   4.112  0.6886 -0.9162 -0.0333
17696TIP3    H174579   0.961   4.567   4.143  0.4883 -0.8101 -0.5837
17696TIP3    H274580   0.992   4.425   4.183 -0.8152 -1.0490 -0.3735
17697TIP3   OH274581   1.653   2.062   5.149  0.2834 -0.0720 -0.1099
17697TIP3    H174582   1.671   1.998   5.081 -1.7857  0.6030 -1.4036
17697TIP3    H274583   1.643   2.010   5.229 -1.0425 -1.3782 -1.0717
17698TIP3   OH274584   0.280   3.171   5.421  0.0961 -0.2332 -0.0076
17698TIP3    H174585   0.256   3.243   5.478 -0.7921  0.6411 -1.4107
17698TIP3    H274586   0.317   3.105   5.479  1.0090  1.3733  1.3018
17699TIP3   OH274587   6.616   5.648   2.827 -0.4807  0.8733 -0.5650
17699TIP3    H174588   6.556   5.614   2.760  0.7316 -1.3865 -0.6104
17699TIP3    H274589   6.663   5.570   2.858  3.6879  2.6435 -1.7722
17700TIP3   OH274590   7.007   3.749   3.687  0.4530  0.4052 -0.7040
17700TIP3    H174591   6.936   3.703   3.641  0.3258 -0.1587  0.0323
17700TIP3    H274592   7.041   3.811   3.623  0.3565 -0.4404 -1.6023
17701TIP3   OH274593   5.567   1.223   5.905  0.0712  0.1297 -0.2919
17701TIP3    H174594   5.518   1.305   5.898 -2.4790 -1.3255 -0.9366
17701TIP3    H274595   5.543   1.189   5.991 -0.3427 -0.7619 -0.7492
17702TIP3   OH274596   1.882   3.275   2.865  0.1290 -0.0747 -0.2266
17702TIP3    H174597   1.838   3.253   2.782  0.5310  0.6596 -0.6443
17702TIP3    H274598   1.963   3.224   2.863 -1.0962 -2.1919  0.9906
17703TIP3   OH274599   2.984   6.674  12.821  0.0166 -0.0744 -0.0500
17703TIP3    H174600   2.907   6.678  12.764 -0.7704 -2.7319  0.6914
17703TIP3    H274601   2.949   6.648  12.906  1.4241  1.7506  1.1634
17704TIP3   OH274602   3.918   4.302   4.580  0.3803 -0.1656 -0.7264
17704TIP3    H174603   3.927   4.234   4.647  0.5770  0.5749  0.0208
17704TIP3    H274604   3.827   4.329   4.586  0.9507  1.5987  0.9786
17705TIP3   OH274605   1.831   5.644   2.752 -0.0780 -0.1548 -0.1093
17705TIP3    H174606   1.786   5.560   2.744 -0.6897  0.0892  0.6243
17705TIP3    H274607   1.787   5.688   2.826 -1.0907  1.5946 -1.6508
17706TIP3   OH274608   0.956   3.833   5.576 -0.5963 -1.1313  0.2600
17706TIP3    H174609   0.914   3.768   5.632 -1.3119 -0.8803  0.0325
17706TIP3    H274610   0.927   3.917   5.612 -0.6727 -0.9632 -0.1927
17707TIP3   OH274611   5.214   4.307   1.153  0.3508 -1.0368 -0.3121
17707TIP3    H174612   5.250   4.253   1.223 -1.4062 -1.5896  0.2163
17707TIP3    H274613   5.218   4.251   1.075  1.1061 -0.8952 -0.3795
17708TIP3   OH274614   4.665   5.665   2.218 -0.3110  0.2805 -0.4910
17708TIP3    H174615   4.728   5.617   2.165 -1.9777  0.6297 -2.9646
17708TIP3    H274616   4.612   5.598   2.261 -1.5563 -0.1788 -2.6006
17709TIP3   OH274617   3.381   4.090   0.433 -0.2069  0.0451  0.0211
17709TIP3    H174618   3.326   4.071   0.509 -1.4114  1.2887 -0.4960
17709TIP3    H274619   3.334   4.050   0.360  0.6175 -0.5880 -0.1808
17710TIP3   OH274620   1.363   2.451   5.635 -0.2885  0.4075 -0.0029
17710TIP3    H174621   1.426   2.516   5.667 -1.1456  0.7899  0.9620
17710TIP3    H274622   1.294   2.504   5.594  0.0258 -0.0089 -1.0907
17711TIP3   OH274623   5.207   3.643   0.045  0.1872 -0.1926  0.0516
17711TIP3    H174624   5.264   3.716   0.020 -1.4570  0.8999 -0.6516
17711TIP3    H274625   5.268   3.574   0.073  1.8801  0.6687 -1.2964
17712TIP3   OH274626   1.605   3.599   3.262  0.0722 -0.0692 -0.1828
17712TIP3    H174627   1.628   3.540   3.334 -1.6974 -3.1138 -1.8843
17712TIP3    H274628   1.664   3.574   3.191  0.2658  1.3002 -0.5372
17713TIP3   OH274629   6.227   1.302   2.061 -0.2262  0.5420 -0.0894
17713TIP3    H174630   6.283   1.362   2.111 -0.5914  0.8292 -0.0162
17713TIP3    H274631   6.196   1.355   1.987  1.2014 -0.2000 -1.2690
17714TIP3   OH274632   1.277   5.992   3.094  0.4206 -0.1608 -0.3784
17714TIP3    H174633   1.288   5.919   3.154 -0.4815  0.0333  0.0450
17714TIP3    H274634   1.359   6.041   3.098  1.0282 -1.1409 -0.6652
17715TIP3   OH274635   4.536   3.325   0.239 -0.6272 -0.0096 -0.3622
17715TIP3    H174636   4.592   3.318   0.317 -0.2035  1.8581 -0.4617
17715TIP3    H274637   4.598   3.331   0.166 -0.9905  0.3042 -0.6467
17716TIP3   OH274638   5.604   3.965   1.079  0.4584  0.5383  0.1064
17716TIP3    H174639   5.596   4.051   1.121  0.3875  0.8257 -0.4807
17716TIP3    H274640   5.665   3.979   1.007  0.7913 -0.0114  0.2730
17717TIP3   OH274641   5.039   4.707   2.804  0.8291 -0.1067 -0.3033
17717TIP3    H174642   4.999   4.667   2.727  0.6246  0.3511 -0.4344
17717TIP3    H274643   5.079   4.633   2.851 -1.3474 -0.7875  0.5807
17718TIP3   OH274644   2.221   2.527   1.536 -0.3919 -0.0486  0.1054
17718TIP3    H174645   2.189   2.531   1.446  0.9423 -2.4583 -0.5719
17718TIP3    H274646   2.314   2.505   1.527 -0.3672 -0.9076  2.0547
17719TIP3   OH274647   0.417   4.711   5.341 -0.3729  0.1481  0.7205
17719TIP3    H174648   0.390   4.724   5.432 -0.8564 -0.2363  0.6404
17719TIP3    H274649   0.371   4.632   5.314 -1.5555  1.1696 -0.3795
17720TIP3   OH274650   1.814   0.816   5.312 -0.1288  0.2138  0.2550
17720TIP3    H174651   1.832   0.906   5.339 -0.1097  0.9746 -2.0946
17720TIP3    H274652   1.732   0.794   5.358 -0.9098  1.9542 -0.1912
17721TIP3   OH274653   4.686   4.804   3.652  0.4508  0.3432 -0.0672
17721TIP3    H174654   4.692   4.887   3.604 -1.4073  0.6417  0.1523
17721TIP3    H274655   4.620   4.753   3.605  1.6656 -1.1146 -0.2862
17722TIP3   OH274656   2.187   2.179   1.222 -0.0107  0.2404 -0.0495
17722TIP3    H174657   2.115   2.139   1.173  0.1879  0.2266 -0.3326
17722TIP3    H274658   2.237   2.105   1.256  1.2409  0.1925 -1.8539
17723TIP3   OH274659   5.811   0.096   5.586  0.2953 -0.0949 -0.1399
17723TIP3    H174660   5.854   0.156   5.647 -0.0183 -0.5819  0.5652
17723TIP3    H274661   5.793   0.150   5.508 -1.9038  1.3386  1.2510
17724TIP3   OH274662   1.803   0.969   3.973 -0.3390  0.2297  0.2791
17724TIP3    H174663   1.740   0.900   3.988  0.7314 -0.8634 -0.1035
17724TIP3    H274664   1.785   1.000   3.885 -2.4079  2.1882  1.2833
17725TIP3   OH274665   6.168   1.726   0.218 -0.2699 -0.7658  0.5980
17725TIP3    H174666   6.126   1.767   0.143 -0.0765 -3.4110 -1.0990
17725TIP3    H274667   6.247   1.778   0.233 -0.8680  0.4534 -0.2829
17726TIP3   OH274668   3.523   5.625   4.493  0.4945  0.3219 -0.1096
17726TIP3    H174669   3.479   5.640   4.410 -1.3579  1.5109  1.0076
17726TIP3    H274670   3.568   5.707   4.512  1.3566 -0.1243 -0.1705
17727TIP3   OH274671   2.806   0.448   1.402 -0.4269 -0.2170 -0.3623
17727TIP3    H174672   2.774   0.358   1.393 -0.3984 -0.2238 -0.3959
17727TIP3    H274673   2.732   0.503   1.375 -0.2887 -0.2412 -0.7841
17728TIP3   OH274674   0.440   5.948   5.505 -0.2368 -0.1966  0.4307
17728TIP3    H174675   0.475   6.032   5.478 -0.3275  0.2393  1.5880
17728TIP3    H274676   0.451   5.891   5.429  1.5561  0.3378  0.2354
17729TIP3   OH274677   2.923   3.511   0.827 -0.6707  0.0337  0.7612
17729TIP3    H174678   2.858   3.448   0.860  0.8162 -1.1107  1.6387
17729TIP3    H274679   2.963   3.547   0.905  1.3456 -1.0330  0.2911
17730TIP3   OH274680   0.585   3.098  13.761  0.0522  0.3638 -0.0030
17730TIP3    H174681   0.636   3.176  13.785  0.9878 -0.8184  2.0680
17730TIP3    H274682   0.523   3.087  13.832 -0.4010 -0.5265 -0.5191
17731TIP3   OH274683   0.418   1.968   4.646 -0.1053  0.0057 -0.3871
17731TIP3    H174684   0.373   2.052   4.659 -0.3528 -0.0182 -1.0098
17731TIP3    H274685   0.347   1.907   4.625 -0.0788 -0.6813  1.4350
17732TIP3   OH274686   6.222   0.917   4.688  0.3208 -0.0275 -0.5476
17732TIP3    H174687   6.181   1.004   4.681 -1.5367 -0.6867  1.0768
17732TIP3    H274688   6.315   0.933   4.674  0.0300  2.2257 -0.3001
17733TIP3   OH274689   6.988   6.269   1.563 -0.1584 -0.5722  0.5868
17733TIP3    H174690   7.032   6.265   1.648  0.1452  0.3363  0.4813
17733TIP3    H274691   6.909   6.216   1.575 -0.7817  0.5569  1.8348
17734TIP3   OH274692   6.004   2.307   3.312 -0.1394  0.2048  0.0384
17734TIP3    H174693   6.076   2.358   3.274  1.5491 -0.2076  2.4584
17734TIP3    H274694   6.014   2.220   3.273 -0.2705  0.5262 -0.7404
17735TIP3   OH274695   6.771   1.256   0.991 -0.1814 -0.0382  0.5742
17735TIP3    H174696   6.807   1.239   1.078  1.0171  1.7123  0.4645
17735TIP3    H274697   6.691   1.306   1.007  0.6562  1.3165  0.6781
17736TIP3   OH274698   2.431   2.858   4.948 -0.7644  0.2893 -0.3160
17736TIP3    H174699   2.519   2.870   4.983 -0.4003  2.0892 -1.6962
17736TIP3    H274700   2.415   2.764   4.955  1.2446 -0.0724  0.0156
17737TIP3   OH274701   5.107   5.002   0.991 -0.7219  0.3583 -0.0511
17737TIP3    H174702   5.054   5.050   1.054 -0.4402  0.1609  0.3372
17737TIP3    H274703   5.049   4.990   0.915 -1.4201 -0.3414  0.5759
17738TIP3   OH274704   4.525   5.733   3.279 -0.0597  0.0580  0.0119
17738TIP3    H174705   4.508   5.655   3.331 -0.0115  0.5067  0.7057
17738TIP3    H274706   4.439   5.774   3.268 -0.4938 -1.2544 -2.2921
17739TIP3   OH274707   6.418   1.359   0.682 -0.2210 -0.1241 -0.6408
17739TIP3    H174708   6.459   1.433   0.639  0.0091 -0.0056 -0.2238
17739TIP3    H274709   6.336   1.346   0.634  0.4054 -0.5197 -1.6336
17740TIP3   OH274710   2.550   6.909   3.526 -0.2404 -0.3537  0.1849
17740TIP3    H174711   2.594   6.889   3.444 -0.7437 -0.6694 -0.0133
17740TIP3    H274712   2.482   6.972   3.503  0.4837  0.5936  0.5874
17741TIP3   OH274713   5.655   4.368   2.305 -0.0162 -0.1678  0.0999
17741TIP3    H174714   5.722   4.427   2.272 -0.6944  0.5954  0.0650
17741TIP3    H274715   5.704   4.294   2.342  0.8194  0.1640 -0.3224
17742TIP3   OH274716   6.310   2.117   3.094 -0.3908  0.5606 -0.0825
17742TIP3    H174717   6.401   2.091   3.103 -0.5756 -0.1481 -0.2383
17742TIP3    H274718   6.287   2.156   3.179 -0.1501  0.1025  0.1955
17743TIP3   OH274719   2.310   6.918  13.255  0.2256 -0.0393  0.0548
17743TIP3    H174720   2.323   6.974  13.331  0.6226 -0.1241  0.0501
17743TIP3    H274721   2.267   6.840  13.290  0.2083  0.0147  0.1552
17744TIP3   OH274722   3.963   4.136   4.798  0.2863  0.3512  0.5220
17744TIP3    H174723   3.954   4.209   4.859  0.0814  1.2133 -0.5234
17744TIP3    H274724   3.892   4.077   4.821 -0.0448  0.8643  0.8378
17745TIP3   OH274725   1.420   2.973   5.906  0.1338 -0.4326 -0.0992
17745TIP3    H174726   1.348   3.032   5.928  0.2326 -0.3051 -0.1164
17745TIP3    H274727   1.478   2.976   5.983 -0.3304 -1.2300  0.2948
17746TIP3   OH274728   2.624   2.835   5.437 -0.0148 -0.6294  0.1302
17746TIP3    H174729   2.679   2.770   5.393 -0.2198 -0.4904 -0.3337
17746TIP3    H274730   2.672   2.857   5.516  0.8145 -0.1931 -0.4785
17747TIP3   OH274731   6.982   2.535   4.499  0.2259 -0.3163 -0.2444
17747TIP3    H174732   6.891   2.549   4.527  0.1287  1.6079 -1.4054
17747TIP3    H274733   6.974   2.473   4.426  0.0215 -1.3850  0.6581
17748TIP3   OH274734   7.184   0.158   2.770 -0.7470  0.2994 -0.1908
17748TIP3    H174735   7.276   0.144   2.791 -0.0313 -0.0790 -3.0732
17748TIP3    H274736   7.158   0.234   2.821  1.7436  1.6102 -0.7421
17749TIP3   OH274737   1.251   4.643   1.882 -0.3325  0.0012  0.6609
17749TIP3    H174738   1.189   4.714   1.895 -1.3616 -0.8860  0.7475
17749TIP3    H274739   1.296   4.633   1.966 -1.3168 -0.4840  1.1466
17750TIP3   OH274740   4.474   6.330   3.728 -0.3407  0.0841 -0.8493
17750TIP3    H174741   4.396   6.353   3.778 -0.8295 -0.8616 -1.1492
17750TIP3    H274742   4.440   6.294   3.646  0.3295 -2.1158 -0.2420
17751TIP3   OH274743   0.178   6.770  14.614  0.3387 -0.1215 -0.2976
17751TIP3    H174744   0.108   6.708  14.634  1.3914 -1.1387  0.3269
17751TIP3    H274745   0.251   6.715  14.586  1.3840  0.8127  0.5140
17752TIP3   OH274746   5.306   2.612   5.065 -0.1151  0.2363  0.1725
17752TIP3    H174747   5.356   2.543   5.022  1.4797  1.5114 -0.1611
17752TIP3    H274748   5.249   2.647   4.997 -0.5052 -0.3645  0.1870
17753TIP3   OH274749   0.388   0.602   5.123  0.0606  0.1506 -0.2641
17753TIP3    H174750   0.294   0.587   5.106 -0.1212  0.2735  0.5942
17753TIP3    H274751   0.423   0.629   5.038 -0.5300 -0.6373 -0.7762
17754TIP3   OH274752   3.617   1.695   3.412  0.1665 -0.1355 -0.5954
17754TIP3    H174753   3.637   1.621   3.355  0.3822  0.2905 -1.0745
17754TIP3    H274754   3.551   1.661   3.473  0.5913 -0.8510 -0.5228
17755TIP3   OH274755   0.633   5.024   3.204 -0.7225  0.1011 -0.5278
17755TIP3    H174756   0.688   5.060   3.273  0.5004  0.5443 -1.6879
17755TIP3    H274757   0.547   5.015   3.244 -0.0193  0.1921  1.0865
17756TIP3   OH274758   0.408   2.105   4.994  0.1321 -0.3674 -0.2387
17756TIP3    H174759   0.399   2.160   4.916 -1.1404  1.2340  0.9756
17756TIP3    H274760   0.347   2.143   5.058 -1.2102 -3.4916  0.5260
17757TIP3   OH274761   6.659   2.916   3.869 -0.3567 -0.1519  0.1065
17757TIP3    H174762   6.629   2.827   3.849 -0.2750 -0.5432  1.5867
17757TIP3    H274763   6.582   2.971   3.853 -0.7131 -0.6249  0.1503
17758TIP3   OH274764   2.164   3.897   3.652 -0.1880  0.0406  0.1585
17758TIP3    H174765   2.108   3.891   3.729 -0.7404  1.9379 -0.0570
17758TIP3    H274766   2.247   3.931   3.685  0.1903 -0.8656  0.1697
17759TIP3   OH274767   4.628   4.474   4.844  0.4717  0.2469  0.2913
17759TIP3    H174768   4.597   4.559   4.811  0.6024 -0.3192 -1.3517
17759TIP3    H274769   4.560   4.412   4.816  0.5092 -0.2381  1.2535
17760TIP3   OH274770   0.093   2.991   1.687  0.2856 -0.3590  0.3114
17760TIP3    H174771   0.171   3.023   1.733 -0.3156  0.0268  1.0790
17760TIP3    H274772   0.103   2.896   1.685  0.1197 -0.4172  1.6186
17761TIP3   OH274773   3.841   0.259   4.609  0.4757 -0.1841 -0.0929
17761TIP3    H174774   3.899   0.244   4.533  0.6857  1.5605 -0.3220
17761TIP3    H274775   3.776   0.190   4.602  1.0334 -0.6362 -1.3393
17762TIP3   OH274776   4.640   1.551   3.962 -0.1947  0.0345 -0.2584
17762TIP3    H174777   4.609   1.540   3.872 -1.7981 -0.3527  0.3132
17762TIP3    H274778   4.663   1.463   3.990 -1.1143 -0.0785  0.1818
17763TIP3   OH274779   3.634   5.661  15.054  0.0347  0.4447 -0.0920
17763TIP3    H174780   3.578   5.715  14.999 -1.3530 -0.7866  0.0424
17763TIP3    H274781   3.589   5.656  15.138  1.0526  0.5554  0.4749
17764TIP3   OH274782   7.048   2.732   4.085 -0.6365 -0.2211  0.4375
17764TIP3    H174783   7.132   2.764   4.117 -1.1466  1.3744  0.2274
17764TIP3    H274784   6.989   2.741   4.160 -0.9790  0.1038  0.1301
17765TIP3   OH274785   3.660   4.017   2.101  0.5747  0.2904 -0.0429
17765TIP3    H174786   3.593   3.950   2.116 -1.2849  1.9025 -0.6046
17765TIP3    H274787   3.636   4.089   2.160  1.1685  1.3173 -1.0045
17766TIP3   OH274788   4.500   5.138   5.140  0.3988  0.3226 -0.0906
17766TIP3    H174789   4.526   5.211   5.084 -1.3756  1.4641  0.4780
17766TIP3    H274790   4.472   5.069   5.079 -0.5935  1.1847 -0.6436
17767TIP3   OH274791   2.574   4.100   2.721  0.4854  0.2655 -0.2187
17767TIP3    H174792   2.560   4.135   2.809  0.7444  0.4758 -0.2593
17767TIP3    H274793   2.587   4.006   2.734  3.1613  0.6172  0.2856
17768TIP3   OH274794   6.210   3.713   4.492 -0.6035  0.7443 -0.4408
17768TIP3    H174795   6.149   3.684   4.424 -0.5582 -0.2680 -0.0706
17768TIP3    H274796   6.279   3.759   4.444 -0.9387  0.6693 -1.0026
17769TIP3   OH274797   1.505   5.702   1.989  0.0318 -0.2461  0.1258
17769TIP3    H174798   1.413   5.722   1.972  0.2997  0.4342 -0.6103
17769TIP3    H274799   1.535   5.773   2.045 -0.1326 -1.0092  1.2145
17770TIP3   OH274800   4.363   3.079   4.385 -0.0680 -0.2986 -0.3032
17770TIP3    H174801   4.342   3.153   4.328 -1.6158 -1.2062 -0.9669
17770TIP3    H274802   4.278   3.052   4.421  0.3282 -2.2953 -0.7602
17771TIP3   OH274803   4.106   4.477   4.504 -0.1252 -0.2078  0.2830
17771TIP3    H174804   4.055   4.402   4.536 -1.9994 -0.0106 -1.9786
17771TIP3    H274805   4.129   4.526   4.583 -0.1296 -2.3344  1.6916
17772TIP3   OH274806   2.233   2.538   0.642 -0.2944  0.4395 -0.2652
17772TIP3    H174807   2.230   2.529   0.738 -2.4390 -0.0480 -0.3140
17772TIP3    H274808   2.324   2.560   0.623 -0.5240  4.7385  2.2397
17773TIP3   OH274809   0.582   3.635   3.668 -0.0621  0.0751 -0.0258
17773TIP3    H174810   0.549   3.687   3.595 -0.4690  0.6704  0.5705
17773TIP3    H274811   0.655   3.687   3.703 -0.3495  0.1660  0.4521
17774TIP3   OH274812   2.782   5.610   1.230  0.2988 -0.0518 -0.1765
17774TIP3    H174813   2.874   5.634   1.230 -0.0284  1.3864 -1.3423
17774TIP3    H274814   2.773   5.549   1.157  0.3831 -0.4785  0.1662
17775TIP3   OH274815   3.574   2.342   0.060 -0.8653  0.0892  0.0902
17775TIP3    H174816   3.608   2.372  -0.024  0.5610  1.8139  1.2194
17775TIP3    H274817   3.557   2.248   0.046  1.8359 -0.2842 -1.3845
17776TIP3   OH274818   3.572   1.171   4.166 -0.8341  0.0962 -0.7580
17776TIP3    H174819   3.552   1.254   4.122 -0.9742  0.4395 -0.0729
17776TIP3    H274820   3.524   1.176   4.249  0.5162  0.0914  0.0656
17777TIP3   OH274821   0.362   3.948   4.899  0.5004 -0.2029  0.1125
17777TIP3    H174822   0.324   3.909   4.820 -2.2716  0.2282  1.1533
17777TIP3    H274823   0.346   3.885   4.968 -1.0156  1.2151  1.1379
17778TIP3   OH274824   6.533   4.762   5.768  0.3300 -0.1360 -0.2064
17778TIP3    H174825   6.511   4.669   5.781  0.7200 -0.1794  0.1620
17778TIP3    H274826   6.628   4.764   5.761  0.3490  0.2774  0.1244
17779TIP3   OH274827   4.730   3.858   3.811 -0.1710  0.0897  0.5646
17779TIP3    H174828   4.811   3.883   3.766  1.2522 -1.1285  2.3146
17779TIP3    H274829   4.687   3.797   3.750 -1.5771  3.2477 -1.8666
17780TIP3   OH274830   6.208   5.179   0.019  0.1430 -0.0408 -0.0089
17780TIP3    H174831   6.149   5.220  -0.045  1.4513  0.7754 -0.7594
17780TIP3    H274832   6.235   5.098  -0.023 -0.7183 -0.6057  0.5044
17781TIP3   OH274833   0.335   4.887   1.955 -0.2571  0.1535  0.0941
17781TIP3    H174834   0.275   4.815   1.977  0.4289 -0.6791 -0.6756
17781TIP3    H274835   0.327   4.896   1.860  0.5510  0.2818  0.0304
17782TIP3   OH274836   4.699   4.127  15.309 -0.0446  0.1722 -0.7232
17782TIP3    H174837   4.763   4.061  15.335 -0.1591 -0.0777 -1.0615
17782TIP3    H274838   4.736   4.167  15.230  0.1809  0.7448 -0.3278
17783TIP3   OH274839   0.608   3.426   4.331  0.0966  0.1359  0.2367
17783TIP3    H174840   0.603   3.494   4.399 -1.1879 -0.2412  0.5408
17783TIP3    H274841   0.579   3.470   4.251 -3.4427 -0.6260  0.9248
17784TIP3   OH274842   5.625   3.271  14.502 -0.1387  0.5365 -0.7574
17784TIP3    H174843   5.572   3.234  14.430 -1.1496 -1.5557  0.9269
17784TIP3    H274844   5.588   3.231  14.581 -0.9547  4.8507  1.3158
17785TIP3   OH274845   0.751   0.699   2.316  0.6249 -0.4889  0.3997
17785TIP3    H174846   0.764   0.665   2.228  2.7362  1.8109 -0.3133
17785TIP3    H274847   0.656   0.714   2.323  0.5740  0.7498 -2.1108
17786TIP3   OH274848   1.468   0.807   5.013 -0.0167  0.0043 -0.2267
17786TIP3    H174849   1.477   0.790   5.107 -1.6113 -0.2938 -0.1084
17786TIP3    H274850   1.436   0.725   4.977  2.4246 -0.5310 -1.3951
17787TIP3   OH274851   4.010   7.101   3.382  0.0604 -0.4201 -0.2418
17787TIP3    H174852   4.011   7.050   3.462 -2.6669 -1.2809 -0.6429
17787TIP3    H274853   4.042   7.042   3.314 -1.7102 -1.2165 -0.4501
17788TIP3   OH274854   2.270   3.752   4.932  0.4594  0.3961 -0.1358
17788TIP3    H174855   2.331   3.818   4.964  1.5722 -0.0290 -1.2767
17788TIP3    H274856   2.269   3.764   4.837  0.7396 -1.2352 -0.3787
17789TIP3   OH274857   2.759   5.331   0.325 -0.0053 -0.6194 -0.3424
17789TIP3    H174858   2.787   5.415   0.362  1.1673 -0.5176 -1.4125
17789TIP3    H274859   2.666   5.343   0.308  0.0209  0.2635  0.0342
17790TIP3   OH274860   4.151   1.043   4.622  0.3522 -0.1633  0.2647
17790TIP3    H174861   4.154   1.113   4.687  0.6263 -0.8879  1.0477
17790TIP3    H274862   4.148   0.963   4.673  0.8762 -0.7626 -0.6225
17791TIP3   OH274863   4.163   3.048  15.268 -0.7966  0.1707 -0.0809
17791TIP3    H174864   4.152   2.975  15.329  1.3716 -0.6123 -0.5273
17791TIP3    H274865   4.178   3.124  15.323  1.0163 -0.5061  0.4338
17792TIP3   OH274866   2.177   2.383   4.058  0.0835  0.5916  0.1610
17792TIP3    H174867   2.252   2.350   4.107 -2.0240  0.4653  3.7352
17792TIP3    H274868   2.190   2.478   4.056  0.8170  0.4884 -0.1639
17793TIP3   OH274869   2.207   0.151   4.728 -0.3273  0.0581 -0.2819
17793TIP3    H174870   2.231   0.059   4.730  1.6436  0.5443  0.6320
17793TIP3    H274871   2.255   0.186   4.653 -0.5026  0.4830 -0.1988
17794TIP3   OH274872   3.341   0.253   2.184  0.3941  0.4799 -0.1074
17794TIP3    H174873   3.287   0.281   2.110  0.8823  0.6109 -0.4269
17794TIP3    H274874   3.309   0.166   2.207 -0.0727  0.6373 -0.1678
17795TIP3   OH274875   0.630   3.151   5.411 -0.0735  0.1772  0.0072
17795TIP3    H174876   0.685   3.164   5.334 -0.5805  0.3951 -0.3245
17795TIP3    H274877   0.607   3.239   5.439 -0.8037  0.0763 -0.2607
17796TIP3   OH274878   0.593   3.010   5.646 -0.2761  0.2636  0.2598
17796TIP3    H174879   0.521   3.067   5.673  1.2782  1.2481  2.6749
17796TIP3    H274880   0.643   3.062   5.584 -0.7255  0.1832 -0.1798
17797TIP3   OH274881   6.111   3.071  14.647 -0.3199 -0.4242  0.5261
17797TIP3    H174882   6.188   3.123  14.623  0.5187 -0.5644  2.6845
17797TIP3    H274883   6.147   2.993  14.688 -1.6174 -1.1836  0.2534
17798TIP3   OH274884   4.141   3.855   0.656  0.2535  0.0409 -0.0410
17798TIP3    H174885   4.139   3.776   0.603  1.3162  2.8197 -4.9134
17798TIP3    H274886   4.049   3.881   0.665  0.0572 -0.1321 -1.3324
17799TIP3   OH274887   1.594   2.182   2.342  0.3835 -0.2044 -0.0755
17799TIP3    H174888   1.639   2.253   2.297 -0.9654  1.0226  0.4587
17799TIP3    H274889   1.535   2.225   2.403 -0.4576 -1.7880  0.2898
17800TIP3   OH274890   4.104   3.097   4.081 -0.1311 -0.4194  0.4606
17800TIP3    H174891   4.034   3.090   4.146  0.2732  0.4628  1.0052
17800TIP3    H274892   4.166   3.158   4.119  1.0535 -1.3427  0.0748
17801TIP3   OH274893   0.075   1.494   3.008  0.0100 -0.1591  0.4035
17801TIP3    H174894   0.147   1.431   3.017  0.3585  0.2489  0.4737
17801TIP3    H274895   0.116   1.580   3.020 -0.0563  0.2311 -1.7124
17802TIP3   OH274896   4.688   2.465  14.880 -0.1634 -0.3355 -0.1404
17802TIP3    H174897   4.605   2.511  14.870  0.9173  1.3550 -2.1306
17802TIP3    H274898   4.665   2.372  14.882 -2.2207  0.1401  1.5175
17803TIP3   OH274899   1.956   2.941   1.841 -0.8760  0.1233  0.8041
17803TIP3    H174900   2.011   2.933   1.764 -3.3480  0.3654 -1.1101
17803TIP3    H274901   2.005   2.997   1.901  1.4969 -0.8146 -0.1504
17804TIP3   OH274902   3.098   3.537   2.891 -0.5654 -0.2602  0.2150
17804TIP3    H174903   3.023   3.481   2.874 -0.7367 -0.6199  1.9648
17804TIP3    H274904   3.082   3.615   2.838  0.3568 -2.2770 -3.3746
17805TIP3   OH274905   1.734   6.124   5.141 -0.4349 -0.2422 -0.3821
17805TIP3    H174906   1.828   6.142   5.133  0.2773 -3.0961  0.3986
17805TIP3    H274907   1.702   6.190   5.201  1.3206  0.1097  0.2289
17806TIP3   OH274908   2.703   1.416   4.281 -0.2049  0.0759 -0.3181
17806TIP3    H174909   2.774   1.382   4.336 -1.3216  0.0860  1.2073
17806TIP3    H274910   2.638   1.345   4.280  0.5161 -0.6802 -3.2028
17807TIP3   OH274911   3.211   6.747   4.975 -0.5622  0.3318  0.2362
17807TIP3    H174912   3.204   6.841   4.993  2.3413  0.9049 -1.0712
17807TIP3    H274913   3.303   6.727   4.987 -0.8995 -2.1192 -0.7193
17808TIP3   OH274914   6.584   4.890   5.150  0.7034 -0.7574 -0.0152
17808TIP3    H174915   6.628   4.969   5.116 -0.8352  0.4982  0.7863
17808TIP3    H274916   6.642   4.859   5.220 -0.1780  1.6145  1.9087
17809TIP3   OH274917   6.487   6.060   3.969  0.3277  0.5672  0.0733
17809TIP3    H174918   6.488   6.123   3.896  1.1835 -0.6025 -0.9774
17809TIP3    H274919   6.402   6.074   4.011 -0.9234  0.1785 -2.1712
17810TIP3   OH274920   4.484   0.732   3.472  0.0405  0.2135 -0.6204
17810TIP3    H174921   4.513   0.646   3.503 -1.6527  0.2749  1.3922
17810TIP3    H274922   4.537   0.794   3.522 -0.2301  0.3105 -0.4472
17811TIP3   OH274923   4.034   1.101  14.219 -0.4414 -0.1110 -0.0609
17811TIP3    H174924   4.085   1.156  14.159  0.2882 -0.1613  0.4914
17811TIP3    H274925   4.002   1.029  14.165  0.8525 -0.5701 -0.2485
17812TIP3   OH274926   2.066   5.134   3.083  0.4224 -0.4565  0.1663
17812TIP3    H174927   2.088   5.215   3.038  0.6568 -0.8192 -0.3929
17812TIP3    H274928   2.070   5.067   3.014 -1.8677 -0.6448  0.1520
17813TIP3   OH274929   2.791   1.643   3.829  0.1480  0.0032 -0.1507
17813TIP3    H174930   2.723   1.609   3.887  1.0795  0.1781  1.0650
17813TIP3    H274931   2.859   1.575   3.829  1.4532  1.2495  1.2958
17814TIP3   OH274932   2.332   5.070   4.011  0.3991 -0.6070  0.0882
17814TIP3    H174933   2.422   5.035   4.013 -0.1042 -1.9993 -0.5902
17814TIP3    H274934   2.314   5.095   4.101  1.8411  0.7168  0.0544
17815TIP3   OH274935   5.235   6.435   3.114  0.4221  0.5903  0.9397
17815TIP3    H174936   5.311   6.479   3.075 -0.8951  1.6094 -0.6705
17815TIP3    H274937   5.252   6.436   3.208  2.1170  1.3099  0.6694
17816TIP3   OH274938   4.463   6.536   4.856  0.5666 -0.0749 -0.1329
17816TIP3    H174939   4.523   6.589   4.909 -0.3577 -0.1048  0.9776
17816TIP3    H274940   4.407   6.492   4.920 -1.6964  1.1671 -1.1374
17817TIP3   OH274941   4.948   5.788   1.863  0.1704  0.1481  0.5113
17817TIP3    H174942   4.998   5.851   1.810  1.6382  0.4592  2.1804
17817TIP3    H274943   4.858   5.795   1.830  0.5171  2.3062 -0.1126
17818TIP3   OH274944   1.581   1.598   1.123 -0.1185  0.7898 -0.1436
17818TIP3    H174945   1.495   1.564   1.100  0.4473  0.1892 -1.5248
17818TIP3    H274946   1.638   1.521   1.121  1.2417  1.7172 -3.4997
17819TIP3   OH274947   3.946   7.201   5.399 -0.4488  0.4997  0.2623
17819TIP3    H174948   3.880   7.151   5.448  0.4679 -1.4332 -0.3922
17819TIP3    H274949   3.895   7.247   5.332 -1.4378  1.3234  1.5385
17820TIP3   OH274950   2.901   3.249   2.727  0.1561 -0.3329  0.5441
17820TIP3    H174951   2.838   3.178   2.714 -0.9833  0.9260 -1.2501
17820TIP3    H274952   2.986   3.205   2.732 -0.1921 -1.7828 -3.1212
17821TIP3   OH274953   2.026   0.396   3.585  0.1149  0.5093  0.6004
17821TIP3    H174954   2.044   0.302   3.582 -3.2563 -0.2462  0.7288
17821TIP3    H274955   2.111   0.435   3.608  1.6527 -2.4448  0.4718
17822TIP3   OH274956   3.077   2.310  14.013  0.7785  0.2737  0.4526
17822TIP3    H174957   3.054   2.367  14.087 -1.0912  0.6889 -0.3791
17822TIP3    H274958   3.024   2.231  14.026 -1.3311  1.2443 -1.5201
17823TIP3   OH274959   5.255   5.361   2.608  0.2406  0.1561  0.1725
17823TIP3    H174960   5.176   5.341   2.556  0.8936 -0.5133 -0.5923
17823TIP3    H274961   5.226   5.427   2.671 -0.9021  0.0248 -0.1850
17824TIP3   OH274962   2.390   1.923   2.855  0.3686  0.3065 -0.6026
17824TIP3    H174963   2.330   1.971   2.913 -0.4043 -0.0023 -1.1453
17824TIP3    H274964   2.440   1.867   2.915  0.3930  0.8465 -0.1037
17825TIP3   OH274965   4.197   0.098   4.218 -0.0100 -0.0834  0.3567
17825TIP3    H174966   4.164   0.183   4.247 -2.9709 -0.2656 -2.0137
17825TIP3    H274967   4.283   0.118   4.181  0.1478  1.5277  1.4838
17826TIP3   OH274968   1.547   2.956   5.312 -0.2791 -0.2589 -0.2818
17826TIP3    H174969   1.547   2.874   5.361 -0.4564  0.2632  0.6152
17826TIP3    H274970   1.507   3.020   5.371  1.1994  0.8137 -0.3785
17827TIP3   OH274971   3.371   3.701   5.076  0.2366 -0.0808 -0.2181
17827TIP3    H174972   3.301   3.735   5.132  1.7137  3.8240 -0.4027
17827TIP3    H274973   3.345   3.727   4.988  1.5097  0.8023 -0.3621
17828TIP3   OH274974   0.014   3.889   2.439  1.0932 -0.3948 -0.3675
17828TIP3    H174975   0.047   3.879   2.528  1.3080 -1.3430 -0.5403
17828TIP3    H274976  -0.073   3.927   2.450  0.1545 -2.5700  0.4314
17829TIP3   OH274977   6.133   3.829   0.734 -0.1583 -0.0544  0.2573
17829TIP3    H174978   6.176   3.823   0.819 -0.1030 -0.7990  0.1750
17829TIP3    H274979   6.145   3.921   0.708 -1.7034  0.6570  1.8545
17830TIP3   OH274980   5.587   3.787   4.115  0.4134  0.0037  0.0796
17830TIP3    H174981   5.631   3.703   4.104  1.5672  0.6738 -0.7557
17830TIP3    H274982   5.559   3.788   4.206  0.7208 -1.1192  0.2039
17831TIP3   OH274983   5.248   7.192   3.380 -0.0693 -0.2457 -0.1629
17831TIP3    H174984   5.304   7.249   3.327  0.0929 -0.4454 -0.2106
17831TIP3    H274985   5.164   7.236   3.384  0.3216  0.4536  0.5640
17832TIP3   OH274986   0.596   3.495   2.048 -0.3768  0.4914  0.0531
17832TIP3    H174987   0.588   3.583   2.086 -1.2295 -0.5032  2.3053
17832TIP3    H274988   0.686   3.469   2.068 -0.6926  0.1408  1.0642
17833TIP3   OH274989   3.983   2.488   3.071  0.3619 -0.4172  0.1046
17833TIP3    H174990   3.887   2.491   3.062  0.5272  0.9639 -2.1458
17833TIP3    H274991   4.004   2.558   3.132 -0.0416 -0.3626  0.1840
17834TIP3   OH274992   0.093   5.444   3.383 -0.1833 -0.1824  0.0159
17834TIP3    H174993   0.152   5.428   3.457  0.2943  0.1225 -0.2877
17834TIP3    H274994   0.121   5.529   3.349 -1.0654  0.1500  0.1088
17835TIP3   OH274995   7.083   0.889   2.201 -0.5274  0.1342  0.0730
17835TIP3    H174996   7.017   0.951   2.233  1.1046  1.1562  1.6778
17835TIP3    H274997   7.065   0.808   2.249 -1.6018 -0.1360 -0.7459
17836TIP3   OH274998   6.804   2.995   1.570  0.1737 -0.4863 -0.1353
17836TIP3    H174999   6.813   2.906   1.537  0.2443 -0.3348 -0.5183
17836TIP3    H275000   6.729   3.031   1.523 -1.4061 -1.1367  1.7289
17837TIP3   OH275001   4.889   1.658   5.177  0.0476  0.6606  0.1578
17837TIP3    H175002   4.852   1.590   5.233  2.4000 -1.2211 -0.4188
17837TIP3    H275003   4.943   1.711   5.236 -1.2968  1.7100  0.4916
17838TIP3   OH275004   0.509   2.580   0.643  0.5062  0.0134 -0.0312
17838TIP3    H175005   0.458   2.532   0.709 -0.4315  1.0431  0.0183
17838TIP3    H275006   0.600   2.567   0.670  0.2024 -0.5821  0.7713
17839TIP3   OH275007   2.227   4.122  12.166 -0.0794  0.5888 -0.3236
17839TIP3    H175008   2.302   4.171  12.201 -1.2963  0.7944  2.2508
17839TIP3    H275009   2.160   4.189  12.149 -0.5197  0.1806 -0.2149
17840TIP3   OH275010   2.788   3.062   4.159  0.0063 -0.3220  0.3572
17840TIP3    H175011   2.802   3.121   4.233  0.2854 -0.1141  0.1445
17840TIP3    H275012   2.877   3.039   4.131 -0.0246  1.2017 -1.1806
17841TIP3   OH275013   4.889   2.228   3.486 -0.4106 -0.0852  0.2034
17841TIP3    H175014   4.936   2.301   3.526 -1.2020 -0.4461  1.8745
17841TIP3    H275015   4.933   2.149   3.520  1.1048 -0.4613 -2.3886
17842TIP3   OH275016   6.842   4.189   6.081  0.1739 -0.6688  0.6745
17842TIP3    H175017   6.818   4.207   5.991  1.2369  1.5577  0.7651
17842TIP3    H275018   6.760   4.194   6.130 -0.7399 -3.7979 -0.3219
17843TIP3   OH275019   6.461   2.546   5.262 -0.0665 -0.5451 -0.5792
17843TIP3    H175020   6.372   2.575   5.282  0.8225  1.9909  0.0165
17843TIP3    H275021   6.462   2.453   5.287 -1.6564  0.1325  2.5185
17844TIP3   OH275022   5.295   5.929   1.813  0.1665 -0.2550 -0.1915
17844TIP3    H175023   5.324   5.838   1.808 -0.1214 -0.3800  0.3732
17844TIP3    H275024   5.200   5.924   1.806  0.1334 -0.0175  0.0806
17845TIP3   OH275025   0.619   6.279   4.591  0.2140  0.2733  0.1608
17845TIP3    H175026   0.610   6.343   4.521 -2.0148 -0.9980 -0.8128
17845TIP3    H275027   0.692   6.224   4.565  1.6592  1.8771  0.6331
17846TIP3   OH275028   5.429   5.937   0.556  0.0820  0.0827 -0.5564
17846TIP3    H175029   5.454   5.856   0.510  0.0434  0.2181 -0.8166
17846TIP3    H275030   5.392   5.907   0.639  0.0413 -0.1692 -0.6648
17847TIP3   OH275031   0.623   1.217   3.086 -0.0299  0.2511 -0.0855
17847TIP3    H175032   0.698   1.249   3.036  0.2623 -1.6401 -0.9393
17847TIP3    H275033   0.550   1.269   3.055  0.4306  0.1529 -1.3951
17848TIP3   OH275034   4.280   6.130   4.938  0.2073 -0.1131 -0.4581
17848TIP3    H175035   4.371   6.157   4.953 -0.5423  0.7819  3.7650
17848TIP3    H275036   4.229   6.209   4.957 -1.5619 -1.6182  1.5287
17849TIP3   OH275037   5.938   1.056   2.740  0.9706 -0.2423  0.2372
17849TIP3    H175038   5.904   1.005   2.666 -2.8674 -1.5873  2.6095
17849TIP3    H275039   5.868   1.118   2.760  2.4679  0.9845  1.9384
17850TIP3   OH275040   1.817   1.501   3.586  0.4297 -0.9508  0.4634
17850TIP3    H175041   1.846   1.586   3.619  0.2333 -0.6018 -0.2451
17850TIP3    H275042   1.755   1.469   3.652  1.5229 -1.1679  1.4060
17851TIP3   OH275043   5.194   6.763   3.003  0.0390 -0.1823  0.1133
17851TIP3    H175044   5.213   6.779   3.096  0.0102  0.6432 -0.0146
17851TIP3    H275045   5.103   6.734   3.002 -0.4953  1.4197  0.2050
17852TIP3   OH275046   3.075   3.030   4.166 -0.5539 -0.2998 -0.2276
17852TIP3    H175047   3.076   3.094   4.237 -1.5332 -1.2065  0.6302
17852TIP3    H275048   3.123   3.073   4.095 -0.3568  0.9942  0.6494
17853TIP3   OH275049   6.507   6.284   2.310  0.3155 -0.0057 -0.1872
17853TIP3    H175050   6.478   6.276   2.401  0.1856 -0.0974 -0.2372
17853TIP3    H275051   6.512   6.378   2.295  1.1098  0.0100  0.1622
17854TIP3   OH275052   3.389   0.414   5.706  0.3484 -0.0462  0.2998
17854TIP3    H175053   3.336   0.473   5.760  0.3156  0.4740 -0.2903
17854TIP3    H275054   3.398   0.335   5.759 -0.1227  0.2585  0.8491
17855TIP3   OH275055   4.336   6.712   3.825  0.1139 -0.2458  0.7338
17855TIP3    H175056   4.331   6.637   3.885  2.9952 -1.0145  0.1628
17855TIP3    H275057   4.412   6.761   3.855 -0.6734  1.4912 -0.0165
17856TIP3   OH275058   3.203   6.997   4.256  0.6919 -0.3561 -0.2277
17856TIP3    H175059   3.151   7.078   4.260 -1.3692 -1.6334  0.2611
17856TIP3    H275060   3.211   6.979   4.162  2.7031  1.2731 -0.4485
17857TIP3   OH275061   1.242   2.089   4.657 -0.0643 -0.1029  0.0959
17857TIP3    H175062   1.214   2.133   4.577 -0.6087  2.5021  1.5951
17857TIP3    H275063   1.312   2.144   4.692  0.6707 -1.5774  1.0538
17858TIP3   OH275064   7.103   5.060   3.951  0.3613  0.8815 -0.0887
17858TIP3    H175065   7.035   5.114   3.991 -1.4345 -1.4242  0.1971
17858TIP3    H275066   7.115   5.098   3.864 -1.4595  1.2659 -0.2264
17859TIP3   OH275067   1.577   6.117   5.648  0.1136  0.8267  0.0257
17859TIP3    H175068   1.615   6.084   5.730  1.2418  2.8856  0.3965
17859TIP3    H275069   1.618   6.203   5.635 -1.4935  1.4063 -1.6937
17860TIP3   OH275070   2.498   4.652   2.751 -0.1895  0.2304  0.3202
17860TIP3    H175071   2.457   4.570   2.725 -0.8431  0.6887 -0.1355
17860TIP3    H275072   2.440   4.687   2.819 -1.1214  1.3396 -0.9785
17861TIP3   OH275073   4.190   2.288   0.907 -0.1594 -0.2330  0.6000
17861TIP3    H175074   4.240   2.271   0.987 -1.4677 -1.4187  1.2171
17861TIP3    H275075   4.123   2.351   0.933 -0.0701  0.0100  0.2368
17862TIP3   OH275076   2.340   6.042   2.897  0.5146  0.0469  0.7218
17862TIP3    H175077   2.285   6.067   2.823  1.3861  2.0493  0.6759
17862TIP3    H275078   2.418   6.003   2.857  0.8006  0.7491  0.5633
17863TIP3   OH275079   4.063   0.418   4.060 -0.1851 -0.5207 -0.6023
17863TIP3    H175080   4.011   0.338   4.056 -0.4966 -0.2836 -1.5242
17863TIP3    H275081   4.085   0.437   3.969  0.9590 -0.2520 -0.2841
17864TIP3   OH275082   2.926   2.936  14.723 -0.3494  0.7927  0.4366
17864TIP3    H175083   2.990   2.960  14.790  1.5917 -1.5567 -0.4299
17864TIP3    H275084   2.847   2.913  14.773  0.4493  0.8885  1.7922
17865TIP3   OH275085   0.979   3.389   4.645 -0.3461 -0.5500  0.0643
17865TIP3    H175086   0.932   3.346   4.573 -2.9989 -0.5315  1.6403
17865TIP3    H275087   0.961   3.333   4.721 -0.3518  1.1283  1.3366
17866TIP3   OH275088   6.604   6.773   2.548 -0.3394  0.5860  0.1914
17866TIP3    H175089   6.597   6.691   2.598 -3.1937  0.2869 -0.5348
17866TIP3    H275090   6.527   6.823   2.573 -0.9046  1.2200 -2.4623
17867TIP3   OH275091   4.424   1.655   2.524  0.1085  0.1619 -0.0443
17867TIP3    H175092   4.358   1.632   2.589 -1.1585  0.0685 -1.3028
17867TIP3    H275093   4.452   1.743   2.549  0.5366 -0.3291  1.2927
17868TIP3   OH275094   4.500   1.958   1.775  0.5406  0.2605 -0.0200
17868TIP3    H175095   4.533   2.037   1.819  0.5518  0.3411 -0.1723
17868TIP3    H275096   4.421   1.987   1.729  0.8652  0.3168 -0.5488
17869TIP3   OH275097   6.166   1.234   4.579 -0.2198  0.5421  0.4807
17869TIP3    H175098   6.150   1.194   4.664  0.6094 -1.3698 -0.2097
17869TIP3    H275099   6.115   1.181   4.517 -0.0807  1.3334 -0.3361
17870TIP3   OH275100   1.160   5.022   3.724 -0.4425 -0.2622 -0.0950
17870TIP3    H175101   1.167   4.963   3.649  1.3172  2.2576 -2.0942
17870TIP3    H275102   1.095   5.087   3.697  0.4602  0.8658  0.3618
17871TIP3   OH275103   2.807   5.599   1.579  0.2709  0.5867 -0.1546
17871TIP3    H175104   2.782   5.654   1.505  2.9846  0.7875 -1.0177
17871TIP3    H275105   2.891   5.634   1.608 -0.1844 -0.2018  2.3298
17872TIP3   OH275106   6.730   1.613   2.642 -0.1983  0.2879 -0.1474
17872TIP3    H175107   6.705   1.705   2.632 -0.4354  0.1559 -0.7812
17872TIP3    H275108   6.774   1.610   2.727 -0.3550  0.9508 -0.0342
17873TIP3   OH275109   5.496   3.435  14.214  0.1179 -0.2761  0.1048
17873TIP3    H175110   5.591   3.429  14.203  0.4598  0.1955  2.3096
17873TIP3    H275111   5.466   3.483  14.137  1.7375  0.0682 -0.3590
17874TIP3   OH275112   4.623   4.236   5.461 -0.0635 -0.4583  0.3149
17874TIP3    H175113   4.575   4.154   5.450 -0.6888  0.2260 -2.8269
17874TIP3    H275114   4.684   4.218   5.533 -0.9702 -3.2754  0.4925
17875TIP3   OH275115   3.510   3.964  14.482  0.3646 -0.1482 -0.0498
17875TIP3    H175116   3.581   4.027  14.498  0.1551 -0.1208  0.8739
17875TIP3    H275117   3.498   3.921  14.567  1.3617 -2.3590 -0.9356
17876TIP3   OH275118   5.300   2.550   4.619 -0.2510  0.0802  0.1063
17876TIP3    H175119   5.280   2.604   4.695 -0.3439  2.0331 -1.2244
17876TIP3    H275120   5.396   2.549   4.615 -0.2549  1.1072 -0.4864
17877TIP3   OH275121   2.164   2.839   5.315 -0.1501 -0.0438 -0.0863
17877TIP3    H175122   2.257   2.847   5.295 -0.1730  0.7313  0.0910
17877TIP3    H275123   2.119   2.882   5.242 -0.3225  0.5066  0.3319
17878TIP3   OH275124   0.644   5.071   0.556 -0.9694 -0.0078  0.3496
17878TIP3    H175125   0.718   5.034   0.507  0.6642  2.6960  0.5548
17878TIP3    H275126   0.638   5.016   0.634  1.2050 -0.0311  0.5693
17879TIP3   OH275127   5.203   2.608   3.561  0.4505  0.1525 -0.0494
17879TIP3    H175128   5.126   2.633   3.509 -0.0029  1.4297  1.1807
17879TIP3    H275129   5.260   2.684   3.558  1.9309 -0.9526 -1.3281
17880TIP3   OH275130   6.049   1.283   0.261  0.7197  0.3669 -0.4383
17880TIP3    H175131   6.034   1.197   0.223  0.4246  1.0181 -1.8818
17880TIP3    H275132   5.996   1.284   0.340  0.4711 -0.6549 -0.5800
17881TIP3   OH275133   2.099   1.398   0.250  0.4454 -0.1153  0.0188
17881TIP3    H175134   2.137   1.318   0.213 -0.3623 -0.4827 -0.0269
17881TIP3    H275135   2.154   1.468   0.215 -0.7263 -0.3536 -2.5902
17882TIP3   OH275136   1.095   3.065   2.266  0.5903  0.1582 -0.0753
17882TIP3    H175137   1.115   3.049   2.174 -0.7176 -0.3680 -0.2968
17882TIP3    H275138   1.131   2.989   2.312  0.4880 -0.0040 -0.2612
17883TIP3   OH275139   2.348   1.559   3.776  0.5837 -0.4946 -0.7169
17883TIP3    H175140   2.308   1.474   3.795 -0.0286  0.1472  1.0100
17883TIP3    H275141   2.276   1.612   3.742  0.9173 -0.5816 -1.5772
17884TIP3   OH275142   2.611   6.009   2.400  0.8683 -0.4404  0.3430
17884TIP3    H175143   2.665   5.977   2.327  0.3573 -0.6408  0.0521
17884TIP3    H275144   2.565   5.931   2.431 -0.1931 -0.0541 -0.2031
17885TIP3   OH275145   5.854   5.371  12.683  0.2752  0.1253  0.2627
17885TIP3    H175146   5.877   5.322  12.604  0.4467  0.1920  0.2702
17885TIP3    H275147   5.765   5.343  12.704 -0.9122  2.1859 -1.5796
17886TIP3   OH275148   3.226   3.988   0.228  0.6746  0.0093 -1.1061
17886TIP3    H175149   3.198   4.060   0.172 -0.3965 -0.3533 -1.0640
17886TIP3    H275150   3.169   3.915   0.203  1.0663 -0.5311 -0.4551
17887TIP3   OH275151   0.107   7.202  13.098  0.0699  0.3459  0.1035
17887TIP3    H175152   0.098   7.226  13.006 -0.0680  0.2474  0.0893
17887TIP3    H275153   0.059   7.270  13.145 -1.4511 -0.5671 -0.0181
17888TIP3   OH275154   2.135   2.646   3.242  0.3391 -0.0457  0.1016
17888TIP3    H175155   2.215   2.631   3.293 -0.0459 -1.3861  0.3545
17888TIP3    H275156   2.158   2.618   3.153 -0.1510 -1.5073  0.4083
17889TIP3   OH275157   0.279   1.820   1.011  0.4042  0.2218  0.4274
17889TIP3    H175158   0.363   1.777   0.996  0.2092  0.0225 -0.1111
17889TIP3    H275159   0.301   1.911   1.032  0.8335 -0.1688  1.7688
17890TIP3   OH275160   1.281   2.960   4.316 -0.0128 -0.5389  0.1846
17890TIP3    H175161   1.292   2.887   4.254  1.9738  0.2377 -0.4556
17890TIP3    H275162   1.282   2.919   4.402  1.2526 -1.3005 -0.1613
17891TIP3   OH275163   4.750   6.929   4.098  0.1518 -0.0387 -0.0415
17891TIP3    H175164   4.820   6.918   4.034  0.4600  0.7116  0.1536
17891TIP3    H275165   4.757   7.020   4.127 -1.8944  0.5492 -1.1796
17892TIP3   OH275166   5.556   2.096   4.823  0.2502  0.3957  0.0031
17892TIP3    H175167   5.610   2.174   4.812 -1.6286  1.9700  1.2716
17892TIP3    H275168   5.600   2.045   4.891  1.1649  0.6217 -0.4022
17893TIP3   OH275169   4.942   0.811   0.315 -0.3541  0.2511 -0.4413
17893TIP3    H175170   5.018   0.869   0.318 -0.3485  0.2540 -0.6322
17893TIP3    H275171   4.879   0.856   0.258 -1.5820  1.5435  1.7493
17894TIP3   OH275172   2.078   4.749   1.099  0.5121  0.1525  0.1819
17894TIP3    H175173   2.143   4.819   1.098 -2.0952  2.8424  1.3471
17894TIP3    H275174   2.118   4.678   1.148  2.9788  1.1694 -0.2412
17895TIP3   OH275175   1.227   3.811   5.589 -0.2659  0.5249 -0.4431
17895TIP3    H175176   1.134   3.794   5.599 -0.0370 -0.1935  0.5081
17895TIP3    H275177   1.237   3.904   5.612 -0.8154  0.7686 -1.1328
17896TIP3   OH275178   2.469   3.303  10.586  0.2041 -0.7905  0.5912
17896TIP3    H175179   2.469   3.386  10.633 -0.9700  0.7485 -1.8823
17896TIP3    H275180   2.554   3.302  10.540  0.2905 -1.0375  0.7572
17897TIP3   OH275181   5.844   0.964   4.763 -0.1356  0.2489 -0.0504
17897TIP3    H175182   5.930   0.932   4.739 -0.2116 -0.6710  0.8541
17897TIP3    H275183   5.785   0.925   4.699  0.0070  0.1270 -0.1080
17898TIP3   OH275184   0.421   3.570   2.525 -0.2974  0.2224  0.4897
17898TIP3    H175185   0.417   3.661   2.553  1.3136  0.4990 -0.0646
17898TIP3    H275186   0.398   3.572   2.432 -2.9220 -0.3388  1.0379
17899TIP3   OH275187   6.079   1.667  14.848 -0.1747 -0.3338  0.6489
17899TIP3    H175188   6.007   1.696  14.904  0.0313 -1.6482  1.6620
17899TIP3    H275189   6.154   1.659  14.908  0.4128 -0.4486 -0.0822
17900TIP3   OH275190   4.569   1.325   5.797 -0.0548 -0.1368  0.0658
17900TIP3    H175191   4.528   1.404   5.763  1.3429  1.0757  1.0803
17900TIP3    H275192   4.547   1.257   5.733  1.6807  1.8089 -2.8253
17901TIP3   OH275193   1.466   5.356   1.785  0.2129 -0.4285 -0.0117
17901TIP3    H175194   1.423   5.294   1.725  1.7504 -1.2437 -0.3114
17901TIP3    H275195   1.494   5.428   1.728  0.1417 -0.3793  0.0155
17902TIP3   OH275196   1.655   6.423  14.247  0.3454  0.2233 -0.5228
17902TIP3    H175197   1.624   6.340  14.284 -0.5898  0.4435 -0.7914
17902TIP3    H275198   1.576   6.467  14.217  0.8416  1.1927 -0.4422
17903TIP3   OH275199   0.610   7.025   3.638  0.1793 -0.0460 -0.1911
17903TIP3    H175200   0.659   7.081   3.698  0.2584  0.5210 -0.7699
17903TIP3    H275201   0.677   6.989   3.579 -0.1375  1.3766 -1.5090
17904TIP3   OH275202   0.217   2.581   1.754  0.2645  0.3256  0.3418
17904TIP3    H175203   0.272   2.626   1.690 -0.9651  0.8891 -0.3457
17904TIP3    H275204   0.188   2.649   1.814  0.2189  0.0554  0.6328
17905TIP3   OH275205   6.617   4.292   1.931 -0.4756  0.6349 -0.2316
17905TIP3    H175206   6.553   4.318   1.998  0.8104  1.6701  0.6610
17905TIP3    H275207   6.622   4.197   1.939 -1.9037  0.5165 -0.3571
17906TIP3   OH275208   1.313   0.566   5.036 -0.6812  0.0188  0.5506
17906TIP3    H175209   1.329   0.490   4.980  0.3697  1.0970 -0.6711
17906TIP3    H275210   1.353   0.542   5.120  0.3425 -0.4932 -0.0643
17907TIP3   OH275211   3.947   4.354   0.761 -0.4147 -0.5763  0.5177
17907TIP3    H175212   3.999   4.354   0.681 -2.7198 -1.6234 -1.1029
17907TIP3    H275213   3.870   4.300   0.740 -1.9824  0.5547  2.8546
17908TIP3   OH275214   2.944   6.873   4.608  0.4925 -0.4349 -0.3336
17908TIP3    H175215   2.947   6.784   4.643  2.1663 -0.4755 -0.5139
17908TIP3    H275216   2.859   6.907   4.637  0.2387 -1.7411  0.5602
17909TIP3   OH275217   5.762   6.249   3.653  1.0477  0.7851 -0.2204
17909TIP3    H175218   5.712   6.275   3.576 -0.5074  0.3708  0.5980
17909TIP3    H275219   5.732   6.308   3.722 -0.6851 -1.4255  1.0427
17910TIP3   OH275220   4.719   6.534   1.911  0.0214  0.4560  0.8148
17910TIP3    H175221   4.762   6.566   1.990  1.9487 -0.2915  0.1318
17910TIP3    H275222   4.778   6.465   1.878 -1.4174 -0.1873 -0.5270
17911TIP3   OH275223   4.203   5.704  15.304 -0.1851 -0.1746 -0.3040
17911TIP3    H175224   4.107   5.702  15.301 -0.1774  0.1953 -2.5692
17911TIP3    H275225   4.230   5.642  15.236  1.1840 -0.3328  0.3646
17912TIP3   OH275226   2.083   5.190   5.001  0.6380 -0.5855  0.0007
17912TIP3    H175227   2.075   5.102   4.966  0.7672 -0.1066 -1.2718
17912TIP3    H275228   2.152   5.231   4.949  1.7623 -0.2579  1.6931
17913TIP3   OH275229   4.733   6.814  15.175 -0.5654 -0.3695  0.1092
17913TIP3    H175230   4.803   6.864  15.132 -0.8810  0.6695  0.7463
17913TIP3    H275231   4.655   6.870  15.166 -0.9254 -0.7316  0.8820
17914TIP3   OH275232   5.113   1.759   1.457  0.1168 -0.0746 -0.0434
17914TIP3    H175233   5.184   1.780   1.397 -0.4892 -1.1488 -1.1938
17914TIP3    H275234   5.042   1.730   1.400 -1.2010  0.8225  1.0845
17915TIP3   OH275235   3.907   3.682   5.790  0.1357  0.2063 -0.1403
17915TIP3    H175236   3.815   3.667   5.811  0.4327  0.0993  1.1806
17915TIP3    H275237   3.933   3.757   5.844  1.3939 -1.1737  1.2762
17916TIP3   OH275238   5.673   2.348   5.367 -0.3038 -0.3057 -0.1133
17916TIP3    H175239   5.764   2.321   5.380  0.4807  1.9017 -0.5768
17916TIP3    H275240   5.659   2.419   5.429 -0.5586  1.6900 -2.2997
17917TIP3   OH275241   5.043   3.311   4.995 -0.1202  0.3158 -0.5344
17917TIP3    H175242   5.084   3.305   4.908  0.7555  0.9720 -0.1907
17917TIP3    H275243   5.079   3.392   5.032 -0.3947 -0.0136  0.4840
17918TIP3   OH275244   6.552   5.104   0.806 -0.5809  0.2712 -0.1228
17918TIP3    H175245   6.503   5.183   0.829 -0.1451  0.2872  0.7942
17918TIP3    H275246   6.525   5.039   0.870 -1.7860 -0.7006 -1.5508
17919TIP3   OH275247   7.101   4.126   0.425 -0.4593  0.4450  0.1510
17919TIP3    H175248   7.035   4.182   0.385 -2.1610 -1.2121  0.4907
17919TIP3    H275249   7.185   4.166   0.401 -1.5432  3.8014  1.4116
17920TIP3   OH275250   5.751   5.203   2.095  0.3697  0.2404 -0.2026
17920TIP3    H175251   5.839   5.166   2.104 -0.2350 -1.2286 -0.1296
17920TIP3    H275252   5.740   5.258   2.172  0.6750 -0.7568  0.5681
17921TIP3   OH275253   5.547   4.379   1.411 -0.1516 -0.1564  0.1531
17921TIP3    H175254   5.542   4.469   1.380  1.1065 -0.6015 -1.5077
17921TIP3    H275255   5.556   4.386   1.506  2.2324  1.5760 -0.1116
17922TIP3   OH275256   2.840   7.212   4.434 -0.1630  0.2944  0.3686
17922TIP3    H175257   2.751   7.249   4.436 -0.5664 -0.6045 -0.3427
17922TIP3    H275258   2.837   7.145   4.366  0.9212 -0.1354  0.7207
17923TIP3   OH275259   2.910   2.609   3.315  0.4026 -0.2523  0.2114
17923TIP3    H175260   2.821   2.621   3.349 -0.5772 -3.3953 -0.8569
17923TIP3    H275261   2.904   2.636   3.224  0.8623  0.5005  0.3945
17924TIP3   OH275262   2.432   1.431   3.286 -0.1188 -0.1450  0.0785
17924TIP3    H175263   2.339   1.412   3.282 -0.0588 -1.3203  2.3364
17924TIP3    H275264   2.455   1.463   3.199 -2.6966  0.5920 -0.3945
17925TIP3   OH275265   7.108   0.351   1.746  0.5977  0.1909 -0.1160
17925TIP3    H175266   7.169   0.281   1.724 -0.3642 -0.7714  0.2046
17925TIP3    H275267   7.152   0.431   1.716  1.3458 -0.6132 -1.2627
17926TIP3   OH275268   1.347   5.947  15.426 -0.2975  0.1275  1.4202
17926TIP3    H175269   1.329   5.972  15.335  1.8994  1.2599  1.2248
17926TIP3    H275270   1.309   6.019  15.477  1.1838  1.1286  1.1733
17927TIP3   OH275271   4.798   5.646   4.286  0.0137  0.4368 -0.0622
17927TIP3    H175272   4.865   5.587   4.250 -1.2328 -0.7476 -0.5276
17927TIP3    H275273   4.848   5.713   4.333  1.5496  0.0281 -1.0417
17928TIP3   OH275274   4.210   5.091   4.895  0.0954 -0.0899 -0.4545
17928TIP3    H175275   4.214   5.145   4.974 -0.5002 -1.1809  0.3527
17928TIP3    H275276   4.301   5.066   4.878  0.1939 -0.0944  0.0680
17929TIP3   OH275277   2.572   4.618   1.671  0.1103  0.4135 -0.8249
17929TIP3    H175278   2.507   4.668   1.721 -0.9851 -0.7560 -1.0252
17929TIP3    H275279   2.544   4.629   1.580 -0.5064 -1.0213 -0.8277
17930TIP3   OH275280   3.595   4.408   1.000 -0.0279  0.2726 -0.4947
17930TIP3    H175281   3.537   4.337   0.970 -1.7999  1.8050 -0.8704
17930TIP3    H275282   3.560   4.487   0.958 -0.9290  2.1145  3.3327
17931TIP3   OH275283   2.477   0.484   3.760 -0.4224 -0.0284  0.0622
17931TIP3    H175284   2.567   0.516   3.767 -0.1260 -0.4357 -1.4538
17931TIP3    H275285   2.484   0.390   3.778 -0.2815 -0.3287 -1.4007
17932TIP3   OH275286   2.176   2.841   3.785 -0.2566 -0.7193 -0.6854
17932TIP3    H175287   2.160   2.894   3.707 -0.5027  1.4230  0.7623
17932TIP3    H275288   2.088   2.819   3.817 -0.1967 -0.0012  0.0033
17933TIP3   OH275289   2.128   0.017  15.290 -0.3316 -0.1046  0.5248
17933TIP3    H175290   2.168   0.091  15.336 -0.2669 -0.9041  1.8027
17933TIP3    H275291   2.164  -0.060  15.334  1.7949 -1.0598 -2.5079
17934TIP3   OH275292   4.073   6.407   2.910  0.6670 -0.0972 -0.1818
17934TIP3    H175293   4.111   6.493   2.896  1.2264 -0.6403 -2.3644
17934TIP3    H275294   4.135   6.363   2.969  1.7104  0.1749 -1.0397
17935TIP3   OH275295   1.663   2.843   3.384 -0.1574 -0.0970 -0.5847
17935TIP3    H175296   1.759   2.853   3.381  0.0886 -2.0789 -0.6626
17935TIP3    H275297   1.640   2.811   3.296 -0.4484 -2.5972  0.3274
17936TIP3   OH275298   5.243   4.868   4.780  0.2483  0.5461  0.3361
17936TIP3    H175299   5.173   4.811   4.747 -0.1490  0.8314  0.6800
17936TIP3    H275300   5.256   4.933   4.710  1.3338 -0.4872 -0.4636
17937TIP3   OH275301   2.377   4.393   2.750  0.2368 -0.0455 -0.3389
17937TIP3    H175302   2.363   4.325   2.684  0.9382 -0.1271 -0.4183
17937TIP3    H275303   2.327   4.363   2.826 -0.3292 -0.1040 -0.7338
17938TIP3   OH275304   4.784   2.680  15.329 -0.3443 -0.2817 -0.1470
17938TIP3    H175305   4.788   2.725  15.245  0.6289  0.5067  0.2981
17938TIP3    H275306   4.736   2.599  15.311 -1.2018  0.4324 -1.1962
17939TIP3   OH275307   4.936   5.242  15.401 -0.3225 -0.3354 -0.5437
17939TIP3    H175308   4.990   5.189  15.343 -0.3217 -0.4000 -0.4823
17939TIP3    H275309   4.922   5.188  15.478  0.8276  0.2741  0.1135
17940TIP3   OH275310   2.177   6.093   4.917 -0.1644 -0.1044  0.2132
17940TIP3    H175311   2.104   6.155   4.917  0.6696  0.9042 -0.1473
17940TIP3    H275312   2.255   6.148   4.926  0.5204 -1.2121  1.2792
17941TIP3   OH275313   0.829   6.349  15.314 -0.6307  0.1114 -0.0605
17941TIP3    H175314   0.751   6.324  15.263  0.1964 -0.4944 -1.0679
17941TIP3    H275315   0.820   6.301  15.396 -0.7796 -0.8340 -0.6071
17942TIP3   OH275316   4.716   6.093   1.423  0.5303  0.0344 -0.1662
17942TIP3    H175317   4.646   6.039   1.462 -0.2330  2.4394  2.0407
17942TIP3    H275318   4.711   6.073   1.329 -1.1114 -2.0765  0.2790
17943TIP3   OH275319   2.822   0.522   3.036 -0.1360  0.3392  0.3434
17943TIP3    H175320   2.858   0.476   3.112 -0.0084  0.0569  0.1154
17943TIP3    H275321   2.733   0.546   3.062  0.0572  0.6275  0.7393
17944TIP3   OH275322   1.409   4.989   3.173  0.5274  0.2721 -0.0603
17944TIP3    H175323   1.337   4.926   3.168  1.2579 -0.5633 -0.1837
17944TIP3    H275324   1.376   5.057   3.232 -0.2013 -0.3227  0.2461
17945TIP3   OH275325   6.264   1.843   4.687 -0.4532 -0.2769  0.4769
17945TIP3    H175326   6.234   1.760   4.648 -2.3842  0.0471  1.1388
17945TIP3    H275327   6.304   1.817   4.770 -0.0741 -0.6344  0.1850
17946TIP3   OH275328   4.473   5.025   4.843  0.4357 -0.3881  0.0818
17946TIP3    H175329   4.517   4.941   4.829  0.9055 -0.1524  0.1259
17946TIP3    H275330   4.500   5.079   4.768 -0.0930 -0.3684 -0.0969
17947TIP3   OH275331   1.004   2.264   0.892  0.2345  0.3311 -0.1552
17947TIP3    H175332   0.949   2.250   0.815  1.6867 -0.5144 -1.0685
17947TIP3    H275333   0.968   2.205   0.958  0.3189 -0.5618 -0.8960
17948TIP3   OH275334   2.337   1.908   4.773  0.1522 -0.1601 -0.3035
17948TIP3    H175335   2.407   1.948   4.826 -0.3880  1.0107 -0.4330
17948TIP3    H275336   2.342   1.954   4.689  0.3994 -1.3507 -0.9665
17949TIP3   OH275337   5.994   1.881   5.729  0.1871 -0.3832  0.3936
17949TIP3    H175338   5.911   1.920   5.758  0.7770 -0.3447  2.1879
17949TIP3    H275339   5.993   1.793   5.766  0.5036 -0.7471 -0.4566
17950TIP3   OH275340   5.544   4.599   1.216 -0.0839  0.2901  0.1320
17950TIP3    H175341   5.565   4.550   1.137  1.3507 -0.3761  0.8724
17950TIP3    H275342   5.473   4.657   1.191  1.4735  1.3429 -2.1171
17951TIP3   OH275343   5.342   3.339   1.649  0.3034  0.3610  0.0056
17951TIP3    H175344   5.298   3.255   1.638  0.8226  0.2407 -1.2711
17951TIP3    H275345   5.281   3.392   1.700 -1.3951  0.2401 -1.7984
17952TIP3   OH275346   6.031   0.943   5.099 -0.3812 -0.0965 -0.4618
17952TIP3    H175347   6.024   0.932   5.194 -3.7349 -1.5009 -0.7179
17952TIP3    H275348   6.009   0.858   5.062  2.7825 -0.1660 -2.6173
17953TIP3   OH275349   3.439   7.092   3.372  0.4193  0.2017 -0.2902
17953TIP3    H175350   3.377   7.118   3.440 -1.0048  1.4935 -1.9852
17953TIP3    H275351   3.458   7.000   3.391 -3.6814 -0.9582 -0.7929
17954TIP3   OH275352   3.809   6.786   3.465  0.3853  0.6377  0.0841
17954TIP3    H175353   3.764   6.775   3.381  0.0685  1.1157  0.1862
17954TIP3    H275354   3.773   6.717   3.521 -0.7537  1.4332  0.3784
17955TIP3   OH275355   5.361   4.917   3.825  0.1009 -0.6875  0.2941
17955TIP3    H175356   5.362   5.008   3.798  1.3234 -1.1912 -1.5359
17955TIP3    H275357   5.405   4.917   3.910  2.8020  0.1452 -0.9828
17956TIP3   OH275358   1.951   5.364   5.803 -0.4484  0.2580 -0.6090
17956TIP3    H175359   1.966   5.318   5.885  1.0268 -1.7416 -1.8909
17956TIP3    H275360   2.023   5.426   5.797 -0.2880  0.0741 -0.6005
17957TIP3   OH275361   7.014   0.911   2.700  0.3870  0.0868  0.1551
17957TIP3    H175362   7.033   0.879   2.788  0.3322  0.0231  0.1440
17957TIP3    H275363   7.062   0.993   2.693  0.4339  0.0655  0.2259
17958TIP3   OH275364   6.738   0.201  13.538  0.0752 -0.5646 -0.5707
17958TIP3    H175365   6.821   0.233  13.504  1.3451 -1.6490  1.3361
17958TIP3    H275366   6.702   0.274  13.589  1.2847 -0.9640  0.9269
17959TIP3   OH275367   2.529   0.247   4.797 -0.0163 -0.3827 -0.0733
17959TIP3    H175368   2.517   0.162   4.755 -1.0100 -0.4963  0.4248
17959TIP3    H275369   2.520   0.230   4.891 -0.1847  0.2602  0.0347
17960TIP3   OH275370   3.273   0.944   4.383  0.0972 -0.4522  0.0499
17960TIP3    H175371   3.251   1.037   4.385  1.2247 -0.1824  0.6463
17960TIP3    H275372   3.210   0.906   4.322  0.1915  0.8459 -0.9007
17961TIP3   OH275373   2.251   5.112   2.678  0.2991  0.6293 -0.0773
17961TIP3    H175374   2.208   5.174   2.738 -0.0944 -1.3197  1.8154
17961TIP3    H275375   2.185   5.093   2.612  0.4772  2.2963 -0.7629
17962TIP3   OH275376   6.424   6.992   1.258 -0.0299  0.1040 -0.2515
17962TIP3    H175377   6.431   7.075   1.211 -0.5275  0.2752 -0.0229
17962TIP3    H275378   6.331   6.972   1.257 -0.0120 -0.0242  0.4412
17963TIP3   OH275379   2.519   4.444   4.064 -0.2656 -0.0135 -0.3027
17963TIP3    H175380   2.554   4.525   4.101 -0.8038 -0.3317  0.9393
17963TIP3    H275381   2.590   4.410   4.010  0.3658  0.7078  0.0496
17964TIP3   OH275382   4.419   2.958   4.000  0.7651 -0.3006 -0.1870
17964TIP3    H175383   4.501   2.911   3.986  0.1629 -0.9967 -1.5987
17964TIP3    H275384   4.380   2.964   3.913 -0.2407  0.8551  0.3170
17965TIP3   OH275385   4.272   1.421   3.781 -0.4243  0.3814 -0.0497
17965TIP3    H175386   4.179   1.399   3.792 -0.0455 -1.2400  0.1562
17965TIP3    H275387   4.287   1.493   3.842 -1.1968 -0.3827  1.0858
17966TIP3   OH275388   3.448   7.001   4.345  0.0155 -0.5605 -0.2530
17966TIP3    H175389   3.497   6.952   4.279  0.2117 -1.4128  0.4988
17966TIP3    H275390   3.356   6.984   4.325  0.0706 -0.5612 -0.4990
17967TIP3   OH275391   0.580   6.063   3.904  0.0322 -0.4410 -0.0458
17967TIP3    H175392   0.603   6.131   3.967 -2.0683 -0.1206  0.4489
17967TIP3    H275393   0.513   6.103   3.849  1.2359 -0.9948 -1.9922
17968TIP3   OH275394   0.412   4.761   4.100  0.4535  0.0978  0.0092
17968TIP3    H175395   0.485   4.734   4.156  0.1207 -0.2781  0.2715
17968TIP3    H275396   0.428   4.854   4.082  0.6733  0.1699  0.5633
17969TIP3   OH275397   4.801   6.265   5.198  0.0864  0.1885 -0.3037
17969TIP3    H175398   4.745   6.337   5.168 -1.1297  0.2566  1.9140
17969TIP3    H275399   4.779   6.255   5.290  0.1591 -3.1095 -0.5512
17970TIP3   OH275400   0.859   0.492   4.511 -0.1746  0.0528 -0.2959
17970TIP3    H175401   0.928   0.550   4.478 -0.5964  0.8820  0.2581
17970TIP3    H275402   0.781   0.547   4.514 -0.7077 -0.6929 -0.2588
17971TIP3   OH275403   4.949   1.739   0.694 -0.0740 -0.4381 -0.1593
17971TIP3    H175404   4.884   1.724   0.625 -1.8260  0.5985  1.1768
17971TIP3    H275405   5.019   1.788   0.651  0.7822 -3.0390 -2.0572
17972TIP3   OH275406   5.265   5.784   2.938 -0.0237  0.2238 -0.4042
17972TIP3    H175407   5.206   5.766   3.011  0.6810 -1.0754 -0.1166
17972TIP3    H275408   5.344   5.732   2.958  0.3631  0.2186 -1.8430
17973TIP3   OH275409   4.128   4.459   4.832 -0.3442 -0.0068 -1.0940
17973TIP3    H175410   4.096   4.430   4.917 -0.1737  1.5643 -0.4661
17973TIP3    H275411   4.056   4.511   4.795 -0.0524  0.1284 -1.4872
17974TIP3   OH275412   3.597   3.496   4.664 -0.1786 -0.1630  0.5651
17974TIP3    H175413   3.636   3.573   4.704  0.5717 -0.0401 -0.3641
17974TIP3    H275414   3.503   3.515   4.661 -0.1113  0.2968  1.2083
17975TIP3   OH275415   2.298   1.007   2.312  0.0482 -0.1251 -0.8657
17975TIP3    H175416   2.229   0.952   2.273 -1.4777  0.4199  0.8947
17975TIP3    H275417   2.375   0.950   2.316 -0.8557 -1.4153 -1.1332
17976TIP3   OH275418   3.774   6.386   2.564  0.3584 -0.0733 -0.0381
17976TIP3    H175419   3.782   6.306   2.616  0.5454 -0.8647 -1.2298
17976TIP3    H275420   3.808   6.456   2.620  1.3312 -1.0193  0.5808
17977TIP3   OH275421   5.477   1.195  14.509 -0.5485  0.2437  1.1152
17977TIP3    H175422   5.434   1.140  14.443  1.4631 -1.0891  0.8319
17977TIP3    H275423   5.424   1.275  14.512 -2.1165 -0.6804 -0.3018
17978TIP3   OH275424   2.456   4.749   4.419  0.0043 -1.0157  0.0810
17978TIP3    H175425   2.495   4.736   4.332  0.9854  0.3719  0.2857
17978TIP3    H275426   2.363   4.733   4.406  0.0751 -0.4543 -1.3292
17979TIP3   OH275427   3.191   1.203   5.710 -0.7669 -0.4783 -0.9726
17979TIP3    H175428   3.280   1.210   5.745 -0.6865 -1.4460 -0.9452
17979TIP3    H275429   3.149   1.286   5.732 -0.3642 -0.6251  0.3923
17980TIP3   OH275430   4.373   1.806   0.883 -0.6258 -0.4792  0.4790
17980TIP3    H175431   4.383   1.714   0.857  0.0567  0.4228 -3.0337
17980TIP3    H275432   4.281   1.814   0.908 -0.5633 -2.2100  1.3998
17981TIP3   OH275433   6.367   3.557   4.720 -1.0232  0.4741 -0.4700
17981TIP3    H175434   6.315   3.585   4.645 -2.8413 -0.8270  0.2364
17981TIP3    H275435   6.370   3.461   4.712 -0.3363  0.3967  0.5669
17982TIP3   OH275436   1.570   6.997   1.999  0.1017  0.5300 -0.1409
17982TIP3    H175437   1.614   7.055   1.937  1.1023 -0.1102 -0.0475
17982TIP3    H275438   1.535   6.926   1.945  0.9654 -0.0228  0.0104
17983TIP3   OH275439   4.625   6.647   3.976  0.6420 -0.5699  0.4373
17983TIP3    H175440   4.655   6.723   4.025 -0.4388  1.5546 -1.9650
17983TIP3    H275441   4.548   6.616   4.024 -0.5161  1.5644  0.0695
17984TIP3   OH275442   3.992   1.491   5.518 -0.3833  0.1589  0.3428
17984TIP3    H175443   4.082   1.520   5.537 -0.4170  1.0417 -0.7614
17984TIP3    H275444   3.938   1.567   5.538 -0.9528 -0.5132  1.4266
17985TIP3   OH275445   2.265   3.266   3.959 -0.1120 -0.6061 -0.0644
17985TIP3    H175446   2.307   3.343   3.920  0.8521 -0.5097  1.1035
17985TIP3    H275447   2.322   3.242   4.032 -1.2936 -1.4255  0.6187
17986TIP3   OH275448   4.026   4.492   0.470 -0.4139 -0.1727 -0.4882
17986TIP3    H175449   4.013   4.452   0.384 -0.3025  0.9537 -1.0370
17986TIP3    H275450   4.072   4.574   0.453  4.5071 -2.2439  1.0292
17987TIP3   OH275451   0.523   6.394   0.110  0.2428 -0.2158  0.2414
17987TIP3    H175452   0.531   6.481   0.147 -0.7832  0.1506 -0.3577
17987TIP3    H275453   0.429   6.375   0.112  0.3748 -0.9978 -0.3093
17988TIP3   OH275454   5.552   4.710   5.523  0.8323  0.1389  0.2163
17988TIP3    H175455   5.462   4.722   5.554  0.8722  1.4479 -0.0975
17988TIP3    H275456   5.606   4.723   5.601  0.7629 -0.2392  0.3254
17989TIP3   OH275457   6.879   6.151   0.769  0.2985  0.5631  0.6207
17989TIP3    H175458   6.895   6.234   0.723  0.2048 -0.3369 -1.1053
17989TIP3    H275459   6.906   6.168   0.859  1.0603  2.2163  0.1173
17990TIP3   OH275460   4.747   3.118   4.349  0.1399  0.4307  0.1005
17990TIP3    H175461   4.667   3.136   4.299 -0.1946 -3.7206 -1.1765
17990TIP3    H275462   4.717   3.082   4.432  0.7506  1.3663  0.7586
17991TIP3   OH275463   1.437   7.105   5.097  0.1369  0.2099 -0.6033
17991TIP3    H175464   1.352   7.081   5.136  1.2797 -1.8307  0.7880
17991TIP3    H275465   1.464   7.183   5.146  0.2700 -0.7024  0.8238
17992TIP3   OH275466   1.027   7.002   0.655  0.2407  0.3143  0.1413
17992TIP3    H175467   0.935   7.020   0.674 -0.1281 -1.5179  0.2671
17992TIP3    H275468   1.069   7.001   0.741 -0.0332 -0.8282  0.2788
17993TIP3   OH275469   5.427   5.835  14.245  0.3319 -0.3468  0.1628
17993TIP3    H175470   5.467   5.841  14.158 -1.1984  1.0838 -0.4972
17993TIP3    H275471   5.464   5.909  14.294 -0.0874 -0.1425  0.1704
17994TIP3   OH275472   1.284   7.220   0.089 -0.2662  0.1474 -0.1523
17994TIP3    H175473   1.240   7.256   0.166 -1.4829  2.1274 -1.6742
17994TIP3    H275474   1.361   7.276   0.078  0.5710 -0.8849  0.2692
17995TIP3   OH275475   3.985   4.306   3.404 -0.5170  0.1165  0.7236
17995TIP3    H175476   3.924   4.371   3.370 -0.2413 -0.0447 -0.0990
17995TIP3    H275477   4.064   4.317   3.352 -0.6747 -1.2786  0.1308
17996TIP3   OH275478   2.084   5.435   2.494 -0.3175 -0.2681 -0.4758
17996TIP3    H175479   2.033   5.380   2.554  0.0007 -1.1368 -1.0028
17996TIP3    H275480   2.079   5.391   2.410  0.5904  0.0902 -0.7311
17997TIP3   OH275481   6.432   1.622   4.202 -0.0285 -0.1581  0.0017
17997TIP3    H175482   6.344   1.628   4.239 -0.5584 -1.2015 -1.0334
17997TIP3    H275483   6.485   1.585   4.272 -0.5312 -0.0554  0.4449
17998TIP3   OH275484   4.159   4.223   1.668 -0.2777 -0.6498  0.8105
17998TIP3    H175485   4.149   4.152   1.732 -1.8010 -0.1783  1.1369
17998TIP3    H275486   4.169   4.302   1.722  3.1308 -0.7178  0.4902
17999TIP3   OH275487   2.748   0.484   3.598 -0.4090 -0.0640  0.4515
17999TIP3    H175488   2.809   0.552   3.570 -0.1976 -0.4335 -0.0014
17999TIP3    H275489   2.789   0.445   3.675 -0.1153 -0.2348  0.2155
18000TIP3   OH275490   2.705   1.544  13.001 -0.0873 -0.4817 -0.1114
18000TIP3    H175491   2.659   1.515  13.079  1.0588 -1.7037  0.1491
18000TIP3    H275492   2.636   1.569  12.940 -1.0344 -0.6888  0.8536
18001TIP3   OH275493   0.360   5.225   4.891 -0.5262 -0.4127 -0.5868
18001TIP3    H175494   0.306   5.203   4.967  0.8948 -0.0913  0.5454
18001TIP3    H275495   0.388   5.140   4.857  3.9479 -0.7705  3.0526
18002TIP3   OH275496   3.232   1.531   5.506 -0.2502 -0.5780 -0.1034
18002TIP3    H175497   3.327   1.518   5.504 -0.3527 -1.3922  0.0140
18002TIP3    H275498   3.221   1.625   5.515  0.5389 -0.3092 -1.6327
18003TIP3   OH275499   2.672   0.334   5.657  0.3089 -0.1306 -0.2145
18003TIP3    H175500   2.735   0.370   5.594 -2.0889  2.1408 -1.4913
18003TIP3    H275501   2.651   0.247   5.623  3.6835 -1.6169  1.0515
18004TIP3   OH275502   7.118   2.056   4.985 -0.1646  0.4431  0.0394
18004TIP3    H175503   7.135   2.147   5.008 -1.1730  0.5181  0.5315
18004TIP3    H275504   7.196   2.029   4.936  0.2051  1.5194  0.0031
18005TIP3   OH275505   1.738   2.636   3.712 -0.2642 -0.6840 -0.3917
18005TIP3    H175506   1.793   2.691   3.656  1.2881 -0.5694  1.1824
18005TIP3    H275507   1.763   2.546   3.690  0.6870 -0.6286  0.4227
18006TIP3   OH275508   7.032   0.693   1.979 -0.2485  0.3055  0.0113
18006TIP3    H175509   6.969   0.748   2.027  1.0587  2.5918 -0.7452
18006TIP3    H275510   7.102   0.753   1.954  0.3135 -1.3124 -2.6558
18007TIP3   OH275511   2.272   4.884  14.533  0.1910 -0.2749 -0.1764
18007TIP3    H175512   2.346   4.832  14.564 -0.0198 -1.1200 -1.0096
18007TIP3    H275513   2.195   4.829  14.551 -0.5235  1.4311  2.5503
18008TIP3   OH275514   6.081   6.848   2.913 -0.2148 -0.4718 -0.3541
18008TIP3    H175515   6.146   6.778   2.915 -0.8506 -1.0513  0.4291
18008TIP3    H275516   6.001   6.806   2.882 -0.4913  0.0009 -0.2910
18009TIP3   OH275517   4.495   2.517   2.913  0.2055 -0.2649 -0.3751
18009TIP3    H175518   4.427   2.569   2.956  2.0321  0.5643  1.7308
18009TIP3    H275519   4.506   2.557   2.827  1.2104  2.7017  0.9785
18010TIP3   OH275520   4.092   4.968   5.616  0.1413 -0.3996  0.3029
18010TIP3    H175521   4.182   5.001   5.620  0.3543 -0.9203 -0.0570
18010TIP3    H275522   4.098   4.877   5.644 -0.0543 -0.8220 -0.9432
18011TIP3   OH275523   2.064   2.244   4.345  0.7883 -0.3745  0.1780
18011TIP3    H175524   2.077   2.325   4.394  2.8576  0.1765 -1.1300
18011TIP3    H275525   2.010   2.269   4.270  1.6670 -0.1065 -0.3805
18012TIP3   OH275526   2.527   7.027   4.496 -0.3056  0.3928 -0.7443
18012TIP3    H175527   2.576   6.945   4.488 -0.9851  0.0908 -2.0503
18012TIP3    H275528   2.513   7.056   4.406  0.5817  2.3626 -0.3079
18013TIP3   OH275529   5.771   5.647   1.173  0.0881 -0.4368  0.2773
18013TIP3    H175530   5.725   5.588   1.113  1.9130 -0.5426 -1.1435
18013TIP3    H275531   5.721   5.728   1.171 -0.5502 -0.8363 -0.4853
18014TIP3   OH275532   5.645   4.046   5.223  0.2574 -0.2307  0.1764
18014TIP3    H175533   5.639   4.003   5.309  0.8888  0.9912  0.8635
18014TIP3    H275534   5.597   4.128   5.234  1.0823  0.3403 -0.3607
18015TIP3   OH275535   5.002   0.399   5.853  0.1425 -0.1757 -0.2525
18015TIP3    H175536   4.925   0.345   5.870  0.6826 -0.2693  2.2481
18015TIP3    H275537   4.977   0.487   5.879  0.6794 -0.0886 -0.0088
18016TIP3   OH275538   3.373   0.738   1.779 -0.0110  0.0353 -0.6786
18016TIP3    H175539   3.284   0.713   1.755 -0.2041 -0.6452  0.6397
18016TIP3    H275540   3.362   0.792   1.857  0.6672  0.9705 -1.2174
18017TIP3   OH275541   6.951   2.971   0.788  0.4379 -0.0434  0.4038
18017TIP3    H175542   6.992   3.020   0.717  0.6288 -1.2405 -0.3320
18017TIP3    H275543   6.857   2.992   0.781  0.1640 -1.6521 -1.4578
18018TIP3   OH275544   6.123   0.351   4.268 -0.6791 -0.0706  0.5361
18018TIP3    H175545   6.057   0.327   4.202 -0.9677  2.5974 -0.2568
18018TIP3    H275546   6.181   0.412   4.224  0.6266 -0.1300  2.0711
18019TIP3   OH275547   4.649   3.174   3.502  0.5628 -0.2229 -0.7742
18019TIP3    H175548   4.668   3.096   3.554  1.8208 -0.6811 -1.8406
18019TIP3    H275549   4.574   3.215   3.545  1.1690 -0.9019  1.0077
18020TIP3   OH275550   0.303   1.363   5.576 -0.0865 -0.0714 -0.0670
18020TIP3    H175551   0.267   1.369   5.665  2.0466 -1.1073  0.9432
18020TIP3    H275552   0.388   1.406   5.582  0.1165 -0.2221 -1.6057
18021TIP3   OH275553   5.130   3.817   5.229  0.1145  0.4970  0.0926
18021TIP3    H175554   5.125   3.724   5.206  1.1418  0.8033 -1.5040
18021TIP3    H275555   5.206   3.823   5.286  1.8077  0.7066 -2.0451
18022TIP3   OH275556   4.578   4.515   2.290  0.2704 -0.1327  0.7636
18022TIP3    H175557   4.666   4.479   2.299  0.5875  0.3525 -0.2541
18022TIP3    H275558   4.525   4.466   2.353  0.9850 -1.3516  0.4429
18023TIP3   OH275559   1.743   2.250  14.698 -0.0592  0.2707 -0.6235
18023TIP3    H175560   1.701   2.336  14.707 -0.1029  0.1869  0.0045
18023TIP3    H275561   1.836   2.269  14.702 -0.0793  0.1153  1.3232
18024TIP3   OH275562   3.009   2.849   3.695 -0.1716  0.4102 -0.0476
18024TIP3    H175563   2.987   2.820   3.784 -0.0665  0.0040 -0.1503
18024TIP3    H275564   2.974   2.938   3.689  0.9059  0.9284  0.8371
18025TIP3   OH275565   1.345   3.183   2.573 -0.0681  0.0541 -0.4231
18025TIP3    H175566   1.404   3.108   2.583 -2.2024 -1.5522  1.3101
18025TIP3    H275567   1.334   3.217   2.662 -1.0707  0.8340 -0.8228
18026TIP3   OH275568   3.304   3.070   0.742  0.4029 -0.0923 -0.1571
18026TIP3    H175569   3.220   3.115   0.751 -0.6908 -1.7300 -1.4034
18026TIP3    H275570   3.342   3.073   0.829 -1.1020  0.4462  0.5251
18027TIP3   OH275571   1.727   2.723   5.846 -0.0785  0.3866  0.4365
18027TIP3    H175572   1.694   2.810   5.826 -1.4395 -0.2766 -0.3697
18027TIP3    H275573   1.815   2.720   5.807 -0.0942  1.3170  0.3124
18028TIP3   OH275574   6.993   0.562   3.612 -0.5598 -0.1191 -0.8435
18028TIP3    H175575   6.996   0.537   3.705 -0.0198 -0.3311 -0.9150
18028TIP3    H275576   7.000   0.657   3.613  1.8408 -0.2199 -0.7420
18029TIP3   OH275577   5.407   2.051   2.945 -0.3210 -0.5397  0.0830
18029TIP3    H175578   5.484   1.997   2.931  0.0287 -0.3194  1.0830
18029TIP3    H275579   5.369   2.062   2.858 -0.1172 -1.9566 -0.2013
18030TIP3   OH275580   0.395   4.370   2.168  0.3396 -0.2076  0.3494
18030TIP3    H175581   0.372   4.287   2.210 -0.7874 -0.0480  0.0763
18030TIP3    H275582   0.477   4.351   2.122  1.6212 -0.3908  2.5400
18031TIP3   OH275583   4.811   1.252  14.114  0.3410 -0.0389 -0.1793
18031TIP3    H175584   4.870   1.232  14.187  0.6569 -1.8823 -0.8857
18031TIP3    H275585   4.863   1.233  14.036 -0.0440  1.7582 -0.9222
18032TIP3   OH275586   3.084   0.852   4.121 -0.2631  0.4295  0.2134
18032TIP3    H175587   3.026   0.809   4.185 -0.6889  0.2349 -0.2989
18032TIP3    H275588   3.047   0.829   4.036 -0.5534  1.8825 -0.0752
18033TIP3   OH275589   2.890   1.855  13.415 -0.2149  0.0802  0.2982
18033TIP3    H175590   2.922   1.765  13.419  0.8651  0.4414  0.2243
18033TIP3    H275591   2.811   1.855  13.468  0.0177 -0.8163  0.6683
18034TIP3   OH275592   6.928   3.123  14.606 -0.0851  0.2358 -0.1961
18034TIP3    H175593   6.894   3.046  14.652 -0.9096  0.5488 -0.2799
18034TIP3    H275594   6.996   3.087  14.548  0.9525 -0.1690  1.2094
18035TIP3   OH275595   0.683   2.651   2.597  0.0031 -0.0632 -0.1492
18035TIP3    H175596   0.630   2.626   2.522 -0.6606  1.9625 -0.4192
18035TIP3    H275597   0.623   2.646   2.672  0.1335 -0.2474 -0.0574
18036TIP3   OH275598   5.051   1.839   5.786 -0.0420  0.0696  0.0060
18036TIP3    H175599   4.989   1.897   5.829  0.3370  1.5183 -1.3088
18036TIP3    H275600   5.000   1.762   5.763 -1.1020  0.7846 -0.1069
18037TIP3   OH275601   1.757   1.013   2.308  0.2688  0.5089  0.4770
18037TIP3    H175602   1.708   0.984   2.231  1.4975 -0.3656 -0.0057
18037TIP3    H275603   1.760   1.109   2.300 -1.0647  0.5574  0.3659
18038TIP3   OH275604   5.099   4.878   4.287 -0.0033  0.4773  0.1491
18038TIP3    H175605   5.126   4.810   4.349 -1.8764  0.3342  0.8896
18038TIP3    H275606   5.040   4.833   4.226  0.6533  0.9369 -0.8588
18039TIP3   OH275607   0.836   0.195   2.134  0.1210  0.1451 -0.4302
18039TIP3    H175608   0.826   0.101   2.116 -0.6602 -0.4774  2.6901
18039TIP3    H275609   0.757   0.235   2.097  0.2435 -0.4880 -1.3966
18040TIP3   OH275610   2.033   6.385  13.449  0.2197  0.1539  0.4314
18040TIP3    H175611   1.963   6.340  13.403 -0.0352 -1.1362  2.0047
18040TIP3    H275612   1.990   6.458  13.494 -0.5443 -1.6789  2.8774
18041TIP3   OH275613   5.433   6.482   0.355  0.5954 -0.1225 -0.1471
18041TIP3    H175614   5.400   6.511   0.440 -0.3775 -1.4721 -0.0319
18041TIP3    H275615   5.355   6.458   0.305  1.2584 -1.6591 -0.5330
18042TIP3   OH275616   6.474   4.321   2.683  0.0576 -0.5448  0.0534
18042TIP3    H175617   6.509   4.272   2.758  0.9838 -0.3438 -0.2301
18042TIP3    H275618   6.406   4.265   2.646  0.4058 -1.1642  0.3430
18043TIP3   OH275619   0.273   1.211   3.424 -0.0993 -1.0211  0.2706
18043TIP3    H175620   0.292   1.193   3.517 -1.7334  2.0837  1.3561
18043TIP3    H275621   0.190   1.167   3.408 -1.7128  1.3565  1.5077
18044TIP3   OH275622   7.056   1.665   2.607 -0.8343 -0.2529  0.2933
18044TIP3    H175623   7.138   1.620   2.587  0.3860  1.2194  1.7225
18044TIP3    H275624   7.048   1.733   2.540  0.4263  1.1726  1.5287
18045TIP3   OH275625   1.407   6.851   2.686  0.4658 -0.4504 -0.1522
18045TIP3    H175626   1.439   6.938   2.710  1.8470 -0.3195 -2.2300
18045TIP3    H275627   1.327   6.867   2.637 -0.2433 -0.5033  0.9377
18046TIP3   OH275628   2.292   0.268   3.428  0.6871  0.0630  0.7017
18046TIP3    H175629   2.293   0.221   3.345  0.0217  1.3530 -0.0755
18046TIP3    H275630   2.382   0.297   3.441  0.8312 -0.3054  0.5339
18047TIP3   OH275631   1.982   1.436   2.806  0.1872  0.0714  0.0821
18047TIP3    H175632   2.033   1.363   2.839 -0.0044 -0.1381 -0.0787
18047TIP3    H275633   1.996   1.434   2.711  0.3235  0.3518  0.0951
18048TIP3   OH275634   4.371   5.091   4.176 -0.4085  0.3305 -0.1052
18048TIP3    H175635   4.431   5.019   4.155  0.6533  1.0803  0.2623
18048TIP3    H275636   4.328   5.111   4.093 -0.6046 -0.6186 -0.2462
18049TIP3   OH275637   5.095   5.857  15.254 -0.4111  0.6480 -0.0089
18049TIP3    H175638   5.043   5.793  15.303 -1.3056  0.0563 -1.6553
18049TIP3    H275639   5.043   5.937  15.256  0.7184  1.3767  2.0701
18050TIP3   OH275640   5.258   5.428   0.647  0.2924  0.1245  0.5683
18050TIP3    H175641   5.282   5.337   0.630 -0.1167 -0.1977  1.6579
18050TIP3    H275642   5.212   5.426   0.730  0.1699  1.3185  0.5485
18051TIP3   OH275643   3.394   0.538   3.375  0.0768  0.4138 -0.0281
18051TIP3    H175644   3.319   0.586   3.410  0.4652  0.4631  0.7721
18051TIP3    H275645   3.365   0.506   3.289 -0.2795  1.8209 -0.4446
18052TIP3   OH275646   4.975   5.394   5.262 -0.0480 -0.2894 -0.1905
18052TIP3    H175647   4.939   5.339   5.193 -0.1770  0.4198 -0.6951
18052TIP3    H275648   4.918   5.470   5.265 -0.4450 -0.6191  1.1674
18053TIP3   OH275649   1.803   1.593   1.383 -0.5513 -0.0220 -0.0050
18053TIP3    H175650   1.732   1.655   1.363  1.0962  2.0602  0.2168
18053TIP3    H275651   1.880   1.629   1.339  1.1157 -0.3417  2.4387
18054TIP3   OH275652   1.894   2.834   3.604  0.3226  0.3502  0.4250
18054TIP3    H175653   1.888   2.914   3.657  2.4517  1.0895 -0.3624
18054TIP3    H275654   1.940   2.861   3.525 -1.0872 -1.1657 -0.9837
18055TIP3   OH275655   3.135   4.601   4.854 -0.3549  0.1253  0.0903
18055TIP3    H175656   3.098   4.689   4.859 -0.1628  0.1902  0.3790
18055TIP3    H275657   3.196   4.605   4.780 -1.3208 -0.1368 -0.7526
18056TIP3   OH275658   5.240   1.236   5.189  0.5510  0.0337  0.1740
18056TIP3    H175659   5.309   1.215   5.127  0.1594 -0.2381 -0.1758
18056TIP3    H275660   5.181   1.294   5.141 -0.0147 -0.5729  0.1229
18057TIP3   OH275661   5.697   3.972  12.473  0.5299  0.0601  0.4453
18057TIP3    H175662   5.714   3.879  12.455 -1.2569 -0.4393  1.0574
18057TIP3    H275663   5.668   4.008  12.389 -1.6198 -0.7096  0.7795
18058TIP3   OH275664   6.639   0.889   3.171  0.5705  0.1230 -0.3221
18058TIP3    H175665   6.564   0.929   3.128  1.1324  0.6596 -0.8155
18058TIP3    H275666   6.713   0.907   3.113  0.8439 -1.6732 -0.5879
18059TIP3   OH275667   6.970   6.322   2.799 -0.2082  0.1402  0.4593
18059TIP3    H175668   7.046   6.300   2.853 -0.0773 -0.0022  0.2203
18059TIP3    H275669   6.954   6.243   2.748 -2.6287 -1.1247  2.9223
18060TIP3   OH275670   6.485   5.892   5.591  0.8686  0.2989 -0.5874
18060TIP3    H175671   6.564   5.866   5.637 -0.3838 -1.8601  0.5209
18060TIP3    H275672   6.448   5.963   5.643  0.4074 -0.9045  0.7906
18061TIP3   OH275673   3.330   0.971   3.795 -0.8358  0.2543  0.0206
18061TIP3    H175674   3.294   1.026   3.864 -1.2851 -1.1971  0.9954
18061TIP3    H275675   3.423   0.994   3.792 -0.3446 -1.0147  2.5661
18062TIP3   OH275676   0.332   6.633  12.643 -0.1578 -0.2867 -0.4739
18062TIP3    H175677   0.309   6.575  12.570 -2.4638 -0.2510  0.1734
18062TIP3    H275678   0.347   6.574  12.717  0.1403 -0.2046 -0.4689
18063TIP3   OH275679   4.415   5.540   3.772 -0.5634  0.5637  0.2261
18063TIP3    H175680   4.404   5.476   3.842  0.5885 -0.0794 -0.1454
18063TIP3    H275681   4.336   5.593   3.775 -0.4076  0.7775  2.2376
18064TIP3   OH275682   6.099   6.026  10.315 -0.0125  0.4761  0.3004
18064TIP3    H175683   6.005   6.046  10.311 -0.6780 -2.2400  0.5310
18064TIP3    H275684   6.129   6.035  10.224 -1.3198 -1.8587 -0.4502
18065TIP3   OH275685   4.422   7.056   3.469 -0.4931 -0.2567 -0.4905
18065TIP3    H175686   4.369   7.010   3.405 -1.6406 -0.3599  0.4965
18065TIP3    H275687   4.390   7.147   3.466  1.5473  0.5063 -2.2131
18066TIP3   OH275688   0.006   3.653   4.737 -0.1078  0.1884 -0.2246
18066TIP3    H175689  -0.024   3.597   4.665 -0.1116 -1.7492  1.2106
18066TIP3    H275690   0.042   3.592   4.801 -0.3347  1.8250  1.5316
18067TIP3   OH275691   0.072   3.266   1.641  0.4281  0.2124 -0.0544
18067TIP3    H175692   0.119   3.314   1.710  0.2978 -0.8151  0.7801
18067TIP3    H275693   0.074   3.175   1.670 -0.0187 -0.1813 -1.2091
18068TIP3   OH275694   3.297   6.270   2.905 -0.1481  0.8227  0.3902
18068TIP3    H175695   3.384   6.305   2.927 -0.0564  0.5740  0.4338
18068TIP3    H275696   3.288   6.287   2.811 -1.1945  3.3022  0.8585
18069TIP3   OH275697   1.197   2.535  12.203 -0.1129 -0.3561  0.6761
18069TIP3    H175698   1.109   2.574  12.199  0.3441  0.6040 -0.4781
18069TIP3    H275699   1.251   2.591  12.147  0.4898 -2.8363 -1.4122
18070TIP3   OH275700   6.035   0.950   5.374  0.7058 -0.1290  0.3355
18070TIP3    H175701   5.963   0.889   5.391  1.1571 -0.3579  1.5242
18070TIP3    H275702   6.092   0.942   5.450  0.9941  1.4833  0.3219
18071TIP3   OH275703   0.265   2.542  13.487  0.6868  0.4820 -0.5652
18071TIP3    H175704   0.248   2.448  13.492 -0.3405  0.4817 -2.8755
18071TIP3    H275705   0.267   2.561  13.393 -2.3834  3.2944 -0.2480
18072TIP3   OH275706   3.113   1.731  13.989 -0.1201  0.0367  0.5541
18072TIP3    H175707   3.059   1.748  13.912  0.1320  1.4561  0.6735
18072TIP3    H275708   3.050   1.724  14.061 -0.3498 -1.2118  0.2539
18073TIP3   OH275709   5.935   6.737   4.093 -0.2608  0.0752 -0.2170
18073TIP3    H175710   5.913   6.719   4.184  1.1089 -0.3306  0.0630
18073TIP3    H275711   6.009   6.798   4.097  0.9566 -1.2720 -0.9804
18074TIP3   OH275712   2.962   0.685   1.488 -0.0124 -0.3719  0.4233
18074TIP3    H175713   2.919   0.757   1.442 -0.5472 -0.6462  0.4869
18074TIP3    H275714   2.923   0.606   1.450  0.8162 -0.6411  0.1087
18075TIP3   OH275715   2.224   4.293   2.979 -0.9006  0.4526  0.1877
18075TIP3    H175716   2.253   4.269   3.067  0.9461 -0.0252 -0.5232
18075TIP3    H275717   2.129   4.305   2.988 -0.9772 -1.0204  1.9199
18076TIP3   OH275718   1.408   1.851   4.263  0.3588 -0.0310  0.6184
18076TIP3    H175719   1.380   1.784   4.325  0.3661 -0.1528  0.4909
18076TIP3    H275720   1.492   1.819   4.230 -0.0023 -0.3312 -0.0118
18077TIP3   OH275721   5.517   1.230   1.726 -0.0404  0.0861 -0.1193
18077TIP3    H175722   5.492   1.199   1.813 -1.4709  0.1388 -0.4806
18077TIP3    H275723   5.593   1.286   1.741  0.1609 -0.4561  1.0068
18078TIP3   OH275724   0.183   4.294   4.998  0.1755  0.1069 -0.5473
18078TIP3    H175725   0.122   4.250   4.939 -0.2310 -0.0239 -0.0458
18078TIP3    H275726   0.267   4.291   4.953  0.1120 -1.0027 -0.6180
18079TIP3   OH275727   4.248   1.507   1.747  0.1616 -0.4843 -0.2154
18079TIP3    H175728   4.334   1.525   1.785  0.5133  0.8606 -1.5428
18079TIP3    H275729   4.200   1.589   1.755 -0.0244 -0.3850 -1.8547
18080TIP3   OH275730   4.709   2.897   0.343  0.2282  0.1686 -0.2610
18080TIP3    H175731   4.769   2.971   0.338  1.4677 -0.8313 -1.0011
18080TIP3    H275732   4.681   2.883   0.253 -0.2417 -0.0688 -0.0810
18081TIP3   OH275733   0.262   5.586   5.349 -0.1867 -0.2139  0.2225
18081TIP3    H175734   0.178   5.609   5.389 -0.8715  1.5529 -1.9995
18081TIP3    H275735   0.245   5.504   5.302 -0.3928 -0.3713  0.5683
18082TIP3   OH275736   0.835   6.815   1.115 -0.0551 -0.2917  0.7449
18082TIP3    H175737   0.858   6.798   1.206  1.1713 -1.7261  0.2079
18082TIP3    H275738   0.742   6.836   1.118  0.4506  2.0521  2.5828
18083TIP3   OH275739   3.850   6.863   4.596 -0.5339  0.1535 -1.1387
18083TIP3    H175740   3.899   6.870   4.514 -1.2713 -1.2207 -1.7249
18083TIP3    H275741   3.760   6.882   4.571 -0.8360 -0.7328 -0.7608
18084TIP3   OH275742   3.912   6.810   5.469  0.1221  0.2352 -0.4320
18084TIP3    H175743   3.874   6.835   5.553 -0.5544  1.8986 -1.1937
18084TIP3    H275744   3.958   6.728   5.487 -0.1638  0.4565  1.5079
18085TIP3   OH275745   6.115   6.767  13.678  0.1329  0.2697 -0.4263
18085TIP3    H175746   6.184   6.826  13.648 -0.6508  1.3647 -0.1497
18085TIP3    H275747   6.080   6.809  13.756 -0.9335 -0.1935 -0.6321
18086TIP3   OH275748   6.257   4.534  15.048  0.3102 -0.1258  0.3255
18086TIP3    H175749   6.347   4.501  15.044 -0.5616 -2.7361  0.3536
18086TIP3    H275750   6.253   4.599  14.978  2.6780  1.4360  1.5232
18087TIP3   OH275751   1.515   5.394   5.572 -0.3604  0.3029  0.1334
18087TIP3    H175752   1.533   5.313   5.620 -0.9592  0.5405  0.7866
18087TIP3    H275753   1.598   5.441   5.572  0.4216 -0.9736 -1.6092
18088TIP3   OH275754   5.977   1.783   2.746  0.1708 -0.6098 -0.1623
18088TIP3    H175755   6.062   1.821   2.768  0.4016 -0.7153 -0.8658
18088TIP3    H275756   5.964   1.714   2.811  2.1148 -2.7881 -1.9178
18089TIP3   OH275757   5.147   3.230   0.834 -0.2095  0.4350  0.0315
18089TIP3    H175758   5.116   3.298   0.775  2.2438  0.6102 -1.1908
18089TIP3    H275759   5.096   3.153   0.812 -0.3822  0.9057 -1.2766
18090TIP3   OH275760   4.347   1.956   1.350  0.2230  0.3018  0.5528
18090TIP3    H175761   4.334   1.958   1.255  0.3111 -0.5791  0.5178
18090TIP3    H275762   4.427   2.006   1.365 -0.6486  1.8505  0.3338
18091TIP3   OH275763   1.202   3.638   4.503  0.1258 -0.4319 -0.1400
18091TIP3    H175764   1.168   3.548   4.498 -0.8780 -0.0142 -1.0933
18091TIP3    H275765   1.290   3.628   4.539 -0.3665 -1.7035  0.7792
18092TIP3   OH275766   6.714   2.112   3.225 -0.4482  0.7824  0.6042
18092TIP3    H175767   6.695   2.187   3.168 -0.5844  0.2550 -0.0528
18092TIP3    H275768   6.642   2.051   3.208  1.0386 -0.6771 -0.9110
18093TIP3   OH275769   3.141   0.577   6.098  0.0605  0.5578 -0.3027
18093TIP3    H175770   3.131   0.663   6.056  0.9687 -0.3115 -2.4542
18093TIP3    H275771   3.227   0.547   6.070 -0.3742 -1.1977  0.1293
18094TIP3   OH275772   1.600   1.034   5.537 -0.1944 -0.3123  0.3163
18094TIP3    H175773   1.617   0.945   5.566  0.7413 -0.9074 -1.8637
18094TIP3    H275774   1.673   1.055   5.478 -2.1471  0.5863 -1.9537
18095TIP3   OH275775   6.694   0.724   3.635  0.5593  0.6383 -0.8893
18095TIP3    H175776   6.655   0.646   3.594 -0.5316  1.0911 -0.7521
18095TIP3    H275777   6.731   0.691   3.716 -0.6256  0.3781 -0.4275
18096TIP3   OH275778   1.311   6.020   4.622 -0.0811  0.0149  0.4340
18096TIP3    H175779   1.388   6.025   4.564  0.0809 -1.7865  0.4433
18096TIP3    H275780   1.301   6.109   4.655 -0.1143  1.1042 -2.2653
18097TIP3   OH275781   4.891   4.613   3.465 -0.4241  0.3928  0.0054
18097TIP3    H175782   4.852   4.626   3.379 -1.2320 -2.8765 -0.2665
18097TIP3    H275783   4.819   4.583   3.520  0.7991 -1.5494  0.6599
18098TIP3   OH275784   4.249   2.992   3.446 -0.1562  0.6885 -0.5154
18098TIP3    H175785   4.186   3.014   3.514 -0.7380  1.1718 -1.2040
18098TIP3    H275786   4.212   3.028   3.366  0.0842 -0.6188 -1.2538
18099TIP3   OH275787   0.585   3.585  14.312  0.0370 -0.5041 -0.2070
18099TIP3    H175788   0.642   3.652  14.274 -0.5042  0.0988  0.0454
18099TIP3    H275789   0.625   3.502  14.284  0.7460 -0.0863 -0.4630
18100TIP3   OH275790   3.689   0.001   4.220  0.5517  0.2771  0.2584
18100TIP3    H175791   3.595   0.005   4.236  0.5214  0.5707  0.0046
18100TIP3    H275792   3.699  -0.068   4.154  0.7323 -1.3693  1.9104
18101TIP3   OH275793   4.739   4.271   2.833 -0.3868  0.3829 -0.0221
18101TIP3    H175794   4.756   4.332   2.761  0.1179 -0.3185 -0.5179
18101TIP3    H275795   4.723   4.187   2.789  1.6414 -0.4525  0.7091
18102TIP3   OH275796   0.415   6.227   0.490  0.0810 -0.4203 -0.0117
18102TIP3    H175797   0.497   6.273   0.512  0.2391 -0.0791 -1.1892
18102TIP3    H275798   0.346   6.283   0.525  0.1195  2.2373 -3.5075
18103TIP3   OH275799   1.685   5.391   1.961  0.1024 -0.2989  0.9537
18103TIP3    H175800   1.752   5.333   1.925 -0.4812 -1.5541  1.8368
18103TIP3    H275801   1.625   5.407   1.887  1.0896  0.4514  0.2919
18104TIP3   OH275802   5.353   5.891   4.930  0.3271 -0.2464 -0.1616
18104TIP3    H175803   5.364   5.951   5.004  0.9617  0.7619 -1.0400
18104TIP3    H275804   5.405   5.814   4.953  0.2272 -0.0963  0.5942
18105TIP3   OH275805   6.579   2.453   1.983  0.3004 -0.9792 -0.5474
18105TIP3    H175806   6.614   2.406   2.059  0.6234  0.8309  0.4730
18105TIP3    H275807   6.568   2.543   2.013 -1.8854 -0.7081 -1.9142
18106TIP3   OH275808   4.424   5.797   0.293  0.5126 -0.2384  0.2016
18106TIP3    H175809   4.405   5.717   0.343  1.2443  0.1327  1.0898
18106TIP3    H275810   4.344   5.813   0.242 -0.5814 -0.1645  1.8795
18107TIP3   OH275811   4.208   6.364   4.149 -0.1667 -0.0852  0.1985
18107TIP3    H175812   4.213   6.353   4.244  2.7637 -1.4957 -0.0169
18107TIP3    H275813   4.202   6.275   4.114 -0.2432  0.3577 -0.9919
18108TIP3   OH275814   5.587   2.086   4.508 -0.6992  0.0591  0.6291
18108TIP3    H175815   5.652   2.156   4.509 -0.9540  0.2953  1.0125
18108TIP3    H275816   5.620   2.022   4.572  0.6197 -1.1929 -1.2233
18109TIP3   OH275817   6.722   6.129   2.964  0.5255  0.0092 -0.1922
18109TIP3    H175818   6.643   6.183   2.969  0.4824  0.2827 -2.5825
18109TIP3    H275819   6.700   6.059   2.903  1.3316 -1.4294  1.0908
18110TIP3   OH275820   4.246   6.492  14.716 -0.0811  0.1480 -0.0584
18110TIP3    H175821   4.273   6.443  14.794 -0.8809 -2.1726 -1.1286
18110TIP3    H275822   4.327   6.527  14.680  0.5310 -0.3754  0.7601
18111TIP3   OH275823   7.177   5.346   2.989  0.3936 -0.0216 -0.6800
18111TIP3    H175824   7.270   5.345   2.966  0.1781 -0.1879 -1.6040
18111TIP3    H275825   7.145   5.431   2.959  0.7923  1.1684  2.0518
18112TIP3   OH275826   4.112   0.751  14.148 -0.9354  0.6378 -0.1322
18112TIP3    H175827   4.042   0.693  14.176 -1.5234  1.7731  0.8468
18112TIP3    H275828   4.074   0.806  14.080 -0.9431  1.0888  0.2256
18113TIP3   OH275829   5.368   2.189   4.365  0.3721  1.1166 -0.2216
18113TIP3    H175830   5.396   2.279   4.379  1.5750  0.7905 -0.4008
18113TIP3    H275831   5.411   2.139   4.435 -0.8536  0.7733  0.3124
18114TIP3   OH275832   1.434   6.804   4.720  0.2092  0.0059  0.6507
18114TIP3    H175833   1.411   6.716   4.690 -0.3098  0.7762 -1.3868
18114TIP3    H275834   1.357   6.833   4.770 -0.0670 -0.3041  0.4133
18115TIP3   OH275835   5.323   3.255   5.049 -0.0349  0.0932  0.7728
18115TIP3    H175836   5.347   3.259   5.142  0.1874  0.5606  0.7010
18115TIP3    H275837   5.240   3.303   5.045 -0.3596 -0.4541  0.8232
18116TIP3   OH275838   3.123   1.327   5.309  0.2767  0.1907 -0.2615
18116TIP3    H175839   3.149   1.396   5.370  1.5991  0.7679 -1.4018
18116TIP3    H275840   3.153   1.246   5.349  1.1217  0.5637 -0.1183
18117TIP3   OH275841   3.666   3.924   4.560 -0.3639  0.1492 -0.2183
18117TIP3    H175842   3.620   3.877   4.490 -0.3060  0.5343 -0.5205
18117TIP3    H275843   3.597   3.969   4.607 -0.4416 -0.3893  0.1960
18118TIP3   OH275844   0.319   1.715   5.984 -0.0018  0.2320 -0.4068
18118TIP3    H175845   0.246   1.705   5.924  1.6921  0.4095 -2.6195
18118TIP3    H275846   0.377   1.641   5.965  0.8907  0.6432  0.5664
18119TIP3   OH275847   2.527   1.354   3.863 -0.9247 -0.6429 -0.6263
18119TIP3    H175848   2.535   1.425   3.927 -0.3837 -0.1569 -1.2148
18119TIP3    H275849   2.441   1.368   3.823 -0.7657 -0.2436 -0.8299
18120TIP3   OH275850   7.167   6.848   0.323 -0.2028 -0.8325 -0.4093
18120TIP3    H175851   7.204   6.857   0.236 -0.7968 -0.7682 -0.6567
18120TIP3    H275852   7.096   6.784   0.314 -1.6992  0.7428 -0.4470
18121TIP3   OH275853   6.147   3.657   2.324 -0.2095  0.3382  0.9239
18121TIP3    H175854   6.149   3.751   2.306  0.6483  0.4611  1.5877
18121TIP3    H275855   6.222   3.622   2.275 -2.2157 -0.5036 -1.7649
18122TIP3   OH275856   5.378   1.269   0.701  0.2775 -0.1424 -0.1684
18122TIP3    H175857   5.400   1.185   0.741  1.4138  0.0665 -0.3382
18122TIP3    H275858   5.310   1.306   0.758  0.7875 -0.5351  0.7074
18123TIP3   OH275859   1.906   1.724   3.707 -0.2533  0.1792 -0.1330
18123TIP3    H175860   1.983   1.707   3.653  1.2683 -1.8716  2.4094
18123TIP3    H275861   1.922   1.809   3.747  0.8322 -0.3011  0.4945
18124TIP3   OH275862   3.848   3.285   2.710 -0.1532  0.3888  0.0700
18124TIP3    H175863   3.754   3.265   2.720 -0.4967  0.3142 -2.5389
18124TIP3    H275864   3.884   3.207   2.666  0.6748  1.2265 -0.7929
18125TIP3   OH275865   1.602   4.800   3.630  0.5374 -0.2851 -0.4595
18125TIP3    H175866   1.577   4.786   3.539 -0.3134 -0.6120 -0.1790
18125TIP3    H275867   1.528   4.846   3.670 -0.3998 -2.6754  0.7673
18126TIP3   OH275868   3.342   5.029   3.585  0.0567  0.2840 -0.1034
18126TIP3    H175869   3.369   5.035   3.677  0.3233  0.6000 -0.2007
18126TIP3    H275870   3.401   5.088   3.539  0.0010  0.0337 -0.4966
18127TIP3   OH275871   0.546   4.393   4.360 -0.4059  0.4318  0.2143
18127TIP3    H175872   0.626   4.434   4.328  2.7104 -2.0651  3.9083
18127TIP3    H275873   0.495   4.464   4.398  0.5086  1.9508 -1.3021
18128TIP3   OH275874   6.631   4.747   2.957  0.1387 -0.3647  0.4022
18128TIP3    H175875   6.657   4.822   2.903 -0.8911  0.9138  1.5991
18128TIP3    H275876   6.670   4.671   2.913 -0.9123  0.5508 -2.3094
18129TIP3   OH275877   2.303   0.210   1.062  0.0327 -0.4130 -0.1539
18129TIP3    H175878   2.383   0.163   1.087  0.8222  0.6043 -0.6915
18129TIP3    H275879   2.307   0.292   1.112  0.9547  1.0506 -2.4883
18130TIP3   OH275880   4.299   6.525   3.153 -0.3731  0.1039  0.0117
18130TIP3    H175881   4.327   6.457   3.092  1.4927  0.8523 -0.0281
18130TIP3    H275882   4.378   6.578   3.168 -1.5036  1.6278  0.8555
18131TIP3   OH275883   2.343   4.045   3.787 -0.4591  0.0909  0.6507
18131TIP3    H175884   2.434   4.020   3.805  0.7951  2.4453 -1.6911
18131TIP3    H275885   2.332   4.130   3.829 -1.1898  0.3353  0.0040
18132TIP3   OH275886   5.101   0.684   1.460  0.0439  0.7783  0.2613
18132TIP3    H175887   5.120   0.777   1.449 -0.5920  0.7846 -0.9287
18132TIP3    H275888   5.155   0.641   1.394  0.3509  0.2879  0.8211
18133TIP3   OH275889   2.852   6.880  15.293 -0.1609  0.1107 -1.0706
18133TIP3    H175890   2.757   6.892  15.283 -0.4485 -1.7457 -1.0069
18133TIP3    H275891   2.887   6.889  15.205 -0.1705  2.2053 -0.9069
18134TIP3   OH275892   3.159   3.809   2.531  0.1779 -0.1985 -0.0574
18134TIP3    H175893   3.224   3.877   2.512 -0.5992  0.6839  0.3887
18134TIP3    H275894   3.099   3.811   2.458  1.1118 -1.6321 -0.9170
18135TIP3   OH275895   4.851   1.120  14.551  0.2983  0.2187  0.7834
18135TIP3    H175896   4.865   1.093  14.642 -0.8590 -0.8954  0.6576
18135TIP3    H275897   4.921   1.075  14.503 -1.0115 -1.9144  0.7192
18136TIP3   OH275898   4.045   3.252   5.813 -0.0060  0.5455  0.1008
18136TIP3    H175899   4.052   3.212   5.900 -1.5538 -0.3553 -0.1482
18136TIP3    H275900   4.135   3.279   5.791  0.7975 -1.1924  1.0540
18137TIP3   OH275901   2.890   4.244   4.321  0.1976 -0.3405  0.4310
18137TIP3    H175902   2.902   4.289   4.405 -1.0981  1.7095 -0.4021
18137TIP3    H275903   2.804   4.202   4.329  0.1409 -0.2686  0.2139
18138TIP3   OH275904   7.113   2.777   4.783  0.0275  0.4748 -0.3686
18138TIP3    H175905   7.030   2.797   4.741 -0.3053  0.3236  0.2168
18138TIP3    H275906   7.176   2.773   4.711 -0.2788  1.5833 -0.7174
18139TIP3   OH275907   3.176   5.857   4.571 -0.0692 -0.5949 -0.6937
18139TIP3    H175908   3.260   5.861   4.616  0.0530  0.7567 -1.0089
18139TIP3    H275909   3.111   5.861   4.641  0.1188 -0.6422 -0.5169
18140TIP3   OH275910   5.115   7.128   1.450  0.3695  0.3021  0.3737
18140TIP3    H175911   5.044   7.192   1.447 -0.1428 -0.2403  0.6423
18140TIP3    H275912   5.098   7.070   1.375  0.1280 -0.2307  0.8319
18141TIP3   OH275913   0.918   3.906   2.220 -0.1904 -0.0300 -0.0212
18141TIP3    H175914   0.970   3.962   2.278 -0.3217  0.3909 -0.3074
18141TIP3    H275915   0.913   3.822   2.267  0.8652 -0.1340 -0.0510
18142TIP3   OH275916   3.093   5.327   5.438  0.1164 -0.6655 -0.3764
18142TIP3    H175917   3.179   5.324   5.398  0.5178 -2.6967  0.4930
18142TIP3    H275918   3.110   5.353   5.529 -0.2083 -0.9279 -0.2395
18143TIP3   OH275919   3.397   4.125   3.740  0.3617 -0.1185 -0.1178
18143TIP3    H175920   3.388   4.105   3.833 -0.3317 -1.6081 -0.4750
18143TIP3    H275921   3.331   4.192   3.723 -0.8915 -1.2747  0.0726
18144TIP3   OH275922   5.736   1.986   1.823 -0.2811 -0.3388  0.4722
18144TIP3    H175923   5.705   1.918   1.883 -0.1461 -0.3623  0.5163
18144TIP3    H275924   5.717   2.069   1.868  1.6192 -0.3925  1.4534
18145TIP3   OH275925   5.520   3.637  14.715  0.2508  0.6414  0.1156
18145TIP3    H175926   5.441   3.620  14.767  0.1109 -0.0917 -0.3141
18145TIP3    H275927   5.495   3.614  14.625  2.0799 -3.8494  0.4558
18146TIP3   OH275928   1.112   0.317   1.216 -0.7646  0.1126  0.1578
18146TIP3    H175929   1.079   0.396   1.258  1.1119  0.4082  1.1582
18146TIP3    H275930   1.124   0.255   1.287  1.1412  0.1512 -0.0745
18147TIP3   OH275931   7.136   4.721   5.330 -0.3261 -0.3556  0.1098
18147TIP3    H175932   7.177   4.798   5.291  1.0180 -0.0816  1.9024
18147TIP3    H275933   7.138   4.655   5.261 -2.3708  1.4212 -1.7955
18148TIP3   OH275934   3.280   3.940   0.684 -0.3209 -0.0887 -0.2568
18148TIP3    H175935   3.257   3.853   0.649  1.1097 -0.3600 -0.5968
18148TIP3    H275936   3.227   3.949   0.763  1.6345 -2.6229  1.5363
18149TIP3   OH275937   2.283   2.601   5.007 -0.5634  0.1986 -0.1334
18149TIP3    H175938   2.238   2.519   5.026 -1.4171  0.8257  0.5994
18149TIP3    H275939   2.216   2.657   4.969 -0.1232  0.7558 -0.0989
18150TIP3   OH275940   5.428   4.374  15.190  0.6266 -0.4589 -0.3878
18150TIP3    H175941   5.460   4.460  15.216 -0.2657 -0.3142  0.3185
18150TIP3    H275942   5.348   4.393  15.139  1.0897 -0.8330 -1.2699
18151TIP3   OH275943   1.872   0.815   1.094 -0.4885  0.3713 -0.5879
18151TIP3    H175944   1.815   0.818   1.171  0.5237  0.1123  0.2014
18151TIP3    H275945   1.895   0.906   1.077 -0.6216  0.4204 -0.4992
18152TIP3   OH275946   0.040   4.183   1.805  0.4317 -0.4294  0.6029
18152TIP3    H175947  -0.042   4.133   1.814 -0.1967  0.3069 -0.7298
18152TIP3    H275948   0.034   4.250   1.874  0.4749 -1.1001  1.2742
18153TIP3   OH275949   0.514   2.041   0.461  0.0969 -0.3156 -0.7099
18153TIP3    H175950   0.551   2.080   0.541  0.0028 -2.1850  0.3026
18153TIP3    H275951   0.513   1.947   0.479  0.2882 -0.8077 -3.0299
18154TIP3   OH275952   5.165   3.019   3.036  0.1392  0.1810 -0.5427
18154TIP3    H175953   5.165   2.964   2.958  0.8196 -2.2013  0.9945
18154TIP3    H275954   5.128   3.102   3.008 -0.3293 -0.8328 -3.1963
18155TIP3   OH275955   4.020   1.137   1.233 -0.6632  0.1524 -0.7275
18155TIP3    H175956   4.037   1.182   1.316 -1.3886  0.1594 -0.5809
18155TIP3    H275957   3.946   1.079   1.251 -0.3041 -0.4534 -1.1548
18156TIP3   OH275958   3.252   3.414   1.772 -0.4190 -0.0146  0.4354
18156TIP3    H175959   3.200   3.363   1.710 -0.2562 -0.1913  0.4442
18156TIP3    H275960   3.238   3.505   1.745  0.9916 -0.1699 -0.9299
18157TIP3   OH275961   1.281   1.892   2.149  0.7293  0.3626 -0.4130
18157TIP3    H175962   1.240   1.818   2.104  2.2206 -1.4882  1.1259
18157TIP3    H275963   1.209   1.935   2.195 -0.0684 -0.5556 -0.7630
18158TIP3   OH275964   2.559   0.030   3.526  0.0572 -0.4911  0.1886
18158TIP3    H175965   2.597  -0.030   3.590 -1.6086 -1.7817  0.0595
18158TIP3    H275966   2.480  -0.015   3.495 -1.7012  2.0507  0.6036
18159TIP3   OH275967   0.568   1.249   5.975  0.0437  0.0189 -0.6797
18159TIP3    H175968   0.658   1.279   5.961  0.1625 -0.2373 -0.4731
18159TIP3    H275969   0.514   1.325   5.954  0.1490 -0.5579 -3.4055
18160TIP3   OH275970   6.352   4.801   2.597  0.1844  0.5054  0.0379
18160TIP3    H175971   6.343   4.793   2.692  0.5925  0.3398  0.0637
18160TIP3    H275972   6.271   4.765   2.562 -0.2407  1.1390  0.3422
18161TIP3   OH275973   3.024   0.005   0.808  0.3915 -0.1263 -0.2401
18161TIP3    H175974   2.946  -0.037   0.772  0.7141 -0.5974 -0.3805
18161TIP3    H275975   2.991   0.088   0.843 -0.4733 -0.9971  1.1212
18162TIP3   OH275976   1.075   0.987   0.295 -0.5305 -0.1062 -0.1152
18162TIP3    H175977   1.126   1.017   0.371 -0.4007 -1.0569  0.1810
18162TIP3    H275978   0.997   0.947   0.333 -0.8882  0.1925 -0.5239
18163TIP3   OH275979   6.619   3.103  11.451  0.4719  0.4461 -0.1407
18163TIP3    H175980   6.682   3.175  11.447  1.4124 -0.3302  0.4880
18163TIP3    H275981   6.670   3.025  11.432 -0.0221 -0.3572  1.6978
18164TIP3   OH275982   3.466   1.806   5.393  0.6071 -0.4115 -0.1327
18164TIP3    H175983   3.514   1.735   5.435  0.0683 -0.8900 -0.3139
18164TIP3    H275984   3.533   1.868   5.366  1.1223 -1.0656 -0.3757
18165TIP3   OH275985   6.821   3.307   6.304  0.3906  0.2437 -0.3344
18165TIP3    H175986   6.741   3.349   6.335  1.6342  2.4504  0.0411
18165TIP3    H275987   6.812   3.305   6.208 -0.8951 -1.2806 -0.2270
18166TIP3   OH275988   0.059   0.795   4.067 -0.5593  0.4524 -0.4796
18166TIP3    H175989   0.068   0.703   4.042 -0.0365  0.0156  1.1739
18166TIP3    H275990   0.114   0.842   4.005 -1.5815 -0.2088 -1.9611
18167TIP3   OH275991   0.605   2.533   5.457 -0.3134  0.3373  0.2013
18167TIP3    H175992   0.651   2.531   5.541 -0.7722  2.5626  0.5778
18167TIP3    H275993   0.571   2.444   5.446  1.5108 -0.5591  1.3284
18168TIP3   OH275994   4.108   4.033   1.921  0.2288 -0.1073  0.4032
18168TIP3    H175995   4.141   3.995   2.002  3.9300  0.1672 -0.7774
18168TIP3    H275996   4.051   3.965   1.884 -1.6181 -0.2025  3.1256
18169TIP3   OH275997   7.010   5.527   2.854  0.0122 -0.4421 -0.2460
18169TIP3    H175998   7.010   5.592   2.784 -2.4457 -0.5034 -0.3647
18169TIP3    H275999   6.972   5.449   2.815 -2.6347 -0.0977  1.4144
18170TIP3   OH276000   1.772   2.450   1.809 -0.5421 -0.1553 -0.5261
18170TIP3    H176001   1.809   2.435   1.896 -2.0934 -1.0772  0.0254
18170TIP3    H276002   1.847   2.468   1.753  0.8156 -2.4570  0.4196
18171TIP3   OH276003   0.274   3.353   2.477  0.5661 -0.4193 -0.3085
18171TIP3    H176004   0.189   3.397   2.480  0.6783 -0.2727  1.5652
18171TIP3    H276005   0.338   3.423   2.489  1.0269 -0.4666 -2.1146
18172TIP3   OH276006   5.373   6.632   4.457  0.2102 -0.0042  0.2872
18172TIP3    H176007   5.324   6.697   4.508  0.8670 -0.3575  1.4045
18172TIP3    H276008   5.393   6.563   4.520  1.4468 -0.2484 -0.3447
18173TIP3   OH276009   1.267   4.619   0.472  0.4013 -0.3600 -0.1774
18173TIP3    H176010   1.252   4.651   0.383 -0.0218  0.4998  0.1900
18173TIP3    H276011   1.180   4.598   0.505  0.4653  0.1132  0.3136
18174TIP3   OH276012   3.209   6.420   5.333 -0.0911 -0.1145 -0.4807
18174TIP3    H176013   3.305   6.415   5.330  0.0978  1.2360  1.2157
18174TIP3    H276014   3.179   6.351   5.274  1.9146 -1.1904 -0.3303
18175TIP3   OH276015   6.739   6.485   0.409 -0.1299 -0.4205  0.5636
18175TIP3    H176016   6.787   6.405   0.385 -1.5116 -0.3945 -2.9608
18175TIP3    H276017   6.653   6.455   0.436  0.1261 -0.2049  1.6541
18176TIP3   OH276018   1.025   4.534   4.762  0.3138  0.4331 -0.1549
18176TIP3    H176019   1.033   4.604   4.827  2.0052 -1.6325  2.0506
18176TIP3    H276020   1.025   4.579   4.677 -0.0754  3.1331  1.1850
18177TIP3   OH276021   2.756   2.793   2.447 -0.3377  0.0680 -0.4917
18177TIP3    H176022   2.790   2.807   2.359  3.1497  2.3948  0.9797
18177TIP3    H276023   2.783   2.704   2.469  2.2847  0.7788 -0.5205
18178TIP3   OH276024   6.961   3.215   2.778  0.1190 -0.1800 -0.4892
18178TIP3    H176025   6.930   3.173   2.698  0.7666 -1.3529 -0.1536
18178TIP3    H276026   7.018   3.150   2.819 -1.6399 -0.3775  1.8814
18179TIP3   OH276027   4.337   4.928   1.371  0.4577 -0.0354 -0.4487
18179TIP3    H176028   4.324   4.856   1.433  0.3811  0.8094  0.5458
18179TIP3    H276029   4.249   4.962   1.355  0.5648  0.2809 -0.3652
18180TIP3   OH276030   5.995   5.462   5.035 -0.3404 -0.0710  1.1427
18180TIP3    H176031   5.964   5.538   4.986  2.6458  0.2044 -0.5783
18180TIP3    H276032   6.004   5.494   5.125  0.0357  1.3940  0.6193
18181TIP3   OH276033   6.708   6.722   2.843  0.3842 -0.1395 -0.3527
18181TIP3    H176034   6.780   6.693   2.787 -0.8594 -1.3744 -1.3499
18181TIP3    H276035   6.676   6.802   2.801  1.5754  0.8361  0.4917
18182TIP3   OH276036   1.183   1.290   5.202 -1.0089  0.0589 -0.0295
18182TIP3    H176037   1.228   1.311   5.284 -0.5681  0.0756 -0.2687
18182TIP3    H276038   1.111   1.233   5.228  0.0758 -1.2652  0.2189
18183TIP3   OH276039   6.759   0.460   2.898 -0.4716 -0.5557 -0.1161
18183TIP3    H176040   6.823   0.525   2.870 -0.8935 -0.5684 -1.1565
18183TIP3    H276041   6.806   0.377   2.893  0.2846 -0.2833  1.9034
18184TIP3   OH276042   0.188   0.561   2.272  0.1695 -0.0264  0.0793
18184TIP3    H176043   0.104   0.571   2.227 -0.4361 -0.7727  1.0065
18184TIP3    H276044   0.230   0.647   2.264 -0.4300  0.1953 -0.8741
18185TIP3   OH276045   1.422   1.494   3.672  0.0025 -0.3029  0.1306
18185TIP3    H176046   1.357   1.554   3.708 -0.1028 -0.4739  0.2289
18185TIP3    H276047   1.422   1.511   3.577 -0.2176 -0.3337  0.1254
18186TIP3   OH276048   5.414   7.005   3.960 -0.6901 -0.0310  0.0155
18186TIP3    H176049   5.318   7.004   3.963 -0.6737 -0.6346  0.6346
18186TIP3    H276050   5.439   7.068   4.028 -0.6524  0.5943 -0.5678
18187TIP3   OH276051   3.839   0.563   3.235  0.0815 -0.0557  0.7392
18187TIP3    H176052   3.774   0.607   3.179  0.0697 -0.0371  0.7677
18187TIP3    H276053   3.826   0.470   3.217  1.2400  0.0026 -0.6046
18188TIP3   OH276054   4.620   0.867   3.688 -0.4715  0.0268  0.2079
18188TIP3    H176055   4.689   0.813   3.727 -1.1263  0.0356  1.4119
18188TIP3    H276056   4.665   0.918   3.621  0.2657 -1.6159 -0.5990
18189TIP3   OH276057   0.493   1.661   5.114 -0.2439 -0.4808  0.3619
18189TIP3    H176058   0.571   1.689   5.067 -0.7176  0.4809  0.1096
18189TIP3    H276059   0.515   1.669   5.206  0.0894 -0.5970  0.2906
18190TIP3   OH276060   2.387   5.798   3.473 -0.1149  0.1203 -0.8177
18190TIP3    H176061   2.480   5.818   3.460  0.4034 -1.2061  0.5663
18190TIP3    H276062   2.371   5.815   3.566 -1.5782  1.3971 -1.2487
18191TIP3   OH276063   6.601   7.185   0.401  0.0868  0.1002  0.2786
18191TIP3    H176064   6.680   7.223   0.363  0.1218  0.0736  0.3236
18191TIP3    H276065   6.629   7.099   0.433 -0.1286 -0.2224 -0.3668
18192TIP3   OH276066   4.475   0.917   4.331 -0.5105  0.2520  0.0811
18192TIP3    H176067   4.403   0.867   4.369 -0.0342 -1.0549 -0.6894
18192TIP3    H276068   4.528   0.853   4.285  1.0609  1.2081  0.4730
18193TIP3   OH276069   0.990   4.425  13.417 -0.0664 -0.3551  0.0247
18193TIP3    H176070   1.012   4.500  13.363  0.5278  0.5202  1.4248
18193TIP3    H276071   0.942   4.462  13.492  0.8969 -1.2509  1.1275
18194TIP3   OH276072   6.427   7.201   4.850  0.0475  0.1469  0.3887
18194TIP3    H176073   6.341   7.235   4.825 -0.5707 -1.0053  0.8626
18194TIP3    H276074   6.412   7.157   4.934  0.5770 -2.0345 -0.5719
18195TIP3   OH276075   4.204   2.664   3.016  0.6905  0.7474  0.1222
18195TIP3    H176076   4.168   2.698   3.098 -0.0387  2.2342 -0.7642
18195TIP3    H276077   4.130   2.622   2.972 -0.0074  3.4103 -1.4961
18196TIP3   OH276078   1.884   0.770   2.617  0.0205  0.0628  0.2914
18196TIP3    H176079   1.848   0.771   2.706 -2.3385 -1.4612 -0.5598
18196TIP3    H276080   1.926   0.855   2.608  0.2146  0.3151  2.8055
18197TIP3   OH276081   5.478   1.136   4.363  0.1599  0.6572  0.2096
18197TIP3    H176082   5.413   1.162   4.429  2.7194  1.4561  2.6363
18197TIP3    H276083   5.431   1.077   4.305 -3.0090  2.0874  1.0884
18198TIP3   OH276084   3.142   4.504   3.438  0.3150  0.5619  0.1852
18198TIP3    H176085   3.151   4.599   3.451 -1.7627  1.0987 -1.6036
18198TIP3    H276086   3.220   4.480   3.388  1.3794  1.0899  1.5264
18199TIP3   OH276087   7.151   4.247   2.547  0.0807  0.6394  0.2847
18199TIP3    H176088   7.226   4.270   2.493 -1.1337 -2.1266 -2.9744
18199TIP3    H276089   7.077   4.248   2.486 -1.8377 -0.4262  2.4384
18200TIP3   OH276090   0.721   4.163   5.153 -0.2195  0.3861  0.3561
18200TIP3    H176091   0.732   4.128   5.241 -0.5239 -0.6962 -0.0166
18200TIP3    H276092   0.698   4.087   5.100 -2.3585  1.3628 -0.2406
18201TIP3   OH276093   0.320   5.982   2.684 -0.2408  0.6053 -0.4788
18201TIP3    H176094   0.370   6.063   2.688 -0.0899  0.4722  0.6238
18201TIP3    H276095   0.252   5.999   2.619 -0.4984  1.7877  0.0758
18202TIP3   OH276096   7.212   3.994   0.128 -0.4601  0.0944 -0.1356
18202TIP3    H176097   7.124   3.965   0.105 -0.8401  0.3373  0.9670
18202TIP3    H276098   7.255   3.916   0.164 -0.8218  0.3954  0.9740
18203TIP3   OH276099   5.121   6.214   4.674 -0.0278 -0.5428  0.1513
18203TIP3    H176100   5.060   6.285   4.695  0.1702 -0.8473  1.9190
18203TIP3    H276101   5.202   6.259   4.650 -0.5010 -0.1628 -0.8179
18204TIP3   OH276102   6.230   3.078   4.324 -0.0087 -0.3123 -0.3442
18204TIP3    H176103   6.166   3.051   4.259 -1.4378  2.3902 -0.2054
18204TIP3    H276104   6.307   3.024   4.306 -0.4815 -0.0253 -3.9815
18205TIP3   OH276105   6.727   2.121   2.473 -0.8213  0.5670 -0.5750
18205TIP3    H176106   6.703   2.159   2.558 -0.7754  3.1639 -1.6280
18205TIP3    H276107   6.821   2.133   2.467 -0.7051 -0.3531 -0.6647
18206TIP3   OH276108   1.455   3.604   3.671 -0.0825  0.2273  0.8267
18206TIP3    H176109   1.507   3.570   3.598 -0.5698 -0.4662  0.7998
18206TIP3    H276110   1.459   3.699   3.660 -0.5137  0.1263 -0.3619
18207TIP3   OH276111   3.987   2.148   5.356 -0.0360 -0.1749  0.0049
18207TIP3    H176112   4.003   2.144   5.450 -1.4543  0.7722  0.3132
18207TIP3    H276113   3.951   2.062   5.334  3.1510 -1.5628 -0.3142
18208TIP3   OH276114   0.912   1.047   1.301 -0.1439  0.6181 -0.5759
18208TIP3    H176115   0.911   1.094   1.384 -1.9407  0.8715 -0.6911
18208TIP3    H276116   0.858   0.969   1.317 -0.4336  0.6202 -1.4571
18209TIP3   OH276117   5.462   0.270   3.556  0.6919  0.1683  0.0136
18209TIP3    H176118   5.475   0.292   3.464 -0.7026  1.0670  0.0019
18209TIP3    H276119   5.469   0.354   3.602 -0.6360  0.0524  0.4668
18210TIP3   OH276120   6.566   4.262   4.912 -0.0771 -0.7377 -0.6033
18210TIP3    H176121   6.649   4.282   4.869 -2.2350  1.2264 -4.4409
18210TIP3    H276122   6.522   4.202   4.852 -1.9129 -0.7368  0.6628
18211TIP3   OH276123   2.777   6.124  13.599 -0.1820  0.1681 -0.0993
18211TIP3    H176124   2.782   6.095  13.508  1.0814  1.0973 -0.3556
18211TIP3    H276125   2.766   6.043  13.649 -0.2933 -0.4106 -1.0278
18212TIP3   OH276126   6.661   5.380   4.359  0.7466  0.3579 -0.1339
18212TIP3    H176127   6.629   5.427   4.436 -0.2137 -0.9258  0.2802
18212TIP3    H276128   6.673   5.289   4.390  3.9637  0.5251 -0.4875
18213TIP3   OH276129   3.776   6.259   5.166 -0.0327  0.0796  0.8157
18213TIP3    H176130   3.784   6.348   5.130 -0.0291 -0.2312  0.0320
18213TIP3    H276131   3.683   6.237   5.155  0.0106 -0.0979  0.8020
18214TIP3   OH276132   1.515   1.487  14.932 -0.3940  0.3974  0.0705
18214TIP3    H176133   1.478   1.457  14.849 -0.9339  0.1764  0.3830
18214TIP3    H276134   1.600   1.445  14.937 -1.3506 -1.6030  0.7589
18215TIP3   OH276135   0.298   2.792  13.246 -0.2618 -0.0901  0.4018
18215TIP3    H176136   0.325   2.842  13.322  1.7970 -1.1278  0.4107
18215TIP3    H276137   0.260   2.857  13.186  0.8882  1.2168  1.0507
18216TIP3   OH276138   4.935   0.153   5.589 -0.3001 -0.5721 -0.3859
18216TIP3    H176139   5.023   0.190   5.593 -0.9080  1.1042 -1.3192
18216TIP3    H276140   4.948   0.058   5.592  1.2931 -0.3803  2.9772
18217TIP3   OH276141   1.308   0.354   4.853  0.1230 -0.3716  0.3288
18217TIP3    H176142   1.302   0.274   4.801  1.9149 -0.3866  0.0923
18217TIP3    H276143   1.306   0.424   4.788  0.5571 -0.3184  0.3684
18218TIP3   OH276144   3.205   1.134   1.456  0.0597  0.0137 -0.2422
18218TIP3    H176145   3.267   1.105   1.389 -0.9420  1.4857 -1.8720
18218TIP3    H276146   3.237   1.220   1.483 -0.0879 -0.1534  0.5061
18219TIP3   OH276147   6.532   3.863   3.776  0.0391 -0.5154 -0.0081
18219TIP3    H176148   6.446   3.878   3.737 -0.0308  0.5924  0.5356
18219TIP3    H276149   6.575   3.803   3.716 -0.6489 -0.1000 -0.9444
18220TIP3   OH276150   1.608   7.165   4.871  0.0059 -0.7277  0.2939
18220TIP3    H176151   1.559   7.167   4.953  1.2610 -1.0022  1.0733
18220TIP3    H276152   1.697   7.191   4.895  0.5376 -1.3820 -0.8803
18221TIP3   OH276153   3.976   5.365   5.372 -0.5809 -0.2689 -0.1478
18221TIP3    H176154   4.056   5.314   5.387 -0.3039 -0.5322 -2.1642
18221TIP3    H276155   3.915   5.336   5.439  0.5747 -1.0265  0.6156
18222TIP3   OH276156   1.866   0.279   5.705 -0.5788  0.1952  0.3475
18222TIP3    H176157   1.777   0.289   5.672 -0.9083  0.0699  1.1787
18222TIP3    H276158   1.864   0.198   5.758 -0.1835  0.6148  1.0271
18223TIP3   OH276159   3.518   2.907   3.576 -0.7568  0.3181  0.1039
18223TIP3    H176160   3.520   2.955   3.659  1.9650 -1.1492  0.9938
18223TIP3    H276161   3.429   2.872   3.571 -0.8691  0.0587  2.6744
18224TIP3   OH276162   0.947   4.361   5.304 -0.1473  0.0877 -0.1885
18224TIP3    H176163   0.983   4.272   5.311  0.7303  0.4001 -0.5396
18224TIP3    H276164   0.879   4.365   5.371  1.5229 -0.0440  1.5966
18225TIP3   OH276165   4.541   6.871  13.413  0.3444  0.3218 -0.1308
18225TIP3    H176166   4.607   6.889  13.479  0.5909  0.0908 -0.3116
18225TIP3    H276167   4.581   6.899  13.331  0.8948 -1.3833 -0.4772
18226TIP3   OH276168   5.189   1.628   2.081 -0.0380 -0.0648  0.6905
18226TIP3    H176169   5.096   1.631   2.059  0.0609  3.9268  0.0239
18226TIP3    H276170   5.226   1.565   2.019 -1.9882 -0.1748 -0.4700
18227TIP3   OH276171   2.272   3.444  13.840 -0.3860 -0.0336 -0.1743
18227TIP3    H176172   2.280   3.349  13.841  3.9518  0.1497 -0.1547
18227TIP3    H276173   2.274   3.470  13.932  0.3596  0.1314 -0.2317
18228TIP3   OH276174   6.162   1.927   3.873 -0.2140  0.7528  0.2248
18228TIP3    H176175   6.069   1.940   3.854 -0.8135  1.9993  3.3805
18228TIP3    H276176   6.164   1.899   3.964  2.4709 -0.9870 -0.2644
18229TIP3   OH276177   3.506   1.473   5.516 -0.5589 -0.0550  0.0167
18229TIP3    H176178   3.497   1.388   5.559 -1.8907  0.7284  1.3924
18229TIP3    H276179   3.542   1.531   5.584 -0.6533  0.7201 -0.5796
18230TIP3   OH276180   0.347   3.362   4.439  0.5886 -0.0997 -0.0582
18230TIP3    H176181   0.442   3.358   4.427  0.4741 -0.2064 -1.0032
18230TIP3    H276182   0.311   3.344   4.352 -0.2953  0.3229  0.2097
18231TIP3   OH276183   3.033   6.176   3.622  0.0199  0.0441 -0.2004
18231TIP3    H176184   2.970   6.248   3.630 -0.9076 -0.9043  1.6015
18231TIP3    H276185   2.981   6.097   3.632  1.3089 -0.8251 -0.1265
18232TIP3   OH276186   1.414   6.619   2.854 -0.6931  0.5307 -0.4181
18232TIP3    H176187   1.419   6.678   2.779 -0.3330  1.3437  0.2324
18232TIP3    H276188   1.353   6.551   2.827 -0.3733  0.6670 -1.5448
18233TIP3   OH276189   4.756   0.466   3.102  0.4710  0.1407 -0.0098
18233TIP3    H176190   4.779   0.557   3.080  0.8829 -0.1621 -0.9202
18233TIP3    H276191   4.672   0.472   3.146 -0.4874  0.8294 -1.8263
18234TIP3   OH276192   1.769   4.657   3.359 -0.0908 -0.1657 -0.2998
18234TIP3    H176193   1.789   4.751   3.355  0.5243 -0.2581  0.4175
18234TIP3    H276194   1.698   4.645   3.295 -0.4887  0.8672 -0.0785
18235TIP3   OH276195   2.056   0.185   0.211  0.1722  0.2603 -0.8154
18235TIP3    H176196   2.122   0.190   0.143  0.3697 -1.6918 -0.8341
18235TIP3    H276197   1.973   0.180   0.163  0.2944 -0.8784 -0.9361
18236TIP3   OH276198   2.646   0.675   1.494 -0.1560  0.0757  0.5120
18236TIP3    H176199   2.726   0.729   1.491 -1.9295  2.9168 -0.4305
18236TIP3    H276200   2.611   0.690   1.581  0.5817 -1.6569  1.1389
18237TIP3   OH276201   7.042   5.047   0.778 -0.3715 -1.1731  0.2328
18237TIP3    H176202   7.136   5.066   0.773 -0.7047  0.8110  0.6226
18237TIP3    H276203   7.034   4.984   0.850  0.6007 -0.9837  0.5184
18238TIP3   OH276204   5.541   4.711   0.742  0.0640 -0.5216  0.0610
18238TIP3    H176205   5.452   4.728   0.711 -0.8698  0.2413  2.7851
18238TIP3    H276206   5.596   4.773   0.695 -0.9857 -0.3934 -1.0295
18239TIP3   OH276207   1.282   6.094   1.133  0.5668 -0.1626 -0.1435
18239TIP3    H176208   1.252   6.155   1.065  0.7679 -0.4945 -0.5409
18239TIP3    H276209   1.222   6.020   1.126  1.3821 -0.7699 -0.8522
18240TIP3   OH276210   0.481   1.663   0.965  0.2604  0.2680  0.2183
18240TIP3    H176211   0.545   1.594   0.977  1.5665  0.8822 -2.4359
18240TIP3    H276212   0.417   1.627   0.903  0.4410  1.0829 -0.4728
18241TIP3   OH276213   4.068   1.467   4.484  0.1440 -0.0518 -0.0746
18241TIP3    H176214   4.073   1.371   4.477  0.3084  0.0850 -2.7555
18241TIP3    H276215   4.154   1.492   4.518 -0.1933 -0.8700  1.4850
18242TIP3   OH276216   6.585   6.303   4.305 -0.1664  0.2716 -0.0590
18242TIP3    H176217   6.667   6.352   4.306 -1.0401  1.8050 -0.2997
18242TIP3    H276218   6.558   6.303   4.213  0.1982 -1.3832 -0.1975
18243TIP3   OH276219   0.256   4.098   2.490 -0.2403  0.2683 -0.2257
18243TIP3    H176220   0.324   4.118   2.426 -0.7749 -0.6664 -1.1170
18243TIP3    H276221   0.175   4.129   2.449 -0.2409  3.0181  1.5531
18244TIP3   OH276222   6.789   1.758   6.045  0.0240 -0.2382 -0.4705
18244TIP3    H176223   6.757   1.841   6.011 -0.3661 -0.3250 -0.3226
18244TIP3    H276224   6.858   1.732   5.984  0.5693  0.4896 -0.1752
18245TIP3   OH276225   2.535   4.676   5.150 -0.3367  0.1725  0.1526
18245TIP3    H176226   2.498   4.595   5.183  1.0181 -0.1606  0.9113
18245TIP3    H276227   2.608   4.648   5.094 -0.3441  0.8401 -0.1994
18246TIP3   OH276228   1.603   4.218   3.562 -0.0190 -0.8585  0.2110
18246TIP3    H176229   1.670   4.276   3.525 -0.5370 -0.0674  0.4869
18246TIP3    H276230   1.598   4.242   3.654 -3.0711  1.5781 -0.4287
18247TIP3   OH276231   4.467   2.290  12.864 -0.3873 -0.1369 -0.3062
18247TIP3    H176232   4.403   2.339  12.813  0.2935  0.4550 -0.6094
18247TIP3    H276233   4.451   2.198  12.840 -1.4546 -0.0430  0.0212
18248TIP3   OH276234   7.158   2.575  15.308 -0.1908  0.3402  0.4435
18248TIP3    H176235   7.217   2.625  15.364 -0.0061  0.3613  0.2330
18248TIP3    H276236   7.095   2.536  15.368  0.9786 -1.0062  0.8361
18249TIP3   OH276237   4.308   0.892   2.869 -0.4221 -0.4914  0.3575
18249TIP3    H176238   4.270   0.834   2.935 -1.2919 -0.3081  0.0286
18249TIP3    H276239   4.381   0.936   2.915  0.8657 -2.4933  0.3526
18250TIP3   OH276240   5.998   1.073   4.156  0.1163 -0.4861 -0.2601
18250TIP3    H176241   5.998   0.978   4.164  1.3521 -0.3879  1.5661
18250TIP3    H276242   5.917   1.101   4.197 -0.2312 -0.7465 -0.7676
18251TIP3   OH276243   1.104   3.156   3.567  0.0879 -0.0803 -0.4430
18251TIP3    H176244   1.050   3.149   3.488 -0.5540  1.8274 -0.2410
18251TIP3    H276245   1.054   3.112   3.635 -0.0346 -0.4845 -0.7931
18252TIP3   OH276246   1.439   6.612   3.128 -0.5687 -0.0290 -0.1719
18252TIP3    H176247   1.418   6.617   3.035 -1.4606 -0.5914 -0.0239
18252TIP3    H276248   1.534   6.615   3.132 -0.4202 -1.7168 -1.2427
18253TIP3   OH276249   4.261   0.395   1.907  0.1350 -0.3301 -0.1890
18253TIP3    H176250   4.327   0.334   1.942 -1.5783 -2.2995 -0.1570
18253TIP3    H276251   4.241   0.454   1.980 -0.4106 -1.7778  0.8926
18254TIP3   OH276252   5.172   1.184   4.878  0.3793 -0.2952  0.3069
18254TIP3    H176253   5.102   1.123   4.857  1.0152 -0.1643 -2.5462
18254TIP3    H276254   5.130   1.254   4.927 -1.0168 -1.3159  0.6162
18255TIP3   OH276255   2.731   0.009   3.261 -0.2216 -0.4079  0.1485
18255TIP3    H176256   2.725  -0.024   3.351  0.8916 -0.1715  0.3318
18255TIP3    H276257   2.791  -0.053   3.218 -1.0195 -0.7167 -0.5280
18256TIP3   OH276258   1.372   4.768   4.746  0.1257  0.3145 -0.0446
18256TIP3    H176259   1.374   4.726   4.832  0.6608 -0.6724 -0.5256
18256TIP3    H276260   1.292   4.821   4.747  0.1070  0.2904  1.0413
18257TIP3   OH276261   0.376   4.330  15.387  0.2630  0.2557 -0.3326
18257TIP3    H176262   0.281   4.328  15.396  0.3910 -1.3762  1.2503
18257TIP3    H276263   0.394   4.271  15.314  0.0637  0.8141 -0.8435
18258TIP3   OH276264   4.866   2.245  14.202 -0.8250  0.1403  0.0781
18258TIP3    H176265   4.786   2.244  14.254 -0.0780  0.1328  1.2555
18258TIP3    H276266   4.934   2.214  14.262  0.1729  0.7351 -0.7224
18259TIP3   OH276267   5.955   0.259   4.064  0.3174 -0.2636  0.1937
18259TIP3    H176268   5.861   0.253   4.079  0.3073  0.9841  0.7478
18259TIP3    H276269   5.963   0.313   3.985  0.5777 -0.0484  0.3662
18260TIP3   OH276270   1.331   1.194   4.958  0.4170  0.2573  0.1039
18260TIP3    H176271   1.285   1.225   5.036 -0.4431  0.0886 -0.3310
18260TIP3    H276272   1.365   1.273   4.917 -3.3618  1.0093 -2.0451
18261TIP3   OH276273   4.284   3.498   3.010 -0.4730 -0.2080 -0.1901
18261TIP3    H176274   4.298   3.521   3.102  0.8138  1.4297 -0.7350
18261TIP3    H276275   4.340   3.422   2.996  0.8786  0.7102 -0.0456
18262TIP3   OH276276   5.445   0.985   2.894 -0.0110  0.1556  0.5262
18262TIP3    H176277   5.358   0.975   2.932 -0.2508  0.7657  0.1526
18262TIP3    H276278   5.445   1.073   2.856 -0.5236 -1.1477 -2.7543
18263TIP3   OH276279   5.641   3.017   1.400 -0.1613  0.1518  0.1849
18263TIP3    H176280   5.732   3.036   1.418  0.6134 -1.6158 -1.4431
18263TIP3    H276281   5.622   3.062   1.317 -1.2339  1.6915  1.2267
18264TIP3   OH276282   3.422   2.606   3.383 -0.3922 -0.4315  0.2926
18264TIP3    H176283   3.442   2.660   3.460  1.2088  0.1532 -0.4933
18264TIP3    H276284   3.328   2.592   3.388 -0.6655  1.4055  1.1980
18265TIP3   OH276285   3.670   2.874  10.313  0.0321 -0.5486 -0.3889
18265TIP3    H176286   3.607   2.919  10.369 -1.3592 -1.1968 -1.3766
18265TIP3    H276287   3.680   2.787  10.351  2.0336  0.2016  0.9967
18266TIP3   OH276288   2.236   1.619   0.929 -0.2389 -0.4074  0.4803
18266TIP3    H176289   2.289   1.582   0.859  0.3108  2.5143 -0.8150
18266TIP3    H276290   2.146   1.615   0.896 -0.2146 -0.7612  0.4551
18267TIP3   OH276291   0.584   4.524   5.751  0.2562  0.4748 -0.4813
18267TIP3    H176292   0.627   4.590   5.696 -0.3309  0.5002 -0.9212
18267TIP3    H276293   0.493   4.554   5.757  0.4578  0.8715  1.1196
18268TIP3   OH276294   2.124   5.898   4.525 -0.5583  0.1833 -0.1923
18268TIP3    H176295   2.103   5.880   4.617 -0.7136  0.0823 -0.2466
18268TIP3    H276296   2.180   5.975   4.528  0.9029 -0.8474  0.1136
18269TIP3   OH276297   3.562   4.822  15.282 -0.4848  0.2247 -0.6085
18269TIP3    H176298   3.555   4.880  15.206  0.0296 -0.1984 -0.9851
18269TIP3    H276299   3.647   4.842  15.321 -0.1253 -0.5451 -0.9721
18270TIP3   OH276300   4.139   5.958   5.101  0.3400  0.1213 -0.8599
18270TIP3    H176301   4.084   6.011   5.160  1.5980  0.9150 -0.3641
18270TIP3    H276302   4.189   6.022   5.051 -0.3514 -0.5602 -2.4905
18271TIP3   OH276303   7.165   2.969   3.338  0.0921 -0.0660  0.0536
18271TIP3    H176304   7.122   2.947   3.421  2.8556 -0.4509  1.4844
18271TIP3    H276305   7.248   2.922   3.340  1.4473  2.0548 -1.7086
18272TIP3   OH276306   4.090   0.400   4.917  0.3538  0.1514 -0.0965
18272TIP3    H176307   4.036   0.443   4.851 -1.7439  1.0426  2.0631
18272TIP3    H276308   4.113   0.470   4.978  1.8725 -0.7315  0.3913
18273TIP3   OH276309   2.331   5.950   2.552 -0.2672  0.5143  0.4873
18273TIP3    H176310   2.385   6.023   2.521 -1.3218  0.6870 -1.0547
18273TIP3    H276311   2.248   5.959   2.504 -0.2410 -1.9817 -0.1842
18274TIP3   OH276312   2.417   4.017   0.449 -0.2060  0.1760  0.6705
18274TIP3    H176313   2.349   4.023   0.517  1.1834  0.0025  2.1450
18274TIP3    H276314   2.407   4.097   0.398 -1.9156 -0.1517  0.4548
18275TIP3   OH276315   3.717   0.171   0.299 -0.6921  0.0913  0.7314
18275TIP3    H176316   3.647   0.125   0.344  0.1570 -1.1254  0.8824
18275TIP3    H276317   3.770   0.210   0.369 -0.6468  0.1299  0.6766
18276TIP3   OH276318   2.487   3.393   1.657  0.6197 -0.4111  0.2709
18276TIP3    H176319   2.408   3.402   1.711  0.9846 -0.2305  0.7854
18276TIP3    H276320   2.459   3.342   1.581  0.2438 -1.2440  0.9503
18277TIP3   OH276321   6.105   0.106   2.372 -0.1673 -0.1770  0.3971
18277TIP3    H176322   6.102   0.032   2.432 -1.2480 -0.5665 -0.1121
18277TIP3    H276323   6.155   0.173   2.419  1.4630 -1.4465  0.5882
18278TIP3   OH276324   2.350   0.472   4.696 -0.6120  0.2171 -0.3045
18278TIP3    H176325   2.380   0.561   4.715 -0.6853  0.0431  0.6682
18278TIP3    H276326   2.398   0.416   4.758  1.0402 -0.6943 -2.2803
18279TIP3   OH276327   3.425   3.183   5.072  0.3967 -0.0231 -0.0158
18279TIP3    H176328   3.446   3.152   4.984  1.1435  1.4086 -0.3849
18279TIP3    H276329   3.436   3.278   5.066 -3.4352  0.5935  0.5819
18280TIP3   OH276330   1.707   2.794   1.897  0.3331  0.0733  0.3587
18280TIP3    H176331   1.665   2.777   1.813  0.4396 -1.1178  0.5230
18280TIP3    H276332   1.795   2.822   1.874  0.5254 -0.7278  0.0597
18281TIP3   OH276333   4.523   4.058   4.751 -0.0765 -0.1411 -0.2021
18281TIP3    H176334   4.536   3.984   4.691 -0.2633 -0.0520 -0.3565
18281TIP3    H276335   4.436   4.092   4.727 -0.3625 -0.3995  0.4398
18282TIP3   OH276336   5.143   6.284  13.708 -0.2542 -0.4757 -0.1551
18282TIP3    H176337   5.223   6.245  13.744 -0.7547 -1.3343  0.0503
18282TIP3    H276338   5.088   6.209  13.684 -1.0493  0.1015 -0.1829
18283TIP3   OH276339   2.566   1.122   2.874 -0.0848  0.3716 -0.4224
18283TIP3    H176340   2.503   1.181   2.833 -1.3015 -0.9353 -0.4989
18283TIP3    H276341   2.552   1.133   2.968 -0.8811 -0.3692 -0.4460
18284TIP3   OH276342   0.086   6.503  13.379  0.2184  0.3920 -0.4584
18284TIP3    H176343   0.124   6.443  13.442 -1.7811 -0.1230  0.3460
18284TIP3    H276344   0.004   6.461  13.352 -0.8853  2.3813 -0.4319
18285TIP3   OH276345   7.179   1.622   1.793 -0.2202 -0.5865  0.0869
18285TIP3    H176346   7.184   1.694   1.856 -3.7624  0.1035 -0.2182
18285TIP3    H276347   7.130   1.553   1.839  1.5750 -2.1501 -0.2417
18286TIP3   OH276348   2.476   3.016   2.635 -0.0832  0.1323 -0.3353
18286TIP3    H176349   2.493   3.082   2.702  2.7143 -1.5601  0.7702
18286TIP3    H276350   2.527   3.045   2.560 -0.5030  0.2625 -0.5747
18287TIP3   OH276351   5.190   5.701   5.531 -0.0291  0.0580  0.4436
18287TIP3    H176352   5.257   5.742   5.586 -0.8727  2.4434 -0.1917
18287TIP3    H276353   5.219   5.719   5.441 -1.0898  0.4100  0.1601
18288TIP3   OH276354   1.917   4.840   1.509  0.2758 -0.0748  0.3376
18288TIP3    H176355   1.851   4.772   1.521 -1.4860  1.6798  1.1413
18288TIP3    H276356   1.907   4.866   1.417  0.2138 -0.1756  0.3150
18289TIP3   OH276357   2.555   1.558   5.119  0.9139 -0.2135 -0.5307
18289TIP3    H176358   2.518   1.471   5.106  0.7722 -0.2412  0.0073
18289TIP3    H276359   2.523   1.584   5.206  0.4898  0.6120 -0.9285
18290TIP3   OH276360   2.176   2.369   3.632 -0.6369  0.4359  0.3978
18290TIP3    H176361   2.211   2.283   3.654 -2.1488 -0.2833  0.0715
18290TIP3    H276362   2.241   2.430   3.666  1.9488 -0.8215 -1.8860
18291TIP3   OH276363   6.183   5.213   3.594 -0.0060  0.2455  0.3601
18291TIP3    H176364   6.236   5.168   3.528 -0.1276 -0.3905  0.6880
18291TIP3    H276365   6.144   5.287   3.547  0.1908  0.0066 -0.1911
18292TIP3   OH276366   3.552   3.431   0.256  0.3696 -0.3947  0.2230
18292TIP3    H176367   3.518   3.342   0.265  0.7256 -0.4666  0.9229
18292TIP3    H276368   3.587   3.453   0.342  0.5313  0.3262 -0.0121
18293TIP3   OH276369   3.641   5.844   2.163  0.2908 -0.3226  0.1534
18293TIP3    H176370   3.621   5.861   2.071 -1.1126 -0.9445  0.3123
18293TIP3    H276371   3.636   5.930   2.205  3.4301  0.4135 -0.6986
18294TIP3   OH276372   4.433   5.777   5.909  0.0851  0.2757  0.4951
18294TIP3    H176373   4.446   5.870   5.889  1.4902  0.1881  0.9003
18294TIP3    H276374   4.381   5.778   5.990 -0.0069  0.7066  0.4355
18295TIP3   OH276375   4.555   4.749   1.373  0.0350 -0.0056 -0.2456
18295TIP3    H176376   4.608   4.761   1.452  0.3966 -0.2446 -0.4536
18295TIP3    H276377   4.507   4.832   1.364  1.4710  0.8025 -0.8867
18296TIP3   OH276378   6.423   3.030   2.780  0.6099 -0.0243 -0.5135
18296TIP3    H176379   6.351   2.968   2.787  0.2470  0.5707  2.1097
18296TIP3    H276380   6.402   3.099   2.843  2.0138  1.7321 -1.8390
18297TIP3   OH276381   0.118   2.034   1.781  0.7854  0.2185  0.5561
18297TIP3    H176382   0.195   2.004   1.733 -1.1912 -0.1432 -2.7408
18297TIP3    H276383   0.129   2.129   1.789  1.5406  0.1723  0.0794
18298TIP3   OH276384   1.128   0.784  14.641  0.3769 -0.4262 -0.2588
18298TIP3    H176385   1.051   0.838  14.622 -1.6830 -3.0676 -0.0465
18298TIP3    H276386   1.120   0.764  14.734  0.7267 -1.5795 -0.4636
18299TIP3   OH276387   4.357   0.287   3.122 -0.0087 -0.6202 -0.0409
18299TIP3    H176388   4.419   0.359   3.134 -1.7411  1.2257 -1.5476
18299TIP3    H276389   4.284   0.308   3.181 -0.9765 -0.5554 -1.2228
18300TIP3   OH276390   3.800   4.476   5.610 -0.2162  0.4899  0.1231
18300TIP3    H176391   3.726   4.497   5.667  0.1960  1.3214  0.3612
18300TIP3    H276392   3.815   4.383   5.624 -0.0384  0.7010  1.4746
18301TIP3   OH276393   4.417   4.645   4.030 -0.6704  0.2549 -0.2798
18301TIP3    H176394   4.380   4.603   4.107  0.4582 -2.3941 -1.0612
18301TIP3    H276395   4.341   4.673   3.979 -1.5577 -1.2617  0.1361
18302TIP3   OH276396   4.593   1.950   3.476 -0.4881  0.1073  0.0761
18302TIP3    H176397   4.590   2.044   3.458  0.8016  0.0789 -0.4247
18302TIP3    H276398   4.671   1.919   3.430 -0.9127 -1.2268  0.1925
18303TIP3   OH276399   4.013   3.913   0.400  0.1143  0.4682 -0.6222
18303TIP3    H176400   4.063   3.840   0.364  0.7081  0.4656  0.1734
18303TIP3    H276401   4.076   3.963   0.451 -0.8838 -0.1018  1.2573
18304TIP3   OH276402   2.590   5.264   3.565 -0.5397 -0.5100 -0.3084
18304TIP3    H176403   2.540   5.346   3.562  0.9729  0.4672  0.1346
18304TIP3    H276404   2.524   5.196   3.557 -2.1883  0.6539  2.1758
18305TIP3   OH276405   6.164   0.132  13.166  0.2820 -0.7619 -0.2501
18305TIP3    H176406   6.069   0.140  13.170  0.0895 -2.4019 -0.6050
18305TIP3    H276407   6.197   0.213  13.204 -1.2278  0.5733 -1.6341
18306TIP3   OH276408   1.694   1.074   3.721  0.0893 -0.1458  0.0121
18306TIP3    H176409   1.609   1.035   3.699 -0.3790 -0.0436  1.5580
18306TIP3    H276410   1.699   1.151   3.664 -1.7331  0.9096  1.1861
18307TIP3   OH276411   7.175   2.181   1.058 -0.0922  0.0502  0.0904
18307TIP3    H176412   7.166   2.164   0.964  2.0310  2.3547 -0.6371
18307TIP3    H276413   7.124   2.260   1.073 -1.1629 -0.7968  1.1253
18308TIP3   OH276414   3.059   5.564   5.284  0.4102 -0.0963 -0.2873
18308TIP3    H176415   3.105   5.489   5.323  0.1597 -0.8337 -1.3443
18308TIP3    H276416   3.113   5.588   5.209 -0.7010 -0.7458 -1.3352
18309TIP3   OH276417   2.423   4.690   4.785 -0.6730 -0.2429 -0.4145
18309TIP3    H176418   2.512   4.673   4.755 -0.1600 -0.6799  1.2515
18309TIP3    H276419   2.368   4.636   4.728 -0.2117  1.9270 -3.1879
18310TIP3   OH276420   0.685   2.426   2.109 -0.1262 -0.4356  0.0889
18310TIP3    H176421   0.600   2.459   2.081 -0.3251  0.5358  1.6981
18310TIP3    H276422   0.664   2.351   2.165  0.1758 -1.2164 -0.8140
18311TIP3   OH276423   4.512   1.021   4.058 -0.1213  0.6326  0.1127
18311TIP3    H176424   4.467   1.093   4.014  0.6132  0.1140 -1.5642
18311TIP3    H276425   4.477   1.022   4.147 -2.9777  0.6451 -0.9072
18312TIP3   OH276426   1.786   1.261  14.784  0.3255 -0.5439 -0.3396
18312TIP3    H176427   1.820   1.244  14.872 -0.5737  1.0696  0.3638
18312TIP3    H276428   1.717   1.196  14.771 -1.6348  1.0399  1.4347
18313TIP3   OH276429   5.991   6.730   5.525 -0.3159 -0.6041  0.0553
18313TIP3    H176430   5.999   6.824   5.543 -1.4554 -0.6731  1.0132
18313TIP3    H276431   6.025   6.720   5.436  1.0277  0.5062  0.4123
18314TIP3   OH276432   6.086   1.408   5.434 -0.5624 -0.2310  0.6640
18314TIP3    H176433   5.996   1.378   5.448 -0.8353  0.3547  0.2233
18314TIP3    H276434   6.103   1.467   5.508 -0.4821 -0.4681  0.8348
18315TIP3   OH276435   3.078   2.046   3.808  0.4624 -0.2003  0.4182
18315TIP3    H176436   3.030   1.964   3.791 -0.0848 -0.1567  1.5831
18315TIP3    H276437   3.026   2.089   3.876  0.7747  1.1042 -0.1537
18316TIP3   OH276438   5.704   1.520   4.242  0.1676 -0.3266  0.0912
18316TIP3    H176439   5.770   1.507   4.174 -0.0390 -0.1032 -0.1490
18316TIP3    H276440   5.726   1.604   4.282 -1.8321  1.3834 -2.1039
18317TIP3   OH276441   2.143   1.215   2.903  0.0338 -0.4135 -1.1573
18317TIP3    H176442   2.056   1.176   2.910  0.0444 -0.2080  0.9719
18317TIP3    H276443   2.204   1.142   2.915  0.1134 -0.2799 -0.7308
18318TIP3   OH276444   0.693   2.717  14.439  0.5406 -0.0941  0.1075
18318TIP3    H176445   0.635   2.648  14.470  0.9272  0.3435  1.8724
18318TIP3    H276446   0.699   2.702  14.344  1.3719 -3.0638  0.5290
18319TIP3   OH276447   5.163   1.546   3.835  0.3523  0.0942  0.3251
18319TIP3    H176448   5.094   1.557   3.769  0.8415  0.8457 -0.0726
18319TIP3    H276449   5.177   1.634   3.870  0.7116 -0.1537  0.8220
18320TIP3   OH276450   6.343   3.482   0.519 -0.1112 -0.3275  0.1316
18320TIP3    H176451   6.389   3.540   0.579 -0.0113  0.2105 -0.4539
18320TIP3    H276452   6.250   3.496   0.538 -0.1608  1.1203 -0.9632
18321TIP3   OH276453   5.235   3.636   0.486 -0.6114  0.3112 -0.3348
18321TIP3    H176454   5.270   3.566   0.431  0.4359  2.0975 -2.0767
18321TIP3    H276455   5.175   3.683   0.429  0.5113  2.2459  0.0017
18322TIP3   OH276456   5.463   2.894   9.221 -0.0274 -0.2660 -0.1585
18322TIP3    H176457   5.368   2.892   9.215 -0.1092 -0.1211  0.9185
18322TIP3    H276458   5.489   2.966   9.164 -0.6970  0.8035  0.8435
18323TIP3   OH276459   0.765   6.446   0.494  0.0093 -0.5030  0.3587
18323TIP3    H176460   0.853   6.451   0.458 -0.4384 -1.1149 -0.8849
18323TIP3    H276461   0.755   6.527   0.544  1.6682 -0.9551  1.4982
18324TIP3   OH276462   4.995   5.436   3.936  0.4539  0.0850  0.6307
18324TIP3    H176463   5.005   5.530   3.922  0.1640 -0.1676 -1.7038
18324TIP3    H276464   4.919   5.429   3.994  0.4941  1.2781  0.8603
18325TIP3   OH276465   0.663   1.107   4.116  0.4024 -0.4005 -0.1945
18325TIP3    H176466   0.722   1.115   4.191  1.6927 -0.6066 -1.1605
18325TIP3    H276467   0.583   1.152   4.144  1.2368  0.4468  0.9126
18326TIP3   OH276468   6.885   2.540   3.892 -0.0085  0.3382 -0.6324
18326TIP3    H176469   6.946   2.580   3.953  0.2875  0.2353 -0.8543
18326TIP3    H276470   6.803   2.590   3.902 -0.3502 -0.4561  0.7215
18327TIP3   OH276471   0.695   3.776  14.122 -0.2235  0.5034  0.5113
18327TIP3    H176472   0.721   3.868  14.123 -0.0996  0.4671  0.6007
18327TIP3    H276473   0.633   3.770  14.049 -0.5896  0.7577  0.7937
18328TIP3   OH276474   4.826   2.903   4.874  0.1542  0.0857 -0.0672
18328TIP3    H176475   4.791   2.966   4.812  3.1775  1.3573 -0.6558
18328TIP3    H276476   4.838   2.953   4.955 -1.9344 -1.0727  1.0564
18329TIP3   OH276477   4.937   1.041   2.667 -0.0987  0.1668  0.0677
18329TIP3    H176478   4.965   0.994   2.745  0.4721  1.4107  0.6256
18329TIP3    H276479   4.897   1.121   2.700  0.0141  0.6416 -0.9078
18330TIP3   OH276480   3.514   3.738  14.313 -0.6339 -0.5201 -0.0778
18330TIP3    H176481   3.590   3.687  14.342  0.4641  1.0455 -0.0861
18330TIP3    H276482   3.508   3.811  14.375 -0.1059  1.1803 -1.9143
18331TIP3   OH276483   1.127   6.513   2.408 -0.0783  0.0888 -0.1204
18331TIP3    H176484   1.172   6.443   2.361 -0.1367 -1.2666  1.7368
18331TIP3    H276485   1.195   6.579   2.424  1.1318 -1.5322  1.8810
18332TIP3   OH276486   6.116   4.967   2.702 -0.5398  0.0013  0.2300
18332TIP3    H176487   6.171   4.982   2.779 -0.2347 -0.1501  0.0439
18332TIP3    H276488   6.040   4.920   2.736  0.2473 -1.3389  0.2374
18333TIP3   OH276489   4.874   3.417   5.346 -0.1385 -0.0034  0.1058
18333TIP3    H176490   4.916   3.340   5.384 -0.7929  0.3266  1.5856
18333TIP3    H276491   4.815   3.382   5.279  1.0633 -0.6067 -0.6764
18334TIP3   OH276492   1.360   4.939   4.451 -1.0410  0.2964  0.0558
18334TIP3    H176493   1.391   4.853   4.481 -0.0561 -0.1251 -1.9843
18334TIP3    H276494   1.413   5.002   4.500 -0.4622 -0.3054  0.2224
18335TIP3   OH276495   4.265   5.361  12.974 -0.6491  0.3424  0.2915
18335TIP3    H176496   4.242   5.418  12.900  0.0316  0.4113  0.1212
18335TIP3    H276497   4.259   5.418  13.050 -1.8365  0.1496  0.3662
18336TIP3   OH276498   4.687   5.535   3.802 -0.1925 -0.1176  0.1673
18336TIP3    H176499   4.604   5.529   3.754 -0.8818  1.6535  1.0611
18336TIP3    H276500   4.743   5.469   3.760 -2.5311 -2.5404  0.5656
18337TIP3   OH276501   1.556   1.730   4.587 -0.0006 -0.6585 -0.4616
18337TIP3    H176502   1.466   1.698   4.580 -0.4017  0.0121  1.1813
18337TIP3    H276503   1.603   1.684   4.517 -1.3816 -1.8196 -0.6824
18338TIP3   OH276504   6.116   4.623   5.335 -0.2263  0.4352 -0.5037
18338TIP3    H176505   6.028   4.640   5.368 -0.4807  0.8846 -1.3920
18338TIP3    H276506   6.167   4.599   5.413 -1.4182 -1.0598 -0.1263
18339TIP3   OH276507   4.133   2.087   1.483 -0.0482 -0.1831 -0.1522
18339TIP3    H176508   4.209   2.040   1.450 -0.8996 -0.9781 -1.0765
18339TIP3    H276509   4.061   2.060   1.425 -1.0191  0.5881  0.6444
18340TIP3   OH276510   4.691   3.196   0.028  0.0965  0.1389  0.0333
18340TIP3    H176511   4.761   3.256   0.004  0.1329 -0.5402 -1.6918
18340TIP3    H276512   4.644   3.180  -0.054  0.1338 -2.2438  0.4333
18341TIP3   OH276513   3.196   3.411   5.138  0.1740  0.3462 -0.1027
18341TIP3    H176514   3.244   3.420   5.221 -0.1831  0.1437  0.1299
18341TIP3    H276515   3.166   3.499   5.117 -1.2285  0.1424  0.8966
18342TIP3   OH276516   0.480   1.890   2.798  0.5905  0.0380 -0.4512
18342TIP3    H176517   0.424   1.911   2.872  2.3678 -0.0782  0.9932
18342TIP3    H276518   0.490   1.794   2.801  3.1369  0.2761  1.1203
18343TIP3   OH276519   4.994   1.997   3.584 -0.0575 -0.3081 -0.4809
18343TIP3    H176520   5.006   1.937   3.658 -2.6380 -2.3244 -1.5377
18343TIP3    H276521   5.024   1.947   3.508  0.8641  1.0571 -1.0600
18344TIP3   OH276522   6.514   7.112   5.116 -0.2855  0.0682 -0.5476
18344TIP3    H176523   6.547   7.040   5.169  1.2185 -0.4566 -2.0681
18344TIP3    H276524   6.585   7.176   5.117  0.2158 -0.3732 -2.6123
18345TIP3   OH276525   5.974   6.030   2.352 -0.3773 -0.1492  0.1990
18345TIP3    H176526   5.944   6.096   2.414 -1.5012  0.2353 -0.7356
18345TIP3    H276527   6.068   6.024   2.368 -0.0526  2.3673 -0.3149
18346TIP3   OH276528   6.370   2.748   4.870  0.1121 -0.2161 -0.7017
18346TIP3    H176529   6.334   2.671   4.826 -1.6927  0.5923 -0.7658
18346TIP3    H276530   6.396   2.717   4.956  0.0386 -1.0354 -0.9692
18347TIP3   OH276531   5.302   4.932   5.215  0.8223 -0.0286 -0.1631
18347TIP3    H176532   5.369   4.871   5.247  0.5249 -0.3207 -0.0926
18347TIP3    H276533   5.219   4.894   5.244  0.5047 -0.5552 -1.6855
18348TIP3   OH276534   4.395   3.945   3.502  0.0890  0.0100 -0.2313
18348TIP3    H176535   4.352   3.958   3.586 -0.5935 -0.0953 -0.5574
18348TIP3    H276536   4.361   4.015   3.446  0.7680  0.2672 -0.3440
18349TIP3   OH276537   4.164   2.387   0.080 -0.2478  0.0640  0.4849
18349TIP3    H176538   4.166   2.478   0.110  0.6209 -0.2751  1.5135
18349TIP3    H276539   4.123   2.339   0.152 -1.7699 -0.2128 -0.5250
18350TIP3   OH276540   1.218   2.513   4.242  0.0836  0.3244 -0.3232
18350TIP3    H176541   1.159   2.438   4.240  1.1303 -0.5334 -0.0255
18350TIP3    H276542   1.299   2.479   4.281  0.5625  1.6211 -0.1421
18351TIP3   OH276543   4.560   5.501   2.419  0.2549 -0.8109  0.1518
18351TIP3    H176544   4.622   5.532   2.485  0.2002 -0.3493 -0.0062
18351TIP3    H276545   4.522   5.422   2.458 -0.6181  0.0800  1.1875
18352TIP3   OH276546   5.707   1.461   0.690 -0.3938 -0.6201  0.4395
18352TIP3    H176547   5.660   1.539   0.718 -0.0295 -0.0718 -0.4161
18352TIP3    H276548   5.717   1.472   0.595  2.3951 -0.1358  0.6986
18353TIP3   OH276549   4.015   0.861   1.578 -0.2485  0.3356 -0.4293
18353TIP3    H176550   4.094   0.848   1.526 -1.1034 -0.3367 -1.5893
18353TIP3    H276551   4.039   0.831   1.666  0.9292  0.6375 -0.6277
18354TIP3   OH276552   7.213   3.116   4.025  0.3075 -0.4821  0.4982
18354TIP3    H176553   7.305   3.130   4.000  0.2333  0.3772  0.6477
18354TIP3    H276554   7.163   3.141   3.947  0.1420  0.6878  0.9610
18355TIP3   OH276555   4.978   2.982   4.379 -0.1434 -0.2040  0.7247
18355TIP3    H176556   4.897   3.034   4.374 -0.3215 -0.3616  1.7799
18355TIP3    H276557   4.954   2.898   4.339 -0.4549 -0.1841  0.8614
18356TIP3   OH276558   3.113   0.756   2.643  0.1396  0.3937  0.7535
18356TIP3    H176559   3.094   0.664   2.661  0.7684  0.0523 -0.2488
18356TIP3    H276560   3.038   0.787   2.592  0.2787  0.2259  0.4452
18357TIP3   OH276561   5.012   3.677   4.805  0.0775  0.1567 -0.3897
18357TIP3    H176562   4.957   3.660   4.881  1.0981 -0.3052  0.2635
18357TIP3    H276563   5.088   3.724   4.840  0.9675 -0.8061 -0.9772
18358TIP3   OH276564   5.209   4.560   1.042 -0.4775 -0.3359 -0.4450
18358TIP3    H176565   5.235   4.492   1.104 -0.6511 -0.5120 -0.5656
18358TIP3    H276566   5.124   4.532   1.009  0.5930 -1.4721 -2.4868
18359TIP3   OH276567   2.969   1.790   4.791  0.0252 -0.0195 -0.2357
18359TIP3    H176568   3.043   1.804   4.851 -0.0250  0.0219 -0.1826
18359TIP3    H276569   2.931   1.706   4.818 -0.9690  0.7437  0.8299
18360TIP3   OH276570   2.641   1.775   2.188  0.1637 -0.7544  0.3863
18360TIP3    H176571   2.609   1.758   2.100 -1.7125 -2.1131  1.2673
18360TIP3    H276572   2.580   1.839   2.224  1.7896  0.9392  0.2448
18361TIP3   OH276573   5.940   0.171   3.316 -0.5382  1.1343 -0.3949
18361TIP3    H176574   5.865   0.206   3.269 -3.0652 -1.8289  1.0348
18361TIP3    H276575   5.947   0.080   3.285  2.1787  1.1463 -0.0725
18362TIP3   OH276576   1.326   5.374   0.025  0.6849 -0.5254  0.1031
18362TIP3    H176577   1.379   5.449   0.050  1.8285 -0.9426 -0.9727
18362TIP3    H276578   1.390   5.305   0.004 -0.2601 -1.0181 -1.2978
18363TIP3   OH276579   4.412   7.106   5.141  0.4062 -0.3748 -0.1497
18363TIP3    H176580   4.496   7.149   5.153  0.9508 -1.7311  1.4112
18363TIP3    H276581   4.347   7.172   5.162  1.1275  0.3484 -0.1692
18364TIP3   OH276582   4.057   1.658   4.751  0.1410 -0.5551  0.2391
18364TIP3    H176583   3.968   1.683   4.777 -0.9002 -1.7073 -1.9569
18364TIP3    H276584   4.064   1.566   4.778  0.1481 -0.8547 -0.7340
18365TIP3   OH276585   6.499   5.467   3.445  0.2740 -0.0354  0.3210
18365TIP3    H176586   6.544   5.465   3.360  1.9161  0.1373  1.1390
18365TIP3    H276587   6.518   5.382   3.484  0.0833  0.1305  0.7831
18366TIP3   OH276588   0.760   2.431   4.036 -0.1959 -0.2518 -0.2522
18366TIP3    H176589   0.780   2.482   4.114  0.2559 -0.1879 -0.4042
18366TIP3    H276590   0.763   2.495   3.964  0.1668 -0.4445 -0.4162
18367TIP3   OH276591   1.065   4.439   3.081  0.2102 -0.1377 -0.3107
18367TIP3    H176592   1.033   4.441   3.171  2.3370 -2.3116  0.5924
18367TIP3    H276593   1.048   4.528   3.048 -1.5889  0.4118  1.8155
18368TIP3   OH276594   1.775   1.945  14.179  0.0815  0.4175  0.4194
18368TIP3    H176595   1.771   1.908  14.091  2.2139 -1.1798  0.8833
18368TIP3    H276596   1.845   2.010  14.175  0.1006  0.4308  0.8733
18369TIP3   OH276597   4.077   3.611   4.289 -0.0650 -0.1160 -0.1002
18369TIP3    H176598   4.150   3.614   4.350 -1.1437  2.5292  1.2379
18369TIP3    H276599   4.017   3.546   4.327 -0.0358  0.3924  0.8503
18370TIP3   OH276600   0.763   5.237   1.758  0.0372 -0.3129  0.0156
18370TIP3    H176601   0.729   5.253   1.846  1.4547  0.7663  0.3964
18370TIP3    H276602   0.685   5.227   1.704 -0.8649  0.0138  1.2151
18371TIP3   OH276603   0.170   7.082   5.211  0.1989  0.4604 -0.4015
18371TIP3    H176604   0.192   7.050   5.298 -1.3761 -1.3909 -0.6305
18371TIP3    H276605   0.202   7.173   5.210  2.5819 -0.2567  1.1642
18372TIP3   OH276606   6.411   6.715   1.186 -0.1030  0.7133  0.8156
18372TIP3    H176607   6.325   6.674   1.176 -0.2620  1.4730 -1.8135
18372TIP3    H276608   6.392   6.806   1.209 -0.0498  0.9247  0.0651
18373TIP3   OH276609   0.444   6.924   2.714 -0.1818 -0.2204  0.3295
18373TIP3    H176610   0.477   6.855   2.656 -0.4391  0.8690 -1.1918
18373TIP3    H276611   0.511   6.992   2.709 -1.2618  0.8323 -0.5369
18374TIP3   OH276612   1.887   3.954  14.433  0.3948 -0.2547 -0.1811
18374TIP3    H176613   1.971   3.939  14.475  0.8699 -1.2166 -1.3923
18374TIP3    H276614   1.910   3.984  14.345 -0.4823 -1.4682 -0.8590
18375TIP3   OH276615   5.816   6.251   2.201  0.1558 -0.2375 -0.3844
18375TIP3    H176616   5.771   6.225   2.120 -0.2943 -1.8624  0.3464
18375TIP3    H276617   5.909   6.240   2.181  0.0149 -1.4379 -0.4465
18376TIP3   OH276618   6.014   1.483  15.263  0.3137 -0.2296  0.2903
18376TIP3    H176619   5.977   1.497  15.350 -0.4377 -0.0386 -0.0503
18376TIP3    H276620   6.107   1.505  15.273  0.4034 -0.9793  1.2217
18377TIP3   OH276621   5.855   1.128  15.262  0.4458 -0.2859 -0.3268
18377TIP3    H176622   5.804   1.139  15.182  2.0413  0.3454 -1.2914
18377TIP3    H276623   5.821   1.196  15.321  0.6665  0.6316 -1.2228
18378TIP3   OH276624   0.097   0.973  14.092  0.7984 -0.1438 -0.0605
18378TIP3    H176625   0.032   0.947  14.157 -0.7581 -0.5477 -1.7098
18378TIP3    H276626   0.066   1.057  14.059  1.5759  0.0633 -0.2901
18379TIP3   OH276627   6.358   6.637   5.430 -0.1407 -0.3478 -0.1144
18379TIP3    H176628   6.309   6.709   5.390  0.9698  1.7883  2.1271
18379TIP3    H276629   6.448   6.650   5.400  0.2057 -0.3086  0.9103
18380TIP3   OH276630   1.417   1.301   4.404  0.6896  0.0341 -0.2370
18380TIP3    H176631   1.356   1.375   4.396  0.8059  0.0400 -1.1391
18380TIP3    H276632   1.363   1.229   4.437  0.5288  0.4607  0.4421
18381TIP3   OH276633   4.794   6.790   3.680 -0.1527 -0.1239  0.0447
18381TIP3    H176634   4.762   6.868   3.636  2.7898  1.2564  0.0839
18381TIP3    H276635   4.753   6.717   3.633 -0.3062  1.3763 -2.2902
18382TIP3   OH276636   4.582   4.377   1.102 -0.3894 -0.3547 -0.6217
18382TIP3    H176637   4.597   4.472   1.102 -1.1725 -0.2158 -1.9356
18382TIP3    H276638   4.665   4.340   1.073  0.5043 -0.2154  1.5662
18383TIP3   OH276639   7.137   4.615   3.777  0.1854  0.1679 -0.0987
18383TIP3    H176640   7.085   4.544   3.738  0.3901 -0.2217  0.3192
18383TIP3    H276641   7.082   4.649   3.848  0.8616 -0.8942  0.9836
18384TIP3   OH276642   4.767   6.308   2.453 -0.4507 -0.5812  0.1628
18384TIP3    H176643   4.794   6.220   2.480 -0.7924 -0.7404  0.0014
18384TIP3    H276644   4.847   6.360   2.454 -0.3242 -0.7846  0.6950
18385TIP3   OH276645   2.980   3.835   2.321  0.0405  0.4380  0.0241
18385TIP3    H176646   2.933   3.917   2.333  1.5486  1.6031 -1.4986
18385TIP3    H276647   2.911   3.769   2.308 -1.1892  1.5513  0.6894
18386TIP3   OH276648   3.122   1.975   4.608  0.7630  0.8485 -0.5520
18386TIP3    H176649   3.122   2.043   4.676 -0.4628  1.6319 -1.3125
18386TIP3    H276650   3.082   1.899   4.651  1.1114  0.9483 -0.0357
18387TIP3   OH276651   1.673   4.615   2.882  0.0872 -0.3397  1.0054
18387TIP3    H176652   1.697   4.523   2.866 -0.0375 -0.2306  0.1640
18387TIP3    H276653   1.586   4.623   2.844  0.8631  0.6176 -0.6413
18388TIP3   OH276654   6.025   4.944   3.972  1.2035 -0.0249  0.4276
18388TIP3    H176655   5.940   4.984   3.952  0.5918 -1.6712 -0.3870
18388TIP3    H276656   6.088   5.013   3.950  0.1082  1.2985  1.2233
18389TIP3   OH276657   3.736   1.336  14.666  0.3927  0.3594 -0.0198
18389TIP3    H176658   3.676   1.268  14.636  0.0686  0.3048  0.7458
18389TIP3    H276659   3.715   1.412  14.612  0.1342  0.1285 -0.2489
18390TIP3   OH276660   4.335   6.744   2.379  0.6187 -0.1146  0.0209
18390TIP3    H176661   4.322   6.810   2.310 -0.4120 -0.6491 -0.3207
18390TIP3    H276662   4.246   6.725   2.410  1.0381 -0.1107  1.3015
18391TIP3   OH276663   2.000   6.603   5.118  0.0984  0.4538  0.2502
18391TIP3    H176664   2.076   6.577   5.171 -0.2425 -2.3841 -0.5197
18391TIP3    H276665   1.929   6.548   5.150 -1.0454  1.3203 -0.7209
18392TIP3   OH276666   3.492   6.337   3.241  0.2274  0.5908  0.2913
18392TIP3    H176667   3.438   6.338   3.321  0.8727  1.2129  0.7369
18392TIP3    H276668   3.460   6.411   3.190 -2.6652 -1.8686 -1.7890
18393TIP3   OH276669   0.656   7.018   5.094 -0.1115  0.1280  0.0210
18393TIP3    H176670   0.715   6.960   5.142  0.7512  0.1323 -0.9850
18393TIP3    H276671   0.596   6.959   5.049 -1.2868  0.1392  1.5005
18394TIP3   OH276672   4.760   5.124   1.552 -0.0505 -0.3930 -0.1155
18394TIP3    H176673   4.694   5.064   1.517  0.6705 -0.3841 -1.5724
18394TIP3    H276674   4.804   5.074   1.621 -1.4748 -0.4340  0.7961
18395TIP3   OH276675   4.223   1.668   3.929 -0.4289 -0.2131  0.6836
18395TIP3    H176676   4.281   1.733   3.889 -1.8199 -0.0520 -1.1917
18395TIP3    H276677   4.162   1.720   3.981 -0.4897 -0.1688  0.5682
18396TIP3   OH276678   6.147   0.300   5.195  0.2301  0.4590 -0.3848
18396TIP3    H176679   6.137   0.387   5.157  0.3622  0.6282 -0.0379
18396TIP3    H276680   6.239   0.296   5.222  0.4353 -0.0927 -1.1339
18397TIP3   OH276681   4.863   5.678   5.283  0.2964  0.0304 -0.3379
18397TIP3    H176682   4.941   5.730   5.266  0.1942  1.2803  2.4453
18397TIP3    H276683   4.829   5.712   5.365 -1.1054 -2.9135  0.4503
18398TIP3   OH276684   3.427   2.024   4.736  0.1118 -0.6271  0.3610
18398TIP3    H176685   3.462   2.078   4.807  1.3508 -1.3847  0.3412
18398TIP3    H276686   3.405   2.086   4.667 -0.7527  0.0840  1.2315
18399TIP3   OH276687   0.323   3.591   4.606 -0.2509  0.6613  0.3978
18399TIP3    H176688   0.309   3.527   4.536  1.1210 -0.5102  1.1411
18399TIP3    H276689   0.407   3.632   4.586  1.2679 -1.2357  2.4081
18400TIP3   OH276690   3.063   6.072   1.984 -0.3923 -0.0121 -0.3377
18400TIP3    H176691   3.008   6.018   2.041 -0.6348  2.1870  1.6177
18400TIP3    H276692   3.138   6.015   1.964 -0.1994 -0.8617  2.3436
18401TIP3   OH276693   1.257   6.444   4.442 -0.1425 -0.8189  0.1416
18401TIP3    H176694   1.322   6.382   4.474 -1.0067 -1.0750  1.4723
18401TIP3    H276695   1.256   6.430   4.347  0.6152 -1.9180  0.2736
18402TIP3   OH276696   5.186   6.139   5.607  0.7514  0.4613 -0.4607
18402TIP3    H176697   5.159   6.090   5.684 -0.9509 -0.6033 -1.6629
18402TIP3    H276698   5.172   6.231   5.631 -0.5868  0.1052  0.2178
18403TIP3   OH276699   4.021   2.538   5.978 -0.0427 -0.3033  0.2372
18403TIP3    H176700   3.925   2.533   5.973 -0.0033 -1.3587  0.3357
18403TIP3    H276701   4.051   2.461   5.931  0.6502 -2.4874  3.8633
18404TIP3   OH276702   6.092   2.652   4.919  0.6181 -0.4174 -0.1454
18404TIP3    H176703   6.034   2.576   4.930  0.8783 -0.7260 -0.8526
18404TIP3    H276704   6.032   2.725   4.905  0.3667 -0.4977  0.4769
18405TIP3   OH276705   3.942   1.143  12.681 -0.6483  0.0069 -0.2874
18405TIP3    H176706   4.031   1.108  12.687 -1.1468 -1.8989 -2.6041
18405TIP3    H276707   3.954   1.233  12.650  0.5134  0.9246  2.4844
18406TIP3   OH276708   6.672   2.715   1.582  0.2922 -0.0900 -0.0489
18406TIP3    H176709   6.621   2.634   1.583  0.6115 -0.4140 -2.7905
18406TIP3    H276710   6.611   2.782   1.614 -1.4022 -0.7429 -1.7320
18407TIP3   OH276711   2.171   3.340   5.280  0.1514  0.7549  0.3663
18407TIP3    H176712   2.078   3.325   5.264  0.0864  1.0535  0.4620
18407TIP3    H276713   2.198   3.398   5.209  0.7038 -0.8092 -0.7689
18408TIP3   OH276714   1.595   1.388   1.346 -0.3064  0.7967 -0.0591
18408TIP3    H176715   1.524   1.448   1.368  0.3196  1.1468  1.1037
18408TIP3    H276716   1.675   1.436   1.367  0.2151 -0.7265  1.8417
18409TIP3   OH276717   3.892   6.137   2.686 -0.1052  0.4808 -0.9037
18409TIP3    H176718   3.965   6.182   2.727 -0.6906  0.3894  0.2778
18409TIP3    H276719   3.924   6.114   2.599  1.4546 -0.0436 -0.2305
18410TIP3   OH276720   3.026   2.307   2.633  0.7007  0.4211 -0.3935
18410TIP3    H176721   3.019   2.313   2.538  1.0293  2.7266 -0.3419
18410TIP3    H276722   3.081   2.381   2.658  0.0623  0.2868  1.6488
18411TIP3   OH276723   4.894   2.372   4.060 -1.5716  0.2414  0.1273
18411TIP3    H176724   4.928   2.460   4.044  0.3282 -0.8817 -2.6638
18411TIP3    H276725   4.947   2.338   4.132  1.7633 -0.5509 -2.4827
18412TIP3   OH276726   0.219   1.649   5.387 -0.6984  0.0752  0.2503
18412TIP3    H176727   0.171   1.628   5.467 -0.6404  2.0363  0.8421
18412TIP3    H276728   0.251   1.564   5.356 -1.7963 -0.8847  1.5927
18413TIP3   OH276729   6.293   5.697   5.173 -0.6293  0.0227 -0.3214
18413TIP3    H176730   6.264   5.782   5.208 -1.9332 -0.6415  0.3076
18413TIP3    H276731   6.305   5.642   5.251  0.1502 -0.3953 -0.7258
18414TIP3   OH276732   6.686   3.620   4.516  0.0818  0.3109  0.0318
18414TIP3    H176733   6.648   3.533   4.529 -0.5498  0.7075  0.9292
18414TIP3    H276734   6.621   3.666   4.463  0.6007  0.1266 -0.7918
18415TIP3   OH276735   6.657   1.197   5.967  0.0253 -0.6859 -0.1676
18415TIP3    H176736   6.681   1.268   6.026  1.2086 -0.5551 -0.7705
18415TIP3    H276737   6.566   1.214   5.944 -0.8869 -1.4246  2.5547
18416TIP3   OH276738   2.056   1.286   2.587  0.3828  0.2155 -0.3898
18416TIP3    H176739   2.120   1.265   2.519 -0.1207 -1.4737 -0.3836
18416TIP3    H276740   1.987   1.332   2.540 -0.0583 -1.1155 -1.1163
18417TIP3   OH276741   3.511   6.364   4.937 -0.4051 -0.5336 -0.4226
18417TIP3    H176742   3.510   6.445   4.987 -2.6441 -0.8350  0.0977
18417TIP3    H276743   3.574   6.380   4.867 -1.8513  2.2231 -1.2150
18418TIP3   OH276744   0.597   4.640   2.754  0.5443  0.5491  0.7185
18418TIP3    H176745   0.553   4.660   2.837  1.0100  0.3032  1.0297
18418TIP3    H276746   0.545   4.686   2.688 -2.4136 -2.6338  0.5690
18419TIP3   OH276747   6.973   2.933   6.247 -0.7063 -0.4099  0.8482
18419TIP3    H176748   6.973   3.023   6.216  1.6661 -0.2923  1.0223
18419TIP3    H276749   6.979   2.880   6.167  0.2025 -0.3097  0.8437
18420TIP3   OH276750   4.137   1.105   5.459  0.5153  0.4861  0.2582
18420TIP3    H176751   4.174   1.020   5.481  1.9003  0.9434 -0.1647
18420TIP3    H276752   4.102   1.094   5.371 -2.2294 -0.4879  1.3716
18421TIP3   OH276753   0.554   1.992  14.767 -0.4043 -0.1667 -0.0598
18421TIP3    H176754   0.548   2.036  14.682  0.9992  0.0008 -0.1040
18421TIP3    H276755   0.484   1.927  14.766 -1.5261  1.0306 -0.6150
18422TIP3   OH276756   1.442   2.635   2.742  0.4280  0.1524  0.4977
18422TIP3    H176757   1.404   2.582   2.812 -0.4029 -0.3418 -0.3071
18422TIP3    H276758   1.428   2.584   2.663  0.1380  1.2997 -0.2206
18423TIP3   OH276759   6.604   3.759   5.602 -0.4448 -0.6666 -0.2255
18423TIP3    H176760   6.681   3.771   5.658  0.5031 -1.3653 -1.3255
18423TIP3    H276761   6.588   3.664   5.604 -0.1924 -0.7516 -1.3680
18424TIP3   OH276762   0.847   4.059   0.444  0.6518  0.0209 -0.1003
18424TIP3    H176763   0.805   4.145   0.448 -0.2607 -0.3989 -0.4515
18424TIP3    H276764   0.933   4.077   0.406  1.3598  1.0785  1.8268
18425TIP3   OH276765   2.224   1.179   3.304 -0.1015 -0.7425 -0.3603
18425TIP3    H176766   2.284   1.145   3.370  1.6101  1.5683 -0.5967
18425TIP3    H276767   2.200   1.102   3.252 -0.5702 -2.4134  2.1389
18426TIP3   OH276768   6.734   5.489   4.643 -0.0009  0.9805 -0.4751
18426TIP3    H176769   6.768   5.551   4.578  1.1744  0.3569 -0.4729
18426TIP3    H276770   6.809   5.469   4.699 -0.7179  0.6232  0.3810
18427TIP3   OH276771   6.141   1.868   2.983 -0.1396  0.0559  0.1789
18427TIP3    H176772   6.194   1.795   2.952 -0.5176 -0.1740  0.0558
18427TIP3    H276773   6.161   1.876   3.076  1.6148  1.2681 -0.2477
18428TIP3   OH276774   4.724   6.997   5.798  0.0675  0.2680 -0.0670
18428TIP3    H176775   4.668   7.072   5.817  1.0132  0.5379  1.9358
18428TIP3    H276776   4.665   6.930   5.764 -1.0494  1.3581 -0.3380
18429TIP3   OH276777   0.112   6.840   3.779 -0.4349  0.3345 -0.0264
18429TIP3    H176778   0.113   6.836   3.683 -1.7738 -0.1186 -0.0420
18429TIP3    H276779   0.183   6.783   3.807  0.5476  1.1614 -0.7435
18430TIP3   OH276780   5.131   0.821   2.452 -0.1136  0.0219 -0.1641
18430TIP3    H176781   5.192   0.789   2.386  0.8306  1.0171  0.1894
18430TIP3    H276782   5.104   0.907   2.420  1.2938  1.0604  1.2736
18431TIP3   OH276783   5.617   4.660   3.427 -0.3001 -0.6675 -0.1859
18431TIP3    H176784   5.553   4.622   3.368 -1.3505 -0.5368  0.8324
18431TIP3    H276785   5.566   4.713   3.488  0.8888  0.3997 -0.0605
18432TIP3   OH276786   4.655   6.863   3.323  0.4431 -0.3984 -0.0149
18432TIP3    H176787   4.658   6.891   3.232 -1.5529 -0.4016 -0.1289
18432TIP3    H276788   4.723   6.915   3.367 -1.0353  2.4080 -0.8194
18433TIP3   OH276789   3.782   7.041   5.084  0.1535 -0.6060 -0.2856
18433TIP3    H176790   3.748   7.012   4.999  2.1201 -0.9618 -0.9886
18433TIP3    H276791   3.763   7.135   5.087 -2.3966 -1.0646  0.1397
18434TIP3   OH276792   6.963   6.669  14.740  0.5876  0.4088  0.4323
18434TIP3    H176793   7.013   6.717  14.806  2.5691 -0.9935  0.0500
18434TIP3    H276794   7.009   6.586  14.732 -1.8089 -0.9516 -0.0498
18435TIP3   OH276795   6.531   1.935   3.108  0.5016 -0.0187 -0.2414
18435TIP3    H176796   6.497   1.936   3.018 -0.5773 -0.4790  0.1530
18435TIP3    H276797   6.573   1.849   3.116  4.1372  1.4416 -1.5453
18436TIP3   OH276798   6.477   3.716   4.956  0.6097 -0.0342  0.0875
18436TIP3    H176799   6.483   3.775   5.031 -0.8104  0.8860 -0.4676
18436TIP3    H276800   6.555   3.735   4.904  0.5732  0.7935  0.3170
18437TIP3   OH276801   2.893   2.816  12.975 -0.3644 -0.3913 -0.3764
18437TIP3    H176802   2.939   2.853  13.050  0.9328 -1.8055 -0.4323
18437TIP3    H276803   2.951   2.830  12.900 -0.8021 -0.6573 -0.7764
18438TIP3   OH276804   0.290   1.992  13.179 -0.3889 -0.1144 -0.0955
18438TIP3    H176805   0.385   1.982  13.182 -0.3507  0.2974  0.1278
18438TIP3    H276806   0.256   1.902  13.173  0.0080 -0.2683 -0.0244
18439TIP3   OH276807   1.368   1.840  13.357 -0.2448 -0.0408 -0.0006
18439TIP3    H176808   1.414   1.921  13.379 -0.1779  0.2436 -1.1597
18439TIP3    H276809   1.426   1.771  13.389 -0.4570  0.3481  1.2971
18440TIP3   OH276810   0.129   0.510   5.120 -0.2646 -0.6720  0.5017
18440TIP3    H176811   0.045   0.553   5.101 -0.1573 -0.0758  1.3446
18440TIP3    H276812   0.115   0.469   5.205  0.2150 -0.8134  0.5105
18441TIP3   OH276813   7.080   3.405   3.610 -0.3115 -0.2595  0.1505
18441TIP3    H176814   7.017   3.346   3.569  0.0928 -0.4177 -0.2536
18441TIP3    H276815   7.073   3.486   3.560  1.5119 -1.0369 -1.5058
18442TIP3   OH276816   3.068   1.393   0.975  0.2253  0.6771 -0.0315
18442TIP3    H176817   3.071   1.358   0.886 -0.9530  2.0126 -0.6297
18442TIP3    H276818   3.026   1.324   1.026  2.7413 -0.9678 -0.0190
18443TIP3   OH276819   2.200   1.182   4.410  0.1300  1.0824  0.0296
18443TIP3    H176820   2.262   1.128   4.361 -1.7554 -1.3380  0.1212
18443TIP3    H276821   2.139   1.119   4.448 -0.6779  3.1338  2.3945
18444TIP3   OH276822   2.511   0.130   5.309 -0.1000  0.1011  0.3779
18444TIP3    H176823   2.578   0.123   5.377  1.2615 -0.0819 -0.9218
18444TIP3    H276824   2.432   0.157   5.356  0.6762 -0.4152  2.0735
18445TIP3   OH276825   4.961   2.218   2.035  0.1075 -0.4694 -0.0079
18445TIP3    H176826   5.013   2.137   2.037 -1.3492 -1.4554 -0.1673
18445TIP3    H276827   4.906   2.208   1.957  0.1651  0.8652 -0.2322
18446TIP3   OH276828   6.972   5.763   2.737  0.0374 -0.0784  0.6071
18446TIP3    H176829   6.977   5.795   2.647 -0.2838 -0.7784  0.3389
18446TIP3    H276830   6.957   5.842   2.789  0.7554  0.3974  0.1092
18447TIP3   OH276831   6.977   3.852   0.079 -0.5816 -0.2160 -0.1748
18447TIP3    H176832   6.949   3.775   0.127 -1.4093 -0.7090 -1.3856
18447TIP3    H276833   6.895   3.895   0.053 -0.1354  1.0302  0.4136
18448TIP3   OH276834   4.968   3.212   5.585 -0.2119 -0.6112  0.2385
18448TIP3    H176835   4.939   3.120   5.582 -2.3030  0.0059 -0.3547
18448TIP3    H276836   5.002   3.228   5.497  1.9180 -1.2934  0.8883
18449TIP3   OH276837   4.638   6.866   1.039  0.0002  0.3409  0.1457
18449TIP3    H176838   4.669   6.793   1.093 -0.2424  1.0008  1.2112
18449TIP3    H276839   4.635   6.830   0.950 -1.4082 -1.3803  0.8216
18450TIP3   OH276840   0.193   4.897   1.393  0.0855  0.5317 -0.2072
18450TIP3    H176841   0.228   4.912   1.305  0.0244  0.1416 -0.2996
18450TIP3    H276842   0.098   4.913   1.384  0.0297  0.1520 -0.2909
18451TIP3   OH276843   2.982   1.221   3.713  0.0822  0.0525  0.0206
18451TIP3    H176844   2.898   1.198   3.754 -0.0552  1.0418  0.3327
18451TIP3    H276845   2.968   1.205   3.620 -0.4779  0.2716  0.0647
18452TIP3   OH276846   1.897   5.617   4.426 -0.2450 -0.6782 -0.0249
18452TIP3    H176847   1.873   5.662   4.345  1.0849 -2.0604 -1.2359
18452TIP3    H276848   1.867   5.527   4.414 -1.5432 -0.5498  1.7569
18453TIP3   OH276849   1.958   0.499   2.184  0.2070  0.1015  0.2863
18453TIP3    H176850   1.911   0.574   2.219 -1.0005 -0.1356 -0.7503
18453TIP3    H276851   2.002   0.461   2.260 -0.7167  0.7377  1.1729
18454TIP3   OH276852   5.882   7.061   1.934  0.3922 -0.3433 -0.1263
18454TIP3    H176853   5.888   7.156   1.924 -0.1494 -0.4255 -1.3304
18454TIP3    H276854   5.886   7.047   2.029 -0.1075  0.9264  0.1011
18455TIP3   OH276855   7.138   1.193   2.995 -0.3949 -0.0820  0.1621
18455TIP3    H176856   7.130   1.138   2.917 -0.7432 -1.9435  1.4639
18455TIP3    H276857   7.232   1.201   3.010 -0.3287  0.1968 -0.3539
18456TIP3   OH276858   1.536   3.455   1.454  0.2897 -0.0840 -0.1993
18456TIP3    H176859   1.486   3.496   1.525 -0.4722  0.7433 -1.1847
18456TIP3    H276860   1.587   3.527   1.416 -0.2341 -0.2527 -1.2592
18457TIP3   OH276861   4.760   3.271  15.173  0.7035 -0.2669 -0.3464
18457TIP3    H176862   4.690   3.334  15.156  0.3889  0.5821  3.1988
18457TIP3    H276863   4.822   3.319  15.228  0.6623 -2.8248  2.1792
18458TIP3   OH276864   3.191   0.783   3.413 -0.0075 -0.4287  0.0264
18458TIP3    H176865   3.213   0.805   3.323 -2.2602 -0.0467 -0.4892
18458TIP3    H276866   3.182   0.868   3.457  1.8532 -0.6148  0.8709
18459TIP3   OH276867   2.146   4.310   4.964  0.3429 -0.2427 -0.2245
18459TIP3    H176868   2.190   4.280   5.043  0.5726  0.6311 -0.0131
18459TIP3    H276869   2.216   4.321   4.900  0.2710 -0.0516 -0.2698
18460TIP3   OH276870   0.645   6.011   6.119 -0.2016  0.3046  0.1409
18460TIP3    H176871   0.551   6.019   6.102 -0.2739  1.0212  0.8111
18460TIP3    H276872   0.650   5.969   6.205  0.0841  0.5507  0.2460
18461TIP3   OH276873   5.983   4.812   4.751 -0.7904 -0.2467  0.2977
18461TIP3    H176874   6.052   4.749   4.728 -0.6149 -0.2761  0.8963
18461TIP3    H276875   6.031   4.890   4.780 -0.9964 -0.6632  1.8046
18462TIP3   OH276876   3.894   1.692   1.880  0.0087  0.3454  0.3107
18462TIP3    H176877   3.848   1.776   1.884 -0.0005  0.3118  1.5711
18462TIP3    H276878   3.965   1.707   1.818 -1.1127  0.6831 -0.9318
18463TIP3   OH276879   3.783   0.397   3.672 -0.1982  0.3200  0.0507
18463TIP3    H176880   3.688   0.402   3.667 -0.2929 -1.2873 -0.1086
18463TIP3    H276881   3.802   0.304   3.684  1.4084  0.4026 -1.4839
18464TIP3   OH276882   1.031   5.237   1.767  0.5699  0.0458 -0.1592
18464TIP3    H176883   0.938   5.212   1.768  0.1359  1.5504  0.5404
18464TIP3    H276884   1.045   5.271   1.678  0.3276  0.2446 -0.1230
18465TIP3   OH276885   0.856   3.449   2.152 -0.2965 -0.3723  0.5369
18465TIP3    H176886   0.906   3.432   2.072  1.5051 -0.3100  1.5817
18465TIP3    H276887   0.853   3.363   2.196 -0.0885 -0.1395  1.0157
18466TIP3   OH276888   5.032   6.423   2.721  0.2843 -0.0400  0.6265
18466TIP3    H176889   5.075   6.509   2.728  0.3135 -0.0040  0.0675
18466TIP3    H276890   5.083   6.376   2.656 -1.0071  0.3075 -0.6913
18467TIP3   OH276891   6.273   5.556   3.267  0.0117 -0.2123  0.4933
18467TIP3    H176892   6.340   5.509   3.317  1.5870  2.0975  0.7386
18467TIP3    H276893   6.320   5.588   3.190 -1.1555  0.4067  0.0280
18468TIP3   OH276894   2.406   5.313   5.427 -0.0236  0.4881 -0.6857
18468TIP3    H176895   2.337   5.356   5.478  0.5698  0.5072  0.1312
18468TIP3    H276896   2.409   5.362   5.345 -0.2557  1.1820 -0.2936
18469TIP3   OH276897   0.626   1.796   3.990  0.1515  0.3552 -0.3723
18469TIP3    H176898   0.682   1.752   4.055  1.1180  1.0451 -0.7215
18469TIP3    H276899   0.539   1.759   4.005  0.7119 -0.8085  0.1278
18470TIP3   OH276900   5.874   5.268   5.942  0.2301  0.5164 -0.8576
18470TIP3    H176901   5.909   5.357   5.943 -0.7384  0.9748 -2.8790
18470TIP3    H276902   5.793   5.274   5.993 -0.4908  1.1216 -2.0401
18471TIP3   OH276903   6.644   1.863   2.535 -0.1148  0.4260 -0.1945
18471TIP3    H176904   6.669   1.955   2.525 -1.9585  0.9389 -0.6268
18471TIP3    H276905   6.557   1.867   2.575 -0.5223 -1.1115 -0.8671
18472TIP3   OH276906   3.585   4.977   6.072 -0.4092  0.2067  0.1210
18472TIP3    H176907   3.509   4.994   6.127 -0.2227  0.5768  0.2700
18472TIP3    H276908   3.630   5.062   6.067  0.2160 -0.1041  0.3820
18473TIP3   OH276909   5.662   0.322   4.781 -0.3452 -0.3497 -0.6118
18473TIP3    H176910   5.570   0.294   4.779 -1.0255  1.5528  1.1339
18473TIP3    H276911   5.681   0.344   4.690 -2.4396  1.5440 -0.6904
18474TIP3   OH276912   3.918   2.755   1.784 -0.4510  0.3388  0.2243
18474TIP3    H176913   3.937   2.833   1.733 -0.6440  0.0038 -0.3717
18474TIP3    H276914   3.974   2.762   1.861 -1.0755  1.4675  0.5906
18475TIP3   OH276915   3.771   7.052   0.130  0.9176 -0.1467 -0.0091
18475TIP3    H176916   3.829   7.042   0.205  0.4003  1.8734  0.7008
18475TIP3    H276917   3.689   7.012   0.158  1.2216 -0.8699 -0.1297
18476TIP3   OH276918   0.164   1.590   0.875 -0.2487  0.1139  0.3663
18476TIP3    H176919   0.192   1.678   0.901  0.9505 -0.2644  0.3988
18476TIP3    H276920   0.174   1.537   0.955 -0.5104 -0.1522  0.2236
18477TIP3   OH276921   1.169   1.350   3.731  0.1942  0.0351 -0.1218
18477TIP3    H176922   1.246   1.332   3.676  1.0810  0.8132  0.8209
18477TIP3    H276923   1.096   1.351   3.670  0.7794 -1.7069 -0.9115
18478TIP3   OH276924   5.976   3.828  14.768 -0.4710  0.4935  1.0268
18478TIP3    H176925   6.068   3.811  14.785  0.1411 -0.0813 -2.3544
18478TIP3    H276926   5.964   3.920  14.792  1.4383  1.0711 -0.0430
18479TIP3   OH276927   5.347   4.404   4.745 -0.2169  0.3742 -0.2611
18479TIP3    H176928   5.419   4.466   4.732  0.2575 -0.3910 -1.4077
18479TIP3    H276929   5.389   4.318   4.743 -1.0494 -0.0434  0.0181
18480TIP3   OH276930   3.096   4.455   2.233 -0.2642 -0.3419  0.2555
18480TIP3    H176931   3.024   4.433   2.292 -0.5600 -2.4000 -0.8088
18480TIP3    H276932   3.154   4.379   2.236  2.6745  1.7210  2.0997
18481TIP3   OH276933   4.737   6.472   4.993 -0.1034  0.1164  0.0426
18481TIP3    H176934   4.754   6.536   4.924 -0.8083 -0.5900 -0.8162
18481TIP3    H276935   4.812   6.480   5.052  0.4349  0.8585 -0.7072
18482TIP3   OH276936   4.821   4.598   2.622 -0.6919 -0.4591 -0.0803
18482TIP3    H176937   4.810   4.504   2.608 -0.1666 -0.3008 -1.7874
18482TIP3    H276938   4.732   4.631   2.633 -0.8251 -1.2635  1.5003
18483TIP3   OH276939   1.985   1.878   5.016  0.2548  0.0380 -0.0702
18483TIP3    H176940   1.892   1.869   4.994  0.4757 -2.2276 -0.3617
18483TIP3    H276941   1.995   1.970   5.041 -2.2483  0.1496  0.8327
18484TIP3   OH276942   2.999   3.888   5.406  0.6475 -0.1078 -0.1584
18484TIP3    H176943   3.015   3.871   5.499  1.7367 -1.6830 -0.5935
18484TIP3    H276944   3.008   3.983   5.397  1.0556  0.0096  1.2356
18485TIP3   OH276945   2.811   0.462   2.131  0.5889  0.7535 -0.8000
18485TIP3    H176946   2.811   0.512   2.212  0.7556 -0.7788  0.1902
18485TIP3    H276947   2.902   0.466   2.100  0.6930  0.7109 -0.5003
18486TIP3   OH276948   0.559   5.556   1.993  0.0978 -0.7069 -0.2339
18486TIP3    H176949   0.645   5.537   1.955  0.4551  0.1008  0.1567
18486TIP3    H276950   0.558   5.506   2.075  1.1003  0.9661  0.8705
18487TIP3   OH276951   0.293   0.579   2.532 -0.4491  0.8572 -0.1098
18487TIP3    H176952   0.322   0.670   2.536 -2.3040  1.4804  0.1262
18487TIP3    H276953   0.265   0.566   2.441 -0.9802  0.7724  0.0676
18488TIP3   OH276954   4.351   4.290   5.532  0.0479  0.1374 -0.6564
18488TIP3    H176955   4.443   4.309   5.512  0.1349  0.4846  0.0191
18488TIP3    H276956   4.353   4.202   5.570  0.4052  0.9135  1.2479
18489TIP3   OH276957   1.155   1.701   3.419  0.5324 -0.1579  0.3479
18489TIP3    H176958   1.221   1.753   3.465  0.9481  0.2420 -0.6779
18489TIP3    H276959   1.077   1.756   3.419  0.5223 -0.1696  0.5786
18490TIP3   OH276960   0.325   3.277   3.138  0.7698  0.2956  0.1931
18490TIP3    H176961   0.284   3.356   3.103 -0.5604 -0.9325 -1.1562
18490TIP3    H276962   0.371   3.239   3.064  0.9068 -0.4989  0.6770
18491TIP3   OH276963   5.403   1.566   5.345 -0.2274 -0.3784  0.2730
18491TIP3    H176964   5.396   1.539   5.254  1.4077 -1.2456  0.3625
18491TIP3    H276965   5.497   1.565   5.363 -0.5533 -1.0061  2.1771
18492TIP3   OH276966   1.517   4.020   5.281 -0.0008 -0.2243  0.0484
18492TIP3    H176967   1.437   4.047   5.326  0.9031  1.1342  0.8944
18492TIP3    H276968   1.534   4.090   5.218 -0.8880 -1.7810 -2.0674
18493TIP3   OH276969   3.792   3.131   4.446 -0.1534 -0.1755  0.5499
18493TIP3    H176970   3.791   3.067   4.517 -0.5197 -0.2839  0.4457
18493TIP3    H276971   3.706   3.173   4.450 -0.4117 -0.6258 -0.2346
18494TIP3   OH276972   7.074   6.057  15.148  0.2714  0.2869  0.0243
18494TIP3    H176973   6.999   6.003  15.170 -0.1131  0.8978  0.2474
18494TIP3    H276974   7.127   6.059  15.228  0.8038 -0.5710 -0.2925
18495TIP3   OH276975   5.742   0.186  14.229  0.0784  0.1263  0.1027
18495TIP3    H176976   5.784   0.242  14.164 -0.0542 -1.0355 -1.0118
18495TIP3    H276977   5.811   0.167  14.292  0.4879  0.4148 -0.2521
18496TIP3   OH276978   5.820   3.270   1.500 -0.5745 -0.4917  0.2815
18496TIP3    H176979   5.906   3.290   1.537 -1.3231 -0.0488  1.8953
18496TIP3    H276980   5.829   3.287   1.407  1.5802 -2.1960  0.1173
18497TIP3   OH276981   4.150   4.924   1.039  0.4898  0.4201  0.4810
18497TIP3    H176982   4.089   4.861   1.077 -0.5532  0.9152 -0.2932
18497TIP3    H276983   4.236   4.887   1.053 -0.0423 -0.6725  0.9458
18498TIP3   OH276984   0.783   1.739  15.241  0.3799 -0.2282  0.1169
18498TIP3    H176985   0.719   1.809  15.230  0.8922  0.2827  0.3307
18498TIP3    H276986   0.738   1.660  15.211  0.0070  0.2918 -0.7082
18499TIP3   OH276987   2.039   5.968   2.167 -0.4307  0.0847 -0.1401
18499TIP3    H176988   2.129   5.936   2.160 -0.5675 -0.8206  1.7557
18499TIP3    H276989   1.991   5.895   2.207 -0.9845  2.1662  3.3223
18500TIP3   OH276990   0.109   5.175   4.468  0.0045 -0.1390  0.0675
18500TIP3    H176991   0.084   5.210   4.554 -0.0076  1.6809 -0.6398
18500TIP3    H276992   0.044   5.106   4.451  0.7762 -1.4446  2.0551
18501TIP3   OH276993   3.010   4.214   3.386 -1.0912 -0.9362  0.3529
18501TIP3    H176994   3.045   4.167   3.310 -1.3286  0.8194 -0.9011
18501TIP3    H276995   2.951   4.279   3.348 -0.2802  0.7998  1.9491
18502TIP3   OH276996   0.008   0.647   3.096 -0.2250 -0.2013  0.5029
18502TIP3    H176997  -0.013   0.556   3.076 -0.9583  0.6123 -3.0599
18502TIP3    H276998   0.087   0.666   3.046  0.0562  1.0991  1.3794
18503TIP3   OH276999   5.395   4.434   4.107 -0.0217  0.3622  0.6324
18503TIP3    H177000   5.381   4.350   4.063  0.1237  0.1764  0.9346
18503TIP3    H277001   5.488   4.434   4.129  0.2425  1.1317 -0.4242
18504TIP3   OH277002   2.082   5.604   6.090 -0.2320 -0.7532  0.7910
18504TIP3    H177003   2.037   5.633   6.170  0.0346  0.8945  0.3852
18504TIP3    H277004   2.169   5.644   6.096  0.2871 -1.7911  0.3417
18505TIP3   OH277005   6.575   1.379   2.905 -1.0124 -0.1148 -0.1046
18505TIP3    H177006   6.574   1.376   2.809 -0.2381 -0.8716 -0.0940
18505TIP3    H277007   6.489   1.415   2.929 -0.8008  1.1414 -1.1121
18506TIP3   OH277008   3.505   4.127   3.469 -0.3355 -0.2855  0.3386
18506TIP3    H177009   3.507   4.044   3.423 -1.7675 -0.1943  0.0655
18506TIP3    H277010   3.444   4.114   3.542 -2.3141  1.0816 -0.9515
18507TIP3   OH277011   1.976   4.606  12.387  0.3156 -0.4276 -0.1115
18507TIP3    H177012   2.041   4.637  12.324 -0.1880  0.2356 -0.3228
18507TIP3    H277013   2.026   4.589  12.467  0.3789  2.9614  0.7039
18508TIP3   OH277014   0.524   1.095   4.897 -0.3287  0.0028  1.0887
18508TIP3    H177015   0.439   1.050   4.894 -0.8894  1.0590  0.1753
18508TIP3    H277016   0.574   1.055   4.825 -0.8262  0.8131  0.2768
18509TIP3   OH277017   0.878   5.790   3.638  0.2548 -0.2066  0.3872
18509TIP3    H177018   0.820   5.799   3.713 -0.5322  0.3715 -0.2612
18509TIP3    H277019   0.962   5.763   3.675 -0.6568 -1.9700  1.2625
18510TIP3   OH277020   1.141   6.011  11.627  0.5800 -0.3688  0.1720
18510TIP3    H177021   1.170   6.101  11.618  1.0681 -0.5012  0.4229
18510TIP3    H277022   1.079   5.998  11.554  0.5365  0.1501  0.1163
18511TIP3   OH277023   0.654   5.319   4.088  0.2310 -0.0646  0.2187
18511TIP3    H177024   0.605   5.380   4.033  2.3224  1.3273 -0.2350
18511TIP3    H277025   0.681   5.249   4.029 -0.7057 -0.5347  0.3429
18512TIP3   OH277026   2.483   6.242   1.687 -0.2702 -0.5030  0.2851
18512TIP3    H177027   2.568   6.284   1.686 -0.7757  0.6580  2.0455
18512TIP3    H277028   2.501   6.151   1.664  1.4701 -0.3430  0.8894
18513TIP3   OH277029   2.059   3.115   1.361  0.0258 -0.5485 -0.4403
18513TIP3    H177030   2.072   3.076   1.274  0.0995  1.6485 -1.4908
18513TIP3    H277031   2.144   3.152   1.383  0.0134 -1.1200  0.6215
18514TIP3   OH277032   4.722   1.996   2.605  0.0068 -0.5854 -0.4115
18514TIP3    H177033   4.703   1.913   2.562 -2.1051 -0.0472 -0.6025
18514TIP3    H277034   4.680   1.990   2.690 -1.7439  0.9109 -1.0961
18515TIP3   OH277035   3.432   3.717   5.412 -0.4460 -0.1309 -0.1810
18515TIP3    H177036   3.429   3.784   5.343  2.0342  0.7086  0.4093
18515TIP3    H277037   3.449   3.635   5.365  0.7767  0.3591 -0.6202
18516TIP3   OH277038   0.782   0.571   4.104  0.0070 -0.5087  0.5962
18516TIP3    H177039   0.834   0.602   4.030 -3.1789 -0.4831 -1.8573
18516TIP3    H277040   0.761   0.480   4.083 -1.7741 -0.2111  0.8939
18517TIP3   OH277041   5.830   1.148   4.958 -0.5109 -0.5349  0.1516
18517TIP3    H177042   5.838   1.062   4.916  2.4056  0.6005 -1.9437
18517TIP3    H277043   5.870   1.135   5.044  0.7295 -1.1208 -0.4794
18518TIP3   OH277044   4.788   4.278   3.845 -0.1036  0.4479  0.2090
18518TIP3    H177045   4.712   4.333   3.866 -1.9535 -2.0065  0.4211
18518TIP3    H277046   4.770   4.244   3.758  0.4882 -0.5986  0.4831
18519TIP3   OH277047   3.452   5.615   1.764  0.0419 -0.0020 -0.0232
18519TIP3    H177048   3.484   5.705   1.768 -1.8431  0.6495  2.4387
18519TIP3    H277049   3.514   5.570   1.706  1.9438  2.4754 -0.0595
18520TIP3   OH277050   0.282   0.482  14.146 -0.5866 -0.4164 -0.2591
18520TIP3    H177051   0.205   0.528  14.180 -0.4522 -0.0530 -0.4405
18520TIP3    H277052   0.246   0.412  14.092 -0.7919 -0.3138 -0.2564
18521TIP3   OH277053   6.553   4.020   4.027  0.3181  0.5112 -0.2174
18521TIP3    H177054   6.556   3.981   3.939  0.9829 -1.7453  0.7259
18521TIP3    H277055   6.472   4.072   4.027 -2.5739 -3.4943 -0.6809
18522TIP3   OH277056   2.068   1.869   4.496 -0.1094 -0.4006 -0.5944
18522TIP3    H177057   2.023   1.903   4.572 -0.9167  0.3569 -1.3880
18522TIP3    H277058   2.156   1.906   4.501 -0.2430 -0.1353 -0.1892
18523TIP3   OH277059   3.865   3.464   3.849 -0.0299 -0.0794  0.7690
18523TIP3    H177060   3.914   3.520   3.910  1.2474  0.0493 -0.3282
18523TIP3    H277061   3.910   3.380   3.852  0.6204  0.1792 -0.6112
18524TIP3   OH277062   0.436   2.027   4.390  0.2865 -0.1034 -0.2348
18524TIP3    H177063   0.463   1.983   4.471 -2.9237 -1.5551  0.1808
18524TIP3    H277064   0.411   1.956   4.331 -1.2389  1.0264 -1.0154
18525TIP3   OH277065   4.287   2.071  10.150 -0.0575  0.8641 -0.4704
18525TIP3    H177066   4.211   2.063  10.207  0.6231  0.1293  0.3610
18525TIP3    H277067   4.362   2.070  10.209  0.7200 -0.7577 -1.3937
18526TIP3   OH277068   2.411   6.387   0.404 -0.5442 -0.3875  0.5351
18526TIP3    H177069   2.488   6.439   0.383 -0.2219 -0.8940  0.4556
18526TIP3    H277070   2.406   6.388   0.499 -0.5061 -0.2530  0.5349
18527TIP3   OH277071   6.208   6.690   4.434  0.3508 -0.3076  0.3898
18527TIP3    H177072   6.295   6.653   4.420  0.8816  1.3425 -1.1008
18527TIP3    H277073   6.201   6.700   4.529  0.5736 -3.0983  0.7790
18528TIP3   OH277074   3.599   1.605   4.488 -0.1853  0.0499  0.4800
18528TIP3    H177075   3.568   1.613   4.579 -0.2857 -0.3863  0.4867
18528TIP3    H277076   3.655   1.682   4.475  0.8403 -0.5371  1.3176
18529TIP3   OH277077   0.093   1.234   4.430 -0.1559  0.8152  0.2085
18529TIP3    H177078   0.116   1.325   4.446  1.8332  0.1759  1.3033
18529TIP3    H277079   0.078   1.229   4.335  2.5525  1.7392 -0.3638
18530TIP3   OH277080   5.784   4.957   4.870 -0.3297 -0.1260  0.1166
18530TIP3    H177081   5.771   4.989   4.781  2.8454  3.1873  0.6236
18530TIP3    H277082   5.850   4.889   4.863 -0.8656 -0.6360 -0.1046
18531TIP3   OH277083   6.237   0.842   3.567 -0.1349 -0.0650  0.2775
18531TIP3    H177084   6.327   0.851   3.536 -0.3661 -0.0445 -0.3894
18531TIP3    H277085   6.184   0.837   3.488 -0.6486 -0.8700  0.6620
18532TIP3   OH277086   2.108   3.388  13.330  0.6974 -0.4155  0.0986
18532TIP3    H177087   2.014   3.403  13.336  0.4449 -0.5929 -2.2748
18532TIP3    H277088   2.118   3.294  13.345  0.4736 -0.4222  0.2080
18533TIP3   OH277089   7.111   6.903  13.542 -0.0122  0.0469 -0.0086
18533TIP3    H177090   7.107   6.868  13.631  0.1209  0.5575  0.1986
18533TIP3    H277091   7.177   6.850  13.498  1.1081  0.8490  0.6700
18534TIP3   OH277092   3.605   4.346   4.890  0.2715  0.1388  0.2974
18534TIP3    H177093   3.609   4.434   4.927  0.1887  0.4422 -0.3936
18534TIP3    H277094   3.636   4.357   4.800 -2.3060 -0.0348 -0.7006
18535TIP3   OH277095   3.474   6.805   4.174 -0.5362  0.6058 -0.0551
18535TIP3    H177096   3.445   6.736   4.234  0.3702 -1.5948 -1.9770
18535TIP3    H277097   3.415   6.799   4.099  0.1437  1.2585 -0.6710
18536TIP3   OH277098   1.170   2.397  13.712  0.7872 -0.1038 -0.1668
18536TIP3    H177099   1.077   2.409  13.729  0.6565  1.1948 -1.5785
18536TIP3    H277100   1.213   2.467  13.762  1.0361 -0.8473  0.6739
18537TIP3   OH277101   5.312   6.868   1.502 -0.2089  0.1995 -0.1754
18537TIP3    H177102   5.391   6.854   1.554 -0.8930  1.3567  1.2553
18537TIP3    H277103   5.323   6.956   1.465 -1.3330  0.9143  1.0870
18538TIP3   OH277104   0.897   6.972   3.649  0.0263  0.0451 -0.2384
18538TIP3    H177105   0.953   6.958   3.573 -0.1028  1.2717 -0.5890
18538TIP3    H277106   0.930   6.913   3.716  1.6239  0.6074 -0.5024
18539TIP3   OH277107   5.689   0.825   1.581  0.0309  0.7191  0.0194
18539TIP3    H177108   5.740   0.796   1.505  0.2002  0.0461  0.3794
18539TIP3    H277109   5.741   0.798   1.657 -1.0245 -0.3235  0.4044
18540TIP3   OH277110   2.806   5.949  14.218 -0.8821  0.4754  0.3315
18540TIP3    H177111   2.724   5.994  14.199 -0.3711  1.2397 -0.1309
18540TIP3    H277112   2.869   5.989  14.158 -0.7474 -2.0055 -1.3427
18541TIP3   OH277113   6.519   4.312  15.328  0.7790 -0.7659  0.8538
18541TIP3    H177114   6.595   4.266  15.364 -0.6450 -2.9216  1.3343
18541TIP3    H277115   6.471   4.343  15.404  0.4791 -0.6264  0.6095
18542TIP3   OH277116   5.382   3.269   4.332  0.1700  0.0080  0.0447
18542TIP3    H177117   5.335   3.327   4.392  1.4680 -1.5429  2.7798
18542TIP3    H277118   5.475   3.286   4.351  0.5916 -1.9665 -0.0107
18543TIP3   OH277119   6.109   7.186   0.058  0.1520 -0.5641  0.6251
18543TIP3    H177120   6.156   7.266   0.033  0.3572 -1.1354 -0.8821
18543TIP3    H277121   6.171   7.115   0.038 -1.0235 -1.2739 -0.6289
18544TIP3   OH277122   0.564   4.194   1.961 -0.3352 -0.4106  0.0768
18544TIP3    H177123   0.569   4.248   1.883  0.5775  1.2828  1.2407
18544TIP3    H277124   0.477   4.155   1.957 -0.5380  0.1221 -1.4551
18545TIP3   OH277125   3.514   6.941   2.590  0.5073 -0.1873 -0.4700
18545TIP3    H177126   3.583   6.996   2.625  1.1703  0.6425 -2.8882
18545TIP3    H277127   3.470   6.905   2.667  1.4738  1.9264  1.1609
18546TIP3   OH277128   5.022   0.360   3.353  0.5651  0.8384 -0.4909
18546TIP3    H177129   4.945   0.307   3.330  1.0540  0.6382 -1.7687
18546TIP3    H277130   5.020   0.366   3.448  0.4842 -1.4990 -0.2934
18547TIP3   OH277131   4.419   1.732   3.576 -0.0142  0.3276  0.2595
18547TIP3    H177132   4.398   1.802   3.639 -1.1063  0.2086  0.0517
18547TIP3    H277133   4.492   1.767   3.526  1.4762  0.0677  2.1520
18548TIP3   OH277134   5.594   4.762   2.467  0.0412  0.3260 -0.0459
18548TIP3    H177135   5.626   4.713   2.542 -1.7298 -2.3897 -0.9388
18548TIP3    H277136   5.647   4.731   2.393 -2.1234 -1.6363 -0.9056
18549TIP3   OH277137   4.150   6.372   4.981  0.3395  0.2498  0.6289
18549TIP3    H177138   4.156   6.456   5.027  0.6440  0.9840 -0.7063
18549TIP3    H277139   4.113   6.393   4.896  1.5762 -0.7811 -0.2078
18550TIP3   OH277140   0.461   5.462   5.471 -0.0903  0.1475  0.6153
18550TIP3    H177141   0.458   5.483   5.564  0.9415  0.8087  0.5055
18550TIP3    H277142   0.391   5.515   5.432  0.8789  1.5517  0.7120
18551TIP3   OH277143   3.956   6.025   2.161 -0.1805  0.1751 -0.4081
18551TIP3    H177144   3.905   6.106   2.158 -3.3019 -1.6530 -1.1735
18551TIP3    H277145   4.001   6.021   2.077 -1.9023  0.0448 -1.3522
18552TIP3   OH277146   5.190   0.188   3.598 -0.1272  0.0664 -0.3225
18552TIP3    H177147   5.190   0.122   3.668 -0.7359 -1.9527 -2.1177
18552TIP3    H277148   5.281   0.190   3.567 -0.1677 -0.1683 -0.4612
18553TIP3   OH277149   2.640   3.392   2.238 -0.3338 -0.2435 -0.1172
18553TIP3    H177150   2.695   3.318   2.212 -0.4971 -0.3984 -0.0193
18553TIP3    H277151   2.595   3.418   2.157  1.1882  0.9978 -0.6072
18554TIP3   OH277152   5.748   0.515   0.978  0.5705 -0.0162 -0.2678
18554TIP3    H177153   5.677   0.565   1.019  0.1867 -0.0144 -0.9136
18554TIP3    H277154   5.755   0.553   0.890  0.5815 -0.7932 -0.6066
18555TIP3   OH277155   3.416   6.159   1.706 -0.6814  0.7957 -0.6333
18555TIP3    H177156   3.468   6.238   1.695 -0.5023  0.6516 -0.8574
18555TIP3    H277157   3.327   6.189   1.719 -0.5500  1.0448 -0.3146
18556TIP3   OH277158   2.437   6.893   0.205 -0.3177  0.2709 -0.5842
18556TIP3    H177159   2.520   6.938   0.219  0.1032 -0.6511 -0.0641
18556TIP3    H277160   2.371   6.958   0.227  0.2369  1.2170 -1.5832
18557TIP3   OH277161   0.916   3.373   4.096  0.3000 -0.3914 -0.1138
18557TIP3    H177162   0.858   3.406   4.028 -0.2940  1.5770  1.2597
18557TIP3    H277163   0.922   3.279   4.079 -1.8586 -0.3721 -1.3553
18558TIP3   OH277164   6.721   2.631  14.807 -0.3111  0.2237 -0.3440
18558TIP3    H177165   6.629   2.618  14.784 -0.5815  1.6445 -0.1828
18558TIP3    H277166   6.740   2.563  14.871 -1.4657  0.3595  0.1658
18559TIP3   OH277167   5.636   0.305   4.325  0.0202  0.4495 -0.0132
18559TIP3    H177168   5.657   0.352   4.244 -0.2719  0.8373  0.1316
18559TIP3    H277169   5.709   0.326   4.384  0.2734  0.1007 -0.2027
18560TIP3   OH277170   5.065   1.669   4.805  0.5842 -0.1744 -0.4802
18560TIP3    H177171   5.159   1.652   4.798  0.7453  0.8638 -0.9417
18560TIP3    H277172   5.058   1.742   4.866  0.1212  0.1360 -0.8947
18561TIP3   OH277173   0.548   5.835   3.544  0.3921 -0.8452 -0.1962
18561TIP3    H177174   0.514   5.750   3.573  0.8647 -1.2953 -0.9240
18561TIP3    H277175   0.639   5.835   3.572  0.2646 -0.3671  0.2296
18562TIP3   OH277176   5.522   2.707   4.314 -0.1198  0.6743  0.2137
18562TIP3    H177177   5.473   2.789   4.310 -2.1995 -0.5415 -1.6788
18562TIP3    H277178   5.613   2.732   4.297 -0.3640  2.7536  1.5998
18563TIP3   OH277179   6.125   4.718   4.093  0.1638  0.0105  0.6048
18563TIP3    H177180   6.079   4.791   4.051  1.5831  0.5507 -0.0696
18563TIP3    H277181   6.166   4.671   4.021 -1.1727 -1.8322  0.9713
18564TIP3   OH277182   4.536   4.270   5.783  0.5172  0.3459 -0.1348
18564TIP3    H177183   4.622   4.231   5.771  0.6664  0.4401  0.5842
18564TIP3    H277184   4.478   4.216   5.730  1.1462  0.8072 -1.3257
18565TIP3   OH277185   0.190   5.938   5.267 -0.2711 -0.1134  0.4106
18565TIP3    H177186   0.157   5.874   5.331  1.4050 -0.9530  0.4847
18565TIP3    H277187   0.166   6.023   5.304 -1.2012 -0.6429  1.0781
18566TIP3   OH277188   2.344   1.575   2.081 -0.2368 -0.0569 -0.2044
18566TIP3    H177189   2.374   1.650   2.029 -1.2359  0.2934 -0.3069
18566TIP3    H277190   2.314   1.511   2.016 -0.4004 -0.0957 -0.0912
18567TIP3   OH277191   7.014   3.599   6.016  0.4041 -0.1541 -0.1657
18567TIP3    H177192   7.104   3.621   5.990  0.0572  2.2702  0.4522
18567TIP3    H277193   6.975   3.560   5.938  0.9656  2.0515 -1.6224
18568TIP3   OH277194   5.227   1.989   5.592  0.0958 -0.3692 -0.1962
18568TIP3    H177195   5.271   1.941   5.523 -3.4881 -0.3575 -2.7780
18568TIP3    H277196   5.183   1.922   5.644 -1.1219 -0.1783 -0.9468
18569TIP3   OH277197   1.912   2.420   2.231  0.1211 -0.0501 -0.0248
18569TIP3    H177198   1.842   2.466   2.278  0.7521 -1.9159  3.0658
18569TIP3    H277199   1.920   2.337   2.277  3.2181 -0.6210 -1.3541
18570TIP3   OH277200   3.165   1.662   0.663 -0.1641 -0.2569 -0.1513
18570TIP3    H177201   3.201   1.629   0.745 -0.8623  1.4101  0.8630
18570TIP3    H277202   3.088   1.607   0.647  1.3248 -2.2062 -1.0437
18571TIP3   OH277203   5.958   3.902   2.272  0.4836 -0.0739 -0.2845
18571TIP3    H177204   5.956   3.965   2.200 -0.0746  2.7776  2.0327
18571TIP3    H277205   5.865   3.888   2.293  0.6622 -0.3600  0.3227
18572TIP3   OH277206   2.555   1.070   3.617 -0.1276 -0.4448 -0.8343
18572TIP3    H177207   2.613   1.062   3.541 -0.2767 -0.0076 -0.9959
18572TIP3    H277208   2.470   1.094   3.581 -0.2733 -0.5242 -0.5522
18573TIP3   OH277209   0.342   6.483   5.062  0.0096 -0.1510 -0.0531
18573TIP3    H177210   0.301   6.475   4.975  0.9922 -0.3449 -0.5129
18573TIP3    H277211   0.288   6.429   5.119 -0.9668  0.4050 -0.4191
18574TIP3   OH277212   1.509   0.811   5.281  0.3238  0.2115 -0.0203
18574TIP3    H177213   1.481   0.902   5.288  0.5340  0.4814 -2.0336
18574TIP3    H277214   1.437   0.761   5.320 -0.9274  1.1370 -1.0266
18575TIP3   OH277215   3.589   2.161   2.662  0.0606 -0.8101  0.0371
18575TIP3    H177216   3.501   2.136   2.687 -0.3014  1.0716  0.7799
18575TIP3    H277217   3.578   2.215   2.583  0.4166  0.3801  0.7775
18576TIP3   OH277218   2.309   5.949   1.386  0.3230 -0.1656  0.6935
18576TIP3    H177219   2.294   6.029   1.335  1.3336 -0.2228  0.2766
18576TIP3    H277220   2.236   5.946   1.448  0.0507  0.8613  0.4438
18577TIP3   OH277221   5.821   3.626  13.327 -0.2105  0.2204  0.1602
18577TIP3    H177222   5.780   3.713  13.327  0.0083  0.3862 -1.9480
18577TIP3    H277223   5.902   3.638  13.377  0.7252  1.7621 -1.5739
18578TIP3   OH277224   6.944   3.152   6.053  0.3880 -0.3335  0.9223
18578TIP3    H177225   6.890   3.231   6.056  0.2802 -0.4335  2.5701
18578TIP3    H277226   7.021   3.177   6.002 -0.8326  0.0244 -0.8484
18579TIP3   OH277227   0.800   5.197   5.363  0.5875  0.1888  0.1540
18579TIP3    H177228   0.749   5.123   5.330 -0.6625  1.3246 -0.5138
18579TIP3    H277229   0.863   5.157   5.423 -0.1146 -1.4036 -0.1218
18580TIP3   OH277230   2.635   1.085   5.933 -0.5312  0.3046 -0.5531
18580TIP3    H177231   2.560   1.096   5.874  0.2432 -1.0536 -1.8934
18580TIP3    H277232   2.609   1.013   5.991 -0.2589 -0.2227 -1.0724
18581TIP3   OH277233   3.238   6.975   5.267 -0.0686 -0.0561 -0.5533
18581TIP3    H177234   3.301   6.905   5.252  0.8621  0.8128 -0.7822
18581TIP3    H277235   3.208   6.962   5.357  0.8653 -0.1585 -0.2488
18582TIP3   OH277236   1.871   3.224   4.306  0.5372 -0.1445 -0.4579
18582TIP3    H177237   1.802   3.276   4.348  0.6427 -0.6271  0.3302
18582TIP3    H277238   1.907   3.283   4.239 -0.5315  0.1653 -0.7851
18583TIP3   OH277239   3.810   1.913  14.400  0.1344 -0.4076  0.5048
18583TIP3    H177240   3.904   1.921  14.380 -0.0439  1.4157  0.3002
18583TIP3    H277241   3.766   1.940  14.319 -0.5865 -1.1968  0.6183
18584TIP3   OH277242   5.358   5.275   4.291 -0.2620 -0.1472 -0.4964
18584TIP3    H177243   5.320   5.353   4.333  0.7360 -0.0587  0.2518
18584TIP3    H277244   5.323   5.278   4.201  0.2084  1.4821 -0.6554
18585TIP3   OH277245   5.665   0.680   5.620 -0.2965 -0.3767 -0.4162
18585TIP3    H177246   5.653   0.624   5.697  0.4808 -1.1034 -0.8140
18585TIP3    H277247   5.648   0.769   5.653 -1.7855 -0.8368  0.1696
18586TIP3   OH277248   3.573   3.418   3.823  0.3193  0.2170  0.1649
18586TIP3    H177249   3.526   3.494   3.788 -0.1033 -0.8221 -1.6604
18586TIP3    H277250   3.666   3.443   3.817  0.2260  0.3464 -1.1601
18587TIP3   OH277251   0.257   4.217   4.039 -0.5219  0.2236  0.3230
18587TIP3    H177252   0.193   4.147   4.027  1.2244 -1.2293 -1.2184
18587TIP3    H277253   0.281   4.211   4.132 -1.0042 -0.7069  0.4050
18588TIP3   OH277254   7.046   2.176   3.719 -0.3762 -0.2206 -0.0497
18588TIP3    H177255   6.973   2.237   3.714  0.7389  1.3956  1.8666
18588TIP3    H277256   7.094   2.202   3.798  1.0028 -2.6586  0.0366
18589TIP3   OH277257   2.687   0.212   4.017  0.2533 -0.0691  0.2478
18589TIP3    H177258   2.710   0.135   4.068  2.3155  1.4406  1.7757
18589TIP3    H277259   2.769   0.240   3.976  0.1312  2.5139  1.5502
18590TIP3   OH277260   5.203   5.970   1.298 -0.3248  0.0706 -0.0145
18590TIP3    H177261   5.108   5.977   1.309 -0.4325  0.1751 -0.9592
18590TIP3    H277262   5.235   6.060   1.310 -0.3534  0.0586  0.1634
18591TIP3   OH277263   5.215   0.406   4.881  0.1110  0.0653  0.1815
18591TIP3    H177264   5.303   0.400   4.919 -0.2965  0.6714  1.2613
18591TIP3    H277265   5.161   0.443   4.951 -0.6133  1.5639 -1.1083
18592TIP3   OH277266   5.531   4.860  14.564  0.5454  0.2572 -0.3831
18592TIP3    H177267   5.469   4.932  14.556 -1.0871 -0.9856  0.4360
18592TIP3    H277268   5.616   4.903  14.578 -0.0938  2.0033 -1.5820
18593TIP3   OH277269   1.562   5.956   5.399 -0.0242 -0.5018  0.0777
18593TIP3    H177270   1.585   5.989   5.486 -0.4021 -0.8712  0.3206
18593TIP3    H277271   1.640   5.911   5.369 -1.0206 -3.6582  1.7974
18594TIP3   OH277272   0.952   3.739   1.000 -0.1613  0.3097 -0.1110
18594TIP3    H177273   1.027   3.680   0.991 -0.7337 -0.3979 -0.2348
18594TIP3    H277274   0.956   3.768   1.092 -1.5805 -2.2543  0.8655
18595TIP3   OH277275   4.344   4.677   4.392  0.2052 -0.2836  0.1772
18595TIP3    H177276   4.276   4.660   4.457 -0.2626  0.4580 -0.1020
18595TIP3    H277277   4.334   4.770   4.371  0.1140 -0.5805 -1.2177
18596TIP3   OH277278   1.342   1.349   5.410  0.6824  0.3402  0.5390
18596TIP3    H177279   1.305   1.403   5.480 -1.2524 -1.3740  0.9433
18596TIP3    H277280   1.434   1.373   5.407  0.4795  1.5993  2.6021
18597TIP3   OH277281   6.069   0.870   3.339  0.5597  0.1191  0.1009
18597TIP3    H177282   5.983   0.910   3.352  0.7229  0.4482  0.2061
18597TIP3    H277283   6.055   0.802   3.273  0.3670  0.6954 -0.4640
18598TIP3   OH277284   6.142   0.641   1.828  0.1735 -0.3369  0.4262
18598TIP3    H177285   6.084   0.571   1.798  1.0296 -0.5897 -0.7137
18598TIP3    H277286   6.229   0.601   1.830  0.4894  0.3630  0.9477
18599TIP3   OH277287   6.751   1.276   3.964 -0.1238 -0.8282 -0.4065
18599TIP3    H177288   6.701   1.345   4.008  1.2741 -1.4748  2.4367
18599TIP3    H277289   6.747   1.299   3.871 -0.9805  2.2108  0.2777
18600TIP3   OH277290   5.680   6.128   2.011 -0.6546  0.1858  0.2842
18600TIP3    H177291   5.630   6.189   1.956 -0.5002  0.2633  0.2291
18600TIP3    H277292   5.651   6.041   1.983 -1.4042  0.2370  0.8548
18601TIP3   OH277293   0.415   3.639   3.116 -0.0497 -0.1224 -0.1207
18601TIP3    H177294   0.356   3.584   3.063 -0.3042 -0.7608  0.7964
18601TIP3    H277295   0.462   3.692   3.052 -0.3404 -0.8818 -0.9900
18602TIP3   OH277296   7.101   6.679  13.755  0.0000 -0.4161  0.6649
18602TIP3    H177297   7.196   6.678  13.749  0.1328  0.6243  2.0469
18602TIP3    H277298   7.073   6.599  13.711  1.6823 -2.2738  2.7607
18603TIP3   OH277299   5.175   2.628   2.962  0.2544 -0.0536  0.0299
18603TIP3    H177300   5.094   2.660   3.002  0.2310  1.7685 -1.3600
18603TIP3    H277301   5.243   2.652   3.024 -0.1920 -1.1916  0.9963
18604TIP3   OH277302   1.237   2.311   4.503  0.0889  0.4228 -0.4839
18604TIP3    H177303   1.316   2.360   4.482 -0.4063  0.5649 -2.1478
18604TIP3    H277304   1.169   2.378   4.511  0.3775  0.4670  2.5517
18605TIP3   OH277305   5.534   6.428   1.610  0.4294 -0.0508  0.4991
18605TIP3    H177306   5.513   6.345   1.653  0.4215  0.2161  1.0182
18605TIP3    H277307   5.461   6.444   1.551  0.9826 -0.9950 -0.4727
18606TIP3   OH277308   1.665   6.284   3.271 -0.1886 -0.1054  0.0976
18606TIP3    H177309   1.598   6.334   3.317 -0.9158  0.0164 -1.0592
18606TIP3    H277310   1.736   6.275   3.335 -1.7698 -1.3294  1.8004
18607TIP3   OH277311   5.968   3.919   3.391 -0.3307  0.3206 -0.3179
18607TIP3    H177312   6.008   4.006   3.382 -0.2654  0.4857  1.2286
18607TIP3    H277313   5.923   3.923   3.476 -1.4828 -0.7135 -0.8561
18608TIP3   OH277314   4.051   2.400   0.421 -0.3609 -0.3289 -0.2660
18608TIP3    H177315   4.138   2.435   0.442 -0.6536  0.8198 -0.8862
18608TIP3    H277316   4.034   2.335   0.489  0.1584  0.8280  1.0095
18609TIP3   OH277317   4.433   0.795   4.751  0.1261 -0.1401  0.2735
18609TIP3    H177318   4.342   0.767   4.751  0.1184 -0.1827 -1.0841
18609TIP3    H277319   4.472   0.751   4.676  0.7492  1.4493 -0.3904
18610TIP3   OH277320   4.227   3.825   3.164 -0.2699  0.2453 -0.2264
18610TIP3    H177321   4.208   3.916   3.186 -0.5483  0.4440 -1.2189
18610TIP3    H277322   4.163   3.803   3.097 -0.1487 -0.6621 -0.0555
18611TIP3   OH277323   4.385   5.224   2.731  0.4214  0.1560  0.3825
18611TIP3    H177324   4.342   5.165   2.793  0.3281  0.9179  1.0541
18611TIP3    H277325   4.473   5.238   2.768  1.2048 -1.1912 -0.8479
18612TIP3   OH277326   0.215   0.751   2.004 -0.1613  0.1480  0.1168
18612TIP3    H177327   0.244   0.685   1.941 -2.4616 -0.3721 -0.4791
18612TIP3    H277328   0.148   0.801   1.958 -1.1119  0.4714  1.7783
18613TIP3   OH277329   4.887   1.590   5.694 -0.1407  0.5091  0.4000
18613TIP3    H177330   4.810   1.615   5.642  0.8460  2.7776 -0.0747
18613TIP3    H277331   4.870   1.499   5.719 -2.6027  0.6878 -0.3452
18614TIP3   OH277332   4.225   6.087   2.322 -0.1128 -0.2130  0.0734
18614TIP3    H177333   4.231   6.022   2.252  0.0341 -1.4217  1.1700
18614TIP3    H277334   4.307   6.078   2.370 -0.2239  0.5747  0.4256
18615TIP3   OH277335   2.982   5.132   4.809  0.2886  0.2897  0.2735
18615TIP3    H177336   2.996   5.214   4.856 -0.3865 -0.4650  1.8838
18615TIP3    H277337   3.047   5.071   4.846 -1.6974 -0.9484  1.9723
18616TIP3   OH277338   5.568   3.663   4.569 -0.0079  0.2713  0.0823
18616TIP3    H177339   5.479   3.650   4.601  0.2586 -4.7263 -0.4646
18616TIP3    H277340   5.623   3.646   4.645  0.4201 -3.7679 -0.8897
18617TIP3   OH277341   6.444   4.098   3.497 -0.2002  0.7631  0.1082
18617TIP3    H177342   6.478   4.017   3.459  0.0271  0.2829  1.2911
18617TIP3    H277343   6.406   4.145   3.422  1.2205  0.3875 -0.9093
18618TIP3   OH277344   5.654   5.420   5.776 -0.1205  0.1932  0.4730
18618TIP3    H177345   5.657   5.344   5.834 -0.4568  0.5372  0.9362
18618TIP3    H277346   5.633   5.383   5.690  0.3282 -0.3083  0.5737
18619TIP3   OH277347   2.428   5.775   4.912  0.3593  0.3170  0.0104
18619TIP3    H177348   2.454   5.771   4.820  0.0300  1.0918 -0.1224
18619TIP3    H277349   2.391   5.863   4.923  0.1567  0.1389  0.8172
18620TIP3   OH277350   3.912   0.060   3.576  0.0429  0.1231  0.0190
18620TIP3    H177351   4.001   0.024   3.586 -0.6206 -1.3497  0.9795
18620TIP3    H277352   3.862  -0.012   3.537 -0.4482  1.4072 -1.8359
18621TIP3   OH277353   5.723   4.145   3.630  0.0114 -0.7673  0.3544
18621TIP3    H177354   5.716   4.184   3.718 -0.6152  0.2519 -0.1374
18621TIP3    H277355   5.783   4.203   3.583 -2.1360  0.6151 -0.8755
18622TIP3   OH277356   3.246   3.839   6.114 -0.3631 -0.3157 -0.5344
18622TIP3    H177357   3.286   3.775   6.055 -0.0259 -0.6019 -0.0091
18622TIP3    H277358   3.226   3.789   6.193 -1.1399 -0.0211 -0.5317
18623TIP3   OH277359   1.441   6.141   5.245  0.4088 -0.1565  0.1297
18623TIP3    H177360   1.476   6.070   5.299 -0.7437 -0.4044  0.5979
18623TIP3    H277361   1.346   6.137   5.260  0.3105  1.4151  0.0811
18624TIP3   OH277362   3.800   1.000   2.278  0.4315  0.1674  0.1428
18624TIP3    H177363   3.731   1.058   2.246 -0.7425 -1.3411 -0.1829
18624TIP3    H277364   3.866   1.059   2.314 -0.9663  1.6752  0.3666
18625TIP3   OH277365   6.391   5.307  14.016 -0.5200  0.3318 -0.2416
18625TIP3    H177366   6.482   5.307  14.046 -0.1623  1.5916 -1.2179
18625TIP3    H277367   6.353   5.229  14.056  0.6411  0.4499  1.2045
18626TIP3   OH277368   5.734   5.091   3.012 -0.4263  0.2603  0.7916
18626TIP3    H177369   5.793   5.081   2.937 -0.4193  0.9036  0.6974
18626TIP3    H277370   5.787   5.137   3.077 -0.2799 -0.7333  1.3908
18627TIP3   OH277371   1.062   3.622   4.952  0.2800 -0.4137  0.4745
18627TIP3    H177372   1.127   3.667   4.898  0.7912  1.0159  2.1774
18627TIP3    H277373   1.112   3.555   4.998 -0.4654 -2.8502 -1.9949
18628TIP3   OH277374   2.803   0.613   4.918 -0.5701 -0.5637  0.8275
18628TIP3    H177375   2.746   0.654   4.984 -1.6618 -0.7971  0.0535
18628TIP3    H277376   2.892   0.630   4.950 -1.0568 -0.0341  1.9746
18629TIP3   OH277377   0.376   5.177   2.509 -0.3073  0.3464 -0.4706
18629TIP3    H177378   0.427   5.190   2.589 -1.0875  0.6000 -0.0034
18629TIP3    H277379   0.354   5.266   2.479 -0.5982  0.2372 -0.5866
18630TIP3   OH277380   1.974   1.438   5.050 -0.1385  0.8789  0.5985
18630TIP3    H177381   2.066   1.459   5.066 -0.1161  0.7541  0.6425
18630TIP3    H277382   1.957   1.363   5.108 -0.8099  2.1436  2.0965
18631TIP3   OH277383   5.614   2.210   5.130  0.6528  0.6477 -0.3071
18631TIP3    H177384   5.619   2.261   5.211  0.4499  1.7039 -0.9294
18631TIP3    H277385   5.541   2.250   5.082  0.1077 -0.6207 -0.5772
18632TIP3   OH277386   7.120   7.192   2.986 -0.1905  0.0321  0.4166
18632TIP3    H177387   7.117   7.107   3.029 -0.9976  0.2616  0.8396
18632TIP3    H277388   7.095   7.174   2.895 -0.1407 -0.2139  0.4511
18633TIP3   OH277389   3.210   4.323   4.303 -0.0741 -0.0965  0.5587
18633TIP3    H177390   3.150   4.302   4.231  0.7851 -0.7498  0.0132
18633TIP3    H277391   3.173   4.277   4.379  0.6222 -1.9342 -0.1562
18634TIP3   OH277392   5.855   2.681   4.591  0.6824 -0.2524 -0.0555
18634TIP3    H177393   5.784   2.706   4.533  1.0425  2.1021  0.4183
18634TIP3    H277394   5.834   2.722   4.675  2.7810  0.8892 -0.0174
18635TIP3   OH277395   0.185   1.864   2.860 -0.8494  0.4133 -0.6038
18635TIP3    H177396   0.093   1.866   2.884 -0.3026  1.8235  1.6927
18635TIP3    H277397   0.187   1.890   2.768 -2.6875  0.7835 -0.5699
18636TIP3   OH277398   5.174   2.163   3.067 -0.3123 -0.4548  0.3115
18636TIP3    H177399   5.228   2.225   3.115 -0.3900 -0.7643  0.8108
18636TIP3    H277400   5.207   2.166   2.977 -0.4593  0.4669  0.2776
18637TIP3   OH277401   5.810   2.978  12.839 -0.0152 -0.0447  0.4279
18637TIP3    H177402   5.823   3.068  12.809 -1.5995  0.0137 -0.1969
18637TIP3    H277403   5.761   2.937  12.768 -0.8979 -0.8751  1.4904
18638TIP3   OH277404   0.359   4.662   3.828  0.2514 -0.2622  0.1249
18638TIP3    H177405   0.337   4.699   3.914 -0.4314 -1.9241  0.7077
18638TIP3    H277406   0.313   4.578   3.825  1.8510 -1.1717 -1.0450
18639TIP3   OH277407   5.112   4.562   1.812  0.8767  0.3716  0.0781
18639TIP3    H177408   5.075   4.649   1.826  0.3426  0.0317  0.8767
18639TIP3    H277409   5.182   4.575   1.748  0.3580  1.2756 -0.3213
18640TIP3   OH277410   5.763   1.637   4.638 -0.7084 -1.0233 -0.2406
18640TIP3    H177411   5.821   1.590   4.698 -0.6586  0.8347  1.2315
18640TIP3    H277412   5.741   1.718   4.683 -2.2262 -0.4082 -1.9501
18641TIP3   OH277413   0.174   1.260   5.071 -0.2048  0.0514 -0.1363
18641TIP3    H177414   0.250   1.316   5.084 -1.5125  2.4667 -2.0205
18641TIP3    H277415   0.129   1.261   5.156  0.1193  1.4079  0.0419
18642TIP3   OH277416   6.564   6.656  15.200  0.1705  0.2762 -0.4922
18642TIP3    H177417   6.632   6.720  15.178 -0.9106  1.4561 -0.5177
18642TIP3    H277418   6.538   6.620  15.116 -0.1475  0.7932 -0.6216
18643TIP3   OH277419   0.128   1.922   2.568  0.5824 -0.6657 -0.1891
18643TIP3    H177420   0.200   1.860   2.570 -1.1323 -2.7545  1.1343
18643TIP3    H277421   0.090   1.912   2.481 -0.4333 -2.5141  0.4030
18644TIP3   OH277422   4.003   5.405   0.042  0.8636  0.6098  0.5849
18644TIP3    H177423   4.001   5.315   0.009  1.0390  0.6993  0.3300
18644TIP3    H277424   3.933   5.449  -0.005 -1.0022 -0.0408  2.6110
18645TIP3   OH277425   2.981   5.144   3.869  0.7177  0.5608  0.0274
18645TIP3    H177426   2.997   5.068   3.925  0.5478 -0.8649 -1.7676
18645TIP3    H277427   3.004   5.115   3.781 -2.0935  1.6130 -1.1996
18646TIP3   OH277428   5.895   1.156   5.238  0.0318  0.7390 -0.5364
18646TIP3    H177429   5.949   1.106   5.300 -0.6842 -1.2306 -1.4294
18646TIP3    H277430   5.854   1.224   5.292  0.4234 -0.1077  0.8926
18647TIP3   OH277431   3.538   6.474   0.524  0.1743  0.3415 -0.1104
18647TIP3    H177432   3.588   6.472   0.606  0.9787  0.7774 -0.5795
18647TIP3    H277433   3.532   6.566   0.502  0.7450  0.1818 -1.0005
18648TIP3   OH277434   3.379   6.569   3.525 -0.2484 -0.1514 -0.3366
18648TIP3    H177435   3.464   6.525   3.525 -1.5830 -2.9917  0.1682
18648TIP3    H277436   3.362   6.587   3.617 -0.3441  0.0938 -0.4029
18649TIP3   OH277437   6.212   5.480   1.471  0.2340 -0.3650  0.5198
18649TIP3    H177438   6.193   5.465   1.563 -1.3960 -1.2358  0.0829
18649TIP3    H277439   6.126   5.493   1.430  1.0205  4.7355 -0.1912
18650TIP3   OH277440   7.219   3.221   2.608 -0.4588  0.4520  0.0457
18650TIP3    H177441   7.251   3.305   2.575  0.9270 -0.6965 -1.6882
18650TIP3    H277442   7.146   3.245   2.665 -1.1878  2.7519 -1.6808
18651TIP3   OH277443   1.415   3.855   3.571  0.3615 -0.4030  0.1997
18651TIP3    H177444   1.497   3.876   3.527 -0.5008 -0.5633 -1.6114
18651TIP3    H277445   1.363   3.935   3.563 -0.7217 -1.2040 -1.3563
18652TIP3   OH277446   1.787   0.858   0.683  0.4885  0.6203 -0.7949
18652TIP3    H177447   1.864   0.847   0.628 -0.6888  0.2386 -2.4562
18652TIP3    H277448   1.793   0.787   0.747  2.2431  1.4955  0.0743
18653TIP3   OH277449   2.221   4.807   4.048 -0.0510  0.1655 -0.1385
18653TIP3    H177450   2.139   4.832   4.006 -0.4467 -1.4942 -0.4223
18653TIP3    H277451   2.288   4.858   4.002 -0.5465 -1.0514 -2.3766
18654TIP3   OH277452   6.397   2.769   2.020 -0.0983  0.7681  0.0297
18654TIP3    H177453   6.332   2.780   2.089 -1.2892  0.1145 -0.9499
18654TIP3    H277454   6.356   2.710   1.957  2.1959 -1.2894  0.2977
18655TIP3   OH277455   0.153   1.847   5.229  0.0714  0.1779  0.0340
18655TIP3    H177456   0.169   1.779   5.294 -0.6131 -0.2279 -0.2141
18655TIP3    H277457   0.224   1.837   5.166  1.4191  1.3176  1.2944
18656TIP3   OH277458   0.908   3.687   3.687  0.4333  0.3882  0.5028
18656TIP3    H177459   0.908   3.752   3.617  0.2032 -0.0715  0.0703
18656TIP3    H277460   0.981   3.630   3.667  1.1356  0.9694  1.3263
18657TIP3   OH277461   3.475   6.260   5.565  0.3310  0.0613 -0.1284
18657TIP3    H177462   3.443   6.341   5.604  0.3678  1.2254 -2.3815
18657TIP3    H277463   3.570   6.265   5.572  0.3112 -0.1960  0.4375
18658TIP3   OH277464   0.230   4.605   1.359 -0.0809 -0.4403 -0.1651
18658TIP3    H177465   0.241   4.700   1.365 -0.0393 -0.4203 -0.5459
18658TIP3    H277466   0.290   4.569   1.425  0.5944 -0.2426 -0.6624
18659TIP3   OH277467   1.575   2.963   4.555 -0.0494 -0.4445  0.3269
18659TIP3    H177468   1.498   2.908   4.540 -0.6181  0.3597  0.2633
18659TIP3    H277469   1.543   3.036   4.608  0.4765  0.3375 -0.4113
18660TIP3   OH277470   2.267   6.264   5.209 -0.1218  0.3136 -0.2187
18660TIP3    H177471   2.305   6.200   5.269 -0.0964  1.6663  1.2502
18660TIP3    H277472   2.341   6.296   5.158 -0.0171 -0.2391 -0.4237
18661TIP3   OH277473   0.719   5.373   5.804  0.5124 -0.3239  0.2976
18661TIP3    H177474   0.691   5.448   5.856  0.5768  0.9345 -1.3904
18661TIP3    H277475   0.811   5.390   5.784 -0.0395  0.3540 -1.9729
18662TIP3   OH277476   3.702   6.858   4.856  0.2167 -0.2894  0.0685
18662TIP3    H177477   3.622   6.811   4.831 -1.5845  2.0935  0.9778
18662TIP3    H277478   3.749   6.871   4.774 -0.8172 -0.8477 -0.6342
18663TIP3   OH277479   5.695   4.527   5.689  0.7810  0.4398 -0.0618
18663TIP3    H177480   5.764   4.582   5.651 -0.7388  1.2429 -1.7863
18663TIP3    H277481   5.685   4.454   5.628 -0.0138  0.4214  0.0786
18664TIP3   OH277482   5.144   6.073   5.009  0.1065 -0.1707  0.0934
18664TIP3    H177483   5.130   5.979   5.015 -0.8891 -0.0884 -0.7162
18664TIP3    H277484   5.149   6.091   4.916  0.7332  0.5233  0.2501
18665TIP3   OH277485   4.158   6.579   5.183 -0.4940  0.2880  0.5730
18665TIP3    H177486   4.097   6.649   5.204 -0.0582  1.4616 -1.7739
18665TIP3    H277487   4.243   6.610   5.214 -0.5507  0.0801  0.9452
18666TIP3   OH277488   4.519   5.278  13.699  0.0619 -0.1388 -0.3159
18666TIP3    H177489   4.536   5.257  13.791 -0.7075  0.1118 -0.1060
18666TIP3    H277490   4.511   5.193  13.656  0.2602 -0.2576 -0.1231
18667TIP3   OH277491   5.722   1.974   4.983  0.8367  0.1598 -0.1679
18667TIP3    H177492   5.797   1.917   5.001 -0.1632 -1.2319 -0.2571
18667TIP3    H277493   5.695   2.005   5.070  2.9623  2.7034 -0.2801
18668TIP3   OH277494   3.182   3.535   3.831  0.1381  0.8407 -0.1514
18668TIP3    H177495   3.270   3.565   3.808  0.5427  0.7353  1.1905
18668TIP3    H277496   3.178   3.544   3.926 -1.8317  2.2806 -0.3072
18669TIP3   OH277497   3.047   3.795   2.804  0.3836 -0.3414  0.2984
18669TIP3    H177498   3.085   3.874   2.841  0.6869  0.1305 -0.9950
18669TIP3    H277499   3.092   3.782   2.721 -0.1906 -1.4557  0.1296
18670TIP3   OH277500   2.786   7.039   4.234  0.3168  0.5412 -0.1964
18670TIP3    H177501   2.697   7.048   4.201  0.5465  0.0036 -0.9869
18670TIP3    H277502   2.803   6.945   4.234  1.5790  0.7235 -2.0170
18671TIP3   OH277503   4.245   2.288   5.526 -0.1681 -0.1230  0.2871
18671TIP3    H177504   4.162   2.247   5.551  0.1814 -0.7789  0.4004
18671TIP3    H277505   4.295   2.292   5.608  0.0801 -0.1399  0.1373
18672TIP3   OH277506   3.636   0.219   5.498 -0.0859 -0.1534  0.1623
18672TIP3    H177507   3.554   0.262   5.473 -0.6978 -1.5976 -0.4912
18672TIP3    H277508   3.619   0.126   5.482  1.5186 -0.5323  0.5114
18673TIP3   OH277509   3.669   6.315   4.429  0.6548 -0.1412  0.0904
18673TIP3    H177510   3.675   6.221   4.414  1.3843 -0.4506  1.9922
18673TIP3    H277511   3.645   6.323   4.521  0.5057  1.5371 -0.0670
18674TIP3   OH277512   0.930   5.686   1.642  0.2683  0.7809  0.5521
18674TIP3    H177513   0.936   5.731   1.726  0.7286  0.5775  0.6336
18674TIP3    H277514   0.985   5.737   1.583  0.9977  0.2051  0.7076
18675TIP3   OH277515   4.730   5.451   4.078 -0.1053 -0.2799 -0.5108
18675TIP3    H177516   4.686   5.495   4.005  0.6645  0.4380 -0.5507
18675TIP3    H277517   4.685   5.483   4.156 -1.0732 -1.2095 -0.6555
18676TIP3   OH277518   4.669   2.321   5.243 -0.1386 -0.3183  0.1182
18676TIP3    H177519   4.722   2.390   5.203  0.0278 -0.5470 -0.0585
18676TIP3    H277520   4.631   2.362   5.320 -0.4731  0.1336 -0.2786
18677TIP3   OH277521   1.316   1.889   0.365  0.2175  0.3419  0.5289
18677TIP3    H177522   1.334   1.847   0.449  1.0279 -1.0828 -0.3091
18677TIP3    H277523   1.280   1.819   0.311  1.5975  0.6779 -0.9115
18678TIP3   OH277524   2.266   0.853   4.566  0.3297 -0.0292  0.4999
18678TIP3    H177525   2.353   0.825   4.536  0.2672  0.3609 -0.0489
18678TIP3    H277526   2.205   0.798   4.517  0.1950  1.2866 -0.8417
18679TIP3   OH277527   6.544   2.260  14.597 -0.3632  0.6998  1.3013
18679TIP3    H177528   6.581   2.346  14.614  0.6394  0.8642 -1.2982
18679TIP3    H277529   6.501   2.268  14.512  0.6617 -1.6057  0.4967
18680TIP3   OH277530   3.709   3.285   4.962 -0.3552 -0.1514 -0.4615
18680TIP3    H177531   3.725   3.290   5.056 -0.9237  1.4281 -0.4232
18680TIP3    H277532   3.631   3.339   4.948  0.2594  0.3834 -1.9641
18681TIP3   OH277533   6.268   2.396   2.545 -0.0463 -0.0740  0.2689
18681TIP3    H177534   6.346   2.345   2.522  2.0506  2.4072  1.3884
18681TIP3    H277535   6.243   2.439   2.463  1.0318  0.6788  0.3196
18682TIP3   OH277536   5.279   3.053   1.638 -0.3899  1.2418 -0.3562
18682TIP3    H177537   5.374   3.048   1.649 -0.5864 -0.0819  1.1156
18682TIP3    H277538   5.260   2.988   1.570 -0.1557  2.3310 -1.4946
18683TIP3   OH277539   3.645   1.244   0.522 -0.6362 -0.7796  0.1377
18683TIP3    H177540   3.649   1.178   0.452  0.5825 -1.7987  1.1336
18683TIP3    H277541   3.645   1.194   0.603  1.8925  0.4456  0.9777
18684TIP3   OH277542   0.646   4.508   1.470  0.2638 -0.6366  0.4776
18684TIP3    H177543   0.565   4.477   1.429  0.3185 -0.8047  0.4945
18684TIP3    H277544   0.618   4.575   1.532  0.1901 -0.2935  0.0793
18685TIP3   OH277545   6.777   4.168   1.331  0.0039  0.3641 -0.0167
18685TIP3    H177546   6.705   4.217   1.290 -0.5282 -0.6321 -0.3051
18685TIP3    H277547   6.839   4.153   1.259 -0.1907 -0.0319 -0.1037
18686TIP3   OH277548   4.145   3.127  14.999 -0.5437 -0.8561 -0.2108
18686TIP3    H177549   4.085   3.054  14.986 -0.5660 -0.9565  0.4126
18686TIP3    H277550   4.166   3.124  15.092  0.1924 -0.6412 -0.3651
18687TIP3   OH277551   5.391   7.146   4.609 -0.4111  0.6959  0.4991
18687TIP3    H177552   5.482   7.171   4.623 -0.0067  0.7016 -1.8470
18687TIP3    H277553   5.391   7.050   4.620  0.0585  0.5957 -0.3504
18688TIP3   OH277554   5.837   0.930   1.126 -0.0748 -0.6759  1.1477
18688TIP3    H177555   5.824   0.925   1.031 -0.6683  0.8908  1.1213
18688TIP3    H277556   5.932   0.933   1.137  0.0460 -2.1617  0.7010
18689TIP3   OH277557   3.828   6.557   3.693  0.0684 -0.8418  0.8405
18689TIP3    H177558   3.797   6.528   3.608  0.6454 -1.9197  0.9794
18689TIP3    H277559   3.748   6.579   3.741 -0.1962  1.1221 -0.4085
18690TIP3   OH277560   3.516   2.925   1.743  0.7375  0.5260 -0.0084
18690TIP3    H177561   3.557   2.906   1.658 -0.5372 -1.4143 -0.2624
18690TIP3    H277562   3.539   2.850   1.798  0.9704  1.4304  1.1685
18691TIP3   OH277563   6.097   3.454  14.845  0.0562 -0.4409  0.1482
18691TIP3    H177564   6.050   3.487  14.768  2.4793  0.5561 -0.9974
18691TIP3    H277565   6.165   3.397  14.809  1.5983  0.4926  1.4837
18692TIP3   OH277566   4.633   1.321  14.843 -0.4235  0.4053 -0.0028
18692TIP3    H177567   4.586   1.401  14.864 -0.4521  0.5839 -0.7214
18692TIP3    H277568   4.699   1.348  14.779 -1.9380 -0.5029 -2.0796
18693TIP3   OH277569   1.960   2.880   5.694 -0.1652 -0.7677  0.7267
18693TIP3    H177570   2.055   2.884   5.706  0.0580 -2.0929 -0.2836
18693TIP3    H277571   1.935   2.968   5.668  1.1791 -0.9478 -1.4180
18694TIP3   OH277572   2.932   6.848   5.117 -0.1591  0.2026 -0.1109
18694TIP3    H177573   2.887   6.919   5.072 -0.4119 -0.2523 -0.5860
18694TIP3    H277574   2.983   6.891   5.185 -0.9108  0.7650  0.1027
18695TIP3   OH277575   1.357   6.118   2.172  0.2126 -0.5457 -0.5074
18695TIP3    H177576   1.280   6.129   2.115  1.5633  2.1136 -2.0230
18695TIP3    H277577   1.422   6.177   2.135  2.2161 -0.9389  2.1351
18696TIP3   OH277578   2.588   4.212   5.427 -0.5200 -0.2529 -0.3114
18696TIP3    H177579   2.570   4.128   5.469  1.2223  0.8045  2.9088
18696TIP3    H277580   2.531   4.274   5.472 -0.5527  0.6044 -1.4728
18697TIP3   OH277581   6.430   2.923   4.689  0.0603 -0.2143 -0.2444
18697TIP3    H177582   6.420   2.857   4.757  2.0556 -0.4569 -0.1532
18697TIP3    H277583   6.341   2.956   4.676 -0.2511  0.8344  3.4185
18698TIP3   OH277584   4.826   1.983  14.972 -0.6470  0.2091 -0.1559
18698TIP3    H177585   4.783   1.897  14.968  0.1369 -0.2159  0.2482
18698TIP3    H277586   4.790   2.025  15.050 -0.5685 -0.0204  0.0054
18699TIP3   OH277587   3.386   3.364   5.379 -0.4369  0.1354  0.2005
18699TIP3    H177588   3.457   3.405   5.329 -0.8323  0.4066 -0.1523
18699TIP3    H277589   3.411   3.272   5.385 -0.7980 -0.0953 -1.2936
18700TIP3   OH277590   5.063   1.371   0.057  0.1737  0.1687  0.0341
18700TIP3    H177591   5.103   1.373  -0.030  3.2022  0.6847  1.3195
18700TIP3    H277592   4.983   1.422   0.047  0.4085  0.1993 -2.4250
18701TIP3   OH277593   7.179   5.469   3.644 -0.2356 -0.1870  0.3067
18701TIP3    H177594   7.147   5.498   3.558  0.6356  2.2226  0.7184
18701TIP3    H277595   7.272   5.495   3.644  0.1039 -1.3109  1.5074
18702TIP3   OH277596   6.834   5.236   3.656 -0.6953 -0.1807 -0.0601
18702TIP3    H177597   6.825   5.303   3.724  0.4264  2.9074 -2.7456
18702TIP3    H277598   6.920   5.197   3.673 -1.4693 -1.3059  1.6804
18703TIP3   OH277599   5.016   3.433   4.693  0.4666 -0.2202 -0.2141
18703TIP3    H177600   5.029   3.516   4.739  2.0422 -0.1082 -0.8052
18703TIP3    H277601   4.927   3.406   4.718  0.5870  0.7292  1.4346
18704TIP3   OH277602   1.979   4.565  13.973  0.0722  0.0192 -0.2724
18704TIP3    H177603   1.896   4.569  13.925 -0.3948 -1.1392  0.3826
18704TIP3    H277604   1.954   4.582  14.064  0.1240 -2.5892  0.3193
18705TIP3   OH277605   2.896   2.283   4.863  0.0594  0.0392  0.3052
18705TIP3    H177606   2.915   2.359   4.809 -1.2628  1.7039  2.0320
18705TIP3    H277607   2.980   2.259   4.903  0.6956 -0.1381 -1.1012
18706TIP3   OH277608   0.291   5.698   0.077  0.0923  0.4734 -0.0577
18706TIP3    H177609   0.226   5.767   0.068  0.3883  1.2845  3.0249
18706TIP3    H277610   0.299   5.683   0.171  0.5049 -3.3977 -0.5232
18707TIP3   OH277611   1.941   4.927  12.710  0.2795 -0.0348 -0.2398
18707TIP3    H177612   2.017   4.870  12.702 -0.2563 -0.7627 -0.2328
18707TIP3    H277613   1.895   4.918  12.627  1.2635  2.0035 -1.0794
18708TIP3   OH277614   2.126   4.971   5.633  0.6577  0.1454  1.0531
18708TIP3    H177615   2.209   5.014   5.654  1.1926 -0.6248  0.5833
18708TIP3    H277616   2.113   4.909   5.705  0.5272  0.2051  1.0819
18709TIP3   OH277617   5.957   1.186   5.655  0.2981 -0.1051 -0.0710
18709TIP3    H177618   5.920   1.234   5.580 -1.1897 -1.8976 -0.5586
18709TIP3    H277619   5.932   1.238   5.731 -2.8538 -0.8923 -0.4272
18710TIP3   OH277620   4.033   0.620   2.250  0.0032  0.0940  0.2745
18710TIP3    H177621   4.003   0.532   2.270  1.6004 -0.6238 -0.3188
18710TIP3    H277622   3.977   0.677   2.303 -0.4091 -1.3234  1.4283
18711TIP3   OH277623   1.907   3.483   2.452  0.6121  0.0856 -0.1774
18711TIP3    H177624   1.816   3.462   2.473  0.0956  1.1560 -1.2025
18711TIP3    H277625   1.909   3.579   2.447  1.4554  0.0341 -1.5414
18712TIP3   OH277626   1.428   7.178   5.413  0.0484  0.5372  0.9657
18712TIP3    H177627   1.519   7.182   5.443 -0.4751  0.7366  2.6062
18712TIP3    H277628   1.386   7.116   5.473 -1.0053  0.8091  0.5269
18713TIP3   OH277629   0.870   5.092   2.286 -0.6372  0.0958 -0.3370
18713TIP3    H177630   0.882   5.070   2.194 -0.2890 -0.5361 -0.1441
18713TIP3    H277631   0.883   5.010   2.333 -2.3190  0.0822  0.1710
18714TIP3   OH277632   5.595   0.987  15.098  0.3570 -0.5461 -0.7339
18714TIP3    H177633   5.512   1.033  15.091  0.1300 -0.9180 -0.4985
18714TIP3    H277634   5.649   1.023  15.027 -0.2546 -0.8426 -1.3524
18715TIP3   OH277635   4.954   3.618   1.413  0.6173  0.1039  0.4085
18715TIP3    H177636   4.918   3.682   1.351  0.4136 -0.0918  0.3227
18715TIP3    H277637   5.008   3.561   1.359 -0.0197 -0.4142  0.3152
18716TIP3   OH277638   0.432   6.717   3.557  0.1916 -0.2298 -0.3354
18716TIP3    H177639   0.508   6.712   3.499  1.4645  0.4364  1.1974
18716TIP3    H277640   0.430   6.808   3.586 -1.8936  0.0503 -1.2041
18717TIP3   OH277641   3.911   3.026   2.660 -0.1756  0.0848  0.0643
18717TIP3    H177642   3.835   2.969   2.659 -0.8818  0.9628  1.2432
18717TIP3    H277643   3.941   3.025   2.751  1.2975 -0.3133 -0.3919
18718TIP3   OH277644   4.651   1.152   1.966  0.3511  0.6063  0.7526
18718TIP3    H177645   4.596   1.178   2.039  0.2226 -2.0221  1.6763
18718TIP3    H277646   4.592   1.146   1.892 -0.1369  0.1867  1.1728
18719TIP3   OH277647   5.199   0.027   2.935 -0.2182 -0.3071  0.1026
18719TIP3    H177648   5.122   0.028   2.879 -0.0465  0.2800 -0.1310
18719TIP3    H277649   5.170   0.068   3.016  0.1788  1.1547 -0.4565
18720TIP3   OH277650   3.387   6.703   5.469  0.4317  0.1713 -0.1373
18720TIP3    H177651   3.348   6.702   5.557  0.3762 -0.2432 -0.1690
18720TIP3    H277652   3.319   6.739   5.413  0.5010  0.5313  0.0026
18721TIP3   OH277653   3.169   5.515   2.659  0.6241 -0.5808  0.2709
18721TIP3    H177654   3.105   5.520   2.588  2.6682  1.5380 -1.6126
18721TIP3    H277655   3.186   5.421   2.669 -1.6731 -1.1064 -0.1191
18722TIP3   OH277656   5.503   6.655   5.709 -0.4373  0.3083  0.4471
18722TIP3    H177657   5.589   6.650   5.666 -0.2757  1.1044  0.6510
18722TIP3    H277658   5.442   6.618   5.645  0.2124 -1.4575  0.8024
18723TIP3   OH277659   3.590   5.413   5.384 -0.3196 -0.1117 -0.0673
18723TIP3    H177660   3.642   5.467   5.444 -1.7877  2.7954 -1.2179
18723TIP3    H277661   3.651   5.392   5.313  0.1877  0.4208  0.1933
18724TIP3   OH277662   0.311   1.184   1.320  0.8725  0.8279 -0.0525
18724TIP3    H177663   0.384   1.122   1.318 -0.1302 -0.4374  0.8578
18724TIP3    H277664   0.342   1.255   1.376  2.8076  2.2517 -2.7262
18725TIP3   OH277665   2.449   2.266   5.408  0.1867  0.3470  0.6588
18725TIP3    H177666   2.429   2.173   5.420  0.7217  0.2435  0.7682
18725TIP3    H277667   2.518   2.267   5.342 -0.9694  0.7664 -0.6065
18726TIP3   OH277668   4.472   4.667  12.802 -0.5652  0.1324  0.4061
18726TIP3    H177669   4.508   4.599  12.744 -2.7963  0.1539 -1.1829
18726TIP3    H277670   4.542   4.730  12.813  0.9850 -1.5026  0.4231
18727TIP3   OH277671   3.562   4.324   4.169 -0.0194 -0.1558 -0.3578
18727TIP3    H177672   3.610   4.376   4.233  0.6242 -1.8252  0.5690
18727TIP3    H277673   3.591   4.358   4.084  0.0119  1.2823  0.1899
18728TIP3   OH277674   7.187   2.261   5.274 -0.0717 -0.0903  0.6184
18728TIP3    H177675   7.236   2.256   5.192  0.8493  1.1554  1.0529
18728TIP3    H277676   7.167   2.170   5.296  1.3746 -0.5860  0.0030
18729TIP3   OH277677   5.310   2.058   0.946  0.1528  0.2504 -0.3623
18729TIP3    H177678   5.308   2.003   0.868 -1.6463 -0.9379  0.4730
18729TIP3    H277679   5.385   2.116   0.932  0.6981 -0.8445 -2.3300
18730TIP3   OH277680   3.456   1.460   0.500  0.5495 -0.0566 -0.0141
18730TIP3    H177681   3.392   1.406   0.452  0.4016 -0.7108  0.8834
18730TIP3    H277682   3.536   1.408   0.499 -0.0013 -1.0852  2.1773
18731TIP3   OH277683   2.726   6.162   2.592  0.1326  0.7969 -0.3881
18731TIP3    H177684   2.691   6.104   2.524  1.3177 -0.8407  0.3382
18731TIP3    H277685   2.757   6.239   2.544 -0.2943  0.2813 -1.5370
18732TIP3   OH277686   4.150   6.807   1.533 -0.7288  0.6007 -0.2184
18732TIP3    H177687   4.223   6.808   1.471  0.5145 -1.6083  1.0927
18732TIP3    H277688   4.109   6.893   1.522  0.8602  1.1815 -2.3883
18733TIP3   OH277689   2.811   3.822  14.695 -0.7921  0.1821 -0.1499
18733TIP3    H177690   2.820   3.913  14.665 -0.8417 -0.7432 -3.3235
18733TIP3    H277691   2.899   3.786  14.686 -1.1386 -0.5480 -0.7251
18734TIP3   OH277692   1.477   2.766   0.684  0.0282  0.3091 -0.3515
18734TIP3    H177693   1.543   2.745   0.750 -0.4377  0.6954  0.2433
18734TIP3    H277694   1.494   2.857   0.660 -1.3518  1.0100  1.1034
18735TIP3   OH277695   0.364   3.989   1.610 -0.0037  0.3527  0.3519
18735TIP3    H177696   0.444   3.971   1.659 -1.2938 -2.1533  1.7526
18735TIP3    H277697   0.338   4.077   1.636  0.5665 -0.0618  2.4703
18736TIP3   OH277698   0.585   5.266   3.678  0.0507 -0.6928  0.2264
18736TIP3    H177699   0.675   5.250   3.705  0.0888  0.9588  1.1598
18736TIP3    H277700   0.544   5.308   3.753 -0.8832  0.6147 -0.9564
18737TIP3   OH277701   2.824   4.034  12.458  0.0651  0.1976 -0.0850
18737TIP3    H177702   2.796   3.961  12.403  1.7795 -0.5096 -0.0705
18737TIP3    H277703   2.898   4.073  12.412 -0.8983  2.0578 -0.1628
18738TIP3   OH277704   1.406   6.576   4.128 -0.0491  0.2017  0.2191
18738TIP3    H177705   1.433   6.491   4.164  0.3537  0.0647 -0.3982
18738TIP3    H277706   1.445   6.640   4.187  0.4232 -0.0246  0.1544
18739TIP3   OH277707   4.708   6.020   2.866  0.2412 -0.2531 -0.5971
18739TIP3    H177708   4.729   6.084   2.935  2.2149  0.3155 -1.6481
18739TIP3    H277709   4.771   6.038   2.797 -1.1273 -1.3837 -2.2246
18740TIP3   OH277710   3.099   2.053   1.277  0.1687  0.1026  0.5865
18740TIP3    H177711   3.044   1.977   1.259  1.3515 -1.4008  2.8862
18740TIP3    H277712   3.182   2.017   1.309  0.6558  2.3431  2.1418
18741TIP3   OH277713   7.104   1.994   5.272  0.2564 -0.2424  0.0048
18741TIP3    H177714   7.172   1.928   5.281 -0.9874 -1.4792  0.6357
18741TIP3    H277715   7.068   1.981   5.184  0.3316 -0.0763 -0.0522
18742TIP3   OH277716   4.626   6.085   3.779 -0.5713  0.1022 -0.3120
18742TIP3    H177717   4.559   6.018   3.767 -0.4486  0.1326 -1.2594
18742TIP3    H277718   4.584   6.167   3.753 -0.0989  0.0807 -1.1965
18743TIP3   OH277719   3.629   6.025   4.938 -0.4733  0.1191  0.1409
18743TIP3    H177720   3.606   6.096   4.878  0.2243  0.4234  0.2275
18743TIP3    H277721   3.580   6.045   5.018 -1.1024 -0.0781 -0.1877
18744TIP3   OH277722   1.890   4.077   3.508 -0.0075  0.2181  0.3280
18744TIP3    H177723   1.855   4.125   3.584 -1.3525  0.7762 -0.6034
18744TIP3    H277724   1.978   4.111   3.497  0.7219 -0.8006  2.4050
18745TIP3   OH277725   1.151   2.759   3.551  0.3071  0.0518  0.1178
18745TIP3    H177726   1.139   2.835   3.607  1.8137  0.2194  0.2368
18745TIP3    H277727   1.188   2.692   3.609  0.4093 -0.2811 -0.3271
18746TIP3   OH277728   0.504   5.443  14.318 -0.0923 -0.1533 -0.4247
18746TIP3    H177729   0.498   5.510  14.250 -3.5071  1.8987  1.5537
18746TIP3    H277730   0.467   5.364  14.278 -0.0205  0.3623 -1.5442
18747TIP3   OH277731   6.190   2.083   5.032 -0.3822 -0.2116  0.0872
18747TIP3    H177732   6.273   2.036   5.044 -1.1782 -1.4369  1.0909
18747TIP3    H277733   6.150   2.085   5.119 -1.3955  0.3687 -0.3699
18748TIP3   OH277734   1.111   4.559  15.405 -0.4385  0.4197 -0.0797
18748TIP3    H177735   1.143   4.609  15.330 -0.5898  3.0484  1.4657
18748TIP3    H277736   1.017   4.579  15.408 -0.7996 -1.1597 -0.2296
18749TIP3   OH277737   1.377   4.857   5.037 -0.2251  0.1654 -0.2065
18749TIP3    H177738   1.310   4.920   5.011  0.4558 -0.2382 -3.3439
18749TIP3    H277739   1.458   4.892   5.001  0.4432 -1.6033 -0.5353
18750TIP3   OH277740   1.029   5.596  13.723  0.1390  0.0054 -0.9601
18750TIP3    H177741   1.090   5.660  13.760 -0.0765 -0.4881  0.2864
18750TIP3    H277742   1.052   5.513  13.766 -1.4935 -0.1622 -0.3585
18751TIP3   OH277743   1.397   6.785   3.967 -0.0231  0.4079 -0.8758
18751TIP3    H177744   1.378   6.786   3.874 -1.0823 -1.3037 -0.7216
18751TIP3    H277745   1.396   6.692   3.991  2.2470  0.6296  0.4616
18752TIP3   OH277746   7.034   5.725   4.785 -0.4215  0.1186 -0.4243
18752TIP3    H177747   6.978   5.760   4.715 -2.2287  0.7773  1.2543
18752TIP3    H277748   7.122   5.728   4.749 -1.3176  0.0918 -2.7980
18753TIP3   OH277749   2.306   0.279   2.885  0.1204 -0.1581 -0.5642
18753TIP3    H177750   2.380   0.223   2.908 -2.5543 -2.9502  2.4172
18753TIP3    H277751   2.298   0.340   2.958 -0.7284 -0.1998 -0.6059
18754TIP3   OH277752   4.059   6.393   2.106  0.1465  0.4643 -0.0166
18754TIP3    H177753   4.127   6.338   2.067  0.6689  0.4747  0.8409
18754TIP3    H277754   4.060   6.369   2.199 -0.0219  1.5077  0.2636
18755TIP3   OH277755   3.504   2.370   1.729 -0.0905  0.0706  0.2269
18755TIP3    H177756   3.535   2.399   1.815  1.8923  1.1224 -0.7720
18755TIP3    H277757   3.471   2.450   1.688  0.0242 -0.2083 -0.4087
18756TIP3   OH277758   1.779   1.074   4.222  0.0595  0.3123 -0.1303
18756TIP3    H177759   1.752   1.162   4.195  0.4921 -0.0042 -1.7118
18756TIP3    H277760   1.792   1.027   4.139 -0.5993 -1.3776  0.6786
18757TIP3   OH277761   2.593   3.088  15.259 -0.2697  0.1113  0.4522
18757TIP3    H177762   2.667   3.051  15.211 -0.1570  1.1445 -0.2044
18757TIP3    H277763   2.560   3.016  15.313 -0.8684 -1.3086 -1.6973
18758TIP3   OH277764   4.455   5.650   5.464  0.3346  0.0646  1.1438
18758TIP3    H177765   4.536   5.599   5.456  1.2049  1.5967 -0.4766
18758TIP3    H277766   4.389   5.596   5.420  1.1143  0.0432 -0.0565
18759TIP3   OH277767   3.769   3.956   4.820  0.1823 -0.0902 -0.0093
18759TIP3    H177768   3.701   3.914   4.873  0.9025  0.4781  1.4049
18759TIP3    H277769   3.740   3.944   4.730  0.0481 -3.0582  0.3594
18760TIP3   OH277770   2.633   2.915   4.583  0.4433  0.1681 -0.1704
18760TIP3    H177771   2.616   2.828   4.620  0.6717 -0.9046 -2.4181
18760TIP3    H277772   2.718   2.940   4.620  1.4746 -1.6229 -1.2068
18761TIP3   OH277773   3.269   3.590  13.402 -0.1146 -0.1909  0.1915
18761TIP3    H177774   3.288   3.670  13.451 -0.2332 -1.0144  1.6421
18761TIP3    H277775   3.250   3.524  13.469 -2.4068 -0.8565 -1.0146
18762TIP3   OH277776   3.706   6.649   5.699  0.2948 -0.2695  0.7931
18762TIP3    H177777   3.724   6.741   5.721  0.9947 -0.0059 -0.7184
18762TIP3    H277778   3.790   6.605   5.710  0.7140 -0.0960 -1.3143
18763TIP3   OH277779   2.232   6.124   5.585  0.8823 -0.8415 -0.0023
18763TIP3    H177780   2.145   6.085   5.594  0.2354  0.7614  1.0461
18763TIP3    H277781   2.266   6.127   5.675  2.5756 -2.5586 -0.5070
18764TIP3   OH277782   5.905   6.670   1.462  0.2155 -0.3862  0.1973
18764TIP3    H177783   5.856   6.591   1.484  0.9258 -0.6025  1.0643
18764TIP3    H277784   5.927   6.709   1.546  2.9955 -1.2063 -0.0297
18765TIP3   OH277785   6.567   1.289   4.255  1.0579 -0.7959 -0.2375
18765TIP3    H177786   6.582   1.228   4.182  0.8565 -0.1205 -0.8614
18765TIP3    H277787   6.483   1.262   4.292  0.8497 -0.7522 -0.6706
18766TIP3   OH277788   4.766   4.594   0.371 -0.3656 -0.1280  0.7422
18766TIP3    H177789   4.760   4.509   0.327  1.2410  0.3644 -0.4917
18766TIP3    H277790   4.830   4.580   0.441 -1.6487 -0.4486  1.9032
18767TIP3   OH277791   0.476   3.317  14.497  0.1839 -0.1036  0.0519
18767TIP3    H177792   0.415   3.381  14.532  0.7039  1.0189 -1.0262
18767TIP3    H277793   0.482   3.250  14.565 -1.6626  0.1175  0.4967
18768TIP3   OH277794   4.932   0.946   1.368  0.3085  0.3446 -0.3926
18768TIP3    H177795   4.911   1.017   1.308 -1.5549 -0.9447 -1.3277
18768TIP3    H277796   4.872   0.958   1.442  0.5429  0.1985 -0.1746
18769TIP3   OH277797   5.849   2.927   5.361  0.0161  0.1419 -0.1135
18769TIP3    H177798   5.783   2.906   5.427  0.1186  0.0678 -0.0347
18769TIP3    H277799   5.917   2.861   5.373 -0.0866 -0.0295 -0.4655
18770TIP3   OH277800   5.052   4.743   4.632  0.1266  0.0919  0.2845
18770TIP3    H177801   4.975   4.698   4.596  0.0633  1.2495 -1.1300
18770TIP3    H277802   5.120   4.730   4.567  0.4504  1.0095  0.4234
18771TIP3   OH277803   3.424   0.081   5.251  0.1045 -0.6550 -0.2215
18771TIP3    H177804   3.334   0.057   5.227 -0.3852  0.4649  0.4082
18771TIP3    H277805   3.436   0.042   5.338 -1.1473  2.2184  1.3871
18772TIP3   OH277806   5.684   1.858   3.505  0.0017 -0.3778 -0.4781
18772TIP3    H177807   5.616   1.918   3.536 -0.8528 -0.8537 -1.3834
18772TIP3    H277808   5.739   1.843   3.581  0.0847  1.3510 -0.1616
18773TIP3   OH277809   0.987   1.511   1.757 -0.0512 -0.3686  0.1823
18773TIP3    H177810   0.981   1.467   1.842 -0.7173  1.6343  1.2432
18773TIP3    H277811   0.896   1.526   1.731  0.0866  1.8790  0.7428
18774TIP3   OH277812   1.704   3.887   3.512 -0.2638 -0.3069  0.0937
18774TIP3    H177813   1.729   3.799   3.538 -2.0091 -0.6671  0.7225
18774TIP3    H277814   1.774   3.943   3.546 -0.0045 -1.2874  1.2548
18775TIP3   OH277815   2.909   6.827   3.439  0.2380 -0.4574  0.2716
18775TIP3    H177816   2.976   6.876   3.391  0.2880 -0.6649  0.1292
18775TIP3    H277817   2.832   6.829   3.383 -0.5489  1.5444  1.3138
18776TIP3   OH277818   0.563   0.735   3.642  0.5484  0.3528  0.7176
18776TIP3    H177819   0.539   0.693   3.725  0.2042 -0.0988  0.3929
18776TIP3    H277820   0.549   0.828   3.658 -2.2565  0.0926  0.3305
18777TIP3   OH277821   5.234   2.285   4.153 -0.0627 -0.5047 -0.1344
18777TIP3    H177822   5.273   2.229   4.220 -1.6698 -2.0853 -0.4637
18777TIP3    H277823   5.294   2.360   4.148  2.0007 -1.9986  0.5606
18778TIP3   OH277824   6.529   5.640   5.428 -0.2304 -0.2142  0.6450
18778TIP3    H177825   6.451   5.586   5.417 -0.8191  0.5697  0.9173
18778TIP3    H277826   6.503   5.709   5.488  0.4887  0.4248  0.2507
18779TIP3   OH277827   2.539   5.920   1.144 -0.8495 -0.2237 -0.5109
18779TIP3    H177828   2.486   5.941   1.220  1.0972 -0.5591  1.0351
18779TIP3    H277829   2.503   5.838   1.111 -0.3698 -1.3059  1.4837
18780TIP3   OH277830   2.816   4.399   2.361 -0.3998  0.3311 -0.3743
18780TIP3    H177831   2.770   4.477   2.392  0.5824  0.8729 -0.2582
18780TIP3    H277832   2.833   4.348   2.439  2.8965  2.1266  0.2757
18781TIP3   OH277833   1.959   3.966   4.542 -0.3276 -0.1168 -0.2483
18781TIP3    H177834   1.994   4.027   4.607 -1.4676  1.6894 -1.2457
18781TIP3    H277835   1.880   3.930   4.582 -0.1804 -0.2013 -0.0349
18782TIP3   OH277836   0.960   5.137   0.802  0.1287 -0.3763 -0.3943
18782TIP3    H177837   0.996   5.183   0.878  0.5421 -0.7750 -0.3393
18782TIP3    H277838   0.908   5.066   0.840 -2.3347  1.2989 -0.4247
18783TIP3   OH277839   3.594   3.866   5.041 -0.3115  0.1620  0.1891
18783TIP3    H177840   3.544   3.948   5.035 -0.4645  0.1544  1.1903
18783TIP3    H277841   3.529   3.799   5.059 -0.1546 -0.1444 -0.3715
18784TIP3   OH277842   1.874   5.222   1.860  0.5695 -0.8224 -0.2972
18784TIP3    H177843   1.909   5.192   1.777  1.2609 -0.2232 -0.2348
18784TIP3    H277844   1.941   5.200   1.924 -0.0245 -1.4224  0.1386
18785TIP3   OH277845   7.142   5.235   4.809 -0.1960  0.9592 -0.8888
18785TIP3    H177846   7.068   5.280   4.851  0.6002  0.4540  1.1299
18785TIP3    H277847   7.213   5.299   4.810 -0.0332  0.7823 -1.0590
18786TIP3   OH277848   2.906   0.215   2.834 -0.0458  0.5175  0.6029
18786TIP3    H177849   2.982   0.237   2.888 -0.9028  0.4372  1.8981
18786TIP3    H277850   2.937   0.221   2.744  1.7930 -0.5883  1.1135
18787TIP3   OH277851   1.741   5.237   3.629  0.3753 -0.5252  0.1446
18787TIP3    H177852   1.807   5.277   3.574  0.0450 -1.4211 -0.9343
18787TIP3    H277853   1.776   5.149   3.649 -0.2768 -0.8340 -0.0531
18788TIP3   OH277854   2.526   6.512   4.264 -0.3804 -0.4764  0.4133
18788TIP3    H177855   2.477   6.575   4.316 -0.2215 -0.6692  0.7969
18788TIP3    H277856   2.577   6.462   4.328  0.7054  0.0549 -0.0022
18789TIP3   OH277857   6.704   6.665   3.848 -0.1925  0.5522  0.2015
18789TIP3    H177858   6.638   6.721   3.891 -0.1678  1.7338 -1.2121
18789TIP3    H277859   6.675   6.660   3.757  1.1790  0.3252 -0.2432
18790TIP3   OH277860   1.787   2.929   1.479  0.3280  0.2998  0.8420
18790TIP3    H177861   1.780   2.917   1.384 -0.0905  1.2931  0.7368
18790TIP3    H277862   1.756   3.018   1.495  0.5010  0.1889  1.9047
18791TIP3   OH277863   0.540   4.634   3.491 -0.3814  0.1495  0.0064
18791TIP3    H177864   0.494   4.550   3.492  2.5820 -1.6121  0.4505
18791TIP3    H277865   0.553   4.655   3.583 -1.0993  1.1795 -0.0990
18792TIP3   OH277866   5.923   2.809   3.250  0.4023 -0.0701  0.5961
18792TIP3    H177867   5.834   2.843   3.248  1.2321  2.2663 -0.9659
18792TIP3    H277868   5.955   2.830   3.337  0.7488  3.0170 -0.1872
18793TIP3   OH277869   1.698   2.531   2.968 -0.4175  0.4572 -0.2461
18793TIP3    H177870   1.665   2.537   2.878 -0.8829 -1.1080 -0.2032
18793TIP3    H277871   1.677   2.442   2.995  0.3079  0.7053  1.1959
18794TIP3   OH277872   3.834   1.977   1.844 -1.0993 -0.2527  0.1726
18794TIP3    H177873   3.902   1.961   1.778 -0.6300  1.4222  0.1840
18794TIP3    H277874   3.764   2.020   1.795 -1.1782  0.0850  0.5770
18795TIP3   OH277875   2.688   4.383  15.166 -0.4249 -0.0267 -0.0285
18795TIP3    H177876   2.704   4.325  15.092 -0.6561 -0.4699  0.2640
18795TIP3    H277877   2.774   4.418  15.190 -0.3488  0.0999 -0.4926
18796TIP3   OH277878   5.518   0.664   4.024 -0.5032  0.3227 -0.2433
18796TIP3    H177879   5.551   0.637   3.937  0.7845 -0.7627  0.5311
18796TIP3    H277880   5.546   0.755   4.033  0.3530  0.0992 -0.5264
18797TIP3   OH277881   4.579   2.493   2.184 -0.6246 -0.0942 -0.0714
18797TIP3    H177882   4.511   2.479   2.118 -0.2761 -1.6217 -0.1281
18797TIP3    H277883   4.611   2.406   2.204  1.9525  0.6402 -0.7010
18798TIP3   OH277884   1.976   5.907   1.051 -0.6168 -0.1024  0.2094
18798TIP3    H177885   2.066   5.938   1.053 -1.0966  1.4490 -0.4424
18798TIP3    H277886   1.966   5.868   0.964 -1.0297  1.3143 -0.4124
18799TIP3   OH277887   1.889   0.022   5.015  0.1275 -0.1108 -0.2134
18799TIP3    H177888   1.935   0.097   5.053 -0.0949  0.3846 -0.9165
18799TIP3    H277889   1.904  -0.049   5.078 -1.2369  0.9844  1.4135
18800TIP3   OH277890   2.166   5.202   5.949  0.7551 -0.4355  0.2954
18800TIP3    H177891   2.208   5.136   5.894 -0.8414 -0.7622 -0.5882
18800TIP3    H277892   2.214   5.283   5.931  0.6117 -0.6490 -1.1912
18801TIP3   OH277893   0.063   6.413   4.807  0.3330 -0.0315 -0.1401
18801TIP3    H177894   0.101   6.443   4.725 -0.7297  1.4729 -0.1241
18801TIP3    H277895  -0.028   6.395   4.786 -0.3655  1.8642  0.9742
18802TIP3   OH277896   6.470   6.064   4.396 -0.1267 -0.4507 -0.0880
18802TIP3    H177897   6.382   6.099   4.410  0.5277  0.5134  2.0080
18802TIP3    H277898   6.521   6.139   4.364  0.5481 -0.2410  1.3935
18803TIP3   OH277899   3.831   3.352   4.717 -0.5133  0.3495  0.2522
18803TIP3    H177900   3.802   3.321   4.802  3.0821 -0.8596  1.2139
18803TIP3    H277901   3.758   3.404   4.684 -1.7531  1.6586  4.4471
18804TIP3   OH277902   1.287   1.747   3.744  0.3186 -0.4663  0.4636
18804TIP3    H177903   1.201   1.730   3.783  0.5013 -3.2293 -0.1273
18804TIP3    H277904   1.273   1.821   3.686 -1.5771 -0.6059  0.6871
18805TIP3   OH277905   2.902   2.949   4.669  0.7705 -0.0215  0.4808
18805TIP3    H177906   2.993   2.922   4.665  0.8751  0.0444  1.9146
18805TIP3    H277907   2.905   3.042   4.690  0.3720 -0.0776  0.8004
18806TIP3   OH277908   1.107   3.622   5.341 -0.4937 -0.9205  0.2241
18806TIP3    H177909   1.054   3.690   5.301  0.8604 -0.8143 -1.5314
18806TIP3    H277910   1.153   3.667   5.413 -0.1879 -0.1394 -0.4381
18807TIP3   OH277911   6.240   0.919  14.728  0.5185  0.4410 -0.0331
18807TIP3    H177912   6.331   0.920  14.698  0.5954  0.5049  0.2037
18807TIP3    H277913   6.210   1.009  14.714  1.4742  1.3293  2.8751
18808TIP3   OH277914   1.000   5.025   2.829  0.4054 -0.0414 -0.2195
18808TIP3    H177915   1.085   5.044   2.788  1.1575 -0.9416  0.8389
18808TIP3    H277916   0.971   4.944   2.787 -1.0588  1.3907 -2.1672
18809TIP3   OH277917   1.403   0.987   4.787  0.0233 -0.2936  0.1297
18809TIP3    H177918   1.417   0.913   4.847  2.9869 -0.1413 -0.2385
18809TIP3    H277919   1.400   1.064   4.845  1.8298 -0.2629  0.2658
18810TIP3   OH277920   4.526   5.833   4.867  0.1627  0.6022 -0.5653
18810TIP3    H177921   4.560   5.914   4.827  1.3403 -0.2086 -1.2449
18810TIP3    H277922   4.596   5.802   4.923 -1.6365  1.9748  2.7134
18811TIP3   OH277923   6.732   3.136   3.142  0.1134 -0.3874 -0.3860
18811TIP3    H177924   6.821   3.170   3.140 -0.5907  1.6124 -2.6816
18811TIP3    H277925   6.684   3.196   3.199  0.2618 -1.7093  1.2002
18812TIP3   OH277926   5.697   0.439   4.092  0.0984 -0.6170 -0.2919
18812TIP3    H177927   5.661   0.516   4.048 -1.6719 -1.9800 -1.3411
18812TIP3    H277928   5.674   0.365   4.036 -1.5965 -2.3640  2.4314
18813TIP3   OH277929   3.215   5.433  15.272 -0.1026  0.3908 -0.3235
18813TIP3    H177930   3.145   5.367  15.273 -1.0620  1.3349  1.7901
18813TIP3    H277931   3.243   5.437  15.181 -3.6880  0.8305 -1.5553
18814TIP3   OH277932   5.682   4.671   4.478 -0.0074  0.4710  0.6816
18814TIP3    H177933   5.769   4.710   4.474  0.3802 -0.4516 -2.4568
18814TIP3    H277934   5.626   4.733   4.432 -0.4712 -0.1545  0.3930
18815TIP3   OH277935   2.712   4.887   2.305  0.4840 -0.0062  0.4885
18815TIP3    H177936   2.738   4.866   2.215  0.0284  1.1861  0.0546
18815TIP3    H277937   2.631   4.837   2.318  1.4005 -1.4771  0.8444
18816TIP3   OH277938   5.390   4.127   4.724  0.7101 -0.0342  0.2923
18816TIP3    H177939   5.406   4.033   4.732 -0.4872 -0.4067 -1.2221
18816TIP3    H277940   5.348   4.137   4.639  0.0228  1.7726  0.7968
18817TIP3   OH277941   5.873   5.593   1.723 -0.3728 -0.5183 -0.3481
18817TIP3    H177942   5.781   5.580   1.701  0.1209 -1.8870 -1.7617
18817TIP3    H277943   5.907   5.646   1.651 -0.1373  0.4129  0.4217
18818TIP3   OH277944   3.857   2.225   1.189 -0.0318 -0.4299 -0.8514
18818TIP3    H177945   3.891   2.311   1.167 -2.4824  1.3070  1.4699
18818TIP3    H277946   3.828   2.188   1.106  2.2338  0.3605 -2.0676
18819TIP3   OH277947   4.110   2.378   5.802 -0.1917 -0.2915  0.4014
18819TIP3    H177948   4.163   2.302   5.830  1.2472 -0.0861 -1.5759
18819TIP3    H277949   4.175   2.440   5.769 -1.6437 -0.0649 -2.2432
18820TIP3   OH277950   0.348   4.916   1.657  0.2465 -0.1490  0.1616
18820TIP3    H177951   0.438   4.901   1.629 -0.1868 -0.0799 -1.3670
18820TIP3    H277952   0.295   4.879   1.586 -0.9074  1.3824  0.1900
18821TIP3   OH277953   6.633   4.667   0.920  0.2190 -0.0001  0.0268
18821TIP3    H177954   6.668   4.674   0.831 -0.4240  1.2341 -0.1476
18821TIP3    H277955   6.635   4.573   0.938  2.7941 -0.0988 -0.2737
18822TIP3   OH277956   1.485   0.303   3.923 -0.8487  0.3365 -0.2268
18822TIP3    H177957   1.419   0.342   3.865 -0.1526  0.3674 -1.0242
18822TIP3    H277958   1.447   0.311   4.011 -0.3642  3.8115 -0.1657
18823TIP3   OH277959   2.411   1.710   1.689  0.0415  0.4952 -1.0337
18823TIP3    H177960   2.359   1.790   1.700  0.8864  1.2143 -2.0350
18823TIP3    H277961   2.358   1.641   1.728 -1.6490  1.2193 -1.9362
18824TIP3   OH277962   2.186   2.981   4.134 -0.0105 -0.5344  0.5130
18824TIP3    H177963   2.262   2.937   4.175 -0.1207 -1.3467 -0.1226
18824TIP3    H277964   2.225   3.051   4.082  0.2471 -0.4563  0.8030
18825TIP3   OH277965   5.924   2.057   3.626  0.1619 -0.3158  0.1100
18825TIP3    H177966   5.923   2.152   3.615 -0.6907 -0.4313 -0.9946
18825TIP3    H277967   5.877   2.042   3.708  0.4096  0.2262  0.3541
18826TIP3   OH277968   5.105   1.961   2.331 -0.8579 -0.6944 -0.3930
18826TIP3    H177969   5.188   1.969   2.284 -0.5084 -0.5059  0.2545
18826TIP3    H277970   5.090   1.867   2.337 -0.1144 -0.7685  0.4812
18827TIP3   OH277971   6.153   6.435   2.254  0.2009 -0.1617 -0.1741
18827TIP3    H177972   6.131   6.377   2.327 -1.6235  1.1854  0.4055
18827TIP3    H277973   6.144   6.380   2.176  0.3280 -1.1211  0.4708
18828TIP3   OH277974   2.746   3.743   5.399 -0.0572 -0.1736 -0.4796
18828TIP3    H177975   2.827   3.777   5.437 -0.2957 -1.2363  1.1195
18828TIP3    H277976   2.680   3.809   5.421 -0.0088 -0.3292  0.1794
18829TIP3   OH277977   4.208   2.225  14.878  0.3373  0.1052 -0.3380
18829TIP3    H177978   4.190   2.149  14.933 -0.5689  0.2297 -0.4504
18829TIP3    H277979   4.242   2.188  14.797  0.3739 -0.1506 -0.2070
18830TIP3   OH277980   6.465   0.161   5.755  0.3707 -0.1935  0.4037
18830TIP3    H177981   6.481   0.209   5.674 -0.6414  2.2721  1.5744
18830TIP3    H277982   6.546   0.171   5.805  0.1316  0.3616  0.6800
18831TIP3   OH277983   4.932   2.647   4.368  0.5649 -0.3448 -0.6331
18831TIP3    H177984   4.979   2.604   4.439  0.4774  0.1245 -0.2839
18831TIP3    H277985   4.860   2.588   4.348 -0.2531  0.1835  0.6491
18832TIP3   OH277986   0.521   5.570   3.618  0.1467 -0.0498  0.0461
18832TIP3    H177987   0.494   5.559   3.709 -1.7503  1.9701 -0.1885
18832TIP3    H277988   0.475   5.501   3.571  1.5638 -1.4499  0.6255
18833TIP3   OH277989   4.746   3.906   0.199  0.1748 -0.4544 -0.1583
18833TIP3    H177990   4.747   3.940   0.109 -1.8150 -1.0697 -0.4435
18833TIP3    H277991   4.809   3.962   0.246  0.6406  0.4049 -1.7231
18834TIP3   OH277992   5.113   5.372   3.013 -0.4457 -0.2884  0.3498
18834TIP3    H177993   5.097   5.424   3.092  1.0573  0.5657  0.1402
18834TIP3    H277994   5.139   5.436   2.947  3.7076 -1.3230  0.6829
18835TIP3   OH277995   1.302   0.769   3.835  0.2995 -0.4544  0.4657
18835TIP3    H177996   1.280   0.859   3.810  0.7302 -0.4799 -0.0341
18835TIP3    H277997   1.310   0.723   3.751 -0.3523 -1.0607  0.7358
18836TIP3   OH277998   6.215   1.849   4.157 -0.3201 -0.2644 -0.0048
18836TIP3    H177999   6.297   1.893   4.179 -1.8832  2.2894  1.3320
18836TIP3    H278000   6.149   1.894   4.211 -3.0877  0.0750 -3.2823
18837TIP3   OH278001   4.940   4.887   3.505 -0.3119  0.3116  0.2393
18837TIP3    H178002   4.937   4.899   3.410 -1.4142  1.9540  0.4509
18837TIP3    H278003   4.943   4.792   3.516 -2.5638 -0.0564 -1.4329
18838TIP3   OH278004   0.987   2.500   3.487 -0.0419 -0.1823 -0.1809
18838TIP3    H178005   1.036   2.580   3.471  1.2493 -0.3980  2.2126
18838TIP3    H278006   0.939   2.518   3.568  0.4554 -1.8935  0.5280
18839TIP3   OH278007   2.721   3.055   3.235  0.1318  0.6937  0.2997
18839TIP3    H178008   2.678   3.030   3.317  0.2822  1.2905  0.5642
18839TIP3    H278009   2.807   3.012   3.240 -0.4333 -0.5319 -0.2487
18840TIP3   OH278010   4.748   6.861   5.044  0.5722  0.1441 -0.1351
18840TIP3    H178011   4.657   6.834   5.051  0.9877 -1.3773 -0.3384
18840TIP3    H278012   4.778   6.870   5.134 -0.1749  2.2194 -0.0287
18841TIP3   OH278013   0.341   4.596   4.974 -0.0882 -0.2705 -0.2382
18841TIP3    H178014   0.262   4.580   4.923 -0.0118 -0.5684 -0.2642
18841TIP3    H278015   0.324   4.553   5.058 -0.3182  0.4328  0.0884
18842TIP3   OH278016   6.727   4.363   3.538  0.0481 -0.1888  0.1583
18842TIP3    H178017   6.800   4.304   3.522 -0.2563 -0.6761  0.5264
18842TIP3    H278018   6.664   4.310   3.588 -0.4018  0.3250  0.1450
18843TIP3   OH278019   0.369   6.207   3.176 -0.3977 -0.4355 -0.4155
18843TIP3    H178020   0.433   6.174   3.240 -0.1663 -2.3548 -1.5703
18843TIP3    H278021   0.343   6.292   3.211  1.1728 -0.5531  1.2159
18844TIP3   OH278022   2.423   6.810   4.779 -0.6447  0.1082  0.0614
18844TIP3    H178023   2.380   6.737   4.824 -1.8964  0.2642 -0.8327
18844TIP3    H278024   2.366   6.885   4.796 -1.4765  0.0591 -2.1863
18845TIP3   OH278025   2.431   4.304   4.848 -0.6636  0.0051  0.5116
18845TIP3    H178026   2.435   4.396   4.822 -0.0649 -0.0319  0.4478
18845TIP3    H278027   2.497   4.297   4.917 -2.2085  0.1075  2.0828
18846TIP3   OH278028   2.432   2.843   0.435  0.5919 -0.0716 -0.9328
18846TIP3    H178029   2.451   2.804   0.350  1.9542 -2.4873  0.3813
18846TIP3    H278030   2.428   2.769   0.496 -1.6203  1.4363  0.9349
18847TIP3   OH278031   3.331   3.025   3.302  0.2759 -0.1201  0.0459
18847TIP3    H178032   3.413   3.023   3.253  0.7925  0.4310  0.8581
18847TIP3    H278033   3.300   3.115   3.293  0.1389 -0.1361  0.3333
18848TIP3   OH278034   3.201   0.424   2.431  0.3776  0.1348  0.3857
18848TIP3    H178035   3.283   0.397   2.388  0.3153 -0.4652  0.6353
18848TIP3    H278036   3.153   0.471   2.363  1.2588  1.1734  0.4521
18849TIP3   OH278037   5.147   5.559   4.974  0.3835  0.3428  0.2273
18849TIP3    H178038   5.184   5.570   4.887 -0.6403 -0.2097 -0.2905
18849TIP3    H278039   5.198   5.487   5.013  1.7179  1.4429  0.6119
18850TIP3   OH278040   3.343   5.060   6.243 -0.4017 -0.0669  0.2746
18850TIP3    H178041   3.331   5.140   6.294  1.0115  0.4891 -0.2310
18850TIP3    H278042   3.262   5.051   6.193 -0.0907  1.7434 -0.6062
18851TIP3   OH278043   0.402   1.559  10.763  0.0132  0.0913  0.5226
18851TIP3    H178044   0.435   1.550  10.853  0.8012 -2.8590  0.0261
18851TIP3    H278045   0.308   1.545  10.770  0.0618 -0.0568  0.8813
18852TIP3   OH278046   3.161   1.402   2.703 -0.3288  0.1616  0.1386
18852TIP3    H178047   3.232   1.465   2.692 -1.2222  1.2563  0.5615
18852TIP3    H278048   3.180   1.334   2.638 -0.4633  1.8681 -1.7965
18853TIP3   OH278049   2.353   1.948   5.924  0.1722  0.0469 -0.6819
18853TIP3    H178050   2.445   1.927   5.904 -0.0585 -0.8862 -0.7791
18853TIP3    H278051   2.309   1.863   5.927 -0.7358  0.5038 -0.8490
18854TIP3   OH278052   2.925   6.635  14.408  0.4573  0.0625  0.5310
18854TIP3    H178053   2.958   6.547  14.429 -0.2250 -0.4425 -0.4034
18854TIP3    H278054   2.992   6.672  14.350  0.1978 -0.3154 -0.0264
18855TIP3   OH278055   0.503   4.228   3.920  0.4535  0.4695  0.1994
18855TIP3    H178056   0.413   4.246   3.946  0.3393  0.1523  0.0186
18855TIP3    H278057   0.502   4.230   3.825  1.0745  2.6586  0.1781
18856TIP3   OH278058   0.652   2.660   3.906  0.1249 -0.0050 -0.9110
18856TIP3    H178059   0.576   2.694   3.858  0.1940  2.1993  0.4131
18856TIP3    H278060   0.619   2.639   3.993  1.0942  1.6787 -0.0741
18857TIP3   OH278061   4.853   5.223  14.056  0.0381  0.3396 -0.6583
18857TIP3    H178062   4.925   5.259  14.108  0.1446  0.9085 -1.1926
18857TIP3    H278063   4.877   5.132  14.041  0.4214  0.4044 -0.4401
18858TIP3   OH278064   1.380   2.166   5.695  0.6120 -0.2487 -0.0431
18858TIP3    H178065   1.366   2.256   5.667  0.9405  0.7359  2.6706
18858TIP3    H278066   1.417   2.173   5.783  1.2068 -3.0398  0.0345
18859TIP3   OH278067   5.580   5.941   2.823 -0.1758  0.0215  0.3091
18859TIP3    H178068   5.529   5.997   2.765  0.5759 -0.3656 -0.7422
18859TIP3    H278069   5.544   5.853   2.809 -0.0563 -0.0592  0.5047
18860TIP3   OH278070   2.621   4.529   2.114 -0.1872  0.3202 -0.0176
18860TIP3    H178071   2.700   4.535   2.060 -0.2196 -1.1555 -0.2894
18860TIP3    H278072   2.638   4.454   2.172 -2.4386 -1.9103 -1.9835
18861TIP3   OH278073   5.322   4.980   0.800 -0.0896  0.0568  0.5831
18861TIP3    H178074   5.334   5.025   0.884  0.7409 -0.5658  0.8133
18861TIP3    H278075   5.318   4.887   0.823 -0.2747 -0.0913 -0.0328
18862TIP3   OH278076   4.601   1.002   4.743  0.6400 -0.0040 -0.3536
18862TIP3    H178077   4.555   0.921   4.766  1.5758 -0.0847  1.3559
18862TIP3    H278078   4.612   0.996   4.647  0.7423 -1.9493 -0.2738
18863TIP3   OH278079   1.455   4.879   2.587  0.0043 -0.2741 -0.4246
18863TIP3    H178080   1.451   4.783   2.586  0.8481 -0.3237 -0.4439
18863TIP3    H278081   1.436   4.904   2.497 -0.3640 -0.4171 -0.3874
18864TIP3   OH278082   4.395   2.135   5.334 -0.0102 -0.1761  0.1943
18864TIP3    H178083   4.366   2.115   5.245 -0.8628  1.4510  0.0646
18864TIP3    H278084   4.315   2.164   5.379  0.6242  0.1408  1.1479
18865TIP3   OH278085   0.679   1.126   3.806 -0.2712 -0.3451 -0.1673
18865TIP3    H178086   0.723   1.177   3.874 -2.2260 -0.4518  1.2665
18865TIP3    H278087   0.615   1.187   3.769 -0.0687 -0.6651 -1.0801
18866TIP3   OH278088   6.632   5.711   3.114  0.3975  0.1689 -0.0425
18866TIP3    H178089   6.610   5.676   3.028  3.1781 -1.7752 -0.0882
18866TIP3    H278090   6.712   5.761   3.101 -0.3383  1.7453  1.0985
18867TIP3   OH278091   0.949   0.247  12.887  0.5903  0.0217 -0.2776
18867TIP3    H178092   0.979   0.261  12.797  1.2571  2.9093  0.3006
18867TIP3    H278093   1.029   0.245  12.939  0.2492 -2.1255  0.2772
18868TIP3   OH278094   6.387   1.497   2.170  0.3714  0.2751  0.9871
18868TIP3    H178095   6.407   1.574   2.224  0.8373  0.6285  0.3280
18868TIP3    H278096   6.410   1.524   2.081  0.5055 -0.6213  0.7409
18869TIP3   OH278097   1.658   5.447   2.471 -0.5488  0.3218 -0.4649
18869TIP3    H178098   1.678   5.430   2.379 -0.2262  0.8626 -0.5025
18869TIP3    H278099   1.700   5.531   2.489 -2.6170  1.4295 -0.4841
18870TIP3   OH278100   1.100   5.358  14.240  0.6406 -0.2525  0.0803
18870TIP3    H178101   1.173   5.360  14.302  0.4079  0.5946  0.3418
18870TIP3    H278102   1.025   5.330  14.293  0.2537  1.3191  0.4118
18871TIP3   OH278103   1.316   4.435   5.265  0.2800  0.0743  0.9451
18871TIP3    H178104   1.290   4.376   5.337 -0.0831  1.1024  1.6792
18871TIP3    H278105   1.302   4.523   5.300  0.7532  0.6056 -0.1598
18872TIP3   OH278106   3.499   4.457  15.380 -0.0814 -0.6152 -0.4184
18872TIP3    H178107   3.504   4.479  15.287 -1.2900  0.0945 -0.3340
18872TIP3    H278108   3.409   4.427  15.393 -0.7330  1.7377  0.9967
18873TIP3   OH278109   3.058   6.849   4.000 -0.2360  0.3706  0.0690
18873TIP3    H178110   2.999   6.807   3.937  1.9363 -1.0980 -1.1395
18873TIP3    H278111   3.071   6.938   3.965 -2.7511  1.2476  1.1561
18874TIP3   OH278112   7.115   4.348   5.793 -0.4019  0.0466 -0.4169
18874TIP3    H178113   7.073   4.424   5.834  1.1127  1.2780 -1.0385
18874TIP3    H278114   7.125   4.285   5.864 -0.1365  1.1132  0.5249
18875TIP3   OH278115   5.938   5.539   2.247  0.5979  0.0624  0.0126
18875TIP3    H178116   5.915   5.559   2.156  2.3478 -0.8462 -0.6810
18875TIP3    H278117   5.865   5.487   2.279  0.4211 -0.5069 -1.2388
18876TIP3   OH278118   1.424   1.953   1.001  0.3204  0.0984  0.3283
18876TIP3    H178119   1.480   1.880   0.972 -0.1742 -0.2282  0.1825
18876TIP3    H278120   1.484   2.027   1.010  0.4124  0.4282 -2.2406
18877TIP3   OH278121   6.742   1.624   3.542 -0.1321 -0.4817 -0.1098
18877TIP3    H178122   6.815   1.661   3.591  0.1872 -0.8138 -0.3274
18877TIP3    H278123   6.784   1.572   3.473 -0.5722 -1.1144  0.0960
18878TIP3   OH278124   4.695   6.529   3.536  0.2600  0.0387 -0.1820
18878TIP3    H178125   4.710   6.500   3.626  3.6771 -2.9507 -1.4483
18878TIP3    H278126   4.684   6.448   3.486 -1.5988  1.6053 -2.5000
18879TIP3   OH278127   1.398   1.874   4.775 -0.0205 -0.0345  0.3516
18879TIP3    H178128   1.481   1.848   4.734  0.4551  1.1876  0.4984
18879TIP3    H278129   1.362   1.940   4.715 -1.0934 -0.8220  0.0961
18880TIP3   OH278130   0.735   1.263   2.814  0.4610  0.2374  0.3174
18880TIP3    H178131   0.745   1.296   2.725  1.0133 -0.2318  0.2011
18880TIP3    H278132   0.824   1.259   2.849  0.1865  1.1674  1.1769
18881TIP3   OH278133   0.668   1.241   0.259 -0.6765 -0.1739 -0.4602
18881TIP3    H178134   0.609   1.280   0.195 -0.7849 -1.2493 -1.0184
18881TIP3    H278135   0.715   1.172   0.212 -1.7374 -1.9197  0.9144
18882TIP3   OH278136   5.028   0.129   0.748  0.2984  0.3837  0.4101
18882TIP3    H178137   5.078   0.047   0.757  1.9479  1.0811 -1.5909
18882TIP3    H278138   5.080   0.193   0.795  2.0331  1.3359 -2.5360
18883TIP3   OH278139   3.668   6.211   3.997 -0.3502  0.1880 -0.4766
18883TIP3    H178140   3.752   6.231   3.957 -0.6090  0.4042 -0.9216
18883TIP3    H278141   3.644   6.290   4.045 -0.3961  0.2021 -0.5223
18884TIP3   OH278142   5.883   4.712   5.626 -0.5396  0.7592 -0.5132
18884TIP3    H178143   5.951   4.694   5.691 -1.2362 -0.9310 -0.1927
18884TIP3    H278144   5.851   4.799   5.648  0.2010  0.7834  0.5354
18885TIP3   OH278145   0.511   5.945   4.615 -0.6866 -0.1885 -0.3890
18885TIP3    H178146   0.603   5.931   4.595 -1.0697  0.6400 -3.0247
18885TIP3    H278147   0.477   5.858   4.635  0.7049 -0.4497  1.0312
18886TIP3   OH278148   0.929   3.644   5.797  0.8095 -0.9351  0.9200
18886TIP3    H178149   0.961   3.657   5.886 -0.6494 -1.4564  1.5572
18886TIP3    H278150   0.843   3.604   5.809  0.0356  0.1558 -0.6931
18887TIP3   OH278151   3.935   4.092   1.638 -0.4776  0.6998 -0.2527
18887TIP3    H178152   4.007   4.155   1.637 -1.9281  2.4972  1.0732
18887TIP3    H278153   3.971   4.014   1.596  1.9651  1.7883 -0.3727
18888TIP3   OH278154   0.001   0.363   3.901  0.0021  0.3860 -0.1083
18888TIP3    H178155  -0.059   0.369   3.975  1.6207  2.0491  1.1359
18888TIP3    H278156   0.025   0.271   3.897 -0.0713  0.2811  1.4723
18889TIP3   OH278157   1.159   0.545   2.863  0.2110 -0.2288  0.5290
18889TIP3    H178158   1.147   0.501   2.779  0.1614  1.0705 -0.1581
18889TIP3    H278159   1.074   0.539   2.906  0.2167 -0.8264  0.4771
18890TIP3   OH278160   1.631   6.342   5.296 -0.7056  0.2305  0.8948
18890TIP3    H178161   1.569   6.279   5.259 -1.9294  0.7265  1.9970
18890TIP3    H278162   1.625   6.327   5.391  1.1796  0.0330  1.0093
18891TIP3   OH278163   0.729   2.136  14.982 -0.3880  0.1113 -0.2027
18891TIP3    H178164   0.709   2.073  14.912 -2.2458  0.0506  0.3258
18891TIP3    H278165   0.807   2.101  15.024 -1.3325 -1.8505  0.0386
18892TIP3   OH278166   6.371   1.695   1.962 -0.3874  0.4352  0.1090
18892TIP3    H178167   6.456   1.734   1.944 -0.0578  0.2866  1.2500
18892TIP3    H278168   6.330   1.756   2.024 -0.0817 -0.7227  1.4969
18893TIP3   OH278169   0.310   6.014   1.769  0.2638  0.5749 -0.2294
18893TIP3    H178170   0.293   6.085   1.830  0.1834 -1.1477  1.8823
18893TIP3    H278171   0.225   5.995   1.729 -0.8051 -1.1762  2.5550
18894TIP3   OH278172   1.677   4.486  15.174  0.4435 -0.6497 -0.0263
18894TIP3    H178173   1.676   4.394  15.150  0.7707 -0.6800  0.0728
18894TIP3    H278174   1.713   4.531  15.097  0.2096 -0.5952 -0.1051
18895TIP3   OH278175   3.666   0.520   5.700  0.1847 -0.0001 -0.0733
18895TIP3    H178176   3.608   0.444   5.703  1.6676 -1.1304  1.4750
18895TIP3    H278177   3.615   0.587   5.654 -2.5981 -0.7641  1.6329
18896TIP3   OH278178   7.171   4.786   3.281 -0.0468 -0.2947 -0.3146
18896TIP3    H178179   7.078   4.777   3.259 -0.6175 -0.0456  1.7281
18896TIP3    H278180   7.172   4.798   3.376  1.8382  3.1460 -0.6116
18897TIP3   OH278181   2.105   5.856   4.812  0.0729 -0.2523 -0.2338
18897TIP3    H178182   2.024   5.841   4.861 -2.0245  1.4326 -2.8311
18897TIP3    H278183   2.139   5.939   4.846 -0.1727 -0.1926 -0.1299
18898TIP3   OH278184   0.102   2.094   3.137 -0.2490  0.2704  0.0313
18898TIP3    H178185   0.049   2.173   3.128 -0.4830  0.1504  0.3380
18898TIP3    H278186   0.039   2.022   3.130  0.1464  0.0450 -1.8377
18899TIP3   OH278187   0.114   3.757   1.841 -0.7249  0.1547  0.3179
18899TIP3    H178188   0.057   3.818   1.888 -1.8178 -1.2331  0.8902
18899TIP3    H278189   0.057   3.719   1.774  0.0404  0.0323 -0.2736
18900TIP3   OH278190   3.810   4.366   3.725 -0.8325  0.1954 -0.0636
18900TIP3    H178191   3.859   4.448   3.732  0.7713 -0.4555 -2.4456
18900TIP3    H278192   3.747   4.382   3.654 -0.3712 -0.6580 -0.6842
18901TIP3   OH278193   5.246   7.089   4.919  0.4491  0.3051 -0.1166
18901TIP3    H178194   5.182   7.154   4.889  1.2342 -0.1143 -2.9505
18901TIP3    H278195   5.324   7.141   4.942  0.1181  0.5607  0.4629
18902TIP3   OH278196   2.698   5.626  15.040  0.6653 -0.1191  0.2441
18902TIP3    H178197   2.781   5.580  15.032  0.3911 -0.8902  1.5799
18902TIP3    H278198   2.717   5.700  15.097  0.6421  0.2647 -0.2385
18903TIP3   OH278199   0.339   5.131   5.232 -0.3915 -0.4815 -0.3803
18903TIP3    H178200   0.427   5.115   5.200  0.4214  2.1903  0.2591
18903TIP3    H278201   0.348   5.133   5.328 -1.3774 -1.3048 -0.2522
18904TIP3   OH278202   1.429   4.102   1.702 -0.1823 -0.4058  0.2417
18904TIP3    H178203   1.396   4.160   1.772  1.3088 -2.3676  2.7514
18904TIP3    H278204   1.486   4.041   1.748  0.4518 -2.1704 -2.7078
18905TIP3   OH278205   3.895   1.780   5.457  0.6125  0.0005 -0.3268
18905TIP3    H178206   3.892   1.817   5.545 -0.0960  0.2102 -0.4327
18905TIP3    H278207   3.981   1.805   5.423  1.5776 -1.4758  0.8987
18906TIP3   OH278208   5.576   1.790   1.921  0.1271  0.0349 -0.1225
18906TIP3    H178209   5.526   1.734   1.862  0.5827 -1.1106  0.5446
18906TIP3    H278210   5.584   1.739   2.002  0.5846  1.0559  0.4993
18907TIP3   OH278211   4.065   5.269   2.746  0.3091  0.0483  0.2528
18907TIP3    H178212   4.127   5.242   2.679  1.6122 -1.6551  2.0487
18907TIP3    H278213   3.982   5.279   2.699  0.5261 -3.6773 -1.2653
18908TIP3   OH278214   6.578   0.561   4.266  0.3301 -0.7895  0.1958
18908TIP3    H178215   6.667   0.525   4.265  1.6734  2.1553  1.0726
18908TIP3    H278216   6.591   0.655   4.257 -2.5290  0.0334  2.8666
18909TIP3   OH278217   4.679   2.794   2.486  0.8353 -0.1269  0.2743
18909TIP3    H178218   4.747   2.751   2.435  1.1350  1.4619 -0.7373
18909TIP3    H278219   4.619   2.830   2.420  0.7572  1.2187  1.0416
18910TIP3   OH278220   3.456   1.585   4.737 -0.2679  0.1725  0.4159
18910TIP3    H178221   3.496   1.658   4.786 -0.9661  1.2606 -0.5758
18910TIP3    H278222   3.387   1.553   4.795 -0.6095  0.9647  0.4700
18911TIP3   OH278223   1.811   6.473   3.849  0.7438  0.2176 -0.4941
18911TIP3    H178224   1.723   6.492   3.814  0.3485  0.0508  0.3682
18911TIP3    H278225   1.794   6.429   3.932  1.6352  1.2554  0.2721
18912TIP3   OH278226   4.837   0.621   4.793  0.3527  0.4022  0.2392
18912TIP3    H178227   4.844   0.600   4.886 -0.8619 -1.4391 -0.0316
18912TIP3    H278228   4.887   0.552   4.749 -0.4647  0.2928 -0.5393
18913TIP3   OH278229   3.365   1.426   1.565  0.2847  0.1620 -0.6100
18913TIP3    H178230   3.434   1.492   1.573  0.8518 -0.2883 -1.5377
18913TIP3    H278231   3.288   1.467   1.604  0.3877  1.7012 -1.9304
18914TIP3   OH278232   5.409   2.356   3.887  0.3863  0.1894  0.3872
18914TIP3    H178233   5.385   2.426   3.947  0.3451 -1.0319  1.8468
18914TIP3    H278234   5.327   2.311   3.867  0.2619  1.0817 -1.2930
18915TIP3   OH278235   1.909   3.617   1.232 -0.2334  0.3788  0.1978
18915TIP3    H178236   1.907   3.521   1.225 -3.3931  0.3455  0.1980
18915TIP3    H278237   1.963   3.646   1.159 -2.1105 -1.3202 -1.9870
18916TIP3   OH278238   0.028   3.010   0.378  0.2733 -0.0971 -0.0195
18916TIP3    H178239   0.115   3.024   0.416 -1.0355  0.1397  3.1404
18916TIP3    H278240  -0.000   2.926   0.412 -0.2527 -0.8214 -2.1237
18917TIP3   OH278241   6.631   2.994   4.885  0.2805 -0.4769 -0.0170
18917TIP3    H178242   6.550   2.980   4.835 -0.4692 -4.1309  1.8648
18917TIP3    H278243   6.683   2.916   4.867  1.6400 -0.0829  1.9309
18918TIP3   OH278244   0.746   5.285   3.368 -0.4163  0.5187 -0.5054
18918TIP3    H178245   0.729   5.377   3.383  1.9888  1.1917 -1.4106
18918TIP3    H278246   0.840   5.280   3.348 -0.4283 -2.1319 -0.3748
18919TIP3   OH278247   0.472   3.110   1.226 -0.1660  0.2257  0.2674
18919TIP3    H178248   0.407   3.105   1.156 -0.4654 -1.8299  0.6434
18919TIP3    H278249   0.550   3.070   1.188 -0.4004 -1.1270  1.1490
18920TIP3   OH278250   5.349   2.119   1.638  0.0927  0.2837  0.3090
18920TIP3    H178251   5.430   2.169   1.651  0.3953  0.2258 -1.1987
18920TIP3    H278252   5.369   2.061   1.564 -0.5825 -1.3557  1.3569
18921TIP3   OH278253   1.286   3.692   2.271 -0.1235  0.6104  0.0619
18921TIP3    H178254   1.340   3.617   2.247 -1.0748  0.5047 -1.9040
18921TIP3    H278255   1.340   3.768   2.249  0.1690  0.5157  0.4379
18922TIP3   OH278256   2.813   3.494   2.865  0.2758  0.1136 -0.0786
18922TIP3    H178257   2.738   3.439   2.888  0.3796  0.5851  1.5245
18922TIP3    H278258   2.865   3.440   2.806 -0.3582 -0.9509  0.2982
18923TIP3   OH278259   3.571   5.832   5.198 -0.1512 -0.1294  0.1203
18923TIP3    H178260   3.514   5.849   5.122  1.6645 -1.2765 -1.6180
18923TIP3    H278261   3.515   5.849   5.274 -2.6530 -0.6722 -1.4521
18924TIP3   OH278262   4.059   3.216   3.036 -0.1454 -0.0090 -0.5337
18924TIP3    H178263   3.965   3.196   3.033  0.5061 -3.6530 -2.3133
18924TIP3    H278264   4.065   3.307   3.005 -3.0815  0.8658  1.0264
18925TIP3   OH278265   6.221   2.031   5.632 -0.0753 -0.4529 -0.0873
18925TIP3    H178266   6.301   1.986   5.659 -0.2754 -0.0792  1.1600
18925TIP3    H278267   6.151   1.966   5.644 -0.4564  0.3151  2.3196
18926TIP3   OH278268   2.517   4.773   3.019 -0.1457 -0.5637  0.2808
18926TIP3    H178269   2.432   4.771   3.062  0.2398  0.9783  1.2118
18926TIP3    H278270   2.552   4.860   3.039  1.2154 -0.7851 -0.9366
18927TIP3   OH278271   2.864   3.856   4.166 -0.3424  0.6012 -0.3000
18927TIP3    H178272   2.950   3.867   4.126 -0.1970  0.1310 -0.1226
18927TIP3    H278273   2.804   3.904   4.109 -0.0404  0.4911 -0.7154
18928TIP3   OH278274   3.006   3.918   0.797 -0.2687  0.1055  0.2547
18928TIP3    H178275   2.990   4.009   0.774 -0.7690 -0.0224  0.0973
18928TIP3    H278276   3.067   3.922   0.871  0.9691  0.5392 -0.7421
18929TIP3   OH278277   3.977   5.057   5.226  0.2017  0.5563 -0.5100
18929TIP3    H178278   3.932   5.088   5.305 -0.4108  1.1016 -1.0597
18929TIP3    H278279   4.009   4.970   5.250 -0.9640  0.2310 -0.0141
18930TIP3   OH278280   0.522   6.067  14.228  0.2683  0.0223  0.1968
18930TIP3    H178281   0.479   6.006  14.288  0.2686  1.1602  1.4055
18930TIP3    H278282   0.494   6.154  14.258  1.0772  0.6627 -0.8280
18931TIP3   OH278283   5.258   3.738   3.030  0.0319  0.3196 -0.0430
18931TIP3    H178284   5.209   3.814   3.061 -1.6998  0.0438 -1.8650
18931TIP3    H278285   5.313   3.772   2.959 -0.6755 -0.0554 -0.7969
18932TIP3   OH278286   1.147   3.996   2.103  0.5532 -0.3228  0.5639
18932TIP3    H178287   1.070   3.944   2.127  0.8037 -1.2668 -0.5569
18932TIP3    H278288   1.163   3.974   2.011  1.3836  0.8644  0.4018
18933TIP3   OH278289   6.684   3.344   3.700  0.0798 -0.0708  0.1777
18933TIP3    H178290   6.699   3.292   3.621  0.0686  0.2205 -0.0187
18933TIP3    H278291   6.589   3.340   3.714  0.1909 -0.9658  0.7654
18934TIP3   OH278292   5.560   6.033   4.087  0.1365  0.0933  0.0828
18934TIP3    H178293   5.599   5.986   4.161  0.8994  1.7086  0.7558
18934TIP3    H278294   5.467   6.037   4.109  0.1138 -0.7811  0.1858
18935TIP3   OH278295   5.544   3.010   1.656 -0.7635  0.0060 -0.0845
18935TIP3    H178296   5.590   3.004   1.572 -1.1279  1.8269 -0.4639
18935TIP3    H278297   5.602   3.060   1.712 -1.3687  0.5294  0.0901
18936TIP3   OH278298   2.666   1.943   4.293 -0.0434 -0.5099 -0.0286
18936TIP3    H178299   2.757   1.971   4.308 -0.2230  1.0944 -1.5778
18936TIP3    H278300   2.674   1.852   4.264  1.0296 -0.5168  0.2259
18937TIP3   OH278301   5.470   6.021   3.092 -0.3778  0.6303  0.1778
18937TIP3    H178302   5.419   5.955   3.138 -1.1800  0.2034 -1.2707
18937TIP3    H278303   5.488   5.983   3.006  1.4205  1.2342  0.2292
18938TIP3   OH278304   6.803   1.364   5.070 -0.0980 -0.1288 -0.6078
18938TIP3    H178305   6.722   1.416   5.074 -0.7987 -1.1700  3.0723
18938TIP3    H278306   6.873   1.428   5.074 -0.9269  0.7603  2.5489
18939TIP3   OH278307   5.814   0.348   5.021  0.2260  0.3640 -0.0094
18939TIP3    H178308   5.771   0.367   4.938  0.9013 -0.8367 -0.6674
18939TIP3    H278309   5.896   0.304   4.996 -0.5635 -2.0228  1.3213
18940TIP3   OH278310   3.378   3.334   3.528  0.3724  0.0139 -0.2294
18940TIP3    H178311   3.370   3.429   3.541 -1.3956 -0.2772  1.3490
18940TIP3    H278312   3.338   3.318   3.443 -0.7920  0.5490  0.1885
18941TIP3   OH278313   1.135   3.783   3.854 -0.7375 -0.5445  0.5526
18941TIP3    H178314   1.069   3.740   3.908  0.9479 -1.8215  1.6912
18941TIP3    H278315   1.103   3.873   3.845 -3.5808 -1.5559 -0.6035
18942TIP3   OH278316   7.124   6.467   4.256 -0.3603 -0.1756  0.5571
18942TIP3    H178317   7.128   6.500   4.346  1.4555  0.1000  0.4126
18942TIP3    H278318   7.123   6.546   4.202  0.8741 -0.3208  0.2938
18943TIP3   OH278319   1.025   5.586   1.160  0.5744 -0.6042  0.2266
18943TIP3    H178320   0.959   5.559   1.224  0.9387 -2.2094 -0.0098
18943TIP3    H278321   1.100   5.530   1.179  0.8147 -0.8762 -1.3677
18944TIP3   OH278322   1.063   5.985  12.009 -0.1034 -0.5693  0.1384
18944TIP3    H178323   1.140   5.929  12.022  0.4820 -0.1524 -1.2959
18944TIP3    H278324   1.030   5.961  11.922 -0.9419  0.0337  0.2774
18945TIP3   OH278325   2.752   1.303  15.362  0.0453  0.4008  0.6039
18945TIP3    H178326   2.738   1.341  15.449  0.4984  1.0497  0.4013
18945TIP3    H278327   2.772   1.378  15.306 -1.2785  0.1228 -0.2891
18946TIP3   OH278328   1.336   2.801   4.547 -0.3493 -0.4269  0.0773
18946TIP3    H178329   1.328   2.706   4.546  2.6683 -0.8342  2.3569
18946TIP3    H278330   1.301   2.828   4.632  1.4301  0.1167  0.6788
18947TIP3   OH278331   5.506   6.366   1.913  0.0495 -0.3057  0.2181
18947TIP3    H178332   5.447   6.385   1.986  0.8429  0.2517  0.7449
18947TIP3    H278333   5.498   6.441   1.855  1.3799  0.5582  1.0840
18948TIP3   OH278334   1.321   5.786   3.245  0.1394 -0.0381  0.2775
18948TIP3    H178335   1.345   5.755   3.332  0.4782  0.7113  0.4615
18948TIP3    H278336   1.398   5.768   3.191 -1.0142 -2.9785 -0.5484
18949TIP3   OH278337   4.983   5.629  15.058 -0.7658 -0.2767 -0.4375
18949TIP3    H178338   4.991   5.638  15.153  1.8019 -1.3717 -0.4674
18949TIP3    H278339   5.018   5.712  15.024 -1.0954 -0.1422 -0.4585
18950TIP3   OH278340   4.847   3.282   0.773  0.2423 -0.4623 -0.5575
18950TIP3    H178341   4.820   3.319   0.689 -0.6866 -1.6697 -0.8174
18950TIP3    H278342   4.831   3.352   0.837  0.6853  0.3615 -1.3294
18951TIP3   OH278343   4.580   3.191   2.729 -0.1517  0.4127  0.0595
18951TIP3    H178344   4.539   3.185   2.643  0.7151  0.5887 -0.3756
18951TIP3    H278345   4.673   3.200   2.711 -0.0845  1.9400  0.9720
18952TIP3   OH278346   2.170   3.926  15.269  0.0348 -0.5781  0.7699
18952TIP3    H178347   2.107   3.945  15.338 -2.0015  0.9075 -1.3302
18952TIP3    H278348   2.228   4.002  15.268 -0.1469 -0.4394  0.6435
18953TIP3   OH278349   1.106   4.434   4.437 -0.7922  0.0451 -0.5806
18953TIP3    H178350   1.064   4.362   4.390 -1.0634  1.2307 -2.2798
18953TIP3    H278351   1.059   4.512   4.407  1.6006  1.2763 -1.4188
18954TIP3   OH278352   3.644   6.581   5.438  0.1926 -0.3745 -0.2103
18954TIP3    H178353   3.556   6.619   5.442  0.3094  0.1155 -1.7035
18954TIP3    H278354   3.688   6.614   5.516 -1.0457 -0.9301  0.7680
18955TIP3   OH278355   0.421   5.082   0.914  0.6854  0.7012  0.1816
18955TIP3    H178356   0.453   5.146   0.977  1.4788  1.4042 -0.8997
18955TIP3    H278357   0.500   5.041   0.879  0.2174 -0.3133  0.2663
18956TIP3   OH278358   1.051   0.250   4.618 -0.4288  1.0580 -0.1525
18956TIP3    H178359   1.146   0.240   4.623 -0.4794  0.4598 -0.3525
18956TIP3    H278360   1.018   0.163   4.595 -1.2121  0.6794  2.1992
18957TIP3   OH278361   0.643   5.963   1.150  0.0920  0.3383  0.0824
18957TIP3    H178362   0.688   5.925   1.074  1.8086  1.6448  0.3895
18957TIP3    H278363   0.584   6.028   1.113  0.3631  0.4395 -0.1763
18958TIP3   OH278364   4.925   3.912  12.296  0.2291 -0.1633 -0.5359
18958TIP3    H178365   4.844   3.932  12.342  0.6128 -0.1887  0.1644
18958TIP3    H278366   4.901   3.910  12.203 -0.7676 -1.1593 -0.2636
18959TIP3   OH278367   2.425   6.155   0.133 -0.0187  0.2834  0.1118
18959TIP3    H178368   2.331   6.152   0.116 -0.0524  0.3921  0.2768
18959TIP3    H278369   2.465   6.126   0.051 -0.1877  0.4761 -0.0408
18960TIP3   OH278370   0.150   4.902   5.394 -0.4352 -0.5728 -0.3392
18960TIP3    H178371   0.210   4.868   5.459 -1.0522 -0.9350  0.0495
18960TIP3    H278372   0.099   4.968   5.440 -1.7852 -1.7591 -0.0709
18961TIP3   OH278373   1.812   0.812   2.087 -0.8534  0.0394 -0.6990
18961TIP3    H178374   1.852   0.805   2.173 -0.1844 -0.8519 -1.0716
18961TIP3    H278375   1.846   0.894   2.051 -0.7925  0.1912 -0.2995
18962TIP3   OH278376   6.978   6.926   4.821  0.3452 -0.0585 -0.3546
18962TIP3    H178377   6.942   6.948   4.735  1.0523  0.9778 -0.3910
18962TIP3    H278378   7.067   6.898   4.804  1.1155  1.9102  0.1951
18963TIP3   OH278379   0.449   1.096   1.759 -0.4701  0.1925  0.0180
18963TIP3    H178380   0.508   1.152   1.710  0.7594 -1.1606 -0.1238
18963TIP3    H278381   0.502   1.060   1.830 -0.0254 -3.5260 -1.9048
18964TIP3   OH278382   0.826   1.466   5.162 -0.1958  0.0576  0.5527
18964TIP3    H178383   0.795   1.533   5.101 -1.1925 -0.0669  0.8990
18964TIP3    H278384   0.829   1.512   5.247  0.0272 -0.0840  0.6202
18965TIP3   OH278385   3.966   4.585   0.927 -0.1321 -0.2291  0.0757
18965TIP3    H178386   4.029   4.538   0.982  0.5063  0.7945  0.2390
18965TIP3    H278387   3.955   4.529   0.850  0.4586 -0.7429  0.3579
18966TIP3   OH278388   6.862   4.436   3.979  0.0564  0.4925  0.1165
18966TIP3    H178389   6.947   4.418   4.017 -0.5908  0.8608  1.8184
18966TIP3    H278390   6.806   4.366   4.013 -0.5540  0.8643 -0.1108
18967TIP3   OH278391   1.297   1.895   3.517  0.7396  0.1717  0.1038
18967TIP3    H178392   1.382   1.940   3.526 -0.0315  1.5775  0.7683
18967TIP3    H278393   1.246   1.953   3.461  0.4561 -1.0655 -0.9556
18968TIP3   OH278394   3.453   1.045   4.608  0.4968  0.2438 -0.2927
18968TIP3    H178395   3.404   1.039   4.526  0.1831  0.7385 -0.1500
18968TIP3    H278396   3.483   0.956   4.625  2.9100  0.5419 -2.3383
18969TIP3   OH278397   0.220   1.687   2.216  0.1834  0.3847 -0.3113
18969TIP3    H178398   0.173   1.771   2.220  0.2540  0.3950  0.6086
18969TIP3    H278399   0.305   1.708   2.177  1.1943  1.2511  2.1604
18970TIP3   OH278400   7.126   1.149   2.645  0.2815 -0.0695  0.1738
18970TIP3    H178401   7.177   1.220   2.683  0.7199 -0.3461  0.1117
18970TIP3    H278402   7.135   1.161   2.550 -1.6447  1.2268  0.0942
18971TIP3   OH278403   3.011   5.581   0.033  0.4144  0.5177 -0.3363
18971TIP3    H178404   3.042   5.607  -0.054 -0.4557  1.4763 -0.3800
18971TIP3    H278405   3.089   5.587   0.089  0.6216  1.5989 -0.7076
18972TIP3   OH278406   6.625   3.529   4.803 -0.2599  0.0335  0.0559
18972TIP3    H178407   6.602   3.539   4.711 -1.1067  1.0602  0.3600
18972TIP3    H278408   6.541   3.520   4.848  0.1914 -3.6679  0.4472
18973TIP3   OH278409   1.561   4.518   4.891 -0.2944 -0.0510 -0.1457
18973TIP3    H178410   1.603   4.556   4.969  0.1161  0.6924 -0.7204
18973TIP3    H278411   1.481   4.477   4.925  0.4155 -0.6819  0.8348
18974TIP3   OH278412   6.107   4.009   1.815  0.1459 -0.4142 -0.2430
18974TIP3    H178413   6.194   3.990   1.848  0.6642  0.4940 -1.0460
18974TIP3    H278414   6.116   4.004   1.719 -1.0351 -1.8164 -0.3359
18975TIP3   OH278415   5.724   5.231   1.490 -0.0721  0.2407 -0.0109
18975TIP3    H178416   5.812   5.238   1.527 -0.6188  0.0341  1.3650
18975TIP3    H278417   5.696   5.142   1.511 -0.7934  0.4567 -0.0379
18976TIP3   OH278418   1.339   2.173   3.811 -0.3598  0.2173 -0.0631
18976TIP3    H178419   1.258   2.152   3.766 -0.2366  0.9754 -0.6487
18976TIP3    H278420   1.348   2.268   3.802  0.3013  0.2145  0.4821
18977TIP3   OH278421   0.849   0.228   2.869 -0.1120  0.5818 -0.3822
18977TIP3    H178422   0.935   0.227   2.912  1.5089  0.2028 -3.3621
18977TIP3    H278423   0.808   0.146   2.897 -0.1251  1.3658  2.1006
18978TIP3   OH278424   4.718   1.713   2.612 -0.1225 -0.4168 -0.1357
18978TIP3    H178425   4.707   1.648   2.542 -0.4235 -0.0742 -0.4062
18978TIP3    H278426   4.673   1.674   2.687  0.7885 -1.1015  0.0807
18979TIP3   OH278427   2.940   4.676   4.612 -0.0261 -0.3745  0.1157
18979TIP3    H178428   2.992   4.629   4.678  0.6384  0.5441  0.2748
18979TIP3    H278429   2.953   4.626   4.531 -0.5054 -1.2720  0.5927
18980TIP3   OH278430   1.902   3.168  13.378 -0.5201  0.0323 -0.1977
18980TIP3    H178431   1.915   3.078  13.347  0.1730 -0.0851  0.4048
18980TIP3    H278432   1.816   3.193  13.344 -0.1939 -0.4132 -1.4255
18981TIP3   OH278433   4.948   0.259  14.831 -0.0377 -0.0351 -0.2622
18981TIP3    H178434   4.915   0.267  14.920  0.9109  0.8440  0.0293
18981TIP3    H278435   4.980   0.169  14.824 -0.0645 -0.0888  0.3092
18982TIP3   OH278436   2.615   1.559   4.060  0.0446  0.5046  0.6633
18982TIP3    H178437   2.682   1.624   4.083 -0.3611  0.5237  1.8436
18982TIP3    H278438   2.621   1.493   4.128 -0.5832  0.0846  0.3179
18983TIP3   OH278439   0.785   0.709   2.706  0.1255 -0.2302 -0.3657
18983TIP3    H178440   0.836   0.635   2.739  1.5994  1.4708  1.4045
18983TIP3    H278441   0.731   0.735   2.780 -0.0017  0.7673 -0.8021
18984TIP3   OH278442   4.750   1.473  12.985  0.1134 -0.3739  0.2900
18984TIP3    H178443   4.734   1.518  12.903  0.4271  0.0487  0.4594
18984TIP3    H278444   4.663   1.444  13.014 -0.0558 -0.1099  0.0467
18985TIP3   OH278445   5.105   2.328   1.498  0.2156 -0.6648  0.3150
18985TIP3    H178446   5.076   2.248   1.455  1.4551 -0.8409 -0.2171
18985TIP3    H278447   5.052   2.332   1.578 -2.9844  0.2655 -1.6444
18986TIP3   OH278448   5.401   1.552   4.352  0.2534 -0.1601  0.2982
18986TIP3    H178449   5.339   1.623   4.339 -0.6530 -0.8812  0.5534
18986TIP3    H278450   5.485   1.587   4.323 -0.5597  0.3104 -1.6191
18987TIP3   OH278451   2.823   2.512   2.487 -0.3770 -0.1288 -0.3564
18987TIP3    H178452   2.804   2.434   2.539  0.4255 -0.0027  0.1473
18987TIP3    H278453   2.880   2.481   2.417  0.3624  0.0761  0.1380
18988TIP3   OH278454   0.509   1.420  10.457  0.5835 -0.4497  0.2682
18988TIP3    H178455   0.415   1.433  10.468  0.5815 -0.8998  0.8254
18988TIP3    H278456   0.539   1.500  10.415  0.3491  0.8059  2.3640
18989TIP3   OH278457   1.509   4.872  14.750  0.0467 -0.3440  0.6754
18989TIP3    H178458   1.505   4.957  14.792 -1.6127 -0.1163  0.1603
18989TIP3    H278459   1.595   4.837  14.773  0.1719  0.8208  2.1255
18990TIP3   OH278460   0.345   2.238   4.766 -0.2838  0.0809  0.1419
18990TIP3    H178461   0.411   2.271   4.706 -0.3030  0.5905  0.3950
18990TIP3    H278462   0.284   2.311   4.776  0.6617  0.6460  2.1572
18991TIP3   OH278463   5.126   5.987   5.822 -0.4391 -0.6122  0.3496
18991TIP3    H178464   5.153   6.020   5.908 -0.7888 -1.3191  0.7452
18991TIP3    H278465   5.195   5.926   5.796 -1.2230 -1.8338  1.0109
18992TIP3   OH278466   2.465   4.192   5.895  0.0119  0.4797  0.1030
18992TIP3    H178467   2.468   4.206   5.989 -0.5128  1.5216 -0.0251
18992TIP3    H278468   2.540   4.241   5.861  0.0702  0.2898 -0.0438
18993TIP3   OH278469   2.234   1.306   3.831  0.5807  0.0165  0.2687
18993TIP3    H178470   2.141   1.291   3.812  0.6097 -0.9104  0.7962
18993TIP3    H278471   2.250   1.260   3.913  1.9517 -1.6017 -0.8058
18994TIP3   OH278472   5.901   4.707   3.523 -0.1384 -0.3215 -0.0098
18994TIP3    H178473   5.920   4.613   3.527 -0.1981 -0.2977  2.2357
18994TIP3    H278474   5.810   4.712   3.493  0.0389 -0.9448 -0.6741
18995TIP3   OH278475   4.929   4.912   3.223 -0.6894  0.2809 -0.9333
18995TIP3    H178476   4.969   4.833   3.188  0.3638 -0.3495  1.4976
18995TIP3    H278477   4.940   4.977   3.154  1.9840 -0.6532 -1.5117
18996TIP3   OH278478   0.330   1.740   2.542  0.1024 -0.2622  0.1094
18996TIP3    H178479   0.380   1.796   2.483 -0.1406  0.9072  0.9891
18996TIP3    H278480   0.396   1.695   2.595  0.2690  1.6048  1.5690
18997TIP3   OH278481   3.006   6.055   1.564  0.6117 -0.6686 -0.4196
18997TIP3    H178482   3.062   6.120   1.605  0.0151 -0.7640  0.5794
18997TIP3    H278483   2.923   6.061   1.612 -0.1222 -0.7561 -1.6446
18998TIP3   OH278484   7.080   4.136   5.979  0.4999  0.6289  0.1369
18998TIP3    H178485   6.992   4.157   6.008 -0.1130 -1.5688  0.0943
18998TIP3    H278486   7.115   4.079   6.048  0.9148 -0.5570 -1.0045
18999TIP3   OH278487   3.005   4.018   1.940  0.4816  0.1442 -0.2926
18999TIP3    H178488   3.070   3.981   2.000  0.5274 -1.4494 -1.2864
18999TIP3    H278489   2.921   4.003   1.984  0.5439 -0.6615 -0.4452
19000TIP3   OH278490   6.348   5.284   2.731 -0.2054 -0.0936  0.9188
19000TIP3    H178491   6.316   5.268   2.820 -0.8456  2.5506  1.2438
19000TIP3    H278492   6.271   5.272   2.675 -0.9850  2.5831  1.2882
19001TIP3   OH278493   3.116   5.662   3.298 -0.3300  0.1091  0.1297
19001TIP3    H178494   3.065   5.663   3.379  1.6905 -0.6397  1.4893
19001TIP3    H278495   3.139   5.570   3.285 -0.1949  0.2924 -1.0118
19002TIP3   OH278496   4.973   0.018   3.477 -0.2336 -0.7833  0.5829
19002TIP3    H178497   4.905   0.078   3.446  0.4732 -0.8084 -1.1369
19002TIP3    H278498   4.999   0.053   3.562 -1.3817  0.0418  0.6222
19003TIP3   OH278499   0.538   0.943  14.386 -0.1679  0.7983 -0.0256
19003TIP3    H178500   0.539   0.853  14.353  1.0835  0.1002  1.7539
19003TIP3    H278501   0.467   0.986  14.338 -1.0089 -1.2267 -0.6844
19004TIP3   OH278502   4.183   1.725   2.355  0.1588 -0.1338  0.1083
19004TIP3    H178503   4.253   1.669   2.389  0.8816 -0.5066 -1.8343
19004TIP3    H278504   4.153   1.679   2.276 -0.4657  1.3332 -0.5347
19005TIP3   OH278505   4.673   6.552   5.598 -0.3626  0.3320  0.0309
19005TIP3    H178506   4.743   6.617   5.588 -0.3422  0.1884 -0.9141
19005TIP3    H278507   4.593   6.603   5.596 -0.3053  0.4425  0.5309
19006TIP3   OH278508   5.245   2.687   3.970 -0.3532 -0.6445 -0.1181
19006TIP3    H178509   5.177   2.633   3.931 -1.6722 -0.3480  1.6291
19006TIP3    H278510   5.220   2.777   3.947 -1.1115 -0.4701  1.2414
19007TIP3   OH278511   4.729   3.915   5.281 -0.3736  0.3418  0.6792
19007TIP3    H178512   4.739   3.963   5.199  0.1621  0.4248  0.7937
19007TIP3    H278513   4.655   3.958   5.324 -1.1785 -0.1944 -0.1010
19008TIP3   OH278514   0.317   1.110   2.586 -0.2291  0.1090  0.0946
19008TIP3    H178515   0.274   1.055   2.651  0.4136 -0.0644  0.3834
19008TIP3    H278516   0.351   1.184   2.636  2.9577 -1.5014  0.5726
19009TIP3   OH278517   1.419   1.782  12.203  0.1326 -0.1881 -0.0903
19009TIP3    H178518   1.323   1.775  12.204  0.0350  1.0971  0.7089
19009TIP3    H278519   1.440   1.795  12.110 -0.2873 -2.3338 -0.5430
19010TIP3   OH278520   1.750   6.683   3.401  0.0495 -0.2158 -0.3883
19010TIP3    H178521   1.777   6.775   3.408  3.2130 -1.0994  0.7848
19010TIP3    H278522   1.732   6.670   3.308 -1.1524  1.6912 -0.4818
19011TIP3   OH278523   2.293   1.963   3.909 -0.2124  0.2779  0.0580
19011TIP3    H178524   2.251   2.003   3.985  1.4585  0.7968  0.7673
19011TIP3    H278525   2.318   1.875   3.938  2.1274  1.1150  0.8464
19012TIP3   OH278526   2.740   2.802   2.145 -0.6001 -0.2771  0.0625
19012TIP3    H178527   2.788   2.882   2.120 -3.0983  1.0601 -0.8270
19012TIP3    H278528   2.783   2.732   2.096  0.4323  0.8231 -0.6758
19013TIP3   OH278529   0.927   7.043   4.098 -0.6633 -0.3504 -0.8046
19013TIP3    H178530   0.886   6.958   4.082  1.3853 -1.5339 -0.0864
19013TIP3    H278531   1.021   7.025   4.100 -0.2521  1.2905  2.7087
19014TIP3   OH278532   0.158   5.472   3.913  0.4027  0.0074 -0.5621
19014TIP3    H178533   0.228   5.534   3.891 -0.0846  0.6634 -0.2919
19014TIP3    H278534   0.179   5.394   3.862  1.0298  0.3899 -0.9104
19015TIP3   OH278535   2.566   1.716   1.930 -0.3275 -0.7300  0.1417
19015TIP3    H178536   2.633   1.664   1.886 -0.4900 -2.4034  1.7360
19015TIP3    H278537   2.505   1.741   1.860  0.5293 -1.4662 -0.9042
19016TIP3   OH278538   5.593   4.146   3.968 -0.3112  0.1751 -0.0239
19016TIP3    H178539   5.674   4.178   4.007 -1.4329  1.8020  1.0868
19016TIP3    H278540   5.610   4.053   3.950  0.9126 -0.1953  2.5911
19017TIP3   OH278541   4.652   4.841   4.333 -0.4931  0.4930 -0.5961
19017TIP3    H178542   4.599   4.861   4.256 -0.4572  0.9217 -0.5126
19017TIP3    H278543   4.684   4.752   4.318 -2.3550 -0.3093 -0.0148
19018TIP3   OH278544   3.050   5.383   3.498 -0.3142 -0.6401 -0.0524
19018TIP3    H178545   2.959   5.412   3.491 -1.0510 -1.9956  2.4707
19018TIP3    H278546   3.094   5.452   3.546 -0.1334 -0.2217 -0.8145
19019TIP3   OH278547   2.832   2.716   4.799  0.1490  0.0545 -0.3235
19019TIP3    H178548   2.740   2.711   4.775 -0.5044 -0.2566  1.9591
19019TIP3    H278549   2.864   2.796   4.757 -0.2634 -1.4251 -3.7052
19020TIP3   OH278550   4.570   3.092   4.888 -0.0194  0.5863  0.1561
19020TIP3    H178551   4.533   3.038   4.818  3.1508  0.7091 -1.8315
19020TIP3    H278552   4.574   3.034   4.964 -0.8094 -0.5074 -0.5992
19021TIP3   OH278553   1.964   2.090   3.354 -0.1261 -0.2862 -0.6913
19021TIP3    H178554   1.965   2.038   3.274 -0.8286 -3.5866  1.2918
19021TIP3    H278555   2.053   2.086   3.387  0.1726  1.1059 -1.2399
19022TIP3   OH278556   2.659   5.356   2.089 -0.3030  0.4032  0.1844
19022TIP3    H178557   2.710   5.372   2.168  0.8488  0.5209 -0.5708
19022TIP3    H278558   2.614   5.439   2.071 -0.9435  0.2392  0.9574
19023TIP3   OH278559   2.660   3.434   4.698  0.3048  0.7393  0.2506
19023TIP3    H178560   2.576   3.394   4.719  0.1217  0.2642 -1.2425
19023TIP3    H278561   2.641   3.495   4.627  1.4113 -0.4646 -1.1618
19024TIP3   OH278562   2.316   4.462   4.348  0.0020  0.3207  0.3696
19024TIP3    H178563   2.345   4.423   4.265  1.2738  1.5495  0.2057
19024TIP3    H278564   2.261   4.535   4.322 -0.0909  0.3372  0.6147
19025TIP3   OH278565   1.784   1.080   3.179  0.2775 -0.1138  0.5302
19025TIP3    H178566   1.806   1.084   3.272  1.4627  1.1807  0.2428
19025TIP3    H278567   1.693   1.111   3.174  0.0855 -0.5431  1.2834
19026TIP3   OH278568   0.975   1.630  13.001  0.3592 -0.7270  0.4815
19026TIP3    H178569   1.067   1.611  13.019  0.8753  1.0186 -0.1482
19026TIP3    H278570   0.973   1.724  12.983 -1.7888 -0.4278  1.9414
19027TIP3   OH278571   6.662   1.492   1.696 -0.5341  0.3585  0.1569
19027TIP3    H178572   6.748   1.535   1.691 -0.5532  0.3538 -0.2555
19027TIP3    H278573   6.653   1.467   1.788  0.3363 -0.5063  0.0337
19028TIP3   OH278574   1.165   2.867   2.471 -0.7358 -0.0234  0.5373
19028TIP3    H178575   1.227   2.903   2.534 -0.6301 -0.5145  0.7186
19028TIP3    H278576   1.213   2.795   2.429 -1.2971 -0.6393  0.9339
19029TIP3   OH278577   5.680   3.180   2.773  0.2629 -0.2900  0.5778
19029TIP3    H178578   5.585   3.193   2.774  0.1768 -0.9165  1.1173
19029TIP3    H278579   5.707   3.197   2.864  0.9483  1.7997  0.0446
19030TIP3   OH278580   3.952   6.418   4.252 -0.6126 -0.1346 -0.1120
19030TIP3    H178581   4.012   6.421   4.178 -1.4547 -0.3755 -0.8128
19030TIP3    H278582   4.003   6.380   4.323  0.9684  2.2548  0.1666
19031TIP3   OH278583   4.398   4.861   1.744 -0.0586 -0.2185 -0.4640
19031TIP3    H178584   4.325   4.912   1.711 -0.1868 -0.2540 -0.2353
19031TIP3    H278585   4.365   4.771   1.747  0.2485 -0.3589 -1.1090
19032TIP3   OH278586   4.250   1.625   2.101  0.0243  0.2514  0.0427
19032TIP3    H178587   4.334   1.614   2.055 -1.1051  0.1638 -2.1534
19032TIP3    H278588   4.193   1.669   2.037 -2.5399 -2.4618  0.2515
19033TIP3   OH278589   7.104   4.186   3.810 -0.6855  0.3492  0.0019
19033TIP3    H178590   7.129   4.265   3.859  1.1201  0.2965 -0.7388
19033TIP3    H278591   7.134   4.113   3.864  2.8178  0.2964 -1.7077
19034TIP3   OH278592   1.748   2.353   3.807  0.5575  0.1487 -0.2536
19034TIP3    H178593   1.795   2.394   3.880 -1.2100  0.0474  1.0089
19034TIP3    H278594   1.704   2.277   3.846  0.6081 -0.6834 -1.7250
19035TIP3   OH278595   0.817   0.151  14.974  0.2271  0.2709 -0.6158
19035TIP3    H178596   0.723   0.168  14.980 -0.1644 -1.9264  1.0459
19035TIP3    H278597   0.827   0.105  14.891 -0.4045 -0.5794 -0.2387
19036TIP3   OH278598   3.251   1.026   3.551 -0.3893  0.3721 -0.0499
19036TIP3    H178599   3.315   1.066   3.492 -1.4694  1.3130 -0.6264
19036TIP3    H278600   3.300   1.008   3.631  0.8620  0.0178 -0.8684
19037TIP3   OH278601   1.109   6.160   1.993 -0.7530 -0.0962  0.9150
19037TIP3    H178602   1.033   6.195   1.946 -0.5108  1.6212  1.7517
19037TIP3    H278603   1.136   6.084   1.940 -2.2057  0.0686 -0.1391
19038TIP3   OH278604   4.994   2.579   4.642 -0.0336  0.1629 -0.9672
19038TIP3    H178605   5.073   2.527   4.659 -0.1616  0.4439  0.6159
19038TIP3    H278606   5.027   2.668   4.630 -0.2043  0.6052  1.4503
19039TIP3   OH278607   2.039   1.755   1.806 -0.2804  0.0187 -0.5357
19039TIP3    H178608   2.007   1.835   1.848 -0.4329  0.7586 -1.9800
19039TIP3    H278609   2.017   1.767   1.713 -0.3041 -1.7092 -0.7824
19040TIP3   OH278610   3.309   0.619   4.434 -0.3032  0.2212 -0.1392
19040TIP3    H178611   3.324   0.712   4.452 -1.4272  0.6039 -1.0263
19040TIP3    H278612   3.322   0.576   4.518  1.1671  1.0525  0.0933
19041TIP3   OH278613   4.850   1.225   5.163 -0.5588  0.5176  0.1979
19041TIP3    H178614   4.755   1.239   5.170 -0.0068  4.7538  1.7301
19041TIP3    H278615   4.867   1.222   5.068 -2.2456 -1.8700 -0.1351
19042TIP3   OH278616   0.966   6.771   0.278 -0.0584 -0.6232  0.1853
19042TIP3    H178617   0.975   6.695   0.220  3.4251 -1.0769  1.0754
19042TIP3    H278618   0.972   6.846   0.219 -2.5451 -0.9513 -0.5942
19043TIP3   OH278619   0.382   6.124  12.163  0.4008 -0.5209  0.3755
19043TIP3    H178620   0.311   6.140  12.225 -0.2911  0.2356 -0.5771
19043TIP3    H278621   0.432   6.053  12.202 -0.1563 -0.2384  1.6739
19044TIP3   OH278622   6.488   0.605   1.273  0.1760  0.1276 -0.4169
19044TIP3    H178623   6.576   0.578   1.248 -0.0327 -1.8331  0.7850
19044TIP3    H278624   6.476   0.570   1.362 -1.5032  1.1072 -0.2060
19045TIP3   OH278625   4.826   2.551   2.744  0.2166 -0.3153  0.4198
19045TIP3    H178626   4.800   2.641   2.765  0.1852 -0.2063 -0.0686
19045TIP3    H278627   4.831   2.507   2.829  1.0588  0.3699  0.7521
19046TIP3   OH278628   2.132   0.494   2.413 -0.8774 -0.4884  0.2528
19046TIP3    H178629   2.138   0.411   2.365  1.0981 -0.0380 -0.3515
19046TIP3    H278630   2.088   0.471   2.495  1.5480 -2.6361  1.0800
19047TIP3   OH278631   2.117   3.350   1.147  0.0276  0.2681  0.2453
19047TIP3    H178632   2.133   3.418   1.081  0.4944 -1.8194 -1.9568
19047TIP3    H278633   2.032   3.312   1.122  0.3454 -0.7538  0.6737
19048TIP3   OH278634   2.390   2.409   5.852 -0.4259 -0.8992  0.2595
19048TIP3    H178635   2.333   2.361   5.912 -1.2880  0.0798  0.2633
19048TIP3    H278636   2.333   2.476   5.814  0.9889  0.8456  1.0963
19049TIP3   OH278637   6.590   4.999   4.848 -0.0115 -0.1054 -0.3741
19049TIP3    H178638   6.571   5.042   4.932 -0.2633 -2.6296  0.9742
19049TIP3    H278639   6.685   4.998   4.843  0.0114 -0.2501  0.0493
19050TIP3   OH278640   0.060   6.128   4.877 -0.5160 -0.1547 -0.1689
19050TIP3    H178641   0.082   6.217   4.904  1.2217 -0.7772  0.6186
19050TIP3    H278642  -0.021   6.137   4.826 -1.0871  1.6990  0.9759
19051TIP3   OH278643   1.554   0.011   1.699 -0.0342  0.2769 -0.0027
19051TIP3    H178644   1.554   0.075   1.628 -0.5011  1.6862  1.2062
19051TIP3    H278645   1.493   0.046   1.763  0.5318 -0.8290  1.2064
19052TIP3   OH278646   6.752   5.676  15.325 -0.5994 -0.1365 -0.1657
19052TIP3    H178647   6.705   5.594  15.340 -1.3031  0.0668 -1.1567
19052TIP3    H278648   6.710   5.739  15.385 -0.9251 -0.1986 -0.3246
19053TIP3   OH278649   3.068   3.156   4.510 -0.8099 -0.4458 -0.6957
19053TIP3    H178650   3.011   3.176   4.436 -0.8640  1.9667 -0.0805
19053TIP3    H278651   3.010   3.161   4.587 -0.4429 -1.4146 -0.3322
19054TIP3   OH278652   1.817   6.399   5.102 -0.3621 -0.1349  0.5068
19054TIP3    H178653   1.893   6.341   5.105 -1.9768 -2.3415  0.9289
19054TIP3    H278654   1.759   6.368   5.171 -2.2358  0.6112 -0.6342
19055TIP3   OH278655   2.899   4.967   5.800  0.3098  0.1867  0.1609
19055TIP3    H178656   2.957   5.041   5.819 -0.6950  1.0112  0.0887
19055TIP3    H278657   2.958   4.897   5.772  1.1708  1.4845 -1.4588
19056TIP3   OH278658   2.825   7.078   5.399  0.2149 -0.5464 -0.1161
19056TIP3    H178659   2.756   7.083   5.466 -0.6615 -0.7347 -0.9795
19056TIP3    H278660   2.843   7.169   5.377 -0.3158 -0.5084 -0.4238
19057TIP3   OH278661   5.848   5.703  14.195 -0.0004  0.0695 -0.1264
19057TIP3    H178662   5.900   5.624  14.207  2.1405  1.0065 -2.4427
19057TIP3    H278663   5.808   5.693  14.108 -0.8140  0.9472  0.1236
19058TIP3   OH278664   0.956   6.162   3.895  0.3698  0.7010  0.2614
19058TIP3    H178665   1.013   6.086   3.903 -0.3405 -0.1377 -1.7730
19058TIP3    H278666   1.011   6.229   3.855 -0.1312 -0.3380 -2.3809
19059TIP3   OH278667   5.384   1.392  10.227 -0.3213 -0.0562 -0.5669
19059TIP3    H178668   5.440   1.317  10.208 -0.1275  0.2123 -1.0676
19059TIP3    H278669   5.295   1.361  10.209 -0.4090 -0.6772  0.8326
19060TIP3   OH278670   6.530   3.895   5.143 -1.0503  0.6351 -0.5175
19060TIP3    H178671   6.593   3.859   5.205 -0.0363  0.3171 -1.6956
19060TIP3    H278672   6.501   3.977   5.183  1.0613  1.4300 -0.4680
19061TIP3   OH278673   6.052   1.603   3.136 -0.4225 -0.3038 -0.1841
19061TIP3    H178674   6.094   1.543   3.198  1.3132  2.5223  1.6183
19061TIP3    H278675   5.993   1.656   3.189 -0.8271  0.5551 -1.4281
19062TIP3   OH278676   2.464   4.226   0.071  0.2210  0.0419  0.5418
19062TIP3    H178677   2.532   4.284   0.036 -1.1293  0.6413 -1.2242
19062TIP3    H278678   2.489   4.139   0.039  1.4979 -0.1860  2.0415
19063TIP3   OH278679   0.623   0.497   5.443  0.2155 -0.2223  0.6507
19063TIP3    H178680   0.620   0.511   5.538  1.7791 -3.5766  1.3438
19063TIP3    H278681   0.662   0.410   5.433  2.2089  0.8883 -3.1722
19064TIP3   OH278682   7.085   1.217   3.279  0.7280  0.5058 -0.3252
19064TIP3    H178683   7.111   1.308   3.262  1.5114  0.2366 -0.6530
19064TIP3    H278684   7.083   1.177   3.193  1.6456 -0.1021 -0.0745
19065TIP3   OH278685   4.033   3.651   4.015 -0.2021 -0.0461 -0.1135
19065TIP3    H178686   4.065   3.608   4.095  0.1486  0.9185  0.2883
19065TIP3    H278687   3.974   3.720   4.047  0.5392  0.8549 -0.6173
19066TIP3   OH278688   1.651   3.289  14.746 -0.3184 -0.2943 -0.1067
19066TIP3    H178689   1.660   3.204  14.788 -0.2465 -0.2969 -0.1274
19066TIP3    H278690   1.609   3.344  14.812 -0.3538 -0.3421 -0.0899
19067TIP3   OH278691   5.368   2.818  13.363  0.2092  0.0162  0.2025
19067TIP3    H178692   5.451   2.825  13.411 -0.9535 -0.2453  2.3648
19067TIP3    H278693   5.372   2.734  13.319  0.2273 -1.0411  2.1228
19068TIP3   OH278694   0.327   2.330   2.697  0.0680 -0.4103  0.4263
19068TIP3    H178695   0.377   2.251   2.676 -0.0648 -0.4239  0.1618
19068TIP3    H278696   0.388   2.402   2.682 -0.8499 -0.1521 -3.0243
19069TIP3   OH278697   3.478   0.422   2.363 -0.3411  0.3881  0.0897
19069TIP3    H178698   3.450   0.339   2.324  1.9548 -0.5117  0.2003
19069TIP3    H278699   3.553   0.398   2.418 -0.2978  2.3989  0.9834
19070TIP3   OH278700   3.405   2.597   0.560 -0.4380  0.7090 -0.1404
19070TIP3    H178701   3.403   2.610   0.655 -0.5898  0.0148 -0.0418
19070TIP3    H278702   3.406   2.502   0.549  1.8213  0.7418 -0.7915
19071TIP3   OH278703   4.070   0.557   4.525 -0.3841  0.8152  0.0725
19071TIP3    H178704   4.018   0.575   4.446  0.7908 -3.2209 -1.9579
19071TIP3    H278705   4.015   0.498   4.577 -0.3321  1.8038  1.2858
19072TIP3   OH278706   4.669   3.609   3.665  0.3582 -0.3731 -0.5240
19072TIP3    H178707   4.610   3.621   3.591 -0.5830 -0.7217  0.1466
19072TIP3    H278708   4.634   3.532   3.711  0.9969 -0.2332  0.2097
19073TIP3   OH278709   4.120   5.811   4.839 -0.6539  1.4922 -0.1759
19073TIP3    H178710   4.124   5.899   4.801  0.0362  2.3196  1.6721
19073TIP3    H278711   4.211   5.781   4.839 -0.5596  1.6994  1.1420
19074TIP3   OH278712   0.650   0.198   0.175  0.1252  0.0963  0.2504
19074TIP3    H178713   0.617   0.229   0.260  1.0860 -0.6310  0.9154
19074TIP3    H278714   0.745   0.197   0.186  0.1885 -1.5279 -0.2953
19075TIP3   OH278715   2.477   5.505  15.150  0.4766 -0.3515  0.0080
19075TIP3    H178716   2.561   5.543  15.126  0.0523  0.9366  0.4456
19075TIP3    H278717   2.430   5.495  15.067  0.1503  1.2544 -0.0382
19076TIP3   OH278718   0.072   4.919   5.685 -0.2560  0.4835 -0.5264
19076TIP3    H178719  -0.013   4.934   5.726 -0.2827  0.2171 -0.4805
19076TIP3    H278720   0.132   4.978   5.730 -0.5654  1.2194 -1.0705
19077TIP3   OH278721   2.558   6.115   3.456  0.7731  0.6845  0.3631
19077TIP3    H178722   2.506   6.148   3.382 -0.5634 -0.7736  0.5960
19077TIP3    H278723   2.579   6.193   3.507 -2.6675  1.2427  1.1584
19078TIP3   OH278724   4.375   4.964   2.140 -0.3828  0.1022 -0.3996
19078TIP3    H178725   4.443   5.019   2.101 -0.6546  1.8373  1.3794
19078TIP3    H278726   4.308   5.026   2.168 -0.5248 -1.0582  2.0767
19079TIP3   OH278727   1.145   1.423   3.007 -0.1884 -0.3187  0.2449
19079TIP3    H178728   1.207   1.490   2.980 -0.3220 -0.1617  0.3276
19079TIP3    H278729   1.078   1.424   2.940  0.9040 -1.8701 -0.9466
19080TIP3   OH278730   1.280   6.044   0.622  0.2910  0.3659  0.1054
19080TIP3    H178731   1.333   6.122   0.634 -0.0792  0.8997 -1.4030
19080TIP3    H278732   1.316   6.003   0.543 -0.5368 -0.1016 -0.0472
19081TIP3   OH278733   2.376   2.159   3.274 -0.1997  0.1841 -0.2792
19081TIP3    H178734   2.433   2.182   3.347  1.0333 -0.0917 -1.1223
19081TIP3    H278735   2.335   2.076   3.301  1.8195 -1.0229 -0.6932
19082TIP3   OH278736   5.724   0.871   4.080 -0.5145  0.4842  0.0284
19082TIP3    H178737   5.732   0.964   4.100 -0.0622  0.7254 -1.1864
19082TIP3    H278738   5.781   0.858   4.004  0.6738 -1.0927  1.1182
19083TIP3   OH278739   3.411   3.127   4.284  0.2711  0.0754 -0.3012
19083TIP3    H178740   3.487   3.110   4.228  1.2415  0.9850  0.7139
19083TIP3    H278741   3.396   3.221   4.276 -1.7420 -0.2972 -1.6945
19084TIP3   OH278742   6.781   0.449   0.593 -0.1201  0.1465  0.2044
19084TIP3    H178743   6.801   0.531   0.548 -0.7852 -1.1727 -2.6626
19084TIP3    H278744   6.727   0.476   0.668 -0.2471  2.3332 -0.5939
19085TIP3   OH278745   2.653   6.355   3.565 -0.2693 -0.2585  0.1079
19085TIP3    H178746   2.633   6.446   3.545  1.5682  0.3599  0.8193
19085TIP3    H278747   2.629   6.345   3.657  1.0635  0.0360  0.5148
19086TIP3   OH278748   1.567   5.064  12.201  0.4656 -0.8525  0.4886
19086TIP3    H178749   1.581   4.977  12.238  0.9452 -0.7857  0.4696
19086TIP3    H278750   1.524   5.047  12.117 -1.2859 -0.9756  1.3448
19087TIP3   OH278751   5.070   4.475   4.723  0.3021 -0.2020 -0.3320
19087TIP3    H178752   5.163   4.458   4.736  0.0766  0.4576  2.7984
19087TIP3    H278753   5.066   4.565   4.691  0.7314 -0.2393 -0.4949
19088TIP3   OH278754   4.458   0.759   0.346 -0.5892  0.1007  0.0259
19088TIP3    H178755   4.494   0.775   0.434  0.8049 -2.4762  0.0233
19088TIP3    H278756   4.499   0.826   0.291  0.5689  0.1446  0.9015
19089TIP3   OH278757   5.913   1.699   3.641 -0.2423 -0.2617  0.2055
19089TIP3    H178758   5.848   1.628   3.638 -0.2659 -0.2255 -0.1771
19089TIP3    H278759   5.994   1.656   3.668  0.2401 -0.8258 -1.9889
19090TIP3   OH278760   1.816   7.038   5.200  0.5035  0.6977 -0.3406
19090TIP3    H178761   1.799   7.113   5.257  0.8814  1.1338 -0.7946
19090TIP3    H278762   1.743   7.037   5.139 -0.0544  0.0572  0.3132
19091TIP3   OH278763   6.291   0.545   4.155 -0.0612 -0.2143 -0.4168
19091TIP3    H178764   6.364   0.492   4.184 -0.3794 -0.4766 -0.0861
19091TIP3    H278765   6.262   0.592   4.234 -0.5685 -0.4997 -0.4260
19092TIP3   OH278766   5.094   4.033  11.326  0.5220 -0.2551  0.4534
19092TIP3    H178767   5.061   4.035  11.416  1.4332  0.0002  0.7990
19092TIP3    H278768   5.177   4.081  11.330  0.0987  0.6085 -0.7341
19093TIP3   OH278769   4.217   1.829   2.805 -0.2167 -0.4235  0.3204
19093TIP3    H178770   4.307   1.859   2.812 -0.0385 -1.0466  0.8238
19093TIP3    H278771   4.166   1.895   2.851  0.2081 -1.0121  1.6985
19094TIP3   OH278772   3.465   4.968  13.623 -0.7881  0.4801 -0.2504
19094TIP3    H178773   3.443   4.890  13.572 -1.6531  0.3054  0.3529
19094TIP3    H278774   3.474   4.936  13.713  0.2040  0.8637 -0.2002
19095TIP3   OH278775   6.827   5.900   3.511  0.3655 -0.4507  0.1207
19095TIP3    H178776   6.919   5.921   3.523  0.7435 -0.9282 -1.6076
19095TIP3    H278777   6.815   5.818   3.559  0.8493 -0.4055  0.3238
19096TIP3   OH278778   2.303   6.375  13.747  0.2508 -0.2850  0.1645
19096TIP3    H178779   2.354   6.345  13.822  0.5158  2.2814  1.1208
19096TIP3    H278780   2.223   6.411  13.785  0.0986  0.4960 -0.8506
19097TIP3   OH278781   3.954   2.457   1.067  0.0248  0.3167  0.7621
19097TIP3    H178782   4.026   2.519   1.081 -1.2084  1.7696  0.9043
19097TIP3    H278783   3.892   2.504   1.011  1.1709 -2.4849 -3.3198
19098TIP3   OH278784   3.650   0.405   0.129 -0.1618  0.4786  0.4941
19098TIP3    H178785   3.620   0.356   0.205  0.9522  2.0209  1.9944
19098TIP3    H278786   3.745   0.415   0.142  0.0331  0.9455 -1.0086
19099TIP3   OH278787   3.135   1.876  14.483 -0.0047  0.6706  0.3326
19099TIP3    H178788   3.098   1.915  14.563 -1.4882 -0.4493  0.2367
19099TIP3    H278789   3.059   1.859  14.428  0.9477  0.8674 -1.0859
19100TIP3   OH278790   6.559   1.318   2.294 -0.2942 -0.2013 -0.5805
19100TIP3    H178791   6.495   1.366   2.243 -2.6484 -0.9456  1.4515
19100TIP3    H278792   6.534   1.226   2.283  0.1595 -0.4804  0.5787
19101TIP3   OH278793   1.961   2.461   3.504  0.6829  0.4836 -0.6866
19101TIP3    H178794   1.965   2.557   3.506 -0.7513  0.6468  2.6231
19101TIP3    H278795   2.038   2.433   3.554  0.1651  0.0284 -0.1317
19102TIP3   OH278796   7.039   3.357   1.605 -0.6456  0.5269  0.4810
19102TIP3    H178797   7.127   3.320   1.603 -1.0543 -0.4611 -0.0270
19102TIP3    H278798   6.987   3.294   1.654 -2.0976 -1.3982 -3.1785
19103TIP3   OH278799   2.827   5.918   1.196 -0.0207  0.0044 -0.0104
19103TIP3    H178800   2.735   5.914   1.168  0.2873  0.2554 -1.1051
19103TIP3    H278801   2.857   6.005   1.169  0.8830 -0.5356 -0.7792
19104TIP3   OH278802   5.840   4.737   0.323 -0.3020 -0.4641  0.6026
19104TIP3    H178803   5.765   4.724   0.265 -0.9383 -1.2915  1.5849
19104TIP3    H278804   5.903   4.672   0.295  0.2832  0.5506 -0.5469
19105TIP3   OH278805   1.313   5.771  14.981 -0.3428 -0.0842 -0.6568
19105TIP3    H178806   1.346   5.682  14.995  2.0584  0.8120 -0.0228
19105TIP3    H278807   1.230   5.759  14.935 -0.0771 -2.6423 -0.6264
19106TIP3   OH278808   5.524   6.812   2.212  0.1185 -0.2821  0.5688
19106TIP3    H178809   5.429   6.819   2.200  0.0272  2.6300  1.9402
19106TIP3    H278810   5.559   6.818   2.123 -0.9709  0.1164  0.1355
19107TIP3   OH278811   0.100   2.040   1.252 -0.6639 -0.3566  0.2569
19107TIP3    H178812   0.048   2.075   1.180  1.6402 -0.7369 -1.7057
19107TIP3    H278813   0.150   2.115   1.283 -0.9202 -0.4147  0.8221
19108TIP3   OH278814   1.355   6.011   3.979  0.0498  0.2432  0.2866
19108TIP3    H178815   1.409   5.932   3.969 -0.0115  0.3161 -0.7963
19108TIP3    H278816   1.266   5.982   3.960  0.3499  1.0476 -2.9584
19109TIP3   OH278817   4.267   1.831   5.129  0.1063 -0.0660 -0.3414
19109TIP3    H178818   4.182   1.866   5.103 -1.0142 -1.5657  1.0711
19109TIP3    H278819   4.293   1.774   5.057 -1.8441 -2.3387  0.5704
19110TIP3   OH278820   2.184   6.550   4.043  0.1212 -0.5376 -0.7499
19110TIP3    H178821   2.105   6.581   3.999  0.0846 -2.1476 -1.9377
19110TIP3    H278822   2.241   6.627   4.049  0.1799 -0.2156 -3.8152
19111TIP3   OH278823   3.383   6.566   3.142 -0.6297  0.6946  0.1840
19111TIP3    H178824   3.440   6.619   3.087 -1.3099  0.3497 -0.8873
19111TIP3    H278825   3.307   6.623   3.159  0.4124  1.5312  2.4412
19112TIP3   OH278826   3.231   4.908   2.655 -0.4381  0.0402  0.3262
19112TIP3    H178827   3.264   4.879   2.570  0.7598 -1.8754  1.3492
19112TIP3    H278828   3.248   5.002   2.657  0.2452 -0.0239 -1.2393
19113TIP3   OH278829   4.239   6.702   3.568  0.5712  0.1412  0.6540
19113TIP3    H178830   4.300   6.664   3.505 -1.1228 -0.3812 -0.7618
19113TIP3    H278831   4.283   6.695   3.653  1.7986 -1.6736 -0.0816
19114TIP3   OH278832   5.098   2.837   4.575  0.4183  0.0242 -0.3333
19114TIP3    H178833   5.044   2.873   4.505  1.5942 -0.9720 -1.8359
19114TIP3    H278834   5.187   2.866   4.554  0.7647 -0.0129  0.9632
19115TIP3   OH278835   2.190   3.411   4.514  0.0578  0.3237 -0.3132
19115TIP3    H178836   2.141   3.441   4.437  0.2928  2.3892  0.2598
19115TIP3    H278837   2.203   3.491   4.566 -2.2876 -1.3120  3.1581
19116TIP3   OH278838   7.197   6.644   1.397 -0.0883  0.0425  0.1225
19116TIP3    H178839   7.149   6.587   1.337 -0.0318  1.7411 -1.6116
19116TIP3    H278840   7.145   6.724   1.401  1.3669  1.0218  0.1020
19117TIP3   OH278841   5.809   3.983  15.237 -0.6418 -0.2911  0.1177
19117TIP3    H178842   5.756   4.060  15.255 -1.1085 -0.8635  1.3163
19117TIP3    H278843   5.891   4.018  15.200 -0.1177  0.9316  2.2517
19118TIP3   OH278844   3.699   4.003   5.411  0.5292  0.5125  0.1062
19118TIP3    H178845   3.629   4.032   5.352 -0.2179 -0.4853  0.4859
19118TIP3    H278846   3.774   4.058   5.387  0.0186  0.6665 -1.2318
19119TIP3   OH278847   0.716   2.897  15.244  0.0318  0.4815 -0.3643
19119TIP3    H178848   0.711   2.859  15.156 -2.4568 -1.2528  0.4121
19119TIP3    H278849   0.777   2.841  15.291 -0.3761  0.0058 -0.3896
19120TIP3   OH278850   5.824   2.601   2.284 -0.3442  0.0889  0.3177
19120TIP3    H178851   5.874   2.679   2.306  0.0085  0.0558 -0.3460
19120TIP3    H278852   5.768   2.627   2.211 -0.6332 -0.1253  0.4599
19121TIP3   OH278853   4.079   3.371   1.677 -0.1045 -0.3181  0.1349
19121TIP3    H178854   4.148   3.401   1.735  0.7445 -0.6410 -0.6819
19121TIP3    H278855   4.044   3.451   1.638 -1.2949 -0.0266  1.7354
19122TIP3   OH278856   0.981   4.664   3.679 -0.3979 -0.0448  0.2097
19122TIP3    H178857   1.026   4.643   3.761  0.6568 -0.4727 -0.4671
19122TIP3    H278858   1.048   4.705   3.624 -0.8672 -0.5554 -0.7653
19123TIP3   OH278859   5.509   6.405   3.669 -0.2719 -0.1949 -0.1710
19123TIP3    H178860   5.472   6.362   3.746 -1.7789  0.7750 -0.3117
19123TIP3    H278861   5.499   6.341   3.599 -1.4812 -0.0606 -0.1403
19124TIP3   OH278862   0.943   4.062  15.069 -0.7481 -0.2624 -0.0152
19124TIP3    H178863   0.972   4.070  15.160  2.0160 -1.8770 -0.6741
19124TIP3    H278864   1.003   4.117  15.020  0.4907 -2.6241 -1.2836
19125TIP3   OH278865   3.785   2.789  13.030  0.2592 -0.2158  0.6186
19125TIP3    H178866   3.716   2.788  12.964  2.3017 -1.7373 -1.6343
19125TIP3    H278867   3.783   2.879  13.065 -2.8861 -0.2443  0.8305
19126TIP3   OH278868   3.503   6.806   3.453  0.1726 -0.0176  0.6260
19126TIP3    H178869   3.486   6.831   3.362 -0.8220  2.1433  1.3267
19126TIP3    H278870   3.462   6.720   3.462  0.6024 -0.4306 -1.0374
19127TIP3   OH278871   0.203   3.347   1.222 -0.1559 -0.6762  0.0706
19127TIP3    H178872   0.134   3.296   1.264 -0.0885 -1.8291 -1.1467
19127TIP3    H278873   0.238   3.289   1.154  0.2009  0.8640 -1.1107
19128TIP3   OH278874   0.700   3.334   3.348  0.1307  0.4249 -0.3174
19128TIP3    H178875   0.651   3.276   3.406 -1.0959  1.8139  0.1010
19128TIP3    H278876   0.645   3.412   3.342  1.5145  1.3500 -1.2298
19129TIP3   OH278877   4.972   1.328   2.308 -0.0264  0.0408 -0.4246
19129TIP3    H178878   4.977   1.324   2.213 -0.4111 -0.5139 -0.4325
19129TIP3    H278879   4.878   1.329   2.327  0.0380 -0.4909 -0.0395
19130TIP3   OH278880   0.087   3.177  15.404  0.0201  0.1127 -0.3040
19130TIP3    H178881   0.057   3.254  15.454  0.2587  1.1878 -1.7558
19130TIP3    H278882   0.028   3.174  15.329 -0.3992 -1.5505  0.0646
19131TIP3   OH278883   1.606   1.392   5.476  0.3472 -0.5262 -0.2085
19131TIP3    H178884   1.615   1.403   5.571 -0.3543 -0.8491 -0.0963
19131TIP3    H278885   1.695   1.391   5.443  0.5861 -0.1487  0.4225
19132TIP3   OH278886   5.677   0.838   0.142 -0.4366  0.2278 -0.0140
19132TIP3    H178887   5.664   0.903   0.072 -0.0768 -0.3716 -0.6557
19132TIP3    H278888   5.699   0.890   0.219 -1.9546  0.9776 -0.0466
19133TIP3   OH278889   1.618   4.868   1.296 -0.1025 -0.0120  0.1408
19133TIP3    H178890   1.710   4.893   1.287 -0.1418  1.3927  2.7161
19133TIP3    H278891   1.604   4.861   1.390 -2.1531 -2.2793 -0.2363
19134TIP3   OH278892   4.838   6.065   3.398 -0.6507 -0.3915 -0.3730
19134TIP3    H178893   4.894   6.000   3.356 -0.4144 -0.8369  0.6050
19134TIP3    H278894   4.776   6.014   3.450 -0.8985  0.1499 -0.1264
19135TIP3   OH278895   3.271   6.740   1.219 -0.1330 -0.2618 -0.1824
19135TIP3    H178896   3.260   6.647   1.198 -0.3839 -0.1661 -0.4876
19135TIP3    H278897   3.198   6.760   1.278 -0.3896 -0.1310 -0.5417
19136TIP3   OH278898   6.730   3.846   5.352  0.0966  0.1716  0.8966
19136TIP3    H178899   6.693   3.815   5.434 -1.5272  0.5112  0.3304
19136TIP3    H278900   6.719   3.941   5.355 -2.3839  0.0467 -0.7239
19137TIP3   OH278901   4.480   4.209   4.021 -0.0659  0.1610  0.0294
19137TIP3    H178902   4.456   4.215   4.113 -0.0922 -0.8628  0.1010
19137TIP3    H278903   4.396   4.205   3.975 -0.0510  0.4348 -0.0238
19138TIP3   OH278904   1.486   2.481   4.342 -0.3739 -0.4882 -0.5925
19138TIP3    H178905   1.552   2.429   4.297 -1.6809 -1.2723 -1.6670
19138TIP3    H278906   1.529   2.565   4.360  1.1674 -1.2858 -0.4888
19139TIP3   OH278907   2.653   0.763   5.090  0.4583 -0.0126 -0.3584
19139TIP3    H178908   2.562   0.760   5.061 -0.0695  1.3434  0.9915
19139TIP3    H278909   2.677   0.856   5.084  1.0716 -0.0334  1.1488
19140TIP3   OH278910   3.663   0.825  14.611 -0.7461  0.3001 -0.1011
19140TIP3    H178911   3.607   0.874  14.671 -1.9482 -1.2796  0.1210
19140TIP3    H278912   3.670   0.738  14.649  1.7346  0.3486 -0.2439
19141TIP3   OH278913   6.680   5.455   1.146 -0.2615 -0.0362 -0.2269
19141TIP3    H178914   6.751   5.492   1.198 -2.5042  0.1589  3.0631
19141TIP3    H278915   6.615   5.525   1.140 -0.8061 -0.6417 -1.8480
19142TIP3   OH278916   3.765   2.535   5.071  0.0838  0.5389  0.9763
19142TIP3    H178917   3.814   2.477   5.013  0.8729  0.3158  1.8395
19142TIP3    H278918   3.832   2.591   5.111 -0.4062  0.5246  1.8462
19143TIP3   OH278919   2.468   3.690  14.489 -0.0238  0.0397 -0.2128
19143TIP3    H178920   2.391   3.680  14.546 -0.5338  1.2414 -0.6695
19143TIP3    H278921   2.486   3.783  14.489  0.9640 -0.1404 -0.7537
19144TIP3   OH278922   6.995   3.579   2.340 -0.2110 -0.3620  0.3220
19144TIP3    H178923   6.936   3.545   2.407 -1.0199  1.7468  0.7411
19144TIP3    H278924   6.958   3.546   2.257  1.6877 -4.3162  0.8199
19145TIP3   OH278925   6.764   6.506   5.552  0.3109 -0.0060  0.5191
19145TIP3    H178926   6.842   6.513   5.606  1.1879 -0.6104 -0.6313
19145TIP3    H278927   6.723   6.424   5.579  0.3070  0.0908  0.8113
19146TIP3   OH278928   0.285   5.384   5.141 -0.1432 -1.3201  0.3757
19146TIP3    H178929   0.314   5.304   5.185  1.7832 -0.5266  0.6139
19146TIP3    H278930   0.364   5.422   5.104 -1.1927 -0.0971 -0.7406
19147TIP3   OH278931   6.872   3.620   6.247  0.0826 -0.0273 -0.2373
19147TIP3    H178932   6.889   3.549   6.310  1.7059  0.3132 -0.2502
19147TIP3    H278933   6.934   3.604   6.175 -0.3109  0.7628 -0.7668
19148TIP3   OH278934   5.293   4.663   4.010  0.7664 -0.5101 -0.0754
19148TIP3    H178935   5.350   4.599   4.053 -0.3149 -0.9299  0.7691
19148TIP3    H278936   5.216   4.613   3.984 -1.6701  0.9552  3.6031
19149TIP3   OH278937   1.276   0.861   4.202  0.0851  0.2518 -0.5232
19149TIP3    H178938   1.328   0.931   4.163 -0.2416  1.1704  0.6313
19149TIP3    H278939   1.187   0.877   4.171  0.3620 -0.9943 -2.0545
19150TIP3   OH278940   1.401   1.417   4.838 -0.0244  0.2102 -0.1327
19150TIP3    H178941   1.438   1.492   4.884  0.9448 -0.6626  0.5460
19150TIP3    H278942   1.458   1.404   4.762 -1.5486  1.5727 -1.5947
19151TIP3   OH278943   6.795   6.883   5.977  0.5920  0.5237 -0.1431
19151TIP3    H178944   6.725   6.946   5.993  1.7144  1.7697  0.0592
19151TIP3    H278945   6.758   6.799   6.004 -0.4932  1.2889  0.8850
19152TIP3   OH278946   1.935   5.167   3.317 -0.1038 -0.6393 -0.1083
19152TIP3    H178947   1.992   5.171   3.240 -0.6947  1.9719 -0.5076
19152TIP3    H278948   1.954   5.248   3.365 -2.9245 -0.0348  0.1275
19153TIP3   OH278949   0.343   5.751   2.829  0.2728 -0.0566  0.2986
19153TIP3    H178950   0.354   5.689   2.757 -1.5643 -0.6396  0.4561
19153TIP3    H278951   0.342   5.837   2.787  1.7531 -0.1752 -0.0446
19154TIP3   OH278952   2.994   5.961   4.751 -0.2057 -0.3088  0.5518
19154TIP3    H178953   2.905   5.942   4.783 -0.2465 -0.3194  0.4319
19154TIP3    H278954   3.040   5.995   4.828 -0.3777 -0.0906  0.5585
19155TIP3   OH278955   6.687   3.904   1.362 -0.0086  0.2205  0.1434
19155TIP3    H178956   6.778   3.878   1.351 -0.0273 -0.3326  1.1395
19155TIP3    H278957   6.689   4.000   1.356  0.5649  0.1856 -0.2927
19156TIP3   OH278958   5.347   1.851   5.384 -0.1809  0.2792 -0.6222
19156TIP3    H178959   5.380   1.761   5.381 -0.8698 -0.1099  1.5720
19156TIP3    H278960   5.417   1.903   5.345  2.3150 -0.7181  2.1477
19157TIP3   OH278961   5.988   5.107   5.724 -0.2136  0.4336 -0.3874
19157TIP3    H178962   5.926   5.034   5.716  0.8117 -0.7390  1.5761
19157TIP3    H278963   5.947   5.167   5.786  0.8822 -0.7523  1.5801
19158TIP3   OH278964   0.031   6.382   3.662 -0.1863  0.1129 -0.5321
19158TIP3    H178965   0.071   6.301   3.631 -1.7150 -0.6417 -0.6273
19158TIP3    H278966   0.094   6.451   3.639  0.3282 -0.8268 -2.0776
19159TIP3   OH278967   6.700   5.959   4.553  0.2070  0.0171 -0.0301
19159TIP3    H178968   6.623   5.979   4.500  0.9446  0.0453 -1.1064
19159TIP3    H278969   6.665   5.909   4.627 -0.7057 -1.0494 -1.1393
19160TIP3   OH278970   4.322   4.703  14.982  0.1821 -0.6524  0.2072
19160TIP3    H178971   4.332   4.788  14.938 -3.0807 -0.4219 -0.2829
19160TIP3    H278972   4.400   4.696  15.037  0.5694  2.6927  0.2931
19161TIP3   OH278973   5.166   6.725   4.647 -0.5531 -0.3382  0.2861
19161TIP3    H178974   5.143   6.719   4.740 -1.6429  3.0562  0.3763
19161TIP3    H278975   5.102   6.669   4.603 -3.0790  1.5201  1.3290
19162TIP3   OH278976   1.746   5.890   3.580 -0.2729  0.0181  0.3384
19162TIP3    H178977   1.816   5.872   3.517 -1.0901 -1.3221 -0.2230
19162TIP3    H278978   1.744   5.986   3.585  0.4163  0.1363 -0.9900
19163TIP3   OH278979   6.548   1.958   0.822  0.4524 -0.2551 -0.2351
19163TIP3    H178980   6.620   2.013   0.792  2.6812 -1.3115  2.7003
19163TIP3    H278981   6.500   2.014   0.883 -1.9105  0.7340 -2.8130
19164TIP3   OH278982   1.013   6.660   5.190 -0.2224  0.4689 -0.2311
19164TIP3    H178983   1.076   6.644   5.260 -1.0300 -1.7341  0.0530
19164TIP3    H278984   1.037   6.600   5.120 -1.2270  0.5102 -0.6354
19165TIP3   OH278985   6.304   3.302   5.586  0.4138  0.1107 -0.0188
19165TIP3    H178986   6.333   3.214   5.612 -0.3082 -0.1023  0.1024
19165TIP3    H278987   6.374   3.335   5.531  1.1607 -0.1350  0.7707
19166TIP3   OH278988   3.975   1.843  15.176  0.7256 -0.1267 -0.0801
19166TIP3    H178989   4.004   1.803  15.258  1.1482  0.9493  0.3133
19166TIP3    H278990   3.957   1.769  15.118  1.1517 -0.8849  0.7318
19167TIP3   OH278991   0.049   6.395   1.516 -0.1144  0.2307 -0.7231
19167TIP3    H178992   0.034   6.482   1.478 -0.5515 -0.1188 -1.3617
19167TIP3    H278993   0.086   6.413   1.602 -1.3196  1.0718 -0.3612
19168TIP3   OH278994   4.032   2.664   2.763  0.5624  0.5832 -0.8039
19168TIP3    H178995   3.959   2.726   2.763  0.2419  0.2096 -0.7826
19168TIP3    H278996   4.067   2.667   2.674  0.0455  0.2172 -1.0274
19169TIP3   OH278997   4.160   0.751   4.694  0.1137  0.6066  0.3458
19169TIP3    H178998   4.111   0.701   4.630  0.4001 -1.4466  1.6499
19169TIP3    H278999   4.109   0.745   4.775  2.1049 -1.0769  1.5769
19170TIP3   OH279000   1.279   2.130   2.618  0.0688  0.5173 -0.3041
19170TIP3    H179001   1.192   2.167   2.631 -0.2982  0.1465 -1.5885
19170TIP3    H279002   1.282   2.055   2.679 -1.6247 -1.2113 -2.1893
19171TIP3   OH279003   2.763   1.920   2.852 -0.0023 -0.0564 -0.8023
19171TIP3    H179004   2.695   1.985   2.835  0.1037  0.0338 -0.8899
19171TIP3    H279005   2.725   1.861   2.917  0.1208  0.4575 -0.2495
19172TIP3   OH279006   1.083   5.596  12.263 -0.4715  0.1049  0.0715
19172TIP3    H179007   1.018   5.563  12.324 -0.5635  1.0356  0.4903
19172TIP3    H279008   1.037   5.599  12.179 -1.2225  1.4240  0.4950
19173TIP3   OH279009   1.234   3.201   5.010  0.4546  0.0749 -0.0505
19173TIP3    H179010   1.205   3.225   5.099  0.8334  0.6597 -0.0812
19173TIP3    H279011   1.204   3.273   4.955 -2.0148 -1.4270 -0.8461
19174TIP3   OH279012   0.030   6.150   5.368  0.2189  0.3145  0.2664
19174TIP3    H179013   0.008   6.152   5.461 -1.7389  1.1535 -0.1533
19174TIP3    H279014  -0.055   6.147   5.324  1.0448  1.6782 -1.5221
19175TIP3   OH279015   4.164   2.280   4.517  0.2225  0.5175  0.4265
19175TIP3    H179016   4.197   2.268   4.607  0.9719  0.1912  0.1192
19175TIP3    H279017   4.114   2.201   4.499  1.6676 -0.3262 -0.1045
19176TIP3   OH279018   5.287   2.482  13.782 -0.0046  0.4021  0.5973
19176TIP3    H179019   5.221   2.426  13.822 -1.9689 -1.2983 -4.1966
19176TIP3    H279020   5.351   2.421  13.744 -0.3110  1.4521 -1.8317
19177TIP3   OH279021   7.008   4.981   3.504 -0.2873 -0.2478  0.1119
19177TIP3    H179022   7.083   4.933   3.539 -0.5892 -1.5552 -0.9411
19177TIP3    H279023   7.044   5.066   3.478  0.2122  0.2563  2.2352
19178TIP3   OH279024   1.343   4.571   2.117 -0.4455 -0.8294 -0.5297
19178TIP3    H179025   1.411   4.525   2.166 -1.1282 -1.4695 -0.1765
19178TIP3    H279026   1.351   4.662   2.144 -0.6992 -1.1425  0.6502
19179TIP3   OH279027   3.884   5.156   2.266  0.1806 -0.5120 -0.6128
19179TIP3    H179028   3.841   5.071   2.264  0.9592 -0.9121 -0.7207
19179TIP3    H279029   3.834   5.209   2.204  0.2724 -1.1823 -1.2794
19180TIP3   OH279030   0.333   2.201   3.019  0.0736 -0.3326  0.0883
19180TIP3    H179031   0.255   2.156   3.052 -0.0644  0.3694  0.7555
19180TIP3    H279032   0.324   2.291   3.051  0.9140 -0.1213 -0.2413
19181TIP3   OH279033   0.298   1.372   5.302 -0.1312 -1.0083 -0.2011
19181TIP3    H179034   0.392   1.383   5.288 -0.3705  1.5286 -0.3709
19181TIP3    H279035   0.290   1.344   5.393  0.7539  0.5754  0.3948
19182TIP3   OH279036   4.114   4.456   3.882  0.2965  0.2968  0.0148
19182TIP3    H179037   4.030   4.473   3.926 -0.4804 -1.0873 -0.8522
19182TIP3    H279038   4.143   4.541   3.851 -0.8654  0.7773  0.2061
19183TIP3   OH279039   3.702   0.425   4.929  0.2670  1.0428  0.6964
19183TIP3    H179040   3.751   0.449   5.007  0.4753  1.0128  0.5740
19183TIP3    H279041   3.666   0.339   4.948  0.3706  1.0083  0.7328
19184TIP3   OH279042   6.426   2.885   4.219 -0.1542  0.1174  0.8044
19184TIP3    H179043   6.500   2.848   4.267  0.0332  1.0711  1.2690
19184TIP3    H279044   6.463   2.958   4.170 -0.4457 -0.5237 -0.3978
19185TIP3   OH279045   0.042   5.855  12.409  0.1421 -0.1554 -0.3698
19185TIP3    H179046  -0.045   5.858  12.370 -0.0678  2.3422  0.1492
19185TIP3    H279047   0.091   5.792  12.355 -1.6170 -0.7396 -1.3630
19186TIP3   OH279048   0.697   7.140   3.906 -0.0889 -0.0397  0.0059
19186TIP3    H179049   0.782   7.095   3.896 -1.0053 -2.6591  2.5650
19186TIP3    H279050   0.720   7.233   3.909  2.5303 -0.5552 -0.7219
19187TIP3   OH279051   1.274   3.425   4.759  0.4633 -0.5232  0.5840
19187TIP3    H179052   1.339   3.443   4.691  0.8288 -1.5387  0.6557
19187TIP3    H279053   1.196   3.400   4.711 -0.2488  1.6819  0.4549
19188TIP3   OH279054   6.154   1.335   2.765  0.2291  0.7579  1.1392
19188TIP3    H179055   6.101   1.257   2.784 -1.4540  0.4082 -3.6306
19188TIP3    H279056   6.100   1.408   2.793 -1.6413  0.2880 -0.9259
19189TIP3   OH279057   6.028   5.787   4.777  0.0270  0.3652 -0.1719
19189TIP3    H179058   6.121   5.802   4.794  0.1859  1.0117 -1.5084
19189TIP3    H279059   6.020   5.791   4.682 -1.3733  0.3786 -0.0671
19190TIP3   OH279060   3.657   2.961   2.362 -0.6376 -0.0126 -0.0189
19190TIP3    H179061   3.641   2.869   2.383 -1.3106 -0.1253 -0.9580
19190TIP3    H279062   3.732   2.959   2.303 -0.7527  0.0161 -0.1683
19191TIP3   OH279063   2.074   4.741   1.773  0.4314  0.3738 -0.4139
19191TIP3    H179064   2.035   4.655   1.792 -0.5852  0.8555 -0.2489
19191TIP3    H279065   2.015   4.781   1.709 -0.1164  1.6729  0.8473
19192TIP3   OH279066   5.072   2.003   2.731  0.6158  0.2915  0.7156
19192TIP3    H179067   5.149   2.032   2.683  0.0075  1.4568  0.4074
19192TIP3    H279068   5.006   2.071   2.715  0.1349  0.2988  2.5179
19193TIP3   OH279069   0.099   0.049   2.265 -0.2584  0.3304  0.3727
19193TIP3    H179070   0.128  -0.019   2.325  1.7692  0.6953 -0.1377
19193TIP3    H279071   0.124   0.018   2.178 -1.1935  0.7957 -0.0849
19194TIP3   OH279072   4.118   4.716   5.684 -0.2054  0.5267  0.0362
19194TIP3    H179073   4.099   4.642   5.627 -1.7905  1.3879 -0.6280
19194TIP3    H279074   4.086   4.690   5.770  1.9705 -0.6808  0.5533
19195TIP3   OH279075   5.564   0.278   3.235 -0.4863  0.1092 -0.2869
19195TIP3    H179076   5.648   0.311   3.203 -0.1225 -2.0129 -1.7807
19195TIP3    H279077   5.552   0.195   3.187 -1.8977 -1.2474  2.2290
19196TIP3   OH279078   4.274   7.052   0.354 -0.0760 -0.0849  0.5191
19196TIP3    H179079   4.210   7.038   0.285  1.4307  0.6031 -1.0806
19196TIP3    H279080   4.301   7.143   0.343  2.3263 -0.7829  0.0979
19197TIP3   OH279081   6.264   6.975  15.005 -0.0424  0.0764 -0.0221
19197TIP3    H179082   6.232   6.885  15.009  0.9064 -0.3394 -1.0641
19197TIP3    H279083   6.356   6.969  15.030 -0.0116  0.7772  0.0590
19198TIP3   OH279084   6.308   3.759   0.946  0.2984 -0.5489 -0.0505
19198TIP3    H179085   6.384   3.757   0.887 -0.3130 -1.9665 -0.8570
19198TIP3    H279086   6.342   3.793   1.028  1.4847  0.2153 -0.8277
19199TIP3   OH279087   6.146   2.766   4.672  0.1710  0.0327 -0.0282
19199TIP3    H179088   6.143   2.734   4.762  0.6243 -1.3639 -0.4870
19199TIP3    H279089   6.064   2.737   4.633  0.7475 -0.9086 -0.5539
19200TIP3   OH279090   4.734   2.123   4.794 -0.2419  0.4454 -0.6168
19200TIP3    H179091   4.693   2.175   4.863  1.4062  1.4630 -0.3357
19200TIP3    H279092   4.774   2.188   4.736  3.6908 -0.3612  0.8711
19201TIP3   OH279093   4.344   6.768   1.330  0.0476  0.8935 -0.1865
19201TIP3    H179094   4.373   6.686   1.290  0.1404  0.1683  1.3312
19201TIP3    H279095   4.345   6.831   1.257  1.0198 -0.1788 -1.1475
19202TIP3   OH279096   6.043   5.962   3.900 -0.1725  0.1673 -0.0041
19202TIP3    H179097   6.041   6.023   3.827 -1.7003  0.6957  0.4299
19202TIP3    H279098   5.996   5.885   3.868  2.3471 -1.1390 -0.7904
19203TIP3   OH279099   3.013   0.461   4.579 -0.0289 -0.1871  0.5347
19203TIP3    H179100   2.928   0.421   4.599 -0.1119 -1.0825 -1.4269
19203TIP3    H279101   3.077   0.403   4.621 -0.2723 -1.1088 -0.3180
19204TIP3   OH279102   0.424   2.457   5.028  0.1027  0.1969 -0.3394
19204TIP3    H179103   0.450   2.514   5.101  2.7192 -0.5896 -0.5413
19204TIP3    H279104   0.449   2.507   4.950  1.4229 -0.7272 -0.5411
19205TIP3   OH279105   3.794   2.949   4.649  0.2603  0.2428  0.4435
19205TIP3    H179106   3.866   2.930   4.710  1.1250 -2.0575 -1.1372
19205TIP3    H279107   3.715   2.931   4.700  0.9704 -2.6250  0.7272
19206TIP3   OH279108   4.204   0.372   4.292  0.1793 -0.3171 -0.7869
19206TIP3    H179109   4.273   0.436   4.308  0.7022 -0.9965 -0.2798
19206TIP3    H279110   4.142   0.417   4.235 -0.7302  1.5042  1.4904
19207TIP3   OH279111   5.131   3.545   5.297  0.7379  0.5061 -0.2686
19207TIP3    H179112   5.043   3.508   5.297  0.2878  1.3231  2.6141
19207TIP3    H279113   5.186   3.478   5.256 -0.7204 -1.4000  0.7506
19208TIP3   OH279114   5.361   1.880  14.999 -0.3902 -0.4439 -0.1588
19208TIP3    H179115   5.379   1.799  15.046 -2.2614 -1.5065 -1.1498
19208TIP3    H279116   5.273   1.869  14.964 -0.8746  2.1816 -0.0364
19209TIP3   OH279117   7.112   2.129   5.627  0.8220 -0.0071 -0.1408
19209TIP3    H179118   7.054   2.062   5.591  0.4283  0.3016 -0.0875
19209TIP3    H279119   7.105   2.120   5.722  0.1455  0.6337 -0.1241
19210TIP3   OH279120   4.711   1.521   5.379 -0.2989 -0.4317  0.3726
19210TIP3    H179121   4.674   1.571   5.452 -1.8011 -0.8390 -0.0561
19210TIP3    H279122   4.634   1.490   5.330  0.5814 -2.4767  0.1610
19211TIP3   OH279123   5.215   6.530  14.760 -0.7860 -0.2634  0.1998
19211TIP3    H179124   5.297   6.552  14.805 -0.4812 -0.5642 -0.1960
19211TIP3    H279125   5.242   6.509  14.671 -1.4657  1.0510 -0.3448
19212TIP3   OH279126   0.794   1.728   5.065 -0.4999 -0.2179 -0.4255
19212TIP3    H179127   0.766   1.805   5.115  0.7328 -0.8852  1.3858
19212TIP3    H279128   0.842   1.764   4.991 -1.5965  0.7772 -0.6932
19213TIP3   OH279129   5.298   4.409   4.463 -0.3092  0.2041  0.0912
19213TIP3    H179130   5.223   4.356   4.436 -0.5089  0.7523 -0.4484
19213TIP3    H279131   5.306   4.392   4.557 -1.9690  1.1770  0.4504
19214TIP3   OH279132   1.414   6.063  13.817 -0.7172 -0.0314 -0.5088
19214TIP3    H179133   1.324   6.046  13.787 -0.2106 -1.4920 -1.2973
19214TIP3    H279134   1.409   6.150  13.858 -2.8575 -0.8136  1.0943
19215TIP3   OH279135   1.493   0.631   3.629  0.2469 -0.3589 -0.6165
19215TIP3    H179136   1.419   0.677   3.589  0.6289  1.0481  0.2130
19215TIP3    H279137   1.463   0.540   3.637 -2.4560  0.5813  2.0023
19216TIP3   OH279138   1.238   1.460   4.257 -0.4124 -0.3151 -0.0577
19216TIP3    H179139   1.170   1.442   4.323 -1.4367  1.4281 -0.5696
19216TIP3    H279140   1.197   1.434   4.174 -0.1701  0.0309 -0.2868
19217TIP3   OH279141   6.856   4.198   4.840 -0.2945  0.1377  0.8732
19217TIP3    H179142   6.814   4.124   4.884  1.9862  0.2343  3.5736
19217TIP3    H279143   6.935   4.161   4.800 -0.4533  0.6882  0.0375
19218TIP3   OH279144   4.030   3.053   0.835  0.1206 -0.1574 -0.1080
19218TIP3    H179145   4.115   3.088   0.861 -0.0268  0.5959 -0.6123
19218TIP3    H279146   4.004   3.106   0.759 -0.7827 -0.3956  0.0230
19219TIP3   OH279147   5.371   0.221   2.979 -0.3348 -0.7565  0.6044
19219TIP3    H179148   5.299   0.166   2.948  1.0467 -1.7666 -0.9248
19219TIP3    H279149   5.420   0.165   3.039 -1.2525  0.2223  2.3730
19220TIP3   OH279150   0.523   5.194   4.494  0.1642 -0.2400  0.7931
19220TIP3    H179151   0.459   5.125   4.477  1.5123 -1.1743 -0.7578
19220TIP3    H279152   0.604   5.147   4.514  0.8343  0.8955  0.8394
19221TIP3   OH279153   0.057   5.390   5.661  0.1116 -0.2046  0.0805
19221TIP3    H179154  -0.024   5.349   5.630  0.2465  0.0714 -0.6645
19221TIP3    H279155   0.042   5.484   5.650  0.1012 -0.0904  1.0303
19222TIP3   OH279156   4.162   2.431   3.649  0.2487  0.2968  0.3447
19222TIP3    H179157   4.243   2.416   3.699 -0.7634 -1.0673  1.6561
19222TIP3    H279158   4.175   2.516   3.608  1.3392  1.2771  2.5586
19223TIP3   OH279159   3.052   4.799   0.783  0.1708  0.4648 -0.3532
19223TIP3    H179160   3.113   4.823   0.714 -0.2022 -1.5766 -1.4732
19223TIP3    H279161   3.105   4.793   0.862  0.5635  3.0854 -0.3333
19224TIP3   OH279162   3.997   1.135   2.720  0.1362  0.5210  0.0458
19224TIP3    H179163   3.973   1.225   2.743 -2.1321  0.2423 -0.8747
19224TIP3    H279164   4.063   1.111   2.784 -0.2939  2.3385  1.2819
19225TIP3   OH279165   0.425   5.088   5.526 -0.2615  0.3241 -0.4344
19225TIP3    H179166   0.361   5.027   5.563  0.3957 -1.4152 -1.9982
19225TIP3    H279167   0.499   5.085   5.586 -1.0978  1.3924  0.7137
19226TIP3   OH279168   6.307   3.570   4.157 -0.2148 -0.0475  0.1380
19226TIP3    H179169   6.321   3.607   4.069 -1.3425  1.8162  0.6707
19226TIP3    H279170   6.224   3.609   4.185 -0.0125 -0.8404  1.9366
19227TIP3   OH279171   5.968   5.119   1.557 -0.2209 -0.6725 -0.1703
19227TIP3    H179172   6.056   5.083   1.550 -0.4211 -0.9724 -1.3256
19227TIP3    H279173   5.961   5.146   1.648  1.3148  0.0234 -0.2271
19228TIP3   OH279174   0.550   3.165   3.507 -0.0077 -0.1133  0.0050
19228TIP3    H179175   0.533   3.113   3.586 -1.7782  0.3348 -0.0353
19228TIP3    H279176   0.554   3.100   3.436 -0.7820 -0.3242  0.1470
19229TIP3   OH279177   4.512   0.758  13.309  0.2609 -0.0797  0.3892
19229TIP3    H179178   4.578   0.696  13.339  1.8336  0.8965 -0.8494
19229TIP3    H279179   4.562   0.838  13.290 -1.0061  0.2324 -2.0477
19230TIP3   OH279180   7.164   1.012   3.940 -0.1086  0.4783 -0.1149
19230TIP3    H179181   7.179   0.941   4.002  1.2732 -0.2152 -1.1880
19230TIP3    H279182   7.122   1.081   3.992 -0.1437 -0.5525  1.2803
19231TIP3   OH279183   1.985   4.548   4.330 -0.4069  0.6948 -0.0482
19231TIP3    H179184   1.979   4.577   4.421  0.5537  1.2324 -0.1396
19231TIP3    H279185   2.033   4.618   4.285  2.1227 -1.0003 -0.2400
19232TIP3   OH279186   5.062   6.676   2.426 -0.0783  0.9754 -0.0375
19232TIP3    H179187   4.997   6.605   2.422  0.4502  0.5161 -0.9837
19232TIP3    H279188   5.138   6.637   2.469  0.6972  0.5223 -1.7155
19233TIP3   OH279189   3.730   6.280   4.745 -0.1764 -0.1926 -0.1960
19233TIP3    H179190   3.721   6.375   4.742 -1.8771 -0.3166  0.1858
19233TIP3    H279191   3.824   6.265   4.755  0.0230  1.4677  0.7184
19234TIP3   OH279192   2.674   5.876   3.426  0.5070 -0.4636 -0.9545
19234TIP3    H179193   2.761   5.870   3.386  0.5576  2.1342 -1.4030
19234TIP3    H279194   2.646   5.967   3.410 -1.2571 -0.5168  1.3141
19235TIP3   OH279195   3.723   3.395   3.087  0.2827 -0.2082  0.3723
19235TIP3    H179196   3.690   3.467   3.141  1.7238  0.1341  0.8409
19235TIP3    H279197   3.813   3.419   3.066 -0.1223 -0.5014 -1.9448
19236TIP3   OH279198   4.208   0.804  15.080  0.3419 -0.1543 -0.7188
19236TIP3    H179199   4.201   0.896  15.055  2.4014  0.4445  0.6906
19236TIP3    H279200   4.169   0.800  15.167  1.0910 -0.4070 -0.3886
19237TIP3   OH279201   1.391   1.024   1.345 -0.2656 -0.3215 -0.0231
19237TIP3    H179202   1.452   1.060   1.410 -0.1562 -0.3439 -0.1131
19237TIP3    H279203   1.439   1.027   1.262 -0.2000 -0.8097 -0.0068
19238TIP3   OH279204   5.867   4.465   2.568  0.0212 -0.6123  0.1704
19238TIP3    H179205   5.937   4.514   2.610  0.7679 -2.4412  1.1975
19238TIP3    H279206   5.812   4.436   2.640 -1.7492  0.6373 -0.6095
19239TIP3   OH279207   2.505   1.458   4.585  0.2841  0.6458  0.0007
19239TIP3    H179208   2.478   1.449   4.676 -0.3067  1.6247 -0.0659
19239TIP3    H279209   2.475   1.545   4.559 -0.1919  0.1152 -1.3371
19240TIP3   OH279210   0.074   3.301   4.585  0.7416 -0.0554  0.1170
19240TIP3    H179211   0.138   3.369   4.564  0.7434  0.2884  1.1836
19240TIP3    H279212  -0.010   3.339   4.560  0.9615 -0.7948 -2.0033
19241TIP3   OH279213   1.820   0.817   4.566 -0.9412  0.3603 -0.1007
19241TIP3    H179214   1.780   0.766   4.495 -0.6095 -1.4779  0.9766
19241TIP3    H279215   1.810   0.762   4.644  1.0357  1.1624  0.7812
19242TIP3   OH279216   5.474   2.677   1.379  0.0342 -0.0927  0.5134
19242TIP3    H179217   5.489   2.680   1.473 -2.8549 -1.0373  1.0973
19242TIP3    H279218   5.562   2.672   1.341  1.3415  1.8171  3.0349
19243TIP3   OH279219   6.208   6.100   4.520  0.4048  0.4822  0.5180
19243TIP3    H179220   6.188   6.009   4.545 -0.2360  0.8392  1.3477
19243TIP3    H279221   6.142   6.123   4.456  1.4907 -0.1247 -0.8741
19244TIP3   OH279222   2.379   5.523   1.913 -0.2648 -0.0470 -0.1696
19244TIP3    H179223   2.343   5.435   1.909 -1.2464  0.2824  0.9529
19244TIP3    H279224   2.303   5.580   1.914  0.3460  0.9229 -2.2890
19245TIP3   OH279225   4.520   5.527   4.299  0.1012 -0.1048  0.2962
19245TIP3    H179226   4.587   5.573   4.349  0.0012 -0.1624  0.4843
19245TIP3    H279227   4.551   5.436   4.293  0.1388 -0.0866  0.2059
19246TIP3   OH279228   1.144   6.526   0.454 -0.2429 -0.1567 -0.1330
19246TIP3    H179229   1.193   6.572   0.386 -0.5376 -1.2247 -1.1074
19246TIP3    H279230   1.095   6.595   0.500  0.4154  0.6489 -0.6180
19247TIP3   OH279231   5.105   1.486   4.212 -0.2916  0.1817  0.2409
19247TIP3    H179232   5.159   1.413   4.183  0.3132  0.5005  0.5405
19247TIP3    H279233   5.166   1.560   4.216 -0.6371  0.4262  1.0879
19248TIP3   OH279234   7.092   2.356   5.028 -0.4790 -0.5126 -0.0818
19248TIP3    H179235   7.002   2.387   5.022 -0.5443  0.1196  2.8661
19248TIP3    H279236   7.144   2.421   4.981 -1.4897 -0.7722 -1.6234
19249TIP3   OH279237   5.736   0.543   2.760 -0.0348  0.1944  0.5380
19249TIP3    H179238   5.679   0.474   2.793 -1.1495  1.1004  0.5760
19249TIP3    H279239   5.695   0.625   2.788 -0.5260  0.9986 -2.1548
19250TIP3   OH279240   6.126   0.554   5.117  0.3505 -0.0981 -0.6315
19250TIP3    H179241   6.034   0.577   5.131  0.5474  0.2559  0.1126
19250TIP3    H279242   6.142   0.575   5.025 -0.7766 -1.8013 -1.2630
19251TIP3   OH279243   5.681   3.525   4.011  0.5757  0.0329 -0.0849
19251TIP3    H179244   5.674   3.553   3.920  0.1073 -1.5508 -0.5522
19251TIP3    H279245   5.596   3.484   4.030  1.0328 -0.5453  0.7535
19252TIP3   OH279246   3.482   6.848   5.183  0.5067 -0.5621 -0.3506
19252TIP3    H179247   3.449   6.932   5.150 -1.1084  0.4686  3.2871
19252TIP3    H279248   3.566   6.870   5.224  0.1885 -0.7654  0.4164
19253TIP3   OH279249   6.213   3.968   6.209  0.1862  0.5334  0.1235
19253TIP3    H179250   6.253   3.885   6.232 -0.4633  0.3996  0.7950
19253TIP3    H279251   6.236   3.980   6.116  2.6552  0.9863  0.7160
19254TIP3   OH279252   3.805   5.076   3.920 -0.0109  0.3892  0.0645
19254TIP3    H179253   3.713   5.066   3.945  0.0954 -1.7325 -0.2007
19254TIP3    H279254   3.848   4.999   3.957  2.0613  2.2024  1.7455
19255TIP3   OH279255   5.319   0.898   5.405 -0.4126 -0.4852  0.4782
19255TIP3    H179256   5.379   0.963   5.441 -0.6185  1.3622 -2.1594
19255TIP3    H279257   5.251   0.888   5.472  0.5044  0.7784  1.6533
19256TIP3   OH279258   4.262   0.849   3.407  0.4392 -0.3453 -0.5013
19256TIP3    H179259   4.342   0.811   3.442 -0.4335 -1.9693 -0.1339
19256TIP3    H279260   4.276   0.943   3.410  1.1742 -0.4551  2.3963
19257TIP3   OH279261   1.828   6.401   0.986 -0.6181 -0.2798 -0.0228
19257TIP3    H179262   1.734   6.408   1.002 -0.4677  0.3508  0.6076
19257TIP3    H279263   1.837   6.423   0.893 -0.9617  1.0361  0.2220
19258TIP3   OH279264   6.060   6.687  15.331  0.9249  0.2758 -0.2082
19258TIP3    H179265   6.146   6.711  15.366  2.1105 -2.5700 -0.9080
19258TIP3    H279266   6.055   6.731  15.246  1.2056  1.2824  0.2818
19259TIP3   OH279267   3.991   6.854   2.231 -0.2668  0.4173  0.4183
19259TIP3    H179268   3.918   6.914   2.249 -0.9565 -0.0517 -0.7381
19259TIP3    H279269   4.047   6.862   2.308 -2.0894 -0.0362  1.8790
19260TIP3   OH279270   1.128   3.190   4.412 -0.7197 -0.1985 -0.2690
19260TIP3    H179271   1.180   3.122   4.369 -0.8813 -1.7021  1.7507
19260TIP3    H279272   1.077   3.144   4.478 -0.3979  1.9247  1.6156
19261TIP3   OH279273   3.380   0.361   4.950  0.6025 -0.4594  0.0771
19261TIP3    H179274   3.448   0.294   4.962 -0.0039 -1.4404 -1.5921
19261TIP3    H279275   3.410   0.435   5.002  2.6439 -1.0848 -0.1109
19262TIP3   OH279276   5.590   2.186   4.090  0.2478  0.3423  0.1771
19262TIP3    H179277   5.563   2.210   4.178  0.5956  1.9919 -0.1210
19262TIP3    H279278   5.532   2.238   4.033  2.0884  1.7734 -0.4967
19263TIP3   OH279279   6.297   6.568   2.725 -0.5758 -0.1754 -0.1217
19263TIP3    H179280   6.296   6.589   2.818  1.1510 -0.0350 -0.0933
19263TIP3    H279281   6.387   6.540   2.708 -0.3146  1.5990 -2.1304
19264TIP3   OH279282   4.544   2.041  13.518  0.1449  0.1196 -0.4101
19264TIP3    H179283   4.573   2.069  13.605  0.1945 -0.3769 -0.2617
19264TIP3    H279284   4.449   2.032  13.527  0.0248  1.0343 -0.6899
19265TIP3   OH279285   2.309   3.440  15.198  0.0288  0.5323  0.2687
19265TIP3    H179286   2.214   3.438  15.212 -0.1546  0.5994 -0.8304
19265TIP3    H279287   2.332   3.533  15.198 -0.1739  0.6035 -0.9650
19266TIP3   OH279288   3.464   2.267   6.106 -0.1448  0.7651 -0.3342
19266TIP3    H179289   3.525   2.342   6.109  0.0963  0.5425  1.0047
19266TIP3    H279290   3.517   2.195   6.071 -0.4953  1.2808 -2.0544
19267TIP3   OH279291   0.165   1.562   3.661  0.5524  0.1781  0.8366
19267TIP3    H179292   0.189   1.522   3.577  1.7473  0.2326  1.1374
19267TIP3    H279293   0.072   1.584   3.652 -0.2326 -2.7024  0.6454
19268TIP3   OH279294   0.488   2.302   1.341  0.0685 -0.3453 -0.1067
19268TIP3    H179295   0.564   2.329   1.393 -0.2273  1.6472 -0.6414
19268TIP3    H279296   0.522   2.235   1.282  0.8292 -1.2779  1.3070
19269TIP3   OH279297   2.586   4.485   0.284  0.3755 -0.0124  0.6731
19269TIP3    H179298   2.619   4.472   0.373 -0.5552 -0.5943  0.9362
19269TIP3    H279299   2.621   4.411   0.234  0.4832  0.0444  0.6628
19270TIP3   OH279300   0.772   2.871   0.448  0.0149 -0.3929  0.0108
19270TIP3    H179301   0.756   2.874   0.543 -0.2351 -0.8352 -0.0137
19270TIP3    H279302   0.867   2.876   0.440 -0.0627  2.2636  0.1587
19271TIP3   OH279303   6.076   3.695   2.795  0.3237 -0.3711 -0.1721
19271TIP3    H179304   6.093   3.748   2.717 -1.7647  0.4042 -0.1603
19271TIP3    H279305   6.087   3.756   2.868 -1.8142  0.0675 -0.1429
19272TIP3   OH279306   0.484   6.514   2.185 -0.0776  0.1380  0.3417
19272TIP3    H179307   0.468   6.595   2.233 -0.1761  0.0552  0.4492
19272TIP3    H279308   0.470   6.537   2.093  2.0109  0.8016  0.1375
19273TIP3   OH279309   4.812   7.166   9.973  0.3695 -0.3209  0.6284
19273TIP3    H179310   4.867   7.130  10.042 -0.7976 -2.8426  0.3481
19273TIP3    H279311   4.847   7.130   9.892 -1.0622 -1.1890  0.3621
19274TIP3   OH279312   3.625   4.789   2.014 -0.1846  0.6296  0.2786
19274TIP3    H179313   3.662   4.849   2.078  1.3671  0.5410 -0.4950
19274TIP3    H279314   3.530   4.795   2.028  0.0766  1.0661  2.1332
19275TIP3   OH279315   0.135   3.729   5.319 -0.4745  0.2385  0.3334
19275TIP3    H179316   0.098   3.685   5.395 -2.6948 -0.6193 -1.1380
19275TIP3    H279317   0.169   3.812   5.353 -1.3453 -0.1551  2.2574
19276TIP3   OH279318   0.529   3.260   2.197  0.2701 -0.0688  0.7390
19276TIP3    H179319   0.533   3.352   2.170  0.6338  0.1062  1.3800
19276TIP3    H279320   0.584   3.255   2.274  1.5422 -1.1520 -0.1958
19277TIP3   OH279321   4.983   5.408   4.309  0.3387 -0.2717 -0.6047
19277TIP3    H179322   5.065   5.448   4.337  0.6441 -1.5320  0.3925
19277TIP3    H279323   5.009   5.323   4.273 -0.5725 -0.9830  0.3566
19278TIP3   OH279324   6.438   4.455   5.742  0.5115 -0.1832 -0.8961
19278TIP3    H179325   6.383   4.378   5.761 -0.1334  0.6025  0.6025
19278TIP3    H279326   6.519   4.418   5.709  0.2772 -1.5444 -0.0498
19279TIP3   OH279327   4.214   1.216   1.038 -0.5289 -0.6235  0.2686
19279TIP3    H179328   4.200   1.139   0.983  1.0521 -0.6187 -0.1774
19279TIP3    H279329   4.149   1.207   1.108 -2.3277 -0.8552 -1.3198
19280TIP3   OH279330   5.133   5.052   1.812 -0.2003 -0.3464 -0.1770
19280TIP3    H179331   5.037   5.051   1.810 -0.3138  2.2212  0.2057
19280TIP3    H279332   5.159   4.997   1.738 -1.8214 -4.1070  1.8039
19281TIP3   OH279333   5.264   0.473   3.765  0.3587  0.4440 -0.2770
19281TIP3    H179334   5.169   0.460   3.761  0.5681 -1.6727  0.5664
19281TIP3    H279335   5.287   0.504   3.677 -1.1948  1.8757 -0.2304
19282TIP3   OH279336   3.020   6.488   3.204  0.1077 -0.4913 -0.9892
19282TIP3    H179337   3.067   6.560   3.247  1.7318 -2.2089  0.3132
19282TIP3    H279338   3.027   6.507   3.111 -2.7105  2.8777 -0.6991
19283TIP3   OH279339   1.887   1.935  14.681 -0.2823  0.4696  0.7973
19283TIP3    H179340   1.865   1.955  14.590 -1.3916  1.0817  1.1868
19283TIP3    H279341   1.804   1.909  14.722  0.3059 -0.3733  1.4958
19284TIP3   OH279342   5.768   0.433   3.132  0.3377  0.2612  0.3611
19284TIP3    H179343   5.709   0.508   3.142 -0.4104  0.1260 -2.1639
19284TIP3    H279344   5.768   0.416   3.038  0.8566 -2.6193  0.7887
19285TIP3   OH279345   4.445   2.553   1.536 -0.0281  0.3043 -0.4002
19285TIP3    H179346   4.486   2.627   1.581  0.8008 -1.0145  1.1307
19285TIP3    H279347   4.355   2.553   1.566 -0.0281  0.6952 -0.4038
19286TIP3   OH279348   4.233   0.176   4.994 -0.0958 -0.6826  0.3421
19286TIP3    H179349   4.165   0.243   4.993  0.1519 -0.3959 -1.8252
19286TIP3    H279350   4.201   0.111   5.056 -1.2968  0.4734  0.9842
19287TIP3   OH279351   3.267   4.232  13.542  0.0738  0.0846 -0.1113
19287TIP3    H179352   3.248   4.260  13.452  0.0937 -1.1071 -0.5021
19287TIP3    H279353   3.276   4.137  13.536  1.0878  0.0953  0.9801
19288TIP3   OH279354   5.613   0.417   5.517  0.2174  0.3248 -0.3867
19288TIP3    H179355   5.571   0.503   5.519 -0.0062  0.2037  0.5047
19288TIP3    H279356   5.656   0.413   5.432  0.6009  1.5058 -0.2614
19289TIP3   OH279357   6.165   3.187   4.997  0.5809  0.6641 -1.4560
19289TIP3    H179358   6.078   3.149   5.009  1.0842  0.1972  1.2931
19289TIP3    H279359   6.224   3.112   5.001  1.3566  1.3185  0.7985
19290TIP3   OH279360   0.585   6.699   1.474  0.4270  0.0219  0.3774
19290TIP3    H179361   0.643   6.744   1.535 -0.0636 -1.1258  1.7347
19290TIP3    H279362   0.555   6.621   1.521 -0.1116 -0.8236 -1.2647
19291TIP3   OH279363   3.670   0.077   0.043 -0.1332  0.5729 -0.5295
19291TIP3    H179364   3.692   0.120   0.125  0.6940  2.5418 -1.6998
19291TIP3    H279365   3.700  -0.014   0.053  1.4493  1.2015  0.7463
19292TIP3   OH279366   0.047   0.314   1.224  0.0712 -0.8393  0.0342
19292TIP3    H179367   0.025   0.391   1.278 -0.7793 -1.6146  0.8157
19292TIP3    H279368   0.103   0.350   1.154  1.7847  0.1037  1.7739
19293TIP3   OH279369   5.458   1.861   4.362  0.3271  0.9001 -0.3331
19293TIP3    H179370   5.542   1.895   4.331  1.8299  0.6817  3.1158
19293TIP3    H279371   5.452   1.891   4.452 -2.1345 -1.2429  0.3150
19294TIP3   OH279372   1.904   1.059   1.973  0.4972  0.0143 -0.6698
19294TIP3    H179373   1.998   1.068   1.990  1.1180 -1.5270 -2.8355
19294TIP3    H279374   1.885   1.127   1.909 -0.3132  1.4336  0.9903
19295TIP3   OH279375   5.295   5.616  14.893  0.3955 -0.5620  0.3695
19295TIP3    H179376   5.297   5.687  14.957  0.5832 -0.0200 -0.2293
19295TIP3    H279377   5.209   5.575  14.904  0.4487 -0.5084  1.0005
19296TIP3   OH279378   0.355   2.375  15.114  0.3249  0.3166  0.3165
19296TIP3    H179379   0.326   2.330  15.035  0.8252 -0.1688  0.4005
19296TIP3    H279380   0.431   2.324  15.144  1.7091  1.9451 -0.2932
19297TIP3   OH279381   6.320   1.327   0.207 -0.2628  0.2075 -0.4485
19297TIP3    H179382   6.233   1.286   0.211 -0.0364 -0.2800 -0.4146
19297TIP3    H279383   6.349   1.311   0.117  0.3984 -0.9171 -0.0513
19298TIP3   OH279384   4.055   2.226   5.097  0.7048  0.0616  0.1062
19298TIP3    H179385   4.052   2.190   5.186  1.3205 -0.6963 -0.1601
19298TIP3    H279386   4.138   2.193   5.061  0.9878  1.2606 -0.3794
19299TIP3   OH279387   3.202   4.259   0.758 -0.3574 -0.0215 -0.3108
19299TIP3    H179388   3.201   4.354   0.748 -0.7937 -0.0778 -0.8811
19299TIP3    H279389   3.148   4.227   0.685 -0.2426 -0.7018 -0.1035
19300TIP3   OH279390   1.183   6.139   4.352 -0.0772  0.1068  0.5221
19300TIP3    H179391   1.101   6.094   4.330  0.5144 -0.9943  0.4894
19300TIP3    H279392   1.201   6.112   4.442  0.3370  0.2115  0.4721
19301TIP3   OH279393   3.316   1.896   3.776 -0.3197  0.5732 -0.2888
19301TIP3    H179394   3.293   1.833   3.708 -1.5504 -0.6638  1.2016
19301TIP3    H279395   3.232   1.925   3.812  0.2873  0.3559  1.4081
19302TIP3   OH279396   3.103   2.765   5.763 -0.0174  0.2575 -0.5979
19302TIP3    H179397   3.129   2.703   5.831  1.6445  0.5079 -0.9587
19302TIP3    H279398   3.038   2.821   5.805  2.2650  1.5617  1.4506
19303TIP3   OH279399   5.752   1.848   2.402 -0.2081  0.0753 -0.2005
19303TIP3    H179400   5.789   1.888   2.480  1.6301 -1.3794 -0.2540
19303TIP3    H279401   5.732   1.921   2.344  2.5835  1.0302 -0.1200
19304TIP3   OH279402   1.701   0.009   5.332  0.3010 -0.0945 -0.3249
19304TIP3    H179403   1.743   0.082   5.377  1.1702 -0.3871 -0.6322
19304TIP3    H279404   1.625   0.047   5.289 -1.7476 -0.1124  2.9150
19305TIP3   OH279405   5.794   1.010   5.548  0.0851 -0.0202 -0.1732
19305TIP3    H179406   5.870   1.054   5.586 -0.6880  0.5774  0.7119
19305TIP3    H279407   5.747   0.974   5.623 -0.7129 -0.0627 -0.6828
19306TIP3   OH279408   0.211   5.034   3.602  0.2257 -0.3593  0.7840
19306TIP3    H179409   0.306   5.022   3.597  0.4103  1.3079 -1.6330
19306TIP3    H279410   0.182   5.033   3.510 -1.9731  0.0993  1.4139
19307TIP3   OH279411   6.661   4.008   1.958 -0.1700  0.1062  0.0586
19307TIP3    H179412   6.746   3.996   1.916  0.0134  0.2433  0.3857
19307TIP3    H279413   6.638   3.922   1.992 -0.8439 -0.2661 -1.2873
19308TIP3   OH279414   0.605   6.723   2.557  0.0701  0.2472 -0.0900
19308TIP3    H179415   0.665   6.660   2.597 -2.4839 -2.0149  0.5148
19308TIP3    H279416   0.649   6.751   2.477  1.0739 -2.9632 -0.8104
19309TIP3   OH279417   4.222   3.913   2.432  0.3586 -0.1112  0.7637
19309TIP3    H179418   4.169   3.942   2.358  0.6866 -2.4311 -0.4879
19309TIP3    H279419   4.280   3.987   2.451  0.2355  0.5657 -1.2745
19310TIP3   OH279420   1.822   5.828   1.790 -0.4959  0.1091 -0.0582
19310TIP3    H179421   1.808   5.906   1.844  0.2492  0.5215 -0.4621
19310TIP3    H279422   1.825   5.860   1.700 -2.5175 -0.6643 -0.4761
19311TIP3   OH279423   6.956   6.450   5.713 -0.4942 -0.7938  0.5400
19311TIP3    H179424   7.015   6.379   5.736 -0.5882 -0.7904  0.7915
19311TIP3    H279425   6.920   6.480   5.796 -2.5825 -2.2882  0.2648
19312TIP3   OH279426   1.113   4.383  13.721  0.1050 -0.3157 -0.3472
19312TIP3    H179427   1.188   4.425  13.762 -0.5918 -0.2718  0.9101
19312TIP3    H279428   1.106   4.298  13.763 -1.1815  0.0974  0.3270
19313TIP3   OH279429   2.886   5.627   4.439 -0.2712 -0.1385 -0.0637
19313TIP3    H179430   2.903   5.589   4.525  0.1253  0.1625 -0.0051
19313TIP3    H279431   2.972   5.660   4.410 -0.0506 -1.6645 -1.2766
19314TIP3   OH279432   4.054   0.889   4.205 -0.4759  0.0939 -0.0329
19314TIP3    H179433   4.024   0.798   4.208 -1.4446  0.3350 -1.3094
19314TIP3    H279434   3.974   0.941   4.203  0.0620  1.0277  1.3382
19315TIP3   OH279435   0.244   2.489   3.456  0.1220 -0.3991 -0.0923
19315TIP3    H179436   0.182   2.478   3.527 -1.9925  0.4029 -1.7015
19315TIP3    H279437   0.257   2.584   3.450 -0.3670 -0.3849 -1.2493
19316TIP3   OH279438   5.532   0.976   4.651 -0.3545 -0.4920  0.4894
19316TIP3    H179439   5.448   0.995   4.609  0.3145 -0.2839 -0.8343
19316TIP3    H279440   5.523   1.009   4.740 -1.8876 -1.0601  0.5687
19317TIP3   OH279441   2.355   7.112   5.279  0.2768  0.2994  0.5513
19317TIP3    H179442   2.347   7.207   5.273  1.3176  0.5113  2.0124
19317TIP3    H279443   2.266   7.081   5.297 -0.2203  0.8872 -0.7215
19318TIP3   OH279444   1.929   3.660   3.628  0.0762  0.0365 -0.0133
19318TIP3    H179445   1.969   3.629   3.709 -0.4450  0.6630  0.4980
19318TIP3    H279446   1.980   3.738   3.604  0.0653  0.0042 -0.1434
19319TIP3   OH279447   0.131   1.404   0.377  0.1143 -0.1677  0.0922
19319TIP3    H179448   0.199   1.467   0.355  0.7792 -1.1159 -0.6473
19319TIP3    H279449   0.084   1.444   0.450  2.6815 -0.3065  1.9601
19320TIP3   OH279450   4.582   4.767   4.959  0.2517 -0.4206  0.1015
19320TIP3    H179451   4.617   4.742   4.873  1.4608  0.0880  0.4162
19320TIP3    H279452   4.659   4.799   5.007 -0.6349  0.5462  0.9153
19321TIP3   OH279453   6.186   7.093   2.123 -0.7712  0.2162 -0.1026
19321TIP3    H179454   6.189   7.022   2.187 -0.0957  0.0027 -0.3728
19321TIP3    H279455   6.096   7.125   2.128 -0.7273  0.2161  0.9731
19322TIP3   OH279456   3.258   6.991  15.099 -0.3587 -0.4871 -0.1483
19322TIP3    H179457   3.310   7.055  15.148  1.1621  0.1790 -2.4750
19322TIP3    H279458   3.218   6.936  15.167  0.9328  0.8845  1.8351
19323TIP3   OH279459   6.918   5.631   1.848 -0.3054  0.4997  0.3130
19323TIP3    H179460   6.934   5.690   1.923 -1.3568  1.2773 -0.0559
19323TIP3    H279461   6.826   5.607   1.855 -0.7920  1.6592 -1.4635
19324TIP3   OH279462   0.362   0.081   4.353 -0.2581  0.3837  0.3503
19324TIP3    H179463   0.449   0.098   4.388 -0.3178  2.2038 -0.2759
19324TIP3    H279464   0.302   0.105   4.424 -0.2845  0.0022  0.4609
19325TIP3   OH279465   6.661   5.903   4.140 -0.0781  0.2924  0.5395
19325TIP3    H179466   6.726   5.956   4.186  1.9206 -1.3963 -0.1984
19325TIP3    H279467   6.619   5.964   4.079  2.4777  1.0053 -0.6399
19326TIP3   OH279468   2.813   3.442   4.928 -0.1316  0.7166  0.2753
19326TIP3    H179469   2.759   3.427   4.850  3.2311  1.0082 -2.3354
19326TIP3    H279470   2.751   3.473   4.994 -3.2057  0.4510 -2.2276
19327TIP3   OH279471   3.678   3.736   1.639  0.2400 -0.4230 -0.3579
19327TIP3    H179472   3.651   3.817   1.683  0.0138 -0.6270 -0.1180
19327TIP3    H279473   3.731   3.690   1.704  0.1658 -0.5816 -0.4096
19328TIP3   OH279474   1.395   3.974   3.955  0.1523 -0.1562  0.4209
19328TIP3    H179475   1.339   3.912   3.909 -0.0766  0.4940 -0.1907
19328TIP3    H279476   1.472   3.983   3.899  0.1201  0.2186  0.4336
19329TIP3   OH279477   6.940   0.685   4.349  0.2857  0.4557 -0.7953
19329TIP3    H179478   6.958   0.693   4.442  0.3573 -0.5040 -0.7214
19329TIP3    H279479   6.882   0.609   4.341 -0.6123  1.1710 -1.4281
19330TIP3   OH279480   1.771   6.206   2.489 -0.8239 -0.1312 -0.5347
19330TIP3    H179481   1.742   6.297   2.487 -0.4387  0.0711  1.3080
19330TIP3    H279482   1.740   6.173   2.574  1.4661 -0.8581  0.0962
19331TIP3   OH279483   3.865   4.792   1.752  0.5904 -0.6971  0.2289
19331TIP3    H179484   3.775   4.774   1.781  1.0323 -0.0672  2.1779
19331TIP3    H279485   3.859   4.872   1.700 -0.0246 -0.9168 -0.0459
19332TIP3   OH279486   0.901   0.750   3.211 -0.0960 -0.2313  0.0943
19332TIP3    H179487   0.822   0.804   3.202 -1.1820 -1.5388  1.3488
19332TIP3    H279488   0.879   0.687   3.280  2.0622 -0.6238  0.4894
19333TIP3   OH279489   0.668   2.982   4.624  0.4453  0.3418  0.1462
19333TIP3    H179490   0.719   3.046   4.575 -0.9819  1.3016 -0.1608
19333TIP3    H279491   0.616   3.034   4.685 -0.6224 -0.5299  0.0168
19334TIP3   OH279492   0.878   1.104   5.462  0.0548  0.2628 -0.1037
19334TIP3    H179493   0.926   1.128   5.383  0.4001 -0.2849 -0.0706
19334TIP3    H279494   0.946   1.084   5.526 -0.1739  2.7141  1.0185
19335TIP3   OH279495   0.070   0.138   4.510 -0.0334  0.1139 -0.0503
19335TIP3    H179496   0.076   0.226   4.547 -0.9007  1.2556 -2.4119
19335TIP3    H279497   0.005   0.146   4.440  1.0511 -2.0275 -1.3955
19336TIP3   OH279498   0.244   2.971   4.134  0.0346  0.1914 -0.2614
19336TIP3    H179499   0.197   2.887   4.132 -0.4532  0.4716 -0.9032
19336TIP3    H279500   0.227   3.007   4.221  0.7975 -0.6750  0.2722
19337TIP3   OH279501   5.980   3.594  15.039 -0.5069  0.0741  0.0532
19337TIP3    H179502   5.891   3.559  15.050 -1.2454  1.9245  0.3317
19337TIP3    H279503   6.007   3.564  14.952 -3.3618  3.3553 -2.2566
19338TIP3   OH279504   1.518   1.224   0.096 -0.3310 -0.4857  0.6033
19338TIP3    H179505   1.610   1.198   0.103 -0.2289 -1.2410 -2.3953
19338TIP3    H279506   1.519   1.319   0.102  0.3631 -0.5578  2.4598
19339TIP3   OH279507   5.204   1.567   1.651  0.2181  0.6461 -0.0914
19339TIP3    H179508   5.200   1.635   1.583  0.6146  2.1700  1.3307
19339TIP3    H279509   5.115   1.563   1.686  0.0103 -0.1507 -0.6778
19340TIP3   OH279510   6.368   4.470   4.955  0.2615 -0.3366 -0.5533
19340TIP3    H179511   6.399   4.382   4.937  0.1945 -1.2364  3.0721
19340TIP3    H279512   6.444   4.526   4.937  0.5367 -1.1428 -2.1355
19341TIP3   OH279513   7.147   1.345   5.519  0.4531  0.1047 -0.1081
19341TIP3    H179514   7.202   1.422   5.534 -1.3135  1.6229 -0.9189
19341TIP3    H279515   7.095   1.338   5.599  1.1944 -0.7947  0.3081
19342TIP3   OH279516   3.971   7.110   0.954  0.6568 -0.8249  0.1289
19342TIP3    H179517   3.876   7.114   0.967  0.8541  1.5673  1.4684
19342TIP3    H279518   4.001   7.046   1.018 -0.0081 -1.3771 -0.0977
19343TIP3   OH279519   2.137   6.166   0.072 -0.5458  0.2715 -0.1637
19343TIP3    H179520   2.054   6.125   0.096 -0.3110 -0.3252 -0.3531
19343TIP3    H279521   2.128   6.184  -0.022 -0.2318 -0.3647 -0.3234
19344TIP3   OH279522   6.751   6.922   4.230 -0.2316  0.0703  0.3998
19344TIP3    H179523   6.770   6.971   4.150  0.5624  0.4235  0.7984
19344TIP3    H279524   6.732   6.833   4.200 -1.0559  0.4634 -0.2716
19345TIP3   OH279525   1.171   1.136   5.497 -0.6630  0.5716 -0.3004
19345TIP3    H179526   1.169   1.131   5.592 -0.0925  0.2880 -0.3019
19345TIP3    H279527   1.253   1.179   5.476  1.5424 -3.3552 -0.7735
19346TIP3   OH279528   1.141   6.888   2.954 -0.6074 -0.0112  0.0104
19346TIP3    H179529   1.097   6.817   2.906 -1.4851  0.5985 -0.0939
19346TIP3    H279530   1.110   6.968   2.912  1.8531  0.4263 -1.1665
19347TIP3   OH279531   4.678   0.906   5.305  0.4833 -0.6658  0.3764
19347TIP3    H179532   4.687   0.868   5.217  0.0182 -0.3006  0.1638
19347TIP3    H279533   4.759   0.954   5.319  0.2504 -0.0991 -0.1719
19348TIP3   OH279534   2.908   1.659   0.494  0.4160  0.3594  0.1178
19348TIP3    H179535   2.920   1.661   0.399  0.8373  0.2326  0.1663
19348TIP3    H279536   2.907   1.566   0.517 -2.2961  0.2800 -0.0700
19349TIP3   OH279537   2.507   1.068   4.794  0.0033 -0.5957  0.6013
19349TIP3    H179538   2.438   1.005   4.813 -0.3078 -0.2003  0.7909
19349TIP3    H279539   2.584   1.035   4.841 -0.2435 -0.6575  0.9651
19350TIP3   OH279540   4.597   0.677   4.243 -0.0348 -0.2208  0.1992
19350TIP3    H179541   4.610   0.640   4.156  0.8970  1.3651 -0.3816
19350TIP3    H279542   4.684   0.671   4.284 -0.0178  0.7249  0.3191
19351TIP3   OH279543   5.325   3.962   5.366  0.5883 -0.0352 -0.7454
19351TIP3    H179544   5.348   4.051   5.394  2.3734  0.1886 -2.6783
19351TIP3    H279545   5.407   3.914   5.368  0.5264 -0.4726 -3.5969
19352TIP3   OH279546   2.690   5.988   4.643 -0.1475  0.6893  0.2227
19352TIP3    H179547   2.645   5.960   4.563  1.0866  1.1005 -0.6515
19352TIP3    H279548   2.720   5.907   4.683 -1.1690  0.4484  0.5353
19353TIP3   OH279549   5.676   7.107   5.468 -0.0187  0.0874  0.6408
19353TIP3    H179550   5.618   7.060   5.529 -2.5082  2.4418  0.2800
19353TIP3    H279551   5.733   7.159   5.525 -1.1610  0.9537  1.0343
19354TIP3   OH279552   2.345   0.442   5.569  0.1766  0.3012  0.0236
19354TIP3    H179553   2.322   0.375   5.505  3.3454 -1.4659  0.5831
19354TIP3    H279554   2.282   0.430   5.639  1.4845 -3.2178  0.7876
19355TIP3   OH279555   2.551   3.864   1.500 -0.2777  0.7006  0.4770
19355TIP3    H179556   2.464   3.828   1.517 -1.3193  2.1437 -1.3634
19355TIP3    H279557   2.542   3.958   1.518  0.0661  1.3515 -2.2436
19356TIP3   OH279558   2.307   4.842   2.554  0.3300 -0.4260  0.0304
19356TIP3    H179559   2.392   4.886   2.556  0.9978 -1.6557 -0.3951
19356TIP3    H279560   2.249   4.904   2.510  0.7355  0.8537  1.2433
19357TIP3   OH279561   4.558   3.583   5.179  0.0641  0.2634  0.1813
19357TIP3    H179562   4.499   3.600   5.252  0.3684 -1.8876  1.0229
19357TIP3    H279563   4.523   3.503   5.138  1.7654 -0.4810  0.0784
19358TIP3   OH279564   5.885   3.133   4.949  0.4699  0.1899 -0.1924
19358TIP3    H179565   5.820   3.170   4.888 -1.5685 -2.0666  0.4693
19358TIP3    H279566   5.834   3.104   5.024  2.5056 -0.2296  1.1086
19359TIP3   OH279567   4.320   0.851   5.061  0.2889 -0.1966  0.3144
19359TIP3    H179568   4.242   0.907   5.063 -0.5017 -1.2420 -0.3918
19359TIP3    H279569   4.339   0.833   5.153  1.0503  1.8577  0.6142
19360TIP3   OH279570   0.701   1.846  14.959 -0.2574 -0.5481 -0.3000
19360TIP3    H179571   0.620   1.895  14.947 -0.8324 -1.3547  0.1216
19360TIP3    H279572   0.725   1.817  14.871 -0.8508 -0.9268 -0.3483
19361TIP3   OH279573   1.875   2.218   4.160 -0.4170  0.1209 -0.2195
19361TIP3    H179574   1.908   2.282   4.097 -0.4336 -0.4338 -0.8140
19361TIP3    H279575   1.805   2.173   4.112 -1.0317  0.2908  0.5152
19362TIP3   OH279576   1.212   1.352   0.194  0.2842  0.9279 -0.5185
19362TIP3    H179577   1.226   1.257   0.196 -0.0314  0.8879  1.7054
19362TIP3    H279578   1.205   1.373   0.101 -1.4708 -1.4966 -1.0328
19363TIP3   OH279579   4.692   1.523   4.558  0.1998  0.0285  0.6560
19363TIP3    H179580   4.609   1.513   4.603  0.9807  0.4899  2.2626
19363TIP3    H279581   4.706   1.618   4.553 -0.1854  0.0280 -1.2215
19364TIP3   OH279582   0.118   6.712   5.211 -0.3135 -0.3676  0.0465
19364TIP3    H179583   0.095   6.630   5.168  0.3690 -0.1893 -0.6726
19364TIP3    H279584   0.124   6.776   5.140  2.5583 -0.4364  0.1187
19365TIP3   OH279585   1.298   5.798   4.764  0.0215  0.4049  0.0198
19365TIP3    H179586   1.383   5.757   4.781 -0.3764 -0.6116 -0.3860
19365TIP3    H279587   1.319   5.878   4.715  0.6779 -0.4812 -1.2021
19366TIP3   OH279588   0.819   3.458   0.349 -0.0500 -0.2207  0.4365
19366TIP3    H179589   0.814   3.500   0.264  0.4781 -0.1307  0.4442
19366TIP3    H279590   0.730   3.426   0.366 -0.6692  1.6313  0.8198
19367TIP3   OH279591   1.318   1.068   4.532  0.6131 -0.2170 -0.1620
19367TIP3    H179592   1.359   1.056   4.618  1.0630  0.7809 -0.2178
19367TIP3    H279593   1.386   1.048   4.469  0.5849  0.0138 -0.2690
19368TIP3   OH279594   0.706   5.488   2.347  0.2803 -0.4154 -0.2640
19368TIP3    H179595   0.743   5.551   2.409 -1.2761 -0.5975  0.9149
19368TIP3    H279596   0.726   5.402   2.385 -1.0560 -0.5205  0.2504
19369TIP3   OH279597   6.951   1.740   5.816  0.0664  0.1737  0.5806
19369TIP3    H179598   6.981   1.661   5.772  1.8760  0.8150  0.5769
19369TIP3    H279599   6.879   1.773   5.762  1.2048  0.0874 -1.0311
19370TIP3   OH279600   5.822   5.966  13.420  0.1918  0.2814 -0.0722
19370TIP3    H179601   5.785   6.006  13.498  2.3276  2.2093  0.0643
19370TIP3    H279602   5.887   5.903  13.453  0.0838  0.0547 -0.2900
19371TIP3   OH279603   6.424   2.676   3.185  0.2486 -0.7181  0.2070
19371TIP3    H179604   6.392   2.765   3.197  0.3629 -0.7829  1.1102
19371TIP3    H279605   6.515   2.679   3.217 -0.2585 -1.5086  1.8517
19372TIP3   OH279606   1.658   3.673   1.360 -1.1258  0.4237  0.0859
19372TIP3    H179607   1.690   3.719   1.437 -0.5541 -0.4579  0.3933
19372TIP3    H279608   1.736   3.656   1.307 -0.7440 -2.8825  1.4505
19373TIP3   OH279609   3.786   4.056   3.036  0.3777  1.1575 -0.1009
19373TIP3    H179610   3.741   4.141   3.038  1.4918  1.7863 -0.7798
19373TIP3    H279611   3.793   4.035   2.942 -3.4446 -1.6797  0.0042
19374TIP3   OH279612   0.066   3.411  14.852 -0.6486  0.0253 -0.2935
19374TIP3    H179613  -0.025   3.383  14.860 -0.3739 -0.6212  0.8863
19374TIP3    H279614   0.101   3.358  14.780 -0.2668 -2.4603  1.5996
19375TIP3   OH279615   5.994   4.363   3.058 -0.1868 -0.0500  0.2958
19375TIP3    H179616   6.044   4.297   3.011  0.1001  0.9650 -0.8566
19375TIP3    H279617   5.904   4.330   3.057  0.0593 -0.7267  0.2966
19376TIP3   OH279618   1.417   0.813   1.676 -0.3237  0.2215  0.4652
19376TIP3    H179619   1.322   0.809   1.681 -0.2984 -1.2017  0.1860
19376TIP3    H279620   1.438   0.785   1.586  0.3544  0.4109  0.5579
19377TIP3   OH279621   6.118   0.404   4.756 -0.4648 -0.5471 -0.2313
19377TIP3    H179622   6.093   0.489   4.793 -0.5600 -0.3009 -0.8585
19377TIP3    H279623   6.116   0.417   4.661 -1.7514 -1.5975 -0.3728
19378TIP3   OH279624   6.353   2.313   5.115 -0.5116 -0.3534 -0.3697
19378TIP3    H179625   6.300   2.239   5.085 -0.3780 -0.5841 -0.0508
19378TIP3    H279626   6.413   2.274   5.179 -0.0736 -0.0653 -0.6025
19379TIP3   OH279627   5.556   3.060   4.918  0.0984 -0.5595 -0.4716
19379TIP3    H179628   5.580   3.055   5.011  1.5710  0.0349 -0.7786
19379TIP3    H279629   5.513   3.145   4.909 -1.0538 -1.0886 -0.1502
19380TIP3   OH279630   1.469   6.450   5.045  0.2979  0.0145  0.0445
19380TIP3    H179631   1.465   6.378   4.982  0.8237 -1.2499  1.3963
19380TIP3    H279632   1.520   6.518   5.001 -0.5644 -0.2444 -1.4241
19381TIP3   OH279633   6.355   0.334   5.354 -0.1617 -0.1563 -0.5542
19381TIP3    H179634   6.360   0.422   5.318  1.3279 -0.5356 -1.3512
19381TIP3    H279635   6.446   0.305   5.361 -0.4664 -0.7652  1.9145
19382TIP3   OH279636   3.406   0.362   5.431 -0.2988 -0.4942  0.0973
19382TIP3    H179637   3.398   0.403   5.517 -1.2675  0.4370 -0.4149
19382TIP3    H279638   3.347   0.286   5.435  0.1970 -0.8641  0.4802
19383TIP3   OH279639   4.889   5.484   4.991  0.4910 -0.0208 -0.5709
19383TIP3    H179640   4.982   5.504   5.000  0.2446  0.7031  0.5064
19383TIP3    H279641   4.847   5.569   4.985 -0.1690 -0.3243 -0.3311
19384TIP3   OH279642   1.768   5.179   5.480 -0.0168 -0.0821 -0.4500
19384TIP3    H179643   1.859   5.186   5.509  0.3356  0.5924 -1.6483
19384TIP3    H279644   1.717   5.215   5.552  0.7044  0.0060  0.0250
19385TIP3   OH279645   2.061   7.087   5.400  0.1828 -0.3134  0.1247
19385TIP3    H179646   2.042   7.178   5.424  0.8998 -0.4621  1.3333
19385TIP3    H279647   1.983   7.058   5.353  0.0988  1.0391 -0.6323
19386TIP3   OH279648   2.952   3.685   3.783  0.0354 -0.5327 -0.0729
19386TIP3    H179649   3.026   3.627   3.802 -0.1566 -0.3879  1.1996
19386TIP3    H279650   2.974   3.767   3.827 -0.3924 -0.1332 -0.5993
19387TIP3   OH279651   2.843   4.165   5.676  0.2506 -0.0951  0.6726
19387TIP3    H179652   2.776   4.223   5.713 -0.4680 -1.6665  1.9562
19387TIP3    H279653   2.795   4.087   5.650  1.2733 -0.3432 -0.5642
19388TIP3   OH279654   2.543   0.626   2.506 -0.4572 -0.2570 -0.3140
19388TIP3    H179655   2.452   0.619   2.535 -0.4468  0.8825  0.0461
19388TIP3    H279656   2.539   0.688   2.432 -0.1817 -1.4253 -1.3447
19389TIP3   OH279657   2.750   2.144   1.072  0.4163  0.2840  0.1922
19389TIP3    H179658   2.748   2.137   0.977 -0.8815  0.6900  0.1663
19389TIP3    H279659   2.747   2.054   1.104  1.2682  0.1295 -0.1393
19390TIP3   OH279660   6.419   5.790   5.914  0.0485 -0.5495 -0.4594
19390TIP3    H179661   6.509   5.774   5.885  0.6664  1.0083  0.4632
19390TIP3    H279662   6.416   5.883   5.933 -1.9407 -0.4662 -0.9818
19391TIP3   OH279663   3.159   4.549   5.271  0.2960  0.1583 -0.7186
19391TIP3    H179664   3.159   4.543   5.367  1.6002  1.0802 -0.6251
19391TIP3    H279665   3.102   4.623   5.252 -0.6512 -0.5597 -0.7184
19392TIP3   OH279666   5.448   0.032   4.932 -0.1064 -0.4525 -0.6956
19392TIP3    H179667   5.495   0.089   4.992 -0.8147 -0.9849  0.3781
19392TIP3    H279668   5.508   0.023   4.857  0.9587 -0.1135  0.0882
19393TIP3   OH279669   5.126   6.674   2.718  0.8305 -0.4031  0.4959
19393TIP3    H179670   5.095   6.763   2.701  0.8039 -0.9044 -2.7001
19393TIP3    H279671   5.199   6.685   2.779 -0.3256  1.5957  1.6042
19394TIP3   OH279672   2.656   4.553   2.516  1.0550 -0.1414  0.0081
19394TIP3    H179673   2.565   4.553   2.487  0.6568 -1.2696  1.1740
19394TIP3    H279674   2.652   4.543   2.611  2.3796  1.4506  0.2851
19395TIP3   OH279675   6.573   2.645   3.849 -0.1218 -0.4680 -0.5138
19395TIP3    H179676   6.594   2.567   3.900 -0.7715  0.1367  0.7161
19395TIP3    H279677   6.566   2.614   3.758  1.0770 -1.5601 -0.2601
19396TIP3   OH279678   7.096   6.915   6.045 -0.2641  0.3773 -0.3047
19396TIP3    H179679   7.136   6.872   5.970  1.1200 -0.2966  0.7704
19396TIP3    H279680   7.004   6.892   6.039  0.0141 -0.5913 -1.1779
19397TIP3   OH279681   4.899   1.352   4.680 -0.7975 -0.0729  0.2021
19397TIP3    H179682   4.825   1.411   4.665 -0.1197  1.0136  0.9774
19397TIP3    H279683   4.974   1.395   4.639 -0.7304 -1.6014 -1.3662
19398TIP3   OH279684   0.388   2.028  12.830 -0.2316  0.3379  0.2152
19398TIP3    H179685   0.367   2.067  12.915  2.3634 -2.9240  2.6069
19398TIP3    H279686   0.344   1.943  12.831 -0.5390  0.4099 -1.9942
19399TIP3   OH279687   2.924   4.898   4.047  0.6108 -0.7399 -0.8555
19399TIP3    H179688   2.845   4.899   3.992  1.3158  1.1237 -1.9404
19399TIP3    H279689   2.890   4.898   4.136 -0.7126  1.1698 -1.2779
19400TIP3   OH279690   0.127   5.795   6.123  0.4307 -0.4614  0.0415
19400TIP3    H179691   0.047   5.844   6.105  1.2639  0.4681 -1.2853
19400TIP3    H279692   0.117   5.713   6.074  0.9949  0.3821 -1.5360
19401TIP3   OH279693   2.411   6.024   3.952 -0.0139 -0.1658 -0.5298
19401TIP3    H179694   2.335   6.033   4.010 -0.9460  0.0227 -1.7242
19401TIP3    H279695   2.377   6.046   3.865  1.3323 -0.4482 -1.1552
19402TIP3   OH279696   6.165   0.683   3.924 -0.2410  0.2860 -0.2021
19402TIP3    H179697   6.193   0.663   4.014 -1.4030  0.5999  0.2488
19402TIP3    H279698   6.246   0.684   3.873  0.5069  0.7018  0.9575
19403TIP3   OH279699   6.689   3.548   1.526 -0.2005 -0.2795 -0.0976
19403TIP3    H179700   6.637   3.524   1.450  0.5870 -2.0061 -0.1305
19403TIP3    H279701   6.777   3.517   1.507  0.0704 -0.5273  1.4114
19404TIP3   OH279702   0.775   2.796   1.108 -0.1195  0.0054  0.3131
19404TIP3    H179703   0.759   2.736   1.035  0.7098  0.2279 -0.0600
19404TIP3    H279704   0.869   2.793   1.122 -0.2257  0.2301  1.1605
19405TIP3   OH279705   6.279   5.970   5.332  0.1657  0.0409  0.4686
19405TIP3    H179706   6.261   6.059   5.303 -2.0360 -0.1407  1.0740
19405TIP3    H279707   6.250   5.968   5.423  2.0830 -0.7762  1.1051
19406TIP3   OH279708   6.506   0.973  14.661 -0.5214  0.5631 -0.2190
19406TIP3    H179709   6.536   0.886  14.685 -4.2469 -0.6752  0.5751
19406TIP3    H279710   6.573   1.033  14.696  2.0210 -1.8544 -0.5884
19407TIP3   OH279711   5.165   4.587   3.278  0.3772  0.5118  0.4061
19407TIP3    H179712   5.091   4.526   3.285  0.8517 -0.2750 -0.9264
19407TIP3    H279713   5.202   4.590   3.366  0.1907 -0.9533  0.5667
19408TIP3   OH279714   4.410   7.077   4.515  0.4026  0.2424 -0.2877
19408TIP3    H179715   4.411   7.086   4.419  0.3536 -1.5063 -0.4817
19408TIP3    H279716   4.423   6.984   4.530  2.2052  0.7208  1.4878
19409TIP3   OH279717   6.739   0.727  14.245  0.3238  0.0807  0.2869
19409TIP3    H179718   6.656   0.693  14.214  0.7619 -0.6510 -0.0913
19409TIP3    H279719   6.719   0.817  14.272 -0.3109  0.3367 -0.9806
19410TIP3   OH279720   3.519   4.016   2.682 -0.1573  0.0390  0.3697
19410TIP3    H179721   3.579   3.964   2.629  1.2739  1.3301  0.6279
19410TIP3    H279722   3.567   4.097   2.699 -1.6417  0.7558  1.3720
19411TIP3   OH279723   2.261   4.804   3.704 -0.4145  0.2652  0.9377
19411TIP3    H179724   2.232   4.892   3.681  1.3332  0.3850 -1.1590
19411TIP3    H279725   2.338   4.817   3.759  0.7348  0.1481 -0.5651
19412TIP3   OH279726   5.753   0.443  14.028  0.2264 -0.5200  0.3706
19412TIP3    H179727   5.836   0.407  14.061 -0.6208 -1.5948  1.4283
19412TIP3    H279728   5.770   0.460  13.935  1.0200 -2.7862  0.0182
19413TIP3   OH279729   0.738   5.027   4.528  0.0190 -0.2086 -0.3078
19413TIP3    H179730   0.761   5.026   4.435  0.0873 -1.7946 -0.2876
19413TIP3    H279731   0.810   4.981   4.571  1.1722  2.4529  0.8648
19414TIP3   OH279732   1.046   2.842   0.490  0.7673 -0.4483  0.1130
19414TIP3    H179733   1.131   2.862   0.451  1.0055 -2.4457 -0.5233
19414TIP3    H279734   1.037   2.747   0.480 -1.9425 -0.1965 -0.6681
19415TIP3   OH279735   5.499   3.274   4.751 -0.1651 -0.2150  0.1526
19415TIP3    H179736   5.563   3.247   4.685  0.0295 -0.0334  0.2652
19415TIP3    H279737   5.415   3.243   4.717 -0.2153  0.8123 -0.7272
19416TIP3   OH279738   4.917   6.156   0.625 -0.1458 -0.3641 -0.5161
19416TIP3    H179739   4.877   6.160   0.538 -2.2525  1.4656  0.4601
19416TIP3    H279740   4.956   6.068   0.629 -1.1269 -0.9805 -2.7928
19417TIP3   OH279741   1.068   3.851   4.630  0.2076 -0.5403  0.1396
19417TIP3    H179742   1.140   3.787   4.628  1.6451  1.0300 -1.1225
19417TIP3    H279743   1.024   3.839   4.545 -1.4447 -1.8524  1.1047
19418TIP3   OH279744   2.178   2.958   5.030 -0.0615  0.2432  0.0749
19418TIP3    H179745   2.270   2.934   5.041  0.3073  0.9696 -1.2289
19418TIP3    H279746   2.180   3.049   5.001 -1.2290  0.4168  0.4689
19419TIP3   OH279747   4.188   1.080  14.559 -0.3686  0.5236 -0.2131
19419TIP3    H179748   4.198   0.994  14.518 -1.4127 -0.2254  1.0024
19419TIP3    H279749   4.182   1.141  14.486 -0.8341 -0.5849 -1.1365
19420TIP3   OH279750   7.183   3.288   0.448 -0.1668 -0.4575  0.4742
19420TIP3    H179751   7.184   3.193   0.435 -1.8859 -0.1959 -2.4207
19420TIP3    H279752   7.246   3.321   0.383  0.8476  0.3961  1.8440
19421TIP3   OH279753   5.305   1.373   4.555  0.1513  0.2066 -0.1119
19421TIP3    H179754   5.218   1.411   4.554 -1.1356 -2.5170 -0.2939
19421TIP3    H279755   5.350   1.414   4.481 -1.7151  0.1205 -1.3509
19422TIP3   OH279756   3.332   2.924   3.000  0.6221 -0.2150  0.2046
19422TIP3    H179757   3.340   2.829   2.992  1.3087 -0.0816 -0.9586
19422TIP3    H279758   3.335   2.941   3.094  1.0160 -1.2996  0.4007
19423TIP3   OH279759   3.236   2.292   2.921  0.2201  0.5710  0.6704
19423TIP3    H179760   3.195   2.378   2.922  0.2552  0.6173 -0.5619
19423TIP3    H279761   3.175   2.235   2.970 -0.1312  1.1351  0.8945
19424TIP3   OH279762   1.058   2.243   2.750  0.5464 -0.3030  0.6610
19424TIP3    H179763   0.983   2.287   2.791  0.0734 -0.7786  0.3193
19424TIP3    H279764   1.062   2.157   2.792  0.0789 -0.7846 -0.2506
19425TIP3   OH279765   2.050   0.909   4.098 -0.2393 -0.2785 -0.3072
19425TIP3    H179766   2.131   0.908   4.047  0.2309  0.0367  0.4186
19425TIP3    H279767   1.980   0.905   4.032  0.3580 -1.0263 -0.9270
19426TIP3   OH279768   6.043   5.232   4.648 -0.1216 -0.3431 -0.1226
19426TIP3    H179769   6.009   5.294   4.712  2.6933  2.2342 -0.8832
19426TIP3    H279770   6.133   5.261   4.632 -0.2622 -1.5740 -4.3029
19427TIP3   OH279771   5.613   2.329   1.912 -0.0004 -0.2417 -0.2408
19427TIP3    H179772   5.557   2.266   1.956  1.0970 -1.7552 -0.9281
19427TIP3    H279773   5.586   2.325   1.820  0.1249  0.2411 -0.3021
19428TIP3   OH279774   2.976   0.517   2.778  0.0656 -0.2043  0.3144
19428TIP3    H179775   2.966   0.482   2.689 -2.0259 -0.8447  0.7394
19428TIP3    H279776   2.929   0.454   2.833  1.6071 -0.0004  1.9547
19429TIP3   OH279777   3.864   4.741   2.416  0.3792 -0.2896  0.0797
19429TIP3    H179778   3.936   4.680   2.434 -0.5233 -1.1672  0.8030
19429TIP3    H279779   3.875   4.811   2.481  1.3323  0.2596 -0.6578
19430TIP3   OH279780   3.079   6.626   4.377  0.2396  0.4964  0.0538
19430TIP3    H179781   3.071   6.628   4.281 -0.9162  0.7197  0.1309
19430TIP3    H279782   3.043   6.541   4.401  2.0803 -0.2806  0.1993
19431TIP3   OH279783   5.658   0.539   2.233  0.2527  0.2428 -0.1667
19431TIP3    H179784   5.651   0.630   2.263 -0.3849 -0.1705  0.9837
19431TIP3    H279785   5.578   0.524   2.184  0.3521  0.2959 -0.3455
19432TIP3   OH279786   6.975   6.184   6.053 -0.1742  0.2000 -0.4471
19432TIP3    H179787   6.892   6.172   6.007  0.0293 -0.6377 -0.5976
19432TIP3    H279788   6.949   6.200   6.144 -0.5301  0.9027 -0.6579
19433TIP3   OH279789   3.317   5.407   0.354  0.0423  0.4094 -0.4375
19433TIP3    H179790   3.365   5.325   0.365  1.5014  1.1646 -0.9620
19433TIP3    H279791   3.273   5.397   0.269 -0.5713 -0.1838 -0.0664
19434TIP3   OH279792   5.270   2.652   0.362 -0.3405  0.0094 -0.1435
19434TIP3    H179793   5.349   2.684   0.319 -0.4456  1.6111  0.7979
19434TIP3    H279794   5.247   2.572   0.314  1.6071 -0.2619 -0.6794
19435TIP3   OH279795   1.747   6.182   3.689  0.2513 -0.3072 -0.5574
19435TIP3    H179796   1.773   6.246   3.755 -0.1219  0.5744 -1.2235
19435TIP3    H279797   1.742   6.234   3.608  1.6109 -1.5378 -1.4713
19436TIP3   OH279798   3.610   0.954   1.287  0.2231 -0.1360 -0.1683
19436TIP3    H179799   3.704   0.970   1.287  0.2582 -0.2955  0.3990
19436TIP3    H279800   3.601   0.865   1.322 -0.1498  0.0025  0.1000
19437TIP3   OH279801   1.246   3.174   5.964 -0.7990 -0.4306 -0.7246
19437TIP3    H179802   1.163   3.176   5.917 -1.8322  0.4863  1.0453
19437TIP3    H279803   1.241   3.248   6.024  0.5300 -1.4324  0.6870
19438TIP3   OH279804   4.425   6.226   1.548 -0.6980 -0.0409 -0.1424
19438TIP3    H179805   4.479   6.150   1.528  0.8914  0.4992  1.7814
19438TIP3    H279806   4.335   6.194   1.547 -0.5895 -0.7684 -4.4610
19439TIP3   OH279807   3.830   3.279   2.289 -0.0093  0.0681  0.7348
19439TIP3    H179808   3.836   3.331   2.369 -0.3273  2.3591 -0.6585
19439TIP3    H279809   3.747   3.306   2.249 -0.4003 -1.8608  0.1463
19440TIP3   OH279810   2.854   6.590   5.603  0.1670 -0.2072  0.0361
19440TIP3    H179811   2.877   6.660   5.541  2.2553 -0.4375  0.4752
19440TIP3    H279812   2.891   6.511   5.564 -0.3341 -0.7071  0.5717
19441TIP3   OH279813   2.666   5.783   4.478 -0.7127  0.6195  0.0684
19441TIP3    H179814   2.630   5.754   4.394 -1.5392 -0.5711  0.8021
19441TIP3    H279815   2.754   5.746   4.480 -1.7039 -1.9752  0.9366
19442TIP3   OH279816   3.961   6.108   0.173  0.5075  0.7670 -0.4243
19442TIP3    H179817   4.056   6.104   0.180  0.5031 -0.3425 -0.9646
19442TIP3    H279818   3.939   6.054   0.098 -0.6034  0.4362  0.1097
19443TIP3   OH279819   5.109   1.579   3.366 -0.4002 -0.2379 -0.5418
19443TIP3    H179820   5.170   1.526   3.315 -0.4520 -1.1992  0.3501
19443TIP3    H279821   5.044   1.609   3.302  0.0586 -0.6155 -1.1987
19444TIP3   OH279822   0.947   6.122   1.524  0.5956  0.2167  0.2776
19444TIP3    H179823   0.879   6.149   1.462 -0.9638  0.7714  2.1010
19444TIP3    H279824   0.995   6.202   1.543  0.7159  0.1645  0.1919
19445TIP3   OH279825   6.376   6.921   3.681  0.3552 -0.2527 -0.4865
19445TIP3    H179826   6.324   6.998   3.660 -0.7206 -0.4758  1.1025
19445TIP3    H279827   6.342   6.853   3.623 -0.4968 -0.1468 -0.1383
19446TIP3   OH279828   1.716   1.497   3.327  0.3065 -0.3168  0.0079
19446TIP3    H179829   1.650   1.566   3.320  0.5210  0.2287  2.4351
19446TIP3    H279830   1.767   1.520   3.405  1.8041 -2.0452 -0.3971
19447TIP3   OH279831   3.970   6.832   2.832  0.3463 -0.1651  0.2573
19447TIP3    H179832   4.007   6.920   2.837 -1.2162  0.7612 -2.2110
19447TIP3    H279833   3.902   6.830   2.899 -0.8392  1.2324 -0.8366
19448TIP3   OH279834   0.665   4.499   3.945  0.2491 -0.2106  0.1875
19448TIP3    H179835   0.646   4.527   3.856  0.2234 -1.7265 -0.3024
19448TIP3    H279836   0.589   4.446   3.971  0.1311  0.4238  1.2213
19449TIP3   OH279837   6.059   1.010   1.226 -0.5670  0.6338 -0.1770
19449TIP3    H179838   6.084   1.078   1.289 -0.5538 -1.2527  1.9489
19449TIP3    H279839   6.142   0.966   1.205 -0.5339  1.3869 -1.7550
19450TIP3   OH279840   7.216   4.931   1.009 -0.5960 -0.3759 -0.2102
19450TIP3    H179841   7.152   4.915   1.079 -0.5071  0.3033  0.0352
19450TIP3    H279842   7.301   4.913   1.050 -0.5126  0.4621 -0.0048
19451TIP3   OH279843   5.935   6.362   5.058  0.1286 -0.4054  0.1047
19451TIP3    H179844   5.847   6.360   5.095  0.3917 -0.0446  0.7627
19451TIP3    H279845   5.992   6.335   5.131  0.6421  0.2042 -0.0653
19452TIP3   OH279846   1.504   5.934   1.101  0.2354 -0.2912 -0.5984
19452TIP3    H179847   1.462   5.942   1.016 -2.1375 -2.8111  0.2076
19452TIP3    H279848   1.466   6.004   1.154  1.1287  0.7782 -1.3259
19453TIP3   OH279849   7.166   1.910  13.961 -0.1557  0.2898  0.1078
19453TIP3    H179850   7.111   1.833  13.953 -0.6517  0.6841 -0.3986
19453TIP3    H279851   7.253   1.876  13.983 -0.2709 -0.4385 -0.5112
19454TIP3   OH279852   0.260   5.692   4.889  0.1519 -1.2305 -0.3441
19454TIP3    H179853   0.269   5.782   4.919 -0.6074 -1.3826  0.4085
19454TIP3    H279854   0.178   5.691   4.839  0.2202 -1.4719 -0.4534
19455TIP3   OH279855   6.693   6.201   5.332 -0.1848 -0.1605 -0.1733
19455TIP3    H179856   6.664   6.234   5.417  0.1237  0.4791 -0.3138
19455TIP3    H279857   6.759   6.263   5.303 -0.0862 -0.5297 -0.7598
19456TIP3   OH279858   3.653   4.411   3.500 -0.6021  0.3301 -0.9810
19456TIP3    H179859   3.566   4.377   3.479 -0.6796  0.7138 -1.3010
19456TIP3    H279860   3.684   4.449   3.417  0.4125 -0.9508 -1.2320
19457TIP3   OH279861   2.482   2.553   0.506 -0.5524 -0.3115 -0.1735
19457TIP3    H179862   2.556   2.558   0.566  0.4770  1.3212 -1.5015
19457TIP3    H279863   2.473   2.459   0.487 -0.2857 -0.7637  1.7020
19458TIP3   OH279864   3.534   1.612   1.021  0.0697 -0.5970 -0.5412
19458TIP3    H179865   3.602   1.545   1.014 -1.7292 -2.5427 -0.3636
19458TIP3    H279866   3.483   1.586   1.098  0.0487  1.7463  0.3134
19459TIP3   OH279867   2.262   5.901   4.178 -0.2150  0.4726  0.1985
19459TIP3    H179868   2.292   5.981   4.222  2.4800 -0.2240 -0.1785
19459TIP3    H279869   2.258   5.836   4.248 -1.7049  0.7238  0.3765
19460TIP3   OH279870   6.978   4.408   1.564  0.0176  0.3714  0.4789
19460TIP3    H179871   7.073   4.406   1.553  0.0311 -0.2793  0.6615
19460TIP3    H279872   6.965   4.431   1.656  0.1593 -4.8485  2.0864
19461TIP3   OH279873   3.525   0.777   0.956  0.4852  0.2100  0.2017
19461TIP3    H179874   3.614   0.807   0.970  0.8914 -1.3153  0.9942
19461TIP3    H279875   3.498   0.738   1.039 -0.6906  0.0660 -0.2221
19462TIP3   OH279876   1.456   3.604   4.618 -0.0881  0.1935 -0.3548
19462TIP3    H179877   1.423   3.666   4.683 -0.5843  0.9994 -1.3625
19462TIP3    H279878   1.489   3.659   4.547  0.9983 -0.6607 -0.5484
19463TIP3   OH279879   2.745   5.581   2.863  1.1774 -0.7296  0.0332
19463TIP3    H179880   2.728   5.559   2.771  1.9235  0.9960 -0.5570
19463TIP3    H279881   2.658   5.582   2.903  0.9352 -2.6963 -0.3180
19464TIP3   OH279882   5.715   0.283   1.303 -0.4818 -0.4040  0.1265
19464TIP3    H179883   5.736   0.293   1.395  0.0566  0.3600 -0.0763
19464TIP3    H279884   5.696   0.189   1.293  0.2957 -0.6476  0.8357
19465TIP3   OH279885   4.642   4.476   5.301 -0.4699 -0.0753 -0.0703
19465TIP3    H179886   4.715   4.516   5.349 -1.6088  0.5392  1.2101
19465TIP3    H279887   4.627   4.392   5.344 -0.6196 -0.1337 -0.2346
19466TIP3   OH279888   6.233   1.592   4.606 -0.8060  0.2583 -0.0028
19466TIP3    H179889   6.166   1.528   4.631 -0.5258 -0.3277 -0.7388
19466TIP3    H279890   6.248   1.576   4.513  0.9926 -0.2101  0.3346
19467TIP3   OH279891   0.785   4.290   2.214  0.1692  0.3704 -0.4785
19467TIP3    H179892   0.838   4.211   2.216  2.2015  1.6231 -1.5607
19467TIP3    H279893   0.848   4.362   2.221 -1.3305  1.9521 -2.1769
19468TIP3   OH279894   0.502   6.586   1.132  0.1515 -0.2688 -0.5102
19468TIP3    H179895   0.500   6.642   1.054  0.7062  0.4804 -0.0050
19468TIP3    H279896   0.515   6.497   1.097 -2.8915 -0.4338 -1.4610
19469TIP3   OH279897   0.320   6.956   4.030  0.2748  0.0244 -0.3669
19469TIP3    H179898   0.323   7.024   3.962 -0.6753 -2.3685 -3.0479
19469TIP3    H279899   0.230   6.923   4.027  0.6037 -1.1222  1.0786
19470TIP3   OH279900   6.989   1.648  14.956  0.4599 -0.1902 -0.4134
19470TIP3    H179901   7.058   1.706  14.922  0.4788 -0.6145 -1.1131
19470TIP3    H279902   7.033   1.592  15.019  1.0019 -1.2013 -1.6626
19471TIP3   OH279903   6.668   3.790   0.462 -0.0256 -0.0083 -0.0892
19471TIP3    H179904   6.585   3.809   0.418 -0.2840 -0.0051  0.3914
19471TIP3    H279905   6.735   3.827   0.404 -0.3552 -0.0296 -0.4924
19472TIP3   OH279906   1.172   6.336   3.783  0.2577  0.3780  0.1033
19472TIP3    H179907   1.251   6.341   3.838  0.4790  1.5341 -0.2899
19472TIP3    H279908   1.192   6.267   3.719  0.6027  0.0683  0.5340
19473TIP3   OH279909   6.249   6.704   1.788 -0.1287 -0.1813 -0.3015
19473TIP3    H179910   6.194   6.782   1.799 -1.5524 -1.2289  0.1585
19473TIP3    H279911   6.330   6.738   1.749 -0.3483  1.6576  0.7484
19474TIP3   OH279912   5.639   2.604   3.062 -0.0408  0.0831 -0.0524
19474TIP3    H179913   5.692   2.538   3.017 -0.3600  0.8515 -1.6121
19474TIP3    H279914   5.683   2.687   3.044  0.3260  0.3473  1.8395
19475TIP3   OH279915   5.303   3.462  14.777  0.2813  0.3032 -0.1260
19475TIP3    H179916   5.267   3.382  14.739  2.2954 -0.5096 -0.4578
19475TIP3    H279917   5.368   3.432  14.839  0.9044  1.6909 -0.0715
19476TIP3   OH279918   7.214   5.528   1.895  0.1948  0.2273 -0.4741
19476TIP3    H179919   7.225   5.572   1.980  0.8678 -0.2352 -0.3193
19476TIP3    H279920   7.153   5.585   1.847  1.3797  1.5832 -0.4540
19477TIP3   OH279921   1.580   4.400   4.483 -0.4064 -0.3008  0.3678
19477TIP3    H179922   1.637   4.400   4.406 -2.1234  0.9578 -0.9814
19477TIP3    H279923   1.639   4.381   4.557  1.6692  0.6186 -0.9677
19478TIP3   OH279924   2.968   0.313   2.544 -0.6564 -0.4603 -0.0526
19478TIP3    H179925   2.935   0.224   2.533  0.8903 -0.9126 -1.4155
19478TIP3    H279926   3.054   0.312   2.502 -0.6303  1.6965 -0.1490
19479TIP3   OH279927   0.539   3.260   1.882  0.4071 -0.0631 -0.5696
19479TIP3    H179928   0.634   3.248   1.880  0.3974 -0.0660 -2.3485
19479TIP3    H279929   0.524   3.323   1.953  1.5276 -1.4534  0.9866
19480TIP3   OH279930   1.992   5.715   5.135 -0.0702 -0.4666 -0.6482
19480TIP3    H179931   2.072   5.720   5.083  1.2850  0.0265  1.3802
19480TIP3    H279932   1.976   5.621   5.144  0.0407 -0.5631 -1.3720
19481TIP3   OH279933   2.277   5.453   5.914  0.1771  0.2938  0.4745
19481TIP3    H179934   2.357   5.504   5.907 -1.0363  2.3467  0.6103
19481TIP3    H279935   2.219   5.507   5.968 -1.7496 -0.5189 -0.6763
19482TIP3   OH279936   4.993   2.758  12.396  0.1789  0.5639 -0.0568
19482TIP3    H179937   4.918   2.796  12.442  0.7711  0.7918  0.7480
19482TIP3    H279938   4.960   2.736  12.309 -1.0109  0.0191  0.5144
19483TIP3   OH279939   5.461   4.675   2.893 -0.2991 -0.1404 -0.3032
19483TIP3    H179940   5.474   4.765   2.863  2.9639 -0.5107 -0.3763
19483TIP3    H279941   5.383   4.679   2.948 -1.3102  2.3257 -1.7573
19484TIP3   OH279942   5.127   1.001  14.099  0.2803  0.0650  0.1201
19484TIP3    H179943   5.211   1.022  14.059  0.8729 -0.7787  0.8863
19484TIP3    H279944   5.066   1.065  14.062  0.8411 -0.4965 -1.9054
19485TIP3   OH279945   1.014   2.405   1.291 -0.2025 -0.3520  0.0973
19485TIP3    H179946   1.066   2.326   1.282  1.9443  0.8327  1.3737
19485TIP3    H279947   1.031   2.435   1.380 -1.8878  0.9469  0.0326
19486TIP3   OH279948   1.493   4.305  14.993  0.5154  0.2229  0.0058
19486TIP3    H179949   1.464   4.396  15.002 -1.2742 -0.2566 -0.5501
19486TIP3    H279950   1.512   4.295  14.900  0.7693  0.0380  0.0761
19487TIP3   OH279951   4.222   4.223   3.935 -0.5711 -0.1313 -0.2203
19487TIP3    H179952   4.198   4.297   3.879 -0.3525 -0.0443 -0.1986
19487TIP3    H279953   4.150   4.161   3.924 -0.8226  0.1430 -0.1357
19488TIP3   OH279954   6.938   0.571   5.785 -0.0534 -0.3411 -0.9309
19488TIP3    H179955   7.006   0.635   5.807 -0.3597 -0.2742 -0.1495
19488TIP3    H279956   6.924   0.522   5.865 -2.8389  1.4459 -0.1630
19489TIP3   OH279957   4.348   1.832  15.015 -0.0343 -0.2637 -1.2357
19489TIP3    H179958   4.314   1.784  14.940 -1.3894 -0.0061 -0.8135
19489TIP3    H279959   4.301   1.915  15.013  0.1522 -0.1247 -0.2892
19490TIP3   OH279960   7.169   6.089   5.649  0.2164  0.1636 -0.1089
19490TIP3    H179961   7.116   6.158   5.689 -1.0916 -1.9343  2.0256
19490TIP3    H279962   7.252   6.093   5.696  0.0664  0.1475  0.1591
19491TIP3   OH279963   6.969   5.512   2.212 -0.2006 -0.2735  0.0124
19491TIP3    H179964   6.910   5.493   2.139  1.0585 -1.9902 -0.6431
19491TIP3    H279965   6.968   5.432   2.265  1.6956 -0.4625 -0.1736
19492TIP3   OH279966   1.078   2.408   5.778 -0.1785  0.1848 -0.7289
19492TIP3    H179967   1.127   2.399   5.696  0.3152  2.9824 -0.8267
19492TIP3    H279968   1.026   2.488   5.766 -1.8920 -0.6183  0.8358
19493TIP3   OH279969   4.214   3.376   2.641 -0.1497  0.2002  0.5154
19493TIP3    H179970   4.288   3.357   2.584  0.2070  1.2442  0.6166
19493TIP3    H279971   4.204   3.297   2.695  0.9726  0.1088  0.5983
19494TIP3   OH279972   4.885   3.936   0.596  0.3499  0.0976  0.7592
19494TIP3    H179973   4.807   3.988   0.614  0.0964 -0.4276  1.2462
19494TIP3    H279974   4.914   3.963   0.509 -1.9592 -1.5924 -0.6493
19495TIP3   OH279975   6.058   2.831   3.820  0.2970 -0.1864  0.4312
19495TIP3    H179976   6.122   2.833   3.892  0.9937  2.7777 -0.1487
19495TIP3    H279977   6.044   2.738   3.804  4.4804 -1.0500  0.6040
19496TIP3   OH279978   6.853   6.584   5.973 -0.1125  0.0005  0.1391
19496TIP3    H179979   6.781   6.526   5.997  1.0808 -1.2219  0.9161
19496TIP3    H279980   6.923   6.564   6.036  1.3133  0.3236 -1.2584
19497TIP3   OH279981   0.432   0.267   5.753 -0.1408  0.1870 -0.0459
19497TIP3    H179982   0.526   0.258   5.741 -0.0525 -0.2501  0.8666
19497TIP3    H279983   0.416   0.233   5.841 -1.2148 -0.1492 -0.3574
19498TIP3   OH279984   5.055   6.343   4.406 -0.4187 -0.2639 -0.0103
19498TIP3    H179985   5.149   6.361   4.406 -0.7843  2.1331 -0.9524
19498TIP3    H279986   5.043   6.276   4.339  0.4802  0.7461 -1.2480
19499TIP3   OH279987   4.113   5.436   4.152 -0.3131 -0.5709  0.3281
19499TIP3    H179988   4.037   5.398   4.108 -1.0197 -0.8771  1.7658
19499TIP3    H279989   4.082   5.460   4.238  1.1303 -0.3366  0.8145
19500TIP3   OH279990   4.477   4.689   3.522  0.2827 -0.0382  0.1809
19500TIP3    H179991   4.396   4.638   3.522 -0.0067  0.4226 -0.3321
19500TIP3    H279992   4.521   4.665   3.441  0.6303 -0.2322  0.4238
19501TIP3   OH279993   2.243   4.188   2.360 -0.2381 -0.1920 -0.1318
19501TIP3    H179994   2.254   4.186   2.455 -0.7568 -0.0018 -0.0636
19501TIP3    H279995   2.255   4.097   2.333 -0.6274 -0.3388  0.1790
19502TIP3   OH279996   0.369   4.634   2.166 -0.4915  0.0688 -0.3957
19502TIP3    H179997   0.384   4.540   2.152  1.0940  0.4806 -1.7405
19502TIP3    H279998   0.282   4.650   2.128 -0.8995 -0.8870  0.0972
19503TIP3   OH279999   1.912   6.746   0.553  0.3280 -1.0251 -0.0646
19503TIP3    H180000   1.974   6.817   0.538  0.6868 -1.2277  0.4572
19503TIP3    H280001   1.836   6.769   0.499  0.1022  0.1775  0.7340
19504TIP3   OH280002   3.961   1.475   1.722  0.4862  0.0520 -0.5264
19504TIP3    H180003   3.965   1.481   1.817 -1.3417 -1.7960 -0.2519
19504TIP3    H280004   3.896   1.540   1.696  0.9350  0.5085 -0.5138
19505TIP3   OH280005   5.329   1.330   3.805 -0.3938 -0.0766 -0.0473
19505TIP3    H180006   5.386   1.368   3.872  1.5653  0.2268 -1.7777
19505TIP3    H280007   5.250   1.384   3.807 -0.0902  0.3525  1.5099
19506TIP3   OH280008   4.260   1.684   4.315  0.0311  0.3502  0.2684
19506TIP3    H180009   4.255   1.589   4.309 -2.6075  0.4966 -2.0851
19506TIP3    H280010   4.353   1.704   4.322  0.8343 -2.3163 -1.6052
19507TIP3   OH280011   7.123   3.700  14.372  0.5332  0.1564 -0.5409
19507TIP3    H180012   7.149   3.615  14.407  1.6267  0.6416 -0.1459
19507TIP3    H280013   7.204   3.750  14.366 -0.2555  1.6529  0.5418
19508TIP3   OH280014   3.660   6.620  14.769  0.8171 -0.2080  0.3687
19508TIP3    H180015   3.711   6.540  14.779  1.2036  0.1749  1.6147
19508TIP3    H280016   3.718   6.690  14.800  0.3379  0.5199 -0.3062
19509TIP3   OH280017   1.416   5.376   2.177  0.7010 -0.4684  0.4150
19509TIP3    H180018   1.382   5.451   2.225 -0.1727  0.4973 -1.5738
19509TIP3    H280019   1.423   5.407   2.086  1.5122 -2.4161 -0.2406
19510TIP3   OH280020   1.890   5.272   4.043  0.3350 -0.4023  0.8198
19510TIP3    H180021   1.795   5.268   4.058  0.5997 -1.1664  2.4953
19510TIP3    H280022   1.923   5.191   4.083  1.4473 -1.4267 -1.9479
19511TIP3   OH280023   4.444   1.986   3.179 -0.1521 -0.4577 -0.2841
19511TIP3    H180024   4.401   2.069   3.163 -1.8877 -0.0937  4.5883
19511TIP3    H280025   4.537   2.007   3.186 -0.4599  0.8973 -0.1406
19512TIP3   OH280026   5.098   6.272   5.204 -0.5810 -0.3795 -0.4081
19512TIP3    H180027   5.134   6.215   5.136 -1.0354 -0.0697 -0.9031
19512TIP3    H280028   5.015   6.231   5.229 -1.1403  0.3277 -1.1037
19513TIP3   OH280029   4.669   2.838   5.546 -0.1474 -0.5431 -0.2399
19513TIP3    H180030   4.702   2.772   5.607  1.1867 -0.9586 -1.3695
19513TIP3    H280031   4.718   2.917   5.567 -1.7055  0.1239  1.0744
19514TIP3   OH280032   0.120   5.429   4.642 -0.4804 -0.4575  0.2705
19514TIP3    H180033   0.209   5.415   4.610 -0.5898  1.1033 -0.8166
19514TIP3    H280034   0.071   5.458   4.565 -1.9709 -1.3478  0.8297
19515TIP3   OH280035   2.292   4.591   5.005  0.2111  0.0645  0.5618
19515TIP3    H180036   2.339   4.547   5.076  1.9891  0.6601 -0.1943
19515TIP3    H280037   2.360   4.630   4.951 -1.2023  1.8394 -0.0589
19516TIP3   OH280038   3.811   4.518   3.278  0.2521  0.2774 -0.0361
19516TIP3    H180039   3.776   4.447   3.224  1.0900  0.3858 -0.7488
19516TIP3    H280040   3.793   4.597   3.227  0.8732  0.4015 -0.0637
19517TIP3   OH280041   6.777   1.040  15.230 -0.2061  0.3088  0.4348
19517TIP3    H180042   6.821   1.057  15.314 -0.5046  1.0766  0.4473
19517TIP3    H280043   6.740   0.952  15.240 -0.0992  0.3255  1.0543
19518TIP3   OH280044   4.794   0.179   3.348 -0.0084  0.4296 -0.3067
19518TIP3    H180045   4.777   0.256   3.403 -0.3320  0.9806 -1.1508
19518TIP3    H280046   4.709   0.158   3.310  0.1598 -0.1064 -0.3930
19519TIP3   OH280047   4.411   5.178   0.571  0.2648 -0.2000  0.0130
19519TIP3    H180048   4.379   5.153   0.484  0.9625 -1.8111  0.1751
19519TIP3    H280049   4.362   5.257   0.593  0.2810  0.4260 -1.9703
19520TIP3   OH280050   7.041   6.727   4.215 -0.0625  0.3963  0.1105
19520TIP3    H180051   6.970   6.715   4.278 -0.5839  3.0575  0.1370
19520TIP3    H280052   7.103   6.786   4.259  1.0305 -0.0282 -0.7957
19521TIP3   OH280053   6.129   3.544  13.125  0.7244  0.2951  0.0461
19521TIP3    H180054   6.077   3.503  13.055 -2.6201 -1.2457  3.1047
19521TIP3    H280055   6.210   3.494  13.126 -0.4151 -1.7134 -0.8390
19522TIP3   OH280056   7.105   5.179   3.693  0.7377  0.3037  0.6911
19522TIP3    H180057   7.112   5.271   3.717  2.4504  0.3484  0.1590
19522TIP3    H280058   7.147   5.173   3.608 -1.6120 -0.5552 -0.5026
19523TIP3   OH280059   2.938   5.184   5.271  0.2163 -0.1102 -0.1208
19523TIP3    H180060   2.991   5.215   5.345  0.7160  0.8754 -0.8630
19523TIP3    H280061   2.969   5.095   5.254 -1.3058 -1.1459  2.1184
19524TIP3   OH280062   3.760   0.673   4.524 -0.1904  0.0240 -0.0484
19524TIP3    H180063   3.761   0.748   4.466  1.3149  0.5905  0.6438
19524TIP3    H280064   3.815   0.699   4.598 -0.5770 -1.3312  0.7590
19525TIP3   OH280065   5.230   5.417   5.762  0.2410 -0.4493  0.1610
19525TIP3    H180066   5.158   5.450   5.816  0.8554  1.8513 -0.2870
19525TIP3    H280067   5.298   5.393   5.824 -0.0144 -0.2794  0.5108
19526TIP3   OH280068   3.392   2.766   4.039 -0.5817 -0.0775  0.2277
19526TIP3    H180069   3.374   2.854   4.007 -1.9053 -0.1589  0.6825
19526TIP3    H280070   3.457   2.777   4.108 -1.2659  0.6385  0.7706
19527TIP3   OH280071   4.443   4.394   5.131 -0.3150  0.5820  0.7579
19527TIP3    H180072   4.475   4.306   5.112 -0.8529  0.0356  2.2496
19527TIP3    H280073   4.498   4.425   5.202 -2.8042 -0.3014  3.2322
19528TIP3   OH280074   6.414   0.224   4.547 -0.0026  0.5657  0.1663
19528TIP3    H180075   6.461   0.140   4.554  2.6096  1.8187 -0.7837
19528TIP3    H280076   6.387   0.228   4.455 -2.3452 -0.2589  0.7675
19529TIP3   OH280077   3.318   3.816   3.501 -0.0148 -0.0103 -0.2472
19529TIP3    H180078   3.362   3.856   3.426  1.5509  0.1962  0.7415
19529TIP3    H280079   3.246   3.876   3.521 -0.7348 -0.3059 -1.8342
19530TIP3   OH280080   5.551   1.404   1.376 -0.5080  0.5707  0.1126
19530TIP3    H180081   5.573   1.485   1.423 -1.3228 -0.5832  2.6245
19530TIP3    H280082   5.635   1.363   1.359 -0.1917  1.0083  0.5790
19531TIP3   OH280083   5.886   4.630   4.229 -0.0703  0.0913 -0.8898
19531TIP3    H180084   5.963   4.652   4.175  1.8933 -0.0571  1.6666
19531TIP3    H280085   5.871   4.709   4.282  0.7797 -1.1310  1.2983
19532TIP3   OH280086   1.135   0.167  10.416 -0.3999  0.5806  0.1784
19532TIP3    H180087   1.173   0.205  10.337  2.5294 -1.0473  0.6481
19532TIP3    H280088   1.148   0.234  10.483 -0.5154  0.9510 -0.1633
19533TIP3   OH280089   3.851   3.835   4.055  0.3428 -0.0395 -0.1295
19533TIP3    H180090   3.843   3.832   3.959  0.5537 -1.3230 -0.1263
19533TIP3    H280091   3.926   3.893   4.070  0.3295  0.1540 -0.7483
19534TIP3   OH280092   2.336   0.261   4.516  0.0316  0.3981 -0.0663
19534TIP3    H180093   2.376   0.299   4.438  2.3622  0.7825  1.2330
19534TIP3    H280094   2.348   0.327   4.584  1.8278 -1.5287  1.6186
19535TIP3   OH280095   2.417   4.205   1.989 -0.6329 -0.2813 -0.0909
19535TIP3    H180096   2.375   4.149   1.924 -2.5526 -1.1883  1.7760
19535TIP3    H280097   2.510   4.198   1.971 -0.7465 -4.1032 -0.0273
19536TIP3   OH280098   1.833   0.041   3.568 -0.2030  0.1500 -0.0758
19536TIP3    H180099   1.763   0.055   3.632 -0.4379 -1.1875 -0.0080
19536TIP3    H280100   1.836   0.122   3.518 -2.1925  0.0497 -0.4434
19537TIP3   OH280101   4.934   4.905   4.797  0.3208  0.6749  0.1577
19537TIP3    H180102   4.937   4.861   4.882 -1.7490 -0.4398 -0.2946
19537TIP3    H280103   4.957   4.837   4.734  2.3454  1.6157 -0.2097
19538TIP3   OH280104   0.431   4.935   4.852  0.2056 -0.0201  0.2271
19538TIP3    H180105   0.486   4.926   4.929  1.7370  0.6882 -0.7356
19538TIP3    H280106   0.451   4.858   4.798  0.7197  0.5248 -0.3839
19539TIP3   OH280107   2.585   6.223   5.173  1.0238  0.4839  0.8580
19539TIP3    H180108   2.591   6.157   5.104 -1.6242 -0.1090  1.0850
19539TIP3    H280109   2.620   6.180   5.251 -0.1562 -0.4831  0.8754
19540TIP3   OH280110   4.052   3.024   5.318  0.4152 -0.2671  0.0588
19540TIP3    H180111   4.086   3.053   5.233  0.7136 -0.3676  0.1434
19540TIP3    H280112   4.109   2.951   5.343  0.7781  0.2217  0.6879
19541TIP3   OH280113   6.016   5.817   1.486  0.1197  0.2446  0.1083
19541TIP3    H180114   6.056   5.807   1.400 -0.8703 -0.2007 -0.3159
19541TIP3    H280115   5.922   5.819   1.469 -0.1059 -0.1437  1.2014
19542TIP3   OH280116   6.950   3.681   0.297  0.1771 -0.5564  0.4470
19542TIP3    H180117   6.968   3.640   0.382  0.1364 -0.3986  0.5325
19542TIP3    H280118   7.000   3.629   0.234 -0.4409 -1.1827  0.4567
19543TIP3   OH280119   3.601   2.041   6.004  0.1002  0.0336 -0.0135
19543TIP3    H180120   3.565   1.954   5.983  0.1865 -0.1495  0.5939
19543TIP3    H280121   3.668   2.055   5.937  0.1689 -0.4228 -0.0479
19544TIP3   OH280122   4.099   0.473  15.242  0.9176 -0.4464 -0.2753
19544TIP3    H180123   4.092   0.567  15.229 -2.0830 -0.6950 -1.2927
19544TIP3    H280124   4.101   0.461  15.337 -0.7881  0.5965 -0.0807
19545TIP3   OH280125   6.854   6.389   4.318 -0.5426 -0.2309 -0.1010
19545TIP3    H180126   6.897   6.328   4.378  0.8976 -0.9708 -1.7598
19545TIP3    H280127   6.923   6.413   4.255 -1.9489  0.5156 -1.4413
19546TIP3   OH280128   0.873   3.234   4.830 -0.7485 -0.3734 -0.6897
19546TIP3    H180129   0.870   3.297   4.902 -0.7414 -1.0834 -0.0513
19546TIP3    H280130   0.793   3.182   4.841  1.5064 -3.7480  1.8912
19547TIP3   OH280131   3.490   3.909   0.935  0.0186  0.1937 -0.0089
19547TIP3    H180132   3.546   3.874   0.866  1.5872  1.5429  0.5170
19547TIP3    H280133   3.548   3.922   1.009 -1.1438  0.9852  0.7987
19548TIP3   OH280134   4.247   5.546   2.407  0.3385 -0.4457  0.3235
19548TIP3    H180135   4.247   5.525   2.500  0.9160  0.1258  0.4580
19548TIP3    H280136   4.336   5.574   2.388 -0.0690  0.6352 -0.1174
19549TIP3   OH280137   0.209   0.739   2.913 -0.4347  0.0752 -0.2876
19549TIP3    H180138   0.287   0.716   2.964 -0.3332  1.6548  0.3179
19549TIP3    H280139   0.232   0.822   2.872 -1.3860 -0.0281 -1.0435
19550TIP3   OH280140   2.030   6.003   3.671  0.1785 -0.3035 -0.0219
19550TIP3    H180141   2.050   5.954   3.592 -1.4617  0.6550 -1.0836
19550TIP3    H280142   2.011   6.092   3.641 -1.0977 -0.0625  1.3499
19551TIP3   OH280143   0.817   5.536   5.473 -0.4297 -0.4565  0.2143
19551TIP3    H180144   0.753   5.571   5.535 -1.1140  0.3277 -0.9044
19551TIP3    H280145   0.859   5.464   5.520  0.5311  1.3710  2.3605
19552TIP3   OH280146   5.902   2.474  14.978 -0.2460  0.4564  0.5356
19552TIP3    H180147   5.840   2.545  14.996 -0.3847  1.1099 -2.0571
19552TIP3    H280148   5.985   2.518  14.962 -0.0315 -0.0723  0.1712
19553TIP3   OH280149   4.718   5.839   4.088 -0.5036 -0.3009  0.2330
19553TIP3    H180150   4.652   5.791   4.038 -0.6360  0.5396 -0.4179
19553TIP3    H280151   4.761   5.772   4.141 -2.1006 -0.8308  0.9377
19554TIP3   OH280152   3.762   2.805   2.954 -0.1403  1.0798 -0.8688
19554TIP3    H180153   3.734   2.826   2.865 -1.6367  3.0439  0.0140
19554TIP3    H280154   3.696   2.743   2.986 -0.0019  0.9336 -0.8625
19555TIP3   OH280155   4.972   4.710   4.107 -0.5419  0.1182 -0.1976
19555TIP3    H180156   5.027   4.665   4.042  0.2321 -0.0805  0.5688
19555TIP3    H280157   4.893   4.733   4.060  0.8620  1.9132 -1.8075
19556TIP3   OH280158   4.301   5.946   2.824 -0.0198 -0.3447  0.3279
19556TIP3    H180159   4.324   5.946   2.917  1.9163  0.5122 -0.1151
19556TIP3    H280160   4.221   5.893   2.820  0.5191 -1.4278  2.3131
19557TIP3   OH280161   2.042   4.530  14.291  0.5599 -0.2485  0.4636
19557TIP3    H180162   2.008   4.576  14.369  0.0537  0.3915 -0.1225
19557TIP3    H280163   2.135   4.554  14.288  0.9043 -1.3236  1.5944
19558TIP3   OH280164   3.894   5.110   5.516  0.6789 -0.1856  0.6688
19558TIP3    H180165   3.866   5.142   5.602  1.4774  0.5997  0.6521
19558TIP3    H280166   3.984   5.081   5.529  0.3785 -1.2852  0.3821
19559TIP3   OH280167   4.551   3.316   0.751 -0.2319  0.1059  0.4749
19559TIP3    H180168   4.460   3.337   0.734 -0.3831 -0.8049  0.1037
19559TIP3    H280169   4.594   3.401   0.759 -0.4777  0.6226 -2.5790
19560TIP3   OH280170   1.852   5.367   4.343 -0.4129  0.1843  0.3786
19560TIP3    H180171   1.866   5.327   4.258 -0.4519  0.9305  0.0194
19560TIP3    H280172   1.836   5.293   4.402  0.2745 -0.3713 -0.1239
19561TIP3   OH280173   2.505   5.387   0.196 -0.4524 -0.3073  0.2747
19561TIP3    H180174   2.479   5.445   0.268  1.0315 -0.0761  0.6566
19561TIP3    H280175   2.461   5.423   0.119 -1.0737  0.1760  0.8401
19562TIP3   OH280176   0.926   1.206   5.209 -0.3528 -0.9420  0.0744
19562TIP3    H180177   0.888   1.293   5.196 -0.0409 -0.9011 -0.6442
19562TIP3    H280178   0.880   1.151   5.146  0.3717 -1.0075 -0.4121
19563TIP3   OH280179   3.256   5.662   4.218  0.3033  0.1203  0.0046
19563TIP3    H180180   3.188   5.649   4.152  0.0672 -1.7671  0.5766
19563TIP3    H280181   3.252   5.584   4.272  1.7264  0.8112  1.1603
19564TIP3   OH280182   2.954   6.090   4.208 -0.0486 -0.0518  0.1223
19564TIP3    H180183   3.030   6.033   4.218 -0.7807 -1.1672 -0.3682
19564TIP3    H280184   2.987   6.166   4.160  0.8755 -0.2266  0.4634
19565TIP3   OH280185   7.187   5.207   3.408 -0.0387 -0.0815 -0.0949
19565TIP3    H180186   7.244   5.282   3.424 -0.4083  0.3309 -0.6671
19565TIP3    H280187   7.140   5.229   3.328  2.7416 -2.6182 -2.6994
19566TIP3   OH280188   4.082   3.315   5.164 -0.1451 -0.2641 -0.1895
19566TIP3    H180189   4.098   3.376   5.092  1.1808 -0.5266 -0.1466
19566TIP3    H280190   4.134   3.351   5.236 -2.2274  0.5710  0.9973
19567TIP3   OH280191   6.802   0.788   5.429  0.1703 -0.7625  0.3308
19567TIP3    H180192   6.760   0.717   5.477  1.5864 -1.2656  0.8841
19567TIP3    H280193   6.749   0.865   5.448 -2.1795 -1.8423 -1.3208
19568TIP3   OH280194   1.674   3.933   3.917  0.2772 -0.3032 -0.1794
19568TIP3    H180195   1.678   3.971   3.829 -0.2554  0.4483  0.1143
19568TIP3    H280196   1.671   4.009   3.976 -3.1919 -0.6634  0.3415
19569TIP3   OH280197   5.647   6.341  14.682  1.4383 -0.0887 -0.3771
19569TIP3    H180198   5.570   6.288  14.701  1.4565  0.4955  1.5848
19569TIP3    H280199   5.646   6.353  14.587  0.7844 -2.5504 -0.7375
19570TIP3   OH280200   2.725   2.341   6.079  0.5989 -0.0575  0.1715
19570TIP3    H180201   2.805   2.364   6.127 -0.2647 -0.2853  1.8098
19570TIP3    H280202   2.655   2.352   6.144 -0.4605 -2.0033 -0.5619
19571TIP3   OH280203   5.005   7.187   2.348 -0.3654  0.3163  0.2668
19571TIP3    H180204   4.981   7.098   2.376 -0.9204  0.4852  0.3459
19571TIP3    H280205   5.079   7.174   2.288 -0.0941 -0.1568  0.6935
19572TIP3   OH280206   5.465   3.886  12.803  0.6720  0.5695  0.1517
19572TIP3    H180207   5.504   3.806  12.837  0.4112 -1.4246 -3.6508
19572TIP3    H280208   5.371   3.877  12.820  0.5218 -0.4884 -1.0398
19573TIP3   OH280209   1.387   3.194  12.556 -0.6990  0.4613  1.0624
19573TIP3    H180210   1.301   3.155  12.572 -0.3307 -1.5072 -1.3330
19573TIP3    H280211   1.447   3.141  12.607 -0.6031  0.1294  0.6062
19574TIP3   OH280212   3.119   4.488   3.105  0.4496 -0.4318 -0.3897
19574TIP3    H180213   3.158   4.409   3.067 -1.1278 -1.2595 -0.3316
19574TIP3    H280214   3.061   4.456   3.174  1.9295  0.9563  1.6150
19575TIP3   OH280215   0.731   2.473  14.055  0.1962 -0.8582  0.3182
19575TIP3    H180216   0.722   2.389  14.009 -1.4677 -1.5835  1.8648
19575TIP3    H280217   0.734   2.450  14.147  1.5856  0.6979  0.7035
19576TIP3   OH280218   4.768   2.688  13.380  0.3273  0.5013 -0.3931
19576TIP3    H180219   4.691   2.736  13.411 -0.7509 -0.6470 -1.1928
19576TIP3    H280220   4.841   2.748  13.396 -0.8134  1.9410 -0.3297
19577TIP3   OH280221   0.054   5.010   4.904  0.2670  0.5799 -0.0881
19577TIP3    H180222   0.008   5.074   4.849  2.0700  0.3005 -2.0612
19577TIP3    H280223   0.051   5.047   4.992 -1.7268  1.6297 -0.5321
19578TIP3   OH280224   1.727   3.239   3.986 -0.4745 -0.1809  0.1226
19578TIP3    H180225   1.687   3.326   3.988 -0.2988 -0.1094  1.1340
19578TIP3    H280226   1.655   3.178   3.999 -0.3644 -0.0826  1.3044
19579TIP3   OH280227   3.211   2.542   5.887 -0.4968 -0.0824  0.1022
19579TIP3    H180228   3.303   2.516   5.888 -0.2312  0.6384 -2.1462
19579TIP3    H280229   3.166   2.471   5.841 -0.9744 -0.0513  0.5024
19580TIP3   OH280230   2.382   2.347   4.585  0.1949  0.0188 -0.6766
19580TIP3    H180231   2.367   2.314   4.673 -0.3526 -0.1110 -0.8143
19580TIP3    H280232   2.475   2.371   4.583 -0.2453  1.9683  0.5693
19581TIP3   OH280233   0.805   2.689   1.564  0.2191  0.0351 -0.0841
19581TIP3    H180234   0.740   2.758   1.571  0.2460  0.0517 -0.0045
19581TIP3    H280235   0.864   2.702   1.638 -1.4657 -1.8439  1.7219
19582TIP3   OH280236   2.960   0.366   5.565  0.1553 -0.0765 -0.6134
19582TIP3    H180237   2.983   0.368   5.473  0.2920  1.0175 -0.5712
19582TIP3    H280238   2.952   0.459   5.590  0.4983 -0.3468  0.5629
19583TIP3   OH280239   2.949   3.307   3.178  0.0063 -0.2071 -0.3118
19583TIP3    H180240   2.926   3.343   3.263  2.2386  1.2575 -0.2426
19583TIP3    H280241   2.932   3.378   3.116  0.7619 -0.3763 -0.7272
19584TIP3   OH280242   1.076   4.528   5.542 -0.3345 -0.1628  0.4863
19584TIP3    H180243   1.145   4.595   5.545 -0.2856 -0.1813  3.4824
19584TIP3    H280244   1.122   4.447   5.522 -0.2521  0.4648 -2.1866
19585TIP3   OH280245   3.910   6.388   1.294 -0.1877 -0.2752  0.2729
19585TIP3    H180246   3.942   6.315   1.241 -0.5347 -0.4424  0.2901
19585TIP3    H280247   3.923   6.360   1.384 -0.3353 -0.3205  0.2797
19586TIP3   OH280248   4.650   4.387   3.091  0.4673  0.2897  0.0137
19586TIP3    H180249   4.709   4.339   3.149  0.0781 -1.6767 -1.1529
19586TIP3    H280250   4.665   4.350   3.004 -0.5130  1.6792 -0.7888
19587TIP3   OH280251   3.694   7.190   6.122  0.3858  0.0858 -0.0823
19587TIP3    H180252   3.602   7.209   6.136  0.5757  0.8964  0.1364
19587TIP3    H280253   3.709   7.208   6.029  0.4777  0.6762  0.0400
19588TIP3   OH280254   6.751   0.695   0.463 -0.2473  0.1003  0.5410
19588TIP3    H180255   6.780   0.785   0.478  1.2200 -0.4886  1.3840
19588TIP3    H280256   6.661   0.704   0.431  0.0142  1.8765  0.2177
19589TIP3   OH280257   6.484   3.663   3.200  0.2020 -0.1174 -0.8213
19589TIP3    H180258   6.392   3.674   3.175  0.0632 -0.7454 -0.6012
19589TIP3    H280259   6.482   3.602   3.274  0.9044 -1.4820 -1.8650
19590TIP3   OH280260   2.968   7.147   3.163  0.0402 -0.0862  0.1669
19590TIP3    H180261   3.014   7.229   3.147  1.9298 -1.3506 -1.3142
19590TIP3    H280262   3.031   7.092   3.209 -0.7368 -1.1136  0.0536
19591TIP3   OH280263   5.750   6.607   5.620 -0.1097 -0.0068  0.1621
19591TIP3    H180264   5.826   6.665   5.608 -0.8978  0.7598 -1.4002
19591TIP3    H280265   5.785   6.532   5.668  1.0057  1.6178  2.0752
19592TIP3   OH280266   4.077   2.914   3.667 -0.4359 -0.1098  0.1816
19592TIP3    H180267   4.002   2.898   3.610 -0.3292 -2.0827  0.5378
19592TIP3    H280268   4.049   2.880   3.753  0.1357  0.9910  0.8217
19593TIP3   OH280269   2.277   3.909   1.556 -0.1583 -0.2488  0.4148
19593TIP3    H180270   2.260   3.815   1.559  0.9534 -0.4494  1.1377
19593TIP3    H280271   2.288   3.935   1.647  0.5409  0.3725  0.1704
19594TIP3   OH280272   3.322   0.740   1.347  0.3986  0.1560 -0.2718
19594TIP3    H180273   3.408   0.700   1.333  0.8584  0.8065  0.5826
19594TIP3    H280274   3.285   0.749   1.259  0.0845 -2.4756 -0.4962
19595TIP3   OH280275   7.055   4.612   4.257  0.0233 -0.0413  0.4280
19595TIP3    H180276   6.973   4.642   4.297  0.0487 -0.6315  0.9317
19595TIP3    H280277   7.123   4.662   4.302 -0.0119 -0.0606  0.5035
19596TIP3   OH280278   4.948   4.709   2.088  0.0570  0.1463 -0.2787
19596TIP3    H180279   4.854   4.694   2.076  0.1493 -0.2911 -0.4653
19596TIP3    H280280   4.957   4.724   2.182 -0.2634  0.6664 -0.3268
19597TIP3   OH280281   1.307   1.251   2.433  0.3035 -0.2535 -0.2100
19597TIP3    H180282   1.344   1.257   2.522 -1.2643  0.3604  0.4414
19597TIP3    H280283   1.306   1.158   2.414  0.9525 -0.3696  0.2779
19598TIP3   OH280284   1.876   5.623   5.425  0.3076  0.2682  0.1498
19598TIP3    H180285   1.818   5.609   5.500  0.4399 -0.7738  0.0743
19598TIP3    H280286   1.964   5.603   5.458  0.6464  1.7689  0.2425
19599TIP3   OH280287   1.314   0.447   1.827 -0.2328 -0.2806  0.0657
19599TIP3    H180288   1.234   0.444   1.880 -1.0109 -2.3976 -1.0893
19599TIP3    H280289   1.353   0.532   1.846 -1.7957  0.0526  2.0668
19600TIP3   OH280290   2.255   3.494   2.012 -0.0773 -0.8196 -0.4971
19600TIP3    H180291   2.297   3.409   2.011  0.9006 -0.3628  0.4426
19600TIP3    H280292   2.294   3.542   1.939  0.3191 -0.7364 -0.2315
19601TIP3   OH280293   4.959   1.735   1.964  0.3095  0.4143  0.1670
19601TIP3    H180294   5.026   1.801   1.974  1.6766 -0.5583 -1.9161
19601TIP3    H280295   4.955   1.718   1.870 -2.7138  0.2459  0.2189
19602TIP3   OH280296   4.267   1.024   2.001  0.2540  0.2939 -0.3614
19602TIP3    H180297   4.351   0.985   2.027  1.1268  1.9866 -0.5247
19602TIP3    H280298   4.222   1.042   2.084  0.0029 -0.6484 -0.2743
19603TIP3   OH280299   6.641   6.645   4.211  0.2281 -0.0452 -0.3199
19603TIP3    H180300   6.643   6.672   4.303  2.1376 -0.2984 -0.2342
19603TIP3    H280301   6.701   6.570   4.207 -0.1205 -0.2815 -1.7095
19604TIP3   OH280302   6.322   3.275  14.820 -0.0305  0.3057  0.0749
19604TIP3    H180303   6.382   3.338  14.780  0.4485  0.0601  0.4009
19604TIP3    H280304   6.356   3.190  14.794 -0.8836  0.1700 -0.6663
19605TIP3   OH280305   0.597   4.733   1.054 -0.8240  0.1615  0.3931
19605TIP3    H180306   0.571   4.673   0.984  0.8682  0.6724 -0.7269
19605TIP3    H280307   0.693   4.734   1.050 -0.7768  2.0214  1.1705
19606TIP3   OH280308   6.027   3.630   4.815 -0.5770  0.2739  0.0277
19606TIP3    H180309   6.036   3.593   4.727  0.6640 -1.6210  0.9003
19606TIP3    H280310   5.934   3.620   4.836 -0.9606  1.0565 -1.1513
19607TIP3   OH280311   0.321   4.568  14.816  0.2805  0.5058  0.0498
19607TIP3    H180312   0.316   4.482  14.856 -0.5581  0.4131 -0.2275
19607TIP3    H280313   0.414   4.588  14.812  0.4193  0.1324  1.2005
19608TIP3   OH280314   0.195   0.459   0.455  0.0379  0.3184  0.1610
19608TIP3    H180315   0.229   0.371   0.468 -1.4886 -0.3012  0.1402
19608TIP3    H280316   0.188   0.468   0.360  1.8235  1.1438  0.0655
19609TIP3   OH280317   4.551   6.642   3.123  0.1469  0.3067  0.6707
19609TIP3    H180318   4.590   6.689   3.197 -2.5572  2.0844  1.1072
19609TIP3    H280319   4.607   6.665   3.048  1.1165  1.0527  1.5820
19610TIP3   OH280320   2.967   3.496   4.322  0.2130 -0.2633  0.2713
19610TIP3    H180321   3.025   3.494   4.399 -1.2757 -0.3405  1.4318
19610TIP3    H280322   2.940   3.588   4.315 -2.5235 -0.8210  2.1366
19611TIP3   OH280323   2.036   0.093   3.756  0.2647 -0.2997 -0.1957
19611TIP3    H180324   2.000   0.026   3.699  0.3673 -0.0596 -0.5496
19611TIP3    H280325   2.123   0.112   3.720  1.0156 -1.3011  1.0021
19612TIP3   OH280326   4.715   7.025   3.532  0.4283 -0.0024 -0.5158
19612TIP3    H180327   4.619   7.034   3.533  0.4603  1.3481  2.3126
19612TIP3    H280328   4.747   7.115   3.531  1.7223 -0.4383 -1.5852
19613TIP3   OH280329   5.929   3.031   4.616  0.1196  0.3163  0.4359
19613TIP3    H180330   5.864   3.021   4.547 -1.7514  1.3318  1.9522
19613TIP3    H280331   5.930   2.945   4.660  0.9701 -0.1816 -0.5295
19614TIP3   OH280332   4.922   6.481   1.545 -0.1707 -0.1058  0.0175
19614TIP3    H180333   4.857   6.424   1.586  1.1932 -2.0124 -0.3375
19614TIP3    H280334   4.943   6.437   1.462  2.2820 -0.1380  0.5830
19615TIP3   OH280335   1.301   2.990   1.220 -0.0559  0.0566  0.4453
19615TIP3    H180336   1.358   2.941   1.160 -0.6102 -2.4355  1.8089
19615TIP3    H280337   1.234   3.028   1.163  1.2296  0.5207 -0.8341
19616TIP3   OH280338   3.592   4.635  11.190 -0.1511 -0.6914 -0.3688
19616TIP3    H180339   3.598   4.602  11.279  0.8890  0.6879  0.1088
19616TIP3    H280340   3.674   4.607  11.149 -0.9554 -1.9899 -1.1623
19617TIP3   OH280341   2.487   4.683   3.879  0.3169  0.3334  0.0976
19617TIP3    H180342   2.564   4.628   3.862 -0.4937 -0.4901 -1.0178
19617TIP3    H280343   2.437   4.634   3.944  1.2196  1.3792  1.6510
19618TIP3   OH280344   6.259   1.077   5.056 -0.2369 -0.1967  0.1136
19618TIP3    H180345   6.184   1.027   5.087 -0.3260 -0.5236 -0.6041
19618TIP3    H280346   6.316   1.085   5.132 -1.2053  0.4592  0.7908
19619TIP3   OH280347   5.326   0.249  13.651  0.5063  0.2578  0.5664
19619TIP3    H180348   5.290   0.338  13.648  0.2471  0.1433  0.1508
19619TIP3    H280349   5.290   0.212  13.731 -1.2950 -0.2460 -0.3949
19620TIP3   OH280350   4.259   4.082   3.315 -0.2125 -0.0619 -0.2050
19620TIP3    H180351   4.308   4.146   3.263 -1.3216  0.6413 -0.4194
19620TIP3    H280352   4.195   4.135   3.364  1.8630 -0.4459  3.2382
19621TIP3   OH280353   2.847   6.486   4.138  0.1540  0.3309  0.3580
19621TIP3    H180354   2.930   6.479   4.090  0.3767  0.0809  0.7692
19621TIP3    H280355   2.870   6.461   4.228 -0.5016 -0.3554  0.3381
19622TIP3   OH280356   3.881   2.836   3.488 -0.4094  0.2830  0.1169
19622TIP3    H180357   3.832   2.845   3.406  0.1656 -1.6039 -0.4667
19622TIP3    H280358   3.864   2.747   3.517 -0.2152  0.7594  1.8335
19623TIP3   OH280359   4.419   1.155  12.854  0.1144 -0.9381 -0.5342
19623TIP3    H180360   4.403   1.238  12.898 -0.8928  0.6430 -3.5835
19623TIP3    H280361   4.340   1.103  12.870 -0.9733  0.2741 -1.7445
19624TIP3   OH280362   2.075   3.825   0.364 -0.0836  0.5181  0.2193
19624TIP3    H180363   2.103   3.873   0.442 -2.8549  0.8532  1.0936
19624TIP3    H280364   2.013   3.884   0.320  1.7236  0.5475 -2.6033
19625TIP3   OH280365   6.175   5.278   4.949  0.3472 -0.3301 -0.1648
19625TIP3    H180366   6.260   5.318   4.966  0.3655 -1.1851  2.1505
19625TIP3    H280367   6.113   5.329   5.000 -0.4893 -0.0132 -1.4449
19626TIP3   OH280368   6.102   7.141  13.989 -0.1031 -0.2553 -0.1497
19626TIP3    H180369   6.184   7.093  13.985 -0.0491 -0.0896 -1.2901
19626TIP3    H280370   6.055   7.115  13.910 -1.1093 -0.2794  0.4424
19627TIP3   OH280371   5.572   2.870   4.710 -0.4404  0.3363 -0.0937
19627TIP3    H180372   5.582   2.933   4.781 -0.1960  1.2608 -0.9259
19627TIP3    H280373   5.562   2.924   4.631 -0.0732 -0.6620 -0.8480
19628TIP3   OH280374   5.758   2.864   0.670  0.4811 -0.0770 -0.0093
19628TIP3    H180375   5.775   2.958   0.680 -0.7227  0.0211  1.6669
19628TIP3    H280376   5.663   2.857   0.665  0.5983 -1.1398 -1.4071
19629TIP3   OH280377   5.493   2.082   1.989 -0.3262 -0.2444 -0.4590
19629TIP3    H180378   5.468   2.116   2.075  0.2310 -0.6865 -0.1125
19629TIP3    H280379   5.455   1.994   1.986 -1.1575  0.1210 -1.0626
19630TIP3   OH280380   3.146   4.132   4.542 -0.0413 -0.7928  0.0396
19630TIP3    H180381   3.092   4.091   4.610  0.7118  0.5921  1.5434
19630TIP3    H280382   3.209   4.185   4.590 -0.4999  1.5594 -1.7794
19631TIP3   OH280383   4.516   2.308   4.961  0.0529 -0.0063  0.5623
19631TIP3    H180384   4.549   2.302   5.050  1.2870  1.5282  0.2592
19631TIP3    H280385   4.432   2.353   4.969  0.6040  0.9898  0.8888
19632TIP3   OH280386   2.860   2.350  14.871  0.6685 -0.4335 -0.4410
19632TIP3    H180387   2.773   2.388  14.885  0.7094 -0.3508 -0.4102
19632TIP3    H280388   2.904   2.413  14.813  0.5989 -0.6312 -0.7096
19633TIP3   OH280389   2.533   5.095   5.494  0.6776  0.6023 -0.1725
19633TIP3    H180390   2.481   5.170   5.463 -0.8851 -1.0657 -1.8663
19633TIP3    H280391   2.580   5.064   5.416  1.1472 -0.2896  0.4461
19634TIP3   OH280392   1.376   1.541   3.427  0.0280  0.0539 -0.2391
19634TIP3    H180393   1.309   1.608   3.438  0.7268  0.6327  0.6848
19634TIP3    H280394   1.446   1.585   3.377  0.5817  0.0958  0.5525
19635TIP3   OH280395   2.489   0.313   0.623  0.1553 -0.3232 -0.0098
19635TIP3    H180396   2.443   0.334   0.703 -1.8135 -0.0235 -1.1606
19635TIP3    H280397   2.439   0.356   0.554  0.1842 -2.8001 -1.6939
19636TIP3   OH280398   2.025   4.810  14.593 -0.0106  0.5450 -0.3156
19636TIP3    H180399   2.023   4.800  14.688  2.2543 -0.7538 -0.3394
19636TIP3    H280400   1.949   4.761  14.562 -0.6160  0.7435  0.7836
19637TIP3   OH280401   4.175   1.821   5.393 -0.5702 -0.4973 -0.0478
19637TIP3    H180402   4.228   1.758   5.442 -0.8731 -0.8994 -0.2348
19637TIP3    H280403   4.224   1.834   5.311  0.0852  0.3932  0.4600
19638TIP3   OH280404   1.511   0.164   5.172  0.0113  0.3892  0.4484
19638TIP3    H180405   1.452   0.227   5.214 -0.5484  0.9121 -1.0541
19638TIP3    H280406   1.577   0.218   5.129  1.0437 -0.1652  1.2855
19639TIP3   OH280407   5.466   0.223   5.650 -0.1234 -0.0307  0.2947
19639TIP3    H180408   5.525   0.284   5.606  1.1499 -0.9546  0.6568
19639TIP3    H280409   5.502   0.214   5.739  0.0052 -1.6388  0.1123
19640TIP3   OH280410   4.137   1.631   2.641  0.1449  0.4961  0.3325
19640TIP3    H180411   4.071   1.668   2.583  2.1674  2.6348 -0.8032
19640TIP3    H280412   4.153   1.700   2.706  0.3523 -0.5020  1.3757
19641TIP3   OH280413   5.925   1.411   4.442 -0.7045  0.8377  0.0761
19641TIP3    H180414   5.869   1.452   4.508 -0.3524  2.3819 -0.5382
19641TIP3    H280415   5.865   1.356   4.390 -1.8124  2.8322 -0.8703
19642TIP3   OH280416   0.941   2.720   4.512 -0.5767  0.0916  0.0778
19642TIP3    H180417   0.923   2.799   4.563 -1.9519 -0.0433 -0.1664
19642TIP3    H280418   1.008   2.674   4.562 -1.2663  0.3965  1.3237
19643TIP3   OH280419   6.723   4.252   5.856 -0.1335  0.2951 -0.4470
19643TIP3    H180420   6.645   4.199   5.872 -0.0020 -0.1736 -1.3004
19643TIP3    H280421   6.697   4.313   5.787  0.8194 -1.2265 -2.2410
19644TIP3   OH280422   5.866   1.621   1.657 -0.2123  0.0397 -0.2441
19644TIP3    H180423   5.831   1.648   1.572  1.6546  1.3567 -0.6566
19644TIP3    H280424   5.884   1.703   1.703  0.9346 -0.5857  0.4868
19645TIP3   OH280425   6.045   2.567   1.285  0.1104 -0.7689  0.0939
19645TIP3    H180426   6.081   2.620   1.356  0.1067 -0.3774 -0.1932
19645TIP3    H280427   6.057   2.477   1.314  0.1774 -0.6147  0.5580
19646TIP3   OH280428   5.270   5.493   4.638 -0.0331  0.7451 -1.1192
19646TIP3    H180429   5.202   5.426   4.641  2.0548 -1.4701 -0.8873
19646TIP3    H280430   5.281   5.512   4.544  0.9491 -1.0100 -1.3971
19647TIP3   OH280431   4.317   0.168   5.314 -0.5422 -0.2968 -0.3150
19647TIP3    H180432   4.261   0.229   5.268  0.6453  0.3956 -0.8959
19647TIP3    H280433   4.277   0.158   5.400 -0.6940  1.4225 -0.1554
19648TIP3   OH280434   2.850   0.240  14.352  0.4371 -0.4099 -0.8173
19648TIP3    H180435   2.782   0.286  14.401 -0.2627 -2.0200 -0.1983
19648TIP3    H280436   2.826   0.254  14.260  0.3442  0.5773 -0.6528
19649TIP3   OH280437   2.338   5.154   2.979  0.5842  0.5441  0.0747
19649TIP3    H180438   2.344   5.119   3.068 -0.9510  0.2062  0.0679
19649TIP3    H280439   2.318   5.078   2.925  1.1883  0.8033 -0.5174
19650TIP3   OH280440   4.871   3.888  15.354 -0.2080  0.0815 -0.1718
19650TIP3    H180441   4.869   3.793  15.362  0.3659  0.1505  1.0068
19650TIP3    H280442   4.964   3.909  15.342 -0.2019  0.5500  0.6158
19651TIP3   OH280443   5.611   3.000   3.867 -0.5497  0.1026 -0.2221
19651TIP3    H180444   5.581   2.917   3.903  0.5960 -0.4179 -0.4175
19651TIP3    H280445   5.696   3.015   3.908 -0.2197  0.5914 -1.0534
19652TIP3   OH280446   2.759   4.286   3.983  0.3476  0.6350  0.1642
19652TIP3    H180447   2.741   4.308   3.892  0.7478  0.8097  0.1232
19652TIP3    H280448   2.847   4.248   3.982 -0.5100 -1.5047  0.1612
19653TIP3   OH280449   0.263   3.953   3.882 -0.3325 -0.0253 -0.0012
19653TIP3    H180450   0.193   3.894   3.910  0.0259 -0.7698 -0.6432
19653TIP3    H280451   0.341   3.921   3.926 -0.1444 -0.0088 -0.3197
19654TIP3   OH280452   6.200   6.771   4.176 -0.2480  0.0830 -0.9094
19654TIP3    H180453   6.260   6.709   4.134 -0.0509  0.3021 -0.9543
19654TIP3    H280454   6.209   6.752   4.269  0.9852  1.0778 -0.8023
19655TIP3   OH280455   6.048   1.967   4.332 -1.0596 -0.2333  0.4069
19655TIP3    H180456   6.110   2.031   4.367 -0.5236 -1.0279  0.9425
19655TIP3    H280457   5.976   2.020   4.299  0.0185  0.7381 -0.4962
19656TIP3   OH280458   6.882   1.396   3.417 -0.2808 -0.4236 -0.6494
19656TIP3    H180459   6.836   1.371   3.337 -1.7483  0.6231 -0.1574
19656TIP3    H280460   6.965   1.347   3.412 -1.4607 -2.5021 -1.4855
19657TIP3   OH280461   4.092   7.196  13.975  0.5499 -0.2254 -0.6111
19657TIP3    H180462   4.122   7.105  13.974  1.6787  0.1323 -0.8101
19657TIP3    H280463   4.055   7.208  14.063  2.7740 -0.1612  0.3818
19658TIP3   OH280464   5.930   6.083   5.327 -0.0484  0.0617 -0.4016
19658TIP3    H180465   5.958   6.119   5.412 -2.4948  1.1096  0.0345
19658TIP3    H280466   6.012   6.070   5.279  1.4428 -0.6167  2.0951
19659TIP3   OH280467   4.442   1.254   2.175  0.1100 -0.0704 -0.3855
19659TIP3    H180468   4.466   1.338   2.214 -2.0404 -0.3485  1.7492
19659TIP3    H280469   4.357   1.271   2.134 -0.2625 -1.1746 -0.0856
19660TIP3   OH280470   2.507   5.610   5.831 -0.2627  0.3506  0.4136
19660TIP3    H180471   2.598   5.623   5.803 -0.9036  2.5587 -0.8192
19660TIP3    H280472   2.459   5.683   5.792 -2.4487 -0.3218  1.7035
19661TIP3   OH280473   2.643   6.665   3.636  0.3003 -0.2048  0.5447
19661TIP3    H180474   2.614   6.753   3.611  0.4209 -0.2784  0.1573
19661TIP3    H280475   2.603   6.652   3.722 -1.5737 -0.6550 -0.3517
19662TIP3   OH280476   5.386   5.989   0.976 -0.5333 -0.7346 -0.0119
19662TIP3    H180477   5.307   6.028   1.014 -0.1498 -0.0186  0.0733
19662TIP3    H280478   5.354   5.928   0.910 -1.1721 -0.8479  0.3957
19663TIP3   OH280479   1.460   5.175   4.960 -0.3677  0.3937  0.1109
19663TIP3    H180480   1.459   5.081   4.944  0.5597  0.4391 -0.2704
19663TIP3    H280481   1.437   5.184   5.052 -3.4623 -0.0193 -0.5156
19664TIP3   OH280482   1.109   3.624   0.295 -0.7236  0.5868 -0.3541
19664TIP3    H180483   1.038   3.674   0.254 -0.9491  1.0379  0.5639
19664TIP3    H280484   1.082   3.614   0.386  0.7280  1.4193  0.2039
19665TIP3   OH280485   3.629   3.158   4.120  0.2563  0.4913  0.3683
19665TIP3    H180486   3.670   3.093   4.063  1.7123  1.0174  0.7611
19665TIP3    H280487   3.647   3.242   4.078  0.5891  0.8200  1.1389
19666TIP3   OH280488   0.986   7.089   3.149  0.1121  0.0108  0.4751
19666TIP3    H180489   1.037   7.104   3.070  1.5885 -1.0640  1.1708
19666TIP3    H280490   1.028   7.144   3.215 -1.8120  1.7982  0.3276
19667TIP3   OH280491   6.404   4.645   3.596 -0.3241  0.8400 -0.0754
19667TIP3    H180492   6.342   4.716   3.609 -0.1339  1.0002 -0.0393
19667TIP3    H280493   6.350   4.568   3.578 -0.5054  1.2793 -1.5783
19668TIP3   OH280494   0.404   3.161   2.609 -0.2326 -0.3569  0.1443
19668TIP3    H180495   0.436   3.221   2.675 -0.3096 -0.3831  0.2055
19668TIP3    H280496   0.349   3.214   2.551  1.6583  0.1722 -1.2475
19669TIP3   OH280497   3.784   6.569   4.381  0.5641 -0.0171 -0.3379
19669TIP3    H180498   3.860   6.529   4.339  0.9447  0.8400 -0.4892
19669TIP3    H280499   3.737   6.495   4.420  1.0561 -0.6451 -0.8985
19670TIP3   OH280500   1.015   4.744   4.950 -0.3547  0.0499 -0.2078
19670TIP3    H180501   0.974   4.824   4.917 -0.5930  0.4704  1.0696
19670TIP3    H280502   0.943   4.695   4.991 -0.1129 -0.5939 -0.5280
19671TIP3   OH280503   0.569   3.058   3.788  0.6902 -0.1668  0.8077
19671TIP3    H180504   0.581   3.140   3.836 -1.0748 -0.2714  1.5028
19671TIP3    H280505   0.534   2.997   3.853 -0.8317 -0.5966 -0.3484
19672TIP3   OH280506   5.679   0.933   5.264 -0.0859 -0.1756  0.2100
19672TIP3    H180507   5.725   1.011   5.234  0.5474 -0.6108  0.0275
19672TIP3    H280508   5.736   0.895   5.330  0.6953 -1.6646 -1.2386
19673TIP3   OH280509   3.125   2.851   6.093 -0.1514  0.0871  0.1613
19673TIP3    H180510   3.035   2.841   6.123 -0.5314  1.1847 -0.5983
19673TIP3    H280511   3.121   2.916   6.024  1.2740  0.3701  0.3163
19674TIP3   OH280512   3.580   4.880   5.186 -0.0187 -0.3103 -0.3673
19674TIP3    H180513   3.572   4.830   5.267  1.3342 -0.7353 -0.4668
19674TIP3    H280514   3.588   4.814   5.117  1.1477  0.0192 -0.5746
19675TIP3   OH280515   4.085   2.503   2.422 -0.3686  0.2450 -0.2930
19675TIP3    H180516   4.165   2.449   2.425 -0.5753 -0.1143 -0.9902
19675TIP3    H280517   4.117   2.592   2.406 -0.0555  0.2341  0.2708
19676TIP3   OH280518   0.851   4.563   5.064 -0.3853  0.0024 -0.3672
19676TIP3    H180519   0.759   4.555   5.039 -1.1520 -0.3758  2.2596
19676TIP3    H280520   0.889   4.477   5.044 -0.8645 -0.1757 -0.5245
19677TIP3   OH280521   1.631   5.849   0.645  0.1135  0.0831  0.3570
19677TIP3    H180522   1.687   5.823   0.572  1.3124  1.2162  0.8403
19677TIP3    H280523   1.619   5.768   0.695  1.2054 -0.2165  0.1612
19678TIP3   OH280524   6.776   4.499   1.378  0.7042  0.0594  0.0401
19678TIP3    H180525   6.847   4.456   1.426 -0.1775 -1.7298 -0.1742
19678TIP3    H280526   6.696   4.466   1.419 -0.0210  0.7632 -0.7735
19679TIP3   OH280527   0.390   6.133   4.856  0.9333 -0.7641 -0.0768
19679TIP3    H180528   0.363   6.044   4.880 -0.7965 -0.1948  0.2261
19679TIP3    H280529   0.425   6.170   4.937 -1.1175 -0.2130  0.6175
19680TIP3   OH280530   4.015   3.504   3.178 -0.6670  0.6780 -0.0238
19680TIP3    H180531   3.961   3.575   3.213 -1.5279 -0.1313  0.3151
19680TIP3    H280532   4.032   3.529   3.088  1.0870  2.5147  0.7366
19681TIP3   OH280533   5.285   4.500   1.544 -0.6627  0.0709  0.1642
19681TIP3    H180534   5.229   4.425   1.522 -2.0012  0.8240  0.9080
19681TIP3    H280535   5.280   4.557   1.468  3.9321 -2.4689 -2.4502
19682TIP3   OH280536   4.935   0.776   5.336 -0.4621 -0.1049 -0.0810
19682TIP3    H180537   4.984   0.824   5.402  2.2337 -0.6955 -1.5178
19682TIP3    H280538   4.999   0.755   5.269 -2.4547 -2.0379 -1.5264
19683TIP3   OH280539   1.019   4.701   4.509 -0.4664  0.7322  0.5485
19683TIP3    H180540   0.997   4.780   4.558 -0.6011  0.4037  1.0253
19683TIP3    H280541   1.079   4.731   4.441 -0.8988  1.3221  0.4171
19684TIP3   OH280542   4.911   1.974   4.477 -0.3774 -0.3467  0.5845
19684TIP3    H180543   4.982   1.987   4.540  1.3204 -0.7555 -1.1426
19684TIP3    H280544   4.864   1.896   4.509  0.3999 -0.5020  1.3742
19685TIP3   OH280545   0.498   3.315   3.999 -0.1832  0.3369 -0.0933
19685TIP3    H180546   0.508   3.373   3.923 -0.6080  1.7445  0.8776
19685TIP3    H280547   0.425   3.258   3.976 -0.4664  0.9065 -0.6642
19686TIP3   OH280548   4.205   6.152   3.823 -0.6980  0.6080 -0.4305
19686TIP3    H180549   4.175   6.136   3.733 -0.8478  1.2018 -0.4891
19686TIP3    H280550   4.194   6.246   3.836  0.7291  0.7876 -0.3079
19687TIP3   OH280551   5.599   5.904   5.640 -0.1470 -0.3978  0.1135
19687TIP3    H180552   5.638   5.947   5.564 -0.0229  0.5661  0.7031
19687TIP3    H280553   5.653   5.826   5.654  3.5785  2.2703  2.6099
19688TIP3   OH280554   6.887   2.513   4.911  0.6136  0.1598  0.0685
19688TIP3    H180555   6.831   2.439   4.935  0.1809  0.0666 -1.1429
19688TIP3    H280556   6.873   2.577   4.980 -0.3323 -0.2180  0.2474
19689TIP3   OH280557   0.446   2.816   4.442  0.8174  0.0775  0.1280
19689TIP3    H180558   0.362   2.863   4.446  1.0091  0.3673  3.0925
19689TIP3    H280559   0.505   2.869   4.495  2.9798 -0.0792 -1.9656
19690TIP3   OH280560   4.830   3.382   3.197  0.0623  0.1417  0.8991
19690TIP3    H180561   4.898   3.318   3.217 -1.1626 -0.9103  1.8706
19690TIP3    H280562   4.760   3.332   3.156 -0.6234  0.9806  1.0066
19691TIP3   OH280563   5.154   5.555   2.792  0.4497  0.1441 -0.1317
19691TIP3    H180564   5.068   5.583   2.761  0.4522  0.0093 -0.2633
19691TIP3    H280565   5.198   5.636   2.817  0.0956  0.1682  0.4341
19692TIP3   OH280566   4.873   3.813   4.586 -0.4770  0.0774  0.0554
19692TIP3    H180567   4.883   3.759   4.664 -0.5212  1.7660  1.3069
19692TIP3    H280568   4.880   3.903   4.619 -4.4274  1.0561 -1.2279
19693TIP3   OH280569   6.513   6.718  14.906 -0.4009 -0.7759  0.2010
19693TIP3    H180570   6.567   6.655  14.859  0.9039 -0.7536  1.6163
19693TIP3    H280571   6.560   6.801  14.897 -1.3889 -0.2637 -0.4616
19694TIP3   OH280572   0.464   0.332   5.145  0.0993 -0.3641  0.1666
19694TIP3    H180573   0.449   0.315   5.238  0.3959  1.1150  0.5123
19694TIP3    H280574   0.430   0.421   5.132 -0.0480 -0.6001 -1.1720
19695TIP3   OH280575   1.829   0.040  12.570 -0.1401  0.0643  0.2573
19695TIP3    H180576   1.772   0.012  12.642 -1.0935 -0.6293 -0.7521
19695TIP3    H280577   1.896   0.093  12.613 -0.2687 -0.9294  1.7633
19696TIP3   OH280578   2.663   2.625   2.750  0.4402  0.1466  0.0198
19696TIP3    H180579   2.581   2.659   2.716 -0.3610 -1.1883  0.5379
19696TIP3    H280580   2.666   2.534   2.719  1.2844 -0.0910  0.7496
19697TIP3   OH280581   3.240   2.361   1.083 -0.2508 -0.5951  0.5284
19697TIP3    H180582   3.159   2.309   1.080 -0.5573 -0.1449  0.7890
19697TIP3    H280583   3.222   2.429   1.148  0.5239 -0.7868  0.9619
19698TIP3   OH280584   2.531   5.164   2.687 -0.4697 -0.4026  0.2498
19698TIP3    H180585   2.440   5.187   2.701 -0.9478 -1.8346 -0.3465
19698TIP3    H280586   2.529   5.087   2.630  1.1670  0.5874 -1.2715
19699TIP3   OH280587   5.804   1.753   0.180 -0.1638 -1.2078 -0.2987
19699TIP3    H180588   5.711   1.733   0.167 -0.9608  2.0522 -0.4980
19699TIP3    H280589   5.836   1.777   0.092 -0.2879  1.5970  0.3399
19700TIP3   OH280590   3.841   1.902   5.169  0.0591  0.6495  0.2208
19700TIP3    H180591   3.870   1.823   5.214 -2.0153 -0.5716 -0.4491
19700TIP3    H280592   3.910   1.920   5.105  1.4394  0.4946  1.6012
19701TIP3   OH280593   7.037   3.927  11.983  0.3656  0.2119 -0.1338
19701TIP3    H180594   6.959   3.941  11.930 -0.5371 -1.5831  0.6187
19701TIP3    H280595   7.029   3.990  12.054 -0.5285 -0.0533  0.0245
19702TIP3   OH280596   7.186   5.183   2.173  0.2406  0.9442 -0.1168
19702TIP3    H180597   7.276   5.164   2.201  0.4232  0.2417 -1.0807
19702TIP3    H280598   7.193   5.189   2.077 -0.5910  1.7855 -0.1346
19703TIP3   OH280599   2.341   0.556   2.691  0.3133 -0.4093  0.7426
19703TIP3    H180600   2.289   0.556   2.771  0.9748 -2.4882  1.2195
19703TIP3    H280601   2.428   0.529   2.718  0.5797 -1.0418 -0.6464
19704TIP3   OH280602   2.637   0.589   4.608 -0.5633  0.3472 -0.2672
19704TIP3    H180603   2.627   0.658   4.674 -2.9014  0.1051 -0.2717
19704TIP3    H280604   2.698   0.527   4.647  0.9393  1.9702  0.0837
19705TIP3   OH280605   0.919   1.801   3.570 -0.5944  0.0061 -0.0900
19705TIP3    H180606   0.860   1.874   3.552  1.0229  1.5023  0.5021
19705TIP3    H280607   0.918   1.792   3.665  1.5905  1.3657  0.1196
19706TIP3   OH280608   0.934   5.863   4.966 -0.7038  0.1565 -0.2631
19706TIP3    H180609   0.903   5.947   4.999  1.7246  1.7597 -1.7031
19706TIP3    H280610   1.020   5.851   5.006 -0.5172 -1.0701 -0.9518
19707TIP3   OH280611   1.424   2.230   1.415 -0.4207  0.3277  0.6701
19707TIP3    H180612   1.418   2.319   1.380  0.7966  0.1506 -0.0650
19707TIP3    H280613   1.385   2.236   1.502 -3.3433  0.8340 -0.5566
19708TIP3   OH280614   5.815   3.322   3.715  0.3175 -0.4279 -0.4295
19708TIP3    H180615   5.889   3.375   3.745  0.4207  0.5894 -2.2959
19708TIP3    H280616   5.835   3.234   3.746  1.3169  0.1806  0.7787
19709TIP3   OH280617   7.143   0.339   3.154  0.4855 -0.6665  0.2001
19709TIP3    H180618   7.070   0.297   3.109 -0.0005  1.4402 -1.0794
19709TIP3    H280619   7.102   0.393   3.221  0.8259  0.7045 -0.6722
19710TIP3   OH280620   2.219   5.997   3.140 -0.1937 -0.4768 -0.4496
19710TIP3    H180621   2.145   5.937   3.129 -1.1841  0.6533 -0.0829
19710TIP3    H280622   2.262   5.997   3.055 -0.2168 -1.6400 -0.4847
19711TIP3   OH280623   4.743   6.604   4.290  0.0098  0.1973  0.5644
19711TIP3    H180624   4.674   6.670   4.298 -1.3653 -1.3003  1.9201
19711TIP3    H280625   4.701   6.531   4.245  1.0079 -0.3770  0.5335
19712TIP3   OH280626   1.179   5.853   3.645 -0.2968 -0.2123  0.2022
19712TIP3    H180627   1.229   5.831   3.566 -1.2918  0.6054 -0.6785
19712TIP3    H280628   1.178   5.949   3.647 -0.9493 -0.2211  0.7807
19713TIP3   OH280629   5.471   6.909   2.957  0.4611  0.2290  0.0184
19713TIP3    H180630   5.495   6.883   3.046  0.5558  2.0119  0.5593
19713TIP3    H280631   5.395   6.855   2.935  0.2774 -0.0513  1.2819
19714TIP3   OH280632   5.232   5.341   3.664 -0.3756  0.2605 -0.3720
19714TIP3    H180633   5.300   5.285   3.701 -0.0719  0.2631 -0.9184
19714TIP3    H280634   5.170   5.280   3.623 -1.3121  0.1867  1.1053
19715TIP3   OH280635   6.386   5.094   0.383  0.2433 -0.1009  0.1040
19715TIP3    H180636   6.351   5.159   0.443 -1.0769 -1.8051  1.2800
19715TIP3    H280637   6.309   5.048   0.350  1.1067 -0.7351 -1.1230
19716TIP3   OH280638   1.750   5.539   5.661  0.2142  0.2023  0.0408
19716TIP3    H180639   1.737   5.626   5.697  1.5462  0.6024 -0.3897
19716TIP3    H280640   1.806   5.495   5.726 -0.5758 -0.3882  0.3317
19717TIP3   OH280641   4.158   3.996   5.150  0.3857  0.1905  0.2851
19717TIP3    H180642   4.246   3.976   5.118 -0.3493  1.3275 -2.7381
19717TIP3    H280643   4.168   4.076   5.201  1.3081 -0.6314  1.4562
19718TIP3   OH280644   2.243   1.222   4.878 -0.0797  0.4587  0.8074
19718TIP3    H180645   2.207   1.268   4.802  0.5894  1.4031  1.0389
19718TIP3    H280646   2.248   1.130   4.851  1.0766  0.9093 -0.6710
19719TIP3   OH280647   5.082   1.158   3.014 -0.0931  0.0724  0.0523
19719TIP3    H180648   5.105   1.109   3.093  1.2028 -0.0510 -0.3702
19719TIP3    H280649   5.019   1.103   2.968  1.4051 -1.2961 -0.4611
19720TIP3   OH280650   5.606   5.238   6.046 -0.6975 -0.3507 -0.1174
19720TIP3    H180651   5.639   5.149   6.034  2.0701  0.8886 -3.5462
19720TIP3    H280652   5.549   5.253   5.971  1.5730  1.7008 -1.5806
19721TIP3   OH280653   3.802   0.728   2.406 -0.4271  0.2521 -0.2676
19721TIP3    H180654   3.811   0.808   2.354  1.6818 -0.5060 -1.1850
19721TIP3    H280655   3.839   0.751   2.491 -0.3687  0.4197 -0.3364
19722TIP3   OH280656   4.090   0.410   5.953 -0.0869  0.1012  0.3295
19722TIP3    H180657   4.114   0.341   6.014 -0.9124 -0.9723 -0.5204
19722TIP3    H280658   4.140   0.391   5.874  1.7888  2.0763  0.9328
19723TIP3   OH280659   3.754   3.049   2.038  0.4478  0.2302 -0.0535
19723TIP3    H180660   3.829   2.991   2.026  0.5809  0.5539 -0.8535
19723TIP3    H280661   3.792   3.137   2.041  0.0143  0.5089 -1.7446
19724TIP3   OH280662   3.629   5.218  14.627  0.4863  0.3745  0.4238
19724TIP3    H180663   3.536   5.242  14.624  0.4825  0.2898 -0.5131
19724TIP3    H280664   3.642   5.164  14.549  1.0577 -0.6277  1.1854
19725TIP3   OH280665   5.340   6.883   1.935 -0.4491 -0.2142  0.2872
19725TIP3    H180666   5.306   6.934   1.862 -0.2926  0.5885  0.7701
19725TIP3    H280667   5.429   6.859   1.909 -0.6285 -0.5161 -0.0676
19726TIP3   OH280668   2.592   5.710   2.029 -0.0491  0.0938 -0.2482
19726TIP3    H180669   2.567   5.681   1.941  1.3464  0.7985 -0.9147
19726TIP3    H280670   2.514   5.694   2.082 -0.6616 -1.1038 -1.4248
19727TIP3   OH280671   2.475   6.440   5.061  0.0322 -0.2769  0.1297
19727TIP3    H180672   2.518   6.519   5.028 -0.5867 -0.4468 -1.1847
19727TIP3    H280673   2.545   6.387   5.099  0.5653  0.5738  0.3370
19728TIP3   OH280674   6.810   5.856   2.317  0.1975  0.4724  0.5521
19728TIP3    H180675   6.771   5.794   2.255 -0.7249  0.4781  1.1242
19728TIP3    H280676   6.792   5.942   2.279 -0.0957  0.4626  0.6658
19729TIP3   OH280677   1.554   6.137   4.533 -0.4251 -0.0878 -0.3877
19729TIP3    H180678   1.636   6.109   4.573  0.2262 -0.5883 -2.0101
19729TIP3    H280679   1.558   6.233   4.537  0.2603 -0.1051 -0.5006
19730TIP3   OH280680   0.733   6.863   1.646  0.2985  0.1878 -0.6102
19730TIP3    H180681   0.817   6.891   1.608 -0.0457  1.2850 -0.5950
19730TIP3    H280682   0.757   6.804   1.718  1.1295  1.6320  0.3370
19731TIP3   OH280683   5.983   7.142   4.176 -0.0618  0.1073 -0.4412
19731TIP3    H180684   5.940   7.076   4.231 -0.3714  1.7709  1.4405
19731TIP3    H280685   5.921   7.159   4.105 -1.0281  0.0725  0.3722
19732TIP3   OH280686   6.950   2.165  14.450  0.3968  0.2913  0.2447
19732TIP3    H180687   7.005   2.199  14.379 -0.0251  0.5636  0.0451
19732TIP3    H280688   6.872   2.221  14.450  1.2324  1.5339  2.1934
19733TIP3   OH280689   0.102   6.136   3.521  0.1486  0.1294 -0.4462
19733TIP3    H180690   0.073   6.149   3.431 -0.6568 -1.6345 -0.4820
19733TIP3    H280691   0.184   6.087   3.514  0.8623  1.2571 -0.2286
19734TIP3   OH280692   3.307   5.537   3.009  0.1068  0.5458  0.5040
19734TIP3    H180693   3.321   5.493   3.093 -1.1386 -1.2919 -0.1800
19734TIP3    H280694   3.212   5.546   3.002  0.1648  0.3343 -0.8384
19735TIP3   OH280695   3.413   5.873   3.824  0.1206 -0.0433  0.1412
19735TIP3    H180696   3.353   5.941   3.853 -1.7794 -1.2613 -0.7651
19735TIP3    H280697   3.357   5.797   3.805  2.0488 -1.5923  0.2583
19736TIP3   OH280698   3.243   5.195  11.411 -0.6489 -0.1993 -0.0421
19736TIP3    H180699   3.230   5.237  11.327 -3.4587  1.1178  0.9314
19736TIP3    H280700   3.314   5.132  11.396  1.6248  2.6570 -2.3433
19737TIP3   OH280701   2.041   4.972   4.847  0.5666  0.0712  0.8887
19737TIP3    H180702   2.126   4.986   4.806 -0.0632  0.8330 -0.2143
19737TIP3    H280703   2.034   4.876   4.855  0.7063 -0.1134 -0.8602
19738TIP3   OH280704   0.774   5.928   4.615 -0.8192 -0.2431  0.0173
19738TIP3    H180705   0.808   5.993   4.554 -0.5122 -0.5321 -0.1248
19738TIP3    H280706   0.821   5.944   4.696 -2.3557  1.1789  0.6929
19739TIP3   OH280707   6.415   1.975   5.130 -0.2853 -0.6004 -0.4828
19739TIP3    H180708   6.453   2.042   5.186 -2.7103 -0.3989  1.0935
19739TIP3    H280709   6.446   1.892   5.167 -1.1575 -0.4408  0.6469
19740TIP3   OH280710   2.827   0.266   6.189  0.0381 -0.1186 -0.2883
19740TIP3    H180711   2.763   0.331   6.159 -0.4315 -1.2465 -1.8401
19740TIP3    H280712   2.899   0.318   6.225 -0.1508  1.2724 -1.8183
19741TIP3   OH280713   4.808   1.586   0.991 -0.7997  0.3726 -0.7059
19741TIP3    H180714   4.736   1.573   0.930 -0.6770  0.8520 -0.9583
19741TIP3    H280715   4.772   1.560   1.076 -0.6924 -1.1837 -1.1005
19742TIP3   OH280716   3.261   6.546  14.155 -0.5624  0.2294 -0.3018
19742TIP3    H180717   3.336   6.576  14.103 -1.9241 -0.7350 -3.0511
19742TIP3    H280718   3.298   6.524  14.240  1.7155  2.6250 -0.5424
19743TIP3   OH280719   2.663   4.418   2.775  0.1017  0.3672 -0.5739
19743TIP3    H180720   2.601   4.345   2.775 -0.6128  0.9676 -0.3508
19743TIP3    H280721   2.609   4.496   2.781  0.9413  0.8534  1.6423
19744TIP3   OH280722   1.795   0.876   3.439  0.5505  0.1296 -0.0182
19744TIP3    H180723   1.815   0.830   3.521  0.2211 -0.5576 -0.3141
19744TIP3    H280724   1.880   0.905   3.406  0.7950 -0.5400  0.0199
19745TIP3   OH280725   6.692   0.872  14.972  0.3725 -0.2958  0.5060
19745TIP3    H180726   6.715   0.940  14.908  0.6466 -0.0361  0.8742
19745TIP3    H280727   6.757   0.882  15.041  0.3717 -0.8913  0.5984
19746TIP3   OH280728   2.584   0.700   4.016  0.2709  0.6404  0.1231
19746TIP3    H180729   2.626   0.637   3.957 -1.7950 -0.9436  0.2263
19746TIP3    H280730   2.543   0.763   3.957  1.6505  1.4812  0.0058
19747TIP3   OH280731   1.154   2.417   2.537 -0.5696  0.3053  0.4892
19747TIP3    H180732   1.104   2.360   2.595 -2.3928  1.8896  0.5631
19747TIP3    H280733   1.094   2.488   2.515  0.3641  0.2555 -2.6145
19748TIP3   OH280734   1.520   1.902   3.026 -0.0097 -0.3259 -0.0555
19748TIP3    H180735   1.486   1.920   3.114  2.1658 -1.6414  1.1447
19748TIP3    H280736   1.594   1.962   3.016 -0.6146  0.2528 -1.2856
19749TIP3   OH280737   4.114   4.067   4.490  0.7101  0.1447 -0.2573
19749TIP3    H180738   4.066   3.985   4.484  1.2680 -0.3574  1.4949
19749TIP3    H280739   4.045   4.134   4.494  0.1558 -0.4609  0.9264
19750TIP3   OH280740   5.557   0.184   5.898  0.3223  0.1277  0.3150
19750TIP3    H180741   5.533   0.092   5.895  1.5542 -0.1818 -0.5903
19750TIP3    H280742   5.573   0.202   5.991  1.1409 -0.8606  0.3849
19751TIP3   OH280743   6.136   1.568  14.326  0.0626  0.1143  0.2595
19751TIP3    H180744   6.098   1.561  14.414  0.8919 -0.1184  0.6130
19751TIP3    H280745   6.193   1.492  14.318  1.1479  0.9075  0.1160
19752TIP3   OH280746   2.476   6.045   0.403 -0.4817 -0.2566 -0.3035
19752TIP3    H180747   2.468   6.105   0.477  1.0413  0.4074 -0.6254
19752TIP3    H280748   2.454   6.098   0.327 -1.1987 -0.7008 -0.4102
19753TIP3   OH280749   6.584   2.448   5.638 -0.2183 -0.3632  0.3813
19753TIP3    H180750   6.493   2.421   5.639 -0.1963 -0.4453  1.1007
19753TIP3    H280751   6.590   2.513   5.568 -0.6665 -0.8741 -0.1430
19754TIP3   OH280752   3.020   1.836   2.980 -0.2102  0.2840 -0.2753
19754TIP3    H180753   2.956   1.878   2.923 -0.1222 -0.2426 -0.7698
19754TIP3    H280754   3.000   1.869   3.068 -0.7332  0.6277 -0.5223
19755TIP3   OH280755   4.837   3.862   4.937  0.1774 -0.1003  0.2741
19755TIP3    H180756   4.814   3.901   4.853 -2.2319 -1.1067  0.3806
19755TIP3    H280757   4.846   3.936   4.997 -0.1895  0.5034 -0.4117
19756TIP3   OH280758   1.379   6.279   2.625  0.1148  0.0247  0.1800
19756TIP3    H180759   1.302   6.315   2.669  0.0413 -1.8224  1.7278
19756TIP3    H280760   1.454   6.316   2.672  0.1209  0.3389 -0.0758
19757TIP3   OH280761   5.100   2.754   2.735 -0.1892 -0.5465  0.1650
19757TIP3    H180762   5.008   2.744   2.711 -0.4951  0.5142  0.8505
19757TIP3    H280763   5.112   2.697   2.810  0.3902 -2.6886 -1.4437
19758TIP3   OH280764   0.130   5.854  14.434  0.0863 -0.4098  0.5953
19758TIP3    H180765   0.049   5.809  14.411  0.4911 -1.1358  0.5701
19758TIP3    H280766   0.102   5.941  14.461 -0.4522  0.7828 -3.1577
19759TIP3   OH280767   6.169   7.206   1.010 -0.0707  0.0379  0.3447
19759TIP3    H180768   6.158   7.256   0.929  0.6598 -0.1274  0.1325
19759TIP3    H280769   6.080   7.192   1.042 -0.3363  0.6026 -0.1238
19760TIP3   OH280770   3.712   2.426   3.084  0.4457  0.0066  0.0185
19760TIP3    H180771   3.669   2.500   3.127 -0.7039  1.0949 -2.7847
19760TIP3    H280772   3.642   2.364   3.065  0.9197 -0.4546 -0.2812
19761TIP3   OH280773   2.950   0.182  12.650  0.0444  0.6498 -0.1370
19761TIP3    H180774   3.017   0.128  12.608  0.8515  0.4447  1.3569
19761TIP3    H280775   2.981   0.272  12.640 -0.3030  0.6927 -0.8871
19762TIP3   OH280776   3.412   4.183   0.888 -0.0885 -0.1596 -0.4958
19762TIP3    H180777   3.426   4.090   0.903 -0.8392  0.1265  2.4868
19762TIP3    H280778   3.325   4.188   0.848  0.3635 -0.7482 -1.5997
19763TIP3   OH280779   6.736   6.435   1.481  0.9081 -0.2631 -0.0625
19763TIP3    H180780   6.802   6.400   1.540  3.3725  1.2532 -1.6772
19763TIP3    H280781   6.764   6.526   1.466 -1.3431  0.3239 -1.1675
19764TIP3   OH280782   4.448   6.357   1.816  0.4450  0.7328  0.1829
19764TIP3    H180783   4.431   6.310   1.734 -1.9626  1.9169 -0.0742
19764TIP3    H280784   4.534   6.396   1.803  1.2905 -1.2551 -0.6880
19765TIP3   OH280785   0.482   4.972   2.349  0.0569  0.0426 -0.0205
19765TIP3    H180786   0.543   4.921   2.402  0.0902  0.1834  0.0768
19765TIP3    H280787   0.432   5.024   2.412  1.0652  1.2740 -0.2108
19766TIP3   OH280788   0.646   2.290   0.996  0.1410 -0.4852  0.0533
19766TIP3    H180789   0.597   2.224   0.946 -0.1189  0.0685 -0.4468
19766TIP3    H280790   0.736   2.260   0.994 -0.0233 -0.9836  0.0867
19767TIP3   OH280791   1.034   6.870   2.574  1.0023  0.4371 -0.6335
19767TIP3    H180792   1.040   6.803   2.642 -0.2622  0.3600 -0.5868
19767TIP3    H280793   1.125   6.895   2.557  1.4375 -0.7760 -0.1443
19768TIP3   OH280794   4.763   3.634   1.887 -0.1237  0.2324 -0.1561
19768TIP3    H180795   4.854   3.611   1.908 -0.6090 -0.1406  1.7082
19768TIP3    H280796   4.711   3.590   1.954 -1.8566 -0.9053 -2.1412
19769TIP3   OH280797   0.584   3.659   4.537 -0.0954 -0.5053 -0.1372
19769TIP3    H180798   0.676   3.646   4.513 -0.1935  0.3877 -1.0973
19769TIP3    H280799   0.562   3.744   4.499 -1.2841 -0.6537  0.1961
19770TIP3   OH280800   3.476   0.594   5.044 -0.2829 -0.0106  0.2782
19770TIP3    H180801   3.514   0.645   4.973  0.8715  2.1216  2.3015
19770TIP3    H280802   3.550   0.547   5.082 -0.6413 -0.0898  0.8918
19771TIP3   OH280803   3.644   4.289   3.234  0.2291 -0.3753 -0.2531
19771TIP3    H180804   3.570   4.287   3.174 -1.6467 -0.2463  1.9303
19771TIP3    H280805   3.619   4.232   3.306  1.5592  0.9084  1.3195
19772TIP3   OH280806   0.700   3.925   2.029  0.7680 -0.6736 -0.2115
19772TIP3    H180807   0.780   3.927   2.082  1.2698 -0.7420 -0.9480
19772TIP3    H280808   0.697   4.011   1.987  1.4400 -1.3119 -1.5992
19773TIP3   OH280809   1.375   4.319   4.186 -0.0276  0.1308 -0.1233
19773TIP3    H180810   1.309   4.387   4.198 -0.4509 -0.1899 -0.6128
19773TIP3    H280811   1.325   4.240   4.165  0.4604 -0.3198  0.3779
19774TIP3   OH280812   5.736   2.017   5.686 -0.4865  0.7808  0.3007
19774TIP3    H180813   5.647   2.026   5.652 -0.9303 -3.0292 -0.0140
19774TIP3    H280814   5.792   2.021   5.608 -0.5009  1.6740  0.3257
19775TIP3   OH280815   0.533   3.663   5.345 -0.1346 -0.2925  0.4279
19775TIP3    H180816   0.469   3.660   5.273 -0.1464 -0.9165  0.4573
19775TIP3    H280817   0.535   3.755   5.371 -1.7376 -0.4071  1.0689
19776TIP3   OH280818   5.406   0.190   3.895  0.0365 -0.2805  0.5850
19776TIP3    H180819   5.387   0.261   3.833  0.7015 -0.7072 -0.1227
19776TIP3    H280820   5.346   0.206   3.968 -0.3524  0.5732  0.0994
19777TIP3   OH280821   6.565   7.190   3.468  0.3040 -0.2366  0.0718
19777TIP3    H180822   6.501   7.241   3.517 -1.7011 -1.6034 -0.9683
19777TIP3    H280823   6.611   7.138   3.534 -1.6011 -1.2633  0.6576
19778TIP3   OH280824   2.585   2.009   3.878  0.1420 -0.0059 -0.0868
19778TIP3    H180825   2.531   1.940   3.917  0.5637 -0.4964 -0.3461
19778TIP3    H280826   2.644   2.036   3.948  0.2028 -0.1517 -0.0800
19779TIP3   OH280827   7.072   3.423   1.934 -0.3320  0.0869  0.2958
19779TIP3    H180828   7.073   3.329   1.948 -1.6827  0.1692  1.0590
19779TIP3    H280829   7.129   3.458   2.002 -2.6758  0.0640  2.3877
19780TIP3   OH280830   6.468   6.264   3.784  0.3899  0.3307 -0.0283
19780TIP3    H180831   6.551   6.312   3.782  1.1835 -1.0085 -0.6743
19780TIP3    H280832   6.408   6.319   3.734  1.0671  0.9956 -0.1405
19781TIP3   OH280833   4.466   3.443  14.834  0.6228  0.7026 -0.0899
19781TIP3    H180834   4.560   3.455  14.851  0.8891  0.3968 -1.2120
19781TIP3    H280835   4.458   3.455  14.739 -0.1216 -1.2792 -0.3299
19782TIP3   OH280836   3.155   1.177   3.908  0.3805  0.0014 -0.5513
19782TIP3    H180837   3.081   1.172   3.847 -0.7650  0.4479  0.7531
19782TIP3    H280838   3.216   1.238   3.866 -0.8888  1.1746 -0.7623
19783TIP3   OH280839   0.619   4.135   1.513 -0.0499 -0.6137 -0.5605
19783TIP3    H180840   0.566   4.115   1.436 -1.1341  1.0771 -0.3066
19783TIP3    H280841   0.657   4.051   1.539 -0.0695 -1.3167 -2.6151
19784TIP3   OH280842   0.554   1.213   2.285  0.1932 -0.0095 -0.0875
19784TIP3    H180843   0.463   1.185   2.294 -0.3896  1.6029 -0.6444
19784TIP3    H280844   0.598   1.174   2.361 -0.8481 -1.1504 -0.0233
19785TIP3   OH280845   6.284   4.562   5.521 -0.5066  0.1145 -0.1751
19785TIP3    H180846   6.347   4.516   5.466 -0.3162 -0.6601  0.6901
19785TIP3    H280847   6.318   4.554   5.610 -1.6365 -0.0148  0.2601
19786TIP3   OH280848   1.086   6.748   4.090 -0.5878 -0.4600  0.2986
19786TIP3    H180849   1.100   6.758   3.995 -1.9440 -0.8876  0.0328
19786TIP3    H280850   1.115   6.659   4.108  1.6305  0.2832  0.7099
19787TIP3   OH280851   0.960   1.855   3.228  0.1253 -0.0386  0.2183
19787TIP3    H180852   0.958   1.944   3.193  0.0051 -0.5601 -1.1672
19787TIP3    H280853   0.867   1.831   3.237  0.1538 -0.2810 -0.1151
19788TIP3   OH280854   0.521   7.063   4.194 -0.1845 -0.3194 -0.2345
19788TIP3    H180855   0.500   7.012   4.116 -2.5015  0.2087 -0.0227
19788TIP3    H280856   0.443   7.058   4.249  1.2466 -0.3622  1.9188
19789TIP3   OH280857   0.125   5.644   4.270  0.0404 -0.4323 -0.3653
19789TIP3    H180858   0.177   5.569   4.300  1.4263  0.2526 -0.9256
19789TIP3    H280859   0.172   5.720   4.305 -1.3098  0.1846  0.1454
19790TIP3   OH280860   1.325   1.222   1.169  0.7742 -0.3529  0.1588
19790TIP3    H180861   1.309   1.189   1.257  0.8622 -1.0760 -0.0934
19790TIP3    H280862   1.240   1.217   1.125  0.7647 -0.1445  0.1520
19791TIP3   OH280863   7.062   6.340   5.475  0.2181  0.0935 -0.9963
19791TIP3    H180864   6.987   6.303   5.523 -0.3858  1.7337 -0.6063
19791TIP3    H280865   7.042   6.433   5.469  2.0691  0.5042 -1.2238
19792TIP3   OH280866   4.722   5.868   5.436 -0.0961  0.0842 -0.6269
19792TIP3    H180867   4.661   5.891   5.507 -0.2235  0.0534 -0.7247
19792TIP3    H280868   4.666   5.863   5.358  0.2739  1.6428 -1.0178
19793TIP3   OH280869   2.326   6.104   3.692  0.0679 -0.0098  0.0900
19793TIP3    H180870   2.243   6.071   3.658 -0.1268 -0.4518  0.9681
19793TIP3    H280871   2.371   6.140   3.616 -0.2759 -1.1326 -0.6550
19794TIP3   OH280872   5.577   1.956   5.229  0.0558  0.4492  0.4864
19794TIP3    H180873   5.640   1.955   5.302  1.3591 -2.2781 -0.5597
19794TIP3    H280874   5.564   2.049   5.211  2.4205  1.1513  1.9204
19795TIP3   OH280875   1.064   3.326   3.314 -0.0174 -0.6979 -0.1247
19795TIP3    H180876   1.103   3.360   3.234  0.4297 -2.1729 -0.5476
19795TIP3    H280877   0.983   3.376   3.324  0.1075 -0.2370 -1.2806
19796TIP3   OH280878   3.072   6.226   3.130  0.4630 -0.0573 -0.0459
19796TIP3    H180879   3.040   6.315   3.147 -0.2635 -0.5954  1.5521
19796TIP3    H280880   3.127   6.205   3.206 -1.7003 -2.0093  1.0787
19797TIP3   OH280881   0.317   6.718   1.426 -0.2442 -0.4550 -0.0525
19797TIP3    H180882   0.320   6.631   1.385 -0.2354 -1.0634  1.1853
19797TIP3    H280883   0.408   6.738   1.446 -0.2250 -0.0612 -0.5147
19798TIP3   OH280884   6.453   1.969   1.370  0.2120 -0.0139 -0.2195
19798TIP3    H180885   6.392   1.993   1.299  1.0568  2.9428 -0.0656
19798TIP3    H280886   6.535   1.948   1.325 -0.2632 -1.9643 -0.2828
19799TIP3   OH280887   5.587   2.577   5.723  0.1030  0.0927 -0.6669
19799TIP3    H180888   5.645   2.531   5.784 -0.5838 -2.8771 -2.0918
19799TIP3    H280889   5.645   2.611   5.655  0.6104  1.2729  0.3294
19800TIP3   OH280890   1.473   4.445   1.490  0.2557 -0.0535  0.1114
19800TIP3    H180891   1.427   4.365   1.517  0.3326 -0.0709  0.1901
19800TIP3    H280892   1.425   4.516   1.533  0.0300 -0.0358 -0.1642
19801TIP3   OH280893   0.916   2.607   3.225 -0.1368 -0.2029  0.0285
19801TIP3    H180894   0.887   2.623   3.135  0.0344  0.0479  0.0167
19801TIP3    H280895   0.850   2.547   3.261  0.2157 -0.9270 -0.5072
19802TIP3   OH280896   4.374   4.771  14.055  0.1723 -0.1937  0.0248
19802TIP3    H180897   4.395   4.708  13.986 -1.8065  0.5279 -1.3187
19802TIP3    H280898   4.288   4.744  14.086  0.4350  0.3382  1.2498
19803TIP3   OH280899   1.563   2.991   0.511  0.5788  0.0813  0.8799
19803TIP3    H180900   1.480   3.027   0.540  0.4757 -0.7453  1.6617
19803TIP3    H280901   1.569   3.015   0.419 -1.8996 -2.2925 -0.0240
19804TIP3   OH280902   3.007   7.192   1.134  0.2338 -0.2961 -0.1344
19804TIP3    H180903   3.048   7.110   1.105  0.4149 -0.7775  1.3742
19804TIP3    H280904   3.077   7.238   1.180  0.1134  0.7023 -0.9288
19805TIP3   OH280905   5.908   2.183   1.010 -0.0829 -0.4597 -0.6713
19805TIP3    H180906   5.856   2.223   1.079 -2.3078 -2.3923 -1.1138
19805TIP3    H280907   5.954   2.110   1.053 -1.0158 -1.3048 -1.0611
19806TIP3   OH280908   0.030   5.961   3.140  0.2400  0.1153 -0.0753
19806TIP3    H180909  -0.029   5.898   3.098 -2.1006  1.3218  1.1793
19806TIP3    H280910   0.117   5.935   3.111 -0.7943 -2.3553 -1.3014
19807TIP3   OH280911   1.927   5.356   2.710 -0.1150  0.2022  0.3241
19807TIP3    H180912   2.005   5.336   2.762 -0.4039  0.3849  0.8450
19807TIP3    H280913   1.855   5.319   2.761 -0.1984 -2.0631 -1.2927
19808TIP3   OH280914   3.287   0.447   2.716  0.1198 -0.4755  0.6302
19808TIP3    H180915   3.378   0.417   2.707  1.1842  2.7881 -1.5611
19808TIP3    H280916   3.253   0.448   2.626 -2.0377 -1.3103  1.3802
19809TIP3   OH280917   5.551   0.239   2.582 -0.0066  0.4084  0.5194
19809TIP3    H180918   5.574   0.246   2.489  1.8964 -1.4174  0.7842
19809TIP3    H280919   5.544   0.145   2.598 -0.4222  0.6964  2.2256
19810TIP3   OH280920   2.049   4.435   5.260 -0.6345 -0.1986  0.6703
19810TIP3    H180921   1.964   4.392   5.248 -0.1207 -0.9655 -0.4291
19810TIP3    H280922   2.111   4.363   5.269  0.2715  0.2253 -1.4272
19811TIP3   OH280923   2.544   3.318   1.036 -0.0322 -0.0719 -0.4770
19811TIP3    H180924   2.462   3.285   0.999 -0.3310  0.3322 -0.1852
19811TIP3    H280925   2.559   3.263   1.113 -0.0570 -0.1124 -0.5014
19812TIP3   OH280926   4.598   2.931   5.105 -0.5704  0.0273  0.1919
19812TIP3    H180927   4.686   2.902   5.131 -0.1397  1.6403  0.6388
19812TIP3    H280928   4.540   2.886   5.166  0.0460 -0.1775  0.6426
19813TIP3   OH280929   0.570   3.891   1.097  0.0391  0.1003 -0.2575
19813TIP3    H180930   0.564   3.801   1.067  0.4793  0.0550 -0.2202
19813TIP3    H280931   0.618   3.886   1.180 -0.4018  0.3138  0.0152
19814TIP3   OH280932   5.757   1.616   1.159  0.7333 -0.3835 -0.9224
19814TIP3    H180933   5.777   1.538   1.107 -1.0100 -0.7902 -1.0676
19814TIP3    H280934   5.679   1.652   1.118 -0.6211 -0.6262  1.2547
19815TIP3   OH280935   3.109   6.020  12.689 -0.4903 -0.2346  0.1299
19815TIP3    H180936   3.178   6.023  12.622  0.2914 -0.8476  0.8741
19815TIP3    H280937   3.157   6.009  12.771 -1.4426  0.3278  0.7745
19816TIP3   OH280938   3.714   2.772   5.590  0.0191  0.3449  0.5903
19816TIP3    H180939   3.773   2.803   5.521 -1.4859  1.0287 -0.4194
19816TIP3    H280940   3.634   2.747   5.544 -0.7180  0.0065  2.0096
19817TIP3   OH280941   6.565   2.840   4.461 -0.1883  0.2128 -0.1196
19817TIP3    H180942   6.615   2.919   4.445  0.3536 -0.5314 -2.4293
19817TIP3    H280943   6.528   2.852   4.549  1.6511  2.0333  0.4691
19818TIP3   OH280944   4.850   4.778   3.880 -0.3312 -0.2181 -0.0051
19818TIP3    H180945   4.802   4.756   3.800 -1.9010 -0.9753  1.0943
19818TIP3    H280946   4.940   4.796   3.850 -0.7065 -1.1521 -1.8385
19819TIP3   OH280947   0.713   6.115   5.455  0.2829 -0.6706  0.3525
19819TIP3    H180948   0.779   6.175   5.420 -0.9608  0.8392  0.4633
19819TIP3    H280949   0.630   6.153   5.427 -0.5824 -1.8763  1.2130
19820TIP3   OH280950   0.653   4.664   4.189 -0.4290 -0.4390  0.0416
19820TIP3    H180951   0.660   4.615   4.107 -1.5802  0.2260 -0.4804
19820TIP3    H280952   0.725   4.727   4.185 -1.3563  0.5826 -1.1725
19821TIP3   OH280953   0.469   3.544   3.410 -0.5427 -0.0771 -0.3975
19821TIP3    H180954   0.454   3.573   3.320 -0.9915  1.1471  0.0541
19821TIP3    H280955   0.497   3.623   3.457  2.2819 -1.1636 -0.0091
19822TIP3   OH280956   6.939   4.922   1.632 -0.0926  0.5337  0.4675
19822TIP3    H180957   6.911   4.913   1.541 -3.2697  2.8033  1.0501
19822TIP3    H280958   6.967   5.013   1.641  0.7264  0.2004  1.6795
19823TIP3   OH280959   6.151   1.796   2.520  0.5641  0.0747  0.0669
19823TIP3    H180960   6.122   1.783   2.610  1.1577  0.3515  0.3081
19823TIP3    H280961   6.160   1.707   2.484 -1.4292 -0.0014 -0.3177
19824TIP3   OH280962   0.971   4.522  15.044  0.4220  0.2907  0.0402
19824TIP3    H180963   1.029   4.447  15.034  0.6180  0.4280  0.1220
19824TIP3    H280964   1.027   4.589  15.084  0.5731  0.8667 -1.0917
19825TIP3   OH280965   0.937   3.242  14.441  0.3651 -0.5197 -0.1282
19825TIP3    H180966   0.904   3.280  14.522  1.3661 -0.5729  0.3139
19825TIP3    H280967   0.963   3.153  14.465  1.6812 -0.1845 -0.2352
19826TIP3   OH280968   2.957   1.550   4.987  0.6725 -0.2714 -0.4328
19826TIP3    H180969   2.951   1.479   5.051  0.3935  1.1227  1.1847
19826TIP3    H280970   2.992   1.624   5.037 -2.5304  1.8338 -1.0124
19827TIP3   OH280971   5.150   5.338   1.556  0.4355 -1.0093  0.0365
19827TIP3    H180972   5.153   5.326   1.651 -0.0605 -0.4350  0.1294
19827TIP3    H280973   5.182   5.255   1.521  4.9607  0.2086  0.7005
19828TIP3   OH280974   3.759   6.512   5.077  0.1077 -0.2170 -0.0468
19828TIP3    H180975   3.671   6.548   5.082 -0.2185 -1.0844  0.7024
19828TIP3    H280976   3.816   6.589   5.071 -0.8056  0.3607 -3.3571
19829TIP3   OH280977   0.934   1.525   2.831 -0.3044 -0.0324 -0.4391
19829TIP3    H180978   0.877   1.550   2.904  1.1802 -0.6079  0.9808
19829TIP3    H280979   0.988   1.602   2.815  0.0813 -0.2574 -0.2249
19830TIP3   OH280980   3.361   0.668   0.493 -0.2158  0.5049  0.5949
19830TIP3    H180981   3.445   0.700   0.462 -0.0419  0.3567  0.9022
19830TIP3    H280982   3.347   0.714   0.576 -1.1024  1.5836 -0.1268
19831TIP3   OH280983   0.728   5.123   5.673  0.3266 -0.0144 -0.2831
19831TIP3    H180984   0.804   5.094   5.722  0.5721  2.0181  0.6568
19831TIP3    H280985   0.724   5.218   5.688 -1.3257  0.2258 -1.7978
19832TIP3   OH280986   5.203   2.738   4.854  0.0775  0.1724  0.3906
19832TIP3    H180987   5.150   2.769   4.780 -0.2179  0.4977  0.7402
19832TIP3    H280988   5.250   2.816   4.884  1.0505 -0.1837 -0.1520
19833TIP3   OH280989   5.918   3.817   1.670 -0.2093  0.1493  0.9963
19833TIP3    H180990   5.845   3.769   1.632 -0.8766  0.8082  1.4105
19833TIP3    H280991   5.905   3.907   1.641  2.1877 -0.1832 -1.5226
19834TIP3   OH280992   1.032   1.345   2.645 -0.2019  0.5153  0.1435
19834TIP3    H180993   0.999   1.329   2.557  0.0864 -1.3043  0.3316
19834TIP3    H280994   0.970   1.408   2.682  0.5967  2.6539 -1.8716
19835TIP3   OH280995   0.902   6.916   5.226  0.4698 -0.0969  0.1117
19835TIP3    H180996   0.945   6.836   5.196  3.2144  1.7608 -1.4209
19835TIP3    H280997   0.964   6.986   5.202 -2.3808  2.6118  0.0787
19836TIP3   OH280998   0.076   5.736   4.673 -0.2657  0.0133 -0.1167
19836TIP3    H180999   0.082   5.657   4.620  1.4190  1.0833 -1.6792
19836TIP3    H281000   0.063   5.806   4.609 -1.2145  1.0621  1.1773
19837TIP3   OH281001   4.228   7.210   0.753 -0.7963  0.0227  0.3436
19837TIP3    H181002   4.154   7.150   0.745  0.5085 -1.8273  1.4171
19837TIP3    H281003   4.298   7.169   0.703 -0.0728  1.0126  0.5196
19838TIP3   OH281004   1.329   2.869  12.994  0.2458 -0.2618 -0.0319
19838TIP3    H181005   1.267   2.941  13.003  0.0891 -0.4185  0.1518
19838TIP3    H281006   1.285   2.806  12.937  0.5588 -0.0211 -0.5505
19839TIP3   OH281007   1.096   4.266   4.762  0.0142 -0.3109 -0.0194
19839TIP3    H181008   1.106   4.316   4.681 -1.0622 -2.0746 -1.3263
19839TIP3    H281009   1.049   4.325   4.821 -1.7524  0.0796 -1.7052
19840TIP3   OH281010   5.248   6.951   0.600 -0.6099  0.2416  0.5407
19840TIP3    H181011   5.233   7.026   0.657 -0.3550  0.7664 -0.0708
19840TIP3    H281012   5.204   6.974   0.518  0.3032  0.1511  0.0178
19841TIP3   OH281013   5.741   3.309   5.551  0.0300 -0.0013 -0.4216
19841TIP3    H181014   5.783   3.227   5.577 -0.3559 -0.5749 -1.5165
19841TIP3    H281015   5.676   3.283   5.486 -0.6802  1.0909 -0.1809
19842TIP3   OH281016   2.699   3.188   5.685 -0.1747 -0.0130  0.9005
19842TIP3    H181017   2.656   3.236   5.614 -0.7730  0.7657  1.7677
19842TIP3    H281018   2.657   3.102   5.685 -0.3741  0.0824  0.4988
19843TIP3   OH281019   0.277   6.489   3.531 -0.5293  0.4748  0.0198
19843TIP3    H181020   0.252   6.475   3.440  0.1622 -2.5262  0.2008
19843TIP3    H281021   0.344   6.557   3.527  0.3921 -0.4562 -1.9039
19844TIP3   OH281022   5.209   5.757   4.141  0.2453  0.5479  0.3915
19844TIP3    H181023   5.137   5.777   4.081 -0.4678  0.2407  1.1201
19844TIP3    H281024   5.236   5.843   4.175 -0.6349  0.5679  1.0703
19845TIP3   OH281025   6.310   2.498   4.035  0.5443 -0.2117  0.1837
19845TIP3    H181026   6.252   2.532   4.103 -0.4529 -1.3343 -0.0869
19845TIP3    H281027   6.392   2.478   4.081  0.3148  0.2244  0.7948
19846TIP3   OH281028   3.499   6.593   5.111 -0.6950 -0.0533 -0.3226
19846TIP3    H181029   3.486   6.682   5.144  0.5139  0.1617 -0.4130
19846TIP3    H281030   3.472   6.537   5.184 -0.2278  0.4003  0.2072
19847TIP3   OH281031   3.441   5.296   1.644  0.0232 -0.2656  0.0416
19847TIP3    H181032   3.369   5.320   1.703  1.3434  0.7340  1.3307
19847TIP3    H281033   3.410   5.321   1.557 -0.7124  1.3522  0.7226
19848TIP3   OH281034   3.741   2.576   0.917 -0.2495 -0.1641 -0.2319
19848TIP3    H181035   3.725   2.656   0.867 -2.0693  0.0120  0.5543
19848TIP3    H281036   3.684   2.511   0.876 -0.7361 -0.3636  0.7416
19849TIP3   OH281037   4.086   1.789   4.131  0.0185  0.0474  0.5899
19849TIP3    H181038   4.032   1.860   4.166 -0.7837 -0.0007 -0.4798
19849TIP3    H281039   4.136   1.757   4.206  0.1899  1.5589  1.1479
19850TIP3   OH281040   3.469   4.010  15.328  0.1928 -0.5113 -0.1637
19850TIP3    H181041   3.481   3.916  15.325 -3.1088 -1.0695  0.7954
19850TIP3    H281042   3.458   4.030  15.421  1.3724  0.9405 -0.2912
19851TIP3   OH281043   2.650   4.259   5.003  0.2435 -0.1140  0.0709
19851TIP3    H181044   2.683   4.172   4.980 -0.0956 -1.3532  3.6772
19851TIP3    H281045   2.723   4.318   4.984  0.9297 -1.3325 -1.2681
19852TIP3   OH281046   6.111   6.276   2.472  0.7263 -0.3114 -0.4092
19852TIP3    H181047   6.164   6.196   2.471 -0.3305 -1.0231 -1.6883
19852TIP3    H281048   6.088   6.288   2.564 -0.7733 -2.6429 -0.3869
19853TIP3   OH281049   4.843   6.083   4.013  0.3111  1.3187 -0.1778
19853TIP3    H181050   4.792   6.002   4.012  0.9005  0.9459 -0.9594
19853TIP3    H281051   4.930   6.057   3.985  0.1048  2.4650 -2.0499
19854TIP3   OH281052   0.103   6.470   4.522 -0.0448  0.4539  0.0411
19854TIP3    H181053   0.139   6.535   4.461 -0.2897 -0.7434 -1.4405
19854TIP3    H281054   0.009   6.474   4.508 -0.1066  0.2049  0.3797
19855TIP3   OH281055   0.425   1.239   4.260  0.6537  0.0211  0.1584
19855TIP3    H181056   0.354   1.210   4.203  0.2317  0.2178  0.5816
19855TIP3    H281057   0.392   1.318   4.302  0.9820 -0.0919  0.6416
19856TIP3   OH281058   2.422   4.422   1.491 -0.4119 -0.5366  0.1106
19856TIP3    H181059   2.462   4.429   1.577  0.6029  2.3854 -0.5012
19856TIP3    H281060   2.348   4.482   1.494 -1.6186 -1.9350 -0.4630
19857TIP3   OH281061   6.023   5.937   1.836 -0.4187  0.0284  0.0257
19857TIP3    H181062   5.927   5.938   1.838 -0.4278 -0.5024  0.0944
19857TIP3    H281063   6.047   6.017   1.789 -0.8938  0.1968  0.0659
19858TIP3   OH281064   0.615   3.342   1.542  0.2613  0.2235  0.5043
19858TIP3    H181065   0.618   3.400   1.618 -1.4781  0.1886  0.6370
19858TIP3    H281066   0.522   3.334   1.522  0.5160 -1.8945 -0.0146
19859TIP3   OH281067   1.172   2.903   5.223  0.3810  0.1901 -0.8356
19859TIP3    H181068   1.207   2.825   5.265 -1.2385 -0.4968 -0.6996
19859TIP3    H281069   1.214   2.905   5.137  0.9950 -0.4069 -0.5543
19860TIP3   OH281070   1.605   0.083   3.796  0.6680  0.4879 -0.1030
19860TIP3    H181071   1.649   0.028   3.861  2.6884  2.0414 -0.0945
19860TIP3    H281072   1.555   0.146   3.847 -0.2194 -0.1763 -0.1160
19861TIP3   OH281073   0.268   5.497   1.162 -0.0188  0.0892  0.0212
19861TIP3    H181074   0.201   5.430   1.147  0.6229 -0.3865 -0.8174
19861TIP3    H281075   0.351   5.452   1.146  0.3938  1.3355 -1.6309
19862TIP3   OH281076   0.631   6.417   5.117  0.3323  0.3510  0.2333
19862TIP3    H181077   0.569   6.453   5.054  0.9797 -0.9039 -1.1731
19862TIP3    H281078   0.669   6.493   5.161 -0.7029  1.2075 -0.3274
19863TIP3   OH281079   7.111   5.902   3.552 -0.3193  0.1949 -0.2754
19863TIP3    H181080   7.107   5.840   3.625 -0.3588 -1.4458 -1.6130
19863TIP3    H281081   7.199   5.939   3.556  0.2692 -1.1483 -0.3709
19864TIP3   OH281082   4.392   5.211   3.610  0.1063 -0.0280  0.9093
19864TIP3    H181083   4.382   5.258   3.527 -1.7506 -0.2327  0.9680
19864TIP3    H281084   4.330   5.254   3.669  1.3414  0.0614  2.1845
19865TIP3   OH281085   3.487   3.208   1.610  0.1085  0.1010  0.5658
19865TIP3    H181086   3.467   3.130   1.663  0.4191  1.3810  2.6775
19865TIP3    H281087   3.422   3.272   1.636 -0.5758  0.3931 -1.6693
19866TIP3   OH281088   0.979   2.187   5.847 -0.2164  0.5473  0.3148
19866TIP3    H181089   1.026   2.267   5.822 -0.5911  1.3390  2.0005
19866TIP3    H281090   0.887   2.206   5.825 -0.1916  0.2608 -0.0335
19867TIP3   OH281091   2.744   0.000   1.161  0.4075 -0.0089 -0.3225
19867TIP3    H181092   2.838  -0.005   1.143  0.3277  0.6250 -1.0054
19867TIP3    H281093   2.707  -0.079   1.121  0.7531 -0.7515  0.7832
19868TIP3   OH281094   1.220   5.422   1.261 -0.1556 -0.6330  0.5133
19868TIP3    H181095   1.300   5.401   1.212  0.1481  1.3236  0.0815
19868TIP3    H281096   1.247   5.493   1.319 -1.0005 -1.6118  2.1724
19869TIP3   OH281097   5.485   1.697   2.353 -0.1357 -0.1539  0.4990
19869TIP3    H181098   5.468   1.648   2.433  0.3700 -0.8643  0.1821
19869TIP3    H281099   5.576   1.724   2.359 -0.0939 -0.2065  0.1737
19870TIP3   OH281100   1.781   5.155   5.006 -0.1965 -0.1406 -0.4980
19870TIP3    H181101   1.732   5.202   5.073 -0.7243  0.8242 -1.5210
19870TIP3    H281102   1.846   5.219   4.975  1.3679 -1.2175  0.4488
19871TIP3   OH281103   3.734   0.989   3.351  0.2268  0.2239 -0.1971
19871TIP3    H181104   3.828   0.971   3.345  0.2885  0.4448  0.0848
19871TIP3    H281105   3.729   1.081   3.376 -0.0798  0.5865 -1.5046
19872TIP3   OH281106   6.508   1.126   0.737 -0.3088 -0.5192 -0.7679
19872TIP3    H181107   6.460   1.209   0.732 -1.0431 -0.9327 -0.8101
19872TIP3    H281108   6.600   1.151   0.740 -0.5550  0.4671  2.3574
19873TIP3   OH281109   3.739   3.256  13.462  0.0192 -0.3113 -0.0594
19873TIP3    H181110   3.718   3.163  13.450 -0.1660 -0.3339  0.3937
19873TIP3    H281111   3.769   3.286  13.377 -0.4192 -0.6600 -0.3399
19874TIP3   OH281112   0.040   4.666   5.582  0.0998  0.7588 -0.4989
19874TIP3    H181113   0.072   4.750   5.615  1.2607  0.1195  0.0800
19874TIP3    H281114  -0.009   4.688   5.504 -0.9297  2.1238  0.4852
19875TIP3   OH281115   4.730   5.656   0.372  0.6291 -0.0881  0.1966
19875TIP3    H181116   4.643   5.684   0.402 -1.1053  0.0747 -4.2277
19875TIP3    H281117   4.735   5.564   0.400 -1.6458 -0.5332 -0.6173
19876TIP3   OH281118   6.954   6.573   3.430  0.3918  0.3289 -0.3813
19876TIP3    H181119   6.941   6.479   3.439 -0.6050  0.3533 -1.3538
19876TIP3    H281120   6.966   6.604   3.520 -1.6326 -0.4052  0.1869
19877TIP3   OH281121   0.768   6.458   5.577 -0.0396  0.2593 -0.6215
19877TIP3    H181122   0.782   6.436   5.669 -0.0765  1.3257 -0.3469
19877TIP3    H281123   0.675   6.480   5.571 -0.0978 -0.0673 -0.9778
19878TIP3   OH281124   5.067   6.268   3.907 -0.1670  0.2413 -0.4281
19878TIP3    H181125   4.984   6.296   3.944 -2.0656 -3.8602 -0.9372
19878TIP3    H281126   5.064   6.299   3.816 -0.0180  2.0350  0.1446
19879TIP3   OH281127   3.209   2.176   3.603  0.5196 -0.0044  0.2350
19879TIP3    H181128   3.167   2.117   3.665 -2.7861  1.9372  0.0443
19879TIP3    H281129   3.198   2.264   3.641  0.2800  1.0326 -2.0634
19880TIP3   OH281130   2.888   4.687   3.254  0.0950  0.2732  1.2183
19880TIP3    H181131   2.821   4.652   3.195  0.8685  1.2968 -0.3383
19880TIP3    H281132   2.865   4.653   3.340 -1.7519 -0.3266  0.5241
19881TIP3   OH281133   1.371   7.176   2.975  0.3016 -0.3237  0.1989
19881TIP3    H181134   1.290   7.209   2.936  1.0067  2.0109  0.5086
19881TIP3    H281135   1.373   7.083   2.952 -2.8511 -0.6780  0.9290
19882TIP3   OH281136   0.770   3.193   4.435 -0.7024 -0.8461 -0.9719
19882TIP3    H181137   0.722   3.272   4.411 -1.9603 -1.3581 -0.2188
19882TIP3    H281138   0.827   3.176   4.360 -0.1644  0.9372 -1.0162
19883TIP3   OH281139   6.004   5.768   4.131 -0.3841  0.2505 -0.1126
19883TIP3    H181140   6.011   5.840   4.069 -0.2484 -0.0407 -0.4396
19883TIP3    H281141   5.949   5.802   4.202  0.0275  0.8150 -0.0565
19884TIP3   OH281142   3.980   2.576   3.872  1.0433  0.1387  0.3295
19884TIP3    H181143   4.041   2.564   3.944  1.8395  2.0959  0.0422
19884TIP3    H281144   4.023   2.538   3.796  0.8864 -0.5093  0.5556
19885TIP3   OH281145   6.199   3.571   5.591  0.0599  0.7556  0.2402
19885TIP3    H181146   6.237   3.484   5.601 -0.6712  0.5912  1.9308
19885TIP3    H281147   6.243   3.625   5.657 -0.6894  1.2314  0.3696
19886TIP3   OH281148   4.809   5.363   4.498 -0.2549 -0.8847  0.2285
19886TIP3    H181149   4.783   5.285   4.449  2.0346 -0.9054 -1.1029
19886TIP3    H281150   4.857   5.417   4.435  0.0840  0.5941  1.6650
19887TIP3   OH281151   6.740   2.001  13.721 -0.1024 -0.1717  0.6024
19887TIP3    H181152   6.741   1.905  13.729 -0.4013 -0.4590 -1.8286
19887TIP3    H281153   6.650   2.021  13.694  0.3327  0.6274 -0.2908
19888TIP3   OH281154   6.276   0.236  14.831 -0.2878 -0.1590 -0.2402
19888TIP3    H181155   6.265   0.147  14.866 -1.1172  0.4210  1.0685
19888TIP3    H281156   6.305   0.288  14.906  2.7370  0.2355 -1.5338
19889TIP3   OH281157   4.575   5.153   1.023 -0.1970 -0.3290 -0.4160
19889TIP3    H181158   4.514   5.116   0.959 -1.6543  1.1440  0.0595
19889TIP3    H281159   4.544   5.242   1.037  2.4500  0.6996 -0.5783
19890TIP3   OH281160   2.003   3.967   3.899  0.5352  0.5104  0.0779
19890TIP3    H181161   2.000   3.875   3.927  0.4516  0.0139 -1.4589
19890TIP3    H281162   2.054   4.011   3.967  0.5337 -0.6614  0.8729
19891TIP3   OH281163   3.461   5.508   4.936  0.1212 -0.3895 -0.3775
19891TIP3    H181164   3.376   5.544   4.964 -0.3583 -0.2055 -1.9901
19891TIP3    H281165   3.516   5.585   4.924  0.4340 -0.4905  0.3578
19892TIP3   OH281166   5.328   2.116   4.682 -0.2061 -0.0809 -0.1518
19892TIP3    H181167   5.349   2.034   4.638 -2.1174 -1.0743  0.6932
19892TIP3    H281168   5.398   2.127   4.747 -0.2119 -1.3293  0.0895
19893TIP3   OH281169   3.333   6.153   4.268 -0.1553 -0.2033  0.4589
19893TIP3    H181170   3.248   6.110   4.261 -0.4368  0.3162  0.6370
19893TIP3    H281171   3.394   6.082   4.291 -0.4524 -0.6569 -0.1443
19894TIP3   OH281172   5.318   3.484   2.432 -0.1183  0.2920 -0.0156
19894TIP3    H181173   5.375   3.526   2.497 -0.7376  1.3114 -0.1005
19894TIP3    H281174   5.357   3.508   2.347  0.4939 -0.7472 -0.0337
19895TIP3   OH281175   3.971   4.102   0.192 -0.2769 -0.2249 -0.0767
19895TIP3    H181176   3.985   4.063   0.278  0.7410  1.3022  0.5028
19895TIP3    H281177   3.879   4.084   0.172 -0.8444  0.2776  1.8362
19896TIP3   OH281178   6.697   3.256   2.887  0.4112  0.2994  0.2267
19896TIP3    H181179   6.771   3.225   2.835 -0.1494  0.1456 -0.4930
19896TIP3    H281180   6.679   3.184   2.948 -0.4209 -0.5329 -0.9510
19897TIP3   OH281181   6.448   2.099   1.852 -0.6466  0.1120  0.6117
19897TIP3    H181182   6.522   2.139   1.807 -1.9517  2.8298  0.6980
19897TIP3    H281183   6.417   2.031   1.792  1.1079 -0.2364  0.0406
19898TIP3   OH281184   7.042   4.178   4.092 -0.0978 -0.0448  0.1056
19898TIP3    H181185   6.952   4.169   4.062 -0.5817 -0.6942  1.6471
19898TIP3    H281186   7.036   4.179   4.187  1.4614  0.7217  0.2303
19899TIP3   OH281187   7.010   1.437   3.045 -0.1511 -0.3502 -0.2391
19899TIP3    H181188   7.007   1.498   2.971  1.5289  1.8451  1.3676
19899TIP3    H281189   7.076   1.372   3.019  1.9252  1.5248 -0.0086
19900TIP3   OH281190   3.194   6.526   5.602  0.1083 -0.1294 -0.2760
19900TIP3    H181191   3.202   6.565   5.515 -0.4526  3.1987  1.0279
19900TIP3    H281192   3.284   6.523   5.635  0.2587 -0.8615 -0.7423
19901TIP3   OH281193   7.005   7.208   2.667 -0.1582  0.3414 -0.1137
19901TIP3    H181194   7.055   7.132   2.638 -0.5000  1.0688 -2.9770
19901TIP3    H281195   7.071   7.274   2.689  0.1432 -0.8246  2.7575
19902TIP3   OH281196   6.715   3.982   4.955 -0.3058 -0.1952 -0.5599
19902TIP3    H181197   6.658   3.950   5.025  0.8257 -0.1025  0.4383
19902TIP3    H281198   6.773   3.908   4.934 -1.0763 -0.4555 -1.9141
19903TIP3   OH281199   2.693   4.554   3.102  0.0734 -0.3204 -0.0059
19903TIP3    H181200   2.745   4.503   3.041  1.2025  1.1435 -0.3221
19903TIP3    H281201   2.667   4.632   3.053  0.7964  0.7704  1.2579
19904TIP3   OH281202   3.145   1.274   4.648  0.5340  0.4844  0.2177
19904TIP3    H181203   3.202   1.279   4.571  3.8150  1.5314  2.4912
19904TIP3    H281204   3.078   1.210   4.625  0.5863  1.6316 -3.8943
19905TIP3   OH281205   5.555   1.069  14.804 -0.0708 -0.1648  0.3258
19905TIP3    H181206   5.500   1.111  14.739  0.8103 -0.0012 -0.3288
19905TIP3    H281207   5.601   1.000  14.757  1.0047  0.3229  0.6275
19906TIP3   OH281208   6.509   5.817   3.375 -0.0449  0.1031  0.3349
19906TIP3    H181209   6.531   5.906   3.348 -2.6221  0.6533 -0.2664
19906TIP3    H281210   6.506   5.767   3.293 -0.9838  0.0843  0.3645
19907TIP3   OH281211   0.693   4.181   4.113 -0.4538  0.0038  0.0669
19907TIP3    H181212   0.660   4.226   4.035 -1.0829 -0.7469 -0.1173
19907TIP3    H281213   0.626   4.114   4.132 -1.1056  1.1594  2.1726
19908TIP3   OH281214   5.677   6.926   3.830  1.0368  0.1551 -0.3968
19908TIP3    H181215   5.658   6.900   3.740  2.8682 -0.5915 -0.6111
19908TIP3    H281216   5.591   6.929   3.872  0.1388  0.5059 -2.1386
19909TIP3   OH281217   0.074   0.256   4.940 -0.0122 -0.3333  0.0469
19909TIP3    H181218   0.133   0.328   4.915 -0.3859 -0.5218 -1.4926
19909TIP3    H281219   0.097   0.185   4.880 -1.1527 -0.7320  0.0634
19910TIP3   OH281220   0.597   0.766   2.914  0.6206  0.0014  0.5034
19910TIP3    H181221   0.594   0.672   2.902 -0.7240 -0.2469  2.3018
19910TIP3    H281222   0.601   0.778   3.009 -2.1587  1.7211  0.5131
19911TIP3   OH281223   6.641   4.965   2.599  0.2110  0.7844  0.2092
19911TIP3    H181224   6.549   4.949   2.580 -0.0708  0.1117  1.9318
19911TIP3    H281225   6.641   5.019   2.678  1.2623 -0.3271  1.0190
19912TIP3   OH281226   1.357   0.708   1.989  0.2159 -0.1140 -0.3613
19912TIP3    H181227   1.271   0.688   2.027 -0.5645  2.8023 -0.3164
19912TIP3    H281228   1.337   0.737   1.900  1.2762 -0.3517 -0.6830
19913TIP3   OH281229   7.096   2.258   1.587 -0.2685 -0.2433  0.2703
19913TIP3    H181230   7.166   2.292   1.643  0.2968  1.0284 -1.1400
19913TIP3    H281231   7.017   2.266   1.641  0.0574  2.1834  0.5033
19914TIP3   OH281232   1.073   6.492   5.780  0.3166  0.1484  0.6125
19914TIP3    H181233   1.005   6.425   5.791 -0.6471  1.2395  1.4922
19914TIP3    H281234   1.044   6.566   5.833  1.3463  1.2947 -0.3378
19915TIP3   OH281235   2.810   2.682   3.697 -0.3615  0.2799 -0.1046
19915TIP3    H181236   2.873   2.754   3.694 -0.7032  0.5422 -2.0207
19915TIP3    H281237   2.850   2.613   3.644 -1.7506  0.5333 -1.5491
19916TIP3   OH281238   2.241   1.354   3.547  0.1423 -0.2636 -0.4458
19916TIP3    H181239   2.283   1.300   3.480 -1.6662 -2.1424 -0.1408
19916TIP3    H281240   2.235   1.298   3.624 -1.0261  0.6375  0.1588
19917TIP3   OH281241   7.099   0.200   2.146  0.0843  0.4802 -0.0497
19917TIP3    H181242   7.186   0.189   2.183  0.3493  0.4382 -0.6728
19917TIP3    H281243   7.086   0.295   2.143  2.3111  0.9393 -4.8034
19918TIP3   OH281244   0.505   2.267   3.252  0.0792  0.3475  0.2761
19918TIP3    H181245   0.500   2.228   3.165  1.5232 -2.1763  1.2210
19918TIP3    H281246   0.418   2.253   3.290  0.0840 -0.4709 -0.0048
19919TIP3   OH281247   1.787   5.611   4.685  0.2589  0.2697 -0.6056
19919TIP3    H181248   1.696   5.583   4.673  0.0577  1.1308 -1.1936
19919TIP3    H281249   1.817   5.634   4.597  1.3778 -0.9441 -0.5643
19920TIP3   OH281250   5.530   3.165   1.971 -0.1861  0.4812  0.4845
19920TIP3    H181251   5.624   3.182   1.966  0.5895 -2.4958  2.3297
19920TIP3    H281252   5.509   3.169   2.064 -1.8262  0.7190  0.1359
19921TIP3   OH281253   4.785   4.552   1.832 -0.5539 -0.1927 -0.1295
19921TIP3    H181254   4.858   4.544   1.893 -0.9118  0.6912  0.4271
19921TIP3    H281255   4.820   4.521   1.748  0.1391 -0.7738  0.3662
19922TIP3   OH281256   3.039   5.645   2.843 -0.0379  0.3686 -0.0901
19922TIP3    H181257   3.084   5.602   2.771 -1.0421  1.0548 -1.1563
19922TIP3    H281258   2.951   5.608   2.843  0.5756 -1.3803  2.3329
19923TIP3   OH281259   3.496   5.691   4.037 -0.3351 -0.8239 -0.4723
19923TIP3    H181260   3.422   5.695   4.099 -0.5215 -0.7219 -0.6978
19923TIP3    H281261   3.483   5.768   3.980  1.1434  0.4468  0.8157
19924TIP3   OH281262   2.625   0.039   2.577  0.0123 -0.2644 -0.0965
19924TIP3    H181263   2.586   0.110   2.526  1.1889 -0.4273 -1.2666
19924TIP3    H281264   2.590   0.051   2.665 -1.8312  0.2223 -0.8446
19925TIP3   OH281265   5.746   0.532   1.752 -0.6930  0.2522 -0.1610
19925TIP3    H181266   5.823   0.557   1.803 -1.3563 -1.7936  2.0182
19925TIP3    H281267   5.676   0.526   1.816 -1.5247 -2.7707 -1.1935
19926TIP3   OH281268   2.592   7.055   4.028  0.4491  0.1762  0.5602
19926TIP3    H181269   2.554   6.984   3.976  1.8558  0.5482 -1.0714
19926TIP3    H281270   2.516   7.103   4.062 -0.5184 -1.4660  0.8152
19927TIP3   OH281271   2.010   1.003   3.570 -0.1032 -0.3362  0.7234
19927TIP3    H181272   1.943   1.034   3.632 -0.1012  1.4040 -0.0892
19927TIP3    H281273   1.982   1.038   3.485  1.8808  0.5332  0.3790
19928TIP3   OH281274   1.433   0.823   3.128  0.0145 -0.3132  0.4503
19928TIP3    H181275   1.396   0.740   3.097  0.5308  0.2721 -1.9067
19928TIP3    H281276   1.476   0.861   3.052 -0.0319  2.0593  1.5027
19929TIP3   OH281277   4.503   6.173   2.407 -0.3936  0.2758 -0.5496
19929TIP3    H181278   4.594   6.201   2.402  0.1192 -1.4635 -2.1676
19929TIP3    H281279   4.488   6.155   2.500  0.5479  1.6138 -0.1131
19930TIP3   OH281280   1.074   6.684   2.780  0.2664 -0.3645 -0.0781
19930TIP3    H181281   1.121   6.605   2.754  0.5825 -0.0952 -0.3360
19930TIP3    H281282   1.029   6.660   2.861  1.3163 -0.4628  0.4939
19931TIP3   OH281283   6.470   3.833   1.191 -0.2160  0.0321 -0.2323
19931TIP3    H181284   6.549   3.831   1.246  0.5934 -1.4867 -1.3824
19931TIP3    H281285   6.403   3.871   1.248  1.1329  0.6027  1.0509
19932TIP3   OH281286   3.610   5.188   2.860  0.1950 -0.1497 -0.7455
19932TIP3    H181287   3.666   5.249   2.909 -0.7229  0.5002 -0.4786
19932TIP3    H281288   3.525   5.194   2.904 -0.0288 -1.2943 -1.0071
19933TIP3   OH281289   4.939   3.956   3.677  0.2956  0.6546  0.5971
19933TIP3    H181290   4.911   4.041   3.645 -1.1091 -0.5731 -1.7093
19933TIP3    H281291   5.027   3.945   3.642  0.0872  0.7542  0.0323
19934TIP3   OH281292   1.860   6.949   1.763  0.0145  0.7024 -0.0302
19934TIP3    H181293   1.892   7.017   1.822 -1.5198  2.0649 -0.7049
19934TIP3    H281294   1.794   6.902   1.814 -1.2779  1.8503 -0.5896
19935TIP3   OH281295   2.057   5.953   5.288  0.2158 -0.1221  0.1761
19935TIP3    H181296   2.140   5.905   5.290  1.5757  1.4877 -4.3709
19935TIP3    H281297   1.996   5.895   5.243  0.2674  0.3260 -0.4947
19936TIP3   OH281298   5.236   6.441   4.063  0.5321  0.3029 -0.3016
19936TIP3    H181299   5.201   6.370   4.009  1.1167  0.0618 -0.3728
19936TIP3    H281300   5.196   6.520   4.027  1.2086  0.1923 -1.3722
19937TIP3   OH281301   6.386   2.444   4.879 -0.4906 -0.7099  0.0209
19937TIP3    H181302   6.388   2.419   4.972 -0.7344 -1.6917 -0.2224
19937TIP3    H281303   6.309   2.398   4.844 -0.9884  0.4532 -0.4524
19938TIP3   OH281304   4.551   6.294   4.986 -0.1235 -0.2325 -0.4225
19938TIP3    H181305   4.632   6.345   4.987  0.5660 -1.2938 -0.5839
19938TIP3    H281306   4.510   6.313   5.071  0.5592 -0.1024 -0.1156
19939TIP3   OH281307   4.564   5.274   4.335 -0.0963  0.2864 -0.0290
19939TIP3    H181308   4.623   5.202   4.359 -1.4175 -0.6185  0.5900
19939TIP3    H281309   4.495   5.232   4.284  1.0008  1.6912 -2.9058
19940TIP3   OH281310   0.326   1.436   2.550  0.1021 -0.2830  0.4598
19940TIP3    H181311   0.415   1.456   2.579  0.1676  0.8450 -0.4540
19940TIP3    H281312   0.337   1.402   2.461 -0.4035  0.2549  0.1859
19941TIP3   OH281313   0.381   6.919   5.296  0.1975 -0.8643  0.0790
19941TIP3    H181314   0.425   6.870   5.226 -0.6692 -1.5324 -0.0206
19941TIP3    H281315   0.451   6.970   5.337  0.8740 -1.1136 -0.7286
19942TIP3   OH281316   6.300   5.813   4.606 -0.1563 -0.0145 -0.7529
19942TIP3    H181317   6.257   5.756   4.543  0.1569 -0.3937 -0.6230
19942TIP3    H281318   6.394   5.802   4.590 -0.0324 -0.9014  0.4549
19943TIP3   OH281319   6.925   2.229   1.820 -0.2601  0.1593  0.0831
19943TIP3    H181320   6.833   2.216   1.841 -0.6573  1.7698 -0.5688
19943TIP3    H281321   6.972   2.198   1.898 -1.4196  0.8767  1.0940
19944TIP3   OH281322   6.174   7.110   5.052 -0.4198  0.5859  0.3315
19944TIP3    H181323   6.184   7.034   4.995 -3.1654 -1.4045  2.2586
19944TIP3    H281324   6.246   7.102   5.115 -0.6554 -0.4450  0.4919
19945TIP3   OH281325   4.624   6.977   5.432  0.2357 -0.2316  0.0036
19945TIP3    H181326   4.606   6.920   5.507  0.3909  0.7194  0.7784
19945TIP3    H281327   4.559   7.047   5.439 -0.3995 -0.6516 -1.3316
19946TIP3   OH281328   7.068   7.166   5.751  0.1614  0.1835 -0.1447
19946TIP3    H181329   7.096   7.122   5.671 -0.6182  0.2550 -0.4651
19946TIP3    H281330   6.994   7.221   5.724 -0.8075 -0.5994  0.8087
19947TIP3   OH281331   3.553   7.165   4.852 -0.5482  0.3427  0.1823
19947TIP3    H181332   3.528   7.219   4.777  1.0305  0.1209 -0.5330
19947TIP3    H281333   3.496   7.088   4.845 -1.0703  0.7542 -0.2265
19948TIP3   OH281334   0.134   3.410   5.544 -0.3537 -0.0247 -0.3703
19948TIP3    H181335   0.094   3.496   5.532 -0.7208 -0.3766 -1.9561
19948TIP3    H281336   0.226   3.429   5.563 -0.6359  0.7308  0.2897
19949TIP3   OH281337   3.213   0.042   4.661  0.2777  0.1857 -0.1976
19949TIP3    H181338   3.305   0.068   4.663  0.4769 -0.2330 -1.9672
19949TIP3    H281339   3.212  -0.038   4.608 -1.0782  0.0713 -0.0361
19950TIP3   OH281340   1.770   2.795   5.439  0.4957 -0.0756  0.0210
19950TIP3    H181341   1.807   2.803   5.350  0.4348  0.5384  0.0451
19950TIP3    H281342   1.792   2.878   5.481 -4.1239  2.1369 -1.1721
19951TIP3   OH281343   6.779   0.664   3.238  0.6419 -0.1350 -0.3223
19951TIP3    H181344   6.723   0.599   3.197 -0.1063  0.8672 -0.9426
19951TIP3    H281345   6.724   0.743   3.243  1.1251  0.1298  1.4724
19952TIP3   OH281346   2.094   3.098   4.355 -0.5351  0.7489 -0.1174
19952TIP3    H181347   2.025   3.155   4.321 -0.0248 -0.2184 -3.0884
19952TIP3    H281348   2.150   3.079   4.279  1.0993 -1.1835  1.4242
19953TIP3   OH281349   5.895   5.959   3.196  0.2409 -0.0753 -0.0718
19953TIP3    H181350   5.810   5.920   3.215  0.9667 -1.3164  0.7203
19953TIP3    H281351   5.959   5.893   3.223  1.5237  1.6100  1.2543
19954TIP3   OH281352   1.190   1.067   0.068 -0.3710  0.3594 -0.1979
19954TIP3    H181353   1.164   1.038   0.155 -2.1556 -0.0710 -0.8142
19954TIP3    H281354   1.146   1.006   0.008 -0.9263  1.8714 -1.4324
19955TIP3   OH281355   6.139   4.955   2.997  0.1098  0.3547  0.2896
19955TIP3    H181356   6.198   4.881   3.012 -0.0979  0.4690  1.9326
19955TIP3    H281357   6.064   4.938   3.054 -1.4528  0.2557 -1.6961
19956TIP3   OH281358   1.645   2.031   4.692  0.2004 -0.3214  0.1969
19956TIP3    H181359   1.693   2.037   4.610  0.7969 -0.9282  0.4885
19956TIP3    H281360   1.703   1.982   4.750  0.0858  0.6880  1.2015
19957TIP3   OH281361   1.444   0.624  14.448  0.1809  0.0693  0.0193
19957TIP3    H181362   1.485   0.708  14.465  0.3805 -0.2188  0.9884
19957TIP3    H281363   1.501   0.582  14.383  2.2337 -0.8600  2.2606
19958TIP3   OH281364   5.266   3.193   4.620 -0.1340 -0.1126  0.3226
19958TIP3    H181365   5.186   3.199   4.673 -1.5828  0.4876 -1.8295
19958TIP3    H281366   5.245   3.132   4.551  1.6007 -0.6060  0.1795
19959TIP3   OH281367   7.117   0.009   0.377 -0.4510 -0.1999  0.9852
19959TIP3    H181368   7.040   0.060   0.403 -0.7217 -1.1567  2.1386
19959TIP3    H281369   7.084  -0.051   0.310 -0.2039  0.8515 -0.1285
19960TIP3   OH281370   6.064   3.781   1.948 -0.2310  0.2471  0.1894
19960TIP3    H181371   6.020   3.791   1.864 -1.6095 -0.0701  0.8436
19960TIP3    H281372   6.150   3.744   1.927  0.8666  3.3181 -1.3580
19961TIP3   OH281373   2.058   5.532   0.900 -0.2367 -0.4082  0.0425
19961TIP3    H181374   2.021   5.515   0.987  3.4842  0.5175  2.0196
19961TIP3    H281375   2.080   5.445   0.866 -1.6981 -0.7798 -0.0130
19962TIP3   OH281376   5.875   1.280   0.469 -0.5569  0.2110 -0.2997
19962TIP3    H181377   5.783   1.303   0.482 -0.2966  0.8361  0.5203
19962TIP3    H281378   5.889   1.205   0.527 -0.5797  0.0303 -0.5259
19963TIP3   OH281379   4.310   1.954  13.667 -0.4392  0.3385  0.0340
19963TIP3    H181380   4.304   1.880  13.607  0.2759  0.3918 -0.1113
19963TIP3    H281381   4.384   1.932  13.725 -0.5138  0.7247  0.2779
19964TIP3   OH281382   0.159   4.880   2.331 -0.1953  1.2198 -0.2000
19964TIP3    H181383   0.202   4.798   2.305 -0.6135  1.1978 -0.8420
19964TIP3    H281384   0.218   4.949   2.298  0.1036  1.1846  0.2489
19965TIP3   OH281385   1.345   1.365   5.898  0.6060  0.3689 -0.3693
19965TIP3    H181386   1.435   1.330   5.894  0.5683  0.3382 -1.0249
19965TIP3    H281387   1.329   1.399   5.810 -0.1564  0.0555 -0.3519
19966TIP3   OH281388   3.417   4.497   5.190 -0.3090  0.5985 -0.1963
19966TIP3    H181389   3.483   4.554   5.232  1.6729 -1.5943 -0.1543
19966TIP3    H281390   3.336   4.515   5.239  1.3246 -0.0076  2.9983
19967TIP3   OH281391   5.559   5.662   2.799 -0.1031  0.0479  1.0855
19967TIP3    H181392   5.541   5.586   2.855  2.1415 -0.8856  0.6659
19967TIP3    H281393   5.534   5.633   2.711  2.9244 -1.2323  0.5100
19968TIP3   OH281394   3.300   3.559   3.373  0.1710  0.3688 -0.1009
19968TIP3    H181395   3.269   3.642   3.411  1.2868  2.0367 -2.5493
19968TIP3    H281396   3.248   3.548   3.293  1.9379  0.2791 -1.3122
19969TIP3   OH281397   5.793   6.288   4.553 -0.6220 -0.2981  0.2144
19969TIP3    H181398   5.786   6.380   4.527 -0.9606 -0.4493 -0.2270
19969TIP3    H281399   5.852   6.249   4.488  0.0564 -0.2509  0.7829
19970TIP3   OH281400   2.327   0.893   1.635  0.4667 -0.1899  0.3097
19970TIP3    H181401   2.253   0.907   1.694 -0.0900  0.7433 -0.5579
19970TIP3    H281402   2.385   0.832   1.681 -0.9018 -1.0404  0.9508
19971TIP3   OH281403   5.577   3.443   4.379 -0.9889 -0.4480  0.2301
19971TIP3    H181404   5.671   3.424   4.373 -0.7896  0.7647 -1.3505
19971TIP3    H281405   5.573   3.529   4.421 -1.0720  1.2250 -2.8794
19972TIP3   OH281406   5.429   4.511   2.342 -0.1144 -0.1204 -0.8906
19972TIP3    H181407   5.516   4.474   2.325 -0.2085 -0.0398 -1.5971
19972TIP3    H281408   5.437   4.554   2.427  0.6987  0.3811 -1.2074
19973TIP3   OH281409   5.065   3.073  15.227 -0.2590 -0.1421 -0.1602
19973TIP3    H181410   5.145   3.042  15.184  0.0199 -2.0587  1.5570
19973TIP3    H281411   5.062   3.024  15.309 -3.1071 -0.0110 -0.0777
19974TIP3   OH281412   6.552   1.744   5.216  0.5529 -0.0618 -0.3861
19974TIP3    H181413   6.539   1.733   5.310  1.5364  2.5017  0.1230
19974TIP3    H281414   6.546   1.655   5.180 -3.1399 -0.8350  1.5953
19975TIP3   OH281415   5.383   1.956   3.634  0.3239  0.3713  0.1425
19975TIP3    H181416   5.385   1.968   3.729  0.1960  0.5510  0.1226
19975TIP3    H281417   5.321   2.022   3.603 -0.0045 -0.0071 -0.0162
19976TIP3   OH281418   5.354   3.848   2.035  0.2809  0.1394  0.2152
19976TIP3    H181419   5.435   3.899   2.036  0.2409  0.1942  1.2070
19976TIP3    H281420   5.367   3.785   1.964  0.7777  0.7895 -0.2950
19977TIP3   OH281421   5.632   6.914   4.849  1.0915 -0.5935 -0.2036
19977TIP3    H181422   5.604   6.882   4.935  0.8128 -1.9101 -0.7525
19977TIP3    H281423   5.550   6.925   4.801  1.2964 -0.7015 -0.5747
19978TIP3   OH281424   4.894   5.687   1.510  0.0232 -0.1025  0.0486
19978TIP3    H181425   4.977   5.691   1.558  2.0557 -1.2965 -3.0204
19978TIP3    H281426   4.864   5.597   1.521 -0.7827  0.2685  0.9746
19979TIP3   OH281427   5.088   2.349   2.488  0.4190 -0.0044 -0.0040
19979TIP3    H181428   5.007   2.307   2.519  0.2999 -0.3053 -0.7042
19979TIP3    H281429   5.065   2.383   2.401  1.9120 -2.9126 -1.6691
19980TIP3   OH281430   0.173   7.074   3.015 -0.2596 -0.7492 -0.4432
19980TIP3    H181431   0.137   7.126   3.087 -0.7873  0.4942 -1.5614
19980TIP3    H281432   0.202   6.992   3.056 -0.8260 -0.1989  1.1145
19981TIP3   OH281433   6.886   3.363   4.538  0.7931  0.0541  1.0408
19981TIP3    H181434   6.835   3.313   4.602  1.0867 -1.1920  0.3292
19981TIP3    H281435   6.821   3.404   4.482  0.5280 -1.8758 -0.1297
19982TIP3   OH281436   6.437   5.916   1.300  0.1572  0.2858  0.5158
19982TIP3    H181437   6.345   5.916   1.271 -0.1646 -0.6339  1.4540
19982TIP3    H281438   6.468   5.828   1.278  0.6405  0.4074  0.7154
19983TIP3   OH281439   2.501   0.085   5.031 -0.0107  0.0648  0.4986
19983TIP3    H181440   2.561   0.027   4.985  0.5558  1.7648 -1.0449
19983TIP3    H281441   2.532   0.086   5.121  2.7150  1.2986 -0.3488
19984TIP3   OH281442   5.067   1.428  12.571 -0.4778 -0.0094  0.0521
19984TIP3    H181443   5.012   1.496  12.532 -2.0966 -1.7548 -0.8277
19984TIP3    H281444   5.100   1.468  12.651 -1.3752  1.8054 -0.4157
19985TIP3   OH281445   5.773   5.891   5.411  1.3084 -0.2166  0.6435
19985TIP3    H181446   5.824   5.957   5.364 -1.2040  2.0020  0.7828
19985TIP3    H281447   5.835   5.853   5.473  3.3215  0.7001 -0.6876
19986TIP3   OH281448   2.374   3.487   3.807  0.3956  0.6820  0.9181
19986TIP3    H181449   2.313   3.472   3.735 -0.7603  1.5888  1.6700
19986TIP3    H281450   2.460   3.495   3.765 -0.4199  2.6210 -0.5240
19987TIP3   OH281451   0.192   5.283   3.735  0.7077  0.2840 -0.1068
19987TIP3    H181452   0.237   5.305   3.654 -2.0796  0.2444 -1.8064
19987TIP3    H281453   0.181   5.188   3.731 -0.6052  0.4304 -0.3915
19988TIP3   OH281454   6.042   2.485   4.550 -0.4150 -0.5130  0.5284
19988TIP3    H181455   5.968   2.544   4.535 -0.9453 -1.5153 -0.9898
19988TIP3    H281456   6.119   2.537   4.529 -0.5164  0.8843  3.1310
19989TIP3   OH281457   0.027   2.992   3.623 -0.1523 -0.1543 -0.7547
19989TIP3    H181458   0.001   3.070   3.673  0.1425  0.1793 -1.1214
19989TIP3    H281459  -0.054   2.942   3.614 -0.2909 -0.0284 -0.2820
19990TIP3   OH281460   3.122   4.293   5.177  0.1345  0.0226  0.6432
19990TIP3    H181461   3.164   4.283   5.092  0.4030 -2.7540  0.9858
19990TIP3    H281462   3.136   4.384   5.201  2.7620  0.1390 -0.9375
19991TIP3   OH281463   7.210   1.562   1.309 -0.1082  0.0864 -0.5355
19991TIP3    H181464   7.131   1.601   1.345 -1.4868 -0.9818 -2.2127
19991TIP3    H281465   7.264   1.637   1.282 -1.4330  0.8465 -1.1602
19992TIP3   OH281466   6.743   5.126   5.334 -0.0916  0.1882 -0.2632
19992TIP3    H181467   6.828   5.093   5.363  0.5993  2.1990  0.1670
19992TIP3    H281468   6.697   5.148   5.415 -1.1430 -1.0969 -0.4843
19993TIP3   OH281469   0.249   5.397   4.351 -0.2195 -0.1720 -0.4432
19993TIP3    H181470   0.308   5.364   4.283  0.4765 -0.0165  0.0622
19993TIP3    H281471   0.196   5.322   4.376 -0.0438 -0.3909 -0.7197
19994TIP3   OH281472   3.403   4.125   5.814 -0.4483  0.0410 -0.3869
19994TIP3    H181473   3.312   4.102   5.833 -0.1353  0.3544  1.7816
19994TIP3    H281474   3.400   4.218   5.790 -0.7234  0.0209 -0.4315
19995TIP3   OH281475   7.182   4.795   2.830 -0.7231 -0.0394  0.7106
19995TIP3    H181476   7.205   4.887   2.848  0.4275 -0.5355  1.9150
19995TIP3    H281477   7.180   4.790   2.734  0.7491  0.8969  0.5978
19996TIP3   OH281478   4.992   6.705  15.397 -0.3743  0.2090  0.1003
19996TIP3    H181479   5.084   6.697  15.423 -0.5847  0.4334  0.9452
19996TIP3    H281480   4.970   6.619  15.362  1.0427  1.0350 -3.1928
19997TIP3   OH281481   1.576   5.401  10.397  0.0443 -0.0042 -0.4354
19997TIP3    H181482   1.622   5.317  10.404 -1.9267 -1.3438 -2.3648
19997TIP3    H281483   1.533   5.412  10.482 -0.4004 -1.4254 -0.4465
19998TIP3   OH281484   1.193   6.545   4.967 -0.3565 -0.1454 -0.1096
19998TIP3    H181485   1.252   6.620   4.981 -0.1739  0.0303 -1.6308
19998TIP3    H281486   1.129   6.577   4.903 -0.1990 -1.3097 -0.8722
19999TIP3   OH281487   1.608   3.942   1.845  0.0407  0.0207 -0.6974
19999TIP3    H181488   1.640   3.969   1.931  0.0332 -1.1177 -0.3150
19999TIP3    H281489   1.685   3.905   1.802 -0.0301  0.2921 -1.0594
20000TIP3   OH281490   2.236   2.051   3.040  0.2624 -0.4192 -0.2304
20000TIP3    H181491   2.262   2.094   3.122  1.4172 -0.6156 -0.4791
20000TIP3    H281492   2.168   2.107   3.004  0.5351  0.2693  0.3096
20001TIP3   OH281493   4.287   5.519   5.261 -0.2750 -0.1575 -0.0510
20001TIP3    H181494   4.286   5.430   5.227  1.6645 -0.4299  0.4404
20001TIP3    H281495   4.352   5.564   5.206  1.7240 -0.1800  2.1444
20002TIP3   OH281496   5.272   0.563   5.763 -0.1489  0.4350  0.5280
20002TIP3    H181497   5.225   0.640   5.731 -0.3189  0.5851  1.1334
20002TIP3    H281498   5.203   0.499   5.783  0.0016  0.0295 -0.2014
20003TIP3   OH281499   2.684   1.844   5.183  0.2866 -0.0162 -0.3381
20003TIP3    H181500   2.661   1.832   5.275 -1.0252  1.3163 -0.4389
20003TIP3    H281501   2.639   1.774   5.137  1.5511 -1.1360  0.0834
20004TIP3   OH281502   3.689   1.027   0.717 -0.6569  0.0512 -0.1222
20004TIP3    H181503   3.655   0.974   0.645 -1.2370  0.6707 -0.3144
20004TIP3    H281504   3.611   1.059   0.763 -0.4146  2.2701 -1.1187
20005TIP3   OH281505   6.087   6.887   5.987 -0.2637 -0.1625  0.2621
20005TIP3    H181506   6.128   6.915   6.069 -0.6379  0.1829  0.3366
20005TIP3    H281507   6.046   6.803   6.009 -0.2854 -0.1144  0.4086
20006TIP3   OH281508   3.829   0.111   2.847 -0.4470  0.4789  0.3377
20006TIP3    H181509   3.914   0.077   2.818 -0.9272  0.8019 -1.5960
20006TIP3    H281510   3.797   0.046   2.910  0.6601 -0.3039  0.1172
20007TIP3   OH281511   1.035   0.646   4.375 -0.7590 -0.0061  0.0541
20007TIP3    H181512   1.032   0.599   4.292 -1.8958  2.3909 -1.3392
20007TIP3    H281513   1.114   0.700   4.370 -0.8392  0.1671  0.5670
20008TIP3   OH281514   5.745   5.817   0.101  0.1795  0.2999 -0.1560
20008TIP3    H181515   5.724   5.903   0.065  0.3288  1.1031  1.5674
20008TIP3    H281516   5.777   5.767   0.026 -0.8420  1.4175 -1.3806
20009TIP3   OH281517   2.826   0.067   4.909  0.1124 -0.0109  0.2135
20009TIP3    H181518   2.805   0.152   4.947  3.9704  0.8975  0.7357
20009TIP3    H281519   2.847   0.085   4.817  1.1998 -0.3327  0.3867
20010TIP3   OH281520   6.019   1.367   1.563  0.3964 -0.1528  0.1288
20010TIP3    H181521   6.004   1.304   1.634 -0.3534 -1.1517 -0.8709
20010TIP3    H281522   6.011   1.452   1.605 -0.5436 -0.7194  1.1651
20011TIP3   OH281523   0.023   6.722   0.564  0.0431 -0.3763 -0.1220
20011TIP3    H181524  -0.046   6.771   0.519  2.5943  3.4172 -0.3929
20011TIP3    H281525   0.085   6.698   0.495  1.0714  0.1972  0.5659
20012TIP3   OH281526   6.657   1.229   4.770  0.2879  0.0170  0.6067
20012TIP3    H181527   6.568   1.225   4.734  0.2431  0.0612  0.7147
20012TIP3    H281528   6.711   1.258   4.697  0.2177 -0.0351  0.5339
20013TIP3   OH281529   6.428   6.052   0.593 -0.0514 -0.1490 -0.0158
20013TIP3    H181530   6.479   5.984   0.636  0.0372 -0.4491 -0.5880
20013TIP3    H281531   6.337   6.026   0.606 -0.1792  1.2707  2.4910
20014TIP3   OH281532   0.749   7.077   0.632  0.1378 -0.4531  0.1711
20014TIP3    H181533   0.734   6.993   0.676  1.4377 -1.0388 -0.4487
20014TIP3    H281534   0.748   7.141   0.703  1.6570 -1.3203  1.0269
20015TIP3   OH281535   1.128   2.557   4.677 -0.5927 -0.2452 -0.3937
20015TIP3    H181536   1.205   2.512   4.712  0.5559 -0.6366 -3.1587
20015TIP3    H281537   1.054   2.503   4.703  0.1187 -0.3870  1.4967
20016TIP3   OH281538   4.212   4.919   4.330 -0.0906 -0.1034  0.0368
20016TIP3    H181539   4.252   4.979   4.268  1.3117 -2.7596 -1.8608
20016TIP3    H281540   4.239   4.950   4.416 -0.3023  2.4725 -0.7503
20017TIP3   OH281541   6.159   2.678   2.589  0.1376 -0.3542 -0.2843
20017TIP3    H181542   6.173   2.751   2.529 -1.6398  0.2878  0.0153
20017TIP3    H281543   6.239   2.673   2.641  0.0078  1.9364  0.2311
20018TIP3   OH281544   0.349   0.325   3.891  0.2170 -0.1744  0.0140
20018TIP3    H181545   0.443   0.333   3.872  0.2179  2.8079  0.7321
20018TIP3    H281546   0.345   0.261   3.962  2.0224  1.2243  1.4982
20019TIP3   OH281547   5.708   3.388   2.613  0.4052 -0.4745  0.1292
20019TIP3    H181548   5.782   3.367   2.556  0.8053 -0.1280  0.5167
20019TIP3    H281549   5.699   3.311   2.669  1.0126 -0.1812  0.6433
20020TIP3   OH281550   7.031   4.517   4.955  0.1964 -0.0980 -0.6908
20020TIP3    H181551   6.957   4.507   4.895 -0.3808  1.6548 -0.3419
20020TIP3    H281552   7.088   4.581   4.912 -0.5450  1.6873  0.8528
20021TIP3   OH281553   2.864   6.785  10.194  0.4620  0.1299 -0.0555
20021TIP3    H181554   2.948   6.811  10.232  0.5441  0.8899 -0.7368
20021TIP3    H281555   2.886   6.714  10.134  0.6179  0.3075 -0.2104
20022TIP3   OH281556   1.817   2.003   1.365  0.2605 -0.4393 -0.3188
20022TIP3    H181557   1.770   2.067   1.420  0.0666 -1.7434  1.1067
20022TIP3    H281558   1.749   1.943   1.335  0.7303 -1.2317  0.1751
20023TIP3   OH281559   2.035   6.506   4.560  0.2379  0.6385 -0.2810
20023TIP3    H181560   2.112   6.474   4.606  0.6415  1.5201 -0.3094
20023TIP3    H281561   2.062   6.516   4.469  0.3812  1.7784 -0.1357
20024TIP3   OH281562   4.353   3.117   0.112 -0.8085  0.3387 -0.1435
20024TIP3    H181563   4.413   3.140   0.041 -0.4424  0.1268  0.0943
20024TIP3    H281564   4.359   3.190   0.173  1.0978 -0.7658  1.0945
20025TIP3   OH281565   2.041   0.711   1.456  0.9728  0.0241  0.2564
20025TIP3    H181566   2.010   0.783   1.512  0.0591 -0.5932  0.5698
20025TIP3    H281567   2.066   0.642   1.517 -0.1824 -0.7180 -0.0824
20026TIP3   OH281568   2.658   1.875   0.434 -0.1768 -0.4828 -0.2437
20026TIP3    H181569   2.630   1.909   0.349  0.4511 -1.7416 -0.9856
20026TIP3    H281570   2.726   1.810   0.413  1.2590  0.4193  1.3178
20027TIP3   OH281571   7.029   5.606   0.149  0.5333  0.3172  0.1968
20027TIP3    H181572   7.050   5.638   0.061  1.9722  1.2077  0.8467
20027TIP3    H281573   7.077   5.524   0.156 -2.1444 -1.5255 -0.9873
20028TIP3   OH281574   6.563   4.314   4.279  0.3626 -0.4600 -0.1607
20028TIP3    H181575   6.495   4.362   4.326  0.3097 -0.1787 -0.5214
20028TIP3    H281576   6.559   4.225   4.315  1.4636  0.1470  1.6279
20029TIP3   OH281577   1.844   2.482   4.031 -0.3048 -0.3317  0.3208
20029TIP3    H181578   1.876   2.557   3.980 -0.7721  0.0858  0.6426
20029TIP3    H281579   1.755   2.506   4.056  0.4694  0.2485  2.8341
20030TIP3   OH281580   4.834   0.086  14.103 -0.1597 -0.2006  0.7836
20030TIP3    H181581   4.748   0.058  14.133 -0.0235  0.0387  1.4008
20030TIP3    H281582   4.882   0.004  14.090 -0.3474 -0.3188  0.8282
20031TIP3   OH281583   2.763   2.756   1.029  0.2776  0.0219 -0.3997
20031TIP3    H181584   2.782   2.779   1.120  1.6012  1.5101 -1.0133
20031TIP3    H281585   2.752   2.661   1.031  0.2808  0.0144  1.3009
20032TIP3   OH281586   1.954   0.170   1.868 -0.6692  0.2788  0.4239
20032TIP3    H181587   1.930   0.213   1.949 -1.1248 -2.0082  1.5972
20032TIP3    H281588   2.022   0.107   1.893  1.5362  1.6847 -1.5764
20033TIP3   OH281589   5.903   0.903   2.023  0.1576  0.5307  0.2616
20033TIP3    H181590   5.962   0.832   2.048  1.2951  1.0754 -0.7615
20033TIP3    H281591   5.906   0.964   2.097 -0.9611 -0.5330  1.2204
20034TIP3   OH281592   5.453   5.428   4.875  0.2539 -0.2448  0.4066
20034TIP3    H181593   5.523   5.368   4.853  0.1206 -0.0952 -0.4721
20034TIP3    H281594   5.419   5.457   4.791 -0.9483 -0.4162  0.8133
20035TIP3   OH281595   6.434   0.011   5.452  0.6677  0.3973  0.0790
20035TIP3    H181596   6.453  -0.082   5.442  0.1666  0.3271 -0.2679
20035TIP3    H281597   6.367   0.015   5.520 -0.9273  0.3013 -1.4105
20036TIP3   OH281598   2.332   1.484   0.721 -0.2491 -0.1269 -0.5346
20036TIP3    H181599   2.309   1.393   0.740 -0.2619 -0.9274 -3.7582
20036TIP3    H281600   2.260   1.517   0.667  1.2394  0.6384 -2.1859
20037TIP3   OH281601   4.172   2.613   1.105 -0.2878 -0.3518  0.9263
20037TIP3    H181602   4.218   2.665   1.172  0.1464 -0.7181  0.9110
20037TIP3    H281603   4.210   2.642   1.022 -2.2147  1.5785  0.6270
20038TIP3   OH281604   6.116   2.598   4.197 -0.1987 -0.5251 -0.6718
20038TIP3    H181605   6.036   2.554   4.224 -0.4805  1.1309  1.4883
20038TIP3    H281606   6.106   2.688   4.228  1.5071  0.3750 -2.4533
20039TIP3   OH281607   1.287   7.167   4.022 -0.0405  0.0061 -0.2950
20039TIP3    H181608   1.306   7.169   3.928 -0.1078  1.6591 -0.3114
20039TIP3    H281609   1.209   7.222   4.032 -0.2170 -0.4037  0.6958
20040TIP3   OH281610   2.279   3.181   3.081 -0.3581  0.0501 -0.0113
20040TIP3    H181611   2.331   3.146   3.009 -0.8070  0.1119 -0.3686
20040TIP3    H281612   2.339   3.239   3.128 -0.1625  0.2746 -0.5318
20041TIP3   OH281613   4.861   5.201   5.087  0.0366  0.2263 -0.0379
20041TIP3    H181614   4.825   5.285   5.059 -0.3344 -0.5964 -2.2027
20041TIP3    H281615   4.914   5.171   5.013  2.3068 -0.2801  1.6720
20042TIP3   OH281616   0.432   7.022   2.354 -0.0600 -0.1466 -0.3694
20042TIP3    H181617   0.398   7.054   2.437  0.2283 -0.4941 -0.1176
20042TIP3    H281618   0.454   7.102   2.305  1.1820  0.0595  0.4688
20043TIP3   OH281619   6.358   4.773   2.878 -0.5660  0.8882  0.3532
20043TIP3    H181620   6.323   4.690   2.845  2.2238 -1.6919  3.1078
20043TIP3    H281621   6.450   4.754   2.896  0.1658  4.5767  1.4041
20044TIP3   OH281622   5.365   0.585   3.537  0.1414  0.2012  0.3493
20044TIP3    H181623   5.336   0.542   3.457 -1.2240  1.9645 -0.1610
20044TIP3    H281624   5.455   0.612   3.519 -0.9721  2.9255 -1.6876
20045TIP3   OH281625   1.802   4.626   3.963 -0.2683 -0.5498 -0.2447
20045TIP3    H181626   1.759   4.590   3.885  0.6623 -0.1097 -0.9902
20045TIP3    H281627   1.755   4.588   4.036 -0.9075 -1.3099 -1.0242
20046TIP3   OH281628   3.879   2.682   1.383 -0.4169  0.3492  0.1540
20046TIP3    H181629   3.970   2.704   1.401 -0.6098  1.1984  0.1317
20046TIP3    H281630   3.873   2.680   1.287 -0.3437 -0.0589  0.1560
20047TIP3   OH281631   1.656   1.543   0.761  0.1229 -0.1595 -0.4327
20047TIP3    H181632   1.569   1.531   0.722 -0.2456  0.2505  0.2353
20047TIP3    H281633   1.662   1.475   0.828  0.1333  0.0792 -0.1864
20048TIP3   OH281634   7.026   4.188   2.814 -0.8003  0.1141 -0.0885
20048TIP3    H181635   7.024   4.270   2.864 -0.7070  0.1850 -0.1996
20048TIP3    H281636   7.055   4.215   2.727  0.8170 -0.2548  0.3002
20049TIP3   OH281637   7.110   1.926   4.357 -0.0867 -0.1831 -0.3774
20049TIP3    H181638   7.204   1.941   4.355 -0.2905  1.3547  0.2355
20049TIP3    H281639   7.082   1.932   4.266  0.3008  0.1682 -0.4726
20050TIP3   OH281640   5.880   3.350   4.662  0.1192 -0.2353  0.7459
20050TIP3    H181641   5.937   3.401   4.605  0.5866 -0.1385  1.2940
20050TIP3    H281642   5.919   3.263   4.663  0.2218 -0.1870  1.0636
20051TIP3   OH281643   4.453   2.683   4.660 -0.4169 -0.1802  0.1086
20051TIP3    H181644   4.522   2.617   4.668 -1.7366 -1.5400  0.6818
20051TIP3    H281645   4.448   2.700   4.566 -0.2573 -1.1194 -0.0799
20052TIP3   OH281646   0.369   6.991   3.322 -0.0246  0.1886  0.1043
20052TIP3    H181647   0.458   7.026   3.316  0.5120 -1.3076 -1.9586
20052TIP3    H281648   0.313   7.065   3.296  0.4691  1.4119  2.2710
20053TIP3   OH281649   4.311   6.519   4.541 -0.3067  0.1774 -0.1172
20053TIP3    H181650   4.272   6.594   4.585 -0.9421  0.9207 -1.8477
20053TIP3    H281651   4.405   6.535   4.544 -0.4887  3.0817 -3.6217
20054TIP3   OH281652   2.708   6.120   3.157 -0.2528  0.1713  0.0176
20054TIP3    H181653   2.618   6.132   3.186 -0.2762  0.8140 -0.3007
20054TIP3    H281654   2.756   6.193   3.196  0.4857 -1.0519  1.5489
20055TIP3   OH281655   3.019   0.252   3.351  0.0952 -0.1391 -0.4396
20055TIP3    H181656   3.067   0.333   3.333  1.5244 -1.0306 -0.8258
20055TIP3    H281657   3.046   0.192   3.282 -1.2851 -0.8245 -0.4230
20056TIP3   OH281658   0.984   5.750   2.247 -0.1107  0.2610  0.2153
20056TIP3    H181659   1.049   5.821   2.249 -0.7483  0.8484  0.7780
20056TIP3    H281660   0.964   5.739   2.154  0.8842 -0.0193  0.0230
20057TIP3   OH281661   5.003   2.553   0.058  0.5264  0.2713  0.4235
20057TIP3    H181662   5.000   2.479  -0.002  1.9239  0.6448 -0.1479
20057TIP3    H281663   4.939   2.615   0.023  0.9411  0.2574 -0.3659
20058TIP3   OH281664   5.181   7.189   5.542 -0.0983  0.8628  0.1690
20058TIP3    H181665   5.184   7.282   5.563 -1.6559  0.9790 -0.0095
20058TIP3    H281666   5.102   7.157   5.586  1.0059 -0.6263  1.1626
20059TIP3   OH281667   4.776   0.199   5.379  0.3387  0.2985  0.7963
20059TIP3    H181668   4.805   0.289   5.393  0.4629  0.2146  1.0919
20059TIP3    H281669   4.807   0.152   5.457  0.9606 -0.1618  0.2773
20060TIP3   OH281670   5.852   2.730   0.305 -0.0263  0.0759  0.1887
20060TIP3    H181671   5.920   2.788   0.272  0.7633 -1.1194 -0.3966
20060TIP3    H281672   5.859   2.736   0.400 -0.3612  1.3673  0.1405
20061TIP3   OH281673   4.879   3.824   3.235  0.5127  0.0031 -0.0922
20061TIP3    H181674   4.918   3.748   3.277 -1.4544 -2.0458 -1.7753
20061TIP3    H281675   4.947   3.856   3.175  1.8216  0.4729  1.5361
20062TIP3   OH281676   5.423   3.411   0.789 -0.2433  0.0690  0.8212
20062TIP3    H181677   5.370   3.333   0.807 -1.3148  0.8946  1.3579
20062TIP3    H281678   5.434   3.452   0.875 -0.4481  0.9692  0.4271
20063TIP3   OH281679   6.860   7.011   3.996 -0.1981  0.4376  0.1679
20063TIP3    H181680   6.949   7.042   4.010  0.1516 -0.3072 -0.3456
20063TIP3    H281681   6.867   6.948   3.925 -1.2069  0.6939 -0.1819
20064TIP3   OH281682   3.453   2.206   4.948 -0.0025  0.0943 -0.1299
20064TIP3    H181683   3.412   2.167   5.025 -1.6026  1.2253 -0.3670
20064TIP3    H281684   3.397   2.280   4.925  1.0811  0.4883 -1.6919
20065TIP3   OH281685   3.962   3.600   2.109  0.2910 -0.1990 -0.1142
20065TIP3    H181686   3.931   3.622   2.021  1.9097 -2.4628 -1.3179
20065TIP3    H281687   4.005   3.680   2.139 -2.5023  1.4894 -0.2329
20066TIP3   OH281688   1.980   7.208   2.705 -0.2908 -0.2633 -0.0953
20066TIP3    H181689   2.010   7.289   2.664  0.0203 -0.7079 -0.7504
20066TIP3    H281690   1.885   7.218   2.709 -0.2712  0.0573 -0.3427
20067TIP3   OH281691   1.272   0.483   1.085  0.3544  0.1835 -0.1146
20067TIP3    H181692   1.227   0.419   1.140  1.9878 -0.7175  0.2404
20067TIP3    H281693   1.213   0.559   1.082 -0.6109 -0.4813  1.3041
20068TIP3   OH281694   6.781   5.685   5.313  0.1255 -0.0285 -0.1598
20068TIP3    H181695   6.753   5.762   5.264 -0.7940 -1.2785 -1.7262
20068TIP3    H281696   6.700   5.652   5.354 -0.2022 -1.8368 -2.0509
20069TIP3   OH281697   3.578   0.136   2.266 -0.3375  0.6234 -0.0836
20069TIP3    H181698   3.498   0.090   2.292  0.5485 -0.1761  1.3436
20069TIP3    H281699   3.560   0.166   2.177 -1.4360 -1.3977 -0.6108
20070TIP3   OH281700   0.948   0.874   1.857  0.7643 -0.4572 -0.4384
20070TIP3    H181701   0.958   0.966   1.833  0.6228 -0.5900 -1.0281
20070TIP3    H281702   0.867   0.847   1.813 -1.1956  0.0553  2.5747
20071TIP3   OH281703   6.005   5.260   3.143  0.2661 -0.0754  0.0628
20071TIP3    H181704   6.090   5.250   3.100  0.1771 -1.2795  0.1474
20071TIP3    H281705   6.004   5.193   3.211 -0.1418  0.9413  1.0917
20072TIP3   OH281706   0.273   1.151   3.690  0.0084 -0.4057  0.2575
20072TIP3    H181707   0.180   1.135   3.673 -0.0693  2.0345 -2.2387
20072TIP3    H281708   0.274   1.219   3.757  0.0039 -0.2399  0.0878
20073TIP3   OH281709   1.722   1.507   2.923  0.8253 -0.4695  0.1189
20073TIP3    H181710   1.750   1.465   3.004  1.6396  1.0639  0.6685
20073TIP3    H281711   1.793   1.490   2.861  1.8340  1.2582  0.7617
20074TIP3   OH281712   4.667   3.856   3.072  0.4299  0.8364 -0.2554
20074TIP3    H181713   4.646   3.766   3.095 -2.2736  1.8551  1.8405
20074TIP3    H281714   4.726   3.886   3.141 -0.3776  1.2575  0.2650
20075TIP3   OH281715   0.033   1.519   4.450 -0.1119  0.0611  0.2465
20075TIP3    H181716   0.037   1.568   4.368 -0.2703  0.0716  0.2438
20075TIP3    H281717  -0.060   1.496   4.459 -0.0660 -0.0942  0.3315
20076TIP3   OH281718   5.213   3.255   3.693  0.2912 -0.2563  0.2002
20076TIP3    H181719   5.262   3.214   3.765  0.8373  1.0280  0.5841
20076TIP3    H281720   5.124   3.219   3.701  0.3167 -0.0591  1.5813
20077TIP3   OH281721   4.358   3.513   4.679  0.4453  0.0440 -0.1739
20077TIP3    H181722   4.297   3.467   4.737 -0.6789  0.1748 -1.2050
20077TIP3    H281723   4.318   3.599   4.665  1.4904  0.5973  0.0899
20078TIP3   OH281724   0.632   0.044   4.815 -0.6585  0.0874 -0.5943
20078TIP3    H181725   0.538   0.048   4.835 -0.6240  2.0721 -0.5738
20078TIP3    H281726   0.667   0.126   4.850  0.7076  0.3439 -2.4029
20079TIP3   OH281727   6.748   1.473   6.104 -0.3247  0.9539  0.0707
20079TIP3    H181728   6.825   1.441   6.153 -0.5065 -0.4117 -0.4766
20079TIP3    H281729   6.730   1.559   6.141  0.1192  0.3582  1.7709
20080TIP3   OH281730   2.325   3.546   2.765 -0.3746 -0.4350 -0.3801
20080TIP3    H181731   2.395   3.596   2.807 -0.3134 -1.6081  0.9980
20080TIP3    H281732   2.356   3.533   2.675  1.6887 -1.7317  0.4278
20081TIP3   OH281733   1.669   6.742   5.247 -0.0782 -0.1326 -0.1785
20081TIP3    H181734   1.665   6.829   5.206  1.7804  0.9646  1.7457
20081TIP3    H281735   1.718   6.689   5.185 -0.4016  0.4387 -0.9500
20082TIP3   OH281736   4.319   4.264  14.622  0.0712 -0.2582 -0.2024
20082TIP3    H181737   4.372   4.343  14.638 -1.0187  0.3092  0.7873
20082TIP3    H281738   4.232   4.287  14.656 -0.4712 -1.6223 -0.6228
20083TIP3   OH281739   7.110   0.924   5.643  0.4166  0.2870  0.1695
20083TIP3    H181740   7.142   0.844   5.685  0.8010 -0.6318 -1.7608
20083TIP3    H281741   7.020   0.934   5.675 -1.6324 -3.9055 -3.2876
20084TIP3   OH281742   4.970   0.594   2.395 -0.7056  0.0191  0.1287
20084TIP3    H181743   5.034   0.659   2.424 -0.1849 -1.0548  1.4902
20084TIP3    H281744   4.907   0.645   2.344 -0.4443  1.6384  1.3174
20085TIP3   OH281745   1.037   2.090   3.985  0.4310 -0.0977 -0.0683
20085TIP3    H181746   0.997   2.011   3.949 -0.6237  0.0082  0.8040
20085TIP3    H281747   1.122   2.061   4.017  1.1427 -0.3102 -2.0505
20086TIP3   OH281748   0.239   0.911   3.870  0.3817 -0.4809 -0.0585
20086TIP3    H181749   0.235   0.836   3.810 -2.5316 -0.8321  0.4608
20086TIP3    H281750   0.222   0.987   3.815  1.9208 -0.2836 -0.3281
20087TIP3   OH281751   4.807   1.802   1.610 -0.2115 -0.0064  0.8561
20087TIP3    H181752   4.888   1.796   1.660  0.8330  0.3215 -0.7199
20087TIP3    H281753   4.811   1.887   1.567 -0.5734 -0.6447 -0.5311
20088TIP3   OH281754   4.538   1.274   1.098  0.3868 -0.6483 -0.0064
20088TIP3    H181755   4.475   1.341   1.071 -0.3606 -0.3482  2.3040
20088TIP3    H281756   4.569   1.236   1.015 -2.1697 -0.2179 -1.2622
20089TIP3   OH281757   6.596   0.117   2.433 -0.3045  0.0563  0.1397
20089TIP3    H181758   6.504   0.111   2.408 -0.9169 -0.6552  2.3304
20089TIP3    H281759   6.614   0.211   2.437 -1.2849  0.2269  0.8075
20090TIP3   OH281760   5.967   4.762   0.823 -0.4068  0.3537  0.1219
20090TIP3    H181761   5.904   4.786   0.891  1.4101 -1.3449  2.5818
20090TIP3    H281762   5.964   4.667   0.820  0.9859  0.3085 -0.7502
20091TIP3   OH281763   6.287   4.515   2.851  0.0621 -0.3385 -0.2735
20091TIP3    H181764   6.216   4.548   2.905  1.6084 -0.0829  1.7217
20091TIP3    H281765   6.290   4.421   2.869  0.2845 -0.3389 -0.3096
20092TIP3   OH281766   2.218   2.274   0.073  0.6028  0.1607 -0.2323
20092TIP3    H181767   2.175   2.263   0.158 -0.2826 -0.8642 -0.7881
20092TIP3    H281768   2.173   2.213   0.015  1.2531  0.7731 -1.4274
20093TIP3   OH281769   3.653   4.769   2.800  0.8382 -0.4488 -0.2680
20093TIP3    H181770   3.651   4.730   2.712  1.5595 -1.9110  0.3275
20093TIP3    H281771   3.571   4.741   2.840  1.8435 -2.4192  0.5509
20094TIP3   OH281772   2.011   4.124   1.742  0.2682  0.1872 -0.4768
20094TIP3    H181773   2.081   4.069   1.777 -0.0280  1.1845  1.8552
20094TIP3    H281774   2.051   4.211   1.734  0.2949  0.0417 -2.6828
20095TIP3   OH281775   3.059   3.651   5.189  0.3481 -0.1539  0.0866
20095TIP3    H181776   3.038   3.719   5.125 -0.1969 -0.4161 -0.0117
20095TIP3    H281777   2.977   3.606   5.205 -0.2178  1.6093  2.9961
20096TIP3   OH281778   4.706   3.819   5.995 -0.1103 -0.0492 -0.0946
20096TIP3    H181779   4.692   3.899   6.046 -1.6559 -0.7722  0.6958
20096TIP3    H281780   4.679   3.843   5.906  0.6477  0.6481 -0.1508
20097TIP3   OH281781   3.270   5.992  14.951 -0.9174  0.0581  0.0995
20097TIP3    H181782   3.237   6.021  15.036 -1.2796  0.9267 -0.3227
20097TIP3    H281783   3.247   6.063  14.891  0.9325  0.2855 -0.3927
20098TIP3   OH281784   2.558   3.341   6.292  0.0356  0.5649  0.0367
20098TIP3    H181785   2.632   3.317   6.348  0.1106  0.5283 -0.0769
20098TIP3    H281786   2.575   3.295   6.209 -1.0292 -0.9024  0.5969
20099TIP3   OH281787   6.872   1.702  14.264  0.2466  0.2221  0.0564
20099TIP3    H181788   6.936   1.682  14.195 -0.4086  2.5285 -1.3515
20099TIP3    H281789   6.788   1.673  14.228  0.2919 -1.8631  1.4727
20100TIP3   OH281790   2.436   2.398   3.907 -0.6209  0.0320 -0.2122
20100TIP3    H181791   2.390   2.478   3.935  1.1826  1.0075  0.1101
20100TIP3    H281792   2.401   2.330   3.964 -0.9970  0.9296  0.6743
20101TIP3   OH281793   2.813   5.461   4.214 -0.0037 -0.0949 -0.6178
20101TIP3    H181794   2.735   5.502   4.177 -0.5506 -0.3694  0.2126
20101TIP3    H281795   2.815   5.489   4.305 -0.1387 -1.5039 -0.1507
20102TIP3   OH281796   5.540   6.036   1.721  0.2296 -0.0628  0.1091
20102TIP3    H181797   5.467   6.030   1.783  0.3121  1.2041  0.3661
20102TIP3    H281798   5.499   6.035   1.635  0.0653 -1.2438  0.1934
20103TIP3   OH281799   1.330   0.565   3.074 -0.1404 -0.3919 -0.6081
20103TIP3    H181800   1.380   0.491   3.040 -0.3490 -0.4900 -0.7027
20103TIP3    H281801   1.267   0.585   3.004 -1.1893 -1.1707  0.0885
20104TIP3   OH281802   3.468   1.464   5.210  0.1148 -0.0555 -0.5983
20104TIP3    H181803   3.488   1.461   5.304  0.2146 -0.4631 -0.6309
20104TIP3    H281804   3.401   1.397   5.198 -1.8699  1.7910 -0.3568
20105TIP3   OH281805   6.232   5.546   3.839  0.4135  0.3559  0.3412
20105TIP3    H181806   6.278   5.595   3.908  1.1498  0.9380 -0.5381
20105TIP3    H281807   6.217   5.460   3.877  2.1950  0.1569  0.6948
20106TIP3   OH281808   3.678   1.630  14.204 -0.3062  0.0508 -0.1568
20106TIP3    H181809   3.660   1.687  14.129 -0.9741  0.1081  0.0428
20106TIP3    H281810   3.609   1.564  14.201 -0.1894 -0.0936  0.2586
20107TIP3   OH281811   1.995   3.823   1.862  0.4421 -0.3362  0.8370
20107TIP3    H181812   1.991   3.773   1.944 -0.5481  0.1378  1.0907
20107TIP3    H281813   2.075   3.875   1.869 -0.2539  0.6186  2.0668
20108TIP3   OH281814   2.851   0.604   0.537  0.2362 -0.6142  0.2090
20108TIP3    H181815   2.823   0.642   0.454  0.5665 -0.4533  0.1688
20108TIP3    H281816   2.808   0.518   0.540  0.3522 -0.6884 -0.2047
20109TIP3   OH281817   6.023   2.147   2.351 -0.0113 -0.6914 -0.0523
20109TIP3    H181818   6.113   2.121   2.333  0.0145  0.0339 -1.0559
20109TIP3    H281819   6.027   2.242   2.362 -0.7911 -0.5180 -1.1177
20110TIP3   OH281820   5.644   0.657   5.160  0.4435 -0.1944  0.0853
20110TIP3    H181821   5.650   0.654   5.064  0.2891  1.1293  0.0042
20110TIP3    H281822   5.661   0.749   5.181  0.2060 -0.4221  1.3123
20111TIP3   OH281823   0.623   4.683   5.535 -0.5299 -0.2248 -0.0329
20111TIP3    H181824   0.573   4.641   5.465  1.0849  0.6358 -1.8076
20111TIP3    H281825   0.634   4.773   5.505 -0.6900  0.4513  1.8708
20112TIP3   OH281826   1.554   3.818   4.449 -0.3389 -0.1006  0.0076
20112TIP3    H181827   1.474   3.866   4.470 -0.1901  0.6375 -1.0643
20112TIP3    H281828   1.604   3.877   4.393  0.3724 -1.0661 -0.4054
20113TIP3   OH281829   5.505   5.690   2.182  0.2926 -0.1432  0.9861
20113TIP3    H181830   5.598   5.709   2.173  0.2873 -0.0147  1.1955
20113TIP3    H281831   5.498   5.596   2.168  0.4951 -0.2049  1.3022
20114TIP3   OH281832   3.382   5.252   3.957  0.6905  0.2329  0.3650
20114TIP3    H181833   3.450   5.292   4.011  0.6733 -2.5883  2.7702
20114TIP3    H281834   3.301   5.261   4.009  0.6793 -2.5840  1.0106
20115TIP3   OH281835   3.904   4.861  15.091  0.0663 -0.3507  0.1943
20115TIP3    H181836   3.957   4.782  15.081  0.2599 -0.1592 -0.3232
20115TIP3    H281837   3.965   4.934  15.076 -0.3297 -0.1273 -0.3922
20116TIP3   OH281838   1.095   6.122   2.947 -0.0304  0.1393 -0.1994
20116TIP3    H181839   1.143   6.062   3.003  1.6114  1.0456 -0.5733
20116TIP3    H281840   1.163   6.171   2.900 -1.3103  1.7295 -0.4952
20117TIP3   OH281841   2.558   0.314   3.461  0.0106 -0.7651 -0.5456
20117TIP3    H181842   2.568   0.220   3.475  0.1336 -0.8140 -0.9532
20117TIP3    H281843   2.632   0.353   3.507  0.5788 -0.9452 -1.2740
20118TIP3   OH281844   6.292   1.303   3.799  0.6439 -0.1541 -0.1737
20118TIP3    H181845   6.374   1.340   3.833  0.4814 -0.2534  0.3258
20118TIP3    H281846   6.269   1.235   3.861  1.1655 -1.4154 -1.2980
20119TIP3   OH281847   3.921   6.161   4.949  0.4340 -0.1369  0.0796
20119TIP3    H181848   3.842   6.166   5.004 -0.7160  0.2822 -1.5448
20119TIP3    H281849   3.964   6.245   4.962 -1.1744  1.0243 -1.5025
20120TIP3   OH281850   5.176   2.443   4.416 -0.3965 -0.1421 -0.1871
20120TIP3    H181851   5.245   2.476   4.473 -1.4896 -0.8538  1.6565
20120TIP3    H281852   5.189   2.487   4.333  2.2523 -0.2537  0.1046
20121TIP3   OH281853   4.289   1.237   0.293  0.3187  0.1838 -0.0844
20121TIP3    H181854   4.195   1.251   0.282  0.2133  1.9815  2.2011
20121TIP3    H281855   4.310   1.283   0.375  2.6359 -2.6478  1.0990
20122TIP3   OH281856   0.222   2.242   2.408  0.0490  0.5269 -0.5116
20122TIP3    H181857   0.269   2.221   2.489  0.4402 -1.9223 -1.3059
20122TIP3    H281858   0.187   2.158   2.377  0.2667  1.2917 -3.1015
20123TIP3   OH281859   1.245   5.664   2.889  0.2613 -0.2620  0.0248
20123TIP3    H181860   1.251   5.581   2.842 -1.1679  0.5509 -1.7274
20123TIP3    H281861   1.192   5.644   2.966 -0.3751 -0.9335 -0.5683
20124TIP3   OH281862   0.567   5.870   2.361 -0.5248 -0.1767  0.4242
20124TIP3    H181863   0.571   5.965   2.350  0.4079 -0.1878  0.5851
20124TIP3    H281864   0.567   5.836   2.271  0.1784 -0.0489  0.3665
20125TIP3   OH281865   0.155   2.019   4.834 -0.0742  0.8437 -0.5055
20125TIP3    H181866   0.215   1.991   4.904 -1.1605  0.6014  0.3643
20125TIP3    H281867   0.199   2.094   4.794  1.0267  0.3822 -0.2123
20126TIP3   OH281868   0.556   5.396   4.883 -0.1431  0.4595  0.3178
20126TIP3    H181869   0.535   5.470   4.940 -2.9996  0.5530 -0.7223
20126TIP3    H281870   0.493   5.328   4.908  0.9857 -0.8405 -0.2602
20127TIP3   OH281871   1.446   4.468   5.537  0.0462 -0.6827 -0.2004
20127TIP3    H181872   1.383   4.400   5.512 -1.6464 -0.1438  2.2492
20127TIP3    H281873   1.465   4.450   5.629 -1.2216  2.6311  0.8451
20128TIP3   OH281874   1.685   3.053   0.270 -0.5944 -0.2080 -0.5474
20128TIP3    H181875   1.778   3.040   0.249 -0.5303 -1.2235  0.3111
20128TIP3    H281876   1.669   3.145   0.248  0.9730  0.3905  0.5815
20129TIP3   OH281877   0.122   2.258   5.502 -0.1564 -0.4894 -0.0217
20129TIP3    H181878   0.070   2.280   5.425 -0.4526 -0.2858  0.2348
20129TIP3    H281879   0.060   2.214   5.561  0.2096 -1.2032 -0.1515
20130TIP3   OH281880   1.405   5.527   5.008  0.5107  0.0935  0.1535
20130TIP3    H181881   1.477   5.493   4.954 -0.4411 -2.0484  0.1354
20130TIP3    H281882   1.449   5.581   5.074  1.8368  1.5424 -1.7571
20131TIP3   OH281883   4.834   5.109   1.070 -0.1068  0.8206  0.5888
20131TIP3    H181884   4.863   5.199   1.078 -0.8030  1.2449 -1.1789
20131TIP3    H281885   4.740   5.115   1.054 -0.4263 -0.3034  1.8402
20132TIP3   OH281886   0.684   2.050   4.553 -0.6482  0.2913 -0.1518
20132TIP3    H181887   0.626   2.117   4.517 -1.1566 -0.1277 -0.1242
20132TIP3    H281888   0.627   1.976   4.570  0.1334 -0.6506 -1.4496
20133TIP3   OH281889   6.493   1.691   5.488 -0.5682  0.0812 -0.1027
20133TIP3    H181890   6.512   1.757   5.555  1.5015 -0.1766 -0.3612
20133TIP3    H281891   6.533   1.611   5.521  0.7854  0.0177 -1.7300
20134TIP3   OH281892   4.815   1.262   3.261  0.7152  0.1096 -0.3570
20134TIP3    H181893   4.869   1.202   3.311 -0.4995 -1.4746 -0.8552
20134TIP3    H281894   4.798   1.335   3.321  0.8942 -0.8057  0.8425
20135TIP3   OH281895   0.936   5.638   2.674  0.5281  0.3075 -0.3764
20135TIP3    H181896   0.949   5.714   2.732  0.2290  0.0389  0.0471
20135TIP3    H281897   0.867   5.666   2.614 -0.8343 -0.2422  0.8922
20136TIP3   OH281898   6.778   1.257   3.043  0.2090 -0.0182  0.4213
20136TIP3    H181899   6.713   1.290   2.981  1.7585 -0.3619 -1.4878
20136TIP3    H281900   6.848   1.322   3.042  0.6514 -0.4665  1.1460
20137TIP3   OH281901   6.468   2.135   2.383  0.2589 -0.0254  0.0052
20137TIP3    H181902   6.522   2.163   2.457  1.0092  1.2907 -0.9979
20137TIP3    H281903   6.530   2.101   2.319 -0.0080  1.9199 -1.3544
20138TIP3   OH281904   7.020   1.484  13.366  0.3014  0.3528 -0.2287
20138TIP3    H181905   7.042   1.479  13.273 -0.0435  2.1243 -0.4308
20138TIP3    H281906   7.077   1.552  13.401 -1.3614  1.5490  0.2785
20139TIP3   OH281907   3.726   7.158   5.738  0.3710 -0.8838 -0.0733
20139TIP3    H181908   3.735   7.253   5.731 -0.2415 -0.9465 -2.4451
20139TIP3    H281909   3.631   7.143   5.745  0.1739 -1.3857 -2.7468
20140TIP3   OH281910   4.428   1.092   3.399  0.2323  0.6839 -0.2318
20140TIP3    H181911   4.511   1.060   3.433 -0.0196 -1.6032 -1.5211
20140TIP3    H281912   4.444   1.184   3.377  2.2728  0.4091 -0.0794
20141TIP3   OH281913   4.864   2.291   4.627  0.1982 -0.1176  0.2539
20141TIP3    H181914   4.859   2.261   4.536  0.1381 -1.2502  0.6113
20141TIP3    H281915   4.894   2.381   4.621  3.5848 -1.1644 -0.7587
20142TIP3   OH281916   1.996   2.240   5.869 -0.1347 -0.1382 -0.5760
20142TIP3    H181917   1.949   2.302   5.925 -1.0187 -0.2771 -1.1483
20142TIP3    H281918   2.078   2.225   5.915 -1.3736 -1.3155  1.4234
20143TIP3   OH281919   4.402   4.459   4.271  0.0856  0.5054 -0.4624
20143TIP3    H181920   4.367   4.535   4.317 -0.9820  0.2961 -0.8791
20143TIP3    H281921   4.324   4.410   4.243  0.7174 -1.6027  1.1908
20144TIP3   OH281922   0.490   4.811   5.098  0.4927 -0.1435 -0.2446
20144TIP3    H181923   0.471   4.804   5.191  0.8345  0.4026 -0.1317
20144TIP3    H281924   0.423   4.757   5.056 -2.2405  2.7216  0.0340
20145TIP3   OH281925   7.210   4.612   1.804  0.3990  0.1688 -0.4043
20145TIP3    H181926   7.192   4.642   1.714  0.5148  1.7640  0.0681
20145TIP3    H281927   7.259   4.530   1.792  0.3741  0.3221 -1.7974
20146TIP3   OH281928   6.910   4.483   3.281  0.3496  0.5282  0.8317
20146TIP3    H181929   6.942   4.393   3.282 -3.3479 -0.9588  0.0619
20146TIP3    H281930   6.884   4.501   3.372 -1.6556 -0.3776  0.4879
20147TIP3   OH281931   2.552   1.885   2.624  0.3790  0.4113 -0.2114
20147TIP3    H181932   2.479   1.916   2.678  0.5633  0.1119  0.2106
20147TIP3    H281933   2.572   1.798   2.658  1.1401  0.6176 -0.1144
20148TIP3   OH281934   5.578   4.818   5.155 -0.0408  0.4483  0.4236
20148TIP3    H181935   5.511   4.794   5.091 -0.1727  1.9132 -0.0424
20148TIP3    H281936   5.658   4.777   5.122 -0.0930  1.2359 -0.7764
20149TIP3   OH281937   1.487   2.672   2.038  0.2818 -0.4602  0.5610
20149TIP3    H181938   1.490   2.608   1.966  1.2427 -0.1146  0.2811
20149TIP3    H281939   1.572   2.714   2.036 -0.5367  1.2833  0.3377
20150TIP3   OH281940   3.733   5.939   2.777 -0.0042 -0.0116 -0.3283
20150TIP3    H181941   3.797   5.877   2.811  0.4998  0.0411 -1.1702
20150TIP3    H281942   3.785   6.016   2.752  0.2297 -1.2923 -4.4929
20151TIP3   OH281943   6.993   5.080   5.455 -0.3304  0.1008 -0.3674
20151TIP3    H181944   6.958   5.167   5.473 -1.9598 -0.5286 -0.3692
20151TIP3    H281945   7.042   5.058   5.535 -1.0662  0.4570  0.1998
20152TIP3   OH281946   3.376   5.194   1.143 -0.6602 -0.0640  0.8110
20152TIP3    H181947   3.334   5.276   1.116  0.5881  0.8822  1.6552
20152TIP3    H281948   3.306   5.129   1.138 -1.7840  1.1200  0.5254
20153TIP3   OH281949   6.268   2.953   6.138  0.0414 -0.1943  0.1331
20153TIP3    H181950   6.317   2.933   6.217  0.7009  0.3257 -0.1427
20153TIP3    H281951   6.297   3.040   6.112  0.7627 -0.8404 -1.3648
20154TIP3   OH281952   1.057   1.319   2.305  1.1745  0.0236 -0.0829
20154TIP3    H181953   1.132   1.284   2.352 -0.8767 -1.8239  2.0728
20154TIP3    H281954   1.008   1.242   2.277 -1.3115  1.0825  1.0545
20155TIP3   OH281955   2.461   5.292   3.882 -0.0861 -0.2065 -0.2111
20155TIP3    H181956   2.409   5.225   3.926  0.5435  0.7566  2.1849
20155TIP3    H281957   2.552   5.261   3.889 -0.0695 -0.8065 -2.3734
20156TIP3   OH281958   6.713   0.911   3.929  0.0087 -0.0951 -0.3937
20156TIP3    H181959   6.762   0.933   4.008 -0.9142 -0.0837  0.1922
20156TIP3    H281960   6.761   0.954   3.858 -0.2502  1.6002  0.4041
20157TIP3   OH281961   5.080   0.052   5.083  0.0001 -0.2600 -0.3949
20157TIP3    H181962   5.003  -0.003   5.096  0.2347 -0.6259 -0.5235
20157TIP3    H281963   5.148   0.011   5.136 -0.4317  1.2725  1.4347
20158TIP3   OH281964   1.142   0.325   1.616 -0.1938  0.2833  0.1491
20158TIP3    H181965   1.173   0.250   1.565 -0.7554  0.6202 -0.6917
20158TIP3    H281966   1.219   0.353   1.665 -0.1813 -1.3597  1.1327
20159TIP3   OH281967   3.726   6.977   4.068 -0.6334 -0.0701 -0.4631
20159TIP3    H181968   3.817   6.988   4.042 -0.9541 -1.6437 -2.4242
20159TIP3    H281969   3.730   6.923   4.147  0.0897 -1.5452 -1.4788
20160TIP3   OH281970   2.084   4.287   0.227  0.2792  0.1897 -0.2962
20160TIP3    H181971   2.171   4.283   0.267 -0.3005  0.6689  1.0770
20160TIP3    H281972   2.093   4.354   0.158  0.6740  1.1983  0.7025
20161TIP3   OH281973   1.466   6.333   4.222 -0.3472 -0.9839  0.2259
20161TIP3    H181974   1.540   6.342   4.163  0.6331 -0.4003  1.5027
20161TIP3    H281975   1.475   6.245   4.259  2.6701  0.6625  4.0768
20162TIP3   OH281976   6.604   3.681   2.785  0.5861 -0.8259 -0.0655
20162TIP3    H181977   6.512   3.654   2.785  0.2395  0.2048 -1.7982
20162TIP3    H281978   6.610   3.747   2.853  0.0352 -0.8550  0.0158
20163TIP3   OH281979   5.411   4.977  15.242 -0.3954 -0.1138  0.2269
20163TIP3    H181980   5.485   4.971  15.302  1.2656 -2.2737 -1.8298
20163TIP3    H281981   5.334   4.974  15.298  1.0631 -0.2872  2.3326
20164TIP3   OH281982   0.547   0.676   3.943 -0.3633 -0.2306 -0.0561
20164TIP3    H181983   0.489   0.668   4.019 -2.2703  0.0544 -1.4219
20164TIP3    H281984   0.605   0.600   3.950 -1.9972 -1.4903  0.4802
20165TIP3   OH281985   1.544   6.920   1.356  0.5220 -0.7026 -0.3532
20165TIP3    H181986   1.558   6.901   1.449  1.0368 -0.7051 -0.4294
20165TIP3    H281987   1.595   7.000   1.340 -1.0850  0.3972 -0.1881
20166TIP3   OH281988   2.458   6.434   5.509  0.5423 -0.3308  0.2300
20166TIP3    H181989   2.489   6.390   5.588  0.8771 -1.1549 -0.3363
20166TIP3    H281990   2.538   6.449   5.458  0.5998  2.1012  0.9474
20167TIP3   OH281991   0.844   6.546   0.123 -0.8080 -0.1181 -0.3348
20167TIP3    H181992   0.766   6.556   0.177 -0.2262  4.9207  0.0621
20167TIP3    H281993   0.816   6.569   0.034 -0.1944 -0.6750 -0.6893
20168TIP3   OH281994   0.802   6.010   3.510 -0.5479 -0.1543 -0.2203
20168TIP3    H181995   0.848   6.014   3.426  1.9605  1.4603  1.1091
20168TIP3    H281996   0.837   5.931   3.552 -0.3794  0.0722  0.0626
20169TIP3   OH281997   2.555   1.295   2.041  0.2867 -0.2756  0.2281
20169TIP3    H181998   2.542   1.316   2.133  0.5530 -0.5355  0.3269
20169TIP3    H281999   2.648   1.273   2.034 -0.2166 -2.7465  0.4080
20170TIP3   OH282000   2.088   6.586   3.394 -0.4747  0.0599 -0.0636
20170TIP3    H182001   2.089   6.613   3.485  1.2445 -1.0310  0.2865
20170TIP3    H282002   2.119   6.495   3.395 -1.6275 -0.4093 -1.6176
20171TIP3   OH282003   1.852   5.957   1.562 -0.0234  0.0457 -0.2110
20171TIP3    H182004   1.904   5.936   1.485 -0.4241 -0.7266 -0.2851
20171TIP3    H282005   1.820   6.046   1.547 -0.4786 -0.2676 -1.1476
20172TIP3   OH282006   0.486   6.758   5.085  0.5504  0.0340 -0.1195
20172TIP3    H182007   0.453   6.671   5.064  1.3391 -0.3531  0.2052
20172TIP3    H282008   0.421   6.818   5.047 -0.7189 -0.6918  0.8093
20173TIP3   OH282009   1.257   2.335   3.289 -0.5037  1.2373 -0.4413
20173TIP3    H182010   1.250   2.303   3.379  0.3115  0.5554 -0.6104
20173TIP3    H282011   1.350   2.354   3.277 -0.5130  0.8194 -1.3008
20174TIP3   OH282012   7.073   1.308   3.659  0.3724 -0.4838 -0.2658
20174TIP3    H182013   7.009   1.350   3.716 -2.3117 -1.5328 -2.2940
20174TIP3    H282014   7.117   1.381   3.615  0.7517  0.2682  1.2909
20175TIP3   OH282015   1.348   2.229   2.160  0.1073  0.1147 -0.1421
20175TIP3    H182016   1.291   2.207   2.234 -1.9215  3.0615 -0.6583
20175TIP3    H282017   1.436   2.220   2.195 -0.6315 -2.8556  1.2520
20176TIP3   OH282018   1.336   5.956   5.634 -0.3138  0.2068  0.2399
20176TIP3    H182019   1.409   6.017   5.650  0.7191 -0.6846 -0.8565
20176TIP3    H282020   1.261   5.997   5.676  0.6697  1.5125  0.8019
20177TIP3   OH282021   2.664   4.374   5.795 -0.1977  0.2263  0.3033
20177TIP3    H182022   2.716   4.440   5.840  0.3642  0.0713 -0.1064
20177TIP3    H282023   2.589   4.421   5.759 -0.5555  0.3846  1.2355
20178TIP3   OH282024   6.931   4.515   2.033  0.1516  0.2119 -0.0200
20178TIP3    H182025   6.908   4.604   2.007 -0.2188  0.2509  0.4290
20178TIP3    H282026   6.851   4.480   2.073  0.8742  0.3798  1.6637
20179TIP3   OH282027   5.483   4.632   4.678  0.2766  0.5939 -0.4001
20179TIP3    H182028   5.572   4.633   4.644  0.0601 -1.5602 -1.2490
20179TIP3    H282029   5.433   4.686   4.617  0.4920 -0.6596 -1.7600
20180TIP3   OH282030   5.056   5.158   4.202  0.3440 -0.1479 -0.3093
20180TIP3    H182031   5.068   5.071   4.239  0.6841  0.0663  0.0940
20180TIP3    H282032   4.968   5.156   4.163  0.0235 -0.4132  0.4130
20181TIP3   OH282033   3.426   6.084   3.649  0.3189 -0.6885 -0.5703
20181TIP3    H182034   3.423   6.138   3.729 -0.3472  1.5178 -1.9908
20181TIP3    H282035   3.441   5.995   3.681  1.3234  0.2768  1.9350
20182TIP3   OH282036   4.578   3.090   4.545  0.2429  0.2839 -0.1162
20182TIP3    H182037   4.507   3.095   4.481  1.3255 -0.2483 -1.4140
20182TIP3    H282038   4.539   3.047   4.621 -1.0534  0.8415 -0.4472
20183TIP3   OH282039   3.521   1.235   3.713 -0.6833 -0.4079 -0.2782
20183TIP3    H182040   3.554   1.181   3.784 -1.8922 -1.2343 -0.3024
20183TIP3    H282041   3.597   1.250   3.656  0.0006 -0.8269  0.5087
20184TIP3   OH282042   0.270   5.842   4.373  0.1241  0.1913 -0.2862
20184TIP3    H182043   0.338   5.878   4.316 -0.9333  0.9211 -1.1324
20184TIP3    H282044   0.318   5.803   4.446  1.4607  0.3021 -1.0715
20185TIP3   OH282045   6.394   3.931  12.584  0.7249  0.3746  0.6417
20185TIP3    H182046   6.301   3.909  12.579  0.8203  0.1039 -0.1524
20185TIP3    H282047   6.434   3.884  12.510  1.6579 -0.2920  1.5359
20186TIP3   OH282048   3.887   4.705   5.512  0.2446  0.3116 -0.4143
20186TIP3    H182049   3.876   4.610   5.518 -1.3165  0.3590 -1.8955
20186TIP3    H282050   3.888   4.734   5.603  0.5354 -1.1008  0.0645
20187TIP3   OH282051   3.329   3.827   4.505  0.2059 -0.1405  0.3094
20187TIP3    H182052   3.377   3.784   4.435  1.7180 -1.3193  1.9844
20187TIP3    H282053   3.386   3.898   4.533  1.0192 -1.4467  2.2012
20188TIP3   OH282054   1.807   6.648   1.773  0.4670  0.1491 -0.2229
20188TIP3    H182055   1.789   6.554   1.769  0.1731  0.2450 -1.6656
20188TIP3    H282056   1.902   6.654   1.781  0.3395 -0.2838  2.9997
20189TIP3   OH282057   3.387   4.101   4.012 -0.1370 -0.0174  0.0260
20189TIP3    H182058   3.294   4.112   4.030  0.0663  0.6172  0.7533
20189TIP3    H282059   3.429   4.176   4.055  0.7486 -0.5107  0.0520
20190TIP3   OH282060   6.585   3.494   5.631  0.0691 -0.3212 -0.0942
20190TIP3    H182061   6.579   3.468   5.539  1.2563  0.6729 -0.4783
20190TIP3    H282062   6.651   3.436   5.668 -0.8372 -1.1204  0.2946
20191TIP3   OH282063   0.590   3.402   5.484  0.2614  0.3172 -0.2052
20191TIP3    H182064   0.511   3.409   5.537  0.5629  0.1548  0.2651
20191TIP3    H282065   0.606   3.491   5.453  0.1135  0.4180  0.0118
20192TIP3   OH282066   6.639   3.886   4.630  0.5814 -0.5043  0.0955
20192TIP3    H182067   6.672   3.812   4.579  0.2245 -1.6592  1.4682
20192TIP3    H282068   6.674   3.872   4.718 -1.3323 -0.3076  0.9390
20193TIP3   OH282069   3.812   1.271   2.044 -0.2759  0.1566 -0.1202
20193TIP3    H182070   3.746   1.230   2.100 -0.5582 -0.0001 -0.5658
20193TIP3    H282071   3.872   1.313   2.106  0.8148 -2.0672  0.4450
20194TIP3   OH282072   1.558   4.124   2.970 -0.3149  0.1651  0.0743
20194TIP3    H182073   1.519   4.164   3.048  1.8872  0.7936  0.9297
20194TIP3    H282074   1.504   4.154   2.897 -0.6207  2.1015  1.0383
20195TIP3   OH282075   4.311   0.449   4.616 -0.2287  0.0075 -0.2124
20195TIP3    H182076   4.342   0.477   4.530  0.8674  0.6637  0.3726
20195TIP3    H282077   4.216   0.464   4.614 -0.0688  0.9744 -0.9527
20196TIP3   OH282078   1.638   2.433   1.089  0.0056 -0.2853  0.0086
20196TIP3    H182079   1.716   2.416   1.142 -1.1882 -1.8322  1.3640
20196TIP3    H282080   1.594   2.505   1.133 -0.5219 -0.9699  0.6116
20197TIP3   OH282081   3.941   4.656   4.719  0.2116 -0.0733 -0.2700
20197TIP3    H182082   3.859   4.635   4.675  0.8940 -0.5055 -1.3981
20197TIP3    H282083   3.918   4.722   4.783 -0.9196  0.2334 -0.9617
20198TIP3   OH282084   1.762   1.625   3.973  0.0175 -0.0665  0.2653
20198TIP3    H182085   1.822   1.651   3.903 -2.1890  1.4446 -1.2142
20198TIP3    H282086   1.725   1.542   3.943 -0.9556  0.5991 -0.4669
20199TIP3   OH282087   5.138   4.333   5.988 -0.4292  0.0057  0.2371
20199TIP3    H182088   5.224   4.303   5.958 -0.4043 -0.9095  1.1494
20199TIP3    H282089   5.076   4.271   5.949 -0.4512 -0.7761  1.4400
20200TIP3   OH282090   4.670   6.088   1.796  0.2521 -0.3170 -0.2231
20200TIP3    H182091   4.603   6.094   1.865  1.7994  0.0240  1.3379
20200TIP3    H282092   4.703   5.998   1.803  0.7881 -0.1187 -0.1280
20201TIP3   OH282093   3.162   3.090   2.551 -0.0506 -0.0119  0.2656
20201TIP3    H182094   3.129   3.011   2.510  1.6777 -0.8734  0.4745
20201TIP3    H282095   3.163   3.071   2.644  0.2396  0.3053  0.3325
20202TIP3   OH282096   3.953   1.623   5.776 -0.0021 -0.3197 -0.1530
20202TIP3    H182097   3.901   1.625   5.857 -2.0224 -2.5366 -1.2672
20202TIP3    H282098   3.938   1.709   5.736 -0.1369  0.2723  1.0964
20203TIP3   OH282099   4.826   3.619   5.067 -0.4256 -0.3322 -0.1122
20203TIP3    H182100   4.758   3.619   5.134 -0.0688 -0.7979  0.2565
20203TIP3    H282101   4.825   3.707   5.031  0.8639  0.6090  2.0104
20204TIP3   OH282102   0.230   6.451   3.264  0.5872 -0.4486 -0.1631
20204TIP3    H182103   0.310   6.474   3.217  0.6140 -1.5475 -0.6800
20204TIP3    H282104   0.160   6.468   3.201  0.3790  0.6840  0.3496
20205TIP3   OH282105   7.092   4.923   4.233 -0.3758  0.1025  0.0854
20205TIP3    H182106   6.998   4.943   4.223 -0.7289 -0.9503  1.1274
20205TIP3    H282107   7.116   4.964   4.316 -0.1565 -0.4633  0.3054
20206TIP3   OH282108   2.803   2.404   3.589  0.3647  0.2451  0.1903
20206TIP3    H182109   2.754   2.336   3.637  0.2007  2.0042  2.7386
20206TIP3    H282110   2.739   2.472   3.571  1.0500  0.8466 -0.0185
20207TIP3   OH282111   6.409   4.420   6.064  0.1368  0.0711  0.0379
20207TIP3    H182112   6.327   4.468   6.052  0.7727  1.2497  0.3600
20207TIP3    H282113   6.438   4.400   5.975  0.1210  0.7185 -0.1174
20208TIP3   OH282114   0.346   0.078   4.822  0.3296 -0.5779 -0.3596
20208TIP3    H182115   0.261   0.040   4.801 -0.1328 -0.1387  0.6595
20208TIP3    H282116   0.355   0.067   4.916  1.2210 -0.2560 -0.3988
20209TIP3   OH282117   2.749   2.201  10.574  0.1705  0.4954 -0.2576
20209TIP3    H182118   2.718   2.291  10.564  1.7721  1.3118  1.4505
20209TIP3    H282119   2.835   2.201  10.532  0.4550 -0.0422  0.3081
20210TIP3   OH282120   0.358   3.631   2.253 -0.4195  0.1153 -0.0882
20210TIP3    H182121   0.444   3.672   2.260 -0.6982  0.7451 -0.3114
20210TIP3    H282122   0.331   3.648   2.163  0.3483 -2.3461 -0.8558
20211TIP3   OH282123   1.091   4.099   2.714 -0.3882 -0.3193 -0.0935
20211TIP3    H182124   1.055   4.163   2.776  0.5023 -1.2073  1.4090
20211TIP3    H282125   1.104   4.020   2.767 -1.2144 -1.6761 -1.8365
20212TIP3   OH282126   4.463   3.958   4.391  0.0678 -0.2799  0.1236
20212TIP3    H182127   4.520   4.031   4.365 -0.3266 -0.1494 -0.4017
20212TIP3    H282128   4.509   3.915   4.462  0.6197  0.0888 -0.0084
20213TIP3   OH282129   5.151   0.531   5.100 -0.0875  0.2727 -0.0938
20213TIP3    H182130   5.130   0.468   5.168  3.1307 -1.5998 -0.6179
20213TIP3    H282131   5.166   0.613   5.147  1.2764 -0.7733  1.4020
20214TIP3   OH282132   1.317   4.521   3.591 -0.0351 -0.3727 -0.5487
20214TIP3    H182133   1.298   4.605   3.549  0.7058 -0.7787 -1.7615
20214TIP3    H282134   1.349   4.544   3.678 -0.7764  0.5406 -0.5009
20215TIP3   OH282135   5.917   4.025   5.281  0.7294 -0.5439 -0.4023
20215TIP3    H182136   5.823   4.026   5.261  0.9914  1.9092 -1.8741
20215TIP3    H282137   5.921   4.017   5.376 -0.8951 -2.2720 -0.4102
20216TIP3   OH282138   4.976   6.273   2.177 -0.2542 -0.2243 -0.1201
20216TIP3    H182139   4.916   6.211   2.135  1.8843 -3.1075  0.8125
20216TIP3    H282140   5.000   6.232   2.260  1.0966  2.0113  0.6997
20217TIP3   OH282141   2.371   2.803   4.240 -0.5430 -0.8082  0.2560
20217TIP3    H182142   2.363   2.738   4.310 -0.3521  1.0737  2.1278
20217TIP3    H282143   2.440   2.862   4.270  0.2666 -0.4849 -2.0392
20218TIP3   OH282144   7.213   6.901   5.032 -0.0686 -0.2001 -0.3009
20218TIP3    H182145   7.207   6.972   5.095  1.0697 -0.2410 -0.1287
20218TIP3    H282146   7.160   6.831   5.070 -0.1540  0.1075  0.1500
20219TIP3   OH282147   0.179   5.033   4.134  0.1279  0.5487  0.9533
20219TIP3    H182148   0.260   5.027   4.184 -0.0198  1.4343  1.3262
20219TIP3    H282149   0.146   5.121   4.153  0.4608  1.2317 -1.2780
20220TIP3   OH282150   0.744   2.470   5.687  0.0029  0.0388  0.3767
20220TIP3    H182151   0.824   2.520   5.704 -0.1008  0.0542  0.8349
20220TIP3    H282152   0.735   2.412   5.762 -0.2259 -0.2174  0.1545
20221TIP3   OH282153   1.033   2.515   1.037  0.5589 -0.7230  0.5366
20221TIP3    H182154   1.026   2.423   1.011 -0.1507 -0.8481  1.1309
20221TIP3    H282155   1.020   2.514   1.132  0.3461  0.0128  0.5187
20222TIP3   OH282156   5.003   6.516   5.124 -0.1175  0.1595 -0.5186
20222TIP3    H182157   5.043   6.432   5.148 -2.5919 -1.0163 -0.2412
20222TIP3    H282158   4.992   6.562   5.208  0.9464  0.6592 -0.6370
20223TIP3   OH282159   6.662   2.478   4.090  0.5845  0.0186  0.8770
20223TIP3    H182160   6.624   2.549   4.141 -0.0388 -1.6153  2.7984
20223TIP3    H282161   6.726   2.437   4.149  1.3504 -0.6825 -0.3859
20224TIP3   OH282162   1.533   3.482  14.911  0.5009 -0.1095 -0.5436
20224TIP3    H182163   1.586   3.549  14.956 -0.0583  0.2129 -0.3553
20224TIP3    H282164   1.476   3.532  14.853  0.5839 -0.4758 -0.9427
20225TIP3   OH282165   4.350   4.480   2.466 -0.1739 -0.8371  0.0800
20225TIP3    H182166   4.299   4.447   2.540  0.7108 -2.3671  0.0558
20225TIP3    H282167   4.284   4.499   2.399 -0.7974 -2.0134  0.3337
20226TIP3   OH282168   0.992   3.692   1.302 -0.5160  0.9401 -0.0387
20226TIP3    H182169   1.077   3.736   1.311 -0.0598  0.3852 -1.3765
20226TIP3    H282170   1.014   3.603   1.275 -1.5195  0.7261 -0.1977
20227TIP3   OH282171   4.859   5.748   3.476  0.0699 -0.5587 -0.0813
20227TIP3    H182172   4.913   5.672   3.497  2.0403  0.4220 -1.2505
20227TIP3    H282173   4.844   5.792   3.560  1.6856 -0.5274  0.2281
20228TIP3   OH282174   2.867   6.617   2.314 -0.5657 -0.5442 -0.0264
20228TIP3    H182175   2.937   6.626   2.249  0.0388 -0.0591  0.6753
20228TIP3    H282176   2.786   6.631   2.265 -0.2446 -1.9233 -1.0224
20229TIP3   OH282177   3.540   5.953   2.540  0.5257  0.0281 -0.4011
20229TIP3    H182178   3.503   5.876   2.497  2.6072  0.0668 -2.4433
20229TIP3    H282179   3.601   5.916   2.605 -1.6742 -0.0082  1.7862
20230TIP3   OH282180   3.105   5.031   0.112 -0.7467  0.2242  0.1943
20230TIP3    H182181   3.011   5.015   0.122 -0.2685 -2.1945  1.6278
20230TIP3    H282182   3.146   4.972   0.175  1.7604  1.1446 -0.4630
20231TIP3   OH282183   1.558   6.419   1.004 -0.2834 -0.4296 -0.0938
20231TIP3    H182184   1.478   6.367   1.006  0.2597 -1.2765  0.0246
20231TIP3    H282185   1.527   6.510   1.006 -1.2089 -0.7395  1.0372
20232TIP3   OH282186   2.897   6.391   2.455  0.8775 -0.1873 -0.1832
20232TIP3    H182187   2.979   6.432   2.482  2.1580  0.6601 -4.5030
20232TIP3    H282188   2.852   6.459   2.404 -1.9962 -1.0534  0.9972
20233TIP3   OH282189   6.295   6.895   5.334 -0.6810  0.0474 -0.1442
20233TIP3    H182190   6.375   6.942   5.357  0.9636 -1.0641 -3.0565
20233TIP3    H282191   6.225   6.943   5.379  1.5067  1.4472  1.9963
20234TIP3   OH282192   0.786   6.492   5.851 -0.2877 -0.5996  0.0367
20234TIP3    H182193   0.872   6.504   5.891  0.0317  0.0521 -0.8269
20234TIP3    H282194   0.729   6.551   5.900 -0.0284 -0.2637 -0.0608
20235TIP3   OH282195   7.008   3.070   0.527  0.0296 -0.7567 -0.0641
20235TIP3    H182196   6.929   3.071   0.472 -0.7488 -1.4117  1.0059
20235TIP3    H282197   7.010   3.157   0.567  0.0229 -0.6330 -0.3317
20236TIP3   OH282198   2.672   7.172   3.778  0.0868  0.1386 -0.5718
20236TIP3    H182199   2.729   7.105   3.740 -0.2180 -1.2768  1.3066
20236TIP3    H282200   2.661   7.145   3.869 -2.0828  1.3866 -0.3938
20237TIP3   OH282201   4.174   2.938   4.535  0.6368  0.3117 -0.3569
20237TIP3    H182202   4.112   2.999   4.575 -0.5615 -0.7336 -0.5476
20237TIP3    H282203   4.122   2.891   4.469  0.6402 -3.0063  1.7785
20238TIP3   OH282204   0.191   3.012   2.679  0.0163 -0.1116 -0.0188
20238TIP3    H182205   0.258   3.060   2.631  0.9746 -0.1384  1.2263
20238TIP3    H282206   0.115   3.070   2.678  0.3853  0.3715 -0.5914
20239TIP3   OH282207   5.792   2.984   4.074 -0.0529 -0.4387  0.2024
20239TIP3    H182208   5.880   3.017   4.088 -0.3196  0.1260  0.5692
20239TIP3    H282209   5.756   2.970   4.162 -0.8125  0.6475  0.0825
20240TIP3   OH282210   6.280   4.176   2.501  0.3207  0.3513  0.7993
20240TIP3    H182211   6.190   4.190   2.529 -0.1207 -0.3260 -0.1820
20240TIP3    H282212   6.282   4.211   2.412  1.5882  2.1901  1.5073
20241TIP3   OH282213   2.755   4.122   5.225  0.4415  0.0784 -0.5764
20241TIP3    H182214   2.735   4.204   5.180 -1.5336  0.8369  1.4898
20241TIP3    H282215   2.698   4.123   5.302  1.7562 -2.3683  0.5196
20242TIP3   OH282216   1.104   6.714   3.164 -0.0232 -0.1334  0.5178
20242TIP3    H182217   1.147   6.772   3.101 -0.6430 -1.4500 -1.2166
20242TIP3    H282218   1.177   6.673   3.211  0.6536 -1.2072 -1.3305
20243TIP3   OH282219   4.945   1.116   3.458 -0.0743 -0.5670 -0.3329
20243TIP3    H182220   4.974   1.129   3.548  0.3212  1.0945 -0.6832
20243TIP3    H282221   5.012   1.060   3.419  0.0692 -0.7859  0.2192
20244TIP3   OH282222   0.857   4.305   4.972  0.6824  0.0555  0.2905
20244TIP3    H182223   0.860   4.230   4.912  1.3680  0.0574  0.3145
20244TIP3    H282224   0.817   4.270   5.051 -1.6904  0.4303 -0.6661
20245TIP3   OH282225   1.000   6.867   3.424  0.1229  0.2492  0.4630
20245TIP3    H182226   1.050   6.786   3.438 -1.3724 -0.6215  0.9335
20245TIP3    H282227   0.972   6.863   3.333 -2.2535 -1.1596  1.1831
20246TIP3   OH282228   6.385   6.587   3.185 -0.1573 -0.0440  0.0426
20246TIP3    H182229   6.478   6.594   3.165  0.0474 -0.6818  0.7454
20246TIP3    H282230   6.378   6.614   3.276 -0.3096 -2.1994  0.7312
20247TIP3   OH282231   2.714   5.239   2.480 -0.3267  0.0407  0.2876
20247TIP3    H182232   2.677   5.216   2.394 -2.2061 -1.6748  1.4837
20247TIP3    H282233   2.644   5.222   2.542  1.5870 -0.6602  2.4015
20248TIP3   OH282234   3.729   0.926   4.406  0.0291  0.3786  0.8054
20248TIP3    H182235   3.675   0.903   4.330 -0.1928 -0.0393  1.0898
20248TIP3    H282236   3.698   1.013   4.432 -0.9365 -0.1155  1.3494
20249TIP3   OH282237   4.024   3.398   0.272 -0.0670 -0.0339  0.3816
20249TIP3    H182238   4.113   3.390   0.238 -0.7053  1.1857 -1.7636
20249TIP3    H282239   3.981   3.316   0.247  0.6202 -1.0322  2.2287
20250TIP3   OH282240   5.601   1.317   3.179  0.2304  0.5534 -0.3360
20250TIP3    H182241   5.640   1.385   3.233  2.5753  0.2098 -1.4767
20250TIP3    H282242   5.674   1.261   3.154 -1.1584 -0.6831 -1.8667
20251TIP3   OH282243   3.715   7.203   4.510  0.0336  0.0525  0.4728
20251TIP3    H182244   3.700   7.109   4.520 -0.1883  0.1264  0.8814
20251TIP3    H282245   3.715   7.218   4.416 -0.0557 -0.3394  0.4093
20252TIP3   OH282246   6.768   2.727   4.797 -0.2127  0.0063  0.4518
20252TIP3    H182247   6.832   2.657   4.805 -2.4189 -2.2068  0.1750
20252TIP3    H282248   6.812   2.796   4.748  2.6319 -0.3587  2.2587
20253TIP3   OH282249   1.872   0.623   4.288  0.1666  0.0692 -0.5532
20253TIP3    H182250   1.884   0.611   4.194 -2.3089 -2.1745 -0.7008
20253TIP3    H282251   1.952   0.667   4.317  1.4300 -0.0484 -3.5156
20254TIP3   OH282252   0.320   0.349   4.760 -0.0023 -0.4277  0.4510
20254TIP3    H182253   0.335   0.265   4.804 -0.2435 -0.5674  0.2677
20254TIP3    H282254   0.373   0.346   4.681 -2.5270 -1.8073 -1.3352
20255TIP3   OH282255   1.687   6.535   4.893 -0.2144  0.6275 -0.7725
20255TIP3    H182256   1.764   6.573   4.852  0.3702 -0.4004 -0.6751
20255TIP3    H282257   1.721   6.484   4.967 -0.8290 -0.8450 -1.4547
20256TIP3   OH282258   1.868   1.993   3.811 -0.5044 -0.6840 -0.3494
20256TIP3    H182259   1.812   1.989   3.889 -1.6838 -0.4778 -1.1682
20256TIP3    H282260   1.938   2.053   3.836 -1.9971  1.0523 -0.1183
20257TIP3   OH282261   3.739   1.612   5.952 -0.0290 -0.4498  0.0616
20257TIP3    H182262   3.798   1.611   6.028  2.6417 -0.6510 -1.8788
20257TIP3    H282263   3.724   1.519   5.933  1.3983 -0.4694 -1.1117
20258TIP3   OH282264   5.065   5.723   3.829 -0.2970 -0.0097 -0.3392
20258TIP3    H182265   4.973   5.745   3.811 -0.6349  0.1535  1.3822
20258TIP3    H282266   5.114   5.797   3.794 -1.0011  0.8856  0.4938
20259TIP3   OH282267   6.178   0.159   5.515 -0.3744  0.4340  0.2549
20259TIP3    H182268   6.096   0.166   5.466 -0.1747  0.9580 -0.0208
20259TIP3    H282269   6.243   0.203   5.459  0.4705 -1.4419 -0.3309
20260TIP3   OH282270   6.241   2.823   2.282 -0.0332 -0.1128  0.0857
20260TIP3    H182271   6.239   2.912   2.247  0.4727 -0.3176 -0.4832
20260TIP3    H282272   6.148   2.798   2.288 -0.1571  0.1770 -0.4900
20261TIP3   OH282273   3.125   0.578   5.821 -0.0871 -0.1249 -0.4557
20261TIP3    H182274   3.043   0.579   5.772 -0.8278 -0.2399  0.7472
20261TIP3    H282275   3.142   0.670   5.842  0.8591  0.0612 -1.9044
20262TIP3   OH282276   7.187   0.956   9.761 -0.2570 -0.1189  0.4794
20262TIP3    H182277   7.116   0.894   9.776  0.4395 -1.3679 -1.0806
20262TIP3    H282278   7.146   1.028   9.714 -0.3341 -1.4489 -1.6395
20263TIP3   OH282279   2.036   4.114   3.256  0.0259 -0.0839  0.8955
20263TIP3    H182280   1.979   4.188   3.276  0.5606  0.4591  0.4496
20263TIP3    H282281   2.119   4.136   3.299  0.2445 -0.3348  0.6006
20264TIP3   OH282282   5.629   2.733   2.740 -0.1793  0.0576  0.7646
20264TIP3    H182283   5.644   2.754   2.832 -0.8045  0.0271  0.8753
20264TIP3    H282284   5.535   2.746   2.727 -0.2854 -0.9996  0.4047
20265TIP3   OH282285   5.939   6.203   4.774  0.1501  0.5119 -0.1974
20265TIP3    H182286   5.901   6.118   4.796  0.9564 -0.0958 -1.0546
20265TIP3    H282287   5.884   6.236   4.703  0.2126  0.4124 -0.2928
20266TIP3   OH282288   4.338   2.523  14.649 -0.5244  0.1282 -0.6066
20266TIP3    H182289   4.266   2.483  14.601  0.0633 -1.8229  0.0227
20266TIP3    H282290   4.309   2.524  14.740 -0.6749  1.5426 -0.6565
20267TIP3   OH282291   3.543   7.116   1.443  0.5174  0.1728 -0.1581
20267TIP3    H182292   3.478   7.064   1.491 -0.9575  1.6680 -0.4435
20267TIP3    H282293   3.626   7.098   1.489  0.0093 -1.9845  0.0487
20268TIP3   OH282294   0.610   0.119   4.456  1.2810 -0.5608  0.0445
20268TIP3    H182295   0.687   0.067   4.433  2.1354 -0.3601  2.1964
20268TIP3    H282296   0.633   0.160   4.539 -1.0923 -0.3421  0.6613
20269TIP3   OH282297   4.938   4.092   3.995 -0.0647 -0.3622  0.2560
20269TIP3    H182298   4.900   4.167   3.951  3.4300  1.1699 -0.5364
20269TIP3    H282299   4.921   4.018   3.936 -1.0701  0.3650 -0.3951
20270TIP3   OH282300   1.942   4.250   2.987 -0.2581  0.6656  0.7120
20270TIP3    H182301   1.916   4.158   2.986 -2.0264  1.1445  0.3230
20270TIP3    H282302   1.904   4.284   3.068  0.5217  1.0267  0.9299
20271TIP3   OH282303   0.511   6.516   5.668 -0.1564 -0.5823 -0.1346
20271TIP3    H182304   0.468   6.547   5.748 -1.1168  0.2301 -0.9422
20271TIP3    H282305   0.442   6.519   5.601  0.4548 -1.8854 -0.8570
20272TIP3   OH282306   3.672   5.306   4.883  0.4285  0.2686  0.5154
20272TIP3    H182307   3.596   5.365   4.878  1.5460  1.9647  2.1441
20272TIP3    H282308   3.644   5.237   4.942  0.2785  1.1476  1.5050
20273TIP3   OH282309   4.514   6.037   2.012  0.3536 -0.0868  0.1022
20273TIP3    H182310   4.566   6.007   2.087  1.0061  0.2638 -0.2011
20273TIP3    H282311   4.423   6.035   2.044  0.4298 -1.7814  0.2684
20274TIP3   OH282312   2.281   4.486   4.642  0.0384 -0.6259  0.5432
20274TIP3    H182313   2.223   4.412   4.661  0.0441 -0.2054  2.3998
20274TIP3    H282314   2.252   4.519   4.557 -0.2167 -2.5015 -0.1401
20275TIP3   OH282315   6.897   6.778   5.727  0.1535  0.0205 -0.5651
20275TIP3    H182316   6.902   6.717   5.801  1.2517  0.6514 -0.0909
20275TIP3    H282317   6.883   6.863   5.768  2.2787  0.6130 -0.9138
20276TIP3   OH282318   5.870   6.116   3.407 -0.1440  0.0027 -0.5176
20276TIP3    H182319   5.887   6.044   3.347  1.6014 -0.6646  0.7100
20276TIP3    H282320   5.907   6.193   3.364 -1.7777  0.1734 -1.7114
20277TIP3   OH282321   5.669   2.855   3.575  0.3768 -0.1757  0.5771
20277TIP3    H182322   5.636   2.921   3.636  0.7970 -0.9159  1.6383
20277TIP3    H282323   5.671   2.774   3.626 -0.6858 -1.1577 -0.8684
20278TIP3   OH282324   5.568   6.558   4.231  0.4210 -0.7457  0.4337
20278TIP3    H182325   5.538   6.622   4.295 -0.8461 -1.7546  0.8773
20278TIP3    H282326   5.575   6.608   4.149 -1.2744 -0.1715  0.5980
20279TIP3   OH282327   6.417   0.304   4.834 -0.3450  0.0218 -0.0482
20279TIP3    H182328   6.410   0.264   4.747 -2.7281 -0.8823  0.4686
20279TIP3    H282329   6.338   0.276   4.880  1.4724 -0.7543  2.9485
20280TIP3   OH282330   6.922   1.505   4.202  0.5518  0.1425 -0.4039
20280TIP3    H182331   6.910   1.568   4.272  0.4879 -1.2932  0.9291
20280TIP3    H282332   6.985   1.442   4.237  0.5858 -0.5629 -1.6759
20281TIP3   OH282333   4.156   4.221   5.298  0.5867  0.1733  0.3469
20281TIP3    H182334   4.225   4.237   5.363  0.3520 -0.0110  0.6440
20281TIP3    H282335   4.084   4.184   5.348  0.5953 -0.4748 -0.1034
20282TIP3   OH282336   4.800   4.967   0.576 -0.5849  0.5005 -0.0159
20282TIP3    H182337   4.764   4.934   0.658 -0.7012 -0.0053 -0.2654
20282TIP3    H282338   4.726   4.969   0.516 -0.7599  2.0003  0.2107
20283TIP3   OH282339   0.121   3.254   3.613  0.4231  0.7411 -0.1571
20283TIP3    H182340   0.155   3.233   3.526  0.9575  3.5147 -0.7223
20283TIP3    H282341   0.036   3.294   3.597  0.3291  0.8728  0.6274
20284TIP3   OH282342   2.628   3.630   1.683  0.1137 -0.0512 -0.3411
20284TIP3    H182343   2.555   3.568   1.691  0.5972 -0.5166  0.6337
20284TIP3    H282344   2.608   3.679   1.603 -0.5982 -1.0493 -0.8094
20285TIP3   OH282345   4.263   0.782   4.444 -0.2949  0.8361 -0.5063
20285TIP3    H182346   4.226   0.745   4.524 -0.9807  1.2302 -0.6307
20285TIP3    H282347   4.187   0.808   4.392  0.1357  0.5320 -1.3163
20286TIP3   OH282348   0.775   6.222   2.064  0.1980 -0.5601 -0.0383
20286TIP3    H182349   0.791   6.204   1.971 -0.4187  0.4580 -0.3540
20286TIP3    H282350   0.842   6.284   2.089 -2.5961  3.3457 -1.2445
   7.22066   7.22066  15.42604
