Generated by CHARMM-GUI FF-Converter
82350
    1SAPS     N    1   3.768   3.731  10.165
    1SAPS   HN1    2   3.758   3.661  10.240
    1SAPS   HN2    3   3.823   3.693  10.085
    1SAPS   HN3    4   3.813   3.818  10.198
    1SAPS   C12    5   3.629   3.756  10.113
    1SAPS  H12A    6   3.563   3.782  10.195
    1SAPS   C13    7   3.622   3.864  10.003
    1SAPS  O13A    8   3.730   3.907   9.956
    1SAPS  O13B    9   3.510   3.914   9.975
    1SAPS   C11   10   3.577   3.623  10.056
    1SAPS  H11A   11   3.573   3.552  10.141
    1SAPS  H11B   12   3.642   3.581   9.977
    1SAPS     P   13   3.348   3.542   9.942
    1SAPS   O13   14   3.218   3.565  10.011
    1SAPS   O14   15   3.351   3.553   9.795
    1SAPS   O12   16   3.448   3.644  10.004
    1SAPS   O11   17   3.414   3.404   9.991
    1SAPS    C1   18   3.439   3.303   9.893
    1SAPS    HA   19   3.434   3.203   9.941
    1SAPS    HB   20   3.362   3.302   9.812
    1SAPS    C2   21   3.580   3.311   9.827
    1SAPS    HS   22   3.650   3.294   9.913
    1SAPS   O21   23   3.600   3.438   9.764
    1SAPS   C21   24   3.720   3.474   9.749
    1SAPS   O22   25   3.815   3.435   9.807
    1SAPS   C22   26   3.737   3.604   9.690
    1SAPS   H2R   27   3.681   3.620   9.600
    1SAPS   H2S   28   3.758   3.677   9.771
    1SAPS    C3   29   3.592   3.201   9.718
    1SAPS    HX   30   3.559   3.109   9.765
    1SAPS    HY   31   3.695   3.176   9.683
    1SAPS   O31   32   3.502   3.233   9.611
    1SAPS   C31   33   3.553   3.219   9.491
    1SAPS   O32   34   3.666   3.194   9.470
    1SAPS   C32   35   3.455   3.219   9.380
    1SAPS   H2X   36   3.414   3.318   9.398
    1SAPS   H2Y   37   3.389   3.133   9.402
    1SAPS   C23   38   3.870   3.624   9.642
    1SAPS   H3R   39   3.878   3.532   9.575
    1SAPS   H3S   40   3.939   3.607   9.732
    1SAPS   C24   41   3.902   3.759   9.558
    1SAPS   H4R   42   4.019   3.765   9.543
    1SAPS   H4S   43   3.968   3.830   9.620
    1SAPS   C25   44   3.798   3.777   9.421
    1SAPS   H5R   45   3.722   3.837   9.462
    1SAPS   C26   46   3.774   3.695   9.287
    1SAPS   H6R   47   3.735   3.737   9.192
    1SAPS   C27   48   3.845   3.550   9.221
    1SAPS   H7R   49   3.932   3.460   9.241
    1SAPS   H7S   50   3.940   3.547   9.168
    1SAPS   C28   51   3.762   3.455   9.225
    1SAPS   H8R   52   3.767   3.396   9.315
    1SAPS   C29   53   3.780   3.408   9.109
    1SAPS   H9R   54   3.713   3.335   9.098
    1SAPS  C210   55   3.872   3.446   9.003
    1SAPS  H10R   56   3.963   3.366   9.012
    1SAPS  H10S   57   3.979   3.468   8.999
    1SAPS  C211   58   3.751   3.499   8.915
    1SAPS  H11R   59   3.667   3.438   8.883
    1SAPS  C212   60   3.750   3.595   8.825
    1SAPS  H12R   61   3.691   3.601   8.736
    1SAPS  C213   62   3.859   3.669   8.789
    1SAPS  H13R   63   3.922   3.628   8.864
    1SAPS  H13S   64   3.828   3.763   8.837
    1SAPS  C214   65   3.938   3.654   8.653
    1SAPS  H14R   66   4.030   3.593   8.645
    1SAPS  C215   67   3.970   3.738   8.561
    1SAPS  H15R   68   4.072   3.720   8.518
    1SAPS  C216   69   3.915   3.870   8.583
    1SAPS  H16R   70   3.981   3.958   8.570
    1SAPS  H16S   71   3.856   3.880   8.676
    1SAPS  C217   72   3.820   3.841   8.468
    1SAPS  H17R   73   3.732   3.904   8.488
    1SAPS  H17S   74   3.773   3.738   8.457
    1SAPS  C218   75   3.880   3.873   8.332
    1SAPS  H18R   76   3.980   3.826   8.317
    1SAPS  H18S   77   3.890   3.984   8.327
    1SAPS  C219   78   3.784   3.827   8.225
    1SAPS  H19R   79   3.770   3.718   8.223
    1SAPS  H19S   80   3.820   3.853   8.131
    1SAPS  C220   81   3.655   3.903   8.213
    1SAPS  H20R   82   3.602   3.887   8.307
    1SAPS  H20S   83   3.594   3.863   8.128
    1SAPS  H20T   84   3.676   4.012   8.199
    1SAPS   C33   85   3.506   3.212   9.236
    1SAPS   H3X   86   3.564   3.119   9.230
    1SAPS   H3Y   87   3.564   3.304   9.216
    1SAPS   C34   88   3.412   3.201   9.117
    1SAPS   H4X   89   3.354   3.104   9.115
    1SAPS   H4Y   90   3.463   3.224   9.025
    1SAPS   C35   91   3.329   3.321   9.093
    1SAPS   H5X   92   3.290   3.259   9.176
    1SAPS   H5Y   93   3.244   3.317   9.024
    1SAPS   C36   94   3.385   3.467   9.117
    1SAPS   H6X   95   3.462   3.463   9.042
    1SAPS   H6Y   96   3.421   3.476   9.224
    1SAPS   C37   97   3.294   3.599   9.109
    1SAPS   H7X   98   3.216   3.619   9.188
    1SAPS   H7Y   99   3.248   3.609   9.013
    1SAPS   C38  100   3.352   3.732   9.083
    1SAPS   H8X  101   3.394   3.757   9.180
    1SAPS   H8Y  102   3.268   3.804   9.062
    1SAPS   C39  103   3.446   3.707   8.966
    1SAPS   H9X  104   3.391   3.658   8.882
    1SAPS   H9Y  105   3.523   3.635   8.998
    1SAPS  C310  106   3.517   3.829   8.913
    1SAPS  H10X  107   3.587   3.796   8.834
    1SAPS  H10Y  108   3.575   3.873   8.997
    1SAPS  C311  109   3.420   3.933   8.855
    1SAPS  H11X  110   3.479   4.017   8.813
    1SAPS  H11Y  111   3.365   3.964   8.945
    1SAPS  C312  112   3.313   3.884   8.755
    1SAPS  H12X  113   3.241   3.967   8.732
    1SAPS  H12Y  114   3.249   3.811   8.806
    1SAPS  C313  115   3.373   3.831   8.623
    1SAPS  H13X  116   3.472   3.783   8.642
    1SAPS  H13Y  117   3.394   3.923   8.565
    1SAPS  C314  118   3.283   3.737   8.539
    1SAPS  H14X  119   3.186   3.785   8.515
    1SAPS  H14Y  120   3.257   3.644   8.594
    1SAPS  C315  121   3.346   3.695   8.406
    1SAPS  H15X  122   3.452   3.728   8.411
    1SAPS  H15Y  123   3.293   3.741   8.318
    1SAPS  C316  124   3.337   3.545   8.386
    1SAPS  H16X  125   3.230   3.520   8.379
    1SAPS  H16Y  126   3.380   3.490   8.472
    1SAPS  C317  127   3.396   3.501   8.253
    1SAPS  H17X  128   3.347   3.555   8.170
    1SAPS  H17Y  129   3.369   3.396   8.245
    1SAPS  C318  130   3.547   3.517   8.248
    1SAPS  H18X  131   3.593   3.442   8.316
    1SAPS  H18Y  132   3.573   3.619   8.281
    1SAPS  H18Z  133   3.590   3.496   8.149
    2SAPS     N  134   2.255   3.593  10.085
    2SAPS   HN1  135   2.287   3.501  10.047
    2SAPS   HN2  136   2.295   3.675  10.036
    2SAPS   HN3  137   2.278   3.597  10.185
    2SAPS   C12  138   2.108   3.600  10.077
    2SAPS  H12A  139   2.076   3.542  10.159
    2SAPS   C13  140   2.046   3.740  10.098
    2SAPS  O13A  141   2.126   3.831  10.132
    2SAPS  O13B  142   1.923   3.746  10.122
    2SAPS   C11  143   2.061   3.531   9.949
    2SAPS  H11A  144   2.106   3.429   9.947
    2SAPS  H11B  145   2.099   3.583   9.859
    2SAPS     P  146   1.842   3.396   9.910
    2SAPS   O13  147   1.931   3.280   9.929
    2SAPS   O14  148   1.718   3.394   9.989
    2SAPS   O12  149   1.919   3.527   9.944
    2SAPS   O11  150   1.809   3.408   9.754
    2SAPS    C1  151   1.910   3.386   9.653
    2SAPS    HA  152   2.013   3.385   9.696
    2SAPS    HB  153   1.896   3.285   9.609
    2SAPS    C2  154   1.908   3.495   9.540
    2SAPS    HS  155   1.932   3.593   9.587
    2SAPS   O21  156   1.780   3.496   9.474
    2SAPS   C21  157   1.695   3.579   9.531
    2SAPS   O22  158   1.712   3.646   9.631
    2SAPS   C22  159   1.567   3.588   9.450
    2SAPS   H2R  160   1.513   3.493   9.454
    2SAPS   H2S  161   1.503   3.668   9.496
    2SAPS    C3  162   2.015   3.477   9.430
    2SAPS    HX  163   2.117   3.502   9.468
    2SAPS    HY  164   1.990   3.554   9.352
    2SAPS   O31  165   2.004   3.343   9.377
    2SAPS   C31  166   2.077   3.318   9.270
    2SAPS   O32  167   2.154   3.397   9.219
    2SAPS   C32  168   2.052   3.175   9.219
    2SAPS   H2X  169   1.947   3.151   9.241
    2SAPS   H2Y  170   2.111   3.103   9.280
    2SAPS   C23  171   1.597   3.617   9.305
    2SAPS   H3R  172   1.501   3.613   9.249
    2SAPS   H3S  173   1.676   3.558   9.255
    2SAPS   C24  174   1.671   3.736   9.316
    2SAPS   H4R  175   1.757   3.748   9.353
    2SAPS   H4S  176   1.566   3.815   9.352
    2SAPS   C25  177   1.749   3.785   9.192
    2SAPS   H5R  178   1.664   3.824   9.218
    2SAPS   C26  179   1.889   3.833   9.145
    2SAPS   H6R  180   1.865   3.886   9.047
    2SAPS   C27  181   2.026   3.836   9.220
    2SAPS   H7R  182   2.091   3.751   9.181
    2SAPS   H7S  183   2.060   3.851   9.308
    2SAPS   C28  184   2.053   3.953   9.141
    2SAPS   H8R  185   1.983   4.043   9.165
    2SAPS   C29  186   2.135   3.934   9.037
    2SAPS   H9R  187   2.199   4.017   9.039
    2SAPS  C210  188   2.201   3.804   8.990
    2SAPS  H10R  189   2.148   3.717   9.023
    2SAPS  H10S  190   2.263   3.713   9.022
    2SAPS  C211  191   2.282   3.826   8.876
    2SAPS  H11R  192   2.366   3.899   8.880
    2SAPS  C212  193   2.240   3.738   8.788
    2SAPS  H12R  194   2.284   3.745   8.691
    2SAPS  C213  195   2.123   3.639   8.817
    2SAPS  H13R  196   2.045   3.652   8.899
    2SAPS  H13S  197   2.169   3.546   8.857
    2SAPS  C214  198   2.036   3.627   8.700
    2SAPS  H14R  199   1.956   3.701   8.699
    2SAPS  C215  200   2.056   3.546   8.598
    2SAPS  H15R  201   1.989   3.548   8.512
    2SAPS  C216  202   2.173   3.455   8.589
    2SAPS  H16R  203   2.247   3.469   8.672
    2SAPS  H16S  204   2.230   3.484   8.503
    2SAPS  C217  205   2.133   3.308   8.583
    2SAPS  H17R  206   2.085   3.284   8.680
    2SAPS  H17S  207   2.230   3.254   8.575
    2SAPS  C218  208   2.035   3.269   8.470
    2SAPS  H18R  209   1.944   3.332   8.478
    2SAPS  H18S  210   2.004   3.162   8.481
    2SAPS  C219  211   2.095   3.286   8.331
    2SAPS  H19R  212   2.179   3.213   8.323
    2SAPS  H19S  213   2.137   3.389   8.319
    2SAPS  C220  214   1.996   3.263   8.217
    2SAPS  H20R  215   1.922   3.184   8.239
    2SAPS  H20S  216   2.052   3.228   8.127
    2SAPS  H20T  217   1.943   3.358   8.195
    2SAPS   C33  218   2.091   3.157   9.069
    2SAPS   H3X  219   2.104   3.049   9.047
    2SAPS   H3Y  220   2.192   3.201   9.058
    2SAPS   C34  221   2.006   3.217   8.953
    2SAPS   H4X  222   2.012   3.152   8.863
    2SAPS   H4Y  223   2.057   3.312   8.927
    2SAPS   C35  224   1.859   3.256   8.977
    2SAPS   H5X  225   1.853   3.314   9.071
    2SAPS   H5Y  226   1.785   3.178   8.993
    2SAPS   C36  227   1.787   3.314   8.857
    2SAPS   H6X  228   1.695   3.254   8.834
    2SAPS   H6Y  229   1.856   3.303   8.771
    2SAPS   C37  230   1.744   3.456   8.890
    2SAPS   H7X  231   1.839   3.507   8.918
    2SAPS   H7Y  232   1.676   3.456   8.978
    2SAPS   C38  233   1.676   3.522   8.770
    2SAPS   H8X  234   1.581   3.470   8.740
    2SAPS   H8Y  235   1.748   3.529   8.689
    2SAPS   C39  236   1.654   3.668   8.783
    2SAPS   H9X  237   1.718   3.727   8.845
    2SAPS   H9Y  238   1.570   3.650   8.856
    2SAPS  C310  239   1.638   3.757   8.649
    2SAPS  H10X  240   1.610   3.867   8.670
    2SAPS  H10Y  241   1.558   3.722   8.579
    2SAPS  C311  242   1.756   3.794   8.582
    2SAPS  H11X  243   1.790   3.694   8.552
    2SAPS  H11Y  244   1.813   3.848   8.660
    2SAPS  C312  245   1.723   3.883   8.467
    2SAPS  H12X  246   1.704   3.981   8.513
    2SAPS  H12Y  247   1.631   3.851   8.413
    2SAPS  C313  248   1.832   3.868   8.369
    2SAPS  H13X  249   1.837   3.765   8.330
    2SAPS  H13Y  250   1.928   3.892   8.422
    2SAPS  C314  251   1.805   3.939   8.243
    2SAPS  H14X  252   1.734   4.020   8.276
    2SAPS  H14Y  253   1.736   3.902   8.168
    2SAPS  C315  254   1.945   3.970   8.184
    2SAPS  H15X  255   2.015   4.013   8.261
    2SAPS  H15Y  256   1.934   4.044   8.104
    2SAPS  C316  257   2.025   3.856   8.143
    2SAPS  H16X  258   2.055   3.800   8.234
    2SAPS  H16Y  259   2.117   3.902   8.102
    2SAPS  C317  260   1.947   3.769   8.047
    2SAPS  H17X  261   1.862   3.716   8.096
    2SAPS  H17Y  262   2.023   3.695   8.018
    2SAPS  C318  263   1.888   3.841   7.925
    2SAPS  H18X  264   1.849   3.766   7.852
    2SAPS  H18Y  265   1.966   3.899   7.873
    2SAPS  H18Z  266   1.806   3.911   7.952
    3SAPS     N  267   1.670   4.972  10.188
    3SAPS   HN1  268   1.631   4.897  10.127
    3SAPS   HN2  269   1.728   4.928  10.261
    3SAPS   HN3  270   1.590   5.020  10.233
    3SAPS   C12  271   1.765   5.057  10.103
    3SAPS  H12A  272   1.709   5.092  10.019
    3SAPS   C13  273   1.829   5.182  10.170
    3SAPS  O13A  274   1.814   5.201  10.292
    3SAPS  O13B  275   1.903   5.253  10.098
    3SAPS   C11  276   1.877   4.963  10.048
    3SAPS  H11A  277   1.938   4.920  10.130
    3SAPS  H11B  278   1.952   5.023   9.991
    3SAPS     P  279   1.846   4.839   9.818
    3SAPS   O13  280   1.976   4.895   9.781
    3SAPS   O14  281   1.814   4.701   9.781
    3SAPS   O12  282   1.818   4.855   9.974
    3SAPS   O11  283   1.741   4.928   9.759
    3SAPS    C1  284   1.604   4.911   9.798
    3SAPS    HA  285   1.558   4.821   9.750
    3SAPS    HB  286   1.577   4.916   9.902
    3SAPS    C2  287   1.531   5.026   9.751
    3SAPS    HS  288   1.426   4.997   9.771
    3SAPS   O21  289   1.580   5.023   9.621
    3SAPS   C21  290   1.588   4.918   9.535
    3SAPS   O22  291   1.511   4.823   9.534
    3SAPS   C22  292   1.657   4.972   9.396
    3SAPS   H2R  293   1.569   4.907   9.338
    3SAPS   H2S  294   1.658   5.091   9.379
    3SAPS    C3  295   1.543   5.169   9.806
    3SAPS    HX  296   1.490   5.159   9.901
    3SAPS    HY  297   1.479   5.244   9.746
    3SAPS   O31  298   1.678   5.205   9.843
    3SAPS   C31  299   1.723   5.273   9.746
    3SAPS   O32  300   1.657   5.292   9.646
    3SAPS   C32  301   1.861   5.317   9.773
    3SAPS   H2X  302   1.913   5.236   9.828
    3SAPS   H2Y  303   1.878   5.419   9.820
    3SAPS   C23  304   1.772   4.967   9.302
    3SAPS   H3R  305   1.823   5.033   9.369
    3SAPS   H3S  306   1.775   5.018   9.203
    3SAPS   C24  307   1.741   4.829   9.270
    3SAPS   H4R  308   1.666   4.815   9.189
    3SAPS   H4S  309   1.704   4.779   9.362
    3SAPS   C25  310   1.863   4.772   9.238
    3SAPS   H5R  311   1.905   4.731   9.329
    3SAPS   C26  312   1.918   4.763   9.120
    3SAPS   H6R  313   2.010   4.711   9.131
    3SAPS   C27  314   1.871   4.810   8.984
    3SAPS   H7R  315   1.831   4.910   9.002
    3SAPS   H7S  316   1.787   4.747   8.948
    3SAPS   C28  317   1.972   4.823   8.872
    3SAPS   H8R  318   2.042   4.906   8.886
    3SAPS   C29  319   1.973   4.760   8.752
    3SAPS   H9R  320   2.055   4.771   8.680
    3SAPS  C210  321   1.873   4.661   8.705
    3SAPS  H10R  322   1.816   4.686   8.616
    3SAPS  H10S  323   1.798   4.638   8.781
    3SAPS  C211  324   1.942   4.545   8.657
    3SAPS  H11R  325   1.945   4.452   8.707
    3SAPS  C212  326   1.956   4.501   8.541
    3SAPS  H12R  327   1.992   4.394   8.542
    3SAPS  C213  328   1.907   4.559   8.421
    3SAPS  H13R  329   1.895   4.662   8.420
    3SAPS  H13S  330   1.835   4.500   8.362
    3SAPS  C214  331   2.038   4.570   8.375
    3SAPS  H14R  332   2.131   4.543   8.434
    3SAPS  C215  333   2.059   4.601   8.257
    3SAPS  H15R  334   2.154   4.566   8.261
    3SAPS  C216  335   1.991   4.635   8.132
    3SAPS  H16R  336   2.054   4.660   8.042
    3SAPS  H16S  337   1.955   4.728   8.167
    3SAPS  C217  338   1.886   4.538   8.087
    3SAPS  H17R  339   1.895   4.592   7.992
    3SAPS  H17S  340   1.799   4.554   8.154
    3SAPS  C218  341   1.854   4.426   7.977
    3SAPS  H18R  342   1.900   4.353   8.013
    3SAPS  H18S  343   1.924   4.388   7.902
    3SAPS  C219  344   1.718   4.351   7.986
    3SAPS  H19R  345   1.664   4.355   8.078
    3SAPS  H19S  346   1.734   4.242   7.967
    3SAPS  C220  347   1.620   4.407   7.906
    3SAPS  H20R  348   1.568   4.492   7.946
    3SAPS  H20S  349   1.525   4.363   7.886
    3SAPS  H20T  350   1.691   4.403   7.818
    3SAPS   C33  351   1.933   5.319   9.642
    3SAPS   H3X  352   2.014   5.379   9.694
    3SAPS   H3Y  353   1.911   5.403   9.578
    3SAPS   C34  354   1.945   5.175   9.556
    3SAPS   H4X  355   1.849   5.147   9.525
    3SAPS   H4Y  356   1.993   5.084   9.610
    3SAPS   C35  357   2.011   5.151   9.406
    3SAPS   H5X  358   2.069   5.055   9.412
    3SAPS   H5Y  359   2.091   5.220   9.365
    3SAPS   C36  360   1.996   5.246   9.292
    3SAPS   H6X  361   1.984   5.353   9.316
    3SAPS   H6Y  362   1.914   5.185   9.302
    3SAPS   C37  363   2.070   5.230   9.164
    3SAPS   H7X  364   2.093   5.131   9.124
    3SAPS   H7Y  365   2.158   5.294   9.147
    3SAPS   C38  366   2.040   5.297   9.059
    3SAPS   H8X  367   2.115   5.326   8.980
    3SAPS   H8Y  368   2.013   5.388   9.122
    3SAPS   C39  369   1.962   5.207   8.984
    3SAPS   H9X  370   1.908   5.171   9.073
    3SAPS   H9Y  371   1.973   5.099   8.979
    3SAPS  C310  372   1.899   5.274   8.862
    3SAPS  H10X  373   1.959   5.340   8.806
    3SAPS  H10Y  374   1.824   5.350   8.898
    3SAPS  C311  375   1.832   5.157   8.785
    3SAPS  H11X  376   1.754   5.094   8.836
    3SAPS  H11Y  377   1.900   5.075   8.782
    3SAPS  C312  378   1.781   5.195   8.651
    3SAPS  H12X  379   1.851   5.259   8.601
    3SAPS  H12Y  380   1.731   5.292   8.666
    3SAPS  C313  381   1.689   5.080   8.579
    3SAPS  H13X  382   1.608   5.085   8.502
    3SAPS  H13Y  383   1.601   5.036   8.629
    3SAPS  C314  384   1.777   4.979   8.546
    3SAPS  H14X  385   1.797   4.943   8.648
    3SAPS  H14Y  386   1.865   5.025   8.498
    3SAPS  C315  387   1.704   4.885   8.461
    3SAPS  H15X  388   1.601   4.871   8.487
    3SAPS  H15Y  389   1.754   4.791   8.458
    3SAPS  C316  390   1.693   4.929   8.324
    3SAPS  H16X  391   1.735   5.030   8.312
    3SAPS  H16Y  392   1.590   4.942   8.312
    3SAPS  C317  393   1.693   4.815   8.224
    3SAPS  H17X  394   1.787   4.767   8.242
    3SAPS  H17Y  395   1.692   4.839   8.117
    3SAPS  C318  396   1.583   4.720   8.211
    3SAPS  H18X  397   1.624   4.640   8.153
    3SAPS  H18Y  398   1.498   4.770   8.156
    3SAPS  H18Z  399   1.559   4.678   8.308
    4SAPS     N  400   4.072   6.792   9.875
    4SAPS   HN1  401   4.095   6.877   9.819
    4SAPS   HN2  402   4.158   6.765   9.927
    4SAPS   HN3  403   4.036   6.713   9.818
    4SAPS   C12  404   3.977   6.833   9.981
    4SAPS  H12A  405   4.036   6.892  10.046
    4SAPS   C13  406   3.858   6.922   9.938
    4SAPS  O13A  407   3.832   6.935   9.816
    4SAPS  O13B  408   3.787   6.974  10.029
    4SAPS   C11  409   3.924   6.706  10.053
    4SAPS  H11A  410   3.854   6.651   9.985
    4SAPS  H11B  411   3.863   6.736  10.140
    4SAPS     P  412   4.024   6.469  10.076
    4SAPS   O13  413   4.121   6.404  10.163
    4SAPS   O14  414   3.885   6.420  10.057
    4SAPS   O12  415   4.030   6.624  10.105
    4SAPS   O11  416   4.086   6.495   9.935
    4SAPS    C1  417   4.090   6.379   9.857
    4SAPS    HA  418   4.183   6.327   9.891
    4SAPS    HB  419   4.007   6.316   9.872
    4SAPS    C2  420   4.094   6.401   9.709
    4SAPS    HS  421   4.128   6.328   9.637
    4SAPS   O21  422   4.200   6.482   9.732
    4SAPS   C21  423   4.330   6.446   9.726
    4SAPS   O22  424   4.370   6.336   9.733
    4SAPS   C22  425   4.432   6.564   9.683
    4SAPS   H2R  426   4.411   6.624   9.777
    4SAPS   H2S  427   4.534   6.543   9.653
    4SAPS    C3  428   3.964   6.455   9.652
    4SAPS    HX  429   3.918   6.518   9.729
    4SAPS    HY  430   3.886   6.381   9.634
    4SAPS   O31  431   3.981   6.511   9.524
    4SAPS   C31  432   3.954   6.639   9.527
    4SAPS   O32  433   3.943   6.709   9.625
    4SAPS   C32  434   3.951   6.680   9.386
    4SAPS   H2X  435   3.851   6.674   9.393
    4SAPS   H2Y  436   4.009   6.622   9.314
    4SAPS   C23  437   4.449   6.662   9.554
    4SAPS   H3R  438   4.518   6.733   9.540
    4SAPS   H3S  439   4.367   6.693   9.624
    4SAPS   C24  440   4.424   6.702   9.387
    4SAPS   H4R  441   4.346   6.648   9.342
    4SAPS   H4S  442   4.505   6.689   9.342
    4SAPS   C25  443   4.342   6.759   9.279
    4SAPS   H5R  444   4.378   6.846   9.324
    4SAPS   C26  445   4.274   6.742   9.164
    4SAPS   H6R  446   4.281   6.831   9.108
    4SAPS   C27  447   4.258   6.617   9.090
    4SAPS   H7R  448   4.245   6.535   9.158
    4SAPS   H7S  449   4.348   6.601   9.033
    4SAPS   C28  450   4.141   6.625   9.004
    4SAPS   H8R  451   4.048   6.642   9.058
    4SAPS   C29  452   4.148   6.607   8.872
    4SAPS   H9R  453   4.057   6.617   8.814
    4SAPS  C210  454   4.273   6.576   8.794
    4SAPS  H10R  455   4.249   6.517   8.705
    4SAPS  H10S  456   4.336   6.509   8.856
    4SAPS  C211  457   4.362   6.691   8.760
    4SAPS  H11R  458   4.383   6.750   8.848
    4SAPS  C212  459   4.415   6.728   8.641
    4SAPS  H12R  460   4.498   6.803   8.636
    4SAPS  C213  461   4.386   6.652   8.518
    4SAPS  H13R  462   4.404   6.709   8.425
    4SAPS  H13S  463   4.278   6.635   8.526
    4SAPS  C214  464   4.444   6.517   8.508
    4SAPS  H14R  465   4.422   6.447   8.592
    4SAPS  C215  466   4.502   6.469   8.401
    4SAPS  H15R  467   4.523   6.370   8.421
    4SAPS  C216  468   4.534   6.519   8.262
    4SAPS  H16R  469   4.641   6.546   8.256
    4SAPS  H16S  470   4.477   6.611   8.250
    4SAPS  C217  471   4.504   6.430   8.137
    4SAPS  H17R  472   4.401   6.389   8.144
    4SAPS  H17S  473   4.580   6.347   8.136
    4SAPS  C218  474   4.507   6.503   8.004
    4SAPS  H18R  475   4.583   6.466   7.934
    4SAPS  H18S  476   4.538   6.605   8.030
    4SAPS  C219  477   4.370   6.510   7.934
    4SAPS  H19R  478   4.303   6.558   8.005
    4SAPS  H19S  479   4.327   6.411   7.909
    4SAPS  C220  480   4.361   6.595   7.811
    4SAPS  H20R  481   4.272   6.597   7.751
    4SAPS  H20S  482   4.396   6.539   7.727
    4SAPS  H20T  483   4.420   6.689   7.817
    4SAPS   C33  484   3.927   6.815   9.342
    4SAPS   H3X  485   4.031   6.813   9.361
    4SAPS   H3Y  486   3.857   6.866   9.406
    4SAPS   C34  487   3.920   6.885   9.215
    4SAPS   H4X  488   3.944   6.810   9.143
    4SAPS   H4Y  489   3.958   6.992   9.210
    4SAPS   C35  490   3.802   6.949   9.174
    4SAPS   H5X  491   3.751   7.014   9.238
    4SAPS   H5Y  492   3.764   6.861   9.185
    4SAPS   C36  493   3.768   6.952   9.033
    4SAPS   H6X  494   3.813   7.037   8.991
    4SAPS   H6Y  495   3.671   7.003   9.048
    4SAPS   C37  496   3.785   6.830   8.933
    4SAPS   H7X  497   3.741   6.742   8.987
    4SAPS   H7Y  498   3.867   6.757   8.925
    4SAPS   C38  499   3.744   6.889   8.782
    4SAPS   H8X  500   3.793   6.981   8.755
    4SAPS   H8Y  501   3.637   6.929   8.779
    4SAPS   C39  502   3.743   6.790   8.655
    4SAPS   H9X  503   3.698   6.838   8.568
    4SAPS   H9Y  504   3.666   6.711   8.643
    4SAPS  C310  505   3.853   6.687   8.651
    4SAPS  H10X  506   3.834   6.610   8.572
    4SAPS  H10Y  507   3.851   6.629   8.747
    4SAPS  C311  508   3.978   6.765   8.622
    4SAPS  H11X  509   4.057   6.692   8.603
    4SAPS  H11Y  510   4.008   6.824   8.711
    4SAPS  C312  511   3.968   6.860   8.500
    4SAPS  H12X  512   4.070   6.904   8.491
    4SAPS  H12Y  513   3.896   6.943   8.516
    4SAPS  C313  514   3.938   6.795   8.364
    4SAPS  H13X  515   3.951   6.875   8.287
    4SAPS  H13Y  516   3.835   6.757   8.356
    4SAPS  C314  517   4.029   6.677   8.335
    4SAPS  H14X  518   4.030   6.595   8.411
    4SAPS  H14Y  519   4.130   6.718   8.327
    4SAPS  C315  520   3.999   6.608   8.207
    4SAPS  H15X  521   4.091   6.551   8.190
    4SAPS  H15Y  522   3.989   6.669   8.116
    4SAPS  C316  523   3.876   6.521   8.213
    4SAPS  H16X  524   3.846   6.487   8.110
    4SAPS  H16Y  525   3.797   6.582   8.200
    4SAPS  C317  526   3.862   6.411   8.317
    4SAPS  H17X  527   3.789   6.337   8.289
    4SAPS  H17Y  528   3.895   6.408   8.421
    4SAPS  C318  529   3.930   6.308   8.277
    4SAPS  H18X  530   4.035   6.350   8.277
    4SAPS  H18Y  531   3.894   6.263   8.185
    4SAPS  H18Z  532   3.918   6.209   8.313
    5SAPS     N  533   6.863   4.617  10.178
    5SAPS   HN1  534   6.881   4.539  10.113
    5SAPS   HN2  535   6.918   4.603  10.266
    5SAPS   HN3  536   6.761   4.627  10.193
    5SAPS   C12  537   6.916   4.740  10.114
    5SAPS  H12A  538   6.896   4.818  10.186
    5SAPS   C13  539   7.070   4.731  10.090
    5SAPS  O13A  540   7.136   4.633  10.135
    5SAPS  O13B  541   7.121   4.842  10.062
    5SAPS   C11  542   6.839   4.770   9.981
    5SAPS  H11A  543   6.799   4.674   9.943
    5SAPS  H11B  544   6.906   4.811   9.902
    5SAPS     P  545   6.631   4.907   9.888
    5SAPS   O13  546   6.596   4.787   9.812
    5SAPS   O14  547   6.526   4.986   9.955
    5SAPS   O12  548   6.734   4.863  10.003
    5SAPS   O11  549   6.711   5.004   9.791
    5SAPS    C1  550   6.764   5.128   9.833
    5SAPS    HA  551   6.681   5.203   9.831
    5SAPS    HB  552   6.807   5.122   9.935
    5SAPS    C2  553   6.880   5.175   9.740
    5SAPS    HS  554   6.909   5.276   9.778
    5SAPS   O21  555   6.831   5.179   9.605
    5SAPS   C21  556   6.886   5.272   9.530
    5SAPS   O22  557   6.974   5.346   9.567
    5SAPS   C22  558   6.827   5.272   9.393
    5SAPS   H2R  559   6.856   5.181   9.338
    5SAPS   H2S  560   6.721   5.273   9.411
    5SAPS    C3  561   7.008   5.088   9.747
    5SAPS    HX  562   7.046   5.088   9.852
    5SAPS    HY  563   7.087   5.137   9.684
    5SAPS   O31  564   6.980   4.955   9.698
    5SAPS   C31  565   7.087   4.876   9.691
    5SAPS   O32  566   7.199   4.908   9.727
    5SAPS   C32  567   7.054   4.751   9.609
    5SAPS   H2X  568   6.950   4.751   9.571
    5SAPS   H2Y  569   7.063   4.659   9.671
    5SAPS   C23  570   6.840   5.396   9.311
    5SAPS   H3R  571   6.847   5.492   9.370
    5SAPS   H3S  572   6.773   5.406   9.224
    5SAPS   C24  573   6.958   5.390   9.234
    5SAPS   H4R  574   7.017   5.421   9.324
    5SAPS   H4S  575   6.950   5.487   9.191
    5SAPS   C25  576   6.991   5.268   9.143
    5SAPS   H5R  577   7.061   5.194   9.181
    5SAPS   C26  578   6.985   5.248   9.013
    5SAPS   H6R  579   7.062   5.182   8.968
    5SAPS   C27  580   6.945   5.340   8.914
    5SAPS   H7R  581   7.006   5.301   8.829
    5SAPS   H7S  582   6.973   5.439   8.942
    5SAPS   C28  583   6.815   5.388   8.895
    5SAPS   H8R  584   6.775   5.445   8.978
    5SAPS   C29  585   6.751   5.360   8.789
    5SAPS   H9R  586   6.645   5.372   8.802
    5SAPS  C210  587   6.804   5.275   8.677
    5SAPS  H10R  588   6.768   5.175   8.676
    5SAPS  H10S  589   6.907   5.297   8.638
    5SAPS  C211  590   6.715   5.323   8.582
    5SAPS  H11R  591   6.760   5.413   8.571
    5SAPS  C212  592   6.624   5.276   8.500
    5SAPS  H12R  593   6.565   5.326   8.428
    5SAPS  C213  594   6.573   5.152   8.469
    5SAPS  H13R  595   6.647   5.088   8.500
    5SAPS  H13S  596   6.548   5.146   8.361
    5SAPS  C214  597   6.478   5.130   8.570
    5SAPS  H14R  598   6.471   5.210   8.646
    5SAPS  C215  599   6.390   5.040   8.550
    5SAPS  H15R  600   6.288   5.070   8.588
    5SAPS  C216  601   6.393   4.963   8.417
    5SAPS  H16R  602   6.334   4.904   8.460
    5SAPS  H16S  603   6.472   4.896   8.433
    5SAPS  C217  604   6.281   4.937   8.299
    5SAPS  H17R  605   6.296   5.026   8.253
    5SAPS  H17S  606   6.216   4.964   8.344
    5SAPS  C218  607   6.220   4.809   8.202
    5SAPS  H18R  608   6.170   4.903   8.161
    5SAPS  H18S  609   6.125   4.818   8.160
    5SAPS  C219  610   6.335   4.651   8.216
    5SAPS  H19R  611   6.395   4.663   8.308
    5SAPS  H19S  612   6.442   4.670   8.191
    5SAPS  C220  613   6.397   4.550   8.115
    5SAPS  H20R  614   6.307   4.497   8.124
    5SAPS  H20S  615   6.468   4.583   8.035
    5SAPS  H20T  616   6.345   4.601   8.038
    5SAPS   C33  617   7.148   4.745   9.487
    5SAPS   H3X  618   7.115   4.668   9.417
    5SAPS   H3Y  619   7.248   4.712   9.523
    5SAPS   C34  620   7.170   4.876   9.409
    5SAPS   H4X  621   7.254   4.854   9.340
    5SAPS   H4Y  622   7.202   4.957   9.479
    5SAPS   C35  623   7.054   4.926   9.321
    5SAPS   H5X  624   7.079   5.031   9.294
    5SAPS   H5Y  625   6.958   4.928   9.377
    5SAPS   C36  626   7.034   4.851   9.188
    5SAPS   H6X  627   6.959   4.771   9.201
    5SAPS   H6Y  628   7.130   4.804   9.156
    5SAPS   C37  629   6.981   4.941   9.076
    5SAPS   H7X  630   7.068   4.991   9.030
    5SAPS   H7Y  631   6.914   5.019   9.118
    5SAPS   C38  632   6.903   4.868   8.966
    5SAPS   H8X  633   6.801   4.844   9.004
    5SAPS   H8Y  634   6.961   4.775   8.947
    5SAPS   C39  635   6.885   4.945   8.835
    5SAPS   H9X  636   6.831   5.041   8.855
    5SAPS   H9Y  637   6.823   4.886   8.764
    5SAPS  C310  638   7.018   4.966   8.760
    5SAPS  H10X  639   7.095   5.002   8.831
    5SAPS  H10Y  640   7.003   5.046   8.684
    5SAPS  C311  641   7.076   4.842   8.690
    5SAPS  H11X  642   7.098   4.762   8.763
    5SAPS  H11Y  643   7.171   4.870   8.638
    5SAPS  C312  644   6.985   4.780   8.585
    5SAPS  H12X  645   6.896   4.731   8.631
    5SAPS  H12Y  646   7.045   4.701   8.534
    5SAPS  C313  647   6.950   4.889   8.486
    5SAPS  H13X  648   7.043   4.933   8.449
    5SAPS  H13Y  649   6.887   4.966   8.538
    5SAPS  C314  650   6.880   4.845   8.363
    5SAPS  H14X  651   6.783   4.840   8.418
    5SAPS  H14Y  652   6.910   4.743   8.324
    5SAPS  C315  653   6.874   4.949   8.248
    5SAPS  H15X  654   6.781   4.927   8.190
    5SAPS  H15Y  655   6.963   4.929   8.182
    5SAPS  C316  656   6.880   5.095   8.291
    5SAPS  H16X  657   6.981   5.113   8.323
    5SAPS  H16Y  658   6.792   5.124   8.351
    5SAPS  C317  659   6.900   5.205   8.193
    5SAPS  H17X  660   6.966   5.164   8.113
    5SAPS  H17Y  661   6.907   5.313   8.205
    5SAPS  C318  662   6.774   5.240   8.165
    5SAPS  H18X  663   6.676   5.248   8.222
    5SAPS  H18Y  664   6.753   5.121   8.144
    5SAPS  H18Z  665   6.775   5.329   8.069
    6SAPS     N  666   0.096   4.192  10.074
    6SAPS   HN1  667   0.136   4.281  10.041
    6SAPS   HN2  668   0.023   4.208  10.146
    6SAPS   HN3  669   0.180   4.154  10.123
    6SAPS   C12  670   0.065   4.109   9.964
    6SAPS  H12A  671  -0.015   4.157   9.912
    6SAPS   C13  672   0.188   4.101   9.873
    6SAPS  O13A  673   0.293   4.167   9.898
    6SAPS  O13B  674   0.174   4.032   9.770
    6SAPS   C11  675   0.020   3.972  10.020
    6SAPS  H11A  676   0.106   3.925  10.068
    6SAPS  H11B  677  -0.004   3.903   9.936
    6SAPS     P  678  -0.233   4.013  10.078
    6SAPS   O13  679  -0.324   3.919  10.146
    6SAPS   O14  680  -0.251   4.160  10.095
    6SAPS   O12  681  -0.083   3.985  10.120
    6SAPS   O11  682  -0.228   3.977   9.928
    6SAPS    C1  683  -0.333   3.907   9.866
    6SAPS    HA  684  -0.311   3.799   9.859
    6SAPS    HB  685  -0.433   3.922   9.915
    6SAPS    C2  686  -0.336   3.972   9.731
    6SAPS    HS  687  -0.417   3.911   9.680
    6SAPS   O21  688  -0.218   3.965   9.651
    6SAPS   C21  689  -0.200   3.869   9.567
    6SAPS   O22  690  -0.281   3.784   9.540
    6SAPS   C22  691  -0.062   3.878   9.508
    6SAPS   H2R  692  -0.040   3.987   9.501
    6SAPS   H2S  693   0.005   3.833   9.584
    6SAPS    C3  694  -0.355   4.124   9.755
    6SAPS    HX  695  -0.278   4.176   9.807
    6SAPS    HY  696  -0.447   4.135   9.825
    6SAPS   O31  697  -0.355   4.175   9.619
    6SAPS   C31  698  -0.367   4.299   9.586
    6SAPS   O32  699  -0.365   4.391   9.666
    6SAPS   C32  700  -0.376   4.307   9.431
    6SAPS   H2X  701  -0.470   4.307   9.380
    6SAPS   H2Y  702  -0.351   4.216   9.381
    6SAPS   C23  703  -0.050   3.806   9.370
    6SAPS   H3R  704  -0.109   3.861   9.293
    6SAPS   H3S  705  -0.092   3.704   9.379
    6SAPS   C24  706   0.094   3.793   9.318
    6SAPS   H4R  707   0.091   3.742   9.218
    6SAPS   H4S  708   0.156   3.728   9.383
    6SAPS   C25  709   0.156   3.929   9.317
    6SAPS   H5R  710   0.125   3.998   9.395
    6SAPS   C26  711   0.240   3.978   9.230
    6SAPS   H6R  712   0.276   4.081   9.243
    6SAPS   C27  713   0.285   3.899   9.117
    6SAPS   H7R  714   0.209   3.846   9.059
    6SAPS   H7S  715   0.364   3.835   9.151
    6SAPS   C28  716   0.319   3.988   9.016
    6SAPS   H8R  717   0.321   4.097   9.035
    6SAPS   C29  718   0.366   3.952   8.908
    6SAPS   H9R  719   0.429   4.038   8.918
    6SAPS  C210  720   0.409   3.831   8.830
    6SAPS  H10R  721   0.422   3.745   8.876
    6SAPS  H10S  722   0.515   3.814   8.826
    6SAPS  C211  723   0.356   3.805   8.698
    6SAPS  H11R  724   0.406   3.819   8.605
    6SAPS  C212  725   0.261   3.748   8.658
    6SAPS  H12R  726   0.236   3.764   8.556
    6SAPS  C213  727   0.180   3.691   8.751
    6SAPS  H13R  728   0.218   3.678   8.847
    6SAPS  H13S  729   0.174   3.607   8.688
    6SAPS  C214  730   0.069   3.772   8.783
    6SAPS  H14R  731   0.097   3.849   8.855
    6SAPS  C215  732  -0.033   3.777   8.705
    6SAPS  H15R  733  -0.116   3.838   8.738
    6SAPS  C216  734  -0.047   3.700   8.578
    6SAPS  H16R  735  -0.152   3.693   8.580
    6SAPS  H16S  736  -0.004   3.598   8.569
    6SAPS  C217  737  -0.036   3.778   8.449
    6SAPS  H17R  738   0.061   3.826   8.452
    6SAPS  H17S  739  -0.125   3.848   8.449
    6SAPS  C218  740  -0.027   3.704   8.316
    6SAPS  H18R  741  -0.120   3.675   8.288
    6SAPS  H18S  742   0.031   3.612   8.310
    6SAPS  C219  743  -0.043   3.792   8.193
    6SAPS  H19R  744   0.042   3.854   8.206
    6SAPS  H19S  745  -0.123   3.865   8.218
    6SAPS  C220  746  -0.048   3.722   8.052
    6SAPS  H20R  747   0.029   3.644   8.049
    6SAPS  H20S  748  -0.053   3.799   7.975
    6SAPS  H20T  749  -0.133   3.666   8.008
    6SAPS   C33  750  -0.317   4.431   9.376
    6SAPS   H3X  751  -0.324   4.506   9.457
    6SAPS   H3Y  752  -0.379   4.471   9.293
    6SAPS   C34  753  -0.173   4.396   9.343
    6SAPS   H4X  754  -0.120   4.384   9.440
    6SAPS   H4Y  755  -0.134   4.484   9.289
    6SAPS   C35  756  -0.143   4.268   9.260
    6SAPS   H5X  757  -0.177   4.177   9.313
    6SAPS   H5Y  758  -0.033   4.259   9.253
    6SAPS   C36  759  -0.199   4.262   9.118
    6SAPS   H6X  760  -0.133   4.321   9.053
    6SAPS   H6Y  761  -0.299   4.310   9.106
    6SAPS   C37  762  -0.201   4.118   9.065
    6SAPS   H7X  763  -0.242   4.117   8.961
    6SAPS   H7Y  764  -0.263   4.056   9.130
    6SAPS   C38  765  -0.082   4.035   9.043
    6SAPS   H8X  766  -0.116   3.945   8.985
    6SAPS   H8Y  767  -0.047   4.006   9.143
    6SAPS   C39  768   0.017   4.113   8.962
    6SAPS   H9X  769   0.103   4.049   8.959
    6SAPS   H9Y  770   0.046   4.205   9.017
    6SAPS  C310  771  -0.036   4.147   8.822
    6SAPS  H10X  772  -0.102   4.236   8.834
    6SAPS  H10Y  773  -0.097   4.061   8.786
    6SAPS  C311  774   0.074   4.183   8.722
    6SAPS  H11X  775   0.120   4.090   8.682
    6SAPS  H11Y  776   0.152   4.241   8.777
    6SAPS  C312  777   0.025   4.268   8.603
    6SAPS  H12X  778   0.098   4.350   8.585
    6SAPS  H12Y  779  -0.072   4.313   8.630
    6SAPS  C313  780   0.017   4.191   8.470
    6SAPS  H13X  781  -0.052   4.105   8.473
    6SAPS  H13Y  782   0.118   4.151   8.446
    6SAPS  C314  783  -0.028   4.277   8.352
    6SAPS  H14X  784   0.051   4.352   8.329
    6SAPS  H14Y  785  -0.123   4.330   8.374
    6SAPS  C315  786  -0.056   4.192   8.228
    6SAPS  H15X  787  -0.109   4.258   8.156
    6SAPS  H15Y  788  -0.126   4.109   8.251
    6SAPS  C316  789   0.065   4.122   8.164
    6SAPS  H16X  790   0.027   4.059   8.080
    6SAPS  H16Y  791   0.118   4.056   8.237
    6SAPS  C317  792   0.164   4.212   8.093
    6SAPS  H17X  793   0.207   4.283   8.168
    6SAPS  H17Y  794   0.106   4.269   8.017
    6SAPS  C318  795   0.273   4.129   8.024
    6SAPS  H18X  796   0.230   4.069   7.941
    6SAPS  H18Y  797   0.323   4.061   8.097
    6SAPS  H18Z  798   0.350   4.193   7.977
    7SAPS     N  799   1.993   7.268  10.138
    7SAPS   HN1  800   2.084   7.275  10.192
    7SAPS   HN2  801   1.937   7.345  10.176
    7SAPS   HN3  802   1.941   7.180  10.155
    7SAPS   C12  803   2.023   7.298   9.999
    7SAPS  H12A  804   1.965   7.384   9.970
    7SAPS   C13  805   2.169   7.333   9.980
    7SAPS  O13A  806   2.250   7.289  10.066
    7SAPS  O13B  807   2.203   7.402   9.881
    7SAPS   C11  808   1.984   7.171   9.923
    7SAPS  H11A  809   2.040   7.082   9.962
    7SAPS  H11B  810   2.016   7.183   9.817
    7SAPS     P  811   1.777   7.037  10.005
    7SAPS   O13  812   1.793   6.912   9.929
    7SAPS   O14  813   1.822   7.044  10.146
    7SAPS   O12  814   1.843   7.157   9.929
    7SAPS   O11  815   1.631   7.081  10.003
    7SAPS    C1  816   1.552   7.016   9.908
    7SAPS    HA  817   1.527   6.909   9.932
    7SAPS    HB  818   1.482   7.096   9.915
    7SAPS    C2  819   1.571   7.036   9.758
    7SAPS    HS  820   1.658   6.972   9.733
    7SAPS   O21  821   1.590   7.177   9.740
    7SAPS   C21  822   1.676   7.207   9.648
    7SAPS   O22  823   1.736   7.130   9.575
    7SAPS   C22  824   1.690   7.357   9.638
    7SAPS   H2R  825   1.721   7.399   9.736
    7SAPS   H2S  826   1.778   7.369   9.571
    7SAPS    C3  827   1.447   6.986   9.678
    7SAPS    HX  828   1.357   7.029   9.724
    7SAPS    HY  829   1.441   6.875   9.690
    7SAPS   O31  830   1.439   7.033   9.541
    7SAPS   C31  831   1.508   6.953   9.462
    7SAPS   O32  832   1.576   6.865   9.507
    7SAPS   C32  833   1.485   6.988   9.315
    7SAPS   H2X  834   1.546   7.078   9.295
    7SAPS   H2Y  835   1.378   7.013   9.303
    7SAPS   C23  836   1.557   7.420   9.587
    7SAPS   H3R  837   1.539   7.519   9.636
    7SAPS   H3S  838   1.471   7.355   9.614
    7SAPS   C24  839   1.550   7.435   9.435
    7SAPS   H4R  840   1.462   7.498   9.407
    7SAPS   H4S  841   1.539   7.341   9.380
    7SAPS   C25  842   1.676   7.497   9.395
    7SAPS   H5R  843   1.691   7.582   9.464
    7SAPS   C26  844   1.760   7.469   9.292
    7SAPS   H6R  845   1.830   7.549   9.255
    7SAPS   C27  846   1.730   7.359   9.192
    7SAPS   H7R  847   1.633   7.364   9.135
    7SAPS   H7S  848   1.715   7.271   9.255
    7SAPS   C28  849   1.845   7.343   9.098
    7SAPS   H8R  850   1.941   7.325   9.146
    7SAPS   C29  851   1.843   7.341   8.964
    7SAPS   H9R  852   1.942   7.332   8.918
    7SAPS  C210  853   1.727   7.354   8.869
    7SAPS  H10R  854   1.753   7.433   8.794
    7SAPS  H10S  855   1.635   7.389   8.922
    7SAPS  C211  856   1.691   7.223   8.808
    7SAPS  H11R  857   1.672   7.146   8.885
    7SAPS  C212  858   1.703   7.183   8.681
    7SAPS  H12R  859   1.658   7.087   8.649
    7SAPS  C213  860   1.758   7.261   8.567
    7SAPS  H13R  861   1.796   7.187   8.492
    7SAPS  H13S  862   1.846   7.316   8.602
    7SAPS  C214  863   1.675   7.371   8.514
    7SAPS  H14R  864   1.646   7.454   8.577
    7SAPS  C215  865   1.642   7.376   8.390
    7SAPS  H15R  866   1.575   7.460   8.363
    7SAPS  C216  867   1.691   7.262   8.301
    7SAPS  H16R  868   1.615   7.223   8.243
    7SAPS  H16S  869   1.666   7.158   8.329
    7SAPS  C217  870   1.807   7.293   8.207
    7SAPS  H17R  871   1.825   7.210   8.135
    7SAPS  H17S  872   1.886   7.295   8.285
    7SAPS  C218  873   1.825   7.428   8.132
    7SAPS  H18R  874   1.922   7.412   8.079
    7SAPS  H18S  875   1.823   7.511   8.206
    7SAPS  C219  876   1.727   7.481   8.029
    7SAPS  H19R  877   1.743   7.579   7.983
    7SAPS  H19S  878   1.650   7.525   8.090
    7SAPS  C220  879   1.675   7.370   7.938
    7SAPS  H20R  880   1.626   7.275   7.972
    7SAPS  H20S  881   1.761   7.366   7.873
    7SAPS  H20T  882   1.589   7.386   7.870
    7SAPS   C33  883   1.520   6.885   9.207
    7SAPS   H3X  884   1.445   6.803   9.213
    7SAPS   H3Y  885   1.625   6.846   9.215
    7SAPS   C34  886   1.502   6.945   9.067
    7SAPS   H4X  887   1.543   7.045   9.075
    7SAPS   H4Y  888   1.393   6.942   9.039
    7SAPS   C35  889   1.574   6.865   8.964
    7SAPS   H5X  890   1.511   6.780   9.005
    7SAPS   H5Y  891   1.685   6.853   8.975
    7SAPS   C36  892   1.548   6.876   8.813
    7SAPS   H6X  893   1.569   6.980   8.793
    7SAPS   H6Y  894   1.441   6.849   8.797
    7SAPS   C37  895   1.632   6.795   8.708
    7SAPS   H7X  896   1.601   6.796   8.602
    7SAPS   H7Y  897   1.604   6.700   8.727
    7SAPS   C38  898   1.781   6.769   8.721
    7SAPS   H8X  899   1.809   6.689   8.648
    7SAPS   H8Y  900   1.821   6.736   8.819
    7SAPS   C39  901   1.851   6.896   8.694
    7SAPS   H9X  902   1.816   6.974   8.765
    7SAPS   H9Y  903   1.839   6.921   8.587
    7SAPS  C310  904   1.992   6.882   8.728
    7SAPS  H10X  905   2.019   6.784   8.688
    7SAPS  H10Y  906   2.004   6.869   8.838
    7SAPS  C311  907   2.083   6.997   8.680
    7SAPS  H11X  908   2.064   7.021   8.575
    7SAPS  H11Y  909   2.194   6.981   8.687
    7SAPS  C312  910   2.053   7.116   8.766
    7SAPS  H12X  911   2.044   7.084   8.873
    7SAPS  H12Y  912   1.952   7.146   8.733
    7SAPS  C313  913   2.150   7.230   8.746
    7SAPS  H13X  914   2.245   7.213   8.801
    7SAPS  H13Y  915   2.099   7.316   8.795
    7SAPS  C314  916   2.177   7.264   8.599
    7SAPS  H14X  917   2.083   7.250   8.541
    7SAPS  H14Y  918   2.248   7.191   8.554
    7SAPS  C315  919   2.227   7.408   8.587
    7SAPS  H15X  920   2.307   7.421   8.664
    7SAPS  H15Y  921   2.144   7.477   8.613
    7SAPS  C316  922   2.276   7.449   8.449
    7SAPS  H16X  923   2.312   7.359   8.394
    7SAPS  H16Y  924   2.361   7.521   8.456
    7SAPS  C317  925   2.162   7.516   8.372
    7SAPS  H17X  926   2.134   7.611   8.424
    7SAPS  H17Y  927   2.073   7.452   8.363
    7SAPS  C318  928   2.202   7.535   8.230
    7SAPS  H18X  929   2.126   7.588   8.167
    7SAPS  H18Y  930   2.268   7.469   8.176
    7SAPS  H18Z  931   2.292   7.588   8.249
    8SAPS     N  932   6.634   6.182  10.211
    8SAPS   HN1  933   6.569   6.200  10.289
    8SAPS   HN2  934   6.625   6.083  10.181
    8SAPS   HN3  935   6.730   6.197  10.245
    8SAPS   C12  936   6.605   6.281  10.099
    8SAPS  H12A  937   6.503   6.265  10.069
    8SAPS   C13  938   6.616   6.430  10.140
    8SAPS  O13A  939   6.652   6.454  10.258
    8SAPS  O13B  940   6.625   6.512  10.045
    8SAPS   C11  941   6.701   6.260   9.978
    8SAPS  H11A  942   6.802   6.289  10.015
    8SAPS  H11B  943   6.681   6.324   9.888
    8SAPS     P  944   6.812   6.060   9.860
    8SAPS   O13  945   6.940   6.056   9.934
    8SAPS   O14  946   6.759   5.933   9.809
    8SAPS   O12  947   6.697   6.122   9.945
    8SAPS   O11  948   6.824   6.160   9.741
    8SAPS    C1  949   6.906   6.134   9.629
    8SAPS    HA  950   6.950   6.231   9.614
    8SAPS    HB  951   6.985   6.057   9.650
    8SAPS    C2  952   6.832   6.113   9.495
    8SAPS    HS  953   6.797   6.212   9.455
    8SAPS   O21  954   6.722   6.024   9.510
    8SAPS   C21  955   6.611   6.082   9.551
    8SAPS   O22  956   6.597   6.199   9.582
    8SAPS   C22  957   6.494   5.986   9.534
    8SAPS   H2R  958   6.534   5.883   9.553
    8SAPS   H2S  959   6.420   6.012   9.612
    8SAPS    C3  960   6.920   6.057   9.382
    8SAPS    HX  961   6.948   5.952   9.407
    8SAPS    HY  962   7.014   6.118   9.375
    8SAPS   O31  963   6.836   6.057   9.264
    8SAPS   C31  964   6.897   5.996   9.164
    8SAPS   O32  965   7.017   5.985   9.163
    8SAPS   C32  966   6.809   5.959   9.046
    8SAPS   H2X  967   6.789   5.850   9.036
    8SAPS   H2Y  968   6.862   5.994   8.953
    8SAPS   C23  969   6.421   6.004   9.397
    8SAPS   H3R  970   6.365   5.911   9.373
    8SAPS   H3S  971   6.498   6.018   9.318
    8SAPS   C24  972   6.326   6.127   9.395
    8SAPS   H4R  973   6.391   6.215   9.402
    8SAPS   H4S  974   6.256   6.125   9.481
    8SAPS   C25  975   6.238   6.150   9.278
    8SAPS   H5R  976   6.154   6.078   9.283
    8SAPS   C26  977   6.257   6.223   9.164
    8SAPS   H6R  978   6.186   6.206   9.079
    8SAPS   C27  979   6.377   6.302   9.122
    8SAPS   H7R  980   6.366   6.338   9.018
    8SAPS   H7S  981   6.466   6.236   9.118
    8SAPS   C28  982   6.406   6.412   9.220
    8SAPS   H8R  983   6.342   6.406   9.309
    8SAPS   C29  984   6.514   6.491   9.229
    8SAPS   H9R  985   6.509   6.572   9.303
    8SAPS  C210  986   6.637   6.490   9.142
    8SAPS  H10R  987   6.683   6.393   9.125
    8SAPS  H10S  988   6.716   6.551   9.193
    8SAPS  C211  989   6.621   6.547   9.009
    8SAPS  H11R  990   6.603   6.641   9.042
    8SAPS  C212  991   6.620   6.517   8.879
    8SAPS  H12R  992   6.626   6.594   8.799
    8SAPS  C213  993   6.643   6.377   8.843
    8SAPS  H13R  994   6.642   6.317   8.936
    8SAPS  H13S  995   6.744   6.371   8.801
    8SAPS  C214  996   6.533   6.324   8.757
    8SAPS  H14R  997   6.456   6.267   8.811
    8SAPS  C215  998   6.512   6.348   8.627
    8SAPS  H15R  999   6.435   6.285   8.581
    8SAPS  C216 1000   6.597   6.435   8.537
    8SAPS  H16R 1001   6.698   6.456   8.581
    8SAPS  H16S 1002   6.549   6.534   8.518
    8SAPS  C217 1003   6.627   6.371   8.402
    8SAPS  H17R 1004   6.684   6.447   8.345
    8SAPS  H17S 1005   6.532   6.353   8.346
    8SAPS  C218 1006   6.717   6.249   8.422
    8SAPS  H18R 1007   6.659   6.168   8.469
    8SAPS  H18S 1008   6.796   6.278   8.495
    8SAPS  C219 1009   6.794   6.201   8.300
    8SAPS  H19R 1010   6.726   6.152   8.228
    8SAPS  H19S 1011   6.862   6.121   8.336
    8SAPS  C220 1012   6.876   6.314   8.240
    8SAPS  H20R 1013   6.814   6.387   8.183
    8SAPS  H20S 1014   6.958   6.273   8.184
    8SAPS  H20T 1015   6.946   6.363   8.307
    8SAPS   C33 1016   6.684   6.043   9.059
    8SAPS   H3X 1017   6.714   6.150   9.065
    8SAPS   H3Y 1018   6.627   6.015   9.151
    8SAPS   C34 1019   6.609   6.041   8.926
    8SAPS   H4X 1020   6.682   6.050   8.846
    8SAPS   H4Y 1021   6.524   6.113   8.929
    8SAPS   C35 1022   6.557   5.910   8.881
    8SAPS   H5X 1023   6.553   5.901   8.985
    8SAPS   H5Y 1024   6.597   5.809   8.890
    8SAPS   C36 1025   6.436   5.912   8.787
    8SAPS   H6X 1026   6.380   6.009   8.787
    8SAPS   H6Y 1027   6.359   5.831   8.796
    8SAPS   C37 1028   6.497   5.873   8.662
    8SAPS   H7X 1029   6.514   5.762   8.672
    8SAPS   H7Y 1030   6.596   5.924   8.663
    8SAPS   C38 1031   6.413   5.922   8.546
    8SAPS   H8X 1032   6.415   6.032   8.547
    8SAPS   H8Y 1033   6.311   5.880   8.551
    8SAPS   C39 1034   6.481   5.876   8.424
    8SAPS   H9X 1035   6.464   5.770   8.460
    8SAPS   H9Y 1036   6.588   5.912   8.427
    8SAPS  C310 1037   6.435   5.892   8.281
    8SAPS  H10X 1038   6.343   5.832   8.273
    8SAPS  H10Y 1039   6.505   5.845   8.206
    8SAPS  C311 1040   6.406   6.039   8.254
    8SAPS  H11X 1041   6.497   6.103   8.259
    8SAPS  H11Y 1042   6.338   6.076   8.334
    8SAPS  C312 1043   6.328   6.064   8.126
    8SAPS  H12X 1044   6.312   6.174   8.115
    8SAPS  H12Y 1045   6.231   6.013   8.139
    8SAPS  C313 1046   6.389   6.011   8.000
    8SAPS  H13X 1047   6.314   6.010   7.920
    8SAPS  H13Y 1048   6.436   5.910   8.006
    8SAPS  C314 1049   6.479   6.119   7.958
    8SAPS  H14X 1050   6.561   6.114   8.036
    8SAPS  H14Y 1051   6.444   6.222   7.963
    8SAPS  C315 1052   6.524   6.101   7.817
    8SAPS  H15X 1053   6.571   6.189   7.771
    8SAPS  H15Y 1054   6.451   6.083   7.739
    8SAPS  C316 1055   6.612   5.985   7.847
    8SAPS  H16X 1056   6.672   6.048   7.896
    8SAPS  H16Y 1057   6.603   5.888   7.811
    8SAPS  C317 1058   6.703   5.938   7.974
    8SAPS  H17X 1059   6.748   5.839   7.966
    8SAPS  H17Y 1060   6.663   5.906   8.057
    8SAPS  C318 1061   6.817   6.019   8.035
    8SAPS  H18X 1062   6.928   6.036   8.014
    8SAPS  H18Y 1063   6.762   6.099   8.065
    8SAPS  H18Z 1064   6.840   6.056   7.942
    9SAPS     N 1065   4.553   3.606   6.202
    9SAPS   HN1 1066   4.490   3.662   6.263
    9SAPS   HN2 1067   4.601   3.530   6.254
    9SAPS   HN3 1068   4.619   3.668   6.154
    9SAPS   C12 1069   4.467   3.544   6.096
    9SAPS  H12A 1070   4.409   3.470   6.148
    9SAPS   C13 1071   4.365   3.635   6.023
    9SAPS  O13A 1072   4.362   3.754   6.064
    9SAPS  O13B 1073   4.296   3.591   5.928
    9SAPS   C11 1074   4.560   3.481   5.992
    9SAPS  H11A 1075   4.641   3.428   6.047
    9SAPS  H11B 1076   4.611   3.557   5.928
    9SAPS     P 1077   4.473   3.247   5.939
    9SAPS   O13 1078   4.383   3.177   5.846
    9SAPS   O14 1079   4.614   3.199   5.943
    9SAPS   O12 1080   4.484   3.397   5.907
    9SAPS   O11 1081   4.409   3.244   6.082
    9SAPS    C1 1082   4.404   3.119   6.147
    9SAPS    HA 1083   4.301   3.088   6.166
    9SAPS    HB 1084   4.434   3.036   6.082
    9SAPS    C2 1085   4.491   3.119   6.272
    9SAPS    HS 1086   4.474   3.017   6.321
    9SAPS   O21 1087   4.474   3.243   6.350
    9SAPS   C21 1088   4.370   3.226   6.426
    9SAPS   O22 1089   4.320   3.115   6.435
    9SAPS   C22 1090   4.332   3.356   6.506
    9SAPS   H2R 1091   4.420   3.422   6.510
    9SAPS   H2S 1092   4.253   3.418   6.458
    9SAPS    C3 1093   4.636   3.113   6.234
    9SAPS    HX 1094   4.665   3.211   6.191
    9SAPS    HY 1095   4.643   3.035   6.155
    9SAPS   O31 1096   4.711   3.082   6.353
    9SAPS   C31 1097   4.749   3.188   6.431
    9SAPS   O32 1098   4.735   3.304   6.400
    9SAPS   C32 1099   4.804   3.147   6.567
    9SAPS   H2X 1100   4.914   3.131   6.556
    9SAPS   H2Y 1101   4.742   3.057   6.584
    9SAPS   C23 1102   4.283   3.329   6.651
    9SAPS   H3R 1103   4.183   3.282   6.661
    9SAPS   H3S 1104   4.268   3.429   6.697
    9SAPS   C24 1105   4.385   3.256   6.739
    9SAPS   H4R 1106   4.375   3.301   6.840
    9SAPS   H4S 1107   4.486   3.285   6.701
    9SAPS   C25 1108   4.368   3.106   6.743
    9SAPS   H5R 1109   4.398   3.050   6.654
    9SAPS   C26 1110   4.315   3.035   6.844
    9SAPS   H6R 1111   4.304   2.928   6.836
    9SAPS   C27 1112   4.264   3.089   6.973
    9SAPS   H7R 1113   4.175   3.032   7.008
    9SAPS   H7S 1114   4.228   3.192   6.957
    9SAPS   C28 1115   4.377   3.083   7.072
    9SAPS   H8R 1116   4.480   3.094   7.032
    9SAPS   C29 1117   4.357   3.079   7.204
    9SAPS   H9R 1118   4.446   3.067   7.267
    9SAPS  C210 1119   4.223   3.081   7.273
    9SAPS  H10R 1120   4.174   2.982   7.278
    9SAPS  H10S 1121   4.152   3.146   7.217
    9SAPS  C211 1122   4.235   3.123   7.415
    9SAPS  H11R 1123   4.321   3.085   7.474
    9SAPS  C212 1124   4.153   3.206   7.475
    9SAPS  H12R 1125   4.162   3.197   7.579
    9SAPS  C213 1126   4.032   3.280   7.429
    9SAPS  H13R 1127   3.950   3.279   7.506
    9SAPS  H13S 1128   3.993   3.227   7.344
    9SAPS  C214 1129   4.049   3.418   7.383
    9SAPS  H14R 1130   4.089   3.442   7.282
    9SAPS  C215 1131   4.016   3.515   7.464
    9SAPS  H15R 1132   4.029   3.612   7.433
    9SAPS  C216 1133   3.964   3.533   7.599
    9SAPS  H16R 1134   3.966   3.443   7.655
    9SAPS  H16S 1135   3.883   3.607   7.606
    9SAPS  C217 1136   4.060   3.614   7.671
    9SAPS  H17R 1137   4.033   3.713   7.669
    9SAPS  H17S 1138   4.153   3.599   7.626
    9SAPS  C218 1139   4.082   3.621   7.813
    9SAPS  H18R 1140   4.038   3.545   7.858
    9SAPS  H18S 1141   3.966   3.612   7.839
    9SAPS  C219 1142   4.205   3.734   7.917
    9SAPS  H19R 1143   4.178   3.761   8.024
    9SAPS  H19S 1144   4.208   3.858   7.939
    9SAPS  C220 1145   4.321   3.735   7.881
    9SAPS  H20R 1146   4.374   3.721   7.798
    9SAPS  H20S 1147   4.356   3.659   7.940
    9SAPS  H20T 1148   4.364   3.828   7.897
    9SAPS   C33 1149   4.823   3.242   6.681
    9SAPS   H3X 1150   4.733   3.302   6.671
    9SAPS   H3Y 1151   4.918   3.298   6.660
    9SAPS   C34 1152   4.826   3.180   6.819
    9SAPS   H4X 1153   4.914   3.111   6.830
    9SAPS   H4Y 1154   4.733   3.119   6.826
    9SAPS   C35 1155   4.822   3.282   6.930
    9SAPS   H5X 1156   4.903   3.357   6.919
    9SAPS   H5Y 1157   4.846   3.226   7.023
    9SAPS   C36 1158   4.686   3.351   6.949
    9SAPS   H6X 1159   4.622   3.274   6.998
    9SAPS   H6Y 1160   4.636   3.387   6.856
    9SAPS   C37 1161   4.693   3.462   7.053
    9SAPS   H7X 1162   4.749   3.549   7.011
    9SAPS   H7Y 1163   4.750   3.421   7.139
    9SAPS   C38 1164   4.557   3.493   7.116
    9SAPS   H8X 1165   4.510   3.399   7.152
    9SAPS   H8Y 1166   4.488   3.535   7.039
    9SAPS   C39 1167   4.570   3.587   7.235
    9SAPS   H9X 1168   4.566   3.690   7.191
    9SAPS   H9Y 1169   4.663   3.571   7.293
    9SAPS  C310 1170   4.464   3.566   7.340
    9SAPS  H10X 1171   4.441   3.463   7.372
    9SAPS  H10Y 1172   4.376   3.594   7.279
    9SAPS  C311 1173   4.487   3.643   7.472
    9SAPS  H11X 1174   4.395   3.630   7.531
    9SAPS  H11Y 1175   4.498   3.752   7.452
    9SAPS  C312 1176   4.582   3.592   7.577
    9SAPS  H12X 1177   4.571   3.658   7.666
    9SAPS  H12Y 1178   4.679   3.597   7.530
    9SAPS  C313 1179   4.577   3.446   7.617
    9SAPS  H13X 1180   4.660   3.409   7.679
    9SAPS  H13Y 1181   4.553   3.381   7.530
    9SAPS  C314 1182   4.469   3.417   7.706
    9SAPS  H14X 1183   4.396   3.441   7.622
    9SAPS  H14Y 1184   4.442   3.491   7.786
    9SAPS  C315 1185   4.457   3.264   7.757
    9SAPS  H15X 1186   4.551   3.238   7.801
    9SAPS  H15Y 1187   4.417   3.203   7.673
    9SAPS  C316 1188   4.363   3.224   7.873
    9SAPS  H16X 1189   4.256   3.202   7.834
    9SAPS  H16Y 1190   4.380   3.302   7.951
    9SAPS  C317 1191   4.336   3.111   7.957
    9SAPS  H17X 1192   4.296   3.035   7.886
    9SAPS  H17Y 1193   4.258   3.146   8.033
    9SAPS  C318 1194   4.462   3.077   8.017
    9SAPS  H18X 1195   4.525   3.065   7.928
    9SAPS  H18Y 1196   4.449   2.986   8.077
    9SAPS  H18Z 1197   4.503   3.162   8.075
   10SAPS     N 1198   5.799   2.272   5.811
   10SAPS   HN1 1199   5.807   2.204   5.734
   10SAPS   HN2 1200   5.822   2.370   5.787
   10SAPS   HN3 1201   5.857   2.246   5.893
   10SAPS   C12 1202   5.664   2.266   5.874
   10SAPS  H12A 1203   5.605   2.350   5.838
   10SAPS   C13 1204   5.587   2.136   5.854
   10SAPS  O13A 1205   5.644   2.037   5.803
   10SAPS  O13B 1206   5.476   2.130   5.913
   10SAPS   C11 1207   5.693   2.270   6.024
   10SAPS  H11A 1208   5.775   2.205   6.057
   10SAPS  H11B 1209   5.605   2.245   6.087
   10SAPS     P 1210   5.639   2.488   6.117
   10SAPS   O13 1211   5.753   2.571   6.114
   10SAPS   O14 1212   5.522   2.537   6.043
   10SAPS   O12 1213   5.739   2.394   6.047
   10SAPS   O11 1214   5.607   2.427   6.265
   10SAPS    C1 1215   5.709   2.361   6.341
   10SAPS    HA 1216   5.775   2.305   6.277
   10SAPS    HB 1217   5.791   2.421   6.375
   10SAPS    C2 1218   5.655   2.294   6.466
   10SAPS    HS 1219   5.582   2.225   6.418
   10SAPS   O21 1220   5.597   2.394   6.559
   10SAPS   C21 1221   5.504   2.338   6.636
   10SAPS   O22 1222   5.480   2.224   6.627
   10SAPS   C22 1223   5.430   2.418   6.733
   10SAPS   H2R 1224   5.424   2.365   6.832
   10SAPS   H2S 1225   5.487   2.509   6.749
   10SAPS    C3 1226   5.768   2.214   6.533
   10SAPS    HX 1227   5.821   2.145   6.464
   10SAPS    HY 1228   5.718   2.153   6.610
   10SAPS   O31 1229   5.864   2.306   6.584
   10SAPS   C31 1230   5.890   2.293   6.712
   10SAPS   O32 1231   5.888   2.193   6.779
   10SAPS   C32 1232   5.917   2.430   6.758
   10SAPS   H2X 1233   5.952   2.487   6.669
   10SAPS   H2Y 1234   5.990   2.435   6.842
   10SAPS   C23 1235   5.288   2.443   6.687
   10SAPS   H3R 1236   5.223   2.353   6.683
   10SAPS   H3S 1237   5.279   2.488   6.584
   10SAPS   C24 1238   5.241   2.528   6.800
   10SAPS   H4R 1239   5.244   2.495   6.901
   10SAPS   H4S 1240   5.141   2.549   6.797
   10SAPS   C25 1241   5.279   2.661   6.791
   10SAPS   H5R 1242   5.287   2.686   6.683
   10SAPS   C26 1243   5.313   2.736   6.894
   10SAPS   H6R 1244   5.351   2.836   6.876
   10SAPS   C27 1245   5.324   2.709   7.039
   10SAPS   H7R 1246   5.251   2.637   7.076
   10SAPS   H7S 1247   5.311   2.807   7.086
   10SAPS   C28 1248   5.447   2.659   7.099
   10SAPS   H8R 1249   5.543   2.655   7.057
   10SAPS   C29 1250   5.450   2.619   7.216
   10SAPS   H9R 1251   5.541   2.581   7.237
   10SAPS  C210 1252   5.358   2.604   7.321
   10SAPS  H10R 1253   5.386   2.504   7.361
   10SAPS  H10S 1254   5.260   2.608   7.280
   10SAPS  C211 1255   5.351   2.724   7.405
   10SAPS  H11R 1256   5.446   2.780   7.417
   10SAPS  C212 1257   5.290   2.710   7.520
   10SAPS  H12R 1258   5.341   2.749   7.598
   10SAPS  C213 1259   5.230   2.593   7.580
   10SAPS  H13R 1260   5.290   2.503   7.592
   10SAPS  H13S 1261   5.169   2.576   7.495
   10SAPS  C214 1262   5.168   2.605   7.712
   10SAPS  H14R 1263   5.148   2.707   7.710
   10SAPS  C215 1264   5.121   2.534   7.815
   10SAPS  H15R 1265   5.052   2.571   7.891
   10SAPS  C216 1266   5.112   2.396   7.834
   10SAPS  H16R 1267   5.105   2.369   7.734
   10SAPS  H16S 1268   5.028   2.342   7.884
   10SAPS  C217 1269   5.222   2.354   7.895
   10SAPS  H17R 1270   5.245   2.355   7.994
   10SAPS  H17S 1271   5.310   2.419   7.866
   10SAPS  C218 1272   5.187   2.205   7.909
   10SAPS  H18R 1273   5.168   2.145   7.813
   10SAPS  H18S 1274   5.109   2.134   7.926
   10SAPS  C219 1275   5.285   2.160   8.009
   10SAPS  H19R 1276   5.372   2.213   8.043
   10SAPS  H19S 1277   5.374   2.119   7.973
   10SAPS  C220 1278   5.226   2.155   8.134
   10SAPS  H20R 1279   5.254   2.243   8.197
   10SAPS  H20S 1280   5.289   2.082   8.167
   10SAPS  H20T 1281   5.150   2.084   8.152
   10SAPS   C33 1282   5.799   2.507   6.791
   10SAPS   H3X 1283   5.749   2.469   6.881
   10SAPS   H3Y 1284   5.731   2.521   6.701
   10SAPS   C34 1285   5.844   2.641   6.825
   10SAPS   H4X 1286   5.747   2.675   6.804
   10SAPS   H4Y 1287   5.884   2.704   6.757
   10SAPS   C35 1288   5.920   2.675   6.955
   10SAPS   H5X 1289   5.959   2.780   6.964
   10SAPS   H5Y 1290   5.989   2.624   6.894
   10SAPS   C36 1291   5.879   2.604   7.087
   10SAPS   H6X 1292   5.849   2.502   7.073
   10SAPS   H6Y 1293   5.783   2.639   7.113
   10SAPS   C37 1294   5.962   2.620   7.215
   10SAPS   H7X 1295   6.016   2.716   7.235
   10SAPS   H7Y 1296   6.022   2.539   7.208
   10SAPS   C38 1297   5.945   2.548   7.346
   10SAPS   H8X 1298   5.865   2.590   7.386
   10SAPS   H8Y 1299   5.981   2.599   7.436
   10SAPS   C39 1300   5.896   2.406   7.329
   10SAPS   H9X 1301   5.972   2.354   7.274
   10SAPS   H9Y 1302   5.799   2.402   7.273
   10SAPS  C310 1303   5.894   2.339   7.458
   10SAPS  H10X 1304   5.979   2.386   7.513
   10SAPS  H10Y 1305   5.881   2.231   7.471
   10SAPS  C311 1306   5.772   2.367   7.517
   10SAPS  H11X 1307   5.669   2.338   7.488
   10SAPS  H11Y 1308   5.792   2.479   7.539
   10SAPS  C312 1309   5.785   2.394   7.631
   10SAPS  H12X 1310   5.897   2.428   7.655
   10SAPS  H12Y 1311   5.842   2.302   7.686
   10SAPS  C313 1312   5.598   2.476   7.798
   10SAPS  H13X 1313   5.506   2.455   7.764
   10SAPS  H13Y 1314   5.621   2.558   7.802
   10SAPS  C314 1315   5.616   2.444   7.970
   10SAPS  H14X 1316   5.684   2.364   7.961
   10SAPS  H14Y 1317   5.521   2.417   8.015
   10SAPS  C315 1318   5.750   2.456   8.072
   10SAPS  H15X 1319   5.855   2.419   8.037
   10SAPS  H15Y 1320   5.757   2.391   8.155
   10SAPS  C316 1321   5.767   2.606   8.081
   10SAPS  H16X 1322   5.753   2.674   7.989
   10SAPS  H16Y 1323   5.862   2.644   8.112
   10SAPS  C317 1324   5.655   2.635   8.162
   10SAPS  H17X 1325   5.562   2.599   8.110
   10SAPS  H17Y 1326   5.674   2.745   8.166
   10SAPS  C318 1327   5.633   2.569   8.287
   10SAPS  H18X 1328   5.599   2.648   8.355
   10SAPS  H18Y 1329   5.730   2.526   8.310
   10SAPS  H18Z 1330   5.555   2.492   8.271
   11SAPS     N 1331   6.218   4.404   5.990
   11SAPS   HN1 1332   6.125   4.364   6.024
   11SAPS   HN2 1333   6.237   4.350   5.904
   11SAPS   HN3 1334   6.283   4.380   6.067
   11SAPS   C12 1335   6.215   4.543   5.955
   11SAPS  H12A 1336   6.304   4.547   5.897
   11SAPS   C13 1337   6.098   4.588   5.862
   11SAPS  O13A 1338   6.035   4.494   5.805
   11SAPS  O13B 1339   6.093   4.707   5.823
   11SAPS   C11 1340   6.250   4.637   6.072
   11SAPS  H11A 1341   6.323   4.591   6.143
   11SAPS  H11B 1342   6.155   4.668   6.121
   11SAPS     P 1343   6.353   4.875   6.095
   11SAPS   O13 1344   6.470   4.843   6.180
   11SAPS   O14 1345   6.358   4.988   6.002
   11SAPS   O12 1346   6.313   4.748   6.014
   11SAPS   O11 1347   6.229   4.891   6.190
   11SAPS    C1 1348   6.119   4.968   6.141
   11SAPS    HA 1349   6.155   5.070   6.118
   11SAPS    HB 1350   6.071   4.923   6.052
   11SAPS    C2 1351   6.016   4.976   6.248
   11SAPS    HS 1352   5.925   5.034   6.215
   11SAPS   O21 1353   6.093   5.039   6.352
   11SAPS   C21 1354   6.122   5.165   6.360
   11SAPS   O22 1355   6.108   5.249   6.272
   11SAPS   C22 1356   6.158   5.195   6.512
   11SAPS   H2R 1357   6.158   5.109   6.580
   11SAPS   H2S 1358   6.257   5.240   6.494
   11SAPS    C3 1359   5.966   4.835   6.294
   11SAPS    HX 1360   5.942   4.778   6.202
   11SAPS    HY 1361   5.874   4.839   6.357
   11SAPS   O31 1362   6.068   4.771   6.372
   11SAPS   C31 1363   6.072   4.642   6.378
   11SAPS   O32 1364   6.001   4.563   6.316
   11SAPS   C32 1365   6.170   4.602   6.488
   11SAPS   H2X 1366   6.258   4.557   6.437
   11SAPS   H2Y 1367   6.120   4.529   6.555
   11SAPS   C23 1368   6.091   5.299   6.603
   11SAPS   H3R 1369   6.117   5.390   6.548
   11SAPS   H3S 1370   6.118   5.327   6.705
   11SAPS   C24 1371   5.951   5.268   6.642
   11SAPS   H4R 1372   5.873   5.258   6.585
   11SAPS   H4S 1373   5.865   5.327   6.644
   11SAPS   C25 1374   5.921   5.170   6.708
   11SAPS   H5R 1375   5.911   5.069   6.682
   11SAPS   C26 1376   5.887   5.191   6.809
   11SAPS   H6R 1377   5.959   5.121   6.835
   11SAPS   C27 1378   5.860   5.271   6.902
   11SAPS   H7R 1379   5.784   5.324   6.842
   11SAPS   H7S 1380   5.953   5.327   6.898
   11SAPS   C28 1381   5.824   5.226   7.045
   11SAPS   H8R 1382   5.716   5.233   7.081
   11SAPS   C29 1383   5.910   5.201   7.135
   11SAPS   H9R 1384   5.867   5.214   7.235
   11SAPS  C210 1385   6.052   5.193   7.130
   11SAPS  H10R 1386   6.071   5.136   7.038
   11SAPS  H10S 1387   6.068   5.119   7.213
   11SAPS  C211 1388   6.121   5.322   7.120
   11SAPS  H11R 1389   6.129   5.361   7.022
   11SAPS  C212 1390   6.178   5.382   7.217
   11SAPS  H12R 1391   6.263   5.449   7.204
   11SAPS  C213 1392   6.163   5.302   7.334
   11SAPS  H13R 1393   6.249   5.256   7.353
   11SAPS  H13S 1394   6.170   5.192   7.343
   11SAPS  C214 1395   6.121   5.387   7.436
   11SAPS  H14R 1396   6.170   5.490   7.450
   11SAPS  C215 1397   6.095   5.316   7.540
   11SAPS  H15R 1398   6.115   5.403   7.600
   11SAPS  C216 1399   6.091   5.167   7.605
   11SAPS  H16R 1400   6.134   5.150   7.709
   11SAPS  H16S 1401   6.156   5.083   7.571
   11SAPS  C217 1402   5.974   5.114   7.661
   11SAPS  H17R 1403   5.918   5.114   7.569
   11SAPS  H17S 1404   5.940   5.185   7.730
   11SAPS  C218 1405   5.993   4.987   7.738
   11SAPS  H18R 1406   6.056   5.001   7.829
   11SAPS  H18S 1407   6.042   4.912   7.673
   11SAPS  C219 1408   5.854   4.944   7.769
   11SAPS  H19R 1409   5.794   4.955   7.676
   11SAPS  H19S 1410   5.806   5.011   7.842
   11SAPS  C220 1411   5.854   4.804   7.824
   11SAPS  H20R 1412   5.889   4.724   7.755
   11SAPS  H20S 1413   5.751   4.777   7.850
   11SAPS  H20T 1414   5.918   4.805   7.914
   11SAPS   C33 1415   6.223   4.717   6.577
   11SAPS   H3X 1416   6.139   4.761   6.636
   11SAPS   H3Y 1417   6.268   4.796   6.513
   11SAPS   C34 1418   6.330   4.671   6.676
   11SAPS   H4X 1419   6.411   4.619   6.619
   11SAPS   H4Y 1420   6.284   4.593   6.741
   11SAPS   C35 1421   6.382   4.792   6.758
   11SAPS   H5X 1422   6.300   4.828   6.825
   11SAPS   H5Y 1423   6.406   4.874   6.687
   11SAPS   C36 1424   6.502   4.767   6.850
   11SAPS   H6X 1425   6.598   4.752   6.794
   11SAPS   H6Y 1426   6.478   4.680   6.912
   11SAPS   C37 1427   6.523   4.877   6.954
   11SAPS   H7X 1428   6.517   4.972   6.899
   11SAPS   H7Y 1429   6.626   4.868   6.995
   11SAPS   C38 1430   6.433   4.871   7.079
   11SAPS   H8X 1431   6.371   4.779   7.082
   11SAPS   H8Y 1432   6.359   4.953   7.072
   11SAPS   C39 1433   6.514   4.880   7.211
   11SAPS   H9X 1434   6.597   4.955   7.203
   11SAPS   H9Y 1435   6.565   4.783   7.230
   11SAPS  C310 1436   6.425   4.913   7.332
   11SAPS  H10X 1437   6.337   4.845   7.331
   11SAPS  H10Y 1438   6.382   5.013   7.313
   11SAPS  C311 1439   6.500   4.897   7.467
   11SAPS  H11X 1440   6.577   4.976   7.482
   11SAPS  H11Y 1441   6.552   4.799   7.464
   11SAPS  C312 1442   6.418   4.894   7.595
   11SAPS  H12X 1443   6.339   4.817   7.593
   11SAPS  H12Y 1444   6.366   4.988   7.611
   11SAPS  C313 1445   6.506   4.877   7.718
   11SAPS  H13X 1446   6.565   4.968   7.745
   11SAPS  H13Y 1447   6.564   4.784   7.722
   11SAPS  C314 1448   6.419   4.868   7.827
   11SAPS  H14X 1449   6.349   4.957   7.805
   11SAPS  H14Y 1450   6.487   4.885   7.915
   11SAPS  C315 1451   6.349   4.731   7.832
   11SAPS  H15X 1452   6.419   4.664   7.882
   11SAPS  H15Y 1453   6.325   4.677   7.742
   11SAPS  C316 1454   6.225   4.749   7.903
   11SAPS  H16X 1455   6.191   4.638   7.909
   11SAPS  H16Y 1456   6.131   4.773   7.846
   11SAPS  C317 1457   6.287   4.883   7.990
   11SAPS  H17X 1458   6.175   4.905   7.973
   11SAPS  H17Y 1459   6.219   4.966   7.998
   11SAPS  C318 1460   6.440   4.890   8.120
   11SAPS  H18X 1461   6.438   4.803   8.077
   11SAPS  H18Y 1462   6.411   4.835   8.186
   11SAPS  H18Z 1463   6.532   4.915   8.219
   12SAPS     N 1464   4.663   7.136   5.815
   12SAPS   HN1 1465   4.670   7.035   5.836
   12SAPS   HN2 1466   4.606   7.154   5.728
   12SAPS   HN3 1467   4.756   7.180   5.804
   12SAPS   C12 1468   4.588   7.204   5.922
   12SAPS  H12A 1469   4.654   7.282   5.958
   12SAPS   C13 1470   4.473   7.277   5.858
   12SAPS  O13A 1471   4.446   7.262   5.735
   12SAPS  O13B 1472   4.443   7.378   5.924
   12SAPS   C11 1473   4.531   7.107   6.032
   12SAPS  H11A 1474   4.443   7.049   5.992
   12SAPS  H11B 1475   4.487   7.161   6.120
   12SAPS     P 1476   4.601   6.881   6.139
   12SAPS   O13 1477   4.524   6.895   6.264
   12SAPS   O14 1478   4.555   6.794   6.031
   12SAPS   O12 1479   4.637   7.023   6.077
   12SAPS   O11 1480   4.747   6.831   6.174
   12SAPS    C1 1481   4.831   6.919   6.246
   12SAPS    HA 1482   4.909   6.963   6.178
   12SAPS    HB 1483   4.781   7.006   6.291
   12SAPS    C2 1484   4.897   6.844   6.361
   12SAPS    HS 1485   4.959   6.771   6.315
   12SAPS   O21 1486   4.806   6.781   6.448
   12SAPS   C21 1487   4.847   6.725   6.558
   12SAPS   O22 1488   4.959   6.701   6.595
   12SAPS   C22 1489   4.727   6.711   6.644
   12SAPS   H2R 1490   4.646   6.775   6.602
   12SAPS   H2S 1491   4.689   6.609   6.648
   12SAPS    C3 1492   4.976   6.945   6.431
   12SAPS    HX 1493   5.038   6.991   6.347
   12SAPS    HY 1494   5.048   6.902   6.505
   12SAPS   O31 1495   4.892   7.050   6.487
   12SAPS   C31 1496   4.917   7.125   6.592
   12SAPS   O32 1497   5.010   7.126   6.665
   12SAPS   C32 1498   4.822   7.220   6.632
   12SAPS   H2X 1499   4.733   7.157   6.643
   12SAPS   H2Y 1500   4.810   7.301   6.559
   12SAPS   C23 1501   4.768   6.745   6.787
   12SAPS   H3R 1502   4.851   6.679   6.821
   12SAPS   H3S 1503   4.679   6.721   6.849
   12SAPS   C24 1504   4.810   6.891   6.802
   12SAPS   H4R 1505   4.738   6.960   6.755
   12SAPS   H4S 1506   4.906   6.900   6.744
   12SAPS   C25 1507   4.811   6.928   6.949
   12SAPS   H5R 1508   4.720   6.939   7.001
   12SAPS   C26 1509   4.910   6.958   7.028
   12SAPS   H6R 1510   4.916   7.006   7.125
   12SAPS   C27 1511   5.034   6.959   6.978
   12SAPS   H7R 1512   5.072   7.049   7.029
   12SAPS   H7S 1513   5.020   6.989   6.872
   12SAPS   C28 1514   5.128   6.848   7.002
   12SAPS   H8R 1515   5.137   6.782   6.913
   12SAPS   C29 1516   5.219   6.842   7.104
   12SAPS   H9R 1517   5.284   6.765   7.130
   12SAPS  C210 1518   5.284   6.889   7.218
   12SAPS  H10R 1519   5.196   6.952   7.213
   12SAPS  H10S 1520   5.389   6.925   7.191
   12SAPS  C211 1521   5.289   6.825   7.347
   12SAPS  H11R 1522   5.359   6.743   7.350
   12SAPS  C212 1523   5.223   6.869   7.453
   12SAPS  H12R 1524   5.249   6.816   7.543
   12SAPS  C213 1525   5.132   6.988   7.469
   12SAPS  H13R 1526   5.176   7.089   7.449
   12SAPS  H13S 1527   5.113   6.993   7.577
   12SAPS  C214 1528   5.001   6.984   7.399
   12SAPS  H14R 1529   4.982   6.894   7.340
   12SAPS  C215 1530   4.909   7.079   7.409
   12SAPS  H15R 1531   4.817   7.069   7.351
   12SAPS  C216 1532   4.927   7.200   7.493
   12SAPS  H16R 1533   4.939   7.289   7.429
   12SAPS  H16S 1534   5.010   7.201   7.567
   12SAPS  C217 1535   4.818   7.220   7.584
   12SAPS  H17R 1536   4.818   7.167   7.682
   12SAPS  H17S 1537   4.717   7.206   7.541
   12SAPS  C218 1538   4.839   7.356   7.617
   12SAPS  H18R 1539   4.837   7.431   7.535
   12SAPS  H18S 1540   4.913   7.397   7.666
   12SAPS  C219 1541   4.758   7.364   7.724
   12SAPS  H19R 1542   4.678   7.322   7.677
   12SAPS  H19S 1543   4.763   7.475   7.682
   12SAPS  C220 1544   4.735   7.303   7.871
   12SAPS  H20R 1545   4.652   7.344   7.939
   12SAPS  H20S 1546   4.822   7.323   7.931
   12SAPS  H20T 1547   4.702   7.199   7.857
   12SAPS   C33 1548   4.885   7.261   6.766
   12SAPS   H3X 1549   4.979   7.329   6.761
   12SAPS   H3Y 1550   4.902   7.185   6.846
   12SAPS   C34 1551   4.788   7.332   6.837
   12SAPS   H4X 1552   4.786   7.400   6.751
   12SAPS   H4Y 1553   4.852   7.351   6.926
   12SAPS   C35 1554   4.639   7.323   6.852
   12SAPS   H5X 1555   4.605   7.287   6.757
   12SAPS   H5Y 1556   4.574   7.415   6.863
   12SAPS   C36 1557   4.620   7.249   6.978
   12SAPS   H6X 1558   4.684   7.286   7.058
   12SAPS   H6Y 1559   4.655   7.148   6.956
   12SAPS   C37 1560   4.477   7.255   7.020
   12SAPS   H7X 1561   4.428   7.184   6.951
   12SAPS   H7Y 1562   4.434   7.356   7.003
   12SAPS   C38 1563   4.454   7.232   7.168
   12SAPS   H8X 1564   4.345   7.226   7.185
   12SAPS   H8Y 1565   4.484   7.325   7.215
   12SAPS   C39 1566   4.538   7.122   7.233
   12SAPS   H9X 1567   4.541   7.134   7.343
   12SAPS   H9Y 1568   4.642   7.120   7.196
   12SAPS  C310 1569   4.483   6.986   7.204
   12SAPS  H10X 1570   4.461   6.972   7.097
   12SAPS  H10Y 1571   4.393   6.977   7.259
   12SAPS  C311 1572   4.569   6.878   7.263
   12SAPS  H11X 1573   4.553   6.859   7.371
   12SAPS  H11Y 1574   4.673   6.902   7.238
   12SAPS  C312 1575   4.552   6.753   7.191
   12SAPS  H12X 1576   4.553   6.776   7.084
   12SAPS  H12Y 1577   4.448   6.720   7.219
   12SAPS  C313 1578   4.664   6.656   7.224
   12SAPS  H13X 1579   4.764   6.655   7.183
   12SAPS  H13Y 1580   4.653   6.563   7.172
   12SAPS  C314 1581   4.660   6.628   7.370
   12SAPS  H14X 1582   4.680   6.521   7.365
   12SAPS  H14Y 1583   4.563   6.653   7.422
   12SAPS  C315 1584   4.784   6.687   7.428
   12SAPS  H15X 1585   4.762   6.755   7.511
   12SAPS  H15Y 1586   4.817   6.758   7.354
   12SAPS  C316 1587   4.894   6.584   7.455
   12SAPS  H16X 1588   4.990   6.631   7.473
   12SAPS  H16Y 1589   4.894   6.497   7.383
   12SAPS  C317 1590   4.887   6.511   7.581
   12SAPS  H17X 1591   4.951   6.422   7.594
   12SAPS  H17Y 1592   4.792   6.467   7.543
   12SAPS  C318 1593   4.892   6.584   7.719
   12SAPS  H18X 1594   4.966   6.659   7.728
   12SAPS  H18Y 1595   4.872   6.527   7.813
   12SAPS  H18Z 1596   4.821   6.662   7.728
   13SAPS     N 1597   7.122   2.151   5.928
   13SAPS   HN1 1598   7.146   2.061   5.976
   13SAPS   HN2 1599   7.183   2.167   5.846
   13SAPS   HN3 1600   7.120   2.232   5.993
   13SAPS   C12 1601   6.984   2.133   5.869
   13SAPS  H12A 1602   6.969   2.207   5.791
   13SAPS   C13 1603   6.966   1.993   5.808
   13SAPS  O13A 1604   7.063   1.915   5.826
   13SAPS  O13B 1605   6.887   1.984   5.711
   13SAPS   C11 1606   6.879   2.153   5.978
   13SAPS  H11A 1607   6.887   2.066   6.047
   13SAPS  H11B 1608   6.777   2.145   5.933
   13SAPS     P 1609   6.814   2.305   6.176
   13SAPS   O13 1610   6.835   2.443   6.223
   13SAPS   O14 1611   6.678   2.251   6.161
   13SAPS   O12 1612   6.899   2.280   6.043
   13SAPS   O11 1613   6.890   2.215   6.276
   13SAPS    C1 1614   7.027   2.234   6.306
   13SAPS    HA 1615   7.088   2.259   6.217
   13SAPS    HB 1616   7.039   2.313   6.382
   13SAPS    C2 1617   7.071   2.104   6.371
   13SAPS    HS 1618   7.066   2.027   6.292
   13SAPS   O21 1619   6.983   2.079   6.482
   13SAPS   C21 1620   6.935   1.958   6.491
   13SAPS   O22 1621   6.956   1.867   6.413
   13SAPS   C22 1622   6.852   1.947   6.619
   13SAPS   H2R 1623   6.889   1.866   6.684
   13SAPS   H2S 1624   6.859   2.042   6.676
   13SAPS    C3 1625   7.214   2.113   6.425
   13SAPS    HX 1626   7.284   2.137   6.342
   13SAPS    HY 1627   7.241   2.011   6.461
   13SAPS   O31 1628   7.221   2.217   6.526
   13SAPS   C31 1629   7.230   2.171   6.653
   13SAPS   O32 1630   7.256   2.056   6.681
   13SAPS   C32 1631   7.206   2.273   6.765
   13SAPS   H2X 1632   7.125   2.340   6.754
   13SAPS   H2Y 1633   7.294   2.336   6.789
   13SAPS   C23 1634   6.706   1.917   6.583
   13SAPS   H3R 1635   6.704   1.820   6.527
   13SAPS   H3S 1636   6.673   1.997   6.512
   13SAPS   C24 1637   6.609   1.918   6.703
   13SAPS   H4R 1638   6.636   1.848   6.785
   13SAPS   H4S 1639   6.510   1.887   6.660
   13SAPS   C25 1640   6.597   2.057   6.757
   13SAPS   H5R 1641   6.548   2.128   6.689
   13SAPS   C26 1642   6.650   2.106   6.871
   13SAPS   H6R 1643   6.635   2.213   6.885
   13SAPS   C27 1644   6.737   2.040   6.977
   13SAPS   H7R 1645   6.759   2.114   7.057
   13SAPS   H7S 1646   6.836   2.015   6.933
   13SAPS   C28 1647   6.679   1.916   7.039
   13SAPS   H8R 1648   6.577   1.891   7.008
   13SAPS   C29 1649   6.743   1.838   7.128
   13SAPS   H9R 1650   6.693   1.743   7.156
   13SAPS  C210 1651   6.883   1.866   7.179
   13SAPS  H10R 1652   6.891   1.833   7.285
   13SAPS  H10S 1653   6.898   1.976   7.188
   13SAPS  C211 1654   6.996   1.803   7.101
   13SAPS  H11R 1655   6.970   1.718   7.036
   13SAPS  C212 1656   7.124   1.847   7.094
   13SAPS  H12R 1657   7.193   1.794   7.027
   13SAPS  C213 1658   7.184   1.969   7.160
   13SAPS  H13R 1659   7.101   2.037   7.186
   13SAPS  H13S 1660   7.245   2.022   7.084
   13SAPS  C214 1661   7.274   1.950   7.279
   13SAPS  H14R 1662   7.317   1.853   7.283
   13SAPS  C215 1663   7.306   2.036   7.377
   13SAPS  H15R 1664   7.375   2.010   7.459
   13SAPS  C216 1665   7.254   2.175   7.386
   13SAPS  H16R 1666   7.153   2.180   7.339
   13SAPS  H16S 1667   7.325   2.243   7.334
   13SAPS  C217 1668   7.252   2.221   7.532
   13SAPS  H17R 1669   7.223   2.329   7.536
   13SAPS  H17S 1670   7.356   2.211   7.569
   13SAPS  C218 1671   7.151   2.146   7.618
   13SAPS  H18R 1672   7.179   2.038   7.622
   13SAPS  H18S 1673   7.051   2.159   7.571
   13SAPS  C219 1674   7.149   2.192   7.763
   13SAPS  H19R 1675   7.173   2.301   7.768
   13SAPS  H19S 1676   7.230   2.133   7.811
   13SAPS  C220 1677   7.017   2.167   7.837
   13SAPS  H20R 1678   6.988   2.060   7.828
   13SAPS  H20S 1679   6.934   2.229   7.796
   13SAPS  H20T 1680   7.030   2.190   7.945
   13SAPS   C33 1681   7.103   2.227   6.869
   13SAPS   H3X 1682   7.157   2.162   6.934
   13SAPS   H3Y 1683   7.016   2.179   6.816
   13SAPS   C34 1684   7.054   2.336   6.965
   13SAPS   H4X 1685   7.046   2.423   6.909
   13SAPS   H4Y 1686   7.130   2.370   7.036
   13SAPS   C35 1687   6.920   2.318   7.029
   13SAPS   H5X 1688   6.935   2.237   7.103
   13SAPS   H5Y 1689   6.842   2.291   6.955
   13SAPS   C36 1690   6.873   2.439   7.106
   13SAPS   H6X 1691   6.833   2.518   7.037
   13SAPS   H6Y 1692   6.952   2.482   7.172
   13SAPS   C37 1693   6.760   2.392   7.192
   13SAPS   H7X 1694   6.793   2.310   7.260
   13SAPS   H7Y 1695   6.678   2.354   7.126
   13SAPS   C38 1696   6.702   2.505   7.268
   13SAPS   H8X 1697   6.680   2.589   7.195
   13SAPS   H8Y 1698   6.769   2.538   7.350
   13SAPS   C39 1699   6.578   2.472   7.339
   13SAPS   H9X 1700   6.504   2.487   7.266
   13SAPS   H9Y 1701   6.564   2.547   7.420
   13SAPS  C310 1702   6.545   2.329   7.375
   13SAPS  H10X 1703   6.558   2.263   7.285
   13SAPS  H10Y 1704   6.437   2.323   7.401
   13SAPS  C311 1705   6.632   2.278   7.487
   13SAPS  H11X 1706   6.629   2.339   7.580
   13SAPS  H11Y 1707   6.737   2.292   7.455
   13SAPS  C312 1708   6.600   2.130   7.506
   13SAPS  H12X 1709   6.578   2.079   7.410
   13SAPS  H12Y 1710   6.507   2.124   7.565
   13SAPS  C313 1711   6.719   2.056   7.567
   13SAPS  H13X 1712   6.730   2.085   7.673
   13SAPS  H13Y 1713   6.808   2.091   7.509
   13SAPS  C314 1714   6.719   1.902   7.558
   13SAPS  H14X 1715   6.772   1.874   7.465
   13SAPS  H14Y 1716   6.618   1.856   7.557
   13SAPS  C315 1717   6.802   1.842   7.671
   13SAPS  H15X 1718   6.748   1.866   7.766
   13SAPS  H15Y 1719   6.903   1.888   7.677
   13SAPS  C316 1720   6.823   1.693   7.650
   13SAPS  H16X 1721   6.922   1.678   7.601
   13SAPS  H16Y 1722   6.747   1.649   7.582
   13SAPS  C317 1723   6.820   1.622   7.784
   13SAPS  H17X 1724   6.716   1.623   7.823
   13SAPS  H17Y 1725   6.891   1.669   7.855
   13SAPS  C318 1726   6.863   1.484   7.769
   13SAPS  H18X 1727   6.879   1.432   7.864
   13SAPS  H18Y 1728   6.958   1.482   7.712
   13SAPS  H18Z 1729   6.791   1.430   7.706
   14SAPS     N 1730   6.425   6.150   6.162
   14SAPS   HN1 1731   6.359   6.227   6.144
   14SAPS   HN2 1732   6.373   6.062   6.185
   14SAPS   HN3 1733   6.494   6.176   6.235
   14SAPS   C12 1734   6.501   6.125   6.034
   14SAPS  H12A 1735   6.600   6.096   6.063
   14SAPS   C13 1736   6.444   6.010   5.951
   14SAPS  O13A 1737   6.356   5.938   6.003
   14SAPS  O13B 1738   6.488   5.997   5.833
   14SAPS   C11 1739   6.504   6.253   5.945
   14SAPS  H11A 1740   6.402   6.267   5.905
   14SAPS  H11B 1741   6.565   6.241   5.851
   14SAPS     P 1742   6.689   6.422   6.011
   14SAPS   O13 1743   6.731   6.407   5.871
   14SAPS   O14 1744   6.693   6.556   6.071
   14SAPS   O12 1745   6.540   6.367   6.024
   14SAPS   O11 1746   6.766   6.314   6.095
   14SAPS    C1 1747   6.882   6.355   6.166
   14SAPS    HA 1748   6.968   6.290   6.142
   14SAPS    HB 1749   6.922   6.452   6.124
   14SAPS    C2 1750   6.863   6.343   6.325
   14SAPS    HS 1751   6.964   6.348   6.367
   14SAPS   O21 1752   6.800   6.222   6.359
   14SAPS   C21 1753   6.876   6.118   6.346
   14SAPS   O22 1754   6.996   6.116   6.320
   14SAPS   C22 1755   6.774   6.004   6.364
   14SAPS   H2R 1756   6.674   6.043   6.388
   14SAPS   H2S 1757   6.772   5.944   6.272
   14SAPS    C3 1758   6.783   6.457   6.401
   14SAPS    HX 1759   6.820   6.563   6.406
   14SAPS    HY 1760   6.803   6.452   6.510
   14SAPS   O31 1761   6.651   6.466   6.343
   14SAPS   C31 1762   6.597   6.577   6.388
   14SAPS   O32 1763   6.635   6.632   6.487
   14SAPS   C32 1764   6.467   6.604   6.328
   14SAPS   H2X 1765   6.487   6.605   6.220
   14SAPS   H2Y 1766   6.429   6.703   6.362
   14SAPS   C23 1767   6.809   5.902   6.470
   14SAPS   H3R 1768   6.911   5.893   6.444
   14SAPS   H3S 1769   6.764   5.804   6.446
   14SAPS   C24 1770   6.792   5.939   6.619
   14SAPS   H4R 1771   6.834   5.851   6.673
   14SAPS   H4S 1772   6.681   5.936   6.627
   14SAPS   C25 1773   6.849   6.066   6.680
   14SAPS   H5R 1774   6.949   6.102   6.657
   14SAPS   C26 1775   6.799   6.139   6.777
   14SAPS   H6R 1776   6.848   6.236   6.801
   14SAPS   C27 1777   6.671   6.105   6.844
   14SAPS   H7R 1778   6.630   6.011   6.802
   14SAPS   H7S 1779   6.597   6.183   6.818
   14SAPS   C28 1780   6.700   6.085   6.991
   14SAPS   H8R 1781   6.750   6.168   7.044
   14SAPS   C29 1782   6.665   5.979   7.064
   14SAPS   H9R 1783   6.694   5.973   7.170
   14SAPS  C210 1784   6.588   5.858   7.018
   14SAPS  H10R 1785   6.525   5.872   6.929
   14SAPS  H10S 1786   6.514   5.834   7.093
   14SAPS  C211 1787   6.678   5.740   6.997
   14SAPS  H11R 1788   6.730   5.742   6.905
   14SAPS  C212 1789   6.709   5.644   7.080
   14SAPS  H12R 1790   6.758   5.555   7.050
   14SAPS  C213 1791   6.656   5.640   7.207
   14SAPS  H13R 1792   6.573   5.580   7.190
   14SAPS  H13S 1793   6.589   5.723   7.209
   14SAPS  C214 1794   6.703   5.547   7.307
   14SAPS  H14R 1795   6.806   5.521   7.323
   14SAPS  C215 1796   6.664   5.565   7.417
   14SAPS  H15R 1797   6.767   5.555   7.481
   14SAPS  C216 1798   6.572   5.711   7.404
   14SAPS  H16R 1799   6.482   5.693   7.492
   14SAPS  H16S 1800   6.611   5.797   7.383
   14SAPS  C217 1801   6.711   5.933   7.429
   14SAPS  H17R 1802   6.690   6.015   7.503
   14SAPS  H17S 1803   6.812   5.951   7.415
   14SAPS  C218 1804   6.810   5.963   7.578
   14SAPS  H18R 1805   6.859   5.876   7.617
   14SAPS  H18S 1806   6.748   5.954   7.670
   14SAPS  C219 1807   6.967   5.936   7.597
   14SAPS  H19R 1808   6.868   6.039   7.580
   14SAPS  H19S 1809   7.023   5.970   7.528
   14SAPS  C220 1810   7.129   5.911   7.786
   14SAPS  H20R 1811   7.192   5.962   7.788
   14SAPS  H20S 1812   7.139   5.887   7.703
   14SAPS  H20T 1813   7.081   5.966   7.881
   14SAPS   C33 1814   6.376   6.493   6.380
   14SAPS   H3X 1815   6.416   6.391   6.365
   14SAPS   H3Y 1816   6.278   6.504   6.331
   14SAPS   C34 1817   6.351   6.511   6.529
   14SAPS   H4X 1818   6.336   6.618   6.546
   14SAPS   H4Y 1819   6.443   6.486   6.585
   14SAPS   C35 1820   6.242   6.422   6.579
   14SAPS   H5X 1821   6.148   6.417   6.529
   14SAPS   H5Y 1822   6.221   6.433   6.686
   14SAPS   C36 1823   6.257   6.282   6.541
   14SAPS   H6X 1824   6.355   6.243   6.569
   14SAPS   H6Y 1825   6.227   6.271   6.433
   14SAPS   C37 1826   6.165   6.206   6.623
   14SAPS   H7X 1827   6.152   6.137   6.542
   14SAPS   H7Y 1828   6.062   6.247   6.640
   14SAPS   C38 1829   6.235   6.131   6.736
   14SAPS   H8X 1830   6.296   6.041   6.712
   14SAPS   H8Y 1831   6.166   6.074   6.789
   14SAPS   C39 1832   6.253   6.213   6.857
   14SAPS   H9X 1833   6.156   6.261   6.887
   14SAPS   H9Y 1834   6.329   6.282   6.826
   14SAPS  C310 1835   6.314   6.142   6.973
   14SAPS  H10X 1836   6.386   6.062   6.952
   14SAPS  H10Y 1837   6.245   6.074   7.006
   14SAPS  C311 1838   6.335   6.246   7.081
   14SAPS  H11X 1839   6.245   6.281   7.125
   14SAPS  H11Y 1840   6.419   6.309   7.053
   14SAPS  C312 1841   6.380   6.204   7.207
   14SAPS  H12X 1842   6.466   6.141   7.164
   14SAPS  H12Y 1843   6.285   6.157   7.257
   14SAPS  C313 1844   6.411   6.261   7.341
   14SAPS  H13X 1845   6.452   6.190   7.407
   14SAPS  H13Y 1846   6.326   6.283   7.406
   14SAPS  C314 1847   6.527   6.345   7.331
   14SAPS  H14X 1848   6.486   6.427   7.268
   14SAPS  H14Y 1849   6.610   6.298   7.275
   14SAPS  C315 1850   6.570   6.389   7.471
   14SAPS  H15X 1851   6.487   6.426   7.532
   14SAPS  H15Y 1852   6.613   6.475   7.424
   14SAPS  C316 1853   6.679   6.305   7.545
   14SAPS  H16X 1854   6.742   6.259   7.465
   14SAPS  H16Y 1855   6.627   6.226   7.596
   14SAPS  C317 1856   6.788   6.357   7.645
   14SAPS  H17X 1857   6.849   6.451   7.649
   14SAPS  H17Y 1858   6.884   6.312   7.634
   14SAPS  C318 1859   6.735   6.421   7.742
   14SAPS  H18X 1860   6.728   6.493   7.821
   14SAPS  H18Y 1861   6.817   6.446   7.816
   14SAPS  H18Z 1862   6.638   6.402   7.776
   15SAPS     N 1863   7.207   5.456   6.050
   15SAPS   HN1 1864   7.183   5.360   6.017
   15SAPS   HN2 1865   7.277   5.458   6.126
   15SAPS   HN3 1866   7.118   5.501   6.081
   15SAPS   C12 1867   7.254   5.527   5.927
   15SAPS  H12A 1868   7.358   5.500   5.912
   15SAPS   C13 1869   7.171   5.487   5.801
   15SAPS  O13A 1870   7.077   5.405   5.818
   15SAPS  O13B 1871   7.196   5.541   5.690
   15SAPS   C11 1872   7.234   5.680   5.944
   15SAPS  H11A 1873   7.126   5.702   5.961
   15SAPS  H11B 1874   7.267   5.728   5.849
   15SAPS     P 1875   7.265   5.820   6.162
   15SAPS   O13 1876   7.372   5.848   6.258
   15SAPS   O14 1877   7.197   5.935   6.100
   15SAPS   O12 1878   7.316   5.729   6.049
   15SAPS   O11 1879   7.161   5.714   6.218
   15SAPS    C1 1880   7.060   5.767   6.304
   15SAPS    HA 1881   7.035   5.874   6.281
   15SAPS    HB 1882   6.965   5.713   6.287
   15SAPS    C2 1883   7.097   5.751   6.455
   15SAPS    HS 1884   7.008   5.766   6.520
   15SAPS   O21 1885   7.210   5.835   6.491
   15SAPS   C21 1886   7.176   5.955   6.531
   15SAPS   O22 1887   7.066   5.998   6.535
   15SAPS   C22 1888   7.286   6.043   6.581
   15SAPS   H2R 1889   7.339   6.074   6.489
   15SAPS   H2S 1890   7.246   6.136   6.628
   15SAPS    C3 1891   7.128   5.608   6.499
   15SAPS    HX 1892   7.174   5.558   6.412
   15SAPS    HY 1893   7.031   5.560   6.526
   15SAPS   O31 1894   7.215   5.615   6.614
   15SAPS   C31 1895   7.282   5.505   6.635
   15SAPS   O32 1896   7.267   5.401   6.575
   15SAPS   C32 1897   7.378   5.522   6.750
   15SAPS   H2X 1898   7.369   5.624   6.788
   15SAPS   H2Y 1899   7.480   5.505   6.709
   15SAPS   C23 1900   7.368   5.961   6.681
   15SAPS   H3R 1901   7.458   6.018   6.711
   15SAPS   H3S 1902   7.401   5.869   6.629
   15SAPS   C24 1903   7.289   5.927   6.809
   15SAPS   H4R 1904   7.220   5.843   6.788
   15SAPS   H4S 1905   7.228   6.019   6.828
   15SAPS   C25 1906   7.370   5.885   6.929
   15SAPS   H5R 1907   7.461   5.825   6.915
   15SAPS   C26 1908   7.341   5.924   7.052
   15SAPS   H6R 1909   7.402   5.892   7.137
   15SAPS   C27 1910   7.230   6.012   7.091
   15SAPS   H7R 1911   7.154   6.027   7.015
   15SAPS   H7S 1912   7.279   6.111   7.092
   15SAPS   C28 1913   7.164   5.952   7.211
   15SAPS   H8R 1914   7.054   5.961   7.202
   15SAPS   C29 1915   7.217   5.938   7.334
   15SAPS   H9R 1916   7.133   5.958   7.403
   15SAPS  C210 1917   7.363   5.985   7.377
   15SAPS  H10R 1918   7.405   6.076   7.428
   15SAPS  H10S 1919   7.426   6.050   7.324
   15SAPS  C211 1920   7.427   5.898   7.455
   15SAPS  H11R 1921   7.427   5.825   7.380
   15SAPS  C212 1922   7.471   5.886   7.574
   15SAPS  H12R 1923   7.532   5.803   7.583
   15SAPS  C213 1924   7.473   5.967   7.692
   15SAPS  H13R 1925   7.379   5.961   7.750
   15SAPS  H13S 1926   7.496   6.058   7.647
   15SAPS  C214 1927   7.590   5.992   7.768
   15SAPS  H14R 1928   7.643   6.083   7.734
   15SAPS  C215 1929   7.616   5.926   7.875
   15SAPS  H15R 1930   7.714   5.937   7.921
   15SAPS  C216 1931   7.523   5.821   7.923
   15SAPS  H16R 1932   7.591   5.765   7.986
   15SAPS  H16S 1933   7.478   5.758   7.841
   15SAPS  C217 1934   7.419   5.871   8.024
   15SAPS  H17R 1935   7.379   5.967   7.985
   15SAPS  H17S 1936   7.477   5.888   8.118
   15SAPS  C218 1937   7.297   5.783   8.057
   15SAPS  H18R 1938   7.326   5.695   8.119
   15SAPS  H18S 1939   7.257   5.746   7.960
   15SAPS  C219 1940   7.190   5.867   8.131
   15SAPS  H19R 1941   7.162   5.958   8.075
   15SAPS  H19S 1942   7.239   5.900   8.225
   15SAPS  C220 1943   7.058   5.798   8.165
   15SAPS  H20R 1944   7.077   5.713   8.233
   15SAPS  H20S 1945   7.010   5.757   8.075
   15SAPS  H20T 1946   6.987   5.871   8.212
   15SAPS   C33 1947   7.349   5.425   6.865
   15SAPS   H3X 1948   7.401   5.337   6.837
   15SAPS   H3Y 1949   7.248   5.386   6.871
   15SAPS   C34 1950   7.397   5.474   7.002
   15SAPS   H4X 1951   7.346   5.565   7.031
   15SAPS   H4Y 1952   7.506   5.495   6.992
   15SAPS   C35 1953   7.365   5.382   7.120
   15SAPS   H5X 1954   7.383   5.293   7.077
   15SAPS   H5Y 1955   7.279   5.315   7.124
   15SAPS   C36 1956   7.443   5.397   7.252
   15SAPS   H6X 1957   7.553   5.419   7.245
   15SAPS   H6Y 1958   7.432   5.303   7.309
   15SAPS   C37 1959   7.377   5.505   7.327
   15SAPS   H7X 1960   7.397   5.592   7.260
   15SAPS   H7Y 1961   7.423   5.518   7.425
   15SAPS   C38 1962   7.227   5.484   7.346
   15SAPS   H8X 1963   7.196   5.397   7.407
   15SAPS   H8Y 1964   7.193   5.468   7.244
   15SAPS   C39 1965   7.154   5.611   7.390
   15SAPS   H9X 1966   7.046   5.595   7.373
   15SAPS   H9Y 1967   7.188   5.690   7.320
   15SAPS  C310 1968   7.185   5.658   7.532
   15SAPS  H10X 1969   7.154   5.765   7.547
   15SAPS  H10Y 1970   7.295   5.662   7.541
   15SAPS  C311 1971   7.137   5.563   7.644
   15SAPS  H11X 1972   7.169   5.601   7.746
   15SAPS  H11Y 1973   7.166   5.462   7.640
   15SAPS  C312 1974   6.991   5.548   7.659
   15SAPS  H12X 1975   6.955   5.514   7.759
   15SAPS  H12Y 1976   6.927   5.501   7.583
   15SAPS  C313 1977   6.959   5.675   7.673
   15SAPS  H13X 1978   6.882   5.668   7.748
   15SAPS  H13Y 1979   6.944   5.715   7.573
   15SAPS  C314 1980   6.962   5.738   7.799
   15SAPS  H14X 1981   7.055   5.732   7.747
   15SAPS  H14Y 1982   6.985   5.692   7.894
   15SAPS  C315 1983   6.903   5.889   7.825
   15SAPS  H15X 1984   6.940   5.871   7.928
   15SAPS  H15Y 1985   6.819   5.885   7.808
   15SAPS  C316 1986   6.944   6.080   7.777
   15SAPS  H16X 1987   6.857   6.133   7.763
   15SAPS  H16Y 1988   6.937   6.131   7.688
   15SAPS  C317 1989   7.069   6.143   7.709
   15SAPS  H17X 1990   7.059   6.223   7.627
   15SAPS  H17Y 1991   7.117   6.068   7.652
   15SAPS  C318 1992   7.157   6.156   7.823
   15SAPS  H18X 1993   7.141   6.242   7.804
   15SAPS  H18Y 1994   7.257   6.137   7.821
   15SAPS  H18Z 1995   7.145   6.127   7.932
   16SAPS     N 1996  -0.143   7.592   6.049
   16SAPS   HN1 1997  -0.084   7.670   6.101
   16SAPS   HN2 1998  -0.173   7.674   5.987
   16SAPS   HN3 1999  -0.210   7.571   6.122
   16SAPS   C12 2000  -0.040   7.536   6.020
   16SAPS  H12A 2001  -0.109   7.551   5.939
   16SAPS   C13 2002   0.053   7.619   5.955
   16SAPS  O13A 2003   0.019   7.738   5.964
   16SAPS  O13B 2004   0.157   7.585   5.904
   16SAPS   C11 2005  -0.002   7.410   6.108
   16SAPS  H11A 2006  -0.084   7.377   6.172
   16SAPS  H11B 2007   0.078   7.443   6.169
   16SAPS     P 2008   0.019   7.163   5.984
   16SAPS   O13 2009  -0.105   7.167   5.907
   16SAPS   O14 2010   0.131   7.086   5.926
   16SAPS   O12 2011   0.065   7.299   6.058
   16SAPS   O11 2012  -0.030   7.114   6.116
   16SAPS    C1 2013   0.074   7.069   6.195
   16SAPS    HA 2014   0.129   6.988   6.140
   16SAPS    HB 2015   0.146   7.147   6.228
   16SAPS    C2 2016  -0.006   7.030   6.312
   16SAPS    HS 2017  -0.080   6.956   6.274
   16SAPS   O21 2018  -0.067   7.154   6.371
   16SAPS   C21 2019  -0.132   7.132   6.485
   16SAPS   O22 2020  -0.153   7.028   6.527
   16SAPS   C22 2021  -0.193   7.234   6.572
   16SAPS   H2R 2022  -0.114   7.306   6.570
   16SAPS   H2S 2023  -0.288   7.259   6.523
   16SAPS    C3 2024   0.093   6.964   6.396
   16SAPS    HX 2025   0.165   6.892   6.348
   16SAPS    HY 2026   0.046   6.883   6.443
   16SAPS   O31 2027   0.138   7.074   6.479
   16SAPS   C31 2028   0.203   7.027   6.570
   16SAPS   O32 2029   0.217   6.905   6.573
   16SAPS   C32 2030   0.281   7.157   6.629
   16SAPS   H2X 2031   0.249   7.248   6.583
   16SAPS   H2Y 2032   0.377   7.194   6.581
   16SAPS   C23 2033  -0.208   7.213   6.726
   16SAPS   H3R 2034  -0.243   7.309   6.768
   16SAPS   H3S 2035  -0.117   7.177   6.778
   16SAPS   C24 2036  -0.303   7.119   6.778
   16SAPS   H4R 2037  -0.282   7.022   6.758
   16SAPS   H4S 2038  -0.395   7.116   6.725
   16SAPS   C25 2039  -0.300   7.126   6.924
   16SAPS   H5R 2040  -0.388   7.188   6.948
   16SAPS   C26 2041  -0.248   7.034   7.012
   16SAPS   H6R 2042  -0.292   7.022   7.112
   16SAPS   C27 2043  -0.176   6.902   6.991
   16SAPS   H7R 2044  -0.192   6.835   6.913
   16SAPS   H7S 2045  -0.183   6.823   7.065
   16SAPS   C28 2046  -0.045   6.928   6.955
   16SAPS   H8R 2047  -0.025   6.949   6.850
   16SAPS   C29 2048   0.040   6.950   7.047
   16SAPS   H9R 2049   0.139   6.967   7.012
   16SAPS  C210 2050   0.003   6.952   7.191
   16SAPS  H10R 2051  -0.092   7.008   7.199
   16SAPS  H10S 2052   0.075   7.021   7.237
   16SAPS  C211 2053  -0.029   6.830   7.272
   16SAPS  H11R 2054  -0.089   6.754   7.221
   16SAPS  C212 2055   0.004   6.813   7.400
   16SAPS  H12R 2056  -0.029   6.725   7.455
   16SAPS  C213 2057   0.077   6.912   7.482
   16SAPS  H13R 2058   0.032   6.914   7.585
   16SAPS  H13S 2059   0.067   7.016   7.444
   16SAPS  C214 2060   0.224   6.885   7.471
   16SAPS  H14R 2061   0.264   6.792   7.431
   16SAPS  C215 2062   0.307   6.954   7.542
   16SAPS  H15R 2063   0.416   6.948   7.541
   16SAPS  C216 2064   0.254   7.050   7.629
   16SAPS  H16R 2065   0.151   7.040   7.660
   16SAPS  H16S 2066   0.276   7.141   7.592
   16SAPS  C217 2067   0.319   7.079   7.749
   16SAPS  H17R 2068   0.319   7.186   7.767
   16SAPS  H17S 2069   0.415   7.099   7.733
   16SAPS  C218 2070   0.247   7.008   7.856
   16SAPS  H18R 2071   0.283   6.908   7.836
   16SAPS  H18S 2072   0.143   7.010   7.851
   16SAPS  C219 2073   0.238   7.045   8.003
   16SAPS  H19R 2074   0.332   7.043   8.043
   16SAPS  H19S 2075   0.271   6.980   8.064
   16SAPS  C220 2076   0.155   7.110   8.098
   16SAPS  H20R 2077   0.195   7.097   8.203
   16SAPS  H20S 2078   0.058   7.080   8.071
   16SAPS  H20T 2079   0.158   7.212   8.121
   16SAPS   C33 2080   0.323   7.145   6.776
   16SAPS   H3X 2081   0.421   7.172   6.813
   16SAPS   H3Y 2082   0.328   7.050   6.817
   16SAPS   C34 2083   0.225   7.207   6.853
   16SAPS   H4X 2084   0.127   7.164   6.830
   16SAPS   H4Y 2085   0.253   7.300   6.801
   16SAPS   C35 2086   0.250   7.204   6.995
   16SAPS   H5X 2087   0.349   7.255   6.990
   16SAPS   H5Y 2088   0.254   7.106   7.040
   16SAPS   C36 2089   0.154   7.273   7.088
   16SAPS   H6X 2090   0.220   7.362   7.087
   16SAPS   H6Y 2091   0.155   7.250   7.192
   16SAPS   C37 2092  -0.002   7.284   7.067
   16SAPS   H7X 2093  -0.029   7.186   7.104
   16SAPS   H7Y 2094  -0.032   7.291   6.961
   16SAPS   C38 2095  -0.083   7.402   7.129
   16SAPS   H8X 2096  -0.068   7.496   7.075
   16SAPS   H8Y 2097  -0.056   7.419   7.233
   16SAPS   C39 2098  -0.233   7.408   7.112
   16SAPS   H9X 2099  -0.253   7.374   7.009
   16SAPS   H9Y 2100  -0.267   7.515   7.112
   16SAPS  C310 2101  -0.299   7.331   7.226
   16SAPS  H10X 2102  -0.248   7.232   7.228
   16SAPS  H10Y 2103  -0.406   7.315   7.202
   16SAPS  C311 2104  -0.287   7.397   7.365
   16SAPS  H11X 2105  -0.343   7.493   7.363
   16SAPS  H11Y 2106  -0.180   7.416   7.387
   16SAPS  C312 2107  -0.353   7.321   7.482
   16SAPS  H12X 2108  -0.457   7.296   7.451
   16SAPS  H12Y 2109  -0.360   7.389   7.571
   16SAPS  C313 2110  -0.299   7.182   7.512
   16SAPS  H13X 2111  -0.294   7.130   7.415
   16SAPS  H13Y 2112  -0.365   7.127   7.583
   16SAPS  C314 2113  -0.159   7.173   7.558
   16SAPS  H14X 2114  -0.085   7.226   7.493
   16SAPS  H14Y 2115  -0.124   7.068   7.573
   16SAPS  C315 2116  -0.153   7.237   7.689
   16SAPS  H15X 2117  -0.158   7.347   7.670
   16SAPS  H15Y 2118  -0.060   7.179   7.705
   16SAPS  C316 2119  -0.233   7.209   7.806
   16SAPS  H16X 2120  -0.248   7.106   7.789
   16SAPS  H16Y 2121  -0.322   7.271   7.795
   16SAPS  C317 2122  -0.177   7.229   7.945
   16SAPS  H17X 2123  -0.102   7.159   7.981
   16SAPS  H17Y 2124  -0.268   7.192   7.994
   16SAPS  C318 2125  -0.130   7.371   7.983
   16SAPS  H18X 2126  -0.104   7.383   8.091
   16SAPS  H18Y 2127  -0.203   7.448   7.951
   16SAPS  H18Z 2128  -0.041   7.394   7.932
   17SAPC     N 2129   4.340   3.981  10.038
   17SAPC   C12 2130   4.380   3.867   9.949
   17SAPC  H12A 2131   4.458   3.807   9.996
   17SAPC  H12B 2132   4.418   3.910   9.858
   17SAPC   C13 2133   4.456   4.071  10.054
   17SAPC  H13A 2134   4.487   4.102   9.956
   17SAPC  H13B 2135   4.429   4.159  10.112
   17SAPC  H13C 2136   4.538   4.024  10.106
   17SAPC   C14 2137   4.232   4.058   9.969
   17SAPC  H14A 2138   4.154   3.994   9.929
   17SAPC  H14B 2139   4.190   4.131  10.036
   17SAPC  H14C 2140   4.276   4.113   9.887
   17SAPC   C15 2141   4.299   3.931  10.172
   17SAPC  H15A 2142   4.217   3.859  10.162
   17SAPC  H15B 2143   4.380   3.876  10.218
   17SAPC  H15C 2144   4.274   4.012  10.239
   17SAPC   C11 2145   4.265   3.775   9.917
   17SAPC  H11A 2146   4.283   3.725   9.817
   17SAPC  H11B 2147   4.170   3.829   9.897
   17SAPC     P 2148   4.215   3.547   9.996
   17SAPC   O13 2149   4.182   3.461  10.112
   17SAPC   O14 2150   4.107   3.582   9.902
   17SAPC   O12 2151   4.249   3.691  10.035
   17SAPC   O11 2152   4.353   3.502   9.925
   17SAPC    C1 2153   4.462   3.490  10.017
   17SAPC    HA 2154   4.484   3.582  10.070
   17SAPC    HB 2155   4.443   3.404  10.084
   17SAPC    C2 2156   4.594   3.462   9.957
   17SAPC    HS 2157   4.685   3.466  10.022
   17SAPC   O21 2158   4.621   3.530   9.834
   17SAPC   C21 2159   4.641   3.653   9.846
   17SAPC   O22 2160   4.674   3.714   9.947
   17SAPC   C22 2161   4.619   3.716   9.713
   17SAPC   H2R 2162   4.598   3.645   9.632
   17SAPC   H2S 2163   4.544   3.796   9.713
   17SAPC    C3 2164   4.564   3.316   9.941
   17SAPC    HX 2165   4.592   3.240  10.003
   17SAPC    HY 2166   4.667   3.319   9.894
   17SAPC   O31 2167   4.430   3.258   9.895
   17SAPC   C31 2168   4.446   3.259   9.770
   17SAPC   O32 2169   4.545   3.311   9.738
   17SAPC   C32 2170   4.335   3.207   9.679
   17SAPC   H2X 2171   4.277   3.155   9.754
   17SAPC   H2Y 2172   4.329   3.133   9.600
   17SAPC   C23 2173   4.749   3.771   9.678
   17SAPC   H3R 2174   4.824   3.687   9.681
   17SAPC   H3S 2175   4.786   3.831   9.763
   17SAPC   C24 2176   4.725   3.848   9.546
   17SAPC   H4R 2177   4.822   3.886   9.560
   17SAPC   H4S 2178   4.707   3.958   9.546
   17SAPC   C25 2179   4.703   3.768   9.411
   17SAPC   H5R 2180   4.780   3.705   9.360
   17SAPC   C26 2181   4.638   3.810   9.310
   17SAPC   H6R 2182   4.654   3.756   9.215
   17SAPC   C27 2183   4.573   3.940   9.319
   17SAPC   H7R 2184   4.558   3.974   9.423
   17SAPC   H7S 2185   4.479   3.907   9.278
   17SAPC   C28 2186   4.599   4.067   9.252
   17SAPC   H8R 2187   4.650   4.144   9.311
   17SAPC   C29 2188   4.601   4.083   9.123
   17SAPC   H9R 2189   4.650   4.175   9.095
   17SAPC  C210 2190   4.583   3.986   9.011
   17SAPC  H10R 2191   4.554   3.890   9.050
   17SAPC  H10S 2192   4.673   3.960   8.973
   17SAPC  C211 2193   4.542   4.031   8.877
   17SAPC  H11R 2194   4.438   4.040   8.891
   17SAPC  C212 2195   4.589   4.049   8.750
   17SAPC  H12R 2196   4.526   4.092   8.675
   17SAPC  C213 2197   4.711   4.032   8.671
   17SAPC  H13R 2198   4.797   4.081   8.703
   17SAPC  H13S 2199   4.740   4.101   8.586
   17SAPC  C214 2200   4.729   3.884   8.682
   17SAPC  H14R 2201   4.783   3.843   8.767
   17SAPC  C215 2202   4.692   3.801   8.590
   17SAPC  H15R 2203   4.755   3.712   8.579
   17SAPC  C216 2204   4.629   3.868   8.471
   17SAPC  H16R 2205   4.689   3.944   8.410
   17SAPC  H16S 2206   4.545   3.920   8.509
   17SAPC  C217 2207   4.606   3.765   8.367
   17SAPC  H17R 2208   4.535   3.693   8.407
   17SAPC  H17S 2209   4.694   3.708   8.341
   17SAPC  C218 2210   4.559   3.822   8.240
   17SAPC  H18R 2211   4.627   3.892   8.187
   17SAPC  H18S 2212   4.466   3.876   8.260
   17SAPC  C219 2213   4.524   3.712   8.155
   17SAPC  H19R 2214   4.437   3.648   8.188
   17SAPC  H19S 2215   4.599   3.659   8.100
   17SAPC  C220 2216   4.518   3.769   8.033
   17SAPC  H20R 2217   4.526   3.693   7.945
   17SAPC  H20S 2218   4.536   3.859   7.977
   17SAPC  H20T 2219   4.411   3.802   8.072
   17SAPC   C33 2220   4.275   3.336   9.615
   17SAPC   H3X 2221   4.291   3.424   9.682
   17SAPC   H3Y 2222   4.199   3.275   9.608
   17SAPC   C34 2223   4.175   3.354   9.477
   17SAPC   H4X 2224   4.162   3.254   9.436
   17SAPC   H4Y 2225   4.264   3.406   9.501
   17SAPC   C35 2226   4.089   3.450   9.385
   17SAPC   H5X 2227   4.128   3.539   9.412
   17SAPC   H5Y 2228   3.994   3.470   9.399
   17SAPC   C36 2229   4.100   3.582   9.298
   17SAPC   H6X 2230   4.109   3.512   9.216
   17SAPC   H6Y 2231   4.178   3.641   9.252
   17SAPC   C37 2232   4.024   3.689   9.321
   17SAPC   H7X 2233   4.053   3.784   9.356
   17SAPC   H7Y 2234   3.941   3.625   9.396
   17SAPC   C38 2235   4.028   3.749   9.169
   17SAPC   H8X 2236   4.122   3.805   9.167
   17SAPC   H8Y 2237   3.938   3.804   9.134
   17SAPC   C39 2238   4.081   3.676   9.044
   17SAPC   H9X 2239   3.987   3.636   9.027
   17SAPC   H9Y 2240   4.140   3.583   9.033
   17SAPC  C310 2241   4.098   3.765   8.931
   17SAPC  H10X 2242   4.086   3.870   8.927
   17SAPC  H10Y 2243   3.991   3.792   8.918
   17SAPC  C311 2244   4.136   3.683   8.816
   17SAPC  H11X 2245   4.103   3.767   8.749
   17SAPC  H11Y 2246   4.089   3.579   8.821
   17SAPC  C312 2247   4.255   3.671   8.736
   17SAPC  H12X 2248   4.269   3.649   8.834
   17SAPC  H12Y 2249   4.294   3.769   8.717
   17SAPC  C313 2250   4.276   3.557   8.638
   17SAPC  H13X 2251   4.264   3.612   8.544
   17SAPC  H13Y 2252   4.211   3.468   8.639
   17SAPC  C314 2253   4.417   3.504   8.631
   17SAPC  H14X 2254   4.441   3.433   8.710
   17SAPC  H14Y 2255   4.488   3.592   8.638
   17SAPC  C315 2256   4.428   3.402   8.526
   17SAPC  H15X 2257   4.414   3.467   8.438
   17SAPC  H15Y 2258   4.352   3.327   8.519
   17SAPC  C316 2259   4.551   3.313   8.542
   17SAPC  H16X 2260   4.598   3.274   8.633
   17SAPC  H16Y 2261   4.585   3.413   8.539
   17SAPC  C317 2262   4.569   3.221   8.424
   17SAPC  H17X 2263   4.489   3.263   8.359
   17SAPC  H17Y 2264   4.556   3.122   8.461
   17SAPC  C318 2265   4.689   3.219   8.332
   17SAPC  H18X 2266   4.755   3.171   8.264
   17SAPC  H18Y 2267   4.757   3.194   8.420
   17SAPC  H18Z 2268   4.607   3.164   8.265
   18SAPC     N 2269   4.780   2.985  10.181
   18SAPC   C12 2270   4.723   3.116  10.138
   18SAPC  H12A 2271   4.700   3.179  10.223
   18SAPC  H12B 2272   4.626   3.102  10.089
   18SAPC   C13 2273   4.697   2.922  10.284
   18SAPC  H13A 2274   4.593   2.919  10.253
   18SAPC  H13B 2275   4.729   2.819  10.292
   18SAPC  H13C 2276   4.707   2.977  10.376
   18SAPC   C14 2277   4.778   2.884  10.073
   18SAPC  H14A 2278   4.838   2.798  10.103
   18SAPC  H14B 2279   4.675   2.853  10.058
   18SAPC  H14C 2280   4.813   2.929   9.981
   18SAPC   C15 2281   4.919   3.013  10.225
   18SAPC  H15A 2282   4.920   3.084  10.306
   18SAPC  H15B 2283   4.965   2.922  10.258
   18SAPC  H15C 2284   4.971   3.056  10.140
   18SAPC   C11 2285   4.812   3.194  10.039
   18SAPC  H11A 2286   4.908   3.232  10.076
   18SAPC  H11B 2287   4.768   3.296  10.047
   18SAPC     P 2288   4.711   3.088   9.797
   18SAPC   O13 2289   4.720   3.007   9.676
   18SAPC   O14 2290   4.586   3.057   9.876
   18SAPC   O12 2291   4.822   3.125   9.909
   18SAPC   O11 2292   4.748   3.230   9.738
   18SAPC    C1 2293   4.820   3.308   9.651
   18SAPC    HA 2294   4.887   3.371   9.711
   18SAPC    HB 2295   4.857   3.225   9.591
   18SAPC    C2 2296   4.749   3.413   9.563
   18SAPC    HS 2297   4.709   3.503   9.605
   18SAPC   O21 2298   4.646   3.338   9.519
   18SAPC   C21 2299   4.509   3.364   9.522
   18SAPC   O22 2300   4.483   3.466   9.588
   18SAPC   C22 2301   4.396   3.278   9.406
   18SAPC   H2R 2302   4.402   3.189   9.370
   18SAPC   H2S 2303   4.347   3.214   9.453
   18SAPC    C3 2304   4.843   3.451   9.454
   18SAPC    HX 2305   4.907   3.509   9.533
   18SAPC    HY 2306   4.816   3.525   9.379
   18SAPC   O31 2307   4.882   3.326   9.380
   18SAPC   C31 2308   5.003   3.350   9.358
   18SAPC   O32 2309   5.049   3.446   9.416
   18SAPC   C32 2310   5.088   3.248   9.275
   18SAPC   H2X 2311   5.171   3.201   9.330
   18SAPC   H2Y 2312   5.145   3.285   9.192
   18SAPC   C23 2313   4.306   3.291   9.272
   18SAPC   H3R 2314   4.403   3.328   9.253
   18SAPC   H3S 2315   4.359   3.365   9.273
   18SAPC   C24 2316   4.290   3.365   9.140
   18SAPC   H4R 2317   4.267   3.470   9.141
   18SAPC   H4S 2318   4.221   3.306   9.094
   18SAPC   C25 2319   4.369   3.336   9.027
   18SAPC   H5R 2320   4.387   3.234   9.013
   18SAPC   C26 2321   4.427   3.401   8.942
   18SAPC   H6R 2322   4.471   3.338   8.867
   18SAPC   C27 2323   4.416   3.541   8.943
   18SAPC   H7R 2324   4.313   3.556   8.973
   18SAPC   H7S 2325   4.422   3.555   8.841
   18SAPC   C28 2326   4.486   3.663   8.965
   18SAPC   H8R 2327   4.431   3.756   8.978
   18SAPC   C29 2328   4.612   3.658   8.972
   18SAPC   H9R 2329   4.646   3.742   9.022
   18SAPC  C210 2330   4.694   3.537   8.963
   18SAPC  H10R 2331   4.689   3.497   8.862
   18SAPC  H10S 2332   4.670   3.476   9.049
   18SAPC  C211 2333   4.828   3.573   8.984
   18SAPC  H11R 2334   4.859   3.613   9.084
   18SAPC  C212 2335   4.925   3.568   8.898
   18SAPC  H12R 2336   5.003   3.626   8.942
   18SAPC  C213 2337   4.958   3.530   8.758
   18SAPC  H13R 2338   5.066   3.518   8.726
   18SAPC  H13S 2339   4.941   3.608   8.686
   18SAPC  C214 2340   4.915   3.386   8.766
   18SAPC  H14R 2341   4.892   3.342   8.864
   18SAPC  C215 2342   4.931   3.302   8.667
   18SAPC  H15R 2343   4.875   3.213   8.660
   18SAPC  C216 2344   4.991   3.340   8.545
   18SAPC  H16R 2345   5.065   3.282   8.487
   18SAPC  H16S 2346   5.063   3.406   8.586
   18SAPC  C217 2347   4.904   3.402   8.453
   18SAPC  H17R 2348   4.908   3.321   8.366
   18SAPC  H17S 2349   4.980   3.504   8.479
   18SAPC  C218 2350   4.771   3.467   8.448
   18SAPC  H18R 2351   4.762   3.570   8.470
   18SAPC  H18S 2352   4.754   3.434   8.551
   18SAPC  C219 2353   4.659   3.478   8.332
   18SAPC  H19R 2354   4.567   3.524   8.362
   18SAPC  H19S 2355   4.591   3.404   8.304
   18SAPC  C220 2356   4.680   3.481   8.189
   18SAPC  H20R 2357   4.720   3.582   8.194
   18SAPC  H20S 2358   4.576   3.474   8.137
   18SAPC  H20T 2359   4.751   3.412   8.149
   18SAPC   C33 2360   5.007   3.136   9.230
   18SAPC   H3X 2361   4.950   3.098   9.317
   18SAPC   H3Y 2362   5.083   3.061   9.198
   18SAPC   C34 2363   4.919   3.188   9.118
   18SAPC   H4X 2364   4.982   3.216   9.032
   18SAPC   H4Y 2365   4.867   3.282   9.147
   18SAPC   C35 2366   4.824   3.078   9.081
   18SAPC   H5X 2367   4.769   3.048   9.171
   18SAPC   H5Y 2368   4.882   2.988   9.059
   18SAPC   C36 2369   4.739   3.112   8.959
   18SAPC   H6X 2370   4.808   3.136   8.876
   18SAPC   H6Y 2371   4.676   3.202   8.980
   18SAPC   C37 2372   4.654   2.992   8.914
   18SAPC   H7X 2373   4.580   3.023   8.837
   18SAPC   H7Y 2374   4.606   2.955   9.004
   18SAPC   C38 2375   4.724   2.862   8.881
   18SAPC   H8X 2376   4.648   2.782   8.861
   18SAPC   H8Y 2377   4.784   2.828   8.968
   18SAPC   C39 2378   4.813   2.879   8.761
   18SAPC   H9X 2379   4.858   2.779   8.740
   18SAPC   H9Y 2380   4.894   2.951   8.786
   18SAPC  C310 2381   4.735   2.929   8.639
   18SAPC  H10X 2382   4.686   3.027   8.660
   18SAPC  H10Y 2383   4.655   2.853   8.618
   18SAPC  C311 2384   4.826   2.941   8.517
   18SAPC  H11X 2385   4.898   2.857   8.522
   18SAPC  H11Y 2386   4.889   3.033   8.528
   18SAPC  C312 2387   4.750   2.934   8.384
   18SAPC  H12X 2388   4.678   3.009   8.387
   18SAPC  H12Y 2389   4.670   2.861   8.374
   18SAPC  C313 2390   4.836   2.942   8.258
   18SAPC  H13X 2391   4.883   2.842   8.257
   18SAPC  H13Y 2392   4.913   3.021   8.270
   18SAPC  C314 2393   4.759   2.974   8.129
   18SAPC  H14X 2394   4.699   3.062   8.138
   18SAPC  H14Y 2395   4.687   2.894   8.099
   18SAPC  C315 2396   4.851   3.014   8.016
   18SAPC  H15X 2397   4.895   2.916   8.029
   18SAPC  H15Y 2398   4.929   3.089   8.034
   18SAPC  C316 2399   4.778   3.052   7.888
   18SAPC  H16X 2400   4.703   3.126   7.905
   18SAPC  H16Y 2401   4.706   2.974   7.870
   18SAPC  C317 2402   4.856   3.086   7.762
   18SAPC  H17X 2403   4.790   3.058   7.675
   18SAPC  H17Y 2404   4.954   3.035   7.762
   18SAPC  C318 2405   4.928   3.209   7.732
   18SAPC  H18X 2406   5.008   3.217   7.810
   18SAPC  H18Y 2407   4.848   3.283   7.742
   18SAPC  H18Z 2408   4.972   3.203   7.629
   19SAPC     N 2409   4.747   6.626   9.835
   19SAPC   C12 2410   4.643   6.720   9.892
   19SAPC  H12A 2411   4.557   6.707   9.829
   19SAPC  H12B 2412   4.678   6.823   9.882
   19SAPC   C13 2413   4.691   6.488   9.847
   19SAPC  H13A 2414   4.650   6.475   9.947
   19SAPC  H13B 2415   4.606   6.468   9.781
   19SAPC  H13C 2416   4.763   6.410   9.825
   19SAPC   C14 2417   4.779   6.665   9.693
   19SAPC  H14A 2418   4.691   6.679   9.631
   19SAPC  H14B 2419   4.835   6.758   9.692
   19SAPC  H14C 2420   4.841   6.588   9.649
   19SAPC   C15 2421   4.871   6.641   9.919
   19SAPC  H15A 2422   4.957   6.585   9.888
   19SAPC  H15B 2423   4.894   6.747   9.923
   19SAPC  H15C 2424   4.849   6.615  10.023
   19SAPC   C11 2425   4.603   6.700  10.040
   19SAPC  H11A 2426   4.577   6.594  10.064
   19SAPC  H11B 2427   4.512   6.755  10.065
   19SAPC     P 2428   4.732   6.900  10.159
   19SAPC   O13 2429   4.692   6.920  10.299
   19SAPC   O14 2430   4.876   6.916  10.127
   19SAPC   O12 2431   4.704   6.747  10.127
   19SAPC   O11 2432   4.637   6.976  10.055
   19SAPC    C1 2433   4.693   7.062   9.955
   19SAPC    HA 2434   4.735   7.153  10.003
   19SAPC    HB 2435   4.771   7.011   9.893
   19SAPC    C2 2436   4.583   7.104   9.857
   19SAPC    HS 2437   4.502   7.148   9.916
   19SAPC   O21 2438   4.537   6.989   9.790
   19SAPC   C21 2439   4.421   7.003   9.731
   19SAPC   O22 2440   4.321   7.058   9.767
   19SAPC   C22 2441   4.426   6.905   9.634
   19SAPC   H2R 2442   4.511   6.915   9.559
   19SAPC   H2S 2443   4.449   6.824   9.709
   19SAPC    C3 2444   4.628   7.206   9.749
   19SAPC    HX 2445   4.656   7.299   9.804
   19SAPC    HY 2446   4.538   7.225   9.686
   19SAPC   O31 2447   4.742   7.163   9.672
   19SAPC   C31 2448   4.725   7.133   9.544
   19SAPC   O32 2449   4.620   7.131   9.483
   19SAPC   C32 2450   4.861   7.114   9.480
   19SAPC   H2X 2451   4.940   7.119   9.559
   19SAPC   H2Y 2452   4.871   7.201   9.411
   19SAPC   C23 2453   4.290   6.876   9.562
   19SAPC   H3R 2454   4.322   6.948   9.480
   19SAPC   H3S 2455   4.207   6.888   9.628
   19SAPC   C24 2456   4.194   6.727   9.509
   19SAPC   H4R 2457   4.260   6.784   9.476
   19SAPC   H4S 2458   4.167   6.714   9.406
   19SAPC   C25 2459   4.218   6.569   9.498
   19SAPC   H5R 2460   4.217   6.603   9.597
   19SAPC   C26 2461   4.303   6.464   9.442
   19SAPC   H6R 2462   4.332   6.384   9.513
   19SAPC   C27 2463   4.436   6.463   9.341
   19SAPC   H7R 2464   4.376   6.481   9.258
   19SAPC   H7S 2465   4.451   6.397   9.260
   19SAPC   C28 2466   4.592   6.496   9.345
   19SAPC   H8R 2467   4.639   6.504   9.446
   19SAPC   C29 2468   4.655   6.553   9.242
   19SAPC   H9R 2469   4.740   6.614   9.268
   19SAPC  C210 2470   4.589   6.591   9.112
   19SAPC  H10R 2471   4.506   6.518   9.093
   19SAPC  H10S 2472   4.665   6.572   9.042
   19SAPC  C211 2473   4.541   6.730   9.082
   19SAPC  H11R 2474   4.516   6.771   9.168
   19SAPC  C212 2475   4.534   6.832   9.001
   19SAPC  H12R 2476   4.441   6.895   9.002
   19SAPC  C213 2477   4.601   6.816   8.875
   19SAPC  H13R 2478   4.570   6.896   8.810
   19SAPC  H13S 2479   4.578   6.716   8.833
   19SAPC  C214 2480   4.743   6.808   8.896
   19SAPC  H14R 2481   4.787   6.872   8.974
   19SAPC  C215 2482   4.812   6.735   8.813
   19SAPC  H15R 2483   4.907   6.717   8.856
   19SAPC  C216 2484   4.779   6.651   8.689
   19SAPC  H16R 2485   4.678   6.664   8.653
   19SAPC  H16S 2486   4.798   6.544   8.717
   19SAPC  C217 2487   4.854   6.682   8.555
   19SAPC  H17R 2488   4.872   6.595   8.489
   19SAPC  H17S 2489   4.950   6.725   8.573
   19SAPC  C218 2490   4.851   6.820   8.494
   19SAPC  H18R 2491   4.858   6.898   8.574
   19SAPC  H18S 2492   4.753   6.816   8.449
   19SAPC  C219 2493   4.967   6.844   8.394
   19SAPC  H19R 2494   4.960   6.761   8.320
   19SAPC  H19S 2495   5.070   6.838   8.437
   19SAPC  C220 2496   4.958   6.981   8.332
   19SAPC  H20R 2497   4.969   7.060   8.411
   19SAPC  H20S 2498   4.861   6.991   8.282
   19SAPC  H20T 2499   5.037   6.989   8.255
   19SAPC   C33 2500   4.874   6.989   9.391
   19SAPC   H3X 2501   4.795   6.986   9.313
   19SAPC   H3Y 2502   4.859   6.896   9.448
   19SAPC   C34 2503   5.013   6.985   9.326
   19SAPC   H4X 2504   5.021   6.884   9.280
   19SAPC   H4Y 2505   5.085   6.989   9.411
   19SAPC   C35 2506   5.046   7.096   9.222
   19SAPC   H5X 2507   5.142   7.070   9.173
   19SAPC   H5Y 2508   5.074   7.192   9.271
   19SAPC   C36 2509   4.939   7.119   9.111
   19SAPC   H6X 2510   4.847   7.164   9.152
   19SAPC   H6Y 2511   4.906   7.021   9.070
   19SAPC   C37 2512   4.989   7.201   8.992
   19SAPC   H7X 2513   5.077   7.154   8.943
   19SAPC   H7Y 2514   5.022   7.301   9.029
   19SAPC   C38 2515   4.883   7.228   8.885
   19SAPC   H8X 2516   4.918   7.316   8.833
   19SAPC   H8Y 2517   4.787   7.255   8.933
   19SAPC   C39 2518   4.855   7.123   8.777
   19SAPC   H9X 2519   4.783   7.051   8.820
   19SAPC   H9Y 2520   4.944   7.073   8.735
   19SAPC  C310 2521   4.788   7.189   8.659
   19SAPC  H10X 2522   4.823   7.144   8.563
   19SAPC  H10Y 2523   4.820   7.294   8.661
   19SAPC  C311 2524   4.639   7.184   8.673
   19SAPC  H11X 2525   4.602   7.239   8.763
   19SAPC  H11Y 2526   4.596   7.083   8.679
   19SAPC  C312 2527   4.587   7.243   8.548
   19SAPC  H12X 2528   4.629   7.336   8.512
   19SAPC  H12Y 2529   4.499   7.275   8.590
   19SAPC  C313 2530   4.523   7.162   8.442
   19SAPC  H13X 2531   4.470   7.239   8.392
   19SAPC  H13Y 2532   4.429   7.110   8.459
   19SAPC  C314 2533   4.631   7.101   8.356
   19SAPC  H14X 2534   4.667   7.028   8.428
   19SAPC  H14Y 2535   4.710   7.176   8.331
   19SAPC  C315 2536   4.595   7.030   8.226
   19SAPC  H15X 2537   4.678   6.981   8.177
   19SAPC  H15Y 2538   4.586   7.110   8.153
   19SAPC  C316 2539   4.475   6.933   8.239
   19SAPC  H16X 2540   4.383   6.976   8.285
   19SAPC  H16Y 2541   4.500   6.865   8.319
   19SAPC  C317 2542   4.431   6.863   8.109
   19SAPC  H17X 2543   4.506   6.787   8.087
   19SAPC  H17Y 2544   4.430   6.934   8.024
   19SAPC  C318 2545   4.289   6.802   8.119
   19SAPC  H18X 2546   4.206   6.872   8.096
   19SAPC  H18Y 2547   4.278   6.762   8.220
   19SAPC  H18Z 2548   4.269   6.728   8.044
   20SAPC     N 2549   4.438   7.593  10.011
   20SAPC   C12 2550   4.345   7.544  10.121
   20SAPC  H12A 2551   4.342   7.620  10.200
   20SAPC  H12B 2552   4.386   7.454  10.166
   20SAPC   C13 2553   4.388   7.719   9.947
   20SAPC  H13A 2554   4.454   7.755   9.868
   20SAPC  H13B 2555   4.293   7.699   9.900
   20SAPC  H13C 2556   4.375   7.799  10.019
   20SAPC   C14 2557   4.569   7.615  10.071
   20SAPC  H14A 2558   4.582   7.704  10.133
   20SAPC  H14B 2559   4.606   7.535  10.136
   20SAPC  H14C 2560   4.651   7.624   9.999
   20SAPC   C15 2561   4.454   7.489   9.905
   20SAPC  H15A 2562   4.497   7.398   9.944
   20SAPC  H15B 2563   4.356   7.462   9.868
   20SAPC  H15C 2564   4.520   7.521   9.825
   20SAPC   C11 2565   4.203   7.506  10.078
   20SAPC  H11A 2566   4.165   7.593  10.020
   20SAPC  H11B 2567   4.142   7.488  10.169
   20SAPC     P 2568   4.079   7.297   9.967
   20SAPC   O13 2569   4.103   7.232   9.837
   20SAPC   O14 2570   4.058   7.217  10.087
   20SAPC   O12 2571   4.202   7.393   9.994
   20SAPC   O11 2572   3.956   7.396   9.958
   20SAPC    C1 2573   3.950   7.514   9.879
   20SAPC    HA 2574   3.878   7.579   9.934
   20SAPC    HB 2575   4.045   7.567   9.875
   20SAPC    C2 2576   3.898   7.495   9.733
   20SAPC    HS 2577   3.795   7.519   9.715
   20SAPC   O21 2578   3.945   7.367   9.680
   20SAPC   C21 2579   3.858   7.315   9.596
   20SAPC   O22 2580   3.763   7.383   9.561
   20SAPC   C22 2581   3.873   7.170   9.568
   20SAPC   H2R 2582   3.840   7.099   9.648
   20SAPC   H2S 2583   3.814   7.146   9.478
   20SAPC    C3 2584   3.922   7.606   9.641
   20SAPC    HX 2585   3.878   7.690   9.702
   20SAPC    HY 2586   3.854   7.598   9.550
   20SAPC   O31 2587   4.060   7.610   9.622
   20SAPC   C31 2588   4.089   7.713   9.551
   20SAPC   O32 2589   4.008   7.794   9.509
   20SAPC   C32 2590   4.240   7.710   9.532
   20SAPC   H2X 2591   4.285   7.723   9.633
   20SAPC   H2Y 2592   4.273   7.792   9.466
   20SAPC   C23 2593   4.006   7.146   9.526
   20SAPC   H3R 2594   4.068   7.116   9.612
   20SAPC   H3S 2595   4.032   7.222   9.449
   20SAPC   C24 2596   3.997   7.034   9.453
   20SAPC   H4R 2597   3.921   7.048   9.377
   20SAPC   H4S 2598   3.964   6.951   9.527
   20SAPC   C25 2599   4.124   7.010   9.393
   20SAPC   H5R 2600   4.125   6.926   9.456
   20SAPC   C26 2601   4.197   7.009   9.284
   20SAPC   H6R 2602   4.299   6.980   9.284
   20SAPC   C27 2603   4.179   7.043   9.147
   20SAPC   H7R 2604   4.277   7.044   9.102
   20SAPC   H7S 2605   4.135   7.137   9.172
   20SAPC   C28 2606   4.113   6.958   9.048
   20SAPC   H8R 2607   4.099   6.855   9.080
   20SAPC   C29 2608   4.043   6.994   8.951
   20SAPC   H9R 2609   3.972   6.923   8.922
   20SAPC  C210 2610   4.008   7.127   8.910
   20SAPC  H10R 2611   3.934   7.113   8.828
   20SAPC  H10S 2612   4.101   7.166   8.878
   20SAPC  C211 2613   3.973   7.234   8.999
   20SAPC  H11R 2614   3.977   7.229   9.109
   20SAPC  C212 2615   3.908   7.326   8.940
   20SAPC  H12R 2616   3.877   7.396   9.015
   20SAPC  C213 2617   3.861   7.334   8.794
   20SAPC  H13R 2618   3.922   7.277   8.728
   20SAPC  H13S 2619   3.901   7.436   8.770
   20SAPC  C214 2620   3.731   7.279   8.730
   20SAPC  H14R 2621   3.647   7.338   8.786
   20SAPC  C215 2622   3.694   7.307   8.604
   20SAPC  H15R 2623   3.597   7.317   8.635
   20SAPC  C216 2624   3.753   7.408   8.489
   20SAPC  H16R 2625   3.791   7.339   8.422
   20SAPC  H16S 2626   3.829   7.485   8.526
   20SAPC  C217 2627   3.689   7.538   8.404
   20SAPC  H17R 2628   3.672   7.643   8.452
   20SAPC  H17S 2629   3.594   7.488   8.388
   20SAPC  C218 2630   3.725   7.578   8.272
   20SAPC  H18R 2631   3.656   7.661   8.237
   20SAPC  H18S 2632   3.705   7.486   8.214
   20SAPC  C219 2633   3.868   7.621   8.293
   20SAPC  H19R 2634   3.925   7.528   8.316
   20SAPC  H19S 2635   3.882   7.700   8.368
   20SAPC  C220 2636   3.920   7.678   8.171
   20SAPC  H20R 2637   3.838   7.634   8.116
   20SAPC  H20S 2638   4.020   7.637   8.141
   20SAPC  H20T 2639   3.901   7.779   8.133
   20SAPC   C33 2640   4.286   7.578   9.466
   20SAPC   H3X 2641   4.223   7.491   9.496
   20SAPC   H3Y 2642   4.391   7.555   9.498
   20SAPC   C34 2643   4.283   7.593   9.314
   20SAPC   H4X 2644   4.341   7.505   9.277
   20SAPC   H4Y 2645   4.339   7.684   9.285
   20SAPC   C35 2646   4.144   7.604   9.246
   20SAPC   H5X 2647   4.080   7.674   9.302
   20SAPC   H5Y 2648   4.096   7.504   9.252
   20SAPC   C36 2649   4.145   7.662   9.102
   20SAPC   H6X 2650   4.198   7.761   9.107
   20SAPC   H6Y 2651   4.042   7.683   9.068
   20SAPC   C37 2652   4.196   7.568   8.993
   20SAPC   H7X 2653   4.147   7.582   8.894
   20SAPC   H7Y 2654   4.192   7.462   9.024
   20SAPC   C38 2655   4.337   7.595   8.965
   20SAPC   H8X 2656   4.380   7.584   9.066
   20SAPC   H8Y 2657   4.344   7.704   8.945
   20SAPC   C39 2658   4.400   7.505   8.854
   20SAPC   H9X 2659   4.383   7.399   8.877
   20SAPC   H9Y 2660   4.512   7.505   8.850
   20SAPC  C310 2661   4.365   7.556   8.714
   20SAPC  H10X 2662   4.391   7.656   8.681
   20SAPC  H10Y 2663   4.259   7.552   8.695
   20SAPC  C311 2664   4.433   7.477   8.618
   20SAPC  H11X 2665   4.374   7.383   8.640
   20SAPC  H11Y 2666   4.545   7.472   8.629
   20SAPC  C312 2667   4.406   7.505   8.478
   20SAPC  H12X 2668   4.451   7.416   8.439
   20SAPC  H12Y 2669   4.454   7.594   8.441
   20SAPC  C313 2670   4.261   7.508   8.450
   20SAPC  H13X 2671   4.222   7.605   8.433
   20SAPC  H13Y 2672   4.204   7.439   8.522
   20SAPC  C314 2673   4.235   7.475   8.317
   20SAPC  H14X 2674   4.139   7.458   8.264
   20SAPC  H14Y 2675   4.263   7.370   8.383
   20SAPC  C315 2676   4.325   7.533   8.187
   20SAPC  H15X 2677   4.422   7.544   8.229
   20SAPC  H15Y 2678   4.320   7.636   8.162
   20SAPC  C316 2679   4.330   7.466   8.038
   20SAPC  H16X 2680   4.229   7.431   8.005
   20SAPC  H16Y 2681   4.379   7.364   8.016
   20SAPC  C317 2682   4.395   7.540   7.942
   20SAPC  H17X 2683   4.492   7.482   7.959
   20SAPC  H17Y 2684   4.439   7.632   7.966
   20SAPC  C318 2685   4.292   7.522   7.825
   20SAPC  H18X 2686   4.212   7.578   7.810
   20SAPC  H18Y 2687   4.261   7.416   7.803
   20SAPC  H18Z 2688   4.331   7.552   7.727
   21SAPC     N 2689   3.583   7.351   9.884
   21SAPC   C12 2690   3.572   7.449   9.994
   21SAPC  H12A 2691   3.544   7.547   9.956
   21SAPC  H12B 2692   3.670   7.458  10.042
   21SAPC   C13 2693   3.489   7.379   9.771
   21SAPC  H13A 2694   3.392   7.354   9.809
   21SAPC  H13B 2695   3.491   7.483   9.737
   21SAPC  H13C 2696   3.513   7.315   9.687
   21SAPC   C14 2697   3.697   7.375   9.834
   21SAPC  H14A 2698   3.686   7.476   9.794
   21SAPC  H14B 2699   3.795   7.372   9.886
   21SAPC  H14C 2700   3.727   7.322   9.744
   21SAPC   C15 2701   3.615   7.211   9.913
   21SAPC  H15A 2702   3.622   7.144   9.829
   21SAPC  H15B 2703   3.692   7.193   9.987
   21SAPC  H15C 2704   3.531   7.175   9.959
   21SAPC   C11 2705   3.466   7.413  10.094
   21SAPC  H11A 2706   3.466   7.492  10.168
   21SAPC  H11B 2707   3.498   7.322  10.151
   21SAPC     P 2708   3.212   7.365  10.130
   21SAPC   O13 2709   3.163   7.226  10.126
   21SAPC   O14 2710   3.244   7.414  10.264
   21SAPC   O12 2711   3.336   7.406  10.033
   21SAPC   O11 2712   3.103   7.450  10.063
   21SAPC    C1 2713   3.101   7.474   9.924
   21SAPC    HA 2714   3.020   7.549   9.901
   21SAPC    HB 2715   3.193   7.513   9.879
   21SAPC    C2 2716   3.062   7.352   9.844
   21SAPC    HS 2717   2.969   7.307   9.888
   21SAPC   O21 2718   3.158   7.248   9.835
   21SAPC   C21 2719   3.142   7.133   9.770
   21SAPC   O22 2720   3.047   7.089   9.712
   21SAPC   C22 2721   3.272   7.073   9.740
   21SAPC   H2R 2722   3.348   7.140   9.778
   21SAPC   H2S 2723   3.282   6.972   9.786
   21SAPC    C3 2724   3.047   7.423   9.711
   21SAPC    HX 2725   2.951   7.484   9.705
   21SAPC    HY 2726   3.053   7.339   9.645
   21SAPC   O31 2727   3.161   7.474   9.656
   21SAPC   C31 2728   3.147   7.555   9.561
   21SAPC   O32 2729   3.046   7.606   9.515
   21SAPC   C32 2730   3.291   7.579   9.535
   21SAPC   H2X 2731   3.352   7.487   9.554
   21SAPC   H2Y 2732   3.322   7.654   9.610
   21SAPC   C23 2733   3.293   7.059   9.590
   21SAPC   H3R 2734   3.307   7.159   9.543
   21SAPC   H3S 2735   3.201   7.017   9.545
   21SAPC   C24 2736   3.410   6.965   9.563
   21SAPC   H4R 2737   3.419   6.952   9.454
   21SAPC   H4S 2738   3.398   6.867   9.612
   21SAPC   C25 2739   3.529   7.024   9.624
   21SAPC   H5R 2740   3.573   6.992   9.721
   21SAPC   C26 2741   3.601   7.102   9.552
   21SAPC   H6R 2742   3.663   7.156   9.620
   21SAPC   C27 2743   3.592   7.150   9.409
   21SAPC   H7R 2744   3.505   7.111   9.359
   21SAPC   H7S 2745   3.679   7.112   9.358
   21SAPC   C28 2746   3.595   7.297   9.393
   21SAPC   H8R 2747   3.564   7.349   9.482
   21SAPC   C29 2748   3.666   7.373   9.308
   21SAPC   H9R 2749   3.668   7.482   9.319
   21SAPC  C210 2750   3.760   7.328   9.206
   21SAPC  H10R 2751   3.829   7.243   9.229
   21SAPC  H10S 2752   3.819   7.420   9.185
   21SAPC  C211 2753   3.660   7.290   9.104
   21SAPC  H11R 2754   3.622   7.186   9.103
   21SAPC  C212 2755   3.631   7.364   8.999
   21SAPC  H12R 2756   3.567   7.299   8.936
   21SAPC  C213 2757   3.690   7.503   8.946
   21SAPC  H13R 2758   3.749   7.504   8.856
   21SAPC  H13S 2759   3.788   7.545   8.984
   21SAPC  C214 2760   3.618   7.607   8.876
   21SAPC  H14R 2761   3.615   7.684   8.942
   21SAPC  C215 2762   3.571   7.627   8.754
   21SAPC  H15R 2763   3.523   7.710   8.708
   21SAPC  C216 2764   3.587   7.532   8.660
   21SAPC  H16R 2765   3.707   7.517   8.673
   21SAPC  H16S 2766   3.565   7.561   8.568
   21SAPC  C217 2767   3.450   7.441   8.597
   21SAPC  H17R 2768   3.415   7.365   8.670
   21SAPC  H17S 2769   3.469   7.367   8.509
   21SAPC  C218 2770   3.333   7.510   8.550
   21SAPC  H18R 2771   3.327   7.576   8.638
   21SAPC  H18S 2772   3.248   7.437   8.541
   21SAPC  C219 2773   3.369   7.578   8.423
   21SAPC  H19R 2774   3.469   7.614   8.410
   21SAPC  H19S 2775   3.330   7.677   8.440
   21SAPC  C220 2776   3.322   7.516   8.297
   21SAPC  H20R 2777   3.342   7.406   8.291
   21SAPC  H20S 2778   3.360   7.568   8.208
   21SAPC  H20T 2779   3.219   7.547   8.307
   21SAPC   C33 2780   3.307   7.631   9.395
   21SAPC   H3X 2781   3.415   7.648   9.384
   21SAPC   H3Y 2782   3.255   7.728   9.386
   21SAPC   C34 2783   3.260   7.529   9.290
   21SAPC   H4X 2784   3.148   7.531   9.286
   21SAPC   H4Y 2785   3.292   7.430   9.328
   21SAPC   C35 2786   3.322   7.557   9.151
   21SAPC   H5X 2787   3.432   7.562   9.162
   21SAPC   H5Y 2788   3.282   7.652   9.110
   21SAPC   C36 2789   3.311   7.453   9.043
   21SAPC   H6X 2790   3.363   7.357   9.067
   21SAPC   H6Y 2791   3.351   7.486   8.946
   21SAPC   C37 2792   3.169   7.422   9.023
   21SAPC   H7X 2793   3.101   7.506   8.989
   21SAPC   H7Y 2794   3.144   7.400   9.126
   21SAPC   C38 2795   3.165   7.286   8.947
   21SAPC   H8X 2796   3.237   7.216   8.924
   21SAPC   H8Y 2797   3.220   7.360   8.872
   21SAPC   C39 2798   3.026   7.183   8.914
   21SAPC   H9X 2799   2.972   7.269   8.914
   21SAPC   H9Y 2800   2.979   7.139   9.002
   21SAPC  C310 2801   2.961   7.106   8.769
   21SAPC  H10X 2802   2.851   7.080   8.768
   21SAPC  H10Y 2803   3.030   7.028   8.788
   21SAPC  C311 2804   2.966   7.137   8.606
   21SAPC  H11X 2805   3.066   7.140   8.562
   21SAPC  H11Y 2806   2.980   7.235   8.564
   21SAPC  C312 2807   2.832   7.167   8.536
   21SAPC  H12X 2808   2.760   7.235   8.589
   21SAPC  H12Y 2809   2.794   7.072   8.546
   21SAPC  C313 2810   2.835   7.194   8.386
   21SAPC  H13X 2811   2.900   7.268   8.385
   21SAPC  H13Y 2812   2.757   7.264   8.350
   21SAPC  C314 2813   2.944   7.115   8.301
   21SAPC  H14X 2814   2.860   7.048   8.298
   21SAPC  H14Y 2815   3.033   7.126   8.371
   21SAPC  C315 2816   2.979   7.138   8.145
   21SAPC  H15X 2817   3.074   7.219   8.145
   21SAPC  H15Y 2818   2.890   7.149   8.068
   21SAPC  C316 2819   3.080   7.109   8.050
   21SAPC  H16X 2820   3.023   7.016   8.046
   21SAPC  H16Y 2821   3.182   7.099   8.094
   21SAPC  C317 2822   3.075   7.212   7.934
   21SAPC  H17X 2823   3.127   7.309   7.953
   21SAPC  H17Y 2824   2.974   7.238   7.901
   21SAPC  C318 2825   3.127   7.137   7.819
   21SAPC  H18X 2826   3.059   7.048   7.812
   21SAPC  H18Y 2827   3.232   7.119   7.842
   21SAPC  H18Z 2828   3.126   7.191   7.725
   22SAPC     N 2829   0.967   6.305  10.201
   22SAPC   C12 2830   1.029   6.411  10.111
   22SAPC  H12A 2831   1.137   6.414  10.126
   22SAPC  H12B 2832   0.987   6.505  10.141
   22SAPC   C13 2833   0.820   6.325  10.215
   22SAPC  H13A 2834   0.778   6.251  10.281
   22SAPC  H13B 2835   0.796   6.423  10.256
   22SAPC  H13C 2836   0.770   6.318  10.119
   22SAPC   C14 2837   0.994   6.169  10.148
   22SAPC  H14A 2838   0.939   6.157  10.055
   22SAPC  H14B 2839   1.101   6.156  10.130
   22SAPC  H14C 2840   0.963   6.093  10.219
   22SAPC   C15 2841   1.025   6.318  10.336
   22SAPC  H15A 2842   0.982   6.254  10.410
   22SAPC  H15B 2843   1.132   6.299  10.331
   22SAPC  H15C 2844   1.009   6.419  10.369
   22SAPC   C11 2845   1.002   6.408   9.960
   22SAPC  H11A 2846   1.052   6.323   9.909
   22SAPC  H11B 2847   1.044   6.505   9.923
   22SAPC     P 2848   0.796   6.377   9.804
   22SAPC   O13 2849   0.818   6.234   9.774
   22SAPC   O14 2850   0.659   6.429   9.814
   22SAPC   O12 2851   0.861   6.407   9.943
   22SAPC   O11 2852   0.889   6.468   9.710
   22SAPC    C1 2853   0.882   6.611   9.706
   22SAPC    HA 2854   0.776   6.645   9.709
   22SAPC    HB 2855   0.933   6.659   9.793
   22SAPC    C2 2856   0.952   6.672   9.579
   22SAPC    HS 2857   0.924   6.780   9.572
   22SAPC   O21 2858   0.926   6.600   9.457
   22SAPC   C21 2859   0.798   6.611   9.423
   22SAPC   O22 2860   0.717   6.682   9.479
   22SAPC   C22 2861   0.771   6.527   9.299
   22SAPC   H2R 2862   0.836   6.554   9.214
   22SAPC   H2S 2863   0.794   6.421   9.321
   22SAPC    C3 2864   1.105   6.682   9.593
   22SAPC    HX 2865   1.130   6.732   9.687
   22SAPC    HY 2866   1.136   6.754   9.512
   22SAPC   O31 2867   1.165   6.549   9.591
   22SAPC   C31 2868   1.219   6.525   9.473
   22SAPC   O32 2869   1.246   6.616   9.396
   22SAPC   C32 2870   1.240   6.373   9.454
   22SAPC   H2X 2871   1.167   6.322   9.515
   22SAPC   H2Y 2872   1.328   6.327   9.495
   22SAPC   C23 2873   0.622   6.534   9.258
   22SAPC   H3R 2874   0.552   6.549   9.343
   22SAPC   H3S 2875   0.605   6.432   9.218
   22SAPC   C24 2876   0.592   6.623   9.138
   22SAPC   H4R 2877   0.498   6.594   9.090
   22SAPC   H4S 2878   0.674   6.609   9.064
   22SAPC   C25 2879   0.574   6.766   9.170
   22SAPC   H5R 2880   0.496   6.799   9.242
   22SAPC   C26 2881   0.652   6.856   9.117
   22SAPC   H6R 2882   0.623   6.957   9.155
   22SAPC   C27 2883   0.771   6.847   9.019
   22SAPC   H7R 2884   0.773   6.932   8.945
   22SAPC   H7S 2885   0.766   6.763   8.948
   22SAPC   C28 2886   0.905   6.883   9.061
   22SAPC   H8R 2887   0.912   6.969   9.121
   22SAPC   C29 2888   1.018   6.832   9.037
   22SAPC   H9R 2889   1.101   6.879   9.088
   22SAPC  C210 2890   1.039   6.713   8.956
   22SAPC  H10R 2891   0.948   6.651   8.940
   22SAPC  H10S 2892   1.110   6.661   9.022
   22SAPC  C211 2893   1.102   6.761   8.828
   22SAPC  H11R 2894   1.162   6.852   8.838
   22SAPC  C212 2895   1.095   6.698   8.709
   22SAPC  H12R 2896   1.158   6.734   8.626
   22SAPC  C213 2897   1.024   6.567   8.682
   22SAPC  H13R 2898   1.043   6.496   8.765
   22SAPC  H13S 2899   1.069   6.519   8.591
   22SAPC  C214 2900   0.877   6.590   8.665
   22SAPC  H14R 2901   0.817   6.575   8.755
   22SAPC  C215 2902   0.817   6.627   8.553
   22SAPC  H15R 2903   0.708   6.648   8.554
   22SAPC  C216 2904   0.892   6.651   8.425
   22SAPC  H16R 2905   0.875   6.566   8.355
   22SAPC  H16S 2906   0.999   6.671   8.438
   22SAPC  C217 2907   0.853   6.773   8.353
   22SAPC  H17R 2908   0.905   6.792   8.257
   22SAPC  H17S 2909   0.837   6.865   8.416
   22SAPC  C218 2910   0.731   6.737   8.295
   22SAPC  H18R 2911   0.675   6.770   8.382
   22SAPC  H18S 2912   0.702   6.644   8.244
   22SAPC  C219 2913   0.706   6.830   8.207
   22SAPC  H19R 2914   0.703   6.921   8.276
   22SAPC  H19S 2915   0.607   6.818   8.160
   22SAPC  C220 2916   0.728   6.805   8.070
   22SAPC  H20R 2917   0.817   6.827   8.033
   22SAPC  H20S 2918   0.697   6.890   8.003
   22SAPC  H20T 2919   0.674   6.708   8.046
   22SAPC   C33 2920   1.241   6.325   9.311
   22SAPC   H3X 2921   1.278   6.220   9.310
   22SAPC   H3Y 2922   1.315   6.382   9.255
   22SAPC   C34 2923   1.101   6.334   9.255
   22SAPC   H4X 2924   1.062   6.437   9.274
   22SAPC   H4Y 2925   1.036   6.259   9.304
   22SAPC   C35 2926   1.098   6.303   9.107
   22SAPC   H5X 2927   1.159   6.210   9.098
   22SAPC   H5Y 2928   1.144   6.387   9.050
   22SAPC   C36 2929   0.958   6.268   9.056
   22SAPC   H6X 2930   0.891   6.355   9.064
   22SAPC   H6Y 2931   0.915   6.185   9.118
   22SAPC   C37 2932   0.962   6.225   8.909
   22SAPC   H7X 2933   1.037   6.142   8.900
   22SAPC   H7Y 2934   0.996   6.307   8.843
   22SAPC   C38 2935   0.826   6.179   8.856
   22SAPC   H8X 2936   0.754   6.263   8.841
   22SAPC   H8Y 2937   0.784   6.110   8.932
   22SAPC   C39 2938   0.845   6.103   8.724
   22SAPC   H9X 2939   0.751   6.051   8.694
   22SAPC   H9Y 2940   0.927   6.029   8.739
   22SAPC  C310 2941   0.885   6.193   8.606
   22SAPC  H10X 2942   0.984   6.239   8.629
   22SAPC  H10Y 2943   0.808   6.272   8.594
   22SAPC  C311 2944   0.888   6.114   8.475
   22SAPC  H11X 2945   0.791   6.059   8.470
   22SAPC  H11Y 2946   0.969   6.038   8.474
   22SAPC  C312 2947   0.907   6.198   8.349
   22SAPC  H12X 2948   0.828   6.276   8.339
   22SAPC  H12Y 2949   0.892   6.126   8.265
   22SAPC  C313 2950   1.047   6.258   8.340
   22SAPC  H13X 2951   1.128   6.188   8.370
   22SAPC  H13Y 2952   1.057   6.347   8.406
   22SAPC  C314 2953   1.072   6.297   8.196
   22SAPC  H14X 2954   1.005   6.381   8.165
   22SAPC  H14Y 2955   1.072   6.216   8.122
   22SAPC  C315 2956   1.207   6.344   8.181
   22SAPC  H15X 2957   1.290   6.279   8.209
   22SAPC  H15Y 2958   1.219   6.389   8.282
   22SAPC  C316 2959   1.214   6.419   8.042
   22SAPC  H16X 2960   1.273   6.509   8.043
   22SAPC  H16Y 2961   1.140   6.495   8.017
   22SAPC  C317 2962   1.272   6.319   7.938
   22SAPC  H17X 2963   1.181   6.266   7.921
   22SAPC  H17Y 2964   1.359   6.257   7.965
   22SAPC  C318 2965   1.319   6.354   7.806
   22SAPC  H18X 2966   1.425   6.401   7.808
   22SAPC  H18Y 2967   1.232   6.411   7.757
   22SAPC  H18Z 2968   1.360   6.305   7.735
   23SAPC     N 2969   5.713   0.032  10.094
   23SAPC   C12 2970   5.854   0.080  10.111
   23SAPC  H12A 2971   5.919  -0.007  10.100
   23SAPC  H12B 2972   5.873   0.116  10.212
   23SAPC   C13 2973   5.697  -0.025   9.956
   23SAPC  H13A 2974   5.683   0.058   9.888
   23SAPC  H13B 2975   5.783  -0.082   9.924
   23SAPC  H13C 2976   5.613  -0.094   9.953
   23SAPC   C14 2977   5.691  -0.073  10.186
   23SAPC  H14A 2978   5.676  -0.058  10.290
   23SAPC  H14B 2979   5.599  -0.130  10.173
   23SAPC  H14C 2980   5.774  -0.146  10.181
   23SAPC   C15 2981   5.605   0.130  10.112
   23SAPC  H15A 2982   5.513   0.082  10.082
   23SAPC  H15B 2983   5.602   0.169  10.212
   23SAPC  H15C 2984   5.624   0.212  10.043
   23SAPC   C11 2985   5.899   0.181  10.008
   23SAPC  H11A 2986   5.900   0.133   9.908
   23SAPC  H11B 2987   6.001   0.214  10.035
   23SAPC     P 2988   5.872   0.403   9.911
   23SAPC   O13 2989   5.775   0.489   9.970
   23SAPC   O14 2990   6.005   0.460   9.930
   23SAPC   O12 2991   5.815   0.290  10.004
   23SAPC   O11 2992   5.841   0.354   9.765
   23SAPC    C1 2993   5.734   0.271   9.718
   23SAPC    HA 2994   5.744   0.166   9.750
   23SAPC    HB 2995   5.632   0.299   9.749
   23SAPC    C2 2996   5.732   0.272   9.566
   23SAPC    HS 2997   5.732   0.377   9.527
   23SAPC   O21 2998   5.617   0.198   9.525
   23SAPC   C21 2999   5.548   0.243   9.420
   23SAPC   O22 3000   5.555   0.348   9.364
   23SAPC   C22 3001   5.468   0.132   9.363
   23SAPC   H2R 3002   5.556   0.075   9.336
   23SAPC   H2S 3003   5.406   0.082   9.438
   23SAPC    C3 3004   5.863   0.208   9.516
   23SAPC    HX 3005   5.948   0.263   9.560
   23SAPC    HY 3006   5.869   0.236   9.407
   23SAPC   O31 3007   5.879   0.067   9.552
   23SAPC   C31 3008   5.854  -0.003   9.444
   23SAPC   O32 3009   5.802   0.051   9.347
   23SAPC   C32 3010   5.911  -0.151   9.467
   23SAPC   H2X 3011   5.872  -0.184   9.564
   23SAPC   H2Y 3012   6.017  -0.149   9.480
   23SAPC   C23 3013   5.382   0.162   9.239
   23SAPC   H3R 3014   5.317   0.248   9.258
   23SAPC   H3S 3015   5.320   0.072   9.219
   23SAPC   C24 3016   5.464   0.186   9.116
   23SAPC   H4R 3017   5.521   0.099   9.084
   23SAPC   H4S 3018   5.538   0.264   9.143
   23SAPC   C25 3019   5.381   0.213   8.997
   23SAPC   H5R 3020   5.275   0.192   8.994
   23SAPC   C26 3021   5.417   0.304   8.915
   23SAPC   H6R 3022   5.345   0.341   8.840
   23SAPC   C27 3023   5.537   0.383   8.936
   23SAPC   H7R 3024   5.499   0.429   8.843
   23SAPC   H7S 3025   5.633   0.344   8.906
   23SAPC   C28 3026   5.560   0.474   9.055
   23SAPC   H8R 3027   5.475   0.513   9.108
   23SAPC   C29 3028   5.658   0.514   9.127
   23SAPC   H9R 3029   5.619   0.586   9.199
   23SAPC  C210 3030   5.798   0.478   9.117
   23SAPC  H10R 3031   5.854   0.524   9.200
   23SAPC  H10S 3032   5.825   0.526   9.034
   23SAPC  C211 3033   5.850   0.350   9.066
   23SAPC  H11R 3034   5.852   0.286   9.152
   23SAPC  C212 3035   5.890   0.304   8.944
   23SAPC  H12R 3036   5.943   0.210   8.944
   23SAPC  C213 3037   5.898   0.363   8.808
   23SAPC  H13R 3038   5.944   0.459   8.826
   23SAPC  H13S 3039   5.798   0.381   8.768
   23SAPC  C214 3040   5.962   0.312   8.688
   23SAPC  H14R 3041   6.026   0.229   8.711
   23SAPC  C215 3042   5.937   0.350   8.562
   23SAPC  H15R 3043   5.999   0.305   8.484
   23SAPC  C216 3044   5.840   0.451   8.512
   23SAPC  H16R 3045   5.900   0.481   8.426
   23SAPC  H16S 3046   5.815   0.542   8.574
   23SAPC  C217 3047   5.713   0.399   8.451
   23SAPC  H17R 3048   5.647   0.351   8.526
   23SAPC  H17S 3049   5.743   0.325   8.371
   23SAPC  C218 3050   5.626   0.506   8.388
   23SAPC  H18R 3051   5.691   0.541   8.305
   23SAPC  H18S 3052   5.602   0.605   8.426
   23SAPC  C219 3053   5.496   0.438   8.369
   23SAPC  H19R 3054   5.423   0.508   8.312
   23SAPC  H19S 3055   5.431   0.387   8.442
   23SAPC  C220 3056   5.520   0.311   8.307
   23SAPC  H20R 3057   5.604   0.280   8.222
   23SAPC  H20S 3058   5.420   0.340   8.256
   23SAPC  H20T 3059   5.565   0.217   8.307
   23SAPC   C33 3060   5.896  -0.267   9.365
   23SAPC   H3X 3061   5.792  -0.282   9.339
   23SAPC   H3Y 3062   5.900  -0.373   9.395
   23SAPC   C34 3063   5.979  -0.226   9.249
   23SAPC   H4X 3064   6.079  -0.234   9.257
   23SAPC   H4Y 3065   5.989  -0.121   9.221
   23SAPC   C35 3066   5.945  -0.298   9.136
   23SAPC   H5X 3067   5.869  -0.264   9.094
   23SAPC   H5Y 3068   5.893  -0.396   9.152
   23SAPC   C36 3069   5.987  -0.246   8.997
   23SAPC   H6X 3070   5.945  -0.286   8.909
   23SAPC   H6Y 3071   6.051  -0.314   8.995
   23SAPC   C37 3072   6.049  -0.119   8.958
   23SAPC   H7X 3073   6.127  -0.085   9.025
   23SAPC   H7Y 3074   5.971  -0.056   8.922
   23SAPC   C38 3075   6.115  -0.111   8.832
   23SAPC   H8X 3076   6.181  -0.195   8.859
   23SAPC   H8Y 3077   6.182  -0.028   8.820
   23SAPC   C39 3078   6.035  -0.126   8.703
   23SAPC   H9X 3079   5.993  -0.219   8.737
   23SAPC   H9Y 3080   6.084  -0.136   8.603
   23SAPC  C310 3081   5.913  -0.055   8.675
   23SAPC  H10X 3082   5.941   0.043   8.704
   23SAPC  H10Y 3083   5.844  -0.093   8.742
   23SAPC  C311 3084   5.840  -0.079   8.547
   23SAPC  H11X 3085   5.741  -0.034   8.560
   23SAPC  H11Y 3086   5.815  -0.186   8.554
   23SAPC  C312 3087   5.918  -0.025   8.426
   23SAPC  H12X 3088   6.006  -0.091   8.409
   23SAPC  H12Y 3089   5.951   0.077   8.451
   23SAPC  C313 3090   5.849   0.028   8.301
   23SAPC  H13X 3091   5.746   0.063   8.316
   23SAPC  H13Y 3092   5.787  -0.027   8.249
   23SAPC  C314 3093   5.926   0.021   8.166
   23SAPC  H14X 3094   6.017  -0.036   8.174
   23SAPC  H14Y 3095   5.939   0.127   8.175
   23SAPC  C315 3096   5.855  -0.023   8.033
   23SAPC  H15X 3097   5.755   0.020   8.057
   23SAPC  H15Y 3098   5.856  -0.134   8.014
   23SAPC  C316 3099   5.885   0.043   7.899
   23SAPC  H16X 3100   5.817   0.005   7.818
   23SAPC  H16Y 3101   5.989   0.016   7.873
   23SAPC  C317 3102   5.866   0.193   7.920
   23SAPC  H17X 3103   5.938   0.226   7.998
   23SAPC  H17Y 3104   5.765   0.211   7.964
   23SAPC  C318 3105   5.884   0.279   7.795
   23SAPC  H18X 3106   5.992   0.283   7.768
   23SAPC  H18Y 3107   5.852   0.383   7.815
   23SAPC  H18Z 3108   5.826   0.239   7.709
   24SAPC     N 3109   7.136   6.854   9.834
   24SAPC   C12 3110   7.002   6.826   9.900
   24SAPC  H12A 3111   6.990   6.720   9.915
   24SAPC  H12B 3112   6.924   6.857   9.832
   24SAPC   C13 3113   7.133   6.997   9.801
   24SAPC  H13A 3114   7.229   7.032   9.767
   24SAPC  H13B 3115   7.064   7.020   9.723
   24SAPC  H13C 3116   7.115   7.059   9.890
   24SAPC   C14 3117   7.250   6.829   9.927
   24SAPC  H14A 3118   7.238   6.730   9.970
   24SAPC  H14B 3119   7.346   6.836   9.876
   24SAPC  H14C 3120   7.255   6.905  10.005
   24SAPC   C15 3121   7.154   6.773   9.710
   24SAPC  H15A 3122   7.072   6.785   9.641
   24SAPC  H15B 3123   7.247   6.800   9.661
   24SAPC  H15C 3124   7.160   6.666   9.730
   24SAPC   C11 3125   6.970   6.894  10.035
   24SAPC  H11A 3126   7.051   6.869  10.107
   24SAPC  H11B 3127   6.875   6.844  10.068
   24SAPC     P 3128   6.903   7.105  10.163
   24SAPC   O13 3129   6.823   7.010  10.242
   24SAPC   O14 3130   7.021   7.160  10.233
   24SAPC   O12 3131   6.951   7.036  10.024
   24SAPC   O11 3132   6.812   7.228  10.119
   24SAPC    C1 3133   6.866   7.324  10.029
   24SAPC    HA 3134   6.863   7.423  10.079
   24SAPC    HB 3135   6.974   7.306  10.007
   24SAPC    C2 3136   6.790   7.320   9.893
   24SAPC    HS 3137   6.694   7.372   9.911
   24SAPC   O21 3138   6.770   7.185   9.845
   24SAPC   C21 3139   6.647   7.137   9.838
   24SAPC   O22 3140   6.546   7.188   9.878
   24SAPC   C22 3141   6.643   7.010   9.751
   24SAPC   H2R 3142   6.739   6.956   9.758
   24SAPC   H2S 3143   6.564   6.943   9.791
   24SAPC    C3 3144   6.869   7.398   9.783
   24SAPC    HX 3145   6.925   7.485   9.824
   24SAPC    HY 3146   6.792   7.432   9.711
   24SAPC   O31 3147   6.958   7.310   9.713
   24SAPC   C31 3148   7.009   7.360   9.603
   24SAPC   O32 3149   6.998   7.474   9.563
   24SAPC   C32 3150   7.081   7.251   9.529
   24SAPC   H2X 3151   7.013   7.174   9.492
   24SAPC   H2Y 3152   7.147   7.199   9.597
   24SAPC   C23 3153   6.629   7.041   9.601
   24SAPC   H3R 3154   6.693   7.129   9.583
   24SAPC   H3S 3155   6.527   7.073   9.571
   24SAPC   C24 3156   6.673   6.918   9.517
   24SAPC   H4R 3157   6.623   6.923   9.421
   24SAPC   H4S 3158   6.633   6.828   9.569
   24SAPC   C25 3159   6.816   6.905   9.476
   24SAPC   H5R 3160   6.888   6.901   9.557
   24SAPC   C26 3161   6.861   6.892   9.350
   24SAPC   H6R 3162   6.969   6.877   9.339
   24SAPC   C27 3163   6.777   6.888   9.224
   24SAPC   H7R 3164   6.752   6.989   9.184
   24SAPC   H7S 3165   6.680   6.838   9.247
   24SAPC   C28 3166   6.841   6.818   9.109
   24SAPC   H8R 3167   6.946   6.790   9.122
   24SAPC   C29 3168   6.777   6.793   8.993
   24SAPC   H9R 3169   6.825   6.728   8.918
   24SAPC  C210 3170   6.632   6.833   8.966
   24SAPC  H10R 3171   6.572   6.817   9.061
   24SAPC  H10S 3172   6.577   6.764   8.896
   24SAPC  C211 3173   6.614   6.966   8.914
   24SAPC  H11R 3174   6.610   7.039   8.993
   24SAPC  C212 3175   6.595   6.995   8.785
   24SAPC  H12R 3176   6.585   7.102   8.767
   24SAPC  C213 3177   6.589   6.900   8.667
   24SAPC  H13R 3178   6.484   6.863   8.657
   24SAPC  H13S 3179   6.649   6.808   8.684
   24SAPC  C214 3180   6.631   6.970   8.540
   24SAPC  H14R 3181   6.556   7.044   8.510
   24SAPC  C215 3182   6.738   6.945   8.461
   24SAPC  H15R 3183   6.761   7.006   8.372
   24SAPC  C216 3184   6.840   6.838   8.485
   24SAPC  H16R 3185   6.791   6.739   8.490
   24SAPC  H16S 3186   6.890   6.850   8.584
   24SAPC  C217 3187   6.935   6.815   8.366
   24SAPC  H17R 3188   7.003   6.731   8.392
   24SAPC  H17S 3189   7.000   6.899   8.344
   24SAPC  C218 3190   6.883   6.800   8.234
   24SAPC  H18R 3191   6.833   6.894   8.201
   24SAPC  H18S 3192   6.826   6.710   8.237
   24SAPC  C219 3193   6.989   6.783   8.141
   24SAPC  H19R 3194   6.941   6.735   8.056
   24SAPC  H19S 3195   7.075   6.719   8.178
   24SAPC  C220 3196   7.010   6.927   8.105
   24SAPC  H20R 3197   7.064   6.900   8.021
   24SAPC  H20S 3198   7.050   6.997   8.185
   24SAPC  H20T 3199   6.962   7.003   8.056
   24SAPC   C33 3200   7.154   7.302   9.407
   24SAPC   H3X 3201   7.248   7.310   9.446
   24SAPC   H3Y 3202   7.137   7.404   9.370
   24SAPC   C34 3203   7.182   7.195   9.306
   24SAPC   H4X 3204   7.083   7.159   9.274
   24SAPC   H4Y 3205   7.234   7.113   9.361
   24SAPC   C35 3206   7.267   7.252   9.194
   24SAPC   H5X 3207   7.373   7.221   9.210
   24SAPC   H5Y 3208   7.255   7.360   9.178
   24SAPC   C36 3209   7.246   7.191   9.064
   24SAPC   H6X 3210   7.261   7.090   9.113
   24SAPC   H6Y 3211   7.325   7.226   8.990
   24SAPC   C37 3212   7.113   7.207   8.999
   24SAPC   H7X 3213   7.109   7.315   8.990
   24SAPC   H7Y 3214   7.034   7.160   9.058
   24SAPC   C38 3215   7.092   7.172   8.856
   24SAPC   H8X 3216   7.085   7.065   8.866
   24SAPC   H8Y 3217   7.161   7.221   8.783
   24SAPC   C39 3218   6.955   7.166   8.799
   24SAPC   H9X 3219   6.891   7.101   8.864
   24SAPC   H9Y 3220   6.957   7.120   8.698
   24SAPC  C310 3221   6.914   7.304   8.792
   24SAPC  H10X 3222   6.979   7.362   8.722
   24SAPC  H10Y 3223   6.920   7.349   8.894
   24SAPC  C311 3224   6.775   7.299   8.744
   24SAPC  H11X 3225   6.755   7.393   8.795
   24SAPC  H11Y 3226   6.691   7.264   8.806
   24SAPC  C312 3227   6.767   7.268   8.588
   24SAPC  H12X 3228   6.661   7.231   8.585
   24SAPC  H12Y 3229   6.822   7.177   8.567
   24SAPC  C313 3230   6.801   7.369   8.461
   24SAPC  H13X 3231   6.751   7.468   8.435
   24SAPC  H13Y 3232   6.739   7.333   8.379
   24SAPC  C314 3233   6.924   7.452   8.457
   24SAPC  H14X 3234   6.946   7.509   8.547
   24SAPC  H14Y 3235   6.911   7.534   8.383
   24SAPC  C315 3236   7.025   7.351   8.435
   24SAPC  H15X 3237   7.026   7.290   8.527
   24SAPC  H15Y 3238   7.120   7.403   8.424
   24SAPC  C316 3239   6.992   7.269   8.314
   24SAPC  H16X 3240   6.907   7.198   8.322
   24SAPC  H16Y 3241   7.082   7.209   8.301
   24SAPC  C317 3242   7.000   7.347   8.189
   24SAPC  H17X 3243   7.072   7.286   8.141
   24SAPC  H17Y 3244   7.054   7.443   8.199
   24SAPC  C318 3245   6.875   7.364   8.110
   24SAPC  H18X 3246   6.799   7.391   8.185
   24SAPC  H18Y 3247   6.841   7.276   8.052
   24SAPC  H18Z 3248   6.894   7.448   8.042
   25SAPC     N 3249   4.689   4.171   5.790
   25SAPC   C12 3250   4.761   4.239   5.908
   25SAPC  H12A 3251   4.756   4.346   5.891
   25SAPC  H12B 3252   4.863   4.207   5.918
   25SAPC   C13 3253   4.765   4.160   5.663
   25SAPC  H13A 3254   4.705   4.102   5.590
   25SAPC  H13B 3255   4.780   4.257   5.619
   25SAPC  H13C 3256   4.860   4.112   5.679
   25SAPC   C14 3257   4.649   4.034   5.828
   25SAPC  H14A 3258   4.731   3.965   5.840
   25SAPC  H14B 3259   4.598   4.038   5.925
   25SAPC  H14C 3260   4.582   3.993   5.753
   25SAPC   C15 3261   4.564   4.251   5.762
   25SAPC  H15A 3262   4.586   4.350   5.724
   25SAPC  H15B 3263   4.494   4.204   5.694
   25SAPC  H15C 3264   4.508   4.265   5.855
   25SAPC   C11 3265   4.709   4.212   6.052
   25SAPC  H11A 3266   4.772   4.270   6.125
   25SAPC  H11B 3267   4.728   4.106   6.076
   25SAPC     P 3268   4.512   4.286   6.202
   25SAPC   O13 3269   4.366   4.296   6.189
   25SAPC   O14 3270   4.568   4.203   6.311
   25SAPC   O12 3271   4.570   4.237   6.062
   25SAPC   O11 3272   4.564   4.431   6.221
   25SAPC    C1 3273   4.582   4.526   6.118
   25SAPC    HA 3274   4.643   4.484   6.037
   25SAPC    HB 3275   4.483   4.554   6.073
   25SAPC    C2 3276   4.646   4.653   6.181
   25SAPC    HS 3277   4.694   4.709   6.098
   25SAPC   O21 3278   4.743   4.623   6.285
   25SAPC   C21 3279   4.861   4.587   6.244
   25SAPC   O22 3280   4.904   4.586   6.130
   25SAPC   C22 3281   4.947   4.555   6.363
   25SAPC   H2R 3282   5.039   4.584   6.314
   25SAPC   H2S 3283   4.929   4.623   6.449
   25SAPC    C3 3284   4.531   4.739   6.241
   25SAPC    HX 3285   4.465   4.765   6.155
   25SAPC    HY 3286   4.565   4.836   6.282
   25SAPC   O31 3287   4.450   4.662   6.331
   25SAPC   C31 3288   4.438   4.700   6.454
   25SAPC   O32 3289   4.505   4.785   6.510
   25SAPC   C32 3290   4.341   4.613   6.525
   25SAPC   H2X 3291   4.263   4.578   6.457
   25SAPC   H2Y 3292   4.291   4.663   6.609
   25SAPC   C23 3293   4.970   4.409   6.401
   25SAPC   H3R 3294   5.044   4.400   6.482
   25SAPC   H3S 3295   5.020   4.357   6.317
   25SAPC   C24 3296   4.842   4.339   6.448
   25SAPC   H4R 3297   4.864   4.235   6.479
   25SAPC   H4S 3298   4.776   4.330   6.359
   25SAPC   C25 3299   4.768   4.411   6.556
   25SAPC   H5R 3300   4.718   4.502   6.519
   25SAPC   C26 3301   4.744   4.369   6.682
   25SAPC   H6R 3302   4.694   4.438   6.753
   25SAPC   C27 3303   4.786   4.240   6.747
   25SAPC   H7R 3304   4.820   4.268   6.849
   25SAPC   H7S 3305   4.873   4.192   6.696
   25SAPC   C28 3306   4.689   4.134   6.768
   25SAPC   H8R 3307   4.648   4.093   6.678
   25SAPC   C29 3308   4.649   4.093   6.886
   25SAPC   H9R 3309   4.579   4.011   6.892
   25SAPC  C210 3310   4.698   4.151   7.011
   25SAPC  H10R 3311   4.737   4.253   7.021
   25SAPC  H10S 3312   4.796   4.104   6.993
   25SAPC  C211 3313   4.611   4.145   7.131
   25SAPC  H11R 3314   4.525   4.076   7.120
   25SAPC  C212 3315   4.645   4.185   7.255
   25SAPC  H12R 3316   4.576   4.176   7.338
   25SAPC  C213 3317   4.766   4.243   7.322
   25SAPC  H13R 3318   4.750   4.321   7.393
   25SAPC  H13S 3319   4.855   4.251   7.255
   25SAPC  C214 3320   4.801   4.145   7.422
   25SAPC  H14R 3321   4.709   4.074   7.434
   25SAPC  C215 3322   4.896   4.148   7.524
   25SAPC  H15R 3323   4.967   4.066   7.556
   25SAPC  C216 3324   4.975   4.253   7.559
   25SAPC  H16R 3325   4.965   4.286   7.460
   25SAPC  H16S 3326   5.082   4.263   7.590
   25SAPC  C217 3327   4.882   4.314   7.662
   25SAPC  H17R 3328   4.778   4.335   7.627
   25SAPC  H17S 3329   4.914   4.415   7.692
   25SAPC  C218 3330   4.889   4.225   7.785
   25SAPC  H18R 3331   4.995   4.220   7.820
   25SAPC  H18S 3332   4.860   4.121   7.756
   25SAPC  C219 3333   4.799   4.277   7.895
   25SAPC  H19R 3334   4.836   4.377   7.927
   25SAPC  H19S 3335   4.812   4.210   7.983
   25SAPC  C220 3336   4.652   4.290   7.855
   25SAPC  H20R 3337   4.630   4.229   7.765
   25SAPC  H20S 3338   4.626   4.395   7.829
   25SAPC  H20T 3339   4.588   4.252   7.937
   25SAPC   C33 3340   4.427   4.499   6.574
   25SAPC   H3X 3341   4.488   4.530   6.659
   25SAPC   H3Y 3342   4.473   4.437   6.494
   25SAPC   C34 3343   4.349   4.398   6.643
   25SAPC   H4X 3344   4.290   4.365   6.553
   25SAPC   H4Y 3345   4.275   4.454   6.708
   25SAPC   C35 3346   4.414   4.263   6.722
   25SAPC   H5X 3347   4.478   4.317   6.796
   25SAPC   H5Y 3348   4.463   4.209   6.639
   25SAPC   C36 3349   4.346   4.148   6.833
   25SAPC   H6X 3350   4.413   4.079   6.860
   25SAPC   H6Y 3351   4.239   4.055   6.819
   25SAPC   C37 3352   4.315   4.276   6.914
   25SAPC   H7X 3353   4.263   4.201   6.885
   25SAPC   H7Y 3354   4.231   4.343   6.892
   25SAPC   C38 3355   4.335   4.312   7.055
   25SAPC   H8X 3356   4.432   4.281   7.031
   25SAPC   H8Y 3357   4.303   4.260   7.145
   25SAPC   C39 3358   4.288   4.454   7.075
   25SAPC   H9X 3359   4.190   4.453   7.128
   25SAPC   H9Y 3360   4.275   4.501   6.974
   25SAPC  C310 3361   4.400   4.509   7.156
   25SAPC  H10X 3362   4.417   4.450   7.252
   25SAPC  H10Y 3363   4.370   4.614   7.173
   25SAPC  C311 3364   4.528   4.507   7.073
   25SAPC  H11X 3365   4.514   4.578   6.989
   25SAPC  H11Y 3366   4.556   4.409   7.030
   25SAPC  C312 3367   4.640   4.552   7.156
   25SAPC  H12X 3368   4.738   4.541   7.103
   25SAPC  H12Y 3369   4.648   4.494   7.251
   25SAPC  C313 3370   4.619   4.695   7.190
   25SAPC  H13X 3371   4.570   4.713   7.289
   25SAPC  H13Y 3372   4.592   4.770   7.115
   25SAPC  C314 3373   4.751   4.737   7.215
   25SAPC  H14X 3374   4.738   4.840   7.254
   25SAPC  H14Y 3375   4.817   4.744   7.128
   25SAPC  C315 3376   4.804   4.639   7.314
   25SAPC  H15X 3377   4.901   4.643   7.342
   25SAPC  H15Y 3378   4.862   4.557   7.270
   25SAPC  C316 3379   4.747   4.658   7.454
   25SAPC  H16X 3380   4.812   4.616   7.522
   25SAPC  H16Y 3381   4.673   4.586   7.471
   25SAPC  C317 3382   4.725   4.791   7.521
   25SAPC  H17X 3383   4.684   4.851   7.443
   25SAPC  H17Y 3384   4.801   4.863   7.520
   25SAPC  C318 3385   4.675   4.794   7.666
   25SAPC  H18X 3386   4.628   4.891   7.691
   25SAPC  H18Y 3387   4.754   4.782   7.743
   25SAPC  H18Z 3388   4.607   4.710   7.675
   26SAPC     N 3389   4.073   5.337   6.055
   26SAPC   C12 3390   4.216   5.352   6.001
   26SAPC  H12A 3391   4.220   5.325   5.897
   26SAPC  H12B 3392   4.275   5.276   6.052
   26SAPC   C13 3393   4.072   5.375   6.200
   26SAPC  H13A 3394   4.150   5.320   6.252
   26SAPC  H13B 3395   4.091   5.482   6.211
   26SAPC  H13C 3396   3.978   5.350   6.247
   26SAPC   C14 3397   3.973   5.420   5.985
   26SAPC  H14A 3398   3.978   5.404   5.878
   26SAPC  H14B 3399   3.871   5.394   6.015
   26SAPC  H14C 3400   3.991   5.525   6.007
   26SAPC   C15 3401   4.029   5.196   6.037
   26SAPC  H15A 3402   4.036   5.167   5.934
   26SAPC  H15B 3403   4.094   5.125   6.089
   26SAPC  H15C 3404   3.926   5.186   6.066
   26SAPC   C11 3405   4.292   5.487   6.018
   26SAPC  H11A 3406   4.395   5.481   5.974
   26SAPC  H11B 3407   4.307   5.502   6.128
   26SAPC     P 3408   4.299   5.727   5.932
   26SAPC   O13 3409   4.418   5.739   6.017
   26SAPC   O14 3410   4.295   5.757   5.788
   26SAPC   O12 3411   4.216   5.593   5.959
   26SAPC   O11 3412   4.200   5.822   6.001
   26SAPC    C1 3413   4.084   5.840   5.930
   26SAPC    HA 3414   4.096   5.905   5.838
   26SAPC    HB 3415   4.027   5.749   5.900
   26SAPC    C2 3416   3.997   5.906   6.025
   26SAPC    HS 3417   3.945   5.948   5.944
   26SAPC   O21 3418   4.043   6.007   6.112
   26SAPC   C21 3419   4.121   6.096   6.056
   26SAPC   O22 3420   4.148   6.112   5.937
   26SAPC   C22 3421   4.176   6.170   6.164
   26SAPC   H2R 3422   4.173   6.270   6.119
   26SAPC   H2S 3423   4.117   6.178   6.259
   26SAPC    C3 3424   3.915   5.802   6.120
   26SAPC    HX 3425   3.857   5.743   6.045
   26SAPC    HY 3426   3.823   5.839   6.174
   26SAPC   O31 3427   3.985   5.725   6.213
   26SAPC   C31 3428   3.979   5.790   6.331
   26SAPC   O32 3429   3.919   5.893   6.352
   26SAPC   C32 3430   4.054   5.717   6.431
   26SAPC   H2X 3431   4.080   5.790   6.510
   26SAPC   H2Y 3432   4.145   5.688   6.375
   26SAPC   C23 3433   4.309   6.091   6.169
   26SAPC   H3R 3434   4.392   6.160   6.179
   26SAPC   H3S 3435   4.372   6.086   6.083
   26SAPC   C24 3436   4.311   5.981   6.282
   26SAPC   H4R 3437   4.263   5.899   6.225
   26SAPC   H4S 3438   4.238   5.999   6.367
   26SAPC   C25 3439   4.450   5.946   6.336
   26SAPC   H5R 3440   4.521   5.913   6.259
   26SAPC   C26 3441   4.493   5.928   6.463
   26SAPC   H6R 3442   4.596   5.891   6.479
   26SAPC   C27 3443   4.410   5.939   6.589
   26SAPC   H7R 3444   4.303   5.928   6.565
   26SAPC   H7S 3445   4.402   6.040   6.623
   26SAPC   C28 3446   4.453   5.839   6.695
   26SAPC   H8R 3447   4.485   5.743   6.657
   26SAPC   C29 3448   4.456   5.849   6.829
   26SAPC   H9R 3449   4.503   5.776   6.892
   26SAPC  C210 3450   4.418   5.963   6.909
   26SAPC  H10R 3451   4.412   6.038   6.831
   26SAPC  H10S 3452   4.504   5.980   6.979
   26SAPC  C211 3453   4.291   5.975   6.986
   26SAPC  H11R 3454   4.209   6.018   6.925
   26SAPC  C212 3455   4.274   5.930   7.111
   26SAPC  H12R 3456   4.178   5.943   7.163
   26SAPC  C213 3457   4.379   5.860   7.194
   26SAPC  H13R 3458   4.452   5.811   7.127
   26SAPC  H13S 3459   4.336   5.785   7.260
   26SAPC  C214 3460   4.460   5.926   7.293
   26SAPC  H14R 3461   4.557   5.943   7.243
   26SAPC  C215 3462   4.415   6.000   7.396
   26SAPC  H15R 3463   4.484   6.079   7.430
   26SAPC  C216 3464   4.268   6.027   7.430
   26SAPC  H16R 3465   4.208   5.951   7.381
   26SAPC  H16S 3466   4.215   6.124   7.404
   26SAPC  C217 3467   4.260   6.010   7.580
   26SAPC  H17R 3468   4.335   6.068   7.638
   26SAPC  H17S 3469   4.274   5.902   7.601
   26SAPC  C218 3470   4.122   6.049   7.629
   26SAPC  H18R 3471   4.051   6.005   7.554
   26SAPC  H18S 3472   4.117   6.161   7.627
   26SAPC  C219 3473   4.091   5.992   7.768
   26SAPC  H19R 3474   4.170   6.025   7.839
   26SAPC  H19S 3475   4.091   5.880   7.762
   26SAPC  C220 3476   3.958   6.036   7.828
   26SAPC  H20R 3477   3.928   5.977   7.918
   26SAPC  H20S 3478   3.878   6.020   7.754
   26SAPC  H20T 3479   3.959   6.144   7.852
   26SAPC   C33 3480   3.963   5.606   6.487
   26SAPC   H3X 3481   3.912   5.552   6.404
   26SAPC   H3Y 3482   3.883   5.654   6.547
   26SAPC   C34 3483   4.031   5.497   6.570
   26SAPC   H4X 3484   4.091   5.434   6.503
   26SAPC   H4Y 3485   3.950   5.434   6.614
   26SAPC   C35 3486   4.120   5.544   6.685
   26SAPC   H5X 3487   4.056   5.609   6.749
   26SAPC   H5Y 3488   4.207   5.605   6.653
   26SAPC   C36 3489   4.173   5.421   6.763
   26SAPC   H6X 3490   4.234   5.354   6.698
   26SAPC   H6Y 3491   4.084   5.364   6.795
   26SAPC   C37 3492   4.251   5.456   6.890
   26SAPC   H7X 3493   4.327   5.535   6.868
   26SAPC   H7Y 3494   4.307   5.367   6.927
   26SAPC   C38 3495   4.153   5.493   7.001
   26SAPC   H8X 3496   4.086   5.405   7.016
   26SAPC   H8Y 3497   4.085   5.578   6.975
   26SAPC   C39 3498   4.223   5.519   7.135
   26SAPC   H9X 3499   4.258   5.624   7.136
   26SAPC   H9Y 3500   4.311   5.451   7.140
   26SAPC  C310 3501   4.135   5.485   7.257
   26SAPC  H10X 3502   4.187   5.511   7.351
   26SAPC  H10Y 3503   4.115   5.375   7.257
   26SAPC  C311 3504   4.002   5.559   7.251
   26SAPC  H11X 3505   3.957   5.534   7.154
   26SAPC  H11Y 3506   4.022   5.668   7.253
   26SAPC  C312 3507   3.897   5.526   7.355
   26SAPC  H12X 3508   3.841   5.435   7.322
   26SAPC  H12Y 3509   3.828   5.614   7.357
   26SAPC  C313 3510   3.943   5.511   7.497
   26SAPC  H13X 3511   3.976   5.613   7.530
   26SAPC  H13Y 3512   4.027   5.441   7.517
   26SAPC  C314 3513   3.841   5.444   7.585
   26SAPC  H14X 3514   3.808   5.342   7.573
   26SAPC  H14Y 3515   3.736   5.471   7.591
   26SAPC  C315 3516   3.879   5.478   7.719
   26SAPC  H15X 3517   3.779   5.444   7.763
   26SAPC  H15Y 3518   3.909   5.587   7.727
   26SAPC  C316 3519   3.979   5.408   7.799
   26SAPC  H16X 3520   3.987   5.317   7.742
   26SAPC  H16Y 3521   3.943   5.372   7.894
   26SAPC  C317 3522   4.093   5.495   7.853
   26SAPC  H17X 3523   4.155   5.429   7.918
   26SAPC  H17Y 3524   4.054   5.577   7.919
   26SAPC  C318 3525   4.183   5.559   7.750
   26SAPC  H18X 3526   4.255   5.624   7.803
   26SAPC  H18Y 3527   4.132   5.621   7.674
   26SAPC  H18Z 3528   4.239   5.478   7.698
   27SAPC     N 3529   2.495   0.685   6.092
   27SAPC   C12 3530   2.467   0.543   6.049
   27SAPC  H12A 3531   2.359   0.534   6.042
   27SAPC  H12B 3532   2.500   0.475   6.128
   27SAPC   C13 3533   2.441   0.689   6.231
   27SAPC  H13A 3534   2.459   0.785   6.273
   27SAPC  H13B 3535   2.333   0.676   6.237
   27SAPC  H13C 3536   2.499   0.629   6.297
   27SAPC   C14 3537   2.636   0.730   6.075
   27SAPC  H14A 3538   2.665   0.724   5.969
   27SAPC  H14B 3539   2.644   0.832   6.109
   27SAPC  H14C 3540   2.704   0.670   6.133
   27SAPC   C15 3541   2.418   0.773   6.006
   27SAPC  H15A 3542   2.312   0.751   6.029
   27SAPC  H15B 3543   2.417   0.880   6.021
   27SAPC  H15C 3544   2.423   0.753   5.899
   27SAPC   C11 3545   2.514   0.493   5.914
   27SAPC  H11A 3546   2.466   0.549   5.831
   27SAPC  H11B 3547   2.472   0.390   5.904
   27SAPC     P 3548   2.739   0.364   5.924
   27SAPC   O13 3549   2.721   0.280   5.804
   27SAPC   O14 3550   2.875   0.395   5.970
   27SAPC   O12 3551   2.657   0.497   5.905
   27SAPC   O11 3552   2.662   0.297   6.044
   27SAPC    C1 3553   2.700   0.171   6.097
   27SAPC    HA 3554   2.685   0.100   6.022
   27SAPC    HB 3555   2.809   0.161   6.111
   27SAPC    C2 3556   2.617   0.136   6.224
   27SAPC    HS 3557   2.589   0.027   6.230
   27SAPC   O21 3558   2.499   0.214   6.235
   27SAPC   C21 3559   2.422   0.219   6.128
   27SAPC   O22 3560   2.429   0.150   6.028
   27SAPC   C22 3561   2.291   0.280   6.173
   27SAPC   H2R 3562   2.310   0.386   6.176
   27SAPC   H2S 3563   2.206   0.245   6.108
   27SAPC    C3 3564   2.709   0.170   6.339
   27SAPC    HX 3565   2.796   0.118   6.315
   27SAPC    HY 3566   2.677   0.149   6.442
   27SAPC   O31 3567   2.776   0.288   6.323
   27SAPC   C31 3568   2.716   0.388   6.361
   27SAPC   O32 3569   2.609   0.399   6.420
   27SAPC   C32 3570   2.806   0.487   6.315
   27SAPC   H2X 3571   2.788   0.521   6.211
   27SAPC   H2Y 3572   2.913   0.455   6.327
   27SAPC   C23 3573   2.244   0.245   6.313
   27SAPC   H3R 3574   2.321   0.227   6.390
   27SAPC   H3S 3575   2.187   0.152   6.283
   27SAPC   C24 3576   2.143   0.341   6.374
   27SAPC   H4R 3577   2.113   0.324   6.477
   27SAPC   H4S 3578   2.054   0.326   6.311
   27SAPC   C25 3579   2.173   0.483   6.371
   27SAPC   H5R 3580   2.180   0.514   6.267
   27SAPC   C26 3581   2.176   0.568   6.474
   27SAPC   H6R 3582   2.194   0.672   6.449
   27SAPC   C27 3583   2.151   0.544   6.620
   27SAPC   H7R 3584   2.070   0.469   6.632
   27SAPC   H7S 3585   2.109   0.636   6.666
   27SAPC   C28 3586   2.278   0.508   6.695
   27SAPC   H8R 3587   2.365   0.478   6.632
   27SAPC   C29 3588   2.291   0.517   6.829
   27SAPC   H9R 3589   2.385   0.483   6.876
   27SAPC  C210 3590   2.181   0.565   6.921
   27SAPC  H10R 3591   2.149   0.490   6.996
   27SAPC  H10S 3592   2.087   0.587   6.865
   27SAPC  C211 3593   2.215   0.687   6.998
   27SAPC  H11R 3594   2.160   0.773   6.964
   27SAPC  C212 3595   2.307   0.708   7.092
   27SAPC  H12R 3596   2.321   0.809   7.133
   27SAPC  C213 3597   2.402   0.606   7.143
   27SAPC  H13R 3598   2.482   0.603   7.067
   27SAPC  H13S 3599   2.354   0.506   7.146
   27SAPC  C214 3600   2.466   0.643   7.273
   27SAPC  H14R 3601   2.511   0.743   7.280
   27SAPC  C215 3602   2.495   0.557   7.370
   27SAPC  H15R 3603   2.542   0.592   7.462
   27SAPC  C216 3604   2.468   0.410   7.364
   27SAPC  H16R 3605   2.542   0.351   7.425
   27SAPC  H16S 3606   2.463   0.370   7.261
   27SAPC  C217 3607   2.332   0.382   7.418
   27SAPC  H17R 3608   2.324   0.274   7.392
   27SAPC  H17S 3609   2.240   0.425   7.380
   27SAPC  C218 3610   2.305   0.420   7.558
   27SAPC  H18R 3611   2.341   0.512   7.606
   27SAPC  H18S 3612   2.418   0.391   7.594
   27SAPC  C219 3613   2.141   0.323   7.618
   27SAPC  H19R 3614   2.119   0.235   7.575
   27SAPC  H19S 3615   2.067   0.392   7.599
   27SAPC  C220 3616   2.152   0.229   7.828
   27SAPC  H20R 3617   2.082   0.215   7.897
   27SAPC  H20S 3618   2.281   0.295   7.859
   27SAPC  H20T 3619   2.246   0.201   7.883
   27SAPC   C33 3620   2.767   0.588   6.406
   27SAPC   H3X 3621   2.674   0.636   6.433
   27SAPC   H3Y 3622   2.788   0.660   6.326
   27SAPC   C34 3623   2.839   0.573   6.536
   27SAPC   H4X 3624   2.820   0.676   6.565
   27SAPC   H4Y 3625   2.950   0.551   6.533
   27SAPC   C35 3626   2.753   0.540   6.659
   27SAPC   H5X 3627   2.764   0.431   6.645
   27SAPC   H5Y 3628   2.664   0.604   6.662
   27SAPC   C36 3629   2.797   0.552   6.803
   27SAPC   H6X 3630   2.832   0.635   6.853
   27SAPC   H6Y 3631   2.887   0.499   6.769
   27SAPC   C37 3632   2.728   0.536   6.939
   27SAPC   H7X 3633   2.671   0.453   6.900
   27SAPC   H7Y 3634   2.670   0.631   6.959
   27SAPC   C38 3635   2.809   0.488   7.066
   27SAPC   H8X 3636   2.872   0.399   7.039
   27SAPC   H8Y 3637   2.744   0.446   7.142
   27SAPC   C39 3638   2.894   0.593   7.143
   27SAPC   H9X 3639   2.839   0.684   7.162
   27SAPC   H9Y 3640   2.980   0.633   7.098
   27SAPC  C310 3641   2.997   0.539   7.239
   27SAPC  H10X 3642   3.071   0.618   7.272
   27SAPC  H10Y 3643   3.050   0.455   7.187
   27SAPC  C311 3644   2.923   0.485   7.349
   27SAPC  H11X 3645   2.867   0.396   7.312
   27SAPC  H11Y 3646   2.850   0.563   7.380
   27SAPC  C312 3647   3.010   0.455   7.462
   27SAPC  H12X 3648   3.073   0.539   7.500
   27SAPC  H12Y 3649   3.077   0.368   7.444
   27SAPC  C313 3650   2.906   0.431   7.564
   27SAPC  H13X 3651   2.842   0.504   7.612
   27SAPC  H13Y 3652   2.996   0.441   7.639
   27SAPC  C314 3653   2.808   0.292   7.556
   27SAPC  H14X 3654   2.897   0.252   7.484
   27SAPC  H14Y 3655   2.753   0.264   7.473
   27SAPC  C315 3656   2.750   0.185   7.713
   27SAPC  H15X 3657   2.702   0.092   7.698
   27SAPC  H15Y 3658   2.673   0.245   7.756
   27SAPC  C316 3659   2.864   0.115   7.851
   27SAPC  H16X 3660   2.961   0.178   7.897
   27SAPC  H16Y 3661   2.963   0.063   7.831
   27SAPC  C317 3662   2.791   0.057   7.942
   27SAPC  H17X 3663   2.873   0.072   7.991
   27SAPC  H17Y 3664   2.796  -0.047   7.923
   27SAPC  C318 3665   2.674   0.129   7.991
   27SAPC  H18X 3666   2.692   0.234   8.021
   27SAPC  H18Y 3667   2.642   0.066   8.075
   27SAPC  H18Z 3668   2.603   0.127   7.907
   28SAPC     N 3669   0.254   3.518   5.814
   28SAPC   C12 3670   0.365   3.580   5.896
   28SAPC  H12A 3671   0.318   3.645   5.970
   28SAPC  H12B 3672   0.432   3.638   5.833
   28SAPC   C13 3673   0.179   3.630   5.754
   28SAPC  H13A 3674   0.094   3.588   5.701
   28SAPC  H13B 3675   0.140   3.692   5.835
   28SAPC  H13C 3676   0.239   3.696   5.693
   28SAPC   C14 3677   0.311   3.426   5.710
   28SAPC  H14A 3678   0.346   3.330   5.750
   28SAPC  H14B 3679   0.245   3.406   5.627
   28SAPC  H14C 3680   0.402   3.473   5.673
   28SAPC   C15 3681   0.153   3.446   5.898
   28SAPC  H15A 3682   0.194   3.354   5.941
   28SAPC  H15B 3683   0.119   3.505   5.983
   28SAPC  H15C 3684   0.066   3.421   5.841
   28SAPC   C11 3685   0.463   3.486   5.966
   28SAPC  H11A 3686   0.537   3.546   6.025
   28SAPC  H11B 3687   0.516   3.434   5.884
   28SAPC     P 3688   0.377   3.408   6.201
   28SAPC   O13 3689   0.385   3.552   6.233
   28SAPC   O14 3690   0.259   3.330   6.241
   28SAPC   O12 3691   0.393   3.393   6.044
   28SAPC   O11 3692   0.510   3.339   6.248
   28SAPC    C1 3693   0.554   3.225   6.173
   28SAPC    HA 3694   0.474   3.167   6.125
   28SAPC    HB 3695   0.620   3.257   6.094
   28SAPC    C2 3696   0.640   3.134   6.254
   28SAPC    HS 3697   0.656   3.032   6.214
   28SAPC   O21 3698   0.583   3.116   6.382
   28SAPC   C21 3699   0.484   3.031   6.386
   28SAPC   O22 3700   0.432   2.974   6.295
   28SAPC   C22 3701   0.449   3.020   6.529
   28SAPC   H2R 3702   0.389   2.938   6.556
   28SAPC   H2S 3703   0.556   2.996   6.563
   28SAPC    C3 3704   0.778   3.210   6.256
   28SAPC    HX 3705   0.837   3.210   6.165
   28SAPC    HY 3706   0.824   3.134   6.305
   28SAPC   O31 3707   0.781   3.337   6.323
   28SAPC   C31 3708   0.856   3.379   6.422
   28SAPC   O32 3709   0.961   3.347   6.464
   28SAPC   C32 3710   0.806   3.486   6.491
   28SAPC   H2X 3711   0.888   3.524   6.429
   28SAPC   H2Y 3712   0.848   3.513   6.593
   28SAPC   C23 3713   0.361   3.142   6.568
   28SAPC   H3R 3714   0.301   3.194   6.505
   28SAPC   H3S 3715   0.436   3.205   6.519
   28SAPC   C24 3716   0.283   3.184   6.701
   28SAPC   H4R 3717   0.307   3.242   6.789
   28SAPC   H4S 3718   0.263   3.311   6.724
   28SAPC   C25 3719   0.263   3.029   6.775
   28SAPC   H5R 3720   0.236   2.961   6.706
   28SAPC   C26 3721   0.283   2.914   6.866
   28SAPC   H6R 3722   0.215   2.826   6.850
   28SAPC   C27 3723   0.397   2.882   6.978
   28SAPC   H7R 3724   0.382   2.783   7.013
   28SAPC   H7S 3725   0.389   2.920   7.078
   28SAPC   C28 3726   0.561   2.893   6.978
   28SAPC   H8R 3727   0.554   2.846   6.883
   28SAPC   C29 3728   0.696   2.957   7.005
   28SAPC   H9R 3729   0.764   2.955   6.931
   28SAPC  C210 3730   0.765   3.073   7.097
   28SAPC  H10R 3731   0.788   3.020   7.179
   28SAPC  H10S 3732   0.687   3.073   7.147
   28SAPC  C211 3733   0.745   3.243   7.075
   28SAPC  H11R 3734   0.669   3.281   6.998
   28SAPC  C212 3735   0.722   3.353   7.139
   28SAPC  H12R 3736   0.694   3.441   7.087
   28SAPC  C213 3737   0.709   3.363   7.274
   28SAPC  H13R 3738   0.770   3.270   7.290
   28SAPC  H13S 3739   0.600   3.374   7.304
   28SAPC  C214 3740   0.793   3.447   7.343
   28SAPC  H14R 3741   0.848   3.500   7.268
   28SAPC  C215 3742   0.818   3.454   7.473
   28SAPC  H15R 3743   0.881   3.531   7.503
   28SAPC  C216 3744   0.772   3.385   7.593
   28SAPC  H16R 3745   0.690   3.355   7.545
   28SAPC  H16S 3746   0.712   3.438   7.670
   28SAPC  C217 3747   0.851   3.257   7.623
   28SAPC  H17R 3748   0.946   3.296   7.653
   28SAPC  H17S 3749   0.860   3.182   7.543
   28SAPC  C218 3750   0.802   3.170   7.733
   28SAPC  H18R 3751   0.720   3.096   7.721
   28SAPC  H18S 3752   0.767   3.242   7.808
   28SAPC  C219 3753   0.861   3.043   7.755
   28SAPC  H19R 3754   0.898   3.022   7.656
   28SAPC  H19S 3755   0.814   2.950   7.792
   28SAPC  C220 3756   0.936   3.106   7.856
   28SAPC  H20R 3757   1.022   3.070   7.818
   28SAPC  H20S 3758   0.949   3.060   7.952
   28SAPC  H20T 3759   0.981   3.207   7.838
   28SAPC   C33 3760   0.682   3.548   6.437
   28SAPC   H3X 3761   0.681   3.547   6.328
   28SAPC   H3Y 3762   0.669   3.653   6.455
   28SAPC   C34 3763   0.566   3.509   6.516
   28SAPC   H4X 3764   0.546   3.414   6.465
   28SAPC   H4Y 3765   0.474   3.555   6.483
   28SAPC   C35 3766   0.590   3.534   6.669
   28SAPC   H5X 3767   0.597   3.630   6.711
   28SAPC   H5Y 3768   0.688   3.500   6.709
   28SAPC   C36 3769   0.463   3.508   6.747
   28SAPC   H6X 3770   0.416   3.419   6.728
   28SAPC   H6Y 3771   0.397   3.573   6.692
   28SAPC   C37 3772   0.459   3.497   6.900
   28SAPC   H7X 3773   0.512   3.589   6.926
   28SAPC   H7Y 3774   0.521   3.413   6.939
   28SAPC   C38 3775   0.319   3.472   6.965
   28SAPC   H8X 3776   0.315   3.370   7.004
   28SAPC   H8Y 3777   0.225   3.494   6.908
   28SAPC   C39 3778   0.289   3.557   7.084
   28SAPC   H9X 3779   0.184   3.575   7.112
   28SAPC   H9Y 3780   0.299   3.640   7.010
   28SAPC  C310 3781   0.377   3.536   7.214
   28SAPC  H10X 3782   0.484   3.545   7.185
   28SAPC  H10Y 3783   0.354   3.439   7.259
   28SAPC  C311 3784   0.361   3.636   7.333
   28SAPC  H11X 3785   0.264   3.688   7.328
   28SAPC  H11Y 3786   0.438   3.718   7.328
   28SAPC  C312 3787   0.407   3.601   7.469
   28SAPC  H12X 3788   0.406   3.697   7.528
   28SAPC  H12Y 3789   0.510   3.563   7.457
   28SAPC  C313 3790   0.319   3.498   7.525
   28SAPC  H13X 3791   0.335   3.410   7.461
   28SAPC  H13Y 3792   0.213   3.522   7.519
   28SAPC  C314 3793   0.354   3.473   7.667
   28SAPC  H14X 3794   0.362   3.565   7.728
   28SAPC  H14Y 3795   0.459   3.448   7.658
   28SAPC  C315 3796   0.259   3.372   7.728
   28SAPC  H15X 3797   0.254   3.277   7.667
   28SAPC  H15Y 3798   0.157   3.407   7.732
   28SAPC  C316 3799   0.303   3.342   7.870
   28SAPC  H16X 3800   0.284   3.419   7.944
   28SAPC  H16Y 3801   0.409   3.351   7.885
   28SAPC  C317 3802   0.245   3.210   7.911
   28SAPC  H17X 3803   0.143   3.242   7.894
   28SAPC  H17Y 3804   0.263   3.203   8.013
   28SAPC  C318 3805   0.284   3.067   7.874
   28SAPC  H18X 3806   0.307   3.068   7.767
   28SAPC  H18Y 3807   0.223   2.982   7.906
   28SAPC  H18Z 3808   0.364   3.022   7.922
   29SAPC     N 3809   3.141  -0.076   5.804
   29SAPC   C12 3810   3.271  -0.071   5.877
   29SAPC  H12A 3811   3.351  -0.053   5.808
   29SAPC  H12B 3812   3.290  -0.167   5.923
   29SAPC   C13 3813   3.045  -0.088   5.899
   29SAPC  H13A 3814   3.061  -0.169   5.971
   29SAPC  H13B 3815   3.027   0.003   5.951
   29SAPC  H13C 3816   2.956  -0.120   5.844
   29SAPC   C14 3817   3.119   0.040   5.713
   29SAPC  H14A 3818   3.108   0.131   5.771
   29SAPC  H14B 3819   3.202   0.043   5.644
   29SAPC  H14C 3820   3.029   0.030   5.653
   29SAPC   C15 3821   3.121  -0.198   5.734
   29SAPC  H15A 3822   3.024  -0.233   5.702
   29SAPC  H15B 3823   3.181  -0.190   5.646
   29SAPC  H15C 3824   3.176  -0.276   5.770
   29SAPC   C11 3825   3.291   0.044   5.971
   29SAPC  H11A 3826   3.251   0.138   5.925
   29SAPC  H11B 3827   3.402   0.058   5.981
   29SAPC     P 3828   3.307  -0.044   6.210
   29SAPC   O13 3829   3.344  -0.184   6.182
   29SAPC   O14 3830   3.416   0.054   6.234
   29SAPC   O12 3831   3.221   0.009   6.089
   29SAPC   O11 3832   3.203  -0.038   6.328
   29SAPC    C1 3833   3.113   0.071   6.333
   29SAPC    HA 3834   3.172   0.162   6.361
   29SAPC    HB 3835   3.064   0.088   6.234
   29SAPC    C2 3836   2.998   0.047   6.435
   29SAPC    HS 3837   2.942   0.143   6.444
   29SAPC   O21 3838   3.051   0.004   6.561
   29SAPC   C21 3839   3.053   0.092   6.657
   29SAPC   O22 3840   3.017   0.208   6.649
   29SAPC   C22 3841   3.103   0.023   6.783
   29SAPC   H2R 3842   3.068   0.074   6.875
   29SAPC   H2S 3843   3.063  -0.081   6.782
   29SAPC    C3 3844   2.901  -0.067   6.392
   29SAPC    HX 3845   2.833  -0.052   6.307
   29SAPC    HY 3846   2.831  -0.080   6.480
   29SAPC   O31 3847   2.977  -0.180   6.349
   29SAPC   C31 3848   2.908  -0.286   6.349
   29SAPC   O32 3849   2.791  -0.292   6.372
   29SAPC   C32 3850   2.987  -0.409   6.321
   29SAPC   H2X 3851   3.083  -0.388   6.273
   29SAPC   H2Y 3852   2.924  -0.456   6.245
   29SAPC   C23 3853   3.256   0.005   6.777
   29SAPC   H3R 3854   3.276  -0.065   6.692
   29SAPC   H3S 3855   3.285  -0.044   6.872
   29SAPC   C24 3856   3.342   0.130   6.750
   29SAPC   H4R 3857   3.330   0.202   6.833
   29SAPC   H4S 3858   3.307   0.178   6.657
   29SAPC   C25 3859   3.489   0.108   6.733
   29SAPC   H5R 3860   3.531   0.134   6.635
   29SAPC   C26 3861   3.575   0.070   6.828
   29SAPC   H6R 3862   3.682   0.060   6.804
   29SAPC   C27 3863   3.539   0.042   6.970
   29SAPC   H7R 3864   3.435   0.057   7.000
   29SAPC   H7S 3865   3.611   0.086   7.040
   29SAPC   C28 3866   3.518  -0.096   6.988
   29SAPC   H8R 3867   3.576  -0.150   6.911
   29SAPC   C29 3868   3.475  -0.161   7.099
   29SAPC   H9R 3869   3.503  -0.265   7.111
   29SAPC  C210 3870   3.441  -0.115   7.232
   29SAPC  H10R 3871   3.415  -0.012   7.225
   29SAPC  H10S 3872   3.529  -0.079   7.278
   29SAPC  C211 3873   3.395  -0.214   7.337
   29SAPC  H11R 3874   3.435  -0.318   7.336
   29SAPC  C212 3875   3.350  -0.184   7.456
   29SAPC  H12R 3876   3.326  -0.273   7.515
   29SAPC  C213 3877   3.332  -0.048   7.513
   29SAPC  H13R 3878   3.430  -0.007   7.542
   29SAPC  H13S 3879   3.278  -0.059   7.607
   29SAPC  C214 3880   3.257   0.045   7.423
   29SAPC  H14R 3881   3.175   0.001   7.368
   29SAPC  C215 3882   3.294   0.163   7.382
   29SAPC  H15R 3883   3.230   0.229   7.322
   29SAPC  C216 3884   3.419   0.224   7.423
   29SAPC  H16R 3885   3.473   0.273   7.336
   29SAPC  H16S 3886   3.489   0.179   7.495
   29SAPC  C217 3887   3.353   0.322   7.511
   29SAPC  H17R 3888   3.280   0.391   7.468
   29SAPC  H17S 3889   3.464   0.359   7.499
   29SAPC  C218 3890   3.275   0.342   7.663
   29SAPC  H18R 3891   3.355   0.266   7.695
   29SAPC  H18S 3892   3.192   0.309   7.638
   29SAPC  C219 3893   3.241   0.516   7.786
   29SAPC  H19R 3894   3.193   0.461   7.858
   29SAPC  H19S 3895   3.185   0.594   7.751
   29SAPC  C220 3896   3.429   0.657   7.822
   29SAPC  H20R 3897   3.526   0.615   7.753
   29SAPC  H20S 3898   3.534   0.606   7.857
   29SAPC  H20T 3899   3.435   0.668   7.915
   29SAPC   C33 3900   3.005  -0.488   6.451
   29SAPC   H3X 3901   3.037  -0.590   6.427
   29SAPC   H3Y 3902   2.909  -0.498   6.507
   29SAPC   C34 3903   3.115  -0.431   6.542
   29SAPC   H4X 3904   3.104  -0.321   6.564
   29SAPC   H4Y 3905   3.211  -0.445   6.488
   29SAPC   C35 3906   3.116  -0.510   6.673
   29SAPC   H5X 3907   3.105  -0.618   6.650
   29SAPC   H5Y 3908   3.025  -0.484   6.731
   29SAPC   C36 3909   3.239  -0.491   6.760
   29SAPC   H6X 3910   3.336  -0.496   6.706
   29SAPC   H6Y 3911   3.243  -0.574   6.834
   29SAPC   C37 3912   3.231  -0.355   6.827
   29SAPC   H7X 3913   3.246  -0.273   6.755
   29SAPC   H7Y 3914   3.311  -0.352   6.891
   29SAPC   C38 3915   3.129  -0.325   6.935
   29SAPC   H8X 3916   3.033  -0.322   6.882
   29SAPC   H8Y 3917   3.155  -0.226   6.981
   29SAPC   C39 3918   3.133  -0.427   7.047
   29SAPC   H9X 3919   3.228  -0.426   7.103
   29SAPC   H9Y 3920   3.122  -0.529   7.006
   29SAPC  C310 3921   3.027  -0.406   7.148
   29SAPC  H10X 3922   3.048  -0.498   7.211
   29SAPC  H10Y 3923   2.929  -0.398   7.094
   29SAPC  C311 3924   3.038  -0.298   7.250
   29SAPC  H11X 3925   3.034  -0.206   7.189
   29SAPC  H11Y 3926   3.138  -0.318   7.291
   29SAPC  C312 3927   2.928  -0.292   7.357
   29SAPC  H12X 3928   2.911  -0.381   7.421
   29SAPC  H12Y 3929   2.833  -0.275   7.300
   29SAPC  C313 3930   2.964  -0.185   7.458
   29SAPC  H13X 3931   2.972  -0.091   7.403
   29SAPC  H13Y 3932   3.065  -0.201   7.503
   29SAPC  C314 3933   2.865  -0.181   7.571
   29SAPC  H14X 3934   2.880  -0.269   7.637
   29SAPC  H14Y 3935   2.760  -0.181   7.534
   29SAPC  C315 3936   2.888  -0.065   7.656
   29SAPC  H15X 3937   2.984  -0.057   7.698
   29SAPC  H15Y 3938   2.814  -0.065   7.737
   29SAPC  C316 3939   2.922   0.066   7.589
   29SAPC  H16X 3940   2.812   0.069   7.544
   29SAPC  H16Y 3941   2.930   0.062   7.484
   29SAPC  C317 3942   2.996   0.215   7.683
   29SAPC  H17X 3943   3.039   0.258   7.604
   29SAPC  H17Y 3944   3.077   0.160   7.719
   29SAPC  C318 3945   2.901   0.353   7.804
   29SAPC  H18X 3946   2.821   0.318   7.881
   29SAPC  H18Y 3947   2.806   0.396   7.759
   29SAPC  H18Z 3948   2.959   0.406   7.867
   30SAPC     N 3949   5.520  -0.042   6.036
   30SAPC   C12 3950   5.391  -0.117   6.077
   30SAPC  H12A 3951   5.338  -0.053   6.146
   30SAPC  H12B 3952   5.423  -0.204   6.138
   30SAPC   C13 3953   5.514   0.115   6.016
   30SAPC  H13A 3954   5.445   0.161   5.935
   30SAPC  H13B 3955   5.450   0.169   6.081
   30SAPC  H13C 3956   5.593   0.154   5.953
   30SAPC   C14 3957   5.597  -0.051   6.160
   30SAPC  H14A 3958   5.570   0.023   6.235
   30SAPC  H14B 3959   5.642  -0.144   6.191
   30SAPC  H14C 3960   5.681  -0.004   6.122
   30SAPC   C15 3961   5.588  -0.125   5.927
   30SAPC  H15A 3962   5.510  -0.159   5.859
   30SAPC  H15B 3963   5.656  -0.069   5.863
   30SAPC  H15C 3964   5.636  -0.218   5.958
   30SAPC   C11 3965   5.280  -0.170   5.978
   30SAPC  H11A 3966   5.213  -0.240   6.031
   30SAPC  H11B 3967   5.333  -0.225   5.896
   30SAPC     P 3968   5.087   0.021   5.973
   30SAPC   O13 3969   5.085   0.151   5.901
   30SAPC   O14 3970   4.972  -0.070   5.971
   30SAPC   O12 3971   5.195  -0.074   5.916
   30SAPC   O11 3972   5.143   0.041   6.118
   30SAPC    C1 3973   5.189   0.172   6.153
   30SAPC    HA 3974   5.261   0.218   6.081
   30SAPC    HB 3975   5.100   0.239   6.160
   30SAPC    C2 3976   5.257   0.160   6.287
   30SAPC    HS 3977   5.362   0.124   6.272
   30SAPC   O21 3978   5.185   0.078   6.372
   30SAPC   C21 3979   5.246  -0.025   6.410
   30SAPC   O22 3980   5.354  -0.072   6.378
   30SAPC   C22 3981   5.155  -0.084   6.498
   30SAPC   H2R 3982   5.166  -0.050   6.602
   30SAPC   H2S 3983   5.049  -0.056   6.468
   30SAPC    C3 3984   5.266   0.283   6.362
   30SAPC    HX 3985   5.174   0.344   6.353
   30SAPC    HY 3986   5.326   0.356   6.308
   30SAPC   O31 3987   5.299   0.243   6.502
   30SAPC   C31 3988   5.422   0.215   6.550
   30SAPC   O32 3989   5.524   0.192   6.492
   30SAPC   C32 3990   5.423   0.246   6.696
   30SAPC   H2X 3991   5.336   0.187   6.727
   30SAPC   H2Y 3992   5.411   0.353   6.726
   30SAPC   C23 3993   5.206  -0.227   6.484
   30SAPC   H3R 3994   5.220  -0.272   6.386
   30SAPC   H3S 3995   5.116  -0.262   6.497
   30SAPC   C24 3996   5.261  -0.307   6.603
   30SAPC   H4R 3997   5.344  -0.243   6.627
   30SAPC   H4S 3998   5.292  -0.398   6.564
   30SAPC   C25 3999   5.213  -0.356   6.732
   30SAPC   H5R 4000   5.134  -0.439   6.740
   30SAPC   C26 4001   5.226  -0.268   6.832
   30SAPC   H6R 4002   5.220  -0.303   6.928
   30SAPC   C27 4003   5.265  -0.141   6.883
   30SAPC   H7R 4004   5.238  -0.083   6.796
   30SAPC   H7S 4005   5.367  -0.180   6.900
   30SAPC   C28 4006   5.202  -0.076   7.007
   30SAPC   H8R 4007   5.137   0.007   6.987
   30SAPC   C29 4008   5.222  -0.100   7.138
   30SAPC   H9R 4009   5.175  -0.043   7.218
   30SAPC  C210 4010   5.311  -0.196   7.195
   30SAPC  H10R 4011   5.313  -0.264   7.105
   30SAPC  H10S 4012   5.261  -0.239   7.284
   30SAPC  C211 4013   5.450  -0.181   7.237
   30SAPC  H11R 4014   5.506  -0.151   7.149
   30SAPC  C212 4015   5.513  -0.211   7.354
   30SAPC  H12R 4016   5.615  -0.176   7.362
   30SAPC  C213 4017   5.469  -0.269   7.486
   30SAPC  H13R 4018   5.525  -0.363   7.512
   30SAPC  H13S 4019   5.367  -0.298   7.482
   30SAPC  C214 4020   5.457  -0.165   7.592
   30SAPC  H14R 4021   5.432  -0.064   7.557
   30SAPC  C215 4022   5.467  -0.183   7.722
   30SAPC  H15R 4023   5.454  -0.094   7.786
   30SAPC  C216 4024   5.494  -0.317   7.785
   30SAPC  H16R 4025   5.550  -0.386   7.721
   30SAPC  H16S 4026   5.402  -0.366   7.826
   30SAPC  C217 4027   5.578  -0.290   7.900
   30SAPC  H17R 4028   5.678  -0.241   7.881
   30SAPC  H17S 4029   5.605  -0.391   7.947
   30SAPC  C218 4030   5.475  -0.205   7.987
   30SAPC  H18R 4031   5.499  -0.096   7.994
   30SAPC  H18S 4032   5.531  -0.262   8.040
   30SAPC  C219 4033   5.413  -0.266   8.117
   30SAPC  H19R 4034   5.447  -0.374   8.143
   30SAPC  H19S 4035   5.320  -0.271   8.066
   30SAPC  C220 4036   5.409  -0.187   8.251
   30SAPC  H20R 4037   5.360  -0.090   8.236
   30SAPC  H20S 4038   5.503  -0.166   8.306
   30SAPC  H20T 4039   5.352  -0.251   8.320
   30SAPC   C33 4040   5.557   0.195   6.748
   30SAPC   H3X 4041   5.642   0.257   6.713
   30SAPC   H3Y 4042   5.571   0.091   6.709
   30SAPC   C34 4043   5.567   0.208   6.898
   30SAPC   H4X 4044   5.564   0.317   6.922
   30SAPC   H4Y 4045   5.664   0.173   6.937
   30SAPC   C35 4046   5.457   0.133   6.969
   30SAPC   H5X 4047   5.485   0.027   6.975
   30SAPC   H5Y 4048   5.355   0.141   6.924
   30SAPC   C36 4049   5.458   0.172   7.114
   30SAPC   H6X 4050   5.540   0.243   7.144
   30SAPC   H6Y 4051   5.450   0.086   7.180
   30SAPC   C37 4052   5.324   0.220   7.147
   30SAPC   H7X 4053   5.230   0.193   7.100
   30SAPC   H7Y 4054   5.342   0.296   7.066
   30SAPC   C38 4055   5.298   0.241   7.302
   30SAPC   H8X 4056   5.212   0.313   7.332
   30SAPC   H8Y 4057   5.388   0.264   7.364
   30SAPC   C39 4058   5.229   0.143   7.376
   30SAPC   H9X 4059   5.314   0.075   7.367
   30SAPC   H9Y 4060   5.142   0.137   7.307
   30SAPC  C310 4061   5.198   0.195   7.514
   30SAPC  H10X 4062   5.129   0.285   7.506
   30SAPC  H10Y 4063   5.290   0.224   7.570
   30SAPC  C311 4064   5.117   0.102   7.588
   30SAPC  H11X 4065   5.157   0.002   7.598
   30SAPC  H11Y 4066   5.028   0.106   7.520
   30SAPC  C312 4067   5.086   0.159   7.725
   30SAPC  H12X 4068   5.012   0.108   7.790
   30SAPC  H12Y 4069   5.023   0.236   7.687
   30SAPC  C313 4070   5.189   0.151   7.828
   30SAPC  H13X 4071   5.265   0.227   7.816
   30SAPC  H13Y 4072   5.231   0.050   7.808
   30SAPC  C314 4073   5.126   0.141   7.967
   30SAPC  H14X 4074   5.082   0.040   7.974
   30SAPC  H14Y 4075   5.048   0.217   7.989
   30SAPC  C315 4076   5.230   0.147   8.073
   30SAPC  H15X 4077   5.298   0.060   8.064
   30SAPC  H15Y 4078   5.183   0.149   8.173
   30SAPC  C316 4079   5.306   0.274   8.068
   30SAPC  H16X 4080   5.265   0.355   8.131
   30SAPC  H16Y 4081   5.365   0.302   7.989
   30SAPC  C317 4082   5.460   0.263   8.069
   30SAPC  H17X 4083   5.525   0.175   8.053
   30SAPC  H17Y 4084   5.423   0.184   8.161
   30SAPC  C318 4085   5.551   0.432   8.088
   30SAPC  H18X 4086   5.556   0.501   8.012
   30SAPC  H18Y 4087   5.655   0.433   8.150
   30SAPC  H18Z 4088   5.515   0.519   8.157
   31SAPC     N 4089   6.824   1.185   5.821
   31SAPC   C12 4090   6.769   1.190   5.962
   31SAPC  H12A 4091   6.715   1.097   5.976
   31SAPC  H12B 4092   6.701   1.275   5.970
   31SAPC   C13 4093   6.900   1.057   5.797
   31SAPC  H13A 4094   6.839   0.967   5.798
   31SAPC  H13B 4095   6.957   1.062   5.705
   31SAPC  H13C 4096   6.975   1.040   5.876
   31SAPC   C14 4097   6.707   1.197   5.732
   31SAPC  H14A 4098   6.736   1.191   5.628
   31SAPC  H14B 4099   6.636   1.116   5.749
   31SAPC  H14C 4100   6.659   1.292   5.753
   31SAPC   C15 4101   6.917   1.301   5.804
   31SAPC  H15A 4102   6.874   1.393   5.844
   31SAPC  H15B 4103   7.007   1.282   5.864
   31SAPC  H15C 4104   6.944   1.314   5.700
   31SAPC   C11 4105   6.869   1.205   6.079
   31SAPC  H11A 4106   6.810   1.200   6.174
   31SAPC  H11B 4107   6.918   1.306   6.071
   31SAPC     P 4108   7.094   1.110   6.169
   31SAPC   O13 4109   7.056   1.160   6.303
   31SAPC   O14 4110   7.167   0.982   6.161
   31SAPC   O12 4111   6.964   1.099   6.078
   31SAPC   O11 4112   7.171   1.221   6.084
   31SAPC    C1 4113   7.199   1.344   6.144
   31SAPC    HA 4114   7.201   1.429   6.070
   31SAPC    HB 4115   7.118   1.373   6.217
   31SAPC    C2 4116   7.335   1.334   6.212
   31SAPC    HS 4117   7.418   1.303   6.144
   31SAPC   O21 4118   7.330   1.256   6.333
   31SAPC   C21 4119   7.440   1.205   6.382
   31SAPC   O22 4120   7.554   1.223   6.343
   31SAPC   C22 4121   7.405   1.131   6.513
   31SAPC   H2R 4122   7.481   1.166   6.586
   31SAPC   H2S 4123   7.307   1.165   6.551
   31SAPC    C3 4124   7.358   1.470   6.247
   31SAPC    HX 4125   7.392   1.530   6.161
   31SAPC    HY 4126   7.449   1.443   6.306
   31SAPC   O31 4127   7.225   1.509   6.311
   31SAPC   C31 4128   7.255   1.573   6.414
   31SAPC   O32 4129   7.367   1.582   6.424
   31SAPC   C32 4130   7.162   1.659   6.488
   31SAPC   H2X 4131   7.086   1.641   6.414
   31SAPC   H2Y 4132   7.181   1.770   6.486
   31SAPC   C23 4133   7.404   0.976   6.502
   31SAPC   H3R 4134   7.492   0.936   6.447
   31SAPC   H3S 4135   7.316   0.940   6.444
   31SAPC   C24 4136   7.388   0.916   6.642
   31SAPC   H4R 4137   7.353   0.810   6.644
   31SAPC   H4S 4138   7.310   0.972   6.693
   31SAPC   C25 4139   7.518   0.920   6.713
   31SAPC   H5R 4140   7.589   0.858   6.663
   31SAPC   C26 4141   7.558   0.979   6.824
   31SAPC   H6R 4142   7.653   0.946   6.871
   31SAPC   C27 4143   7.458   1.062   6.896
   31SAPC   H7R 4144   7.416   1.012   6.982
   31SAPC   H7S 4145   7.387   1.105   6.824
   31SAPC   C28 4146   7.519   1.182   6.942
   31SAPC   H8R 4147   7.571   1.222   6.852
   31SAPC   C29 4148   7.532   1.232   7.068
   31SAPC   H9R 4149   7.604   1.309   7.093
   31SAPC  C210 4150   7.490   1.182   7.198
   31SAPC  H10R 4151   7.487   1.072   7.191
   31SAPC  H10S 4152   7.391   1.227   7.193
   31SAPC  C211 4153   7.567   1.234   7.319
   31SAPC  H11R 4154   7.668   1.192   7.329
   31SAPC  C212 4155   7.522   1.322   7.413
   31SAPC  H12R 4156   7.592   1.354   7.492
   31SAPC  C213 4157   7.385   1.389   7.417
   31SAPC  H13R 4158   7.310   1.321   7.461
   31SAPC  H13S 4159   7.350   1.407   7.314
   31SAPC  C214 4160   7.371   1.524   7.479
   31SAPC  H14R 4161   7.402   1.603   7.416
   31SAPC  C215 4162   7.350   1.561   7.605
   31SAPC  H15R 4163   7.358   1.667   7.634
   31SAPC  C216 4164   7.337   1.468   7.715
   31SAPC  H16R 4165   7.428   1.406   7.731
   31SAPC  H16S 4166   7.269   1.408   7.656
   31SAPC  C217 4167   7.287   1.530   7.849
   31SAPC  H17R 4168   7.185   1.574   7.853
   31SAPC  H17S 4169   7.363   1.604   7.877
   31SAPC  C218 4170   7.286   1.442   7.970
   31SAPC  H18R 4171   7.190   1.395   7.988
   31SAPC  H18S 4172   7.302   1.506   8.058
   31SAPC  C219 4173   7.392   1.343   7.974
   31SAPC  H19R 4174   7.485   1.403   7.967
   31SAPC  H19S 4175   7.384   1.259   7.907
   31SAPC  C220 4176   7.384   1.280   8.100
   31SAPC  H20R 4177   7.371   1.373   8.158
   31SAPC  H20S 4178   7.480   1.218   8.115
   31SAPC  H20T 4179   7.305   1.240   8.162
   31SAPC   C33 4180   7.167   1.604   6.630
   31SAPC   H3X 4181   7.088   1.652   6.687
   31SAPC   H3Y 4182   7.258   1.634   6.682
   31SAPC   C34 4183   7.156   1.453   6.638
   31SAPC   H4X 4184   7.242   1.398   6.594
   31SAPC   H4Y 4185   7.073   1.425   6.572
   31SAPC   C35 4186   7.138   1.389   6.775
   31SAPC   H5X 4187   7.228   1.402   6.840
   31SAPC   H5Y 4188   7.132   1.282   6.745
   31SAPC   C36 4189   7.016   1.443   6.852
   31SAPC   H6X 4190   6.936   1.479   6.782
   31SAPC   H6Y 4191   7.057   1.531   6.907
   31SAPC   C37 4192   6.947   1.347   6.953
   31SAPC   H7X 4193   6.894   1.266   6.897
   31SAPC   H7Y 4194   6.870   1.404   7.010
   31SAPC   C38 4195   7.038   1.270   7.052
   31SAPC   H8X 4196   7.109   1.209   6.994
   31SAPC   H8Y 4197   6.978   1.199   7.113
   31SAPC   C39 4198   7.117   1.358   7.149
   31SAPC   H9X 4199   7.164   1.443   7.096
   31SAPC   H9Y 4200   7.202   1.301   7.193
   31SAPC  C310 4201   7.029   1.404   7.265
   31SAPC  H10X 4202   6.941   1.461   7.229
   31SAPC  H10Y 4203   7.090   1.474   7.325
   31SAPC  C311 4204   6.986   1.291   7.358
   31SAPC  H11X 4205   7.073   1.222   7.373
   31SAPC  H11Y 4206   6.901   1.231   7.320
   31SAPC  C312 4207   6.943   1.348   7.492
   31SAPC  H12X 4208   6.875   1.433   7.482
   31SAPC  H12Y 4209   7.034   1.389   7.542
   31SAPC  C313 4210   6.873   1.242   7.575
   31SAPC  H13X 4211   6.770   1.218   7.541
   31SAPC  H13Y 4212   6.864   1.267   7.681
   31SAPC  C314 4213   6.958   1.123   7.587
   31SAPC  H14X 4214   6.963   1.067   7.494
   31SAPC  H14Y 4215   6.897   1.058   7.659
   31SAPC  C315 4216   7.123   1.129   7.600
   31SAPC  H15X 4217   7.072   1.121   7.694
   31SAPC  H15Y 4218   7.166   1.223   7.577
   31SAPC  C316 4219   7.247   1.058   7.673
   31SAPC  H16X 4220   7.256   1.019   7.569
   31SAPC  H16Y 4221   7.242   0.975   7.746
   31SAPC  C317 4222   7.385   1.082   7.690
   31SAPC  H17X 4223   7.377   1.127   7.788
   31SAPC  H17Y 4224   7.404   1.143   7.601
   31SAPC  C318 4225   7.463   0.951   7.701
   31SAPC  H18X 4226   7.460   0.888   7.609
   31SAPC  H18Y 4227   7.438   0.887   7.789
   31SAPC  H18Z 4228   7.564   0.992   7.717
   32SAPC     N 4229   0.246   0.588   5.790
   32SAPC   C12 4230   0.226   0.467   5.858
   32SAPC  H12A 4231   0.242   0.374   5.801
   32SAPC  H12B 4232   0.116   0.457   5.847
   32SAPC   C13 4233   0.193   0.569   5.652
   32SAPC  H13A 4234   0.088   0.541   5.650
   32SAPC  H13B 4235   0.204   0.663   5.603
   32SAPC  H13C 4236   0.245   0.491   5.599
   32SAPC   C14 4237   0.178   0.698   5.865
   32SAPC  H14A 4238   0.071   0.702   5.848
   32SAPC  H14B 4239   0.180   0.684   5.974
   32SAPC  H14C 4240   0.218   0.792   5.837
   32SAPC   C15 4241   0.390   0.596   5.793
   32SAPC  H15A 4242   0.422   0.577   5.897
   32SAPC  H15B 4243   0.434   0.517   5.734
   32SAPC  H15C 4244   0.412   0.693   5.759
   32SAPC   C11 4245   0.266   0.450   6.016
   32SAPC  H11A 4246   0.372   0.432   6.026
   32SAPC  H11B 4247   0.240   0.355   6.069
   32SAPC     P 4248   0.093   0.553   6.208
   32SAPC   O13 4249   0.101   0.674   6.288
   32SAPC   O14 4250  -0.040   0.531   6.150
   32SAPC   O12 4251   0.207   0.549   6.097
   32SAPC   O11 4252   0.126   0.430   6.306
   32SAPC    C1 4253   0.081   0.299   6.296
   32SAPC    HA 4254  -0.024   0.287   6.333
   32SAPC    HB 4255   0.081   0.285   6.192
   32SAPC    C2 4256   0.179   0.189   6.352
   32SAPC    HS 4257   0.131   0.087   6.345
   32SAPC   O21 4258   0.206   0.212   6.488
   32SAPC   C21 4259   0.109   0.181   6.566
   32SAPC   O22 4260  -0.008   0.158   6.539
   32SAPC   C22 4261   0.173   0.168   6.696
   32SAPC   H2R 4262   0.270   0.114   6.692
   32SAPC   H2S 4263   0.205   0.267   6.733
   32SAPC    C3 4264   0.316   0.180   6.274
   32SAPC    HX 4265   0.310   0.146   6.168
   32SAPC    HY 4266   0.373   0.102   6.330
   32SAPC   O31 4267   0.378   0.310   6.272
   32SAPC   C31 4268   0.487   0.340   6.338
   32SAPC   O32 4269   0.574   0.268   6.373
   32SAPC   C32 4270   0.525   0.482   6.345
   32SAPC   H2X 4271   0.463   0.533   6.273
   32SAPC   H2Y 4272   0.633   0.472   6.313
   32SAPC   C23 4273   0.079   0.108   6.792
   32SAPC   H3R 4274   0.063  -0.002   6.770
   32SAPC   H3S 4275  -0.024   0.141   6.804
   32SAPC   C24 4276   0.164   0.151   6.916
   32SAPC   H4R 4277   0.264   0.104   6.920
   32SAPC   H4S 4278   0.107   0.071   6.936
   32SAPC   C25 4279   0.140   0.240   7.037
   32SAPC   H5R 4280   0.094   0.323   6.989
   32SAPC   C26 4281   0.143   0.232   7.178
   32SAPC   H6R 4282   0.105   0.315   7.236
   32SAPC   C27 4283   0.173   0.126   7.284
   32SAPC   H7R 4284   0.247   0.050   7.258
   32SAPC   H7S 4285   0.095   0.068   7.341
   32SAPC   C28 4286   0.283   0.170   7.357
   32SAPC   H8R 4287   0.366   0.216   7.303
   32SAPC   C29 4288   0.305   0.127   7.473
   32SAPC   H9R 4289   0.405   0.118   7.465
   32SAPC  C210 4290   0.259   0.040   7.576
   32SAPC  H10R 4291   0.323   0.047   7.668
   32SAPC  H10S 4292   0.263  -0.051   7.523
   32SAPC  C211 4293   0.131   0.067   7.613
   32SAPC  H11R 4294   0.070   0.123   7.544
   32SAPC  C212 4295   0.083   0.010   7.716
   32SAPC  H12R 4296  -0.007   0.054   7.740
   32SAPC  C213 4297   0.110  -0.084   7.825
   32SAPC  H13R 4298   0.141  -0.156   7.770
   32SAPC  H13S 4299   0.040  -0.163   7.861
   32SAPC  C214 4300   0.191  -0.004   7.915
   32SAPC  H14R 4301   0.137   0.083   7.933
   32SAPC  C215 4302   0.302  -0.007   7.984
   32SAPC  H15R 4303   0.294   0.014   8.089
   32SAPC  C216 4304   0.403  -0.101   8.004
   32SAPC  H16R 4305   0.381  -0.167   7.931
   32SAPC  H16S 4306   0.374  -0.142   8.107
   32SAPC  C217 4307   0.532  -0.142   7.949
   32SAPC  H17R 4308   0.531  -0.240   7.937
   32SAPC  H17S 4309   0.587  -0.122   8.034
   32SAPC  C218 4310   0.604  -0.219   7.843
   32SAPC  H18R 4311   0.562  -0.302   7.782
   32SAPC  H18S 4312   0.699  -0.268   7.870
   32SAPC  C219 4313   0.588  -0.091   7.794
   32SAPC  H19R 4314   0.481  -0.056   7.777
   32SAPC  H19S 4315   0.637  -0.125   7.705
   32SAPC  C220 4316   0.649   0.024   7.871
   32SAPC  H20R 4317   0.756   0.020   7.856
   32SAPC  H20S 4318   0.618   0.045   7.975
   32SAPC  H20T 4319   0.598   0.107   7.829
   32SAPC   C33 4320   0.525   0.544   6.485
   32SAPC   H3X 4321   0.566   0.640   6.486
   32SAPC   H3Y 4322   0.614   0.514   6.542
   32SAPC   C34 4323   0.387   0.543   6.554
   32SAPC   H4X 4324   0.356   0.445   6.595
   32SAPC   H4Y 4325   0.312   0.572   6.477
   32SAPC   C35 4326   0.380   0.643   6.666
   32SAPC   H5X 4327   0.398   0.741   6.616
   32SAPC   H5Y 4328   0.456   0.632   6.745
   32SAPC   C36 4329   0.244   0.649   6.732
   32SAPC   H6X 4330   0.177   0.678   6.648
   32SAPC   H6Y 4331   0.259   0.725   6.812
   32SAPC   C37 4332   0.180   0.536   6.804
   32SAPC   H7X 4333   0.265   0.487   6.854
   32SAPC   H7Y 4334   0.137   0.475   6.721
   32SAPC   C38 4335   0.068   0.579   6.902
   32SAPC   H8X 4336   0.017   0.488   6.939
   32SAPC   H8Y 4337  -0.008   0.637   6.847
   32SAPC   C39 4338   0.114   0.661   7.024
   32SAPC   H9X 4339   0.028   0.696   7.085
   32SAPC   H9Y 4340   0.163   0.754   6.990
   32SAPC  C310 4341   0.209   0.585   7.118
   32SAPC  H10X 4342   0.296   0.544   7.063
   32SAPC  H10Y 4343   0.162   0.498   7.164
   32SAPC  C311 4344   0.256   0.672   7.232
   32SAPC  H11X 4345   0.260   0.778   7.197
   32SAPC  H11Y 4346   0.352   0.627   7.262
   32SAPC  C312 4347   0.171   0.677   7.356
   32SAPC  H12X 4348   0.071   0.702   7.316
   32SAPC  H12Y 4349   0.200   0.761   7.424
   32SAPC  C313 4350   0.186   0.548   7.435
   32SAPC  H13X 4351   0.293   0.532   7.462
   32SAPC  H13Y 4352   0.154   0.459   7.376
   32SAPC  C314 4353   0.110   0.554   7.565
   32SAPC  H14X 4354   0.014   0.594   7.539
   32SAPC  H14Y 4355   0.152   0.630   7.633
   32SAPC  C315 4356   0.100   0.417   7.630
   32SAPC  H15X 4357   0.198   0.404   7.680
   32SAPC  H15Y 4358   0.089   0.342   7.549
   32SAPC  C316 4359  -0.014   0.393   7.727
   32SAPC  H16X 4360  -0.010   0.288   7.768
   32SAPC  H16Y 4361  -0.111   0.405   7.676
   32SAPC  C317 4362  -0.010   0.487   7.842
   32SAPC  H17X 4363  -0.113   0.512   7.876
   32SAPC  H17Y 4364   0.035   0.587   7.821
   32SAPC  C318 4365   0.056   0.415   7.954
   32SAPC  H18X 4366   0.051   0.505   8.014
   32SAPC  H18Y 4367   0.163   0.387   7.950
   32SAPC  H18Z 4368  -0.005   0.336   8.003
   33POPC     N 4369   3.954   2.769   9.911
   33POPC   C12 4370   4.015   2.857  10.016
   33POPC  H12A 4371   4.103   2.810  10.054
   33POPC  H12B 4372   3.940   2.863  10.094
   33POPC   C13 4373   3.805   2.792   9.903
   33POPC  H13A 4374   3.755   2.717   9.843
   33POPC  H13B 4375   3.765   2.784  10.003
   33POPC  H13C 4376   3.783   2.892   9.864
   33POPC   C14 4377   4.014   2.798   9.778
   33POPC  H14A 4378   3.967   2.886   9.734
   33POPC  H14B 4379   4.117   2.828   9.794
   33POPC  H14C 4380   3.998   2.713   9.714
   33POPC   C15 4381   3.979   2.630   9.955
   33POPC  H15A 4382   3.939   2.616  10.055
   33POPC  H15B 4383   4.084   2.607   9.960
   33POPC  H15C 4384   3.928   2.561   9.889
   33POPC   C11 4385   4.060   2.995   9.977
   33POPC  H11A 4386   4.142   2.991   9.903
   33POPC  H11B 4387   4.097   3.056  10.062
   33POPC     P 4388   3.951   3.203   9.905
   33POPC   O13 4389   3.968   3.294  10.021
   33POPC   O14 4390   3.828   3.200   9.836
   33POPC   O12 4391   3.949   3.056   9.929
   33POPC   O11 4392   4.074   3.199   9.812
   33POPC    C1 4393   4.118   3.329   9.826
   33POPC    HA 4394   4.227   3.328   9.833
   33POPC    HB 4395   4.132   3.419   9.776
   33POPC    C2 4396   4.035   3.377   9.690
   33POPC    HS 4397   3.960   3.419   9.673
   33POPC   O21 4398   4.010   3.238   9.597
   33POPC   C21 4399   3.926   3.242   9.490
   33POPC   O22 4400   3.852   3.336   9.483
   33POPC   C22 4401   3.950   3.134   9.371
   33POPC   H2R 4402   3.957   3.047   9.435
   33POPC   H2S 4403   4.042   3.146   9.309
   33POPC    C3 4404   4.133   3.552   9.619
   33POPC    HX 4405   4.109   3.633   9.677
   33POPC    HY 4406   4.054   3.589   9.552
   33POPC   O31 4407   4.284   3.600   9.553
   33POPC   C31 4408   4.366   3.568   9.412
   33POPC   O32 4409   4.316   3.538   9.327
   33POPC   C32 4410   4.530   3.490   9.314
   33POPC   H2X 4411   4.490   3.528   9.399
   33POPC   H2Y 4412   4.495   3.538   9.223
   33POPC   C23 4413   3.834   3.076   9.285
   33POPC   H3R 4414   3.739   3.065   9.335
   33POPC   H3S 4415   3.848   2.987   9.227
   33POPC   C24 4416   3.795   3.150   9.172
   33POPC   H4R 4417   3.750   3.224   9.242
   33POPC   H4S 4418   3.707   3.142   9.110
   33POPC   C25 4419   3.897   3.165   9.060
   33POPC   H5R 4420   3.948   3.080   9.027
   33POPC   H5S 4421   3.977   3.223   9.120
   33POPC   C26 4422   3.851   3.220   8.908
   33POPC   H6R 4423   3.745   3.267   8.932
   33POPC   H6S 4424   3.793   3.193   8.829
   33POPC   C27 4425   3.977   3.300   8.816
   33POPC   H7R 4426   4.064   3.243   8.805
   33POPC   H7S 4427   4.054   3.383   8.855
   33POPC   C28 4428   3.940   3.376   8.702
   33POPC   H8R 4429   4.026   3.426   8.663
   33POPC   H8S 4430   3.867   3.443   8.720
   33POPC   C29 4431   3.871   3.290   8.619
   33POPC   H91 4432   3.778   3.254   8.664
   33POPC  C210 4433   3.912   3.276   8.498
   33POPC  H101 4434   3.861   3.199   8.446
   33POPC  C211 4435   4.032   3.345   8.437
   33POPC  H11R 4436   4.062   3.285   8.350
   33POPC  H11S 4437   4.121   3.355   8.503
   33POPC  C212 4438   3.994   3.478   8.373
   33POPC  H12R 4439   3.944   3.543   8.443
   33POPC  H12S 4440   3.918   3.461   8.296
   33POPC  C213 4441   4.110   3.555   8.315
   33POPC  H13R 4442   4.188   3.573   8.389
   33POPC  H13S 4443   4.076   3.656   8.284
   33POPC  C214 4444   4.182   3.480   8.208
   33POPC  H14R 4445   4.142   3.385   8.171
   33POPC  H14S 4446   4.291   3.483   8.232
   33POPC  C215 4447   4.175   3.551   8.088
   33POPC  H15R 4448   4.236   3.639   8.128
   33POPC  H15S 4449   4.069   3.580   8.061
   33POPC  C216 4450   4.247   3.482   7.974
   33POPC  H16R 4451   4.357   3.484   7.987
   33POPC  H16S 4452   4.257   3.525   7.874
   33POPC  C217 4453   4.167   3.389   7.899
   33POPC  H17R 4454   4.064   3.379   7.904
   33POPC  H17S 4455   4.185   3.318   7.972
   33POPC  C218 4456   4.184   3.391   7.744
   33POPC  H18R 4457   4.275   3.374   7.749
   33POPC  H18S 4458   4.234   3.468   7.688
   33POPC  H18T 4459   4.173   3.317   7.684
   33POPC   C33 4460   4.607   3.277   9.293
   33POPC   H3X 4461   4.583   3.190   9.388
   33POPC   H3Y 4462   4.598   3.349   9.335
   33POPC   C34 4463   4.550   3.173   9.194
   33POPC   H4X 4464   4.645   3.156   9.196
   33POPC   H4Y 4465   4.518   3.249   9.147
   33POPC   C35 4466   4.440   3.069   9.197
   33POPC   H5X 4467   4.349   3.124   9.159
   33POPC   H5Y 4468   4.451   3.032   9.301
   33POPC   C36 4469   4.399   2.994   9.081
   33POPC   H6X 4470   4.455   2.903   9.099
   33POPC   H6Y 4471   4.447   3.061   9.004
   33POPC   C37 4472   4.249   2.968   9.056
   33POPC   H7X 4473   4.188   3.061   9.053
   33POPC   H7Y 4474   4.188   2.915   9.131
   33POPC   C38 4475   4.242   2.877   8.935
   33POPC   H8X 4476   4.200   2.779   8.967
   33POPC   H8Y 4477   4.345   2.854   8.899
   33POPC   C39 4478   4.161   2.943   8.824
   33POPC   H9X 4479   4.199   3.046   8.807
   33POPC   H9Y 4480   4.055   2.949   8.856
   33POPC  C310 4481   4.174   2.866   8.693
   33POPC  H10X 4482   4.127   2.770   8.718
   33POPC  H10Y 4483   4.283   2.850   8.679
   33POPC  C311 4484   4.100   2.929   8.572
   33POPC  H11X 4485   4.150   3.022   8.538
   33POPC  H11Y 4486   4.002   2.963   8.611
   33POPC  C312 4487   4.069   2.839   8.449
   33POPC  H12X 4488   3.998   2.759   8.460
   33POPC  H12Y 4489   4.150   2.772   8.420
   33POPC  C313 4490   3.997   2.914   8.338
   33POPC  H13X 4491   3.933   2.993   8.382
   33POPC  H13Y 4492   3.925   2.844   8.286
   33POPC  C314 4493   4.108   2.966   8.249
   33POPC  H14X 4494   4.192   2.893   8.255
   33POPC  H14Y 4495   4.144   3.066   8.279
   33POPC  C315 4496   4.072   2.975   8.108
   33POPC  H15X 4497   4.061   2.887   8.055
   33POPC  H15Y 4498   4.143   3.014   8.038
   33POPC  C316 4499   3.940   3.021   8.079
   33POPC  H16X 4500   3.920   3.125   8.107
   33POPC  H16Y 4501   3.857   2.947   8.091
   33POPC  H16Z 4502   3.966   3.012   7.972
   34POPC     N 4503   3.224   5.254   9.743
   34POPC   C12 4504   3.265   5.316   9.876
   34POPC  H12A 4505   3.183   5.304   9.947
   34POPC  H12B 4506   3.279   5.422   9.862
   34POPC   C13 4507   3.168   5.116   9.772
   34POPC  H13A 4508   3.114   5.068   9.691
   34POPC  H13B 4509   3.248   5.048   9.803
   34POPC  H13C 4510   3.104   5.120   9.861
   34POPC   C14 4511   3.128   5.345   9.686
   34POPC  H14A 4512   3.056   5.297   9.620
   34POPC  H14B 4513   3.070   5.375   9.773
   34POPC  H14C 4514   3.157   5.441   9.651
   34POPC   C15 4515   3.333   5.257   9.643
   34POPC  H15A 4516   3.418   5.202   9.681
   34POPC  H15B 4517   3.360   5.361   9.628
   34POPC  H15C 4518   3.301   5.217   9.548
   34POPC   C11 4519   3.388   5.260   9.945
   34POPC  H11A 4520   3.411   5.324  10.034
   34POPC  H11B 4521   3.474   5.258   9.874
   34POPC     P 4522   3.471   5.044  10.057
   34POPC   O13 4523   3.412   4.918  10.107
   34POPC   O14 4524   3.555   5.127  10.148
   34POPC   O12 4525   3.355   5.131   9.993
   34POPC   O11 4526   3.554   5.011   9.925
   34POPC    C1 4527   3.493   4.935   9.822
   34POPC    HA 4528   3.422   4.998   9.764
   34POPC    HB 4529   3.437   4.850   9.867
   34POPC    C2 4530   3.601   4.882   9.723
   34POPC    HS 4531   3.668   4.813   9.779
   34POPC   O21 4532   3.681   4.991   9.685
   34POPC   C21 4533   3.779   4.974   9.604
   34POPC   O22 4534   3.820   4.875   9.547
   34POPC   C22 4535   3.834   5.104   9.591
   34POPC   H2R 4536   3.934   5.086   9.541
   34POPC   H2S 4537   3.853   5.149   9.691
   34POPC    C3 4538   3.539   4.814   9.600
   34POPC    HX 4539   3.482   4.724   9.632
   34POPC    HY 4540   3.617   4.785   9.528
   34POPC   O31 4541   3.449   4.905   9.537
   34POPC   C31 4542   3.382   4.852   9.438
   34POPC   O32 4543   3.404   4.743   9.388
   34POPC   C32 4544   3.273   4.948   9.397
   34POPC   H2X 4545   3.244   5.003   9.489
   34POPC   H2Y 4546   3.186   4.890   9.359
   34POPC   C23 4547   3.730   5.195   9.516
   34POPC   H3R 4548   3.633   5.195   9.567
   34POPC   H3S 4549   3.734   5.156   9.413
   34POPC   C24 4550   3.749   5.347   9.505
   34POPC   H4R 4551   3.829   5.351   9.426
   34POPC   H4S 4552   3.773   5.390   9.606
   34POPC   C25 4553   3.681   5.449   9.425
   34POPC   H5R 4554   3.751   5.538   9.418
   34POPC   H5S 4555   3.594   5.477   9.484
   34POPC   C26 4556   3.659   5.394   9.288
   34POPC   H6R 4557   3.612   5.294   9.289
   34POPC   H6S 4558   3.756   5.375   9.246
   34POPC   C27 4559   3.585   5.494   9.206
   34POPC   H7R 4560   3.577   5.589   9.263
   34POPC   H7S 4561   3.486   5.447   9.196
   34POPC   C28 4562   3.643   5.516   9.068
   34POPC   H8R 4563   3.671   5.417   9.023
   34POPC   H8S 4564   3.735   5.570   9.090
   34POPC   C29 4565   3.556   5.592   8.973
   34POPC   H91 4566   3.568   5.700   8.970
   34POPC  C210 4567   3.467   5.539   8.888
   34POPC  H101 4568   3.413   5.607   8.821
   34POPC  C211 4569   3.442   5.391   8.876
   34POPC  H11R 4570   3.333   5.369   8.881
   34POPC  H11S 4571   3.485   5.340   8.964
   34POPC  C212 4572   3.496   5.322   8.750
   34POPC  H12R 4573   3.527   5.221   8.786
   34POPC  H12S 4574   3.585   5.374   8.706
   34POPC  C213 4575   3.389   5.307   8.641
   34POPC  H13R 4576   3.287   5.290   8.682
   34POPC  H13S 4577   3.415   5.217   8.582
   34POPC  C214 4578   3.368   5.433   8.559
   34POPC  H14R 4579   3.455   5.501   8.574
   34POPC  H14S 4580   3.276   5.485   8.595
   34POPC  C215 4581   3.349   5.411   8.411
   34POPC  H15R 4582   3.285   5.497   8.379
   34POPC  H15S 4583   3.295   5.317   8.390
   34POPC  C216 4584   3.478   5.431   8.332
   34POPC  H16R 4585   3.549   5.496   8.379
   34POPC  H16S 4586   3.440   5.497   8.251
   34POPC  C217 4587   3.553   5.294   8.310
   34POPC  H17R 4588   3.470   5.241   8.255
   34POPC  H17S 4589   3.562   5.240   8.388
   34POPC  C218 4590   3.694   5.268   8.289
   34POPC  H18R 4591   3.663   5.383   8.223
   34POPC  H18S 4592   3.631   5.343   8.179
   34POPC  H18T 4593   4.003   5.236   8.413
   34POPC   C33 4594   3.326   5.048   9.292
   34POPC   H3X 4595   3.334   4.997   9.193
   34POPC   H3Y 4596   3.428   5.080   9.322
   34POPC   C34 4597   3.239   5.175   9.282
   34POPC   H4X 4598   3.273   5.239   9.199
   34POPC   H4Y 4599   3.250   5.234   9.374
   34POPC   C35 4600   3.091   5.141   9.265
   34POPC   H5X 4601   3.030   5.234   9.249
   34POPC   H5Y 4602   3.055   5.090   9.356
   34POPC   C36 4603   3.075   5.054   9.142
   34POPC   H6X 4604   2.984   4.995   9.145
   34POPC   H6Y 4605   3.127   4.958   9.144
   34POPC   C37 4606   3.124   5.136   9.021
   34POPC   H7X 4607   3.127   5.244   9.039
   34POPC   H7Y 4608   3.065   5.188   8.948
   34POPC   C38 4609   3.210   5.058   8.926
   34POPC   H8X 4610   3.287   5.020   8.994
   34POPC   H8Y 4611   3.249   5.133   8.854
   34POPC   C39 4612   3.147   4.939   8.848
   34POPC   H9X 4613   3.068   4.978   8.780
   34POPC   H9Y 4614   3.099   4.867   8.918
   34POPC  C310 4615   3.246   4.860   8.762
   34POPC  H10X 4616   3.182   4.802   8.693
   34POPC  H10Y 4617   3.300   4.788   8.828
   34POPC  C311 4618   3.339   4.946   8.673
   34POPC  H11X 4619   3.410   5.001   8.737
   34POPC  H11Y 4620   3.274   5.017   8.615
   34POPC  C312 4621   3.429   4.874   8.573
   34POPC  H12X 4622   3.364   4.811   8.507
   34POPC  H12Y 4623   3.500   4.808   8.626
   34POPC  C313 4624   3.502   4.970   8.481
   34POPC  H13X 4625   3.591   5.024   8.522
   34POPC  H13Y 4626   3.431   5.053   8.456
   34POPC  C314 4627   3.516   4.902   8.347
   34POPC  H14X 4628   3.522   4.982   8.281
   34POPC  H14Y 4629   3.416   4.875   8.311
   34POPC  C315 4630   3.608   4.783   8.322
   34POPC  H15X 4631   3.586   4.744   8.219
   34POPC  H15Y 4632   3.574   4.707   8.395
   34POPC  C316 4633   3.757   4.813   8.330
   34POPC  H16X 4634   3.822   4.725   8.308
   34POPC  H16Y 4635   3.793   4.855   8.425
   34POPC  H16Z 4636   3.772   4.887   8.250
   35POPC     N 4637   1.241   2.184   9.811
   35POPC   C12 4638   1.380   2.135   9.781
   35POPC  H12A 4639   1.440   2.220   9.755
   35POPC  H12B 4640   1.375   2.073   9.691
   35POPC   C13 4641   1.220   2.264   9.933
   35POPC  H13A 4642   1.114   2.274   9.958
   35POPC  H13B 4643   1.269   2.216  10.017
   35POPC  H13C 4644   1.254   2.365   9.916
   35POPC   C14 4645   1.204   2.273   9.699
   35POPC  H14A 4646   1.104   2.309   9.720
   35POPC  H14B 4647   1.259   2.363   9.685
   35POPC  H14C 4648   1.191   2.217   9.605
   35POPC   C15 4649   1.161   2.058   9.819
   35POPC  H15A 4650   1.055   2.078   9.802
   35POPC  H15B 4651   1.169   2.000   9.908
   35POPC  H15C 4652   1.187   1.999   9.731
   35POPC   C11 4653   1.460   2.058   9.888
   35POPC  H11A 4654   1.473   2.122   9.977
   35POPC  H11B 4655   1.559   2.042   9.840
   35POPC     P 4656   1.494   1.829  10.004
   35POPC   O13 4657   1.502   1.863  10.146
   35POPC   O14 4658   1.624   1.820   9.933
   35POPC   O12 4659   1.401   1.935   9.928
   35POPC   O11 4660   1.408   1.698   9.994
   35POPC    C1 4661   1.326   1.676   9.881
   35POPC    HA 4662   1.294   1.767   9.824
   35POPC    HB 4663   1.234   1.622   9.911
   35POPC    C2 4664   1.400   1.595   9.780
   35POPC    HS 4665   1.437   1.499   9.827
   35POPC   O21 4666   1.502   1.680   9.722
   35POPC   C21 4667   1.588   1.613   9.653
   35POPC   O22 4668   1.575   1.496   9.629
   35POPC   C22 4669   1.699   1.700   9.592
   35POPC   H2R 4670   1.742   1.659   9.498
   35POPC   H2S 4671   1.780   1.699   9.668
   35POPC    C3 4672   1.296   1.558   9.681
   35POPC    HX 4673   1.199   1.531   9.724
   35POPC    HY 4674   1.336   1.456   9.666
   35POPC   O31 4675   1.286   1.646   9.567
   35POPC   C31 4676   1.170   1.652   9.505
   35POPC   O32 4677   1.070   1.589   9.526
   35POPC   C32 4678   1.170   1.769   9.416
   35POPC   H2X 4679   1.247   1.765   9.338
   35POPC   H2Y 4680   1.184   1.852   9.489
   35POPC   C23 4681   1.650   1.844   9.575
   35POPC   H3R 4682   1.734   1.911   9.547
   35POPC   H3S 4683   1.613   1.878   9.674
   35POPC   C24 4684   1.538   1.858   9.470
   35POPC   H4R 4685   1.449   1.897   9.522
   35POPC   H4S 4686   1.509   1.757   9.436
   35POPC   C25 4687   1.582   1.944   9.348
   35POPC   H5R 4688   1.679   1.902   9.312
   35POPC   H5S 4689   1.605   2.047   9.384
   35POPC   C26 4690   1.487   1.941   9.225
   35POPC   H6R 4691   1.381   1.945   9.256
   35POPC   H6S 4692   1.500   1.843   9.175
   35POPC   C27 4693   1.511   2.056   9.125
   35POPC   H7R 4694   1.618   2.084   9.117
   35POPC   H7S 4695   1.456   2.143   9.166
   35POPC   C28 4696   1.454   2.040   8.982
   35POPC   H8R 4697   1.461   2.141   8.935
   35POPC   H8S 4698   1.346   2.017   8.992
   35POPC   C29 4699   1.517   1.937   8.891
   35POPC   H91 4700   1.474   1.837   8.901
   35POPC  C210 4701   1.617   1.950   8.803
   35POPC  H101 4702   1.634   1.863   8.738
   35POPC  C211 4703   1.697   2.075   8.772
   35POPC  H11R 4704   1.804   2.060   8.798
   35POPC  H11S 4705   1.663   2.160   8.835
   35POPC  C212 4706   1.696   2.121   8.625
   35POPC  H12R 4707   1.774   2.067   8.567
   35POPC  H12S 4708   1.722   2.230   8.621
   35POPC  C213 4709   1.568   2.090   8.548
   35POPC  H13R 4710   1.555   1.979   8.545
   35POPC  H13S 4711   1.588   2.121   8.443
   35POPC  C214 4712   1.442   2.160   8.599
   35POPC  H14R 4713   1.452   2.269   8.581
   35POPC  H14S 4714   1.428   2.146   8.708
   35POPC  C215 4715   1.316   2.119   8.521
   35POPC  H15R 4716   1.228   2.156   8.578
   35POPC  H15S 4717   1.315   2.009   8.513
   35POPC  C216 4718   1.309   2.180   8.381
   35POPC  H16R 4719   1.394   2.139   8.321
   35POPC  H16S 4720   1.325   2.290   8.386
   35POPC  C217 4721   1.172   2.159   8.313
   35POPC  H17R 4722   1.094   2.210   8.373
   35POPC  H17S 4723   1.143   2.053   8.300
   35POPC  C218 4724   1.171   2.218   8.176
   35POPC  H18R 4725   1.197   2.323   8.187
   35POPC  H18S 4726   1.080   2.203   8.115
   35POPC  H18T 4727   1.251   2.169   8.126
   35POPC   C33 4728   1.036   1.777   9.349
   35POPC   H3X 4729   1.025   1.888   9.346
   35POPC   H3Y 4730   0.948   1.732   9.402
   35POPC   C34 4731   1.034   1.717   9.208
   35POPC   H4X 4732   0.939   1.743   9.166
   35POPC   H4Y 4733   1.032   1.607   9.208
   35POPC   C35 4734   1.131   1.772   9.105
   35POPC   H5X 4735   1.234   1.737   9.127
   35POPC   H5Y 4736   1.129   1.883   9.113
   35POPC   C36 4737   1.095   1.728   8.963
   35POPC   H6X 4738   0.987   1.752   8.943
   35POPC   H6Y 4739   1.099   1.617   8.958
   35POPC   C37 4740   1.197   1.792   8.864
   35POPC   H7X 4741   1.293   1.739   8.856
   35POPC   H7Y 4742   1.210   1.899   8.890
   35POPC   C38 4743   1.151   1.805   8.725
   35POPC   H8X 4744   1.159   1.897   8.662
   35POPC   H8Y 4745   1.051   1.820   8.771
   35POPC   C39 4746   1.193   1.683   8.642
   35POPC   H9X 4747   1.150   1.650   8.554
   35POPC   H9Y 4748   1.177   1.584   8.687
   35POPC  C310 4749   1.301   1.713   8.538
   35POPC  H10X 4750   1.375   1.736   8.613
   35POPC  H10Y 4751   1.283   1.791   8.462
   35POPC  C311 4752   1.349   1.596   8.457
   35POPC  H11X 4753   1.285   1.567   8.372
   35POPC  H11Y 4754   1.324   1.533   8.540
   35POPC  C312 4755   1.496   1.592   8.425
   35POPC  H12X 4756   1.522   1.492   8.380
   35POPC  H12Y 4757   1.552   1.599   8.520
   35POPC  C313 4758   1.536   1.711   8.342
   35POPC  H13X 4759   1.645   1.706   8.321
   35POPC  H13Y 4760   1.515   1.804   8.400
   35POPC  C314 4761   1.459   1.723   8.213
   35POPC  H14X 4762   1.350   1.729   8.235
   35POPC  H14Y 4763   1.482   1.637   8.147
   35POPC  C315 4764   1.497   1.854   8.146
   35POPC  H15X 4765   1.486   1.933   8.221
   35POPC  H15Y 4766   1.419   1.868   8.070
   35POPC  C316 4767   1.641   1.866   8.095
   35POPC  H16X 4768   1.654   1.943   8.017
   35POPC  H16Y 4769   1.677   1.770   8.060
   35POPC  H16Z 4770   1.716   1.884   8.172
   36POPC     N 4771   1.192   6.954   9.973
   36POPC   C12 4772   1.117   7.005   9.851
   36POPC  H12A 4773   1.057   6.923   9.819
   36POPC  H12B 4774   1.184   7.033   9.769
   36POPC   C13 4775   1.290   7.053  10.001
   36POPC  H13A 4776   1.344   7.046   9.906
   36POPC  H13B 4777   1.267   7.159   9.997
   36POPC  H13C 4778   1.367   7.033  10.077
   36POPC   C14 4779   1.108   6.949  10.092
   36POPC  H14A 4780   1.165   6.928  10.182
   36POPC  H14B 4781   1.059   7.047  10.105
   36POPC  H14C 4782   1.032   6.876  10.078
   36POPC   C15 4783   1.262   6.824   9.945
   36POPC  H15A 4784   1.290   6.773  10.037
   36POPC  H15B 4785   1.353   6.835   9.885
   36POPC  H15C 4786   1.196   6.757   9.892
   36POPC   C11 4787   1.023   7.126   9.870
   36POPC  H11A 4788   0.938   7.099   9.937
   36POPC  H11B 4789   0.977   7.145   9.769
   36POPC     P 4790   1.094   7.374   9.840
   36POPC   O13 4791   1.206   7.461   9.875
   36POPC   O14 4792   0.956   7.424   9.856
   36POPC   O12 4793   1.096   7.238   9.922
   36POPC   O11 4794   1.114   7.323   9.692
   36POPC    C1 4795   1.107   7.419   9.587
   36POPC    HA 4796   1.180   7.393   9.509
   36POPC    HB 4797   1.121   7.526   9.618
   36POPC    C2 4798   0.975   7.397   9.522
   36POPC    HS 4799   0.904   7.399   9.608
   36POPC   O21 4800   0.982   7.271   9.458
   36POPC   C21 4801   0.871   7.205   9.461
   36POPC   O22 4802   0.765   7.240   9.506
   36POPC   C22 4803   0.897   7.070   9.404
   36POPC   H2R 4804   0.877   6.997   9.483
   36POPC   H2S 4805   0.997   7.061   9.357
   36POPC    C3 4806   0.946   7.501   9.415
   36POPC    HX 4807   0.945   7.603   9.455
   36POPC    HY 4808   0.849   7.461   9.387
   36POPC   O31 4809   1.034   7.499   9.304
   36POPC   C31 4810   0.996   7.576   9.206
   36POPC   O32 4811   0.915   7.663   9.206
   36POPC   C32 4812   1.065   7.543   9.081
   36POPC   H2X 4813   1.027   7.618   9.008
   36POPC   H2Y 4814   1.026   7.444   9.052
   36POPC   C23 4815   0.796   7.064   9.299
   36POPC   H3R 4816   0.693   7.079   9.328
   36POPC   H3S 4817   0.788   6.962   9.264
   36POPC   C24 4818   0.849   7.168   9.202
   36POPC   H4R 4819   0.948   7.154   9.160
   36POPC   H4S 4820   0.825   7.268   9.232
   36POPC   C25 4821   0.774   7.163   9.088
   36POPC   H5R 4822   0.677   7.172   9.142
   36POPC   H5S 4823   0.765   7.063   9.074
   36POPC   C26 4824   0.830   7.213   8.951
   36POPC   H6R 4825   0.927   7.171   8.922
   36POPC   H6S 4826   0.816   7.320   8.959
   36POPC   C27 4827   0.767   7.203   8.817
   36POPC   H7R 4828   0.693   7.278   8.823
   36POPC   H7S 4829   0.707   7.121   8.797
   36POPC   C28 4830   0.818   7.266   8.699
   36POPC   H8R 4831   0.733   7.209   8.648
   36POPC   H8S 4832   0.906   7.217   8.665
   36POPC   C29 4833   0.822   7.418   8.707
   36POPC   H91 4834   0.735   7.461   8.758
   36POPC  C210 4835   0.878   7.508   8.634
   36POPC  H101 4836   0.863   7.611   8.663
   36POPC  C211 4837   0.960   7.475   8.516
   36POPC  H11R 4838   0.947   7.368   8.488
   36POPC  H11S 4839   1.060   7.488   8.554
   36POPC  C212 4840   0.944   7.564   8.392
   36POPC  H12R 4841   0.905   7.664   8.422
   36POPC  H12S 4842   0.880   7.515   8.317
   36POPC  C213 4843   1.076   7.582   8.321
   36POPC  H13R 4844   1.154   7.605   8.397
   36POPC  H13S 4845   1.072   7.665   8.250
   36POPC  C214 4846   1.112   7.467   8.231
   36POPC  H14R 4847   1.050   7.469   8.139
   36POPC  H14S 4848   1.089   7.373   8.284
   36POPC  C215 4849   1.258   7.483   8.197
   36POPC  H15R 4850   1.320   7.452   8.284
   36POPC  H15S 4851   1.281   7.587   8.172
   36POPC  C216 4852   1.292   7.411   8.075
   36POPC  H16R 4853   1.229   7.426   7.984
   36POPC  H16S 4854   1.305   7.303   8.113
   36POPC  C217 4855   1.417   7.406   8.021
   36POPC  H17R 4856   1.475   7.480   7.982
   36POPC  H17S 4857   1.417   7.346   7.929
   36POPC  C218 4858   1.483   7.362   8.136
   36POPC  H18R 4859   1.512   7.439   8.205
   36POPC  H18S 4860   1.586   7.360   8.135
   36POPC  H18T 4861   1.493   7.253   8.123
   36POPC   C33 4862   1.216   7.554   9.101
   36POPC   H3X 4863   1.254   7.480   9.175
   36POPC   H3Y 4864   1.237   7.656   9.144
   36POPC   C34 4865   1.294   7.552   8.970
   36POPC   H4X 4866   1.391   7.591   8.997
   36POPC   H4Y 4867   1.253   7.631   8.904
   36POPC   C35 4868   1.320   7.417   8.897
   36POPC   H5X 4869   1.341   7.334   8.967
   36POPC   H5Y 4870   1.411   7.432   8.834
   36POPC   C36 4871   1.204   7.370   8.807
   36POPC   H6X 4872   1.164   7.460   8.755
   36POPC   H6Y 4873   1.128   7.328   8.877
   36POPC   C37 4874   1.232   7.256   8.707
   36POPC   H7X 4875   1.135   7.215   8.669
   36POPC   H7Y 4876   1.279   7.171   8.760
   36POPC   C38 4877   1.314   7.304   8.586
   36POPC   H8X 4878   1.377   7.389   8.621
   36POPC   H8Y 4879   1.244   7.339   8.508
   36POPC   C39 4880   1.404   7.202   8.517
   36POPC   H9X 4881   1.485   7.173   8.584
   36POPC   H9Y 4882   1.447   7.244   8.424
   36POPC  C310 4883   1.337   7.077   8.469
   36POPC  H10X 4884   1.303   7.025   8.561
   36POPC  H10Y 4885   1.417   7.024   8.413
   36POPC  C311 4886   1.226   7.100   8.370
   36POPC  H11X 4887   1.270   7.154   8.281
   36POPC  H11Y 4888   1.145   7.166   8.404
   36POPC  C312 4889   1.161   6.969   8.330
   36POPC  H12X 4890   1.088   6.914   8.388
   36POPC  H12Y 4891   1.238   6.893   8.295
   36POPC  C313 4892   1.065   7.007   8.225
   36POPC  H13X 4893   1.031   6.924   8.169
   36POPC  H13Y 4894   1.151   7.062   8.187
   36POPC  C314 4895   0.982   7.124   8.186
   36POPC  H14X 4896   0.955   7.152   8.076
   36POPC  H14Y 4897   1.031   7.215   8.208
   36POPC  C315 4898   0.863   7.080   8.221
   36POPC  H15X 4899   0.865   7.045   8.326
   36POPC  H15Y 4900   0.821   7.007   8.161
   36POPC  C316 4901   0.802   7.199   8.178
   36POPC  H16X 4902   0.775   7.223   8.076
   36POPC  H16Y 4903   0.849   7.289   8.230
   36POPC  H16Z 4904   0.704   7.174   8.218
   37POPC     N 4905   2.989   2.951   5.862
   37POPC   C12 4906   3.000   2.840   5.967
   37POPC  H12A 4907   3.079   2.772   5.937
   37POPC  H12B 4908   2.907   2.786   5.967
   37POPC   C13 4909   3.121   3.016   5.847
   37POPC  H13A 4910   3.193   2.944   5.809
   37POPC  H13B 4911   3.115   3.098   5.777
   37POPC  H13C 4912   3.155   3.055   5.943
   37POPC   C14 4913   2.957   2.885   5.732
   37POPC  H14A 4914   2.941   2.955   5.652
   37POPC  H14B 4915   3.042   2.822   5.703
   37POPC  H14C 4916   2.869   2.823   5.744
   37POPC   C15 4917   2.884   3.051   5.899
   37POPC  H15A 4918   2.786   3.005   5.903
   37POPC  H15B 4919   2.879   3.135   5.833
   37POPC  H15C 4920   2.908   3.086   6.000
   37POPC   C11 4921   3.040   2.873   6.113
   37POPC  H11A 4922   3.126   2.940   6.110
   37POPC  H11B 4923   3.074   2.779   6.164
   37POPC     P 4924   2.954   2.943   6.345
   37POPC   O13 4925   2.931   2.804   6.392
   37POPC   O14 4926   2.864   3.048   6.395
   37POPC   O12 4927   2.937   2.939   6.185
   37POPC   O11 4928   3.106   2.982   6.369
   37POPC    C1 4929   3.172   3.089   6.300
   37POPC    HA 4930   3.109   3.133   6.219
   37POPC    HB 4931   3.262   3.047   6.253
   37POPC    C2 4932   3.229   3.201   6.392
   37POPC    HS 4933   3.325   3.242   6.355
   37POPC   O21 4934   3.250   3.158   6.525
   37POPC   C21 4935   3.326   3.056   6.547
   37POPC   O22 4936   3.399   2.997   6.469
   37POPC   C22 4937   3.324   3.047   6.700
   37POPC   H2R 4938   3.229   3.079   6.740
   37POPC   H2S 4939   3.384   3.124   6.739
   37POPC    C3 4940   3.136   3.321   6.399
   37POPC    HX 4941   3.127   3.382   6.308
   37POPC    HY 4942   3.192   3.378   6.473
   37POPC   O31 4943   3.008   3.282   6.446
   37POPC   C31 4944   2.952   3.373   6.512
   37POPC   O32 4945   3.006   3.478   6.544
   37POPC   C32 4946   2.806   3.330   6.533
   37POPC   H2X 4947   2.774   3.239   6.485
   37POPC   H2Y 4948   2.748   3.415   6.485
   37POPC   C23 4949   3.358   2.915   6.763
   37POPC   H3R 4950   3.399   2.918   6.866
   37POPC   H3S 4951   3.435   2.883   6.703
   37POPC   C24 4952   3.260   2.805   6.739
   37POPC   H4R 4953   3.303   2.707   6.773
   37POPC   H4S 4954   3.241   2.795   6.629
   37POPC   C25 4955   3.136   2.846   6.813
   37POPC   H5R 4956   3.097   2.941   6.770
   37POPC   H5S 4957   3.159   2.866   6.920
   37POPC   C26 4958   3.026   2.743   6.803
   37POPC   H6R 4959   3.058   2.651   6.856
   37POPC   H6S 4960   3.010   2.721   6.694
   37POPC   C27 4961   2.894   2.798   6.858
   37POPC   H7R 4962   2.812   2.726   6.835
   37POPC   H7S 4963   2.869   2.891   6.803
   37POPC   C28 4964   2.898   2.828   7.009
   37POPC   H8R 4965   2.974   2.905   7.028
   37POPC   H8S 4966   2.928   2.736   7.065
   37POPC   C29 4967   2.768   2.889   7.050
   37POPC   H91 4968   2.738   2.980   6.998
   37POPC  C210 4969   2.684   2.846   7.140
   37POPC  H101 4970   2.588   2.900   7.143
   37POPC  C211 4971   2.699   2.723   7.224
   37POPC  H11R 4972   2.785   2.661   7.198
   37POPC  H11S 4973   2.614   2.659   7.200
   37POPC  C212 4974   2.727   2.751   7.373
   37POPC  H12R 4975   2.807   2.822   7.391
   37POPC  H12S 4976   2.740   2.653   7.424
   37POPC  C213 4977   2.618   2.816   7.447
   37POPC  H13R 4978   2.607   2.775   7.550
   37POPC  H13S 4979   2.547   2.761   7.388
   37POPC  C214 4980   2.599   2.971   7.453
   37POPC  H14R 4981   2.495   3.013   7.468
   37POPC  H14S 4982   2.621   3.019   7.359
   37POPC  C215 4983   2.663   3.025   7.579
   37POPC  H15R 4984   2.626   2.962   7.663
   37POPC  H15S 4985   2.622   3.128   7.590
   37POPC  C216 4986   2.816   3.025   7.571
   37POPC  H16R 4987   2.847   3.079   7.478
   37POPC  H16S 4988   2.855   2.921   7.568
   37POPC  C217 4989   2.885   3.086   7.691
   37POPC  H17R 4990   2.993   3.095   7.669
   37POPC  H17S 4991   2.877   3.014   7.776
   37POPC  C218 4992   2.835   3.224   7.733
   37POPC  H18R 4993   2.761   3.210   7.815
   37POPC  H18S 4994   2.789   3.282   7.650
   37POPC  H18T 4995   2.923   3.283   7.767
   37POPC   C33 4996   2.762   3.312   6.680
   37POPC   H3X 4997   2.660   3.321   6.695
   37POPC   H3Y 4998   2.777   3.391   6.737
   37POPC   C34 4999   2.801   3.226   6.796
   37POPC   H4X 5000   2.821   3.140   6.738
   37POPC   H4Y 5001   2.708   3.243   6.860
   37POPC   C35 5002   2.917   3.257   6.885
   37POPC   H5X 5003   2.861   3.318   6.961
   37POPC   H5Y 5004   3.006   3.288   6.824
   37POPC   C36 5005   2.952   3.189   7.011
   37POPC   H6X 5006   2.991   3.105   6.956
   37POPC   H6Y 5007   2.855   3.178   7.068
   37POPC   C37 5008   3.061   3.248   7.101
   37POPC   H7X 5009   3.004   3.295   7.185
   37POPC   H7Y 5010   3.132   3.325   7.059
   37POPC   C38 5011   3.129   3.146   7.178
   37POPC   H8X 5012   3.175   3.081   7.104
   37POPC   H8Y 5013   3.042   3.096   7.228
   37POPC   C39 5014   3.228   3.208   7.272
   37POPC   H9X 5015   3.171   3.272   7.340
   37POPC   H9Y 5016   3.304   3.275   7.225
   37POPC  C310 5017   3.289   3.101   7.357
   37POPC  H10X 5018   3.335   3.153   7.443
   37POPC  H10Y 5019   3.363   3.050   7.295
   37POPC  C311 5020   3.208   2.982   7.404
   37POPC  H11X 5021   3.193   2.911   7.320
   37POPC  H11Y 5022   3.109   3.017   7.438
   37POPC  C312 5023   3.280   2.915   7.523
   37POPC  H12X 5024   3.303   2.998   7.593
   37POPC  H12Y 5025   3.379   2.871   7.496
   37POPC  C313 5026   3.188   2.815   7.592
   37POPC  H13X 5027   3.155   2.742   7.515
   37POPC  H13Y 5028   3.096   2.868   7.625
   37POPC  C314 5029   3.249   2.740   7.710
   37POPC  H14X 5030   3.340   2.686   7.682
   37POPC  H14Y 5031   3.178   2.659   7.736
   37POPC  C315 5032   3.273   2.817   7.838
   37POPC  H15X 5033   3.367   2.875   7.841
   37POPC  H15Y 5034   3.291   2.734   7.912
   37POPC  C316 5035   3.161   2.916   7.879
   37POPC  H16X 5036   3.141   3.004   7.821
   37POPC  H16Y 5037   3.186   2.948   7.980
   37POPC  H16Z 5038   3.059   2.876   7.887
   38POPC     N 5039   3.739   6.082   5.938
   38POPC   C12 5040   3.675   6.181   6.026
   38POPC  H12A 5041   3.654   6.265   5.966
   38POPC  H12B 5042   3.746   6.207   6.106
   38POPC   C13 5043   3.744   5.973   6.022
   38POPC  H13A 5044   3.820   5.998   6.103
   38POPC  H13B 5045   3.669   5.928   6.086
   38POPC  H13C 5046   3.795   5.889   5.975
   38POPC   C14 5047   3.665   6.021   5.830
   38POPC  H14A 5048   3.724   5.943   5.780
   38POPC  H14B 5049   3.575   5.978   5.873
   38POPC  H14C 5050   3.649   6.105   5.766
   38POPC   C15 5051   3.866   6.143   5.885
   38POPC  H15A 5052   3.925   6.069   5.828
   38POPC  H15B 5053   3.936   6.168   5.966
   38POPC  H15C 5054   3.848   6.227   5.823
   38POPC   C11 5055   3.544   6.139   6.089
   38POPC  H11A 5056   3.466   6.116   6.013
   38POPC  H11B 5057   3.508   6.233   6.139
   38POPC     P 5058   3.430   5.982   6.241
   38POPC   O13 5059   3.332   5.934   6.141
   38POPC   O14 5060   3.437   6.111   6.302
   38POPC   O12 5061   3.562   6.024   6.178
   38POPC   O11 5062   3.451   5.877   6.355
   38POPC    C1 5063   3.562   5.793   6.343
   38POPC    HA 5064   3.624   5.817   6.253
   38POPC    HB 5065   3.528   5.688   6.337
   38POPC    C2 5066   3.651   5.808   6.467
   38POPC    HS 5067   3.734   5.738   6.447
   38POPC   O21 5068   3.581   5.765   6.585
   38POPC   C21 5069   3.653   5.753   6.694
   38POPC   O22 5070   3.774   5.763   6.703
   38POPC   C22 5071   3.566   5.713   6.812
   38POPC   H2R 5072   3.545   5.604   6.804
   38POPC   H2S 5073   3.474   5.775   6.817
   38POPC    C3 5074   3.700   5.955   6.483
   38POPC    HX 5075   3.721   6.003   6.383
   38POPC    HY 5076   3.797   5.946   6.536
   38POPC   O31 5077   3.609   6.035   6.558
   38POPC   C31 5078   3.652   6.157   6.580
   38POPC   O32 5079   3.758   6.205   6.546
   38POPC   C32 5080   3.550   6.239   6.648
   38POPC   H2X 5081   3.517   6.305   6.567
   38POPC   H2Y 5082   3.591   6.309   6.724
   38POPC   C23 5083   3.642   5.722   6.944
   38POPC   H3R 5084   3.741   5.672   6.932
   38POPC   H3S 5085   3.585   5.660   7.018
   38POPC   C24 5086   3.649   5.861   7.010
   38POPC   H4R 5087   3.673   5.836   7.115
   38POPC   H4S 5088   3.551   5.913   7.014
   38POPC   C25 5089   3.756   5.958   6.958
   38POPC   H5R 5090   3.726   5.996   6.858
   38POPC   H5S 5091   3.853   5.905   6.945
   38POPC   C26 5092   3.777   6.082   7.047
   38POPC   H6R 5093   3.870   6.131   7.011
   38POPC   H6S 5094   3.794   6.058   7.154
   38POPC   C27 5095   3.667   6.187   7.030
   38POPC   H7R 5096   3.572   6.142   7.045
   38POPC   H7S 5097   3.672   6.225   6.926
   38POPC   C28 5098   3.682   6.301   7.130
   38POPC   H8R 5099   3.785   6.336   7.111
   38POPC   H8S 5100   3.675   6.262   7.234
   38POPC   C29 5101   3.599   6.422   7.106
   38POPC   H91 5102   3.610   6.464   7.006
   38POPC  C210 5103   3.510   6.478   7.186
   38POPC  H101 5104   3.439   6.554   7.148
   38POPC  C211 5105   3.471   6.428   7.318
   38POPC  H11R 5106   3.492   6.325   7.352
   38POPC  H11S 5107   3.374   6.411   7.287
   38POPC  C212 5108   3.483   6.536   7.423
   38POPC  H12R 5109   3.413   6.622   7.408
   38POPC  H12S 5110   3.585   6.572   7.406
   38POPC  C213 5111   3.470   6.479   7.563
   38POPC  H13R 5112   3.392   6.401   7.551
   38POPC  H13S 5113   3.428   6.559   7.630
   38POPC  C214 5114   3.600   6.423   7.625
   38POPC  H14R 5115   3.656   6.509   7.666
   38POPC  H14S 5116   3.655   6.351   7.564
   38POPC  C215 5117   3.595   6.334   7.743
   38POPC  H15R 5118   3.552   6.414   7.805
   38POPC  H15S 5119   3.669   6.326   7.823
   38POPC  C216 5120   3.529   6.198   7.714
   38POPC  H16R 5121   3.600   6.124   7.672
   38POPC  H16S 5122   3.434   6.175   7.658
   38POPC  C217 5123   3.496   6.171   7.856
   38POPC  H17R 5124   3.592   6.177   7.906
   38POPC  H17S 5125   3.512   6.062   7.812
   38POPC  C218 5126   3.364   6.206   7.984
   38POPC  H18R 5127   3.348   6.302   8.028
   38POPC  H18S 5128   3.310   6.136   8.052
   38POPC  H18T 5129   3.307   6.177   7.910
   38POPC   C33 5130   3.445   6.156   6.714
   38POPC   H3X 5131   3.483   6.086   6.786
   38POPC   H3Y 5132   3.394   6.085   6.642
   38POPC   C34 5133   3.379   6.266   6.790
   38POPC   H4X 5134   3.339   6.350   6.737
   38POPC   H4Y 5135   3.424   6.338   6.852
   38POPC   C35 5136   3.295   6.222   6.885
   38POPC   H5X 5137   3.229   6.232   6.800
   38POPC   H5Y 5138   3.215   6.290   6.906
   38POPC   C36 5139   3.331   6.077   6.957
   38POPC   H6X 5140   3.409   6.127   7.003
   38POPC   H6Y 5141   3.351   5.992   6.893
   38POPC   C37 5142   3.254   5.997   7.064
   38POPC   H7X 5143   3.162   5.988   7.020
   38POPC   H7Y 5144   3.212   6.034   7.155
   38POPC   C38 5145   3.301   5.908   7.165
   38POPC   H8X 5146   3.329   5.824   7.106
   38POPC   H8Y 5147   3.224   5.865   7.226
   38POPC   C39 5148   3.369   5.980   7.280
   38POPC   H9X 5149   3.309   6.060   7.329
   38POPC   H9Y 5150   3.458   6.024   7.233
   38POPC  C310 5151   3.392   5.881   7.387
   38POPC  H10X 5152   3.294   5.835   7.417
   38POPC  H10Y 5153   3.432   5.925   7.480
   38POPC  C311 5154   3.487   5.790   7.315
   38POPC  H11X 5155   3.594   5.811   7.310
   38POPC  H11Y 5156   3.448   5.748   7.220
   38POPC  C312 5157   3.494   5.675   7.385
   38POPC  H12X 5158   3.558   5.595   7.342
   38POPC  H12Y 5159   3.386   5.639   7.348
   38POPC  C313 5160   3.532   5.698   7.544
   38POPC  H13X 5161   3.525   5.614   7.621
   38POPC  H13Y 5162   3.472   5.766   7.604
   38POPC  C314 5163   3.674   5.687   7.570
   38POPC  H14X 5164   3.723   5.755   7.504
   38POPC  H14Y 5165   3.695   5.606   7.499
   38POPC  C315 5166   3.717   5.718   7.718
   38POPC  H15X 5167   3.648   5.799   7.744
   38POPC  H15Y 5168   3.817   5.757   7.696
   38POPC  C316 5169   3.714   5.644   7.857
   38POPC  H16X 5170   3.803   5.586   7.884
   38POPC  H16Y 5171   3.642   5.564   7.864
   38POPC  H16Z 5172   3.768   5.687   7.942
   39POPC     N 5173   1.324   2.321   6.006
   39POPC   C12 5174   1.429   2.400   5.930
   39POPC  H12A 5175   1.378   2.465   5.862
   39POPC  H12B 5176   1.494   2.332   5.879
   39POPC   C13 5177   1.388   2.197   6.062
   39POPC  H13A 5178   1.461   2.228   6.138
   39POPC  H13B 5179   1.318   2.124   6.101
   39POPC  H13C 5180   1.447   2.146   5.986
   39POPC   C14 5181   1.266   2.407   6.116
   39POPC  H14A 5182   1.217   2.495   6.076
   39POPC  H14B 5183   1.190   2.354   6.170
   39POPC  H14C 5184   1.346   2.441   6.183
   39POPC   C15 5185   1.216   2.288   5.913
   39POPC  H15A 5186   1.249   2.225   5.834
   39POPC  H15B 5187   1.167   2.381   5.883
   39POPC  H15C 5188   1.140   2.231   5.962
   39POPC   C11 5189   1.525   2.489   6.004
   39POPC  H11A 5190   1.490   2.592   6.020
   39POPC  H11B 5191   1.622   2.489   5.948
   39POPC     P 5192   1.656   2.477   6.193
   39POPC   O13 5193   1.629   2.420   6.323
   39POPC   O14 5194   1.690   2.622   6.192
   39POPC   O12 5195   1.535   2.433   6.128
   39POPC   O11 5196   1.764   2.401   6.101
   39POPC    C1 5197   1.783   2.270   6.057
   39POPC    HA 5198   1.841   2.269   5.962
   39POPC    HB 5199   1.685   2.224   6.041
   39POPC    C2 5200   1.859   2.167   6.138
   39POPC    HS 5201   1.866   2.077   6.098
   39POPC   O21 5202   1.792   2.144   6.266
   39POPC   C21 5203   1.676   2.071   6.252
   39POPC   O22 5204   1.645   2.007   6.154
   39POPC   C22 5205   1.603   2.066   6.385
   39POPC   H2R 5206   1.667   2.098   6.466
   39POPC   H2S 5207   1.567   1.973   6.428
   39POPC    C3 5208   2.026   2.188   6.158
   39POPC    HX 5209   2.065   2.213   6.059
   39POPC    HY 5210   2.076   2.098   6.178
   39POPC   O31 5211   2.098   2.260   6.260
   39POPC   C31 5212   2.079   2.260   6.424
   39POPC   O32 5213   2.031   2.155   6.449
   39POPC   C32 5214   2.047   2.407   6.523
   39POPC   H2X 5215   1.979   2.501   6.486
   39POPC   H2Y 5216   2.061   2.502   6.498
   39POPC   C23 5217   1.465   2.102   6.386
   39POPC   H3R 5218   1.411   2.043   6.308
   39POPC   H3S 5219   1.482   2.206   6.361
   39POPC   C24 5220   1.411   2.083   6.527
   39POPC   H4R 5221   1.424   1.980   6.568
   39POPC   H4S 5222   1.309   2.097   6.513
   39POPC   C25 5223   1.446   2.198   6.618
   39POPC   H5R 5224   1.419   2.301   6.597
   39POPC   H5S 5225   1.557   2.193   6.610
   39POPC   C26 5226   1.390   2.191   6.762
   39POPC   H6R 5227   1.290   2.166   6.794
   39POPC   H6S 5228   1.444   2.265   6.823
   39POPC   C27 5229   1.420   2.068   6.827
   39POPC   H7R 5230   1.521   2.089   6.762
   39POPC   H7S 5231   1.443   1.972   6.780
   39POPC   C28 5232   1.444   2.041   7.014
   39POPC   H8R 5233   1.355   2.045   7.062
   39POPC   H8S 5234   1.458   2.180   7.035
   39POPC   C29 5235   1.656   1.920   7.072
   39POPC   H91 5236   1.566   1.879   7.069
   39POPC  C210 5237   1.797   2.004   7.074
   39POPC  H101 5238   1.841   2.007   7.159
   39POPC  C211 5239   1.852   2.151   7.051
   39POPC  H11R 5240   1.825   2.168   6.957
   39POPC  H11S 5241   1.940   2.167   7.000
   39POPC  C212 5242   1.814   2.278   7.126
   39POPC  H12R 5243   1.707   2.290   7.151
   39POPC  H12S 5244   1.831   2.371   7.073
   39POPC  C213 5245   1.914   2.269   7.231
   39POPC  H13R 5246   1.942   2.364   7.269
   39POPC  H13S 5247   2.002   2.209   7.192
   39POPC  C214 5248   1.869   2.197   7.347
   39POPC  H14R 5249   1.947   2.178   7.417
   39POPC  H14S 5250   1.895   2.106   7.296
   39POPC  C215 5251   1.738   2.244   7.413
   39POPC  H15R 5252   1.644   2.200   7.383
   39POPC  H15S 5253   1.724   2.349   7.398
   39POPC  C216 5254   1.738   2.246   7.562
   39POPC  H16R 5255   1.832   2.266   7.610
   39POPC  H16S 5256   1.724   2.149   7.592
   39POPC  C217 5257   1.627   2.260   7.650
   39POPC  H17R 5258   1.532   2.226   7.598
   39POPC  H17S 5259   1.638   2.366   7.665
   39POPC  C218 5260   1.674   2.185   7.777
   39POPC  H18R 5261   1.669   2.078   7.789
   39POPC  H18S 5262   1.590   2.192   7.828
   39POPC  H18T 5263   1.730   2.231   7.856
   39POPC   C33 5264   2.060   2.439   6.632
   39POPC   H3X 5265   2.141   2.374   6.655
   39POPC   H3Y 5266   1.981   2.384   6.660
   39POPC   C34 5267   2.022   2.596   6.654
   39POPC   H4X 5268   1.971   2.654   6.573
   39POPC   H4Y 5269   2.126   2.612   6.677
   39POPC   C35 5270   1.926   2.624   6.754
   39POPC   H5X 5271   1.993   2.640   6.836
   39POPC   H5Y 5272   1.861   2.534   6.744
   39POPC   C36 5273   1.808   2.701   6.775
   39POPC   H6X 5274   1.725   2.648   6.722
   39POPC   H6Y 5275   1.857   2.787   6.730
   39POPC   C37 5276   1.765   2.712   6.922
   39POPC   H7X 5277   1.709   2.807   6.920
   39POPC   H7Y 5278   1.848   2.726   6.995
   39POPC   C38 5279   1.671   2.596   6.963
   39POPC   H8X 5280   1.717   2.504   6.930
   39POPC   H8Y 5281   1.577   2.591   6.905
   39POPC   C39 5282   1.660   2.572   7.113
   39POPC   H9X 5283   1.764   2.571   7.156
   39POPC   H9Y 5284   1.610   2.476   7.139
   39POPC  C310 5285   1.587   2.682   7.179
   39POPC  H10X 5286   1.481   2.696   7.160
   39POPC  H10Y 5287   1.625   2.770   7.124
   39POPC  C311 5288   1.607   2.672   7.331
   39POPC  H11X 5289   1.559   2.765   7.358
   39POPC  H11Y 5290   1.712   2.675   7.368
   39POPC  C312 5291   1.508   2.589   7.411
   39POPC  H12X 5292   1.539   2.488   7.386
   39POPC  H12Y 5293   1.408   2.594   7.363
   39POPC  C313 5294   1.510   2.621   7.563
   39POPC  H13X 5295   1.484   2.723   7.599
   39POPC  H13Y 5296   1.606   2.590   7.610
   39POPC  C314 5297   1.398   2.559   7.636
   39POPC  H14X 5298   1.404   2.449   7.621
   39POPC  H14Y 5299   1.300   2.599   7.602
   39POPC  C315 5300   1.403   2.607   7.777
   39POPC  H15X 5301   1.384   2.704   7.817
   39POPC  H15Y 5302   1.511   2.596   7.812
   39POPC  C316 5303   1.281   2.521   7.807
   39POPC  H16X 5304   1.291   2.439   7.870
   39POPC  H16Y 5305   1.195   2.542   7.867
   39POPC  H16Z 5306   1.334   2.488   7.883
   40POPC     N 5307   6.976   0.415   6.254
   40POPC   C12 5308   6.939   0.542   6.178
   40POPC  H12A 5309   7.021   0.614   6.191
   40POPC  H12B 5310   6.848   0.576   6.224
   40POPC   C13 5311   6.896   0.293   6.220
   40POPC  H13A 5312   6.878   0.286   6.113
   40POPC  H13B 5313   6.939   0.201   6.257
   40POPC  H13C 5314   6.798   0.306   6.263
   40POPC   C14 5315   7.098   0.390   6.218
   40POPC  H14A 5316   7.135   0.287   6.235
   40POPC  H14B 5317   7.094   0.399   6.106
   40POPC  H14C 5318   7.187   0.446   6.242
   40POPC   C15 5319   7.009   0.431   6.395
   40POPC  H15A 5320   7.039   0.334   6.434
   40POPC  H15B 5321   6.924   0.469   6.445
   40POPC  H15C 5322   7.095   0.498   6.406
   40POPC   C11 5323   6.921   0.542   6.023
   40POPC  H11A 5324   7.017   0.521   5.972
   40POPC  H11B 5325   6.899   0.647   5.992
   40POPC     P 5326   6.667   0.474   5.967
   40POPC   O13 5327   6.599   0.343   5.977
   40POPC   O14 5328   6.642   0.559   5.849
   40POPC   O12 5329   6.824   0.448   5.981
   40POPC   O11 5330   6.639   0.561   6.098
   40POPC    C1 5331   6.649   0.703   6.092
   40POPC    HA 5332   6.565   0.742   6.033
   40POPC    HB 5333   6.739   0.740   6.039
   40POPC    C2 5334   6.647   0.772   6.231
   40POPC    HS 5335   6.691   0.874   6.217
   40POPC   O21 5336   6.714   0.695   6.333
   40POPC   C21 5337   6.742   0.764   6.445
   40POPC   O22 5338   6.729   0.885   6.456
   40POPC   C22 5339   6.791   0.670   6.556
   40POPC   H2R 5340   6.868   0.602   6.518
   40POPC   H2S 5341   6.707   0.612   6.595
   40POPC    C3 5342   6.502   0.795   6.269
   40POPC    HX 5343   6.457   0.854   6.195
   40POPC    HY 5344   6.489   0.855   6.361
   40POPC   O31 5345   6.431   0.677   6.260
   40POPC   C31 5346   6.444   0.602   6.360
   40POPC   O32 5347   6.479   0.630   6.474
   40POPC   C32 5348   6.361   0.498   6.312
   40POPC   H2X 5349   6.288   0.517   6.233
   40POPC   H2Y 5350   6.271   0.499   6.356
   40POPC   C23 5351   6.852   0.746   6.674
   40POPC   H3R 5352   6.785   0.823   6.717
   40POPC   H3S 5353   6.940   0.801   6.637
   40POPC   C24 5354   6.901   0.652   6.784
   40POPC   H4R 5355   6.962   0.568   6.742
   40POPC   H4S 5356   6.810   0.609   6.830
   40POPC   C25 5357   6.984   0.734   6.884
   40POPC   H5R 5358   6.958   0.842   6.886
   40POPC   H5S 5359   7.086   0.734   6.842
   40POPC   C26 5360   6.984   0.683   7.029
   40POPC   H6R 5361   7.069   0.738   7.077
   40POPC   H6S 5362   7.007   0.575   7.036
   40POPC   C27 5363   6.857   0.718   7.108
   40POPC   H7R 5364   6.780   0.642   7.098
   40POPC   H7S 5365   6.811   0.810   7.066
   40POPC   C28 5366   6.879   0.732   7.259
   40POPC   H8R 5367   6.780   0.761   7.301
   40POPC   H8S 5368   6.952   0.814   7.277
   40POPC   C29 5369   6.915   0.603   7.326
   40POPC   H91 5370   6.844   0.522   7.306
   40POPC  C210 5371   7.028   0.573   7.390
   40POPC  H101 5372   7.038   0.477   7.442
   40POPC  C211 5373   7.145   0.662   7.410
   40POPC  H11R 5374   7.208   0.670   7.321
   40POPC  H11S 5375   7.191   0.607   7.491
   40POPC  C212 5376   7.142   0.796   7.470
   40POPC  H12R 5377   7.079   0.873   7.420
   40POPC  H12S 5378   7.245   0.842   7.473
   40POPC  C213 5379   7.095   0.759   7.617
   40POPC  H13R 5380   7.175   0.726   7.686
   40POPC  H13S 5381   6.987   0.742   7.631
   40POPC  C214 5382   7.049   0.872   7.683
   40POPC  H14R 5383   7.017   0.927   7.605
   40POPC  H14S 5384   7.132   0.898   7.634
   40POPC  C215 5385   7.026   0.909   7.827
   40POPC  H15R 5386   6.924   0.900   7.853
   40POPC  H15S 5387   7.016   1.010   7.813
   40POPC  C216 5388   7.120   0.913   7.945
   40POPC  H16R 5389   7.224   0.908   7.911
   40POPC  H16S 5390   7.085   0.814   7.974
   40POPC  C217 5391   7.107   1.013   8.073
   40POPC  H17R 5392   7.007   1.015   8.106
   40POPC  H17S 5393   7.165   1.102   8.074
   40POPC  C218 5394   7.137   1.010   8.217
   40POPC  H18R 5395   7.233   0.973   8.221
   40POPC  H18S 5396   7.157   0.918   8.205
   40POPC  H18T 5397   7.186   1.068   8.293
   40POPC   C33 5398   6.447   0.380   6.316
   40POPC   H3X 5399   6.514   0.396   6.235
   40POPC   H3Y 5400   6.402   0.290   6.287
   40POPC   C34 5401   6.497   0.319   6.442
   40POPC   H4X 5402   6.520   0.213   6.412
   40POPC   H4Y 5403   6.421   0.319   6.518
   40POPC   C35 5404   6.620   0.368   6.501
   40POPC   H5X 5405   6.607   0.474   6.506
   40POPC   H5Y 5406   6.689   0.346   6.419
   40POPC   C36 5407   6.648   0.306   6.639
   40POPC   H6X 5408   6.755   0.291   6.655
   40POPC   H6Y 5409   6.600   0.205   6.644
   40POPC   C37 5410   6.612   0.402   6.754
   40POPC   H7X 5411   6.509   0.415   6.740
   40POPC   H7Y 5412   6.637   0.505   6.740
   40POPC   C38 5413   6.644   0.364   6.898
   40POPC   H8X 5414   6.719   0.290   6.914
   40POPC   H8Y 5415   6.543   0.331   6.924
   40POPC   C39 5416   6.640   0.438   7.025
   40POPC   H9X 5417   6.553   0.490   7.005
   40POPC   H9Y 5418   6.665   0.533   7.031
   40POPC  C310 5419   6.631   0.374   7.161
   40POPC  H10X 5420   6.694   0.286   7.175
   40POPC  H10Y 5421   6.548   0.323   7.132
   40POPC  C311 5422   6.583   0.476   7.272
   40POPC  H11X 5423   6.476   0.509   7.283
   40POPC  H11Y 5424   6.637   0.564   7.250
   40POPC  C312 5425   6.603   0.436   7.411
   40POPC  H12X 5426   6.672   0.350   7.402
   40POPC  H12Y 5427   6.509   0.395   7.435
   40POPC  C313 5428   6.545   0.506   7.542
   40POPC  H13X 5429   6.565   0.466   7.645
   40POPC  H13Y 5430   6.433   0.504   7.557
   40POPC  C314 5431   6.640   0.611   7.540
   40POPC  H14X 5432   6.604   0.662   7.449
   40POPC  H14Y 5433   6.737   0.556   7.525
   40POPC  C315 5434   6.644   0.695   7.662
   40POPC  H15X 5435   6.547   0.729   7.689
   40POPC  H15Y 5436   6.706   0.782   7.636
   40POPC  C316 5437   6.700   0.627   7.782
   40POPC  H16X 5438   6.708   0.691   7.872
   40POPC  H16Y 5439   6.803   0.596   7.751
   40POPC  H16Z 5440   6.637   0.541   7.814
   41CHL1    C3 5441   3.834   4.475   9.734
   41CHL1    H3 5442   3.847   4.584   9.743
   41CHL1    O3 5443   3.788   4.433   9.861
   41CHL1   H3' 5444   3.709   4.487   9.880
   41CHL1    C4 5445   3.727   4.457   9.625
   41CHL1   H4A 5446   3.680   4.356   9.630
   41CHL1   H4B 5447   3.647   4.530   9.647
   41CHL1    C5 5448   3.782   4.486   9.487
   41CHL1    C6 5449   3.724   4.576   9.405
   41CHL1    H6 5450   3.633   4.629   9.436
   41CHL1    C7 5451   3.759   4.594   9.261
   41CHL1   H7A 5452   3.666   4.598   9.200
   41CHL1   H7B 5453   3.818   4.686   9.245
   41CHL1    C8 5454   3.843   4.476   9.208
   41CHL1    H8 5455   3.771   4.392   9.196
   41CHL1   C14 5456   3.900   4.513   9.073
   41CHL1   H14 5457   3.973   4.598   9.088
   41CHL1   C15 5458   3.803   4.573   8.971
   41CHL1  H15A 5459   3.701   4.531   8.970
   41CHL1  H15B 5460   3.793   4.679   9.000
   41CHL1   C16 5461   3.869   4.547   8.836
   41CHL1  H16A 5462   3.804   4.485   8.771
   41CHL1  H16B 5463   3.894   4.638   8.778
   41CHL1   C17 5464   4.001   4.470   8.866
   41CHL1   H17 5465   4.078   4.550   8.874
   41CHL1   C13 5466   3.980   4.404   9.006
   41CHL1   C18 5467   3.900   4.271   8.993
   41CHL1  H18A 5468   3.811   4.283   8.928
   41CHL1  H18B 5469   3.962   4.197   8.942
   41CHL1  H18C 5470   3.874   4.223   9.090
   41CHL1   C12 5471   4.105   4.382   9.092
   41CHL1  H12A 5472   4.163   4.293   9.059
   41CHL1  H12B 5473   4.170   4.470   9.078
   41CHL1   C11 5474   4.069   4.354   9.240
   41CHL1  H11A 5475   4.034   4.249   9.237
   41CHL1  H11B 5476   4.161   4.357   9.300
   41CHL1    C9 5477   3.959   4.446   9.305
   41CHL1    H9 5478   4.009   4.545   9.317
   41CHL1   C10 5479   3.909   4.408   9.448
   41CHL1   C19 5480   3.878   4.255   9.448
   41CHL1  H19A 5481   3.826   4.223   9.356
   41CHL1  H19B 5482   3.975   4.201   9.452
   41CHL1  H19C 5483   3.821   4.219   9.536
   41CHL1    C1 5484   4.016   4.441   9.559
   41CHL1   H1A 5485   4.111   4.390   9.534
   41CHL1   H1B 5486   4.040   4.550   9.561
   41CHL1    C2 5487   3.969   4.406   9.701
   41CHL1   H2A 5488   4.046   4.436   9.775
   41CHL1   H2B 5489   3.955   4.296   9.709
   41CHL1   C20 5490   4.035   4.380   8.748
   41CHL1   H20 5491   3.945   4.314   8.738
   41CHL1   C21 5492   4.159   4.289   8.770
   41CHL1  H21A 5493   4.251   4.321   8.717
   41CHL1  H21B 5494   4.129   4.187   8.739
   41CHL1  H21C 5495   4.192   4.285   8.874
   41CHL1   C22 5496   4.046   4.454   8.612
   41CHL1  H22A 5497   3.967   4.530   8.594
   41CHL1  H22B 5498   4.145   4.504   8.614
   41CHL1   C23 5499   4.041   4.353   8.496
   41CHL1  H23A 5500   4.108   4.269   8.521
   41CHL1  H23B 5501   3.937   4.313   8.489
   41CHL1   C24 5502   4.091   4.412   8.363
   41CHL1  H24A 5503   4.037   4.508   8.351
   41CHL1  H24B 5504   4.199   4.436   8.376
   41CHL1   C25 5505   4.077   4.325   8.233
   41CHL1   H25 5506   4.094   4.392   8.145
   41CHL1   C26 5507   4.185   4.215   8.224
   41CHL1  H26A 5508   4.285   4.260   8.241
   41CHL1  H26B 5509   4.166   4.138   8.301
   41CHL1  H26C 5510   4.185   4.162   8.126
   41CHL1   C27 5511   3.935   4.270   8.210
   41CHL1  H27A 5512   3.863   4.354   8.197
   41CHL1  H27B 5513   3.929   4.214   8.117
   41CHL1  H27C 5514   3.902   4.201   8.290
   42CHL1    C3 5515   3.043   4.352   9.734
   42CHL1    H3 5516   2.977   4.262   9.724
   42CHL1    O3 5517   3.052   4.394   9.870
   42CHL1   H3' 5518   3.043   4.313   9.922
   42CHL1    C4 5519   3.184   4.312   9.687
   42CHL1   H4A 5520   3.256   4.387   9.726
   42CHL1   H4B 5521   3.208   4.218   9.742
   42CHL1    C5 5522   3.190   4.301   9.536
   42CHL1    C6 5523   3.223   4.187   9.473
   42CHL1    H6 5524   3.243   4.096   9.532
   42CHL1    C7 5525   3.233   4.171   9.324
   42CHL1   H7A 5526   3.317   4.104   9.294
   42CHL1   H7B 5527   3.137   4.128   9.288
   42CHL1    C8 5528   3.245   4.306   9.250
   42CHL1    H8 5529   3.349   4.344   9.265
   42CHL1   C14 5530   3.219   4.284   9.101
   42CHL1   H14 5531   3.114   4.243   9.091
   42CHL1   C15 5532   3.298   4.177   9.029
   42CHL1  H15A 5533   3.401   4.164   9.068
   42CHL1  H15B 5534   3.244   4.081   9.044
   42CHL1   C16 5535   3.295   4.223   8.883
   42CHL1  H16A 5536   3.399   4.253   8.857
   42CHL1  H16B 5537   3.259   4.145   8.813
   42CHL1   C17 5538   3.205   4.348   8.872
   42CHL1   H17 5539   3.098   4.314   8.867
   42CHL1   C13 5540   3.219   4.409   9.013
   42CHL1   C18 5541   3.355   4.484   9.026
   42CHL1  H18A 5542   3.360   4.567   8.953
   42CHL1  H18B 5543   3.373   4.523   9.128
   42CHL1  H18C 5544   3.442   4.418   9.008
   42CHL1   C12 5545   3.097   4.487   9.065
   42CHL1  H12A 5546   3.077   4.577   9.007
   42CHL1  H12B 5547   3.008   4.419   9.053
   42CHL1   C11 5548   3.113   4.526   9.214
   42CHL1  H11A 5549   3.195   4.599   9.226
   42CHL1  H11B 5550   3.020   4.578   9.243
   42CHL1    C9 5551   3.139   4.403   9.305
   42CHL1    H9 5552   3.043   4.346   9.294
   42CHL1   C10 5553   3.146   4.428   9.459
   42CHL1   C19 5554   3.249   4.539   9.490
   42CHL1  H19A 5555   3.212   4.636   9.450
   42CHL1  H19B 5556   3.268   4.559   9.597
   42CHL1  H19C 5557   3.347   4.516   9.442
   42CHL1    C1 5558   3.004   4.475   9.506
   42CHL1   H1A 5559   2.992   4.581   9.473
   42CHL1   H1B 5560   2.922   4.414   9.463
   42CHL1    C2 5561   2.983   4.470   9.658
   42CHL1   H2A 5562   2.875   4.473   9.683
   42CHL1   H2B 5563   3.032   4.562   9.697
   42CHL1   C20 5564   3.233   4.424   8.740
   42CHL1   H20 5565   3.341   4.451   8.735
   42CHL1   C21 5566   3.149   4.552   8.727
   42CHL1  H21A 5567   3.043   4.532   8.704
   42CHL1  H21B 5568   3.185   4.613   8.641
   42CHL1  H21C 5569   3.160   4.613   8.818
   42CHL1   C22 5570   3.199   4.336   8.617
   42CHL1  H22A 5571   3.266   4.247   8.616
   42CHL1  H22B 5572   3.095   4.300   8.635
   42CHL1   C23 5573   3.200   4.402   8.477
   42CHL1  H23A 5574   3.127   4.485   8.467
   42CHL1  H23B 5575   3.302   4.440   8.454
   42CHL1   C24 5576   3.162   4.302   8.368
   42CHL1  H24A 5577   3.247   4.231   8.357
   42CHL1  H24B 5578   3.073   4.245   8.403
   42CHL1   C25 5579   3.129   4.364   8.229
   42CHL1   H25 5580   3.031   4.416   8.238
   42CHL1   C26 5581   3.227   4.475   8.187
   42CHL1  H26A 5582   3.197   4.524   8.092
   42CHL1  H26B 5583   3.225   4.556   8.262
   42CHL1  H26C 5584   3.331   4.437   8.180
   42CHL1   C27 5585   3.126   4.253   8.122
   42CHL1  H27A 5586   3.228   4.211   8.110
   42CHL1  H27B 5587   3.059   4.167   8.143
   42CHL1  H27C 5588   3.093   4.297   8.025
   43CHL1    C3 5589   4.582   4.573   9.740
   43CHL1    H3 5590   4.655   4.654   9.758
   43CHL1    O3 5591   4.576   4.489   9.854
   43CHL1   H3' 5592   4.516   4.420   9.827
   43CHL1    C4 5593   4.441   4.630   9.713
   43CHL1   H4A 5594   4.366   4.549   9.715
   43CHL1   H4B 5595   4.419   4.700   9.797
   43CHL1    C5 5596   4.434   4.700   9.579
   43CHL1    C6 5597   4.406   4.830   9.568
   43CHL1    H6 5598   4.375   4.890   9.655
   43CHL1    C7 5599   4.411   4.891   9.432
   43CHL1   H7A 5600   4.330   4.947   9.412
   43CHL1   H7B 5601   4.483   4.969   9.414
   43CHL1    C8 5602   4.383   4.797   9.315
   43CHL1    H8 5603   4.276   4.765   9.328
   43CHL1   C14 5604   4.405   4.862   9.182
   43CHL1   H14 5605   4.503   4.915   9.186
   43CHL1   C15 5606   4.317   4.965   9.140
   43CHL1  H15A 5607   4.210   4.937   9.167
   43CHL1  H15B 5608   4.361   5.060   9.179
   43CHL1   C16 5609   4.321   4.973   8.995
   43CHL1  H16A 5610   4.221   4.937   8.959
   43CHL1  H16B 5611   4.358   5.072   8.963
   43CHL1   C17 5612   4.405   4.871   8.943
   43CHL1   H17 5613   4.501   4.927   8.947
   43CHL1   C13 5614   4.395   4.774   9.061
   43CHL1   C18 5615   4.254   4.706   9.060
   43CHL1  H18A 5616   4.253   4.626   8.985
   43CHL1  H18B 5617   4.221   4.664   9.157
   43CHL1  H18C 5618   4.171   4.774   9.034
   43CHL1   C12 5619   4.515   4.687   9.069
   43CHL1  H12A 5620   4.516   4.624   8.979
   43CHL1  H12B 5621   4.608   4.748   9.072
   43CHL1   C11 5622   4.505   4.606   9.197
   43CHL1  H11A 5623   4.418   4.539   9.183
   43CHL1  H11B 5624   4.599   4.548   9.204
   43CHL1    C9 5625   4.485   4.691   9.326
   43CHL1    H9 5626   4.579   4.751   9.334
   43CHL1   C10 5627   4.472   4.613   9.458
   43CHL1   C19 5628   4.359   4.506   9.440
   43CHL1  H19A 5629   4.385   4.421   9.373
   43CHL1  H19B 5630   4.322   4.462   9.534
   43CHL1  H19C 5631   4.269   4.559   9.402
   43CHL1    C1 5632   4.613   4.556   9.486
   43CHL1   H1A 5633   4.635   4.482   9.407
   43CHL1   H1B 5634   4.686   4.639   9.471
   43CHL1    C2 5635   4.631   4.488   9.622
   43CHL1   H2A 5636   4.738   4.463   9.637
   43CHL1   H2B 5637   4.569   4.396   9.618
   43CHL1   C20 5638   4.358   4.832   8.801
   43CHL1   H20 5639   4.274   4.760   8.805
   43CHL1   C21 5640   4.482   4.766   8.738
   43CHL1  H21A 5641   4.495   4.663   8.776
   43CHL1  H21B 5642   4.571   4.827   8.763
   43CHL1  H21C 5643   4.479   4.760   8.628
   43CHL1   C22 5644   4.295   4.952   8.718
   43CHL1  H22A 5645   4.198   4.979   8.763
   43CHL1  H22B 5646   4.364   5.038   8.727
   43CHL1   C23 5647   4.251   4.929   8.569
   43CHL1  H23A 5648   4.352   4.922   8.518
   43CHL1  H23B 5649   4.215   4.827   8.559
   43CHL1   C24 5650   4.116   5.005   8.505
   43CHL1  H24A 5651   4.025   5.017   8.559
   43CHL1  H24B 5652   4.127   5.098   8.582
   43CHL1   C25 5653   4.093   5.023   8.306
   43CHL1   H25 5654   4.124   4.938   8.294
   43CHL1   C26 5655   4.026   5.126   8.241
   43CHL1  H26A 5656   3.949   5.089   8.335
   43CHL1  H26B 5657   4.097   5.266   8.271
   43CHL1  H26C 5658   4.033   5.137   8.154
   43CHL1   C27 5659   4.238   5.110   8.209
   43CHL1  H27A 5660   4.306   5.042   8.166
   43CHL1  H27B 5661   4.287   5.195   8.261
   43CHL1  H27C 5662   4.358   5.102   8.210
   44CHL1    C3 5663   5.125   3.949   9.729
   44CHL1    H3 5664   5.196   4.030   9.707
   44CHL1    O3 5665   5.125   3.926   9.870
   44CHL1   H3' 5666   5.083   4.004   9.908
   44CHL1    C4 5667   4.996   4.007   9.682
   44CHL1   H4A 5668   4.918   3.941   9.715
   44CHL1   H4B 5669   4.971   4.098   9.738
   44CHL1    C5 5670   5.001   4.021   9.531
   44CHL1    C6 5671   4.951   4.131   9.476
   44CHL1    H6 5672   4.917   4.210   9.544
   44CHL1    C7 5673   4.925   4.145   9.329
   44CHL1   H7A 5674   4.827   4.193   9.310
   44CHL1   H7B 5675   5.000   4.212   9.286
   44CHL1    C8 5676   4.931   4.011   9.253
   44CHL1    H8 5677   4.838   3.956   9.274
   44CHL1   C14 5678   4.957   4.035   9.107
   44CHL1   H14 5679   5.048   4.091   9.096
   44CHL1   C15 5680   4.876   4.133   9.037
   44CHL1  H15A 5681   4.803   4.063   9.054
   44CHL1  H15B 5682   4.833   4.226   9.072
   44CHL1   C16 5683   4.883   4.102   8.896
   44CHL1  H16A 5684   4.791   4.051   8.877
   44CHL1  H16B 5685   4.875   4.192   8.837
   44CHL1   C17 5686   4.977   3.983   8.874
   44CHL1   H17 5687   5.063   4.047   8.878
   44CHL1   C13 5688   4.975   3.919   9.012
   44CHL1   C18 5689   4.860   3.836   9.017
   44CHL1  H18A 5690   4.864   3.785   8.921
   44CHL1  H18B 5691   4.818   3.790   9.108
   44CHL1  H18C 5692   4.777   3.834   8.955
   44CHL1   C12 5693   5.093   3.845   9.058
   44CHL1  H12A 5694   5.103   3.753   9.005
   44CHL1  H12B 5695   5.185   3.897   9.032
   44CHL1   C11 5696   5.076   3.815   9.205
   44CHL1  H11A 5697   4.990   3.744   9.207
   44CHL1  H11B 5698   5.172   3.771   9.238
   44CHL1    C9 5699   5.049   3.930   9.298
   44CHL1    H9 5700   5.138   3.992   9.284
   44CHL1   C10 5701   5.047   3.895   9.448
   44CHL1   C19 5702   4.980   3.761   9.460
   44CHL1  H19A 5703   4.939   3.724   9.551
   44CHL1  H19B 5704   4.911   3.821   9.411
   44CHL1  H19C 5705   4.968   3.682   9.391
   44CHL1    C1 5706   5.168   3.838   9.501
   44CHL1   H1A 5707   5.180   3.737   9.457
   44CHL1   H1B 5708   5.253   3.900   9.474
   44CHL1    C2 5709   5.154   3.821   9.652
   44CHL1   H2A 5710   5.254   3.795   9.674
   44CHL1   H2B 5711   5.088   3.739   9.686
   44CHL1   C20 5712   5.002   3.909   8.737
   44CHL1   H20 5713   4.947   3.816   8.706
   44CHL1   C21 5714   5.123   3.837   8.746
   44CHL1  H21A 5715   5.197   3.894   8.802
   44CHL1  H21B 5716   5.160   3.805   8.646
   44CHL1  H21C 5717   5.086   3.747   8.801
   44CHL1   C22 5718   5.007   3.999   8.617
   44CHL1  H22A 5719   4.915   4.032   8.586
   44CHL1  H22B 5720   5.048   4.096   8.639
   44CHL1   C23 5721   5.010   3.943   8.477
   44CHL1  H23A 5722   4.972   4.022   8.407
   44CHL1  H23B 5723   5.116   3.923   8.472
   44CHL1   C24 5724   4.930   3.822   8.447
   44CHL1  H24A 5725   4.936   3.737   8.520
   44CHL1  H24B 5726   4.836   3.846   8.419
   44CHL1   C25 5727   4.929   3.774   8.305
   44CHL1   H25 5728   4.861   3.686   8.294
   44CHL1   C26 5729   4.906   3.841   8.180
   44CHL1  H26A 5730   4.803   3.866   8.185
   44CHL1  H26B 5731   4.978   3.924   8.177
   44CHL1  H26C 5732   4.925   3.766   8.099
   44CHL1   C27 5733   5.063   3.756   8.284
   44CHL1  H27A 5734   5.149   3.816   8.292
   44CHL1  H27B 5735   5.080   3.716   8.391
   44CHL1  H27C 5736   5.079   3.689   8.194
   45CHL1    C3 5737   2.282   4.328   9.732
   45CHL1    H3 5738   2.350   4.414   9.714
   45CHL1    O3 5739   2.277   4.302   9.872
   45CHL1   H3' 5740   2.250   4.384   9.918
   45CHL1    C4 5741   2.141   4.356   9.674
   45CHL1   H4A 5742   2.078   4.271   9.706
   45CHL1   H4B 5743   2.105   4.448   9.727
   45CHL1    C5 5744   2.132   4.368   9.522
   45CHL1    C6 5745   2.080   4.476   9.464
   45CHL1    H6 5746   2.034   4.550   9.532
   45CHL1    C7 5747   2.086   4.518   9.319
   45CHL1   H7A 5748   1.979   4.514   9.280
   45CHL1   H7B 5749   2.063   4.621   9.353
   45CHL1    C8 5750   2.200   4.445   9.216
   45CHL1    H8 5751   2.312   4.476   9.177
   45CHL1   C14 5752   2.125   4.406   9.087
   45CHL1   H14 5753   2.038   4.391   9.146
   45CHL1   C15 5754   2.036   4.488   9.001
   45CHL1  H15A 5755   1.923   4.460   8.994
   45CHL1  H15B 5756   2.047   4.589   9.020
   45CHL1   C16 5757   2.113   4.474   8.877
   45CHL1  H16A 5758   2.021   4.445   8.847
   45CHL1  H16B 5759   2.148   4.560   8.822
   45CHL1   C17 5760   2.191   4.347   8.864
   45CHL1   H17 5761   2.291   4.389   8.862
   45CHL1   C13 5762   2.170   4.290   8.997
   45CHL1   C18 5763   2.052   4.202   8.975
   45CHL1  H18A 5764   1.950   4.235   8.957
   45CHL1  H18B 5765   2.079   4.120   8.905
   45CHL1  H18C 5766   2.055   4.172   9.077
   45CHL1   C12 5767   2.293   4.230   9.061
   45CHL1  H12A 5768   2.342   4.149   9.005
   45CHL1  H12B 5769   2.360   4.316   9.068
   45CHL1   C11 5770   2.281   4.191   9.206
   45CHL1  H11A 5771   2.214   4.107   9.215
   45CHL1  H11B 5772   2.380   4.156   9.242
   45CHL1    C9 5773   2.225   4.305   9.290
   45CHL1    H9 5774   2.310   4.365   9.318
   45CHL1   C10 5775   2.199   4.260   9.442
   45CHL1   C19 5776   2.114   4.129   9.450
   45CHL1  H19A 5777   2.167   4.049   9.397
   45CHL1  H19B 5778   2.100   4.093   9.555
   45CHL1  H19C 5779   2.014   4.137   9.402
   45CHL1    C1 5780   2.338   4.229   9.510
   45CHL1   H1A 5781   2.385   4.143   9.458
   45CHL1   H1B 5782   2.399   4.320   9.493
   45CHL1    C2 5783   2.336   4.203   9.663
   45CHL1   H2A 5784   2.437   4.184   9.706
   45CHL1   H2B 5785   2.276   4.113   9.690
   45CHL1   C20 5786   2.173   4.265   8.732
   45CHL1   H20 5787   2.075   4.216   8.714
   45CHL1   C21 5788   2.263   4.147   8.727
   45CHL1  H21A 5789   2.337   4.193   8.782
   45CHL1  H21B 5790   2.302   4.121   8.629
   45CHL1  H21C 5791   2.267   4.069   8.801
   45CHL1   C22 5792   2.209   4.355   8.616
   45CHL1  H22A 5793   2.134   4.419   8.646
   45CHL1  H22B 5794   2.273   4.442   8.617
   45CHL1   C23 5795   2.205   4.282   8.485
   45CHL1  H23A 5796   2.298   4.229   8.486
   45CHL1  H23B 5797   2.125   4.208   8.475
   45CHL1   C24 5798   2.212   4.366   8.366
   45CHL1  H24A 5799   2.103   4.357   8.339
   45CHL1  H24B 5800   2.277   4.456   8.362
   45CHL1   C25 5801   2.229   4.335   8.238
   45CHL1   H25 5802   2.168   4.232   8.240
   45CHL1   C26 5803   2.223   4.451   8.109
   45CHL1  H26A 5804   2.182   4.425   8.018
   45CHL1  H26B 5805   2.125   4.486   8.060
   45CHL1  H26C 5806   2.296   4.525   8.097
   45CHL1   C27 5807   2.336   4.261   8.272
   45CHL1  H27A 5808   2.331   4.212   8.182
   45CHL1  H27B 5809   2.439   4.281   8.295
   45CHL1  H27C 5810   2.318   4.170   8.287
   46CHL1    C3 5811   4.417   2.294   9.731
   46CHL1    H3 5812   4.430   2.184   9.714
   46CHL1    O3 5813   4.421   2.327   9.869
   46CHL1   H3' 5814   4.418   2.425   9.875
   46CHL1    C4 5815   4.533   2.366   9.659
   46CHL1   H4A 5816   4.531   2.472   9.686
   46CHL1   H4B 5817   4.630   2.325   9.695
   46CHL1    C5 5818   4.527   2.358   9.508
   46CHL1    C6 5819   4.634   2.319   9.436
   46CHL1    H6 5820   4.728   2.301   9.487
   46CHL1    C7 5821   4.638   2.316   9.285
   46CHL1   H7A 5822   4.726   2.370   9.245
   46CHL1   H7B 5823   4.642   2.212   9.245
   46CHL1    C8 5824   4.516   2.389   9.227
   46CHL1    H8 5825   4.531   2.498   9.242
   46CHL1   C14 5826   4.510   2.361   9.078
   46CHL1   H14 5827   4.505   2.250   9.066
   46CHL1   C15 5828   4.629   2.402   8.990
   46CHL1  H15A 5829   4.663   2.504   9.014
   46CHL1  H15B 5830   4.720   2.338   8.993
   46CHL1   C16 5831   4.567   2.391   8.851
   46CHL1  H16A 5832   4.576   2.489   8.801
   46CHL1  H16B 5833   4.615   2.313   8.790
   46CHL1   C17 5834   4.418   2.356   8.873
   46CHL1   H17 5835   4.396   2.246   8.875
   46CHL1   C13 5836   4.384   2.411   9.010
   46CHL1   C18 5837   4.371   2.566   9.001
   46CHL1  H18A 5838   4.366   2.614   9.100
   46CHL1  H18B 5839   4.456   2.610   8.946
   46CHL1  H18C 5840   4.279   2.596   8.946
   46CHL1   C12 5841   4.269   2.345   9.083
   46CHL1  H12A 5842   4.176   2.376   9.039
   46CHL1  H12B 5843   4.282   2.235   9.071
   46CHL1   C11 5844   4.257   2.378   9.230
   46CHL1  H11A 5845   4.219   2.480   9.248
   46CHL1  H11B 5846   4.180   2.309   9.267
   46CHL1    C9 5847   4.388   2.348   9.303
   46CHL1    H9 5848   4.389   2.236   9.303
   46CHL1   C10 5849   4.389   2.394   9.451
   46CHL1   C19 5850   4.364   2.547   9.465
   46CHL1  H19A 5851   4.256   2.562   9.485
   46CHL1  H19B 5852   4.419   2.596   9.549
   46CHL1  H19C 5853   4.391   2.599   9.371
   46CHL1    C1 5854   4.274   2.321   9.525
   46CHL1   H1A 5855   4.174   2.356   9.488
   46CHL1   H1B 5856   4.281   2.213   9.504
   46CHL1    C2 5857   4.280   2.335   9.677
   46CHL1   H2A 5858   4.202   2.266   9.719
   46CHL1   H2B 5859   4.257   2.439   9.708
   46CHL1   C20 5860   4.340   2.397   8.756
   46CHL1   H20 5861   4.339   2.507   8.743
   46CHL1   C21 5862   4.194   2.355   8.814
   46CHL1  H21A 5863   4.104   2.377   8.761
   46CHL1  H21B 5864   4.134   2.431   8.868
   46CHL1  H21C 5865   4.165   2.250   8.795
   46CHL1   C22 5866   4.412   2.334   8.617
   46CHL1  H22A 5867   4.515   2.298   8.630
   46CHL1  H22B 5868   4.357   2.234   8.608
   46CHL1   C23 5869   4.438   2.423   8.472
   46CHL1  H23A 5870   4.371   2.524   8.448
   46CHL1  H23B 5871   4.507   2.500   8.474
   46CHL1   C24 5872   4.430   2.324   8.347
   46CHL1  H24A 5873   4.503   2.247   8.379
   46CHL1  H24B 5874   4.346   2.253   8.313
   46CHL1   C25 5875   4.461   2.402   8.223
   46CHL1   H25 5876   4.532   2.474   8.265
   46CHL1   C26 5877   4.508   2.298   8.129
   46CHL1  H26A 5878   4.452   2.202   8.142
   46CHL1  H26B 5879   4.491   2.334   8.025
   46CHL1  H26C 5880   4.613   2.286   8.158
   46CHL1   C27 5881   4.359   2.486   8.146
   46CHL1  H27A 5882   4.277   2.419   8.108
   46CHL1  H27B 5883   4.326   2.563   8.217
   46CHL1  H27C 5884   4.392   2.557   8.072
   47CHL1    C3 5885   4.093   5.227   9.742
   47CHL1    H3 5886   4.039   5.131   9.732
   47CHL1    O3 5887   4.132   5.239   9.875
   47CHL1   H3' 5888   4.049   5.231   9.926
   47CHL1    C4 5889   4.213   5.224   9.648
   47CHL1   H4A 5890   4.283   5.307   9.666
   47CHL1   H4B 5891   4.265   5.130   9.676
   47CHL1    C5 5892   4.181   5.232   9.502
   47CHL1    C6 5893   4.195   5.134   9.428
   47CHL1    H6 5894   4.229   5.053   9.486
   47CHL1    C7 5895   4.135   5.130   9.295
   47CHL1   H7A 5896   4.211   5.113   9.244
   47CHL1   H7B 5897   4.075   5.042   9.273
   47CHL1    C8 5898   4.126   5.256   9.213
   47CHL1    H8 5899   4.220   5.318   9.209
   47CHL1   C14 5900   4.072   5.239   9.072
   47CHL1   H14 5901   3.986   5.166   9.071
   47CHL1   C15 5902   4.159   5.191   8.970
   47CHL1  H15A 5903   4.261   5.229   8.972
   47CHL1  H15B 5904   4.136   5.087   8.971
   47CHL1   C16 5905   4.093   5.215   8.843
   47CHL1  H16A 5906   4.174   5.240   8.769
   47CHL1  H16B 5907   4.028   5.123   8.828
   47CHL1   C17 5908   3.987   5.312   8.867
   47CHL1   H17 5909   3.893   5.256   8.887
   47CHL1   C13 5910   4.035   5.365   9.000
   47CHL1   C18 5911   4.153   5.462   8.970
   47CHL1  H18A 5912   4.236   5.418   8.912
   47CHL1  H18B 5913   4.119   5.549   8.912
   47CHL1  H18C 5914   4.197   5.507   9.061
   47CHL1   C12 5915   3.930   5.409   9.091
   47CHL1  H12A 5916   3.897   5.499   9.045
   47CHL1  H12B 5917   3.845   5.338   9.088
   47CHL1   C11 5918   3.981   5.437   9.233
   47CHL1  H11A 5919   4.069   5.501   9.228
   47CHL1  H11B 5920   3.907   5.492   9.293
   47CHL1    C9 5921   4.030   5.315   9.304
   47CHL1    H9 5922   3.945   5.241   9.306
   47CHL1   C10 5923   4.096   5.337   9.448
   47CHL1   C19 5924   4.160   5.469   9.458
   47CHL1  H19A 5925   4.196   5.478   9.563
   47CHL1  H19B 5926   4.239   5.474   9.384
   47CHL1  H19C 5927   4.082   5.547   9.444
   47CHL1    C1 5928   4.004   5.354   9.562
   47CHL1   H1A 5929   3.949   5.448   9.547
   47CHL1   H1B 5930   3.955   5.268   9.528
   47CHL1    C2 5931   4.009   5.345   9.711
   47CHL1   H2A 5932   3.907   5.340   9.757
   47CHL1   H2B 5933   4.049   5.445   9.730
   47CHL1   C20 5934   3.968   5.380   8.738
   47CHL1   H20 5935   4.061   5.434   8.703
   47CHL1   C21 5936   3.873   5.481   8.760
   47CHL1  H21A 5937   3.947   5.531   8.823
   47CHL1  H21B 5938   3.772   5.481   8.807
   47CHL1  H21C 5939   3.879   5.556   8.688
   47CHL1   C22 5940   3.906   5.295   8.634
   47CHL1  H22A 5941   3.975   5.215   8.608
   47CHL1  H22B 5942   3.807   5.255   8.665
   47CHL1   C23 5943   3.890   5.379   8.514
   47CHL1  H23A 5944   3.813   5.456   8.513
   47CHL1  H23B 5945   3.987   5.430   8.516
   47CHL1   C24 5946   3.862   5.306   8.398
   47CHL1  H24A 5947   3.842   5.193   8.384
   47CHL1  H24B 5948   3.760   5.243   8.473
   47CHL1   C25 5949   3.860   5.369   8.176
   47CHL1   H25 5950   3.813   5.434   8.281
   47CHL1   C26 5951   3.766   5.391   8.011
   47CHL1  H26A 5952   3.809   5.440   8.101
   47CHL1  H26B 5953   3.660   5.391   7.897
   47CHL1  H26C 5954   3.805   5.492   8.030
   47CHL1   C27 5955   3.706   5.121   8.113
   47CHL1  H27A 5956   3.672   5.043   8.199
   47CHL1  H27B 5957   3.564   5.058   8.087
   47CHL1  H27C 5958   3.794   5.121   8.099
   48CHL1    C3 5959   5.341   4.604   9.730
   48CHL1    H3 5960   5.325   4.495   9.714
   48CHL1    O3 5961   5.353   4.631   9.869
   48CHL1   H3' 5962   5.293   4.570   9.915
   48CHL1    C4 5963   5.469   4.650   9.658
   48CHL1   H4A 5964   5.483   4.752   9.688
   48CHL1   H4B 5965   5.559   4.597   9.697
   48CHL1    C5 5966   5.463   4.647   9.507
   48CHL1    C6 5967   5.561   4.589   9.436
   48CHL1    H6 5968   5.649   4.549   9.490
   48CHL1    C7 5969   5.560   4.582   9.286
   48CHL1   H7A 5970   5.657   4.611   9.241
   48CHL1   H7B 5971   5.543   4.477   9.256
   48CHL1    C8 5972   5.449   4.667   9.218
   48CHL1    H8 5973   5.489   4.770   9.216
   48CHL1   C14 5974   5.414   4.608   9.081
   48CHL1   H14 5975   5.362   4.513   9.100
   48CHL1   C15 5976   5.529   4.573   8.989
   48CHL1  H15A 5977   5.590   4.664   8.997
   48CHL1  H15B 5978   5.584   4.484   9.025
   48CHL1   C16 5979   5.464   4.558   8.850
   48CHL1  H16A 5980   5.517   4.625   8.779
   48CHL1  H16B 5981   5.467   4.455   8.811
   48CHL1   C17 5982   5.310   4.591   8.866
   48CHL1   H17 5983   5.259   4.499   8.897
   48CHL1   C13 5984   5.304   4.666   8.994
   48CHL1   C18 5985   5.340   4.782   8.935
   48CHL1  H18A 5986   5.267   4.858   8.908
   48CHL1  H18B 5987   5.368   4.809   9.031
   48CHL1  H18C 5988   5.435   4.795   8.882
   48CHL1   C12 5989   5.181   4.693   9.076
   48CHL1  H12A 5990   5.110   4.770   9.037
   48CHL1  H12B 5991   5.142   4.592   9.081
   48CHL1   C11 5992   5.207   4.726   9.221
   48CHL1  H11A 5993   5.230   4.822   9.240
   48CHL1  H11B 5994   5.108   4.711   9.262
   48CHL1    C9 5995   5.320   4.660   9.296
   48CHL1    H9 5996   5.283   4.557   9.292
   48CHL1   C10 5997   5.334   4.702   9.443
   48CHL1   C19 5998   5.333   4.853   9.449
   48CHL1  H19A 5999   5.250   4.914   9.420
   48CHL1  H19B 6000   5.338   4.886   9.555
   48CHL1  H19C 6001   5.418   4.889   9.384
   48CHL1    C1 6002   5.211   4.659   9.523
   48CHL1   H1A 6003   5.122   4.713   9.486
   48CHL1   H1B 6004   5.201   4.551   9.502
   48CHL1    C2 6005   5.221   4.681   9.674
   48CHL1   H2A 6006   5.126   4.648   9.720
   48CHL1   H2B 6007   5.230   4.789   9.696
   48CHL1   C20 6008   5.247   4.647   8.734
   48CHL1   H20 6009   5.313   4.727   8.693
   48CHL1   C21 6010   5.108   4.716   8.747
   48CHL1  H21A 6011   5.032   4.642   8.775
   48CHL1  H21B 6012   5.078   4.767   8.653
   48CHL1  H21C 6013   5.113   4.799   8.821
   48CHL1   C22 6014   5.246   4.535   8.627
   48CHL1  H22A 6015   5.346   4.487   8.623
   48CHL1  H22B 6016   5.177   4.452   8.654
   48CHL1   C23 6017   5.209   4.582   8.486
   48CHL1  H23A 6018   5.106   4.624   8.487
   48CHL1  H23B 6019   5.282   4.657   8.450
   48CHL1   C24 6020   5.219   4.461   8.393
   48CHL1  H24A 6021   5.327   4.448   8.379
   48CHL1  H24B 6022   5.177   4.372   8.443
   48CHL1   C25 6023   5.151   4.472   8.257
   48CHL1   H25 6024   5.178   4.571   8.214
   48CHL1   C26 6025   5.197   4.361   8.162
   48CHL1  H26A 6026   5.169   4.261   8.200
   48CHL1  H26B 6027   5.148   4.375   8.064
   48CHL1  H26C 6028   5.306   4.363   8.149
   48CHL1   C27 6029   4.999   4.472   8.268
   48CHL1  H27A 6030   4.957   4.381   8.316
   48CHL1  H27B 6031   4.967   4.564   8.322
   48CHL1  H27C 6032   4.958   4.477   8.165
   49CHL1    C3 6033   4.123   1.541   9.730
   49CHL1    H3 6034   4.018   1.517   9.699
   49CHL1    O3 6035   4.129   1.545   9.871
   49CHL1   H3' 6036   4.098   1.632   9.896
   49CHL1    C4 6037   4.210   1.425   9.687
   49CHL1   H4A 6038   4.310   1.424   9.731
   49CHL1   H4B 6039   4.160   1.332   9.727
   49CHL1    C5 6040   4.217   1.436   9.539
   49CHL1    C6 6041   4.163   1.346   9.471
   49CHL1    H6 6042   4.129   1.274   9.534
   49CHL1    C7 6043   4.150   1.346   9.328
   49CHL1   H7A 6044   4.212   1.267   9.300
   49CHL1   H7B 6045   4.046   1.337   9.289
   49CHL1    C8 6046   4.256   1.415   9.251
   49CHL1    H8 6047   4.358   1.371   9.276
   49CHL1   C14 6048   4.224   1.407   9.101
   49CHL1   H14 6049   4.116   1.430   9.090
   49CHL1   C15 6050   4.243   1.279   9.025
   49CHL1  H15A 6051   4.338   1.222   9.042
   49CHL1  H15B 6052   4.157   1.226   9.059
   49CHL1   C16 6053   4.230   1.315   8.877
   49CHL1  H16A 6054   4.314   1.262   8.825
   49CHL1  H16B 6055   4.136   1.288   8.827
   49CHL1   C17 6056   4.250   1.468   8.871
   49CHL1   H17 6057   4.153   1.521   8.868
   49CHL1   C13 6058   4.295   1.500   9.009
   49CHL1   C18 6059   4.428   1.451   8.994
   49CHL1  H18A 6060   4.464   1.361   8.941
   49CHL1  H18B 6061   4.498   1.537   8.986
   49CHL1  H18C 6062   4.434   1.405   9.091
   49CHL1   C12 6063   4.296   1.639   9.069
   49CHL1  H12A 6064   4.375   1.701   9.019
   49CHL1  H12B 6065   4.194   1.676   9.055
   49CHL1   C11 6066   4.327   1.642   9.219
   49CHL1  H11A 6067   4.427   1.607   9.216
   49CHL1  H11B 6068   4.325   1.743   9.260
   49CHL1    C9 6069   4.246   1.550   9.308
   49CHL1    H9 6070   4.139   1.579   9.293
   49CHL1   C10 6071   4.264   1.554   9.465
   49CHL1   C19 6072   4.405   1.554   9.507
   49CHL1  H19A 6073   4.456   1.461   9.468
   49CHL1  H19B 6074   4.448   1.647   9.462
   49CHL1  H19C 6075   4.428   1.561   9.614
   49CHL1    C1 6076   4.194   1.676   9.519
   49CHL1   H1A 6077   4.246   1.767   9.482
   49CHL1   H1B 6078   4.096   1.671   9.468
   49CHL1    C2 6079   4.171   1.676   9.672
   49CHL1   H2A 6080   4.098   1.757   9.695
   49CHL1   H2B 6081   4.269   1.697   9.722
   49CHL1   C20 6082   4.339   1.496   8.748
   49CHL1   H20 6083   4.427   1.427   8.746
   49CHL1   C21 6084   4.396   1.639   8.750
   49CHL1  H21A 6085   4.311   1.707   8.768
   49CHL1  H21B 6086   4.444   1.665   8.655
   49CHL1  H21C 6087   4.473   1.654   8.829
   49CHL1   C22 6088   4.255   1.464   8.622
   49CHL1  H22A 6089   4.243   1.354   8.613
   49CHL1  H22B 6090   4.155   1.511   8.638
   49CHL1   C23 6091   4.317   1.509   8.490
   49CHL1  H23A 6092   4.316   1.620   8.481
   49CHL1  H23B 6093   4.421   1.473   8.496
   49CHL1   C24 6094   4.255   1.452   8.362
   49CHL1  H24A 6095   4.253   1.341   8.363
   49CHL1  H24B 6096   4.149   1.486   8.358
   49CHL1   C25 6097   4.338   1.500   8.241
   49CHL1   H25 6098   4.444   1.472   8.252
   49CHL1   C26 6099   4.306   1.424   8.116
   49CHL1  H26A 6100   4.322   1.478   8.021
   49CHL1  H26B 6101   4.351   1.326   8.113
   49CHL1  H26C 6102   4.209   1.395   8.139
   49CHL1   C27 6103   4.324   1.649   8.215
   49CHL1  H27A 6104   4.355   1.671   8.110
   49CHL1  H27B 6105   4.219   1.681   8.227
   49CHL1  H27C 6106   4.385   1.708   8.286
   50CHL1    C3 6107   1.204   3.449   9.729
   50CHL1    H3 6108   1.308   3.464   9.692
   50CHL1    O3 6109   1.199   3.457   9.870
   50CHL1   H3' 6110   1.227   3.547   9.893
   50CHL1    C4 6111   1.114   3.558   9.673
   50CHL1   H4A 6112   1.015   3.552   9.723
   50CHL1   H4B 6113   1.161   3.654   9.706
   50CHL1    C5 6114   1.102   3.548   9.523
   50CHL1    C6 6115   1.136   3.650   9.443
   50CHL1    H6 6116   1.177   3.741   9.488
   50CHL1    C7 6117   1.127   3.645   9.293
   50CHL1   H7A 6118   1.081   3.738   9.253
   50CHL1   H7B 6119   1.228   3.635   9.250
   50CHL1    C8 6120   1.048   3.525   9.238
   50CHL1    H8 6121   0.943   3.556   9.239
   50CHL1   C14 6122   1.080   3.500   9.094
   50CHL1   H14 6123   1.187   3.466   9.084
   50CHL1   C15 6124   1.071   3.620   9.000
   50CHL1  H15A 6125   0.979   3.676   9.022
   50CHL1  H15B 6126   1.153   3.690   9.015
   50CHL1   C16 6127   1.058   3.556   8.863
   50CHL1  H16A 6128   0.958   3.591   8.827
   50CHL1  H16B 6129   1.133   3.581   8.786
   50CHL1   C17 6130   1.056   3.404   8.889
   50CHL1   H17 6131   1.157   3.363   8.898
   50CHL1   C13 6132   0.996   3.391   9.033
   50CHL1   C18 6133   0.846   3.420   9.061
   50CHL1  H18A 6134   0.826   3.525   9.033
   50CHL1  H18B 6135   0.771   3.350   9.024
   50CHL1  H18C 6136   0.810   3.400   9.164
   50CHL1   C12 6137   1.030   3.270   9.107
   50CHL1  H12A 6138   0.947   3.204   9.072
   50CHL1  H12B 6139   1.133   3.235   9.082
   50CHL1   C11 6140   1.005   3.277   9.256
   50CHL1  H11A 6141   0.898   3.274   9.276
   50CHL1  H11B 6142   1.033   3.189   9.306
   50CHL1    C9 6143   1.076   3.397   9.317
   50CHL1    H9 6144   1.183   3.375   9.294
   50CHL1   C10 6145   1.069   3.408   9.470
   50CHL1   C19 6146   0.940   3.366   9.511
   50CHL1  H19A 6147   0.879   3.425   9.458
   50CHL1  H19B 6148   0.890   3.281   9.467
   50CHL1  H19C 6149   0.912   3.379   9.618
   50CHL1    C1 6150   1.135   3.291   9.542
   50CHL1   H1A 6151   1.070   3.201   9.526
   50CHL1   H1B 6152   1.232   3.276   9.496
   50CHL1    C2 6153   1.152   3.310   9.692
   50CHL1   H2A 6154   1.225   3.235   9.727
   50CHL1   H2B 6155   1.054   3.299   9.746
   50CHL1   C20 6156   1.040   3.324   8.766
   50CHL1   H20 6157   1.068   3.367   8.669
   50CHL1   C21 6158   0.919   3.329   8.754
   50CHL1  H21A 6159   0.872   3.293   8.667
   50CHL1  H21B 6160   0.890   3.435   8.757
   50CHL1  H21C 6161   0.856   3.261   8.816
   50CHL1   C22 6162   1.035   3.185   8.776
   50CHL1  H22A 6163   1.139   3.164   8.788
   50CHL1  H22B 6164   0.975   3.154   8.868
   50CHL1   C23 6165   0.975   3.114   8.660
   50CHL1  H23A 6166   0.883   3.054   8.688
   50CHL1  H23B 6167   0.964   3.183   8.575
   50CHL1   C24 6168   1.077   3.035   8.618
   50CHL1  H24A 6169   1.173   3.049   8.580
   50CHL1  H24B 6170   1.093   2.983   8.704
   50CHL1   C25 6171   1.018   2.958   8.536
   50CHL1   H25 6172   0.910   2.922   8.579
   50CHL1   C26 6173   0.928   3.039   8.429
   50CHL1  H26A 6174   1.003   3.099   8.366
   50CHL1  H26B 6175   0.898   2.949   8.377
   50CHL1  H26C 6176   0.854   3.105   8.402
   50CHL1   C27 6177   1.161   2.732   8.455
   50CHL1  H27A 6178   1.236   2.764   8.436
   50CHL1  H27B 6179   1.145   2.645   8.508
   50CHL1  H27C 6180   1.108   2.695   8.352
   51CHL1    C3 6181   2.118   5.771   9.730
   51CHL1    H3 6182   2.038   5.847   9.717
   51CHL1    O3 6183   2.138   5.751   9.868
   51CHL1   H3' 6184   2.167   5.838   9.898
   51CHL1    C4 6185   2.070   5.643   9.660
   51CHL1   H4A 6186   2.121   5.553   9.698
   51CHL1   H4B 6187   1.964   5.631   9.693
   51CHL1    C5 6188   2.082   5.643   9.510
   51CHL1    C6 6189   1.978   5.610   9.434
   51CHL1    H6 6190   1.886   5.584   9.484
   51CHL1    C7 6191   1.975   5.602   9.285
   51CHL1   H7A 6192   1.933   5.511   9.241
   51CHL1   H7B 6193   1.912   5.683   9.245
   51CHL1    C8 6194   2.110   5.614   9.223
   51CHL1    H8 6195   2.177   5.530   9.230
   51CHL1   C14 6196   2.095   5.639   9.073
   51CHL1   H14 6197   2.044   5.738   9.073
   51CHL1   C15 6198   1.999   5.569   8.981
   51CHL1  H15A 6199   2.003   5.472   8.962
   51CHL1  H15B 6200   1.893   5.565   9.002
   51CHL1   C16 6201   2.059   5.572   8.842
   51CHL1  H16A 6202   2.104   5.473   8.810
   51CHL1  H16B 6203   1.975   5.600   8.777
   51CHL1   C17 6204   2.171   5.672   8.850
   51CHL1   H17 6205   2.118   5.770   8.850
   51CHL1   C13 6206   2.221   5.656   8.993
   51CHL1   C18 6207   2.318   5.536   9.002
   51CHL1  H18A 6208   2.411   5.558   8.946
   51CHL1  H18B 6209   2.350   5.510   9.105
   51CHL1  H18C 6210   2.268   5.446   8.964
   51CHL1   C12 6211   2.276   5.776   9.055
   51CHL1  H12A 6212   2.360   5.806   8.992
   51CHL1  H12B 6213   2.218   5.871   9.052
   51CHL1   C11 6214   2.302   5.724   9.198
   51CHL1  H11A 6215   2.398   5.675   9.221
   51CHL1  H11B 6216   2.311   5.820   9.220
   51CHL1    C9 6217   2.187   5.718   9.294
   51CHL1    H9 6218   2.127   5.811   9.282
   51CHL1   C10 6219   2.211   5.699   9.449
   51CHL1   C19 6220   2.334   5.610   9.468
   51CHL1  H19A 6221   2.344   5.563   9.568
   51CHL1  H19B 6222   2.325   5.533   9.390
   51CHL1  H19C 6223   2.429   5.657   9.441
   51CHL1    C1 6224   2.242   5.831   9.521
   51CHL1   H1A 6225   2.344   5.863   9.497
   51CHL1   H1B 6226   2.169   5.908   9.488
   51CHL1    C2 6227   2.249   5.824   9.674
   51CHL1   H2A 6228   2.272   5.926   9.715
   51CHL1   H2B 6229   2.333   5.756   9.704
   51CHL1   C20 6230   2.268   5.659   8.730
   51CHL1   H20 6231   2.331   5.568   8.742
   51CHL1   C21 6232   2.358   5.784   8.729
   51CHL1  H21A 6233   2.422   5.785   8.639
   51CHL1  H21B 6234   2.426   5.789   8.815
   51CHL1  H21C 6235   2.297   5.877   8.728
   51CHL1   C22 6236   2.197   5.644   8.591
   51CHL1  H22A 6237   2.129   5.556   8.591
   51CHL1  H22B 6238   2.130   5.732   8.580
   51CHL1   C23 6239   2.286   5.637   8.462
   51CHL1  H23A 6240   2.219   5.628   8.373
   51CHL1  H23B 6241   2.345   5.729   8.444
   51CHL1   C24 6242   2.378   5.515   8.454
   51CHL1  H24A 6243   2.471   5.534   8.514
   51CHL1  H24B 6244   2.323   5.431   8.500
   51CHL1   C25 6245   2.420   5.479   8.309
   51CHL1   H25 6246   2.467   5.571   8.267
   51CHL1   C26 6247   2.526   5.374   8.309
   51CHL1  H26A 6248   2.474   5.286   8.346
   51CHL1  H26B 6249   2.571   5.355   8.208
   51CHL1  H26C 6250   2.603   5.390   8.381
   51CHL1   C27 6251   2.313   5.410   8.221
   51CHL1  H27A 6252   2.356   5.379   8.122
   51CHL1  H27B 6253   2.279   5.316   8.270
   51CHL1  H27C 6254   2.223   5.469   8.205
   52CHL1    C3 6255   5.980   2.428   9.729
   52CHL1    H3 6256   5.961   2.322   9.698
   52CHL1    O3 6257   5.960   2.439   9.869
   52CHL1   H3' 6258   6.019   2.373   9.911
   52CHL1    C4 6259   6.126   2.456   9.700
   52CHL1   H4A 6260   6.157   2.555   9.741
   52CHL1   H4B 6261   6.187   2.377   9.750
   52CHL1    C5 6262   6.142   2.444   9.550
   52CHL1    C6 6263   6.233   2.361   9.499
   52CHL1    H6 6264   6.297   2.301   9.566
   52CHL1    C7 6265   6.272   2.356   9.355
   52CHL1   H7A 6266   6.385   2.365   9.342
   52CHL1   H7B 6267   6.227   2.266   9.325
   52CHL1    C8 6268   6.198   2.448   9.257
   52CHL1    H8 6269   6.265   2.518   9.255
   52CHL1   C14 6270   6.216   2.440   9.108
   52CHL1   H14 6271   6.153   2.351   9.088
   52CHL1   C15 6272   6.354   2.400   9.050
   52CHL1  H15A 6273   6.442   2.454   9.087
   52CHL1  H15B 6274   6.375   2.295   9.076
   52CHL1   C16 6275   6.331   2.429   8.902
   52CHL1  H16A 6276   6.415   2.492   8.863
   52CHL1  H16B 6277   6.327   2.334   8.844
   52CHL1   C17 6278   6.191   2.506   8.889
   52CHL1   H17 6279   6.113   2.429   8.880
   52CHL1   C13 6280   6.156   2.560   9.026
   52CHL1   C18 6281   6.198   2.705   9.031
   52CHL1  H18A 6282   6.193   2.789   8.963
   52CHL1  H18B 6283   6.218   2.754   9.130
   52CHL1  H18C 6284   6.286   2.656   8.987
   52CHL1   C12 6285   6.020   2.580   9.069
   52CHL1  H12A 6286   5.972   2.660   9.008
   52CHL1  H12B 6287   5.984   2.479   9.055
   52CHL1   C11 6288   6.011   2.617   9.216
   52CHL1  H11A 6289   6.056   2.717   9.228
   52CHL1  H11B 6290   5.904   2.627   9.242
   52CHL1    C9 6291   6.072   2.511   9.310
   52CHL1    H9 6292   6.011   2.419   9.299
   52CHL1   C10 6293   6.061   2.545   9.463
   52CHL1   C19 6294   6.090   2.696   9.495
   52CHL1  H19A 6295   6.059   2.772   9.421
   52CHL1  H19B 6296   6.064   2.721   9.597
   52CHL1  H19C 6297   6.191   2.726   9.511
   52CHL1    C1 6298   5.915   2.526   9.502
   52CHL1   H1A 6299   5.856   2.608   9.454
   52CHL1   H1B 6300   5.883   2.430   9.458
   52CHL1    C2 6301   5.886   2.524   9.653
   52CHL1   H2A 6302   5.781   2.492   9.666
   52CHL1   H2B 6303   5.895   2.627   9.693
   52CHL1   C20 6304   6.186   2.602   8.770
   52CHL1   H20 6305   6.267   2.680   8.772
   52CHL1   C21 6306   6.055   2.683   8.757
   52CHL1  H21A 6307   6.047   2.736   8.660
   52CHL1  H21B 6308   6.055   2.764   8.832
   52CHL1  H21C 6309   5.965   2.621   8.772
   52CHL1   C22 6310   6.209   2.519   8.648
   52CHL1  H22A 6311   6.305   2.464   8.658
   52CHL1  H22B 6312   6.126   2.444   8.640
   52CHL1   C23 6313   6.218   2.621   8.534
   52CHL1  H23A 6314   6.119   2.660   8.503
   52CHL1  H23B 6315   6.306   2.684   8.526
   52CHL1   C24 6316   6.243   2.564   8.416
   52CHL1  H24A 6317   6.265   2.450   8.435
   52CHL1  H24B 6318   6.166   2.478   8.431
   52CHL1   C25 6319   6.286   2.646   8.217
   52CHL1   H25 6320   6.203   2.698   8.247
   52CHL1   C26 6321   6.376   2.718   8.219
   52CHL1  H26A 6322   6.470   2.682   8.239
   52CHL1  H26B 6323   6.420   2.745   8.134
   52CHL1  H26C 6324   6.382   2.727   8.326
   52CHL1   C27 6325   6.309   2.474   8.043
   52CHL1  H27A 6326   6.207   2.428   8.020
   52CHL1  H27B 6327   6.310   2.565   8.055
   52CHL1  H27C 6328   6.329   2.370   8.095
   53CHL1    C3 6329   6.271   3.216   9.729
   53CHL1    H3 6330   6.351   3.139   9.720
   53CHL1    O3 6331   6.245   3.233   9.867
   53CHL1   H3' 6332   6.233   3.145   9.900
   53CHL1    C4 6333   6.320   3.346   9.666
   53CHL1   H4A 6334   6.240   3.424   9.675
   53CHL1   H4B 6335   6.406   3.385   9.727
   53CHL1    C5 6336   6.351   3.314   9.521
   53CHL1    C6 6337   6.478   3.321   9.476
   53CHL1    H6 6338   6.555   3.353   9.546
   53CHL1    C7 6339   6.521   3.296   9.333
   53CHL1   H7A 6340   6.592   3.376   9.301
   53CHL1   H7B 6341   6.573   3.198   9.319
   53CHL1    C8 6342   6.400   3.305   9.240
   53CHL1    H8 6343   6.373   3.412   9.233
   53CHL1   C14 6344   6.436   3.253   9.102
   53CHL1   H14 6345   6.463   3.144   9.121
   53CHL1   C15 6346   6.557   3.311   9.030
   53CHL1  H15A 6347   6.579   3.419   9.044
   53CHL1  H15B 6348   6.645   3.255   9.068
   53CHL1   C16 6349   6.531   3.286   8.882
   53CHL1  H16A 6350   6.525   3.382   8.829
   53CHL1  H16B 6351   6.604   3.230   8.827
   53CHL1   C17 6352   6.403   3.203   8.880
   53CHL1   H17 6353   6.434   3.098   8.908
   53CHL1   C13 6354   6.323   3.258   8.999
   53CHL1   C18 6355   6.282   3.409   8.977
   53CHL1  H18A 6356   6.196   3.419   8.908
   53CHL1  H18B 6357   6.254   3.462   9.071
   53CHL1  H18C 6358   6.364   3.468   8.935
   53CHL1   C12 6359   6.208   3.172   9.051
   53CHL1  H12A 6360   6.119   3.182   8.985
   53CHL1  H12B 6361   6.241   3.066   9.054
   53CHL1   C11 6362   6.166   3.218   9.190
   53CHL1  H11A 6363   6.127   3.321   9.172
   53CHL1  H11B 6364   6.086   3.152   9.230
   53CHL1    C9 6365   6.281   3.223   9.293
   53CHL1    H9 6366   6.320   3.118   9.298
   53CHL1   C10 6367   6.233   3.263   9.436
   53CHL1   C19 6368   6.121   3.372   9.425
   53CHL1  H19A 6369   6.035   3.323   9.381
   53CHL1  H19B 6370   6.090   3.417   9.523
   53CHL1  H19C 6371   6.144   3.454   9.354
   53CHL1    C1 6372   6.176   3.136   9.508
   53CHL1   H1A 6373   6.088   3.088   9.459
   53CHL1   H1B 6374   6.254   3.057   9.505
   53CHL1    C2 6375   6.146   3.161   9.657
   53CHL1   H2A 6376   6.117   3.065   9.703
   53CHL1   H2B 6377   6.062   3.232   9.666
   53CHL1   C20 6378   6.347   3.179   8.741
   53CHL1   H20 6379   6.432   3.134   8.683
   53CHL1   C21 6380   6.310   3.305   8.666
   53CHL1  H21A 6381   6.202   3.323   8.681
   53CHL1  H21B 6382   6.327   3.291   8.558
   53CHL1  H21C 6383   6.366   3.394   8.701
   53CHL1   C22 6384   6.232   3.078   8.746
   53CHL1  H22A 6385   6.271   2.990   8.803
   53CHL1  H22B 6386   6.152   3.133   8.800
   53CHL1   C23 6387   6.170   3.032   8.614
   53CHL1  H23A 6388   6.101   2.946   8.627
   53CHL1  H23B 6389   6.106   3.112   8.573
   53CHL1   C24 6390   6.278   2.995   8.517
   53CHL1  H24A 6391   6.342   3.084   8.495
   53CHL1  H24B 6392   6.346   2.918   8.561
   53CHL1   C25 6393   6.224   2.953   8.382
   53CHL1   H25 6394   6.174   2.853   8.387
   53CHL1   C26 6395   6.156   3.059   8.304
   53CHL1  H26A 6396   6.231   3.138   8.275
   53CHL1  H26B 6397   6.108   3.017   8.213
   53CHL1  H26C 6398   6.083   3.099   8.373
   53CHL1   C27 6399   6.345   2.958   8.305
   53CHL1  H27A 6400   6.403   2.888   8.371
   53CHL1  H27B 6401   6.341   2.934   8.195
   53CHL1  H27C 6402   6.415   3.036   8.298
   54CHL1    C3 6403   6.629   4.079   9.732
   54CHL1    H3 6404   6.618   3.970   9.719
   54CHL1    O3 6405   6.651   4.113   9.869
   54CHL1   H3' 6406   6.585   4.059   9.914
   54CHL1    C4 6407   6.741   4.119   9.650
   54CHL1   H4A 6408   6.774   4.217   9.696
   54CHL1   H4B 6409   6.797   4.035   9.679
   54CHL1    C5 6410   6.759   4.104   9.504
   54CHL1    C6 6411   6.850   4.025   9.439
   54CHL1    H6 6412   6.934   3.976   9.492
   54CHL1    C7 6413   6.864   4.026   9.292
   54CHL1   H7A 6414   6.967   4.007   9.264
   54CHL1   H7B 6415   6.809   3.938   9.259
   54CHL1    C8 6416   6.798   4.146   9.221
   54CHL1    H8 6417   6.868   4.231   9.213
   54CHL1   C14 6418   6.766   4.111   9.077
   54CHL1   H14 6419   6.699   4.026   9.085
   54CHL1   C15 6420   6.871   4.049   8.987
   54CHL1  H15A 6421   6.929   4.125   9.032
   54CHL1  H15B 6422   6.905   3.947   9.011
   54CHL1   C16 6423   6.849   4.093   8.843
   54CHL1  H16A 6424   6.933   4.157   8.808
   54CHL1  H16B 6425   6.843   4.011   8.769
   54CHL1   C17 6426   6.712   4.165   8.854
   54CHL1   H17 6427   6.639   4.082   8.860
   54CHL1   C13 6428   6.708   4.225   8.997
   54CHL1   C18 6429   6.794   4.354   8.999
   54CHL1  H18A 6430   6.759   4.422   8.920
   54CHL1  H18B 6431   6.785   4.408   9.096
   54CHL1  H18C 6432   6.900   4.331   8.983
   54CHL1   C12 6433   6.572   4.252   9.061
   54CHL1  H12A 6434   6.529   4.336   9.004
   54CHL1  H12B 6435   6.511   4.160   9.050
   54CHL1   C11 6436   6.585   4.287   9.211
   54CHL1  H11A 6437   6.635   4.385   9.222
   54CHL1  H11B 6438   6.487   4.303   9.259
   54CHL1    C9 6439   6.664   4.181   9.291
   54CHL1    H9 6440   6.606   4.085   9.281
   54CHL1   C10 6441   6.669   4.207   9.445
   54CHL1   C19 6442   6.686   4.360   9.488
   54CHL1  H19A 6443   6.692   4.373   9.596
   54CHL1  H19B 6444   6.774   4.421   9.473
   54CHL1  H19C 6445   6.620   4.423   9.429
   54CHL1    C1 6446   6.538   4.170   9.516
   54CHL1   H1A 6447   6.474   4.254   9.482
   54CHL1   H1B 6448   6.506   4.071   9.477
   54CHL1    C2 6449   6.530   4.170   9.671
   54CHL1   H2A 6450   6.435   4.132   9.711
   54CHL1   H2B 6451   6.550   4.272   9.709
   54CHL1   C20 6452   6.671   4.250   8.732
   54CHL1   H20 6453   6.720   4.349   8.740
   54CHL1   C21 6454   6.517   4.273   8.729
   54CHL1  H21A 6455   6.488   4.375   8.764
   54CHL1  H21B 6456   6.466   4.198   8.791
   54CHL1  H21C 6457   6.477   4.262   8.627
   54CHL1   C22 6458   6.724   4.192   8.596
   54CHL1  H22A 6459   6.701   4.267   8.517
   54CHL1  H22B 6460   6.835   4.185   8.604
   54CHL1   C23 6461   6.669   4.056   8.550
   54CHL1  H23A 6462   6.689   3.977   8.626
   54CHL1  H23B 6463   6.560   4.067   8.535
   54CHL1   C24 6464   6.722   4.008   8.414
   54CHL1  H24A 6465   6.667   3.917   8.381
   54CHL1  H24B 6466   6.708   4.091   8.341
   54CHL1   C25 6467   6.870   3.972   8.416
   54CHL1   H25 6468   6.924   4.049   8.474
   54CHL1   C26 6469   6.895   3.841   8.490
   54CHL1  H26A 6470   6.843   3.833   8.586
   54CHL1  H26B 6471   6.857   3.758   8.431
   54CHL1  H26C 6472   7.003   3.827   8.507
   54CHL1   C27 6473   6.925   3.964   8.273
   54CHL1  H27A 6474   7.031   3.935   8.284
   54CHL1  H27B 6475   6.865   3.890   8.213
   54CHL1  H27C 6476   6.931   4.058   8.217
   55CHL1    C3 6477   0.939   2.696   9.734
   55CHL1    H3 6478   1.039   2.658   9.712
   55CHL1    O3 6479   0.902   2.695   9.871
   55CHL1   H3' 6480   0.935   2.614   9.909
   55CHL1    C4 6481   0.927   2.838   9.685
   55CHL1   H4A 6482   0.825   2.877   9.707
   55CHL1   H4B 6483   0.994   2.901   9.744
   55CHL1    C5 6484   0.961   2.846   9.540
   55CHL1    C6 6485   1.037   2.938   9.487
   55CHL1    H6 6486   1.103   2.993   9.555
   55CHL1    C7 6487   1.054   2.952   9.338
   55CHL1   H7A 6488   1.112   3.038   9.321
   55CHL1   H7B 6489   1.127   2.890   9.284
   55CHL1    C8 6490   0.962   2.887   9.246
   55CHL1    H8 6491   0.884   2.964   9.240
   55CHL1   C14 6492   1.027   2.864   9.113
   55CHL1   H14 6493   1.109   2.789   9.117
   55CHL1   C15 6494   1.100   2.977   9.053
   55CHL1  H15A 6495   1.045   3.060   9.055
   55CHL1  H15B 6496   1.182   3.031   9.093
   55CHL1   C16 6497   1.111   2.933   8.917
   55CHL1  H16A 6498   1.044   2.997   8.875
   55CHL1  H16B 6499   1.206   2.945   8.866
   55CHL1   C17 6500   1.024   2.812   8.897
   55CHL1   H17 6501   1.099   2.736   8.909
   55CHL1   C13 6502   0.933   2.816   9.016
   55CHL1   C18 6503   0.835   2.932   9.008
   55CHL1  H18A 6504   0.867   3.036   9.014
   55CHL1  H18B 6505   0.804   2.924   8.905
   55CHL1  H18C 6506   0.749   2.935   9.073
   55CHL1   C12 6507   0.885   2.678   9.055
   55CHL1  H12A 6508   0.801   2.649   8.988
   55CHL1  H12B 6509   0.958   2.600   9.034
   55CHL1   C11 6510   0.859   2.666   9.207
   55CHL1  H11A 6511   0.789   2.741   9.237
   55CHL1  H11B 6512   0.810   2.572   9.232
   55CHL1    C9 6513   0.937   2.748   9.306
   55CHL1    H9 6514   1.028   2.688   9.307
   55CHL1   C10 6515   0.894   2.745   9.454
   55CHL1   C19 6516   0.782   2.833   9.477
   55CHL1  H19A 6517   0.703   2.823   9.557
   55CHL1  H19B 6518   0.779   2.918   9.417
   55CHL1  H19C 6519   0.734   2.830   9.383
   55CHL1    C1 6520   0.875   2.602   9.511
   55CHL1   H1A 6521   0.801   2.538   9.457
   55CHL1   H1B 6522   0.967   2.549   9.492
   55CHL1    C2 6523   0.850   2.602   9.662
   55CHL1   H2A 6524   0.840   2.501   9.702
   55CHL1   H2B 6525   0.764   2.660   9.699
   55CHL1   C20 6526   0.960   2.789   8.764
   55CHL1   H20 6527   0.902   2.881   8.753
   55CHL1   C21 6528   0.890   2.665   8.727
   55CHL1  H21A 6529   0.807   2.660   8.789
   55CHL1  H21B 6530   0.950   2.577   8.745
   55CHL1  H21C 6531   0.844   2.657   8.626
   55CHL1   C22 6532   1.038   2.755   8.653
   55CHL1  H22A 6533   1.143   2.822   8.645
   55CHL1  H22B 6534   1.133   2.702   8.678
   55CHL1   C23 6535   0.941   2.762   8.456
   55CHL1  H23A 6536   0.946   2.661   8.467
   55CHL1  H23B 6537   0.845   2.801   8.456
   55CHL1   C24 6538   1.105   2.908   8.329
   55CHL1  H24A 6539   1.156   3.007   8.381
   55CHL1  H24B 6540   1.217   2.922   8.381
   55CHL1   C25 6541   1.051   2.908   8.213
   55CHL1   H25 6542   1.027   2.801   8.207
   55CHL1   C26 6543   0.927   2.995   8.172
   55CHL1  H26A 6544   0.922   3.109   8.187
   55CHL1  H26B 6545   0.896   2.942   8.087
   55CHL1  H26C 6546   0.827   2.981   8.225
   55CHL1   C27 6547   1.149   2.952   8.142
   55CHL1  H27A 6548   1.100   2.898   8.063
   55CHL1  H27B 6549   1.117   3.058   8.137
   55CHL1  H27C 6550   1.255   2.924   8.167
   56CHL1    C3 6551   4.568   0.887   9.741
   56CHL1    H3 6552   4.565   0.993   9.708
   56CHL1    O3 6553   4.563   0.869   9.880
   56CHL1   H3' 6554   4.642   0.917   9.910
   56CHL1    C4 6555   4.458   0.811   9.663
   56CHL1   H4A 6556   4.456   0.706   9.698
   56CHL1   H4B 6557   4.371   0.870   9.692
   56CHL1    C5 6558   4.464   0.819   9.513
   56CHL1    C6 6559   4.375   0.866   9.432
   56CHL1    H6 6560   4.282   0.892   9.475
   56CHL1    C7 6561   4.394   0.877   9.285
   56CHL1   H7A 6562   4.314   0.814   9.246
   56CHL1   H7B 6563   4.391   0.985   9.258
   56CHL1    C8 6564   4.510   0.811   9.215
   56CHL1    H8 6565   4.496   0.702   9.217
   56CHL1   C14 6566   4.545   0.860   9.075
   56CHL1   H14 6567   4.549   0.970   9.095
   56CHL1   C15 6568   4.457   0.836   8.966
   56CHL1  H15A 6569   4.401   0.738   8.964
   56CHL1  H15B 6570   4.424   0.945   8.959
   56CHL1   C16 6571   4.509   0.857   8.827
   56CHL1  H16A 6572   4.498   0.768   8.763
   56CHL1  H16B 6573   4.453   0.937   8.773
   56CHL1   C17 6574   4.650   0.894   8.862
   56CHL1   H17 6575   4.651   1.003   8.881
   56CHL1   C13 6576   4.668   0.825   8.995
   56CHL1   C18 6577   4.673   0.670   8.973
   56CHL1  H18A 6578   4.644   0.611   9.063
   56CHL1  H18B 6579   4.606   0.648   8.894
   56CHL1  H18C 6580   4.773   0.639   8.937
   56CHL1   C12 6581   4.776   0.890   9.069
   56CHL1  H12A 6582   4.879   0.853   9.039
   56CHL1  H12B 6583   4.771   0.996   9.089
   56CHL1   C11 6584   4.743   0.853   9.206
   56CHL1  H11A 6585   4.772   0.755   9.156
   56CHL1  H11B 6586   4.813   0.904   9.274
   56CHL1    C9 6587   4.616   0.852   9.301
   56CHL1    H9 6588   4.627   0.961   9.324
   56CHL1   C10 6589   4.591   0.789   9.453
   56CHL1   C19 6590   4.566   0.613   9.444
   56CHL1  H19A 6591   4.562   0.584   9.551
   56CHL1  H19B 6592   4.511   0.581   9.357
   56CHL1  H19C 6593   4.651   0.535   9.419
   56CHL1    C1 6594   4.701   0.875   9.566
   56CHL1   H1A 6595   4.819   0.870   9.563
   56CHL1   H1B 6596   4.719   0.974   9.529
   56CHL1    C2 6597   4.697   0.834   9.709
   56CHL1   H2A 6598   4.795   0.872   9.752
   56CHL1   H2B 6599   4.687   0.722   9.722
   56CHL1   C20 6600   4.739   0.864   8.744
   56CHL1   H20 6601   4.721   0.763   8.719
   56CHL1   C21 6602   4.893   0.859   8.759
   56CHL1  H21A 6603   4.927   0.795   8.842
   56CHL1  H21B 6604   4.945   0.953   8.761
   56CHL1  H21C 6605   4.937   0.821   8.665
   56CHL1   C22 6606   4.693   0.948   8.622
   56CHL1  H22A 6607   4.602   1.006   8.644
   56CHL1  H22B 6608   4.786   1.007   8.607
   56CHL1   C23 6609   4.666   0.895   8.484
   56CHL1  H23A 6610   4.769   0.883   8.453
   56CHL1  H23B 6611   4.600   0.808   8.477
   56CHL1   C24 6612   4.661   0.979   8.363
   56CHL1  H24A 6613   4.578   1.036   8.391
   56CHL1  H24B 6614   4.756   1.037   8.344
   56CHL1   C25 6615   4.611   0.901   8.248
   56CHL1   H25 6616   4.538   0.821   8.267
   56CHL1   C26 6617   4.541   0.952   8.136
   56CHL1  H26A 6618   4.513   0.907   8.042
   56CHL1  H26B 6619   4.470   1.030   8.173
   56CHL1  H26C 6620   4.622   0.987   8.062
   56CHL1   C27 6621   4.725   0.877   8.178
   56CHL1  H27A 6622   4.806   0.939   8.132
   56CHL1  H27B 6623   4.798   0.816   8.190
   56CHL1  H27C 6624   4.669   0.797   8.122
   57CHL1    C3 6625   0.717   4.113   9.733
   57CHL1    H3 6626   0.652   4.023   9.735
   57CHL1    O3 6627   0.763   4.142   9.864
   57CHL1   H3' 6628   0.680   4.150   9.916
   57CHL1    C4 6629   0.840   4.091   9.645
   57CHL1   H4A 6630   0.899   4.186   9.653
   57CHL1   H4B 6631   0.901   4.008   9.685
   57CHL1    C5 6632   0.799   4.061   9.504
   57CHL1    C6 6633   0.830   3.944   9.447
   57CHL1    H6 6634   0.891   3.871   9.502
   57CHL1    C7 6635   0.788   3.913   9.309
   57CHL1   H7A 6636   0.862   3.850   9.255
   57CHL1   H7B 6637   0.693   3.858   9.318
   57CHL1    C8 6638   0.761   4.040   9.228
   57CHL1    H8 6639   0.859   4.089   9.211
   57CHL1   C14 6640   0.705   4.001   9.098
   57CHL1   H14 6641   0.608   3.954   9.136
   57CHL1   C15 6642   0.779   3.892   9.014
   57CHL1  H15A 6643   0.885   3.911   9.003
   57CHL1  H15B 6644   0.763   3.791   9.053
   57CHL1   C16 6645   0.730   3.898   8.871
   57CHL1  H16A 6646   0.785   3.932   8.785
   57CHL1  H16B 6647   0.698   3.793   8.849
   57CHL1   C17 6648   0.631   4.015   8.883
   57CHL1   H17 6649   0.581   3.939   8.948
   57CHL1   C13 6650   0.661   4.109   9.000
   57CHL1   C18 6651   0.762   4.199   8.934
   57CHL1  H18A 6652   0.840   4.144   8.880
   57CHL1  H18B 6653   0.710   4.260   8.857
   57CHL1  H18C 6654   0.800   4.272   9.007
   57CHL1   C12 6655   0.559   4.202   9.070
   57CHL1  H12A 6656   0.520   4.281   9.004
   57CHL1  H12B 6657   0.472   4.152   9.109
   57CHL1   C11 6658   0.612   4.249   9.207
   57CHL1  H11A 6659   0.693   4.319   9.187
   57CHL1  H11B 6660   0.530   4.303   9.259
   57CHL1    C9 6661   0.661   4.131   9.298
   57CHL1    H9 6662   0.569   4.069   9.316
   57CHL1   C10 6663   0.715   4.171   9.437
   57CHL1   C19 6664   0.807   4.294   9.417
   57CHL1  H19A 6665   0.747   4.379   9.377
   57CHL1  H19B 6666   0.850   4.329   9.512
   57CHL1  H19C 6667   0.891   4.273   9.348
   57CHL1    C1 6668   0.597   4.206   9.532
   57CHL1   H1A 6669   0.551   4.299   9.491
   57CHL1   H1B 6670   0.525   4.121   9.531
   57CHL1    C2 6671   0.638   4.231   9.678
   57CHL1   H2A 6672   0.549   4.254   9.742
   57CHL1   H2B 6673   0.708   4.318   9.679
   57CHL1   C20 6674   0.561   4.083   8.748
   57CHL1   H20 6675   0.641   4.137   8.703
   57CHL1   C21 6676   0.427   4.180   8.754
   57CHL1  H21A 6677   0.333   4.152   8.809
   57CHL1  H21B 6678   0.371   4.193   8.659
   57CHL1  H21C 6679   0.450   4.265   8.817
   57CHL1   C22 6680   0.532   3.990   8.636
   57CHL1  H22A 6681   0.560   3.887   8.672
   57CHL1  H22B 6682   0.425   4.005   8.600
   57CHL1   C23 6683   0.629   3.948   8.537
   57CHL1  H23A 6684   0.644   4.047   8.497
   57CHL1  H23B 6685   0.717   3.909   8.594
   57CHL1   C24 6686   0.586   3.838   8.441
   57CHL1  H24A 6687   0.538   3.749   8.490
   57CHL1  H24B 6688   0.517   3.872   8.360
   57CHL1   C25 6689   0.709   3.775   8.381
   57CHL1   H25 6690   0.779   3.740   8.462
   57CHL1   C26 6691   0.650   3.658   8.304
   57CHL1  H26A 6692   0.557   3.664   8.252
   57CHL1  H26B 6693   0.727   3.617   8.238
   57CHL1  H26C 6694   0.614   3.585   8.378
   57CHL1   C27 6695   0.782   3.865   8.285
   57CHL1  H27A 6696   0.702   3.889   8.215
   57CHL1  H27B 6697   0.811   3.964   8.321
   57CHL1  H27C 6698   0.869   3.818   8.234
   58CHL1    C3 6699   1.854   1.268   9.737
   58CHL1    H3 6700   1.956   1.299   9.709
   58CHL1    O3 6701   1.817   1.312   9.867
   58CHL1   H3' 6702   1.901   1.310   9.916
   58CHL1    C4 6703   1.754   1.320   9.642
   58CHL1   H4A 6704   1.649   1.299   9.680
   58CHL1   H4B 6705   1.778   1.429   9.649
   58CHL1    C5 6706   1.770   1.278   9.499
   58CHL1    C6 6707   1.798   1.364   9.404
   58CHL1    H6 6708   1.790   1.473   9.422
   58CHL1    C7 6709   1.812   1.320   9.263
   58CHL1   H7A 6710   1.741   1.384   9.217
   58CHL1   H7B 6711   1.906   1.344   9.215
   58CHL1    C8 6712   1.772   1.176   9.230
   58CHL1    H8 6713   1.665   1.167   9.244
   58CHL1   C14 6714   1.828   1.126   9.096
   58CHL1   H14 6715   1.936   1.127   9.108
   58CHL1   C15 6716   1.824   1.210   8.972
   58CHL1  H15A 6717   1.718   1.196   8.984
   58CHL1  H15B 6718   1.867   1.312   8.979
   58CHL1   C16 6719   1.835   1.130   8.846
   58CHL1  H16A 6720   1.749   1.141   8.776
   58CHL1  H16B 6721   1.927   1.162   8.795
   58CHL1   C17 6722   1.845   0.987   8.906
   58CHL1   H17 6723   1.954   0.981   8.929
   58CHL1   C13 6724   1.780   0.990   9.047
   58CHL1   C18 6725   1.628   0.986   9.026
   58CHL1  H18A 6726   1.591   1.054   8.949
   58CHL1  H18B 6727   1.592   0.883   9.009
   58CHL1  H18C 6728   1.582   1.031   9.115
   58CHL1   C12 6729   1.825   0.892   9.155
   58CHL1  H12A 6730   1.795   0.788   9.133
   58CHL1  H12B 6731   1.935   0.896   9.164
   58CHL1   C11 6732   1.780   0.940   9.293
   58CHL1  H11A 6733   1.674   0.950   9.287
   58CHL1  H11B 6734   1.807   0.869   9.370
   58CHL1    C9 6735   1.815   1.083   9.336
   58CHL1    H9 6736   1.924   1.084   9.335
   58CHL1   C10 6737   1.770   1.131   9.475
   58CHL1   C19 6738   1.628   1.096   9.496
   58CHL1  H19A 6739   1.622   0.990   9.481
   58CHL1  H19B 6740   1.592   1.119   9.598
   58CHL1  H19C 6741   1.554   1.105   9.419
   58CHL1    C1 6742   1.865   1.073   9.582
   58CHL1   H1A 6743   1.881   0.967   9.577
   58CHL1   H1B 6744   1.964   1.101   9.548
   58CHL1    C2 6745   1.853   1.120   9.726
   58CHL1   H2A 6746   1.930   1.071   9.787
   58CHL1   H2B 6747   1.760   1.109   9.776
   58CHL1   C20 6748   1.803   0.880   8.807
   58CHL1   H20 6749   1.693   0.884   8.794
   58CHL1   C21 6750   1.847   0.742   8.859
   58CHL1  H21A 6751   1.870   0.675   8.777
   58CHL1  H21B 6752   1.771   0.693   8.923
   58CHL1  H21C 6753   1.944   0.745   8.909
   58CHL1   C22 6754   1.859   0.906   8.666
   58CHL1  H22A 6755   1.813   0.841   8.588
   58CHL1  H22B 6756   1.844   1.010   8.633
   58CHL1   C23 6757   2.005   0.878   8.661
   58CHL1  H23A 6758   2.060   0.934   8.740
   58CHL1  H23B 6759   2.015   0.770   8.681
   58CHL1   C24 6760   2.061   0.898   8.525
   58CHL1  H24A 6761   2.167   0.870   8.527
   58CHL1  H24B 6762   2.008   0.840   8.449
   58CHL1   C25 6763   2.053   1.038   8.482
   58CHL1   H25 6764   1.959   1.090   8.491
   58CHL1   C26 6765   2.130   1.106   8.577
   58CHL1  H26A 6766   2.103   1.107   8.682
   58CHL1  H26B 6767   2.223   1.047   8.555
   58CHL1  H26C 6768   2.149   1.212   8.572
   58CHL1   C27 6769   2.118   1.043   8.352
   58CHL1  H27A 6770   2.083   0.983   8.269
   58CHL1  H27B 6771   2.153   1.143   8.332
   58CHL1  H27C 6772   2.215   0.998   8.355
   59CHL1    C3 6773   3.068   0.723   9.740
   59CHL1    H3 6774   3.115   0.822   9.759
   59CHL1    O3 6775   3.031   0.666   9.865
   59CHL1   H3' 6776   3.117   0.649   9.904
   59CHL1    C4 6777   2.944   0.748   9.653
   59CHL1   H4A 6778   2.880   0.656   9.651
   59CHL1   H4B 6779   2.885   0.824   9.707
   59CHL1    C5 6780   2.977   0.801   9.515
   59CHL1    C6 6781   2.926   0.916   9.468
   59CHL1    H6 6782   2.848   0.966   9.527
   59CHL1    C7 6783   2.945   0.966   9.328
   59CHL1   H7A 6784   2.853   1.014   9.286
   59CHL1   H7B 6785   3.024   1.041   9.334
   59CHL1    C8 6786   2.990   0.850   9.236
   59CHL1    H8 6787   2.905   0.786   9.243
   59CHL1   C14 6788   3.020   0.896   9.094
   59CHL1   H14 6789   3.107   0.965   9.107
   59CHL1   C15 6790   2.912   0.976   9.016
   59CHL1  H15A 6791   2.812   0.931   9.030
   59CHL1  H15B 6792   2.908   1.081   9.052
   59CHL1   C16 6793   2.959   0.967   8.869
   59CHL1  H16A 6794   2.881   0.923   8.803
   59CHL1  H16B 6795   2.992   1.065   8.832
   59CHL1   C17 6796   3.085   0.872   8.866
   59CHL1   H17 6797   3.173   0.938   8.879
   59CHL1   C13 6798   3.080   0.793   8.999
   59CHL1   C18 6799   2.991   0.681   8.974
   59CHL1  H18A 6800   2.907   0.735   8.924
   59CHL1  H18B 6801   3.034   0.598   8.915
   59CHL1  H18C 6802   2.956   0.616   9.055
   59CHL1   C12 6803   3.204   0.731   9.057
   59CHL1  H12A 6804   3.238   0.651   8.987
   59CHL1  H12B 6805   3.274   0.814   9.058
   59CHL1   C11 6806   3.180   0.673   9.198
   59CHL1  H11A 6807   3.125   0.577   9.187
   59CHL1  H11B 6808   3.278   0.644   9.244
   59CHL1    C9 6809   3.108   0.772   9.296
   59CHL1    H9 6810   3.178   0.858   9.306
   59CHL1   C10 6811   3.075   0.713   9.437
   59CHL1   C19 6812   3.012   0.573   9.419
   59CHL1  H19A 6813   2.927   0.571   9.350
   59CHL1  H19B 6814   3.089   0.507   9.377
   59CHL1  H19C 6815   2.980   0.526   9.514
   59CHL1    C1 6816   3.200   0.699   9.531
   59CHL1   H1A 6817   3.282   0.643   9.481
   59CHL1   H1B 6818   3.230   0.802   9.561
   59CHL1    C2 6819   3.176   0.639   9.670
   59CHL1   H2A 6820   3.272   0.641   9.729
   59CHL1   H2B 6821   3.145   0.535   9.659
   59CHL1   C20 6822   3.103   0.797   8.731
   59CHL1   H20 6823   3.029   0.715   8.717
   59CHL1   C21 6824   3.247   0.742   8.718
   59CHL1  H21A 6825   3.321   0.821   8.738
   59CHL1  H21B 6826   3.258   0.717   8.611
   59CHL1  H21C 6827   3.273   0.649   8.774
   59CHL1   C22 6828   3.083   0.889   8.606
   59CHL1  H22A 6829   2.996   0.958   8.613
   59CHL1  H22B 6830   3.178   0.946   8.598
   59CHL1   C23 6831   3.062   0.817   8.470
   59CHL1  H23A 6832   3.137   0.740   8.451
   59CHL1  H23B 6833   2.973   0.755   8.476
   59CHL1   C24 6834   3.054   0.912   8.350
   59CHL1  H24A 6835   2.971   0.978   8.378
   59CHL1  H24B 6836   3.150   0.967   8.336
   59CHL1   C25 6837   3.015   0.857   8.210
   59CHL1   H25 6838   3.021   0.940   8.136
   59CHL1   C26 6839   3.098   0.738   8.171
   59CHL1  H26A 6840   3.204   0.767   8.160
   59CHL1  H26B 6841   3.082   0.658   8.248
   59CHL1  H26C 6842   3.064   0.699   8.074
   59CHL1   C27 6843   2.871   0.820   8.191
   59CHL1  H27A 6844   2.814   0.911   8.224
   59CHL1  H27B 6845   2.831   0.791   8.095
   59CHL1  H27C 6846   2.854   0.729   8.252
   60CHL1    C3 6847   1.383   5.561   9.739
   60CHL1    H3 6848   1.376   5.452   9.756
   60CHL1    O3 6849   1.349   5.618   9.863
   60CHL1   H3' 6850   1.265   5.576   9.893
   60CHL1    C4 6851   1.525   5.600   9.691
   60CHL1   H4A 6852   1.530   5.710   9.687
   60CHL1   H4B 6853   1.595   5.563   9.770
   60CHL1    C5 6854   1.559   5.551   9.551
   60CHL1    C6 6855   1.677   5.501   9.518
   60CHL1    H6 6856   1.746   5.493   9.603
   60CHL1    C7 6857   1.711   5.408   9.403
   60CHL1   H7A 6858   1.817   5.412   9.379
   60CHL1   H7B 6859   1.700   5.297   9.421
   60CHL1    C8 6860   1.619   5.453   9.291
   60CHL1    H8 6861   1.655   5.544   9.245
   60CHL1   C14 6862   1.616   5.352   9.191
   60CHL1   H14 6863   1.557   5.284   9.252
   60CHL1   C15 6864   1.741   5.288   9.154
   60CHL1  H15A 6865   1.823   5.358   9.135
   60CHL1  H15B 6866   1.772   5.211   9.219
   60CHL1   C16 6867   1.694   5.193   9.045
   60CHL1  H16A 6868   1.735   5.215   8.971
   60CHL1  H16B 6869   1.739   5.093   9.033
   60CHL1   C17 6870   1.573   5.249   8.981
   60CHL1   H17 6871   1.507   5.223   9.045
   60CHL1   C13 6872   1.534   5.365   9.067
   60CHL1   C18 6873   1.586   5.474   8.985
   60CHL1  H18A 6874   1.579   5.569   9.036
   60CHL1  H18B 6875   1.694   5.458   8.970
   60CHL1  H18C 6876   1.528   5.467   8.892
   60CHL1   C12 6877   1.386   5.368   9.115
   60CHL1  H12A 6878   1.310   5.352   9.038
   60CHL1  H12B 6879   1.361   5.288   9.185
   60CHL1   C11 6880   1.373   5.479   9.213
   60CHL1  H11A 6881   1.397   5.568   9.155
   60CHL1  H11B 6882   1.267   5.477   9.244
   60CHL1    C9 6883   1.473   5.470   9.332
   60CHL1    H9 6884   1.448   5.385   9.379
   60CHL1   C10 6885   1.449   5.556   9.452
   60CHL1   C19 6886   1.465   5.692   9.390
   60CHL1  H19A 6887   1.455   5.772   9.465
   60CHL1  H19B 6888   1.564   5.699   9.340
   60CHL1  H19C 6889   1.388   5.701   9.313
   60CHL1    C1 6890   1.308   5.531   9.510
   60CHL1   H1A 6891   1.237   5.556   9.431
   60CHL1   H1B 6892   1.295   5.424   9.535
   60CHL1    C2 6893   1.279   5.605   9.639
   60CHL1   H2A 6894   1.180   5.573   9.678
   60CHL1   H2B 6895   1.277   5.716   9.630
   60CHL1   C20 6896   1.489   5.185   8.862
   60CHL1   H20 6897   1.392   5.231   8.869
   60CHL1   C21 6898   1.481   5.026   8.827
   60CHL1  H21A 6899   1.558   4.955   8.865
   60CHL1  H21B 6900   1.427   4.993   8.739
   60CHL1  H21C 6901   1.409   5.031   8.896
   60CHL1   C22 6902   1.540   5.248   8.752
   60CHL1  H22A 6903   1.598   5.335   8.779
   60CHL1  H22B 6904   1.601   5.160   8.762
   60CHL1   C23 6905   1.482   5.260   8.613
   60CHL1  H23A 6906   1.440   5.159   8.600
   60CHL1  H23B 6907   1.405   5.335   8.632
   60CHL1   C24 6908   1.577   5.305   8.492
   60CHL1  H24A 6909   1.627   5.396   8.519
   60CHL1  H24B 6910   1.682   5.271   8.468
   60CHL1   C25 6911   1.520   5.292   8.355
   60CHL1   H25 6912   1.440   5.365   8.361
   60CHL1   C26 6913   1.619   5.344   8.261
   60CHL1  H26A 6914   1.671   5.435   8.294
   60CHL1  H26B 6915   1.692   5.261   8.264
   60CHL1  H26C 6916   1.572   5.365   8.165
   60CHL1   C27 6917   1.466   5.153   8.309
   60CHL1  H27A 6918   1.398   5.112   8.386
   60CHL1  H27B 6919   1.406   5.150   8.216
   60CHL1  H27C 6920   1.536   5.093   8.276
   61CHL1    C3 6921   5.971   6.135   9.735
   61CHL1    H3 6922   6.080   6.150   9.714
   61CHL1    O3 6923   5.947   6.116   9.872
   61CHL1   H3' 6924   6.007   6.171   9.921
   61CHL1    C4 6925   5.895   6.258   9.680
   61CHL1   H4A 6926   5.794   6.266   9.725
   61CHL1   H4B 6927   5.956   6.342   9.719
   61CHL1    C5 6928   5.882   6.269   9.529
   61CHL1    C6 6929   5.922   6.378   9.462
   61CHL1    H6 6930   5.958   6.468   9.512
   61CHL1    C7 6931   5.921   6.394   9.315
   61CHL1   H7A 6932   5.890   6.496   9.290
   61CHL1   H7B 6933   6.026   6.382   9.279
   61CHL1    C8 6934   5.833   6.290   9.246
   61CHL1    H8 6935   5.726   6.312   9.268
   61CHL1   C14 6936   5.871   6.291   9.096
   61CHL1   H14 6937   5.975   6.254   9.086
   61CHL1   C15 6938   5.866   6.423   9.019
   61CHL1  H15A 6939   5.782   6.487   9.052
   61CHL1  H15B 6940   5.959   6.474   9.044
   61CHL1   C16 6941   5.853   6.380   8.870
   61CHL1  H16A 6942   5.752   6.407   8.832
   61CHL1  H16B 6943   5.925   6.430   8.806
   61CHL1   C17 6944   5.868   6.226   8.867
   61CHL1   H17 6945   5.973   6.196   8.878
   61CHL1   C13 6946   5.799   6.203   9.004
   61CHL1   C18 6947   5.664   6.277   9.013
   61CHL1  H18A 6948   5.596   6.234   9.061
   61CHL1  H18B 6949   5.628   6.362   8.963
   61CHL1  H18C 6950   5.572   6.236   8.976
   61CHL1   C12 6951   5.830   6.070   9.061
   61CHL1  H12A 6952   5.812   5.968   9.012
   61CHL1  H12B 6953   5.909   6.057   9.000
   61CHL1   C11 6954   5.796   6.054   9.207
   61CHL1  H11A 6955   5.701   6.054   9.244
   61CHL1  H11B 6956   5.772   5.947   9.223
   61CHL1    C9 6957   5.861   6.153   9.304
   61CHL1    H9 6958   5.968   6.136   9.288
   61CHL1   C10 6959   5.839   6.141   9.460
   61CHL1   C19 6960   5.691   6.112   9.488
   61CHL1  H19A 6961   5.626   6.188   9.440
   61CHL1  H19B 6962   5.665   6.012   9.447
   61CHL1  H19C 6963   5.671   6.108   9.597
   61CHL1    C1 6964   5.924   6.031   9.530
   61CHL1   H1A 6965   5.874   5.935   9.510
   61CHL1   H1B 6966   6.028   6.038   9.491
   61CHL1    C2 6967   5.921   6.008   9.677
   61CHL1   H2A 6968   5.977   5.915   9.704
   61CHL1   H2B 6969   5.818   5.987   9.714
   61CHL1   C20 6970   5.840   6.150   8.733
   61CHL1   H20 6971   5.741   6.179   8.713
   61CHL1   C21 6972   5.842   5.988   8.727
   61CHL1  H21A 6973   5.929   5.942   8.763
   61CHL1  H21B 6974   5.815   5.941   8.631
   61CHL1  H21C 6975   5.766   5.927   8.780
   61CHL1   C22 6976   5.901   6.216   8.616
   61CHL1  H22A 6977   5.852   6.316   8.597
   61CHL1  H22B 6978   6.005   6.228   8.645
   61CHL1   C23 6979   5.893   6.124   8.496
   61CHL1  H23A 6980   5.940   6.027   8.505
   61CHL1  H23B 6981   5.790   6.082   8.490
   61CHL1   C24 6982   5.935   6.207   8.374
   61CHL1  H24A 6983   5.866   6.297   8.355
   61CHL1  H24B 6984   6.031   6.251   8.385
   61CHL1   C25 6985   5.946   6.118   8.248
   61CHL1   H25 6986   5.995   6.022   8.259
   61CHL1   C26 6987   5.835   6.043   8.220
   61CHL1  H26A 6988   5.780   5.954   8.261
   61CHL1  H26B 6989   5.792   6.134   8.268
   61CHL1  H26C 6990   5.807   6.050   8.116
   61CHL1   C27 6991   5.970   6.198   8.120
   61CHL1  H27A 6992   5.958   6.140   8.025
   61CHL1  H27B 6993   5.904   6.288   8.112
   61CHL1  H27C 6994   6.075   6.223   8.135
   62CHL1    C3 6995   7.031   3.314   9.732
   62CHL1    H3 6996   7.120   3.380   9.734
   62CHL1    O3 6997   7.003   3.274   9.866
   62CHL1   H3' 6998   7.011   3.355   9.917
   62CHL1    C4 6999   6.909   3.389   9.674
   62CHL1   H4A 7000   6.820   3.324   9.681
   62CHL1   H4B 7001   6.890   3.474   9.742
   62CHL1    C5 7002   6.929   3.432   9.530
   62CHL1    C6 7003   6.923   3.560   9.487
   62CHL1    H6 7004   6.900   3.640   9.560
   62CHL1    C7 7005   6.946   3.608   9.345
   62CHL1   H7A 7006   6.871   3.686   9.317
   62CHL1   H7B 7007   7.046   3.657   9.331
   62CHL1    C8 7008   6.936   3.491   9.246
   62CHL1    H8 7009   6.828   3.468   9.240
   62CHL1   C14 7010   6.997   3.526   9.109
   62CHL1   H14 7011   7.107   3.526   9.129
   62CHL1   C15 7012   6.976   3.664   9.043
   62CHL1  H15A 7013   6.872   3.701   9.041
   62CHL1  H15B 7014   7.043   3.743   9.084
   62CHL1   C16 7015   7.014   3.638   8.896
   62CHL1  H16A 7016   6.930   3.668   8.831
   62CHL1  H16B 7017   7.100   3.702   8.871
   62CHL1   C17 7018   7.046   3.486   8.879
   62CHL1   H17 7019   7.156   3.473   8.894
   62CHL1   C13 7020   6.979   3.420   8.999
   62CHL1   C18 7021   6.829   3.411   8.971
   62CHL1  H18A 7022   6.784   3.377   9.066
   62CHL1  H18B 7023   6.780   3.508   8.951
   62CHL1  H18C 7024   6.800   3.340   8.891
   62CHL1   C12 7025   7.043   3.288   9.045
   62CHL1  H12A 7026   7.024   3.204   8.975
   62CHL1  H12B 7027   7.152   3.306   9.044
   62CHL1   C11 7028   6.992   3.248   9.185
   62CHL1  H11A 7029   6.885   3.220   9.168
   62CHL1  H11B 7030   7.044   3.155   9.214
   62CHL1    C9 7031   7.004   3.360   9.294
   62CHL1    H9 7032   7.112   3.388   9.302
   62CHL1   C10 7033   6.964   3.315   9.438
   62CHL1   C19 7034   6.837   3.227   9.429
   62CHL1  H19A 7035   6.860   3.135   9.373
   62CHL1  H19B 7036   6.797   3.194   9.527
   62CHL1  H19C 7037   6.759   3.274   9.372
   62CHL1    C1 7038   7.082   3.234   9.500
   62CHL1   H1A 7039   7.107   3.148   9.433
   62CHL1   H1B 7040   7.168   3.303   9.497
   62CHL1    C2 7041   7.061   3.191   9.648
   62CHL1   H2A 7042   7.144   3.131   9.692
   62CHL1   H2B 7043   6.973   3.127   9.660
   62CHL1   C20 7044   7.017   3.428   8.739
   62CHL1   H20 7045   6.909   3.438   8.711
   62CHL1   C21 7046   7.060   3.284   8.726
   62CHL1  H21A 7047   6.978   3.221   8.766
   62CHL1  H21B 7048   7.153   3.270   8.784
   62CHL1  H21C 7049   7.079   3.255   8.620
   62CHL1   C22 7050   7.087   3.501   8.629
   62CHL1  H22A 7051   7.065   3.604   8.664
   62CHL1  H22B 7052   7.196   3.477   8.623
   62CHL1   C23 7053   7.019   3.485   8.494
   62CHL1  H23A 7054   7.043   3.386   8.451
   62CHL1  H23B 7055   6.913   3.512   8.496
   62CHL1   C24 7056   7.067   3.574   8.389
   62CHL1  H24A 7057   7.087   3.676   8.428
   62CHL1  H24B 7058   7.161   3.519   8.357
   62CHL1   C25 7059   6.977   3.600   8.267
   62CHL1   H25 7060   6.888   3.652   8.295
   62CHL1   C26 7061   7.024   3.692   8.161
   62CHL1  H26A 7062   7.061   3.784   8.197
   62CHL1  H26B 7063   7.108   3.627   8.143
   62CHL1  H26C 7064   6.967   3.724   8.073
   62CHL1   C27 7065   6.958   3.468   8.200
   62CHL1  H27A 7066   6.910   3.481   8.102
   62CHL1  H27B 7067   7.057   3.420   8.186
   62CHL1  H27C 7068   6.895   3.412   8.270
   63CHL1    C3 7069   1.656   6.404   9.731
   63CHL1    H3 7070   1.636   6.295   9.713
   63CHL1    O3 7071   1.688   6.422   9.869
   63CHL1   H3' 7072   1.750   6.351   9.886
   63CHL1    C4 7073   1.776   6.445   9.648
   63CHL1   H4A 7074   1.801   6.551   9.670
   63CHL1   H4B 7075   1.865   6.386   9.679
   63CHL1    C5 7076   1.745   6.427   9.501
   63CHL1    C6 7077   1.809   6.344   9.424
   63CHL1    H6 7078   1.891   6.287   9.468
   63CHL1    C7 7079   1.778   6.333   9.278
   63CHL1   H7A 7080   1.863   6.301   9.226
   63CHL1   H7B 7081   1.721   6.243   9.257
   63CHL1    C8 7082   1.707   6.448   9.206
   63CHL1    H8 7083   1.765   6.544   9.205
   63CHL1   C14 7084   1.661   6.402   9.064
   63CHL1   H14 7085   1.612   6.304   9.080
   63CHL1   C15 7086   1.753   6.372   8.948
   63CHL1  H15A 7087   1.827   6.457   8.936
   63CHL1  H15B 7088   1.802   6.275   8.973
   63CHL1   C16 7089   1.686   6.371   8.815
   63CHL1  H16A 7090   1.747   6.437   8.749
   63CHL1  H16B 7091   1.688   6.270   8.772
   63CHL1   C17 7092   1.545   6.415   8.856
   63CHL1   H17 7093   1.489   6.324   8.883
   63CHL1   C13 7094   1.565   6.486   8.993
   63CHL1   C18 7095   1.644   6.605   8.967
   63CHL1  H18A 7096   1.662   6.667   9.056
   63CHL1  H18B 7097   1.736   6.612   8.913
   63CHL1  H18C 7098   1.574   6.649   8.896
   63CHL1   C12 7099   1.445   6.510   9.084
   63CHL1  H12A 7100   1.365   6.574   9.043
   63CHL1  H12B 7101   1.403   6.409   9.095
   63CHL1   C11 7102   1.490   6.554   9.223
   63CHL1  H11A 7103   1.538   6.649   9.216
   63CHL1  H11B 7104   1.409   6.560   9.289
   63CHL1    C9 7105   1.589   6.465   9.296
   63CHL1    H9 7106   1.539   6.366   9.302
   63CHL1   C10 7107   1.631   6.503   9.443
   63CHL1   C19 7108   1.681   6.641   9.445
   63CHL1  H19A 7109   1.771   6.664   9.387
   63CHL1  H19B 7110   1.599   6.693   9.394
   63CHL1  H19C 7111   1.694   6.681   9.549
   63CHL1    C1 7112   1.516   6.493   9.542
   63CHL1   H1A 7113   1.439   6.568   9.521
   63CHL1   H1B 7114   1.487   6.391   9.522
   63CHL1    C2 7115   1.537   6.492   9.693
   63CHL1   H2A 7116   1.440   6.460   9.736
   63CHL1   H2B 7117   1.561   6.595   9.724
   63CHL1   C20 7118   1.467   6.478   8.742
   63CHL1   H20 7119   1.520   6.562   8.712
   63CHL1   C21 7120   1.333   6.528   8.787
   63CHL1  H21A 7121   1.341   6.626   8.841
   63CHL1  H21B 7122   1.285   6.453   8.851
   63CHL1  H21C 7123   1.268   6.537   8.699
   63CHL1   C22 7124   1.467   6.414   8.603
   63CHL1  H22A 7125   1.569   6.375   8.581
   63CHL1  H22B 7126   1.397   6.330   8.605
   63CHL1   C23 7127   1.436   6.510   8.487
   63CHL1  H23A 7128   1.335   6.555   8.497
   63CHL1  H23B 7129   1.511   6.593   8.482
   63CHL1   C24 7130   1.448   6.437   8.355
   63CHL1  H24A 7131   1.545   6.387   8.336
   63CHL1  H24B 7132   1.383   6.348   8.368
   63CHL1   C25 7133   1.419   6.528   8.235
   63CHL1   H25 7134   1.489   6.612   8.230
   63CHL1   C26 7135   1.475   6.443   8.108
   63CHL1  H26A 7136   1.451   6.481   8.008
   63CHL1  H26B 7137   1.569   6.398   8.084
   63CHL1  H26C 7138   1.428   6.345   8.112
   63CHL1   C27 7139   1.271   6.602   8.255
   63CHL1  H27A 7140   1.169   6.554   8.239
   63CHL1  H27B 7141   1.230   6.630   8.350
   63CHL1  H27C 7142   1.228   6.632   8.168
   64CHL1    C3 7143   0.303   4.810   9.740
   64CHL1    H3 7144   0.316   4.699   9.739
   64CHL1    O3 7145   0.264   4.857   9.866
   64CHL1   H3' 7146   0.322   4.810   9.928
   64CHL1    C4 7147   0.435   4.878   9.704
   64CHL1   H4A 7148   0.420   4.987   9.713
   64CHL1   H4B 7149   0.518   4.855   9.774
   64CHL1    C5 7150   0.470   4.838   9.564
   64CHL1    C6 7151   0.590   4.785   9.531
   64CHL1    H6 7152   0.675   4.791   9.602
   64CHL1    C7 7153   0.634   4.775   9.389
   64CHL1   H7A 7154   0.737   4.816   9.372
   64CHL1   H7B 7155   0.633   4.670   9.362
   64CHL1    C8 7156   0.532   4.831   9.293
   64CHL1    H8 7157   0.514   4.933   9.322
   64CHL1   C14 7158   0.579   4.800   9.149
   64CHL1   H14 7159   0.565   4.695   9.131
   64CHL1   C15 7160   0.722   4.847   9.101
   64CHL1  H15A 7161   0.754   4.949   9.134
   64CHL1  H15B 7162   0.798   4.780   9.138
   64CHL1   C16 7163   0.708   4.850   8.947
   64CHL1  H16A 7164   0.711   4.948   8.906
   64CHL1  H16B 7165   0.772   4.790   8.884
   64CHL1   C17 7166   0.563   4.827   8.911
   64CHL1   H17 7167   0.550   4.719   8.914
   64CHL1   C13 7168   0.488   4.842   9.040
   64CHL1   C18 7169   0.509   4.959   9.066
   64CHL1  H18A 7170   0.414   5.006   9.052
   64CHL1  H18B 7171   0.496   4.985   9.158
   64CHL1  H18C 7172   0.600   5.025   9.067
   64CHL1   C12 7173   0.338   4.821   9.066
   64CHL1  H12A 7174   0.272   4.881   8.999
   64CHL1  H12B 7175   0.347   4.718   9.039
   64CHL1   C11 7176   0.289   4.852   9.210
   64CHL1  H11A 7177   0.264   4.959   9.214
   64CHL1  H11B 7178   0.190   4.805   9.223
   64CHL1    C9 7179   0.386   4.807   9.324
   64CHL1    H9 7180   0.383   4.698   9.331
   64CHL1   C10 7181   0.352   4.865   9.464
   64CHL1   C19 7182   0.310   5.014   9.458
   64CHL1  H19A 7183   0.228   5.048   9.396
   64CHL1  H19B 7184   0.321   5.076   9.551
   64CHL1  H19C 7185   0.375   5.050   9.381
   64CHL1    C1 7186   0.227   4.796   9.509
   64CHL1   H1A 7187   0.144   4.822   9.440
   64CHL1   H1B 7188   0.241   4.686   9.512
   64CHL1    C2 7189   0.188   4.841   9.647
   64CHL1   H2A 7190   0.099   4.779   9.673
   64CHL1   H2B 7191   0.161   4.949   9.651
   64CHL1   C20 7192   0.524   4.864   8.766
   64CHL1   H20 7193   0.589   4.810   8.696
   64CHL1   C21 7194   0.565   5.000   8.702
   64CHL1  H21A 7195   0.622   5.072   8.761
   64CHL1  H21B 7196   0.541   5.075   8.770
   64CHL1  H21C 7197   0.501   5.040   8.619
   64CHL1   C22 7198   0.384   4.806   8.740
   64CHL1  H22A 7199   0.388   4.700   8.772
   64CHL1  H22B 7200   0.306   4.843   8.810
   64CHL1   C23 7201   0.343   4.815   8.594
   64CHL1  H23A 7202   0.314   4.916   8.560
   64CHL1  H23B 7203   0.432   4.791   8.534
   64CHL1   C24 7204   0.226   4.723   8.563
   64CHL1  H24A 7205   0.244   4.623   8.607
   64CHL1  H24B 7206   0.138   4.766   8.616
   64CHL1   C25 7207   0.195   4.710   8.413
   64CHL1   H25 7208   0.175   4.815   8.378
   64CHL1   C26 7209   0.307   4.652   8.325
   64CHL1  H26A 7210   0.406   4.690   8.355
   64CHL1  H26B 7211   0.310   4.541   8.330
   64CHL1  H26C 7212   0.287   4.681   8.219
   64CHL1   C27 7213   0.069   4.625   8.392
   64CHL1  H27A 7214   0.082   4.523   8.434
   64CHL1  H27B 7215  -0.018   4.674   8.440
   64CHL1  H27C 7216   0.051   4.613   8.283
   65CHL1    C3 7217   2.719   7.311   9.731
   65CHL1    H3 7218   2.726   7.422   9.724
   65CHL1    O3 7219   2.712   7.263   9.865
   65CHL1   H3' 7220   2.620   7.280   9.894
   65CHL1    C4 7221   2.612   7.259   9.641
   65CHL1   H4A 7222   2.606   7.148   9.649
   65CHL1   H4B 7223   2.523   7.305   9.685
   65CHL1    C5 7224   2.636   7.303   9.497
   65CHL1    C6 7225   2.550   7.380   9.431
   65CHL1    H6 7226   2.457   7.407   9.480
   65CHL1    C7 7227   2.567   7.423   9.288
   65CHL1   H7A 7228   2.471   7.425   9.232
   65CHL1   H7B 7229   2.606   7.527   9.283
   65CHL1    C8 7230   2.666   7.332   9.215
   65CHL1    H8 7231   2.623   7.229   9.202
   65CHL1   C14 7232   2.695   7.398   9.081
   65CHL1   H14 7233   2.743   7.497   9.103
   65CHL1   C15 7234   2.590   7.421   8.974
   65CHL1  H15A 7235   2.524   7.332   8.965
   65CHL1  H15B 7236   2.539   7.511   9.009
   65CHL1   C16 7237   2.667   7.446   8.842
   65CHL1  H16A 7238   2.634   7.376   8.760
   65CHL1  H16B 7239   2.663   7.552   8.812
   65CHL1   C17 7240   2.816   7.418   8.874
   65CHL1   H17 7241   2.872   7.508   8.903
   65CHL1   C13 7242   2.798   7.330   9.010
   65CHL1   C18 7243   2.743   7.183   8.987
   65CHL1  H18A 7244   2.655   7.177   8.922
   65CHL1  H18B 7245   2.800   7.112   8.933
   65CHL1  H18C 7246   2.753   7.118   9.076
   65CHL1   C12 7247   2.912   7.350   9.114
   65CHL1  H12A 7248   3.001   7.292   9.103
   65CHL1  H12B 7249   2.949   7.454   9.112
   65CHL1   C11 7250   2.915   7.272   9.238
   65CHL1  H11A 7251   2.921   7.162   9.214
   65CHL1  H11B 7252   3.012   7.300   9.290
   65CHL1    C9 7253   2.792   7.325   9.302
   65CHL1    H9 7254   2.816   7.434   9.320
   65CHL1   C10 7255   2.767   7.260   9.434
   65CHL1   C19 7256   2.785   7.108   9.416
   65CHL1  H19A 7257   2.761   7.050   9.507
   65CHL1  H19B 7258   2.720   7.073   9.335
   65CHL1  H19C 7259   2.891   7.083   9.393
   65CHL1    C1 7260   2.870   7.307   9.527
   65CHL1   H1A 7261   2.969   7.261   9.498
   65CHL1   H1B 7262   2.885   7.418   9.529
   65CHL1    C2 7263   2.834   7.250   9.664
   65CHL1   H2A 7264   2.907   7.258   9.731
   65CHL1   H2B 7265   2.845   7.145   9.675
   65CHL1   C20 7266   2.898   7.379   8.738
   65CHL1   H20 7267   2.835   7.290   8.739
   65CHL1   C21 7268   3.064   7.358   8.717
   65CHL1  H21A 7269   3.116   7.253   8.742
   65CHL1  H21B 7270   3.064   7.412   8.806
   65CHL1  H21C 7271   3.140   7.286   8.673
   65CHL1   C22 7272   2.890   7.482   8.630
   65CHL1  H22A 7273   2.793   7.531   8.615
   65CHL1  H22B 7274   2.988   7.533   8.641
   65CHL1   C23 7275   2.915   7.443   8.491
   65CHL1  H23A 7276   3.013   7.386   8.468
   65CHL1  H23B 7277   2.809   7.397   8.489
   65CHL1   C24 7278   2.911   7.521   8.363
   65CHL1  H24A 7279   2.803   7.524   8.333
   65CHL1  H24B 7280   2.968   7.605   8.392
   65CHL1   C25 7281   3.003   7.479   8.249
   65CHL1   H25 7282   3.104   7.436   8.271
   65CHL1   C26 7283   2.934   7.382   8.197
   65CHL1  H26A 7284   2.998   7.316   8.260
   65CHL1  H26B 7285   2.825   7.374   8.208
   65CHL1  H26C 7286   2.970   7.346   8.101
   65CHL1   C27 7287   3.013   7.548   8.122
   65CHL1  H27A 7288   2.910   7.562   8.085
   65CHL1  H27B 7289   3.033   7.650   8.127
   65CHL1  H27C 7290   3.077   7.487   8.049
   66CHL1    C3 7291   7.093   5.545   9.733
   66CHL1    H3 7292   6.997   5.498   9.711
   66CHL1    O3 7293   7.109   5.533   9.874
   66CHL1   H3' 7294   7.097   5.441   9.897
   66CHL1    C4 7295   7.213   5.481   9.660
   66CHL1   H4A 7296   7.305   5.535   9.691
   66CHL1   H4B 7297   7.223   5.377   9.696
   66CHL1    C5 7298   7.207   5.484   9.508
   66CHL1    C6 7299   7.232   5.375   9.432
   66CHL1    H6 7300   7.239   5.272   9.471
   66CHL1    C7 7301   7.232   5.377   9.284
   66CHL1   H7A 7302   7.285   5.305   9.222
   66CHL1   H7B 7303   7.155   5.304   9.298
   66CHL1    C8 7304   7.209   5.519   9.214
   66CHL1    H8 7305   7.314   5.552   9.209
   66CHL1   C14 7306   7.161   5.527   9.066
   66CHL1   H14 7307   7.055   5.535   9.066
   66CHL1   C15 7308   7.208   5.427   8.961
   66CHL1  H15A 7309   7.315   5.421   8.961
   66CHL1  H15B 7310   7.202   5.322   8.990
   66CHL1   C16 7311   7.159   5.485   8.823
   66CHL1  H16A 7312   7.235   5.461   8.750
   66CHL1  H16B 7313   7.071   5.458   8.760
   66CHL1   C17 7314   7.090   5.621   8.853
   66CHL1   H17 7315   6.977   5.617   8.868
   66CHL1   C13 7316   7.153   5.656   8.990
   66CHL1   C18 7317   7.296   5.699   8.975
   66CHL1  H18A 7318   7.349   5.626   8.912
   66CHL1  H18B 7319   7.298   5.801   8.934
   66CHL1  H18C 7320   7.346   5.700   9.073
   66CHL1   C12 7321   7.073   5.748   9.077
   66CHL1  H12A 7322   7.072   5.839   9.014
   66CHL1  H12B 7323   6.965   5.718   9.084
   66CHL1   C11 7324   7.138   5.757   9.220
   66CHL1  H11A 7325   7.242   5.791   9.215
   66CHL1  H11B 7326   7.093   5.828   9.291
   66CHL1    C9 7327   7.134   5.625   9.299
   66CHL1    H9 7328   7.023   5.618   9.304
   66CHL1   C10 7329   7.164   5.622   9.452
   66CHL1   C19 7330   7.287   5.704   9.470
   66CHL1  H19A 7331   7.258   5.799   9.424
   66CHL1  H19B 7332   7.309   5.723   9.577
   66CHL1  H19C 7333   7.375   5.666   9.417
   66CHL1    C1 7334   7.049   5.693   9.535
   66CHL1   H1A 7335   7.042   5.802   9.512
   66CHL1   H1B 7336   6.951   5.646   9.513
   66CHL1    C2 7337   7.065   5.688   9.688
   66CHL1   H2A 7338   6.966   5.717   9.732
   66CHL1   H2B 7339   7.144   5.754   9.726
   66CHL1   C20 7340   7.109   5.702   8.729
   66CHL1   H20 7341   7.218   5.707   8.709
   66CHL1   C21 7342   7.060   5.843   8.748
   66CHL1  H21A 7343   7.050   5.885   8.646
   66CHL1  H21B 7344   7.138   5.896   8.806
   66CHL1  H21C 7345   6.962   5.843   8.802
   66CHL1   C22 7346   7.048   5.643   8.599
   66CHL1  H22A 7347   7.075   5.713   8.518
   66CHL1  H22B 7348   7.097   5.547   8.573
   66CHL1   C23 7349   6.896   5.633   8.590
   66CHL1  H23A 7350   6.851   5.581   8.677
   66CHL1  H23B 7351   6.851   5.734   8.586
   66CHL1   C24 7352   6.861   5.562   8.459
   66CHL1  H24A 7353   6.908   5.600   8.370
   66CHL1  H24B 7354   6.906   5.460   8.470
   66CHL1   C25 7355   6.709   5.565   8.431
   66CHL1   H25 7356   6.642   5.541   8.522
   66CHL1   C26 7357   6.669   5.689   8.396
   66CHL1  H26A 7358   6.672   5.752   8.490
   66CHL1  H26B 7359   6.729   5.730   8.317
   66CHL1  H26C 7360   6.568   5.674   8.349
   66CHL1   C27 7361   6.668   5.478   8.319
   66CHL1  H27A 7362   6.724   5.384   8.335
   66CHL1  H27B 7363   6.556   5.463   8.318
   66CHL1  H27C 7364   6.717   5.459   8.231
   67CHL1    C3 7365   6.210   6.899   9.735
   67CHL1    H3 7366   6.103   6.928   9.745
   67CHL1    O3 7367   6.268   6.874   9.862
   67CHL1   H3' 7368   6.225   6.932   9.925
   67CHL1    C4 7369   6.219   6.772   9.649
   67CHL1   H4A 7370   6.321   6.730   9.663
   67CHL1   H4B 7371   6.147   6.702   9.694
   67CHL1    C5 7372   6.185   6.792   9.503
   67CHL1    C6 7373   6.086   6.724   9.442
   67CHL1    H6 7374   6.031   6.651   9.501
   67CHL1    C7 7375   6.046   6.741   9.297
   67CHL1   H7A 7376   6.025   6.645   9.246
   67CHL1   H7B 7377   5.955   6.804   9.290
   67CHL1    C8 7378   6.163   6.806   9.217
   67CHL1    H8 7379   6.250   6.743   9.209
   67CHL1   C14 7380   6.130   6.822   9.069
   67CHL1   H14 7381   6.044   6.868   9.088
   67CHL1   C15 7382   6.038   6.731   8.985
   67CHL1  H15A 7383   6.092   6.636   8.987
   67CHL1  H15B 7384   5.934   6.721   9.028
   67CHL1   C16 7385   6.051   6.790   8.844
   67CHL1  H16A 7386   6.074   6.725   8.762
   67CHL1  H16B 7387   5.967   6.814   8.788
   67CHL1   C17 7388   6.148   6.910   8.837
   67CHL1   H17 7389   6.081   6.985   8.821
   67CHL1   C13 7390   6.218   6.910   8.980
   67CHL1   C18 7391   6.328   6.831   8.938
   67CHL1  H18A 7392   6.387   6.903   8.881
   67CHL1  H18B 7393   6.379   6.795   9.027
   67CHL1  H18C 7394   6.297   6.753   8.867
   67CHL1   C12 7395   6.261   7.039   9.063
   67CHL1  H12A 7396   6.305   7.116   9.000
   67CHL1  H12B 7397   6.182   7.097   9.107
   67CHL1   C11 7398   6.302   7.025   9.208
   67CHL1  H11A 7399   6.400   6.984   9.190
   67CHL1  H11B 7400   6.309   7.126   9.256
   67CHL1    C9 7401   6.213   6.928   9.293
   67CHL1    H9 7402   6.122   6.964   9.339
   67CHL1   C10 7403   6.260   6.905   9.435
   67CHL1   C19 7404   6.401   6.866   9.413
   67CHL1  H19A 7405   6.419   6.794   9.331
   67CHL1  H19B 7406   6.450   6.964   9.390
   67CHL1  H19C 7407   6.446   6.823   9.504
   67CHL1    C1 7408   6.247   7.033   9.526
   67CHL1   H1A 7409   6.314   7.116   9.496
   67CHL1   H1B 7410   6.143   7.069   9.530
   67CHL1    C2 7411   6.284   7.013   9.672
   67CHL1   H2A 7412   6.267   7.106   9.730
   67CHL1   H2B 7413   6.391   6.987   9.673
   67CHL1   C20 7414   6.187   6.966   8.694
   67CHL1   H20 7415   6.250   6.883   8.672
   67CHL1   C21 7416   6.291   7.084   8.669
   67CHL1  H21A 7417   6.272   7.147   8.580
   67CHL1  H21B 7418   6.353   7.107   8.756
   67CHL1  H21C 7419   6.261   7.186   8.687
   67CHL1   C22 7420   6.065   6.969   8.593
   67CHL1  H22A 7421   6.021   6.874   8.615
   67CHL1  H22B 7422   5.966   7.025   8.592
   67CHL1   C23 7423   6.119   6.998   8.459
   67CHL1  H23A 7424   6.142   7.105   8.435
   67CHL1  H23B 7425   6.205   6.936   8.448
   67CHL1   C24 7426   6.033   6.925   8.367
   67CHL1  H24A 7427   5.964   6.854   8.409
   67CHL1  H24B 7428   5.988   7.013   8.348
   67CHL1   C25 7429   6.058   6.918   8.221
   67CHL1   H25 7430   6.119   6.831   8.238
   67CHL1   C26 7431   5.945   6.873   8.128
   67CHL1  H26A 7432   5.887   6.788   8.168
   67CHL1  H26B 7433   5.873   6.951   8.112
   67CHL1  H26C 7434   5.983   6.865   8.026
   67CHL1   C27 7435   6.123   7.044   8.166
   67CHL1  H27A 7436   6.059   7.130   8.186
   67CHL1  H27B 7437   6.222   7.057   8.212
   67CHL1  H27C 7438   6.135   7.039   8.056
   68CHL1    C3 7439   0.750   0.422   9.742
   68CHL1    H3 7440   0.848   0.445   9.695
   68CHL1    O3 7441   0.736   0.487   9.865
   68CHL1   H3' 7442   0.829   0.495   9.896
   68CHL1    C4 7443   0.651   0.481   9.658
   68CHL1   H4A 7444   0.555   0.452   9.709
   68CHL1   H4B 7445   0.653   0.592   9.652
   68CHL1    C5 7446   0.673   0.425   9.521
   68CHL1    C6 7447   0.721   0.503   9.423
   68CHL1    H6 7448   0.696   0.611   9.432
   68CHL1    C7 7449   0.702   0.457   9.283
   68CHL1   H7A 7450   0.671   0.556   9.248
   68CHL1   H7B 7451   0.775   0.469   9.207
   68CHL1    C8 7452   0.615   0.328   9.248
   68CHL1    H8 7453   0.510   0.332   9.254
   68CHL1   C14 7454   0.625   0.281   9.104
   68CHL1   H14 7455   0.727   0.283   9.090
   68CHL1   C15 7456   0.571   0.350   8.981
   68CHL1  H15A 7457   0.464   0.346   8.986
   68CHL1  H15B 7458   0.600   0.453   8.962
   68CHL1   C16 7459   0.555   0.269   8.863
   68CHL1  H16A 7460   0.452   0.284   8.817
   68CHL1  H16B 7461   0.629   0.311   8.796
   68CHL1   C17 7462   0.577   0.132   8.922
   68CHL1   H17 7463   0.681   0.109   8.924
   68CHL1   C13 7464   0.587   0.150   9.081
   68CHL1   C18 7465   0.477   0.160   9.134
   68CHL1  H18A 7466   0.443   0.177   9.239
   68CHL1  H18B 7467   0.408   0.229   9.095
   68CHL1  H18C 7468   0.440   0.065   9.128
   68CHL1   C12 7469   0.640   0.063   9.187
   68CHL1  H12A 7470   0.586  -0.030   9.214
   68CHL1  H12B 7471   0.733   0.048   9.139
   68CHL1   C11 7472   0.616   0.094   9.332
   68CHL1  H11A 7473   0.519   0.056   9.373
   68CHL1  H11B 7474   0.683   0.029   9.374
   68CHL1    C9 7475   0.649   0.234   9.358
   68CHL1    H9 7476   0.748   0.248   9.324
   68CHL1   C10 7477   0.630   0.279   9.502
   68CHL1   C19 7478   0.490   0.226   9.534
   68CHL1  H19A 7479   0.478   0.126   9.553
   68CHL1  H19B 7480   0.452   0.253   9.634
   68CHL1  H19C 7481   0.420   0.247   9.450
   68CHL1    C1 7482   0.723   0.219   9.604
   68CHL1   H1A 7483   0.725   0.110   9.598
   68CHL1   H1B 7484   0.823   0.255   9.584
   68CHL1    C2 7485   0.722   0.272   9.746
   68CHL1   H2A 7486   0.808   0.227   9.796
   68CHL1   H2B 7487   0.628   0.237   9.791
   68CHL1   C20 7488   0.487   0.052   8.819
   68CHL1   H20 7489   0.386   0.070   8.830
   68CHL1   C21 7490   0.481  -0.081   8.793
   68CHL1  H21A 7491   0.439  -0.135   8.857
   68CHL1  H21B 7492   0.545  -0.132   8.731
   68CHL1  H21C 7493   0.393  -0.147   8.793
   68CHL1   C22 7494   0.451   0.070   8.676
   68CHL1  H22A 7495   0.375  -0.011   8.648
   68CHL1  H22B 7496   0.409   0.167   8.669
   68CHL1   C23 7497   0.562   0.063   8.590
   68CHL1  H23A 7498   0.622   0.149   8.611
   68CHL1  H23B 7499   0.610  -0.020   8.620
   68CHL1   C24 7500   0.544   0.037   8.450
   68CHL1  H24A 7501   0.481  -0.051   8.427
   68CHL1  H24B 7502   0.505   0.133   8.417
   68CHL1   C25 7503   0.672   0.013   8.383
   68CHL1   H25 7504   0.751   0.082   8.409
   68CHL1   C26 7505   0.725  -0.126   8.433
   68CHL1  H26A 7506   0.812  -0.151   8.493
   68CHL1  H26B 7507   0.665  -0.216   8.410
   68CHL1  H26C 7508   0.829  -0.130   8.398
   68CHL1   C27 7509   0.625   0.044   8.235
   68CHL1  H27A 7510   0.607   0.142   8.198
   68CHL1  H27B 7511   0.706   0.051   8.160
   68CHL1  H27C 7512   0.559  -0.039   8.201
   69CHL1    C3 7513   3.987   4.752   6.263
   69CHL1    H3 7514   3.930   4.843   6.291
   69CHL1    O3 7515   4.040   4.766   6.133
   69CHL1   H3' 7516   3.976   4.818   6.084
   69CHL1    C4 7517   4.102   4.730   6.357
   69CHL1   H4A 7518   4.162   4.646   6.314
   69CHL1   H4B 7519   4.173   4.816   6.353
   69CHL1    C5 7520   4.047   4.704   6.497
   69CHL1    C6 7521   4.083   4.781   6.596
   69CHL1    H6 7522   4.156   4.854   6.563
   69CHL1    C7 7523   4.058   4.760   6.743
   69CHL1   H7A 7524   4.152   4.757   6.803
   69CHL1   H7B 7525   3.999   4.844   6.785
   69CHL1    C8 7526   3.990   4.627   6.775
   69CHL1    H8 7527   4.073   4.553   6.780
   69CHL1   C14 7528   3.917   4.636   6.909
   69CHL1   H14 7529   3.835   4.711   6.896
   69CHL1   C15 7530   3.995   4.690   7.030
   69CHL1  H15A 7531   4.096   4.643   7.035
   69CHL1  H15B 7532   4.003   4.800   7.021
   69CHL1   C16 7533   3.912   4.647   7.151
   69CHL1  H16A 7534   3.972   4.592   7.226
   69CHL1  H16B 7535   3.861   4.730   7.202
   69CHL1   C17 7536   3.800   4.557   7.094
   69CHL1   H17 7537   3.713   4.621   7.072
   69CHL1   C13 7538   3.842   4.513   6.955
   69CHL1   C18 7539   3.938   4.411   6.988
   69CHL1  H18A 7540   4.017   4.434   7.059
   69CHL1  H18B 7541   3.903   4.305   6.991
   69CHL1  H18C 7542   4.002   4.430   6.908
   69CHL1   C12 7543   3.747   4.463   6.841
   69CHL1  H12A 7544   3.697   4.367   6.865
   69CHL1  H12B 7545   3.670   4.541   6.833
   69CHL1   C11 7546   3.817   4.456   6.703
   69CHL1  H11A 7547   3.888   4.372   6.704
   69CHL1  H11B 7548   3.749   4.430   6.620
   69CHL1    C9 7549   3.891   4.587   6.665
   69CHL1    H9 7550   3.812   4.665   6.667
   69CHL1   C10 7551   3.951   4.591   6.520
   69CHL1   C19 7552   4.021   4.462   6.490
   69CHL1  H19A 7553   3.942   4.385   6.482
   69CHL1  H19B 7554   4.078   4.458   6.396
   69CHL1  H19C 7555   4.089   4.435   6.574
   69CHL1    C1 7556   3.839   4.611   6.418
   69CHL1   H1A 7557   3.769   4.525   6.423
   69CHL1   H1B 7558   3.785   4.702   6.450
   69CHL1    C2 7559   3.887   4.635   6.273
   69CHL1   H2A 7560   3.798   4.660   6.213
   69CHL1   H2B 7561   3.935   4.543   6.235
   69CHL1   C20 7562   3.760   4.455   7.196
   69CHL1   H20 7563   3.835   4.371   7.207
   69CHL1   C21 7564   3.636   4.407   7.129
   69CHL1  H21A 7565   3.574   4.367   7.208
   69CHL1  H21B 7566   3.682   4.333   7.060
   69CHL1  H21C 7567   3.554   4.457   7.082
   69CHL1   C22 7568   3.726   4.504   7.336
   69CHL1  H22A 7569   3.711   4.424   7.411
   69CHL1  H22B 7570   3.811   4.565   7.369
   69CHL1   C23 7571   3.597   4.583   7.334
   69CHL1  H23A 7572   3.602   4.661   7.256
   69CHL1  H23B 7573   3.510   4.518   7.310
   69CHL1   C24 7574   3.569   4.650   7.465
   69CHL1  H24A 7575   3.465   4.685   7.465
   69CHL1  H24B 7576   3.589   4.582   7.545
   69CHL1   C25 7577   3.663   4.760   7.507
   69CHL1   H25 7578   3.767   4.717   7.503
   69CHL1   C26 7579   3.642   4.876   7.413
   69CHL1  H26A 7580   3.677   4.857   7.310
   69CHL1  H26B 7581   3.532   4.894   7.408
   69CHL1  H26C 7582   3.696   4.965   7.451
   69CHL1   C27 7583   3.622   4.805   7.647
   69CHL1  H27A 7584   3.615   4.723   7.720
   69CHL1  H27B 7585   3.686   4.887   7.683
   69CHL1  H27C 7586   3.519   4.844   7.642
   70CHL1    C3 7587   4.366   2.634   6.265
   70CHL1    H3 7588   4.474   2.662   6.260
   70CHL1    O3 7589   4.310   2.644   6.135
   70CHL1   H3' 7590   4.363   2.586   6.079
   70CHL1    C4 7591   4.351   2.492   6.320
   70CHL1   H4A 7592   4.244   2.460   6.321
   70CHL1   H4B 7593   4.409   2.425   6.252
   70CHL1    C5 7594   4.408   2.490   6.460
   70CHL1    C6 7595   4.516   2.416   6.487
   70CHL1    H6 7596   4.555   2.350   6.408
   70CHL1    C7 7597   4.582   2.414   6.622
   70CHL1   H7A 7598   4.620   2.314   6.650
   70CHL1   H7B 7599   4.672   2.477   6.620
   70CHL1    C8 7600   4.482   2.462   6.733
   70CHL1    H8 7601   4.404   2.388   6.753
   70CHL1   C14 7602   4.554   2.480   6.863
   70CHL1   H14 7603   4.632   2.537   6.815
   70CHL1   C15 7604   4.640   2.371   6.921
   70CHL1  H15A 7605   4.584   2.278   6.924
   70CHL1  H15B 7606   4.733   2.371   6.859
   70CHL1   C16 7607   4.673   2.413   7.062
   70CHL1  H16A 7608   4.683   2.341   7.141
   70CHL1  H16B 7609   4.775   2.439   7.056
   70CHL1   C17 7610   4.576   2.527   7.099
   70CHL1   H17 7611   4.616   2.621   7.109
   70CHL1   C13 7612   4.481   2.549   6.980
   70CHL1   C18 7613   4.372   2.460   7.032
   70CHL1  H18A 7614   4.417   2.362   7.060
   70CHL1  H18B 7615   4.324   2.504   7.122
   70CHL1  H18C 7616   4.297   2.442   6.955
   70CHL1   C12 7617   4.427   2.687   6.935
   70CHL1  H12A 7618   4.362   2.730   7.013
   70CHL1  H12B 7619   4.496   2.768   6.905
   70CHL1   C11 7620   4.350   2.673   6.805
   70CHL1  H11A 7621   4.248   2.641   6.830
   70CHL1  H11B 7622   4.346   2.774   6.764
   70CHL1    C9 7623   4.425   2.597   6.691
   70CHL1    H9 7624   4.514   2.659   6.666
   70CHL1   C10 7625   4.348   2.592   6.559
   70CHL1   C19 7626   4.201   2.564   6.598
   70CHL1  H19A 7627   4.154   2.653   6.646
   70CHL1  H19B 7628   4.143   2.537   6.509
   70CHL1  H19C 7629   4.202   2.481   6.672
   70CHL1    C1 7630   4.359   2.731   6.494
   70CHL1   H1A 7631   4.308   2.805   6.559
   70CHL1   H1B 7632   4.465   2.764   6.484
   70CHL1    C2 7633   4.296   2.732   6.356
   70CHL1   H2A 7634   4.301   2.834   6.314
   70CHL1   H2B 7635   4.189   2.700   6.368
   70CHL1   C20 7636   4.557   2.551   7.245
   70CHL1   H20 7637   4.490   2.473   7.275
   70CHL1   C21 7638   4.492   2.693   7.262
   70CHL1  H21A 7639   4.397   2.694   7.207
   70CHL1  H21B 7640   4.547   2.776   7.214
   70CHL1  H21C 7641   4.481   2.720   7.367
   70CHL1   C22 7642   4.683   2.529   7.333
   70CHL1  H22A 7643   4.768   2.466   7.302
   70CHL1  H22B 7644   4.730   2.619   7.353
   70CHL1   C23 7645   4.653   2.536   7.478
   70CHL1  H23A 7646   4.610   2.637   7.503
   70CHL1  H23B 7647   4.580   2.459   7.482
   70CHL1   C24 7648   4.772   2.505   7.565
   70CHL1  H24A 7649   4.838   2.437   7.516
   70CHL1  H24B 7650   4.848   2.576   7.572
   70CHL1   C25 7651   4.732   2.469   7.706
   70CHL1   H25 7652   4.701   2.366   7.705
   70CHL1   C26 7653   4.852   2.472   7.785
   70CHL1  H26A 7654   4.848   2.459   7.895
   70CHL1  H26B 7655   4.915   2.395   7.740
   70CHL1  H26C 7656   4.908   2.563   7.761
   70CHL1   C27 7657   4.633   2.558   7.777
   70CHL1  H27A 7658   4.531   2.581   7.758
   70CHL1  H27B 7659   4.672   2.582   7.880
   70CHL1  H27C 7660   4.639   2.643   7.709
   71CHL1    C3 7661   2.335   3.497   6.265
   71CHL1    H3 7662   2.242   3.558   6.259
   71CHL1    O3 7663   2.376   3.459   6.136
   71CHL1   H3' 7664   2.409   3.539   6.091
   71CHL1    C4 7665   2.447   3.578   6.328
   71CHL1   H4A 7666   2.546   3.528   6.316
   71CHL1   H4B 7667   2.451   3.674   6.272
   71CHL1    C5 7668   2.422   3.599   6.473
   71CHL1    C6 7669   2.437   3.719   6.517
   71CHL1    H6 7670   2.455   3.802   6.446
   71CHL1    C7 7671   2.417   3.758   6.656
   71CHL1   H7A 7672   2.477   3.847   6.666
   71CHL1   H7B 7673   2.352   3.836   6.683
   71CHL1    C8 7674   2.398   3.637   6.754
   71CHL1    H8 7675   2.503   3.608   6.769
   71CHL1   C14 7676   2.330   3.653   6.893
   71CHL1   H14 7677   2.227   3.657   6.868
   71CHL1   C15 7678   2.307   3.780   6.964
   71CHL1  H15A 7679   2.398   3.754   6.937
   71CHL1  H15B 7680   2.293   3.874   6.916
   71CHL1   C16 7681   2.301   3.774   7.113
   71CHL1  H16A 7682   2.368   3.814   7.187
   71CHL1  H16B 7683   2.245   3.854   7.147
   71CHL1   C17 7684   2.289   3.627   7.127
   71CHL1   H17 7685   2.181   3.636   7.108
   71CHL1   C13 7686   2.353   3.553   7.002
   71CHL1   C18 7687   2.505   3.507   7.018
   71CHL1  H18A 7688   2.564   3.514   6.926
   71CHL1  H18B 7689   2.572   3.558   7.088
   71CHL1  H18C 7690   2.513   3.409   7.062
   71CHL1   C12 7691   2.260   3.448   6.943
   71CHL1  H12A 7692   2.265   3.358   7.003
   71CHL1  H12B 7693   2.155   3.487   6.946
   71CHL1   C11 7694   2.305   3.409   6.800
   71CHL1  H11A 7695   2.404   3.361   6.816
   71CHL1  H11B 7696   2.234   3.334   6.762
   71CHL1    C9 7697   2.321   3.523   6.696
   71CHL1    H9 7698   2.219   3.558   6.675
   71CHL1   C10 7699   2.375   3.483   6.560
   71CHL1   C19 7700   2.495   3.406   6.584
   71CHL1  H19A 7701   2.535   3.450   6.676
   71CHL1  H19B 7702   2.489   3.299   6.612
   71CHL1  H19C 7703   2.566   3.405   6.502
   71CHL1    C1 7704   2.281   3.388   6.492
   71CHL1   H1A 7705   2.281   3.287   6.539
   71CHL1   H1B 7706   2.182   3.434   6.509
   71CHL1    C2 7707   2.310   3.369   6.344
   71CHL1   H2A 7708   2.219   3.321   6.304
   71CHL1   H2B 7709   2.401   3.306   6.331
   71CHL1   C20 7710   2.320   3.576   7.265
   71CHL1   H20 7711   2.431   3.574   7.282
   71CHL1   C21 7712   2.267   3.432   7.272
   71CHL1  H21A 7713   2.303   3.385   7.365
   71CHL1  H21B 7714   2.306   3.364   7.195
   71CHL1  H21C 7715   2.156   3.434   7.260
   71CHL1   C22 7716   2.265   3.667   7.378
   71CHL1  H22A 7717   2.318   3.765   7.373
   71CHL1  H22B 7718   2.157   3.689   7.364
   71CHL1   C23 7719   2.289   3.607   7.517
   71CHL1  H23A 7720   2.229   3.514   7.534
   71CHL1  H23B 7721   2.395   3.576   7.509
   71CHL1   C24 7722   2.282   3.706   7.635
   71CHL1  H24A 7723   2.349   3.791   7.608
   71CHL1  H24B 7724   2.179   3.747   7.652
   71CHL1   C25 7725   2.330   3.646   7.768
   71CHL1   H25 7726   2.285   3.544   7.772
   71CHL1   C26 7727   2.483   3.627   7.779
   71CHL1  H26A 7728   2.533   3.726   7.777
   71CHL1  H26B 7729   2.509   3.575   7.874
   71CHL1  H26C 7730   2.517   3.563   7.695
   71CHL1   C27 7731   2.284   3.729   7.888
   71CHL1  H27A 7732   2.188   3.781   7.870
   71CHL1  H27B 7733   2.268   3.659   7.973
   71CHL1  H27C 7734   2.361   3.804   7.914
   72CHL1    C3 7735   5.064   2.870   6.269
   72CHL1    H3 7736   5.163   2.861   6.318
   72CHL1    O3 7737   5.077   2.891   6.130
   72CHL1   H3' 7738   5.104   2.805   6.094
   72CHL1    C4 7739   4.981   2.743   6.293
   72CHL1   H4A 7740   4.882   2.764   6.246
   72CHL1   H4B 7741   5.030   2.661   6.238
   72CHL1    C5 7742   4.959   2.704   6.437
   72CHL1    C6 7743   5.010   2.596   6.496
   72CHL1    H6 7744   5.084   2.531   6.448
   72CHL1    C7 7745   4.982   2.561   6.635
   72CHL1   H7A 7746   4.971   2.453   6.663
   72CHL1   H7B 7747   5.084   2.589   6.641
   72CHL1    C8 7748   4.893   2.649   6.720
   72CHL1    H8 7749   4.793   2.605   6.708
   72CHL1   C14 7750   4.937   2.660   6.865
   72CHL1   H14 7751   5.029   2.719   6.872
   72CHL1   C15 7752   4.964   2.534   6.945
   72CHL1  H15A 7753   4.898   2.451   6.918
   72CHL1  H15B 7754   5.054   2.476   6.933
   72CHL1   C16 7755   4.965   2.590   7.088
   72CHL1  H16A 7756   4.890   2.541   7.154
   72CHL1  H16B 7757   5.065   2.571   7.132
   72CHL1   C17 7758   4.915   2.732   7.090
   72CHL1   H17 7759   5.007   2.787   7.102
   72CHL1   C13 7760   4.858   2.754   6.953
   72CHL1   C18 7761   4.729   2.710   6.945
   72CHL1  H18A 7762   4.680   2.700   6.851
   72CHL1  H18B 7763   4.747   2.611   6.982
   72CHL1  H18C 7764   4.654   2.764   7.003
   72CHL1   C12 7765   4.840   2.888   6.903
   72CHL1  H12A 7766   4.771   2.949   6.965
   72CHL1  H12B 7767   4.940   2.930   6.915
   72CHL1   C11 7768   4.795   2.873   6.756
   72CHL1  H11A 7769   4.690   2.844   6.735
   72CHL1  H11B 7770   4.800   2.971   6.726
   72CHL1    C9 7771   4.891   2.790   6.668
   72CHL1    H9 7772   4.994   2.827   6.688
   72CHL1   C10 7773   4.878   2.801   6.514
   72CHL1   C19 7774   4.727   2.802   6.474
   72CHL1  H19A 7775   4.671   2.885   6.520
   72CHL1  H19B 7776   4.711   2.821   6.366
   72CHL1  H19C 7777   4.679   2.707   6.504
   72CHL1    C1 7778   4.955   2.927   6.470
   72CHL1   H1A 7779   4.859   2.970   6.461
   72CHL1   H1B 7780   5.021   2.971   6.547
   72CHL1    C2 7781   4.992   2.983   6.332
   72CHL1   H2A 7782   5.052   3.075   6.346
   72CHL1   H2B 7783   4.904   3.014   6.271
   72CHL1   C20 7784   4.835   2.761   7.211
   72CHL1   H20 7785   4.753   2.694   7.197
   72CHL1   C21 7786   4.756   2.889   7.221
   72CHL1  H21A 7787   4.836   2.962   7.222
   72CHL1  H21B 7788   4.690   2.896   7.310
   72CHL1  H21C 7789   4.684   2.897   7.137
   72CHL1   C22 7790   4.918   2.735   7.339
   72CHL1  H22A 7791   4.938   2.627   7.355
   72CHL1  H22B 7792   5.015   2.783   7.325
   72CHL1   C23 7793   4.857   2.786   7.469
   72CHL1  H23A 7794   4.801   2.879   7.466
   72CHL1  H23B 7795   4.772   2.732   7.506
   72CHL1   C24 7796   4.960   2.773   7.577
   72CHL1  H24A 7797   4.992   2.673   7.593
   72CHL1  H24B 7798   5.049   2.831   7.553
   72CHL1   C25 7799   4.911   2.820   7.706
   72CHL1   H25 7800   4.883   2.907   7.650
   72CHL1   C26 7801   4.785   2.794   7.766
   72CHL1  H26A 7802   4.700   2.819   7.697
   72CHL1  H26B 7803   4.807   2.697   7.788
   72CHL1  H26C 7804   4.756   2.801   7.872
   72CHL1   C27 7805   5.011   2.827   7.816
   72CHL1  H27A 7806   5.023   2.736   7.866
   72CHL1  H27B 7807   5.104   2.877   7.790
   72CHL1  H27C 7808   4.988   2.875   7.899
   73CHL1    C3 7809   2.627   4.957   6.259
   73CHL1    H3 7810   2.521   4.926   6.243
   73CHL1    O3 7811   2.690   5.002   6.140
   73CHL1   H3' 7812   2.639   5.077   6.105
   73CHL1    C4 7813   2.630   5.072   6.359
   73CHL1   H4A 7814   2.736   5.095   6.359
   73CHL1   H4B 7815   2.588   5.167   6.321
   73CHL1    C5 7816   2.577   5.033   6.495
   73CHL1    C6 7817   2.488   5.106   6.563
   73CHL1    H6 7818   2.456   5.200   6.517
   73CHL1    C7 7819   2.440   5.078   6.703
   73CHL1   H7A 7820   2.441   5.169   6.768
   73CHL1   H7B 7821   2.335   5.040   6.703
   73CHL1    C8 7822   2.535   4.978   6.774
   73CHL1    H8 7823   2.625   5.034   6.804
   73CHL1   C14 7824   2.471   4.926   6.898
   73CHL1   H14 7825   2.403   4.857   6.846
   73CHL1   C15 7826   2.384   5.023   6.980
   73CHL1  H15A 7827   2.430   5.124   6.978
   73CHL1  H15B 7828   2.280   5.029   6.941
   73CHL1   C16 7829   2.379   4.963   7.119
   73CHL1  H16A 7830   2.429   5.032   7.190
   73CHL1  H16B 7831   2.274   4.949   7.151
   73CHL1   C17 7832   2.458   4.829   7.112
   73CHL1   H17 7833   2.391   4.751   7.081
   73CHL1   C13 7834   2.557   4.840   6.992
   73CHL1   C18 7835   2.679   4.917   7.044
   73CHL1  H18A 7836   2.644   5.000   7.107
   73CHL1  H18B 7837   2.746   4.856   7.108
   73CHL1  H18C 7838   2.740   4.957   6.961
   73CHL1   C12 7839   2.595   4.714   6.909
   73CHL1  H12A 7840   2.666   4.648   6.962
   73CHL1  H12B 7841   2.503   4.653   6.896
   73CHL1   C11 7842   2.658   4.755   6.772
   73CHL1  H11A 7843   2.756   4.801   6.797
   73CHL1  H11B 7844   2.675   4.663   6.711
   73CHL1    C9 7845   2.576   4.859   6.687
   73CHL1    H9 7846   2.481   4.810   6.659
   73CHL1   C10 7847   2.639   4.903   6.551
   73CHL1   C19 7848   2.777   4.943   6.576
   73CHL1  H19A 7849   2.840   4.978   6.493
   73CHL1  H19B 7850   2.760   5.033   6.640
   73CHL1  H19C 7851   2.843   4.867   6.623
   73CHL1    C1 7852   2.651   4.791   6.449
   73CHL1   H1A 7853   2.719   4.711   6.487
   73CHL1   H1B 7854   2.550   4.751   6.435
   73CHL1    C2 7855   2.705   4.836   6.313
   73CHL1   H2A 7856   2.694   4.747   6.246
   73CHL1   H2B 7857   2.813   4.860   6.319
   73CHL1   C20 7858   2.500   4.783   7.251
   73CHL1   H20 7859   2.563   4.862   7.293
   73CHL1   C21 7860   2.583   4.659   7.240
   73CHL1  H21A 7861   2.621   4.649   7.340
   73CHL1  H21B 7862   2.667   4.692   7.181
   73CHL1  H21C 7863   2.543   4.562   7.205
   73CHL1   C22 7864   2.394   4.763   7.362
   73CHL1  H22A 7865   2.434   4.723   7.455
   73CHL1  H22B 7866   2.337   4.858   7.376
   73CHL1   C23 7867   2.311   4.642   7.341
   73CHL1  H23A 7868   2.310   4.699   7.251
   73CHL1  H23B 7869   2.343   4.547   7.301
   73CHL1   C24 7870   2.180   4.628   7.415
   73CHL1  H24A 7871   2.223   4.602   7.511
   73CHL1  H24B 7872   2.136   4.721   7.434
   73CHL1   C25 7873   2.065   4.525   7.378
   73CHL1   H25 7874   2.135   4.458   7.327
   73CHL1   C26 7875   1.968   4.480   7.484
   73CHL1  H26A 7876   1.909   4.571   7.506
   73CHL1  H26B 7877   1.904   4.394   7.455
   73CHL1  H26C 7878   2.011   4.458   7.579
   73CHL1   C27 7879   1.962   4.497   7.281
   73CHL1  H27A 7880   1.939   4.402   7.243
   73CHL1  H27B 7881   1.874   4.559   7.321
   73CHL1  H27C 7882   1.998   4.524   7.184
   74CHL1    C3 7883   1.730   4.009   6.270
   74CHL1    H3 7884   1.801   3.927   6.298
   74CHL1    O3 7885   1.716   4.017   6.130
   74CHL1   H3' 7886   1.792   4.068   6.103
   74CHL1    C4 7887   1.605   3.961   6.321
   74CHL1   H4A 7888   1.525   4.031   6.282
   74CHL1   H4B 7889   1.599   3.856   6.278
   74CHL1    C5 7890   1.613   3.953   6.469
   74CHL1    C6 7891   1.616   3.831   6.526
   74CHL1    H6 7892   1.577   3.750   6.462
   74CHL1    C7 7893   1.602   3.807   6.673
   74CHL1   H7A 7894   1.515   3.736   6.698
   74CHL1   H7B 7895   1.690   3.768   6.718
   74CHL1    C8 7896   1.595   3.939   6.754
   74CHL1    H8 7897   1.500   3.913   6.760
   74CHL1   C14 7898   1.593   3.944   6.903
   74CHL1   H14 7899   1.695   3.913   6.921
   74CHL1   C15 7900   1.543   3.819   6.972
   74CHL1  H15A 7901   1.449   3.789   6.927
   74CHL1  H15B 7902   1.548   3.717   6.933
   74CHL1   C16 7903   1.537   3.868   7.120
   74CHL1  H16A 7904   1.454   3.857   7.192
   74CHL1  H16B 7905   1.588   3.796   7.180
   74CHL1   C17 7906   1.574   4.019   7.126
   74CHL1   H17 7907   1.684   4.011   7.132
   74CHL1   C13 7908   1.550   4.078   6.987
   74CHL1   C18 7909   1.410   4.157   6.991
   74CHL1  H18A 7910   1.345   4.106   7.064
   74CHL1  H18B 7911   1.384   4.259   7.015
   74CHL1  H18C 7912   1.368   4.153   6.889
   74CHL1   C12 7913   1.630   4.188   6.928
   74CHL1  H12A 7914   1.598   4.281   6.980
   74CHL1  H12B 7915   1.735   4.158   6.945
   74CHL1   C11 7916   1.599   4.200   6.778
   74CHL1  H11A 7917   1.494   4.234   6.768
   74CHL1  H11B 7918   1.659   4.284   6.739
   74CHL1    C9 7919   1.633   4.073   6.690
   74CHL1    H9 7920   1.741   4.051   6.704
   74CHL1   C10 7921   1.608   4.090   6.536
   74CHL1   C19 7922   1.488   4.186   6.499
   74CHL1  H19A 7923   1.392   4.150   6.532
   74CHL1  H19B 7924   1.492   4.280   6.554
   74CHL1  H19C 7925   1.467   4.202   6.391
   74CHL1    C1 7926   1.733   4.158   6.481
   74CHL1   H1A 7927   1.737   4.262   6.519
   74CHL1   H1B 7928   1.814   4.101   6.530
   74CHL1    C2 7929   1.754   4.148   6.328
   74CHL1   H2A 7930   1.858   4.174   6.305
   74CHL1   H2B 7931   1.680   4.215   6.278
   74CHL1   C20 7932   1.512   4.085   7.252
   74CHL1   H20 7933   1.401   4.075   7.254
   74CHL1   C21 7934   1.543   4.236   7.252
   74CHL1  H21A 7935   1.651   4.246   7.232
   74CHL1  H21B 7936   1.516   4.285   7.347
   74CHL1  H21C 7937   1.487   4.293   7.175
   74CHL1   C22 7938   1.565   4.013   7.377
   74CHL1  H22A 7939   1.514   3.914   7.387
   74CHL1  H22B 7940   1.674   3.997   7.362
   74CHL1   C23 7941   1.536   4.083   7.509
   74CHL1  H23A 7942   1.597   4.176   7.518
   74CHL1  H23B 7943   1.427   4.108   7.506
   74CHL1   C24 7944   1.562   3.995   7.629
   74CHL1  H24A 7945   1.499   3.904   7.634
   74CHL1  H24B 7946   1.669   3.969   7.638
   74CHL1   C25 7947   1.529   4.065   7.752
   74CHL1   H25 7948   1.425   4.085   7.767
   74CHL1   C26 7949   1.532   3.982   7.873
   74CHL1  H26A 7950   1.532   4.039   7.962
   74CHL1  H26B 7951   1.439   3.933   7.879
   74CHL1  H26C 7952   1.611   3.911   7.875
   74CHL1   C27 7953   1.612   4.181   7.764
   74CHL1  H27A 7954   1.586   4.192   7.870
   74CHL1  H27B 7955   1.720   4.170   7.767
   74CHL1  H27C 7956   1.585   4.275   7.708
   75CHL1    C3 7957   5.000   5.754   6.268
   75CHL1    H3 7958   5.059   5.843   6.301
   75CHL1    O3 7959   4.987   5.763   6.128
   75CHL1   H3' 7960   5.077   5.774   6.091
   75CHL1    C4 7961   5.078   5.625   6.301
   75CHL1   H4A 7962   5.026   5.538   6.255
   75CHL1   H4B 7963   5.178   5.635   6.253
   75CHL1    C5 7964   5.093   5.608   6.450
   75CHL1    C6 7965   5.214   5.593   6.505
   75CHL1    H6 7966   5.304   5.586   6.443
   75CHL1    C7 7967   5.235   5.587   6.653
   75CHL1   H7A 7968   5.314   5.514   6.681
   75CHL1   H7B 7969   5.270   5.689   6.677
   75CHL1    C8 7970   5.103   5.555   6.733
   75CHL1    H8 7971   5.072   5.452   6.705
   75CHL1   C14 7972   5.118   5.574   6.886
   75CHL1   H14 7973   5.140   5.683   6.901
   75CHL1   C15 7974   5.236   5.510   6.961
   75CHL1  H15A 7975   5.269   5.415   6.915
   75CHL1  H15B 7976   5.322   5.580   6.964
   75CHL1   C16 7977   5.186   5.493   7.106
   75CHL1  H16A 7978   5.185   5.386   7.135
   75CHL1  H16B 7979   5.255   5.550   7.172
   75CHL1   C17 7980   5.043   5.556   7.115
   75CHL1   H17 7981   5.058   5.663   7.142
   75CHL1   C13 7982   4.991   5.547   6.969
   75CHL1   C18 7983   4.944   5.401   6.947
   75CHL1  H18A 7984   4.863   5.374   7.018
   75CHL1  H18B 7985   4.911   5.384   6.843
   75CHL1  H18C 7986   5.030   5.333   6.966
   75CHL1   C12 7987   4.883   5.648   6.925
   75CHL1  H12A 7988   4.786   5.627   6.975
   75CHL1  H12B 7989   4.917   5.748   6.958
   75CHL1   C11 7990   4.862   5.647   6.771
   75CHL1  H11A 7991   4.800   5.560   6.741
   75CHL1  H11B 7992   4.801   5.737   6.744
   75CHL1    C9 7993   4.990   5.644   6.682
   75CHL1    H9 7994   5.034   5.745   6.689
   75CHL1   C10 7995   4.962   5.622   6.531
   75CHL1   C19 7996   4.891   5.490   6.504
   75CHL1  H19A 7997   4.786   5.488   6.540
   75CHL1  H19B 7998   4.887   5.466   6.395
   75CHL1  H19C 7999   4.947   5.407   6.548
   75CHL1    C1 8000   4.874   5.740   6.483
   75CHL1   H1A 8001   4.772   5.734   6.527
   75CHL1   H1B 8002   4.923   5.833   6.520
   75CHL1    C2 8003   4.861   5.752   6.332
   75CHL1   H2A 8004   4.800   5.843   6.312
   75CHL1   H2B 8005   4.802   5.669   6.289
   75CHL1   C20 8006   4.960   5.499   7.231
   75CHL1   H20 8007   4.936   5.393   7.209
   75CHL1   C21 8008   4.822   5.570   7.250
   75CHL1  H21A 8009   4.757   5.557   7.162
   75CHL1  H21B 8010   4.831   5.679   7.265
   75CHL1  H21C 8011   4.766   5.525   7.335
   75CHL1   C22 8012   5.041   5.503   7.364
   75CHL1  H22A 8013   5.151   5.490   7.359
   75CHL1  H22B 8014   5.032   5.607   7.401
   75CHL1   C23 8015   4.987   5.398   7.461
   75CHL1  H23A 8016   4.879   5.384   7.439
   75CHL1  H23B 8017   5.032   5.297   7.452
   75CHL1   C24 8018   4.989   5.447   7.603
   75CHL1  H24A 8019   5.092   5.470   7.639
   75CHL1  H24B 8020   4.929   5.542   7.596
   75CHL1   C25 8021   4.920   5.342   7.689
   75CHL1   H25 8022   4.836   5.290   7.643
   75CHL1   C26 8023   5.014   5.238   7.744
   75CHL1  H26A 8024   5.119   5.272   7.760
   75CHL1  H26B 8025   4.969   5.203   7.838
   75CHL1  H26C 8026   5.020   5.157   7.677
   75CHL1   C27 8027   4.845   5.407   7.794
   75CHL1  H27A 8028   4.799   5.505   7.781
   75CHL1  H27B 8029   4.801   5.347   7.876
   75CHL1  H27C 8030   4.934   5.452   7.828
   76CHL1    C3 8031   2.732   1.310   6.264
   76CHL1    H3 8032   2.839   1.283   6.281
   76CHL1    O3 8033   2.711   1.336   6.127
   76CHL1   H3' 8034   2.623   1.377   6.127
   76CHL1    C4 8035   2.631   1.212   6.314
   76CHL1   H4A 8036   2.528   1.249   6.293
   76CHL1   H4B 8037   2.644   1.119   6.257
   76CHL1    C5 8038   2.653   1.195   6.462
   76CHL1    C6 8039   2.690   1.077   6.512
   76CHL1    H6 8040   2.690   0.991   6.445
   76CHL1    C7 8041   2.702   1.050   6.660
   76CHL1   H7A 8042   2.668   0.946   6.684
   76CHL1   H7B 8043   2.805   1.049   6.693
   76CHL1    C8 8044   2.657   1.163   6.754
   76CHL1    H8 8045   2.566   1.148   6.781
   76CHL1   C14 8046   2.685   1.148   6.900
   76CHL1   H14 8047   2.793   1.162   6.895
   76CHL1   C15 8048   2.658   1.012   6.967
   76CHL1  H15A 8049   2.551   0.979   6.958
   76CHL1  H15B 8050   2.725   0.931   6.933
   76CHL1   C16 8051   2.685   1.047   7.113
   76CHL1  H16A 8052   2.609   0.998   7.178
   76CHL1  H16B 8053   2.785   1.011   7.142
   76CHL1   C17 8054   2.685   1.202   7.127
   76CHL1   H17 8055   2.792   1.233   7.119
   76CHL1   C13 8056   2.621   1.253   6.995
   76CHL1   C18 8057   2.466   1.237   7.011
   76CHL1  H18A 8058   2.436   1.141   7.057
   76CHL1  H18B 8059   2.424   1.321   7.070
   76CHL1  H18C 8060   2.415   1.243   6.914
   76CHL1   C12 8061   2.655   1.396   6.942
   76CHL1  H12A 8062   2.610   1.472   7.010
   76CHL1  H12B 8063   2.764   1.415   6.941
   76CHL1   C11 8064   2.601   1.412   6.797
   76CHL1  H11A 8065   2.491   1.422   6.799
   76CHL1  H11B 8066   2.640   1.505   6.751
   76CHL1    C9 8067   2.653   1.302   6.699
   76CHL1    H9 8068   2.763   1.309   6.704
   76CHL1   C10 8069   2.613   1.316   6.548
   76CHL1   C19 8070   2.463   1.370   6.530
   76CHL1  H19A 8071   2.438   1.394   6.424
   76CHL1  H19B 8072   2.382   1.303   6.563
   76CHL1  H19C 8073   2.446   1.454   6.595
   76CHL1    C1 8074   2.714   1.411   6.490
   76CHL1   H1A 8075   2.704   1.502   6.544
   76CHL1   H1B 8076   2.817   1.374   6.508
   76CHL1    C2 8077   2.707   1.432   6.341
   76CHL1   H2A 8078   2.799   1.488   6.314
   76CHL1   H2B 8079   2.612   1.485   6.315
   76CHL1   C20 8080   2.635   1.239   7.269
   76CHL1   H20 8081   2.532   1.199   7.282
   76CHL1   C21 8082   2.621   1.392   7.289
   76CHL1  H21A 8083   2.714   1.447   7.263
   76CHL1  H21B 8084   2.597   1.420   7.393
   76CHL1  H21C 8085   2.533   1.427   7.230
   76CHL1   C22 8086   2.727   1.171   7.376
   76CHL1  H22A 8087   2.745   1.063   7.355
   76CHL1  H22B 8088   2.827   1.217   7.365
   76CHL1   C23 8089   2.692   1.188   7.527
   76CHL1  H23A 8090   2.666   1.294   7.544
   76CHL1  H23B 8091   2.604   1.126   7.555
   76CHL1   C24 8092   2.813   1.155   7.618
   76CHL1  H24A 8093   2.868   1.071   7.571
   76CHL1  H24B 8094   2.881   1.242   7.624
   76CHL1   C25 8095   2.789   1.109   7.763
   76CHL1   H25 8096   2.715   1.030   7.753
   76CHL1   C26 8097   2.913   1.043   7.821
   76CHL1  H26A 8098   2.991   1.120   7.810
   76CHL1  H26B 8099   2.905   1.020   7.929
   76CHL1  H26C 8100   2.945   0.953   7.763
   76CHL1   C27 8101   2.737   1.214   7.861
   76CHL1  H27A 8102   2.725   1.173   7.964
   76CHL1  H27B 8103   2.803   1.302   7.866
   76CHL1  H27C 8104   2.639   1.251   7.827
   77CHL1    C3 8105   2.008   5.577   6.271
   77CHL1    H3 8106   1.902   5.596   6.304
   77CHL1    O3 8107   2.020   5.584   6.129
   77CHL1   H3' 8108   2.025   5.493   6.100
   77CHL1    C4 8109   2.098   5.680   6.336
   77CHL1   H4A 8110   2.204   5.675   6.304
   77CHL1   H4B 8111   2.066   5.782   6.302
   77CHL1    C5 8112   2.072   5.647   6.484
   77CHL1    C6 8113   2.008   5.722   6.570
   77CHL1    H6 8114   1.999   5.816   6.535
   77CHL1    C7 8115   2.010   5.723   6.720
   77CHL1   H7A 8116   2.026   5.810   6.786
   77CHL1   H7B 8117   1.906   5.722   6.739
   77CHL1    C8 8118   2.104   5.632   6.784
   77CHL1    H8 8119   2.208   5.656   6.799
   77CHL1   C14 8120   2.066   5.633   6.928
   77CHL1   H14 8121   1.958   5.613   6.925
   77CHL1   C15 8122   2.074   5.758   7.017
   77CHL1  H15A 8123   2.173   5.803   7.011
   77CHL1  H15B 8124   2.001   5.840   7.004
   77CHL1   C16 8125   2.056   5.693   7.152
   77CHL1  H16A 8126   2.144   5.714   7.202
   77CHL1  H16B 8127   1.979   5.734   7.216
   77CHL1   C17 8128   2.074   5.540   7.138
   77CHL1   H17 8129   1.968   5.510   7.129
   77CHL1   C13 8130   2.139   5.524   6.999
   77CHL1   C18 8131   2.290   5.534   6.997
   77CHL1  H18A 8132   2.330   5.547   6.896
   77CHL1  H18B 8133   2.312   5.624   7.043
   77CHL1  H18C 8134   2.343   5.449   7.042
   77CHL1   C12 8135   2.121   5.406   6.917
   77CHL1  H12A 8136   2.155   5.316   6.973
   77CHL1  H12B 8137   2.016   5.416   6.887
   77CHL1   C11 8138   2.152   5.398   6.770
   77CHL1  H11A 8139   2.259   5.402   6.765
   77CHL1  H11B 8140   2.122   5.302   6.727
   77CHL1    C9 8141   2.084   5.511   6.699
   77CHL1    H9 8142   1.971   5.503   6.700
   77CHL1   C10 8143   2.117   5.523   6.547
   77CHL1   C19 8144   2.264   5.496   6.521
   77CHL1  H19A 8145   2.335   5.564   6.566
   77CHL1  H19B 8146   2.288   5.395   6.555
   77CHL1  H19C 8147   2.285   5.504   6.413
   77CHL1    C1 8148   2.031   5.424   6.469
   77CHL1   H1A 8149   2.063   5.322   6.496
   77CHL1   H1B 8150   1.923   5.440   6.496
   77CHL1    C2 8151   2.040   5.435   6.317
   77CHL1   H2A 8152   1.966   5.363   6.277
   77CHL1   H2B 8153   2.142   5.405   6.287
   77CHL1   C20 8154   2.136   5.470   7.262
   77CHL1   H20 8155   2.242   5.504   7.270
   77CHL1   C21 8156   2.146   5.316   7.249
   77CHL1  H21A 8157   2.217   5.284   7.173
   77CHL1  H21B 8158   2.057   5.264   7.218
   77CHL1  H21C 8159   2.170   5.265   7.342
   77CHL1   C22 8160   2.072   5.515   7.396
   77CHL1  H22A 8161   2.117   5.467   7.486
   77CHL1  H22B 8162   2.079   5.624   7.410
   77CHL1   C23 8163   1.927   5.486   7.412
   77CHL1  H23A 8164   1.864   5.535   7.334
   77CHL1  H23B 8165   1.927   5.376   7.419
   77CHL1   C24 8166   1.882   5.512   7.550
   77CHL1  H24A 8167   1.941   5.441   7.614
   77CHL1  H24B 8168   1.878   5.617   7.567
   77CHL1   C25 8169   1.743   5.493   7.587
   77CHL1   H25 8170   1.763   5.388   7.609
   77CHL1   C26 8171   1.688   5.498   7.724
   77CHL1  H26A 8172   1.586   5.449   7.726
   77CHL1  H26B 8173   1.759   5.440   7.790
   77CHL1  H26C 8174   1.678   5.600   7.750
   77CHL1   C27 8175   1.639   5.547   7.489
   77CHL1  H27A 8176   1.557   5.501   7.537
   77CHL1  H27B 8177   1.609   5.650   7.507
   77CHL1  H27C 8178   1.630   5.510   7.384
   78CHL1    C3 8179   4.826   1.293   6.259
   78CHL1    H3 8180   4.886   1.363   6.206
   78CHL1    O3 8181   4.768   1.272   6.132
   78CHL1   H3' 8182   4.779   1.356   6.080
   78CHL1    C4 8183   4.876   1.157   6.317
   78CHL1   H4A 8184   4.788   1.095   6.331
   78CHL1   H4B 8185   4.940   1.119   6.234
   78CHL1    C5 8186   4.955   1.152   6.448
   78CHL1    C6 8187   5.086   1.111   6.448
   78CHL1    H6 8188   5.126   1.056   6.362
   78CHL1    C7 8189   5.192   1.134   6.559
   78CHL1   H7A 8190   5.257   1.053   6.591
   78CHL1   H7B 8191   5.283   1.189   6.528
   78CHL1    C8 8192   5.119   1.177   6.686
   78CHL1    H8 8193   5.064   1.105   6.740
   78CHL1   C14 8194   5.226   1.240   6.768
   78CHL1   H14 8195   5.262   1.336   6.721
   78CHL1   C15 8196   5.351   1.164   6.781
   78CHL1  H15A 8197   5.325   1.064   6.798
   78CHL1  H15B 8198   5.425   1.176   6.701
   78CHL1   C16 8199   5.402   1.200   6.910
   78CHL1  H16A 8200   5.419   1.118   6.981
   78CHL1  H16B 8201   5.499   1.229   6.879
   78CHL1   C17 8202   5.318   1.308   6.970
   78CHL1   H17 8203   5.351   1.398   6.915
   78CHL1   C13 8204   5.176   1.266   6.900
   78CHL1   C18 8205   5.113   1.174   6.995
   78CHL1  H18A 8206   5.019   1.140   6.947
   78CHL1  H18B 8207   5.189   1.101   7.014
   78CHL1  H18C 8208   5.082   1.224   7.091
   78CHL1   C12 8209   5.039   1.337   6.874
   78CHL1  H12A 8210   4.980   1.363   6.970
   78CHL1  H12B 8211   5.099   1.416   6.841
   78CHL1   C11 8212   4.935   1.320   6.788
   78CHL1  H11A 8213   4.874   1.266   6.854
   78CHL1  H11B 8214   4.871   1.411   6.787
   78CHL1    C9 8215   4.994   1.262   6.669
   78CHL1    H9 8216   5.074   1.319   6.644
   78CHL1   C10 8217   4.890   1.240   6.560
   78CHL1   C19 8218   4.802   1.156   6.634
   78CHL1  H19A 8219   4.745   1.104   6.560
   78CHL1  H19B 8220   4.857   1.075   6.685
   78CHL1  H19C 8221   4.735   1.219   6.698
   78CHL1    C1 8222   4.804   1.372   6.514
   78CHL1   H1A 8223   4.761   1.434   6.593
   78CHL1   H1B 8224   4.855   1.459   6.487
   78CHL1    C2 8225   4.771   1.390   6.363
   78CHL1   H2A 8226   4.724   1.483   6.326
   78CHL1   H2B 8227   4.691   1.341   6.385
   78CHL1   C20 8228   5.356   1.345   7.124
   78CHL1   H20 8229   5.295   1.375   7.193
   78CHL1   C21 8230   5.429   1.489   7.169
   78CHL1  H21A 8231   5.442   1.579   7.122
   78CHL1  H21B 8232   5.533   1.498   7.166
   78CHL1  H21C 8233   5.429   1.510   7.274
   78CHL1   C22 8234   5.320   1.239   7.230
   78CHL1  H22A 8235   5.229   1.183   7.215
   78CHL1  H22B 8236   5.408   1.177   7.222
   78CHL1   C23 8237   5.292   1.300   7.372
   78CHL1  H23A 8238   5.369   1.366   7.394
   78CHL1  H23B 8239   5.245   1.398   7.382
   78CHL1   C24 8240   5.270   1.197   7.473
   78CHL1  H24A 8241   5.164   1.200   7.487
   78CHL1  H24B 8242   5.315   1.099   7.443
   78CHL1   C25 8243   5.309   1.225   7.610
   78CHL1   H25 8244   5.311   1.330   7.651
   78CHL1   C26 8245   5.273   1.121   7.708
   78CHL1  H26A 8246   5.169   1.131   7.721
   78CHL1  H26B 8247   5.314   1.020   7.677
   78CHL1  H26C 8248   5.315   1.147   7.805
   78CHL1   C27 8249   5.433   1.186   7.605
   78CHL1  H27A 8250   5.477   1.273   7.597
   78CHL1  H27B 8251   5.467   1.164   7.696
   78CHL1  H27C 8252   5.506   1.135   7.542
   79CHL1    C3 8253   4.290   6.404   6.280
   79CHL1    H3 8254   4.181   6.383   6.301
   79CHL1    O3 8255   4.327   6.416   6.141
   79CHL1   H3' 8256   4.286   6.493   6.098
   79CHL1    C4 8257   4.349   6.523   6.347
   79CHL1   H4A 8258   4.449   6.529   6.298
   79CHL1   H4B 8259   4.290   6.608   6.310
   79CHL1    C5 8260   4.370   6.513   6.498
   79CHL1    C6 8261   4.321   6.603   6.583
   79CHL1    H6 8262   4.266   6.689   6.544
   79CHL1    C7 8263   4.338   6.600   6.732
   79CHL1   H7A 8264   4.377   6.697   6.769
   79CHL1   H7B 8265   4.238   6.587   6.778
   79CHL1    C8 8266   4.434   6.488   6.780
   79CHL1    H8 8267   4.540   6.518   6.768
   79CHL1   C14 8268   4.410   6.459   6.926
   79CHL1   H14 8269   4.305   6.422   6.936
   79CHL1   C15 8270   4.422   6.573   7.021
   79CHL1  H15A 8271   4.520   6.618   6.992
   79CHL1  H15B 8272   4.342   6.649   7.022
   79CHL1   C16 8273   4.420   6.498   7.155
   79CHL1  H16A 8274   4.495   6.512   7.229
   79CHL1  H16B 8275   4.358   6.535   7.236
   79CHL1   C17 8276   4.440   6.354   7.129
   79CHL1   H17 8277   4.336   6.318   7.133
   79CHL1   C13 8278   4.498   6.352   6.988
   79CHL1   C18 8279   4.651   6.373   6.981
   79CHL1  H18A 8280   4.712   6.282   6.996
   79CHL1  H18B 8281   4.676   6.418   6.884
   79CHL1  H18C 8282   4.686   6.436   7.058
   79CHL1   C12 8283   4.470   6.238   6.905
   79CHL1  H12A 8284   4.538   6.160   6.940
   79CHL1  H12B 8285   4.363   6.211   6.919
   79CHL1   C11 8286   4.507   6.253   6.758
   79CHL1  H11A 8287   4.615   6.259   6.747
   79CHL1  H11B 8288   4.499   6.163   6.702
   79CHL1    C9 8289   4.420   6.363   6.698
   79CHL1    H9 8290   4.312   6.329   6.706
   79CHL1   C10 8291   4.444   6.387   6.550
   79CHL1   C19 8292   4.595   6.383   6.510
   79CHL1  H19A 8293   4.655   6.457   6.560
   79CHL1  H19B 8294   4.641   6.284   6.530
   79CHL1  H19C 8295   4.608   6.400   6.401
   79CHL1    C1 8296   4.380   6.271   6.487
   79CHL1   H1A 8297   4.447   6.181   6.493
   79CHL1   H1B 8298   4.278   6.244   6.526
   79CHL1    C2 8299   4.375   6.298   6.344
   79CHL1   H2A 8300   4.322   6.204   6.350
   79CHL1   H2B 8301   4.473   6.294   6.293
   79CHL1   C20 8302   4.514   6.293   7.244
   79CHL1   H20 8303   4.611   6.335   7.271
   79CHL1   C21 8304   4.553   6.162   7.193
   79CHL1  H21A 8305   4.616   6.133   7.109
   79CHL1  H21B 8306   4.455   6.117   7.161
   79CHL1  H21C 8307   4.607   6.119   7.280
   79CHL1   C22 8308   4.425   6.301   7.373
   79CHL1  H22A 8309   4.341   6.370   7.364
   79CHL1  H22B 8310   4.358   6.224   7.379
   79CHL1   C23 8311   4.484   6.296   7.514
   79CHL1  H23A 8312   4.406   6.283   7.590
   79CHL1  H23B 8313   4.566   6.222   7.530
   79CHL1   C24 8314   4.539   6.428   7.533
   79CHL1  H24A 8315   4.623   6.398   7.469
   79CHL1  H24B 8316   4.468   6.502   7.489
   79CHL1   C25 8317   4.596   6.460   7.668
   79CHL1   H25 8318   4.527   6.426   7.744
   79CHL1   C26 8319   4.696   6.366   7.730
   79CHL1  H26A 8320   4.794   6.358   7.695
   79CHL1  H26B 8321   4.729   6.399   7.830
   79CHL1  H26C 8322   4.682   6.264   7.700
   79CHL1   C27 8323   4.612   6.610   7.691
   79CHL1  H27A 8324   4.651   6.621   7.794
   79CHL1  H27B 8325   4.676   6.645   7.618
   79CHL1  H27C 8326   4.539   6.689   7.678
   80CHL1    C3 8327   1.099   4.530   6.269
   80CHL1    H3 8328   1.190   4.468   6.257
   80CHL1    O3 8329   1.059   4.581   6.142
   80CHL1   H3' 8330   1.045   4.510   6.080
   80CHL1    C4 8331   0.988   4.442   6.331
   80CHL1   H4A 8332   0.892   4.498   6.319
   80CHL1   H4B 8333   0.982   4.352   6.266
   80CHL1    C5 8334   1.011   4.407   6.478
   80CHL1    C6 8335   1.012   4.281   6.529
   80CHL1    H6 8336   1.001   4.193   6.463
   80CHL1    C7 8337   1.010   4.250   6.677
   80CHL1   H7A 8338   0.928   4.178   6.702
   80CHL1   H7B 8339   1.105   4.200   6.706
   80CHL1    C8 8340   0.990   4.375   6.769
   80CHL1    H8 8341   0.883   4.403   6.763
   80CHL1   C14 8342   1.026   4.343   6.915
   80CHL1   H14 8343   1.133   4.310   6.915
   80CHL1   C15 8344   0.952   4.228   6.987
   80CHL1  H15A 8345   0.842   4.235   6.974
   80CHL1  H15B 8346   0.979   4.125   6.957
   80CHL1   C16 8347   0.989   4.252   7.134
   80CHL1  H16A 8348   0.893   4.258   7.191
   80CHL1  H16B 8349   1.051   4.172   7.177
   80CHL1   C17 8350   1.058   4.390   7.146
   80CHL1   H17 8351   1.169   4.377   7.142
   80CHL1   C13 8352   1.023   4.463   7.013
   80CHL1   C18 8353   0.882   4.523   7.027
   80CHL1  H18A 8354   0.842   4.554   6.929
   80CHL1  H18B 8355   0.814   4.451   7.076
   80CHL1  H18C 8356   0.891   4.614   7.091
   80CHL1   C12 8357   1.119   4.570   6.960
   80CHL1  H12A 8358   1.130   4.657   7.027
   80CHL1  H12B 8359   1.219   4.523   6.949
   80CHL1   C11 8360   1.081   4.614   6.817
   80CHL1  H11A 8361   0.990   4.677   6.817
   80CHL1  H11B 8362   1.167   4.678   6.793
   80CHL1    C9 8363   1.072   4.494   6.716
   80CHL1    H9 8364   1.176   4.455   6.711
   80CHL1   C10 8365   1.036   4.530   6.569
   80CHL1   C19 8366   0.908   4.618   6.577
   80CHL1  H19A 8367   0.876   4.647   6.476
   80CHL1  H19B 8368   0.826   4.560   6.626
   80CHL1  H19C 8369   0.923   4.714   6.630
   80CHL1    C1 8370   1.157   4.607   6.506
   80CHL1   H1A 8371   1.170   4.696   6.570
   80CHL1   H1B 8372   1.250   4.548   6.518
   80CHL1    C2 8373   1.138   4.648   6.358
   80CHL1   H2A 8374   1.232   4.687   6.312
   80CHL1   H2B 8375   1.061   4.728   6.357
   80CHL1   C20 8376   1.021   4.443   7.286
   80CHL1   H20 8377   0.913   4.470   7.292
   80CHL1   C21 8378   1.096   4.567   7.319
   80CHL1  H21A 8379   1.046   4.621   7.403
   80CHL1  H21B 8380   1.095   4.638   7.234
   80CHL1  H21C 8381   1.201   4.551   7.349
   80CHL1   C22 8382   1.048   4.338   7.398
   80CHL1  H22A 8383   0.969   4.261   7.394
   80CHL1  H22B 8384   1.144   4.290   7.370
   80CHL1   C23 8385   1.047   4.397   7.541
   80CHL1  H23A 8386   1.137   4.458   7.565
   80CHL1  H23B 8387   0.959   4.462   7.548
   80CHL1   C24 8388   1.019   4.301   7.653
   80CHL1  H24A 8389   1.010   4.354   7.751
   80CHL1  H24B 8390   0.928   4.237   7.638
   80CHL1   C25 8391   1.133   4.215   7.670
   80CHL1   H25 8392   1.147   4.145   7.583
   80CHL1   C26 8393   1.263   4.279   7.706
   80CHL1  H26A 8394   1.328   4.199   7.705
   80CHL1  H26B 8395   1.310   4.327   7.622
   80CHL1  H26C 8396   1.271   4.321   7.809
   80CHL1   C27 8397   1.099   4.144   7.789
   80CHL1  H27A 8398   1.014   4.073   7.769
   80CHL1  H27B 8399   1.201   4.096   7.793
   80CHL1  H27C 8400   1.103   4.176   7.892
   81CHL1    C3 8401   6.417   2.647   6.258
   81CHL1    H3 8402   6.469   2.550   6.249
   81CHL1    O3 8403   6.402   2.700   6.128
   81CHL1   H3' 8404   6.345   2.779   6.134
   81CHL1    C4 8405   6.281   2.640   6.329
   81CHL1   H4A 8406   6.225   2.734   6.309
   81CHL1   H4B 8407   6.225   2.560   6.276
   81CHL1    C5 8408   6.283   2.612   6.477
   81CHL1    C6 8409   6.209   2.519   6.535
   81CHL1    H6 8410   6.138   2.457   6.478
   81CHL1    C7 8411   6.214   2.503   6.682
   81CHL1   H7A 8412   6.122   2.491   6.719
   81CHL1   H7B 8413   6.259   2.407   6.707
   81CHL1    C8 8414   6.264   2.615   6.770
   81CHL1    H8 8415   6.196   2.703   6.763
   81CHL1   C14 8416   6.288   2.576   6.915
   81CHL1   H14 8417   6.359   2.491   6.918
   81CHL1   C15 8418   6.186   2.509   6.998
   81CHL1  H15A 8419   6.113   2.578   6.994
   81CHL1  H15B 8420   6.141   2.413   6.969
   81CHL1   C16 8421   6.220   2.549   7.138
   81CHL1  H16A 8422   6.168   2.647   7.154
   81CHL1  H16B 8423   6.192   2.471   7.212
   81CHL1   C17 8424   6.339   2.630   7.146
   81CHL1   H17 8425   6.399   2.543   7.142
   81CHL1   C13 8426   6.343   2.687   7.005
   81CHL1   C18 8427   6.260   2.820   7.002
   81CHL1  H18A 8428   6.161   2.816   7.051
   81CHL1  H18B 8429   6.315   2.900   7.053
   81CHL1  H18C 8430   6.241   2.852   6.899
   81CHL1   C12 8431   6.480   2.696   6.950
   81CHL1  H12A 8432   6.531   2.774   7.005
   81CHL1  H12B 8433   6.538   2.603   6.947
   81CHL1   C11 8434   6.465   2.727   6.805
   81CHL1  H11A 8435   6.408   2.823   6.809
   81CHL1  H11B 8436   6.570   2.724   6.768
   81CHL1    C9 8437   6.391   2.646   6.707
   81CHL1    H9 8438   6.453   2.555   6.696
   81CHL1   C10 8439   6.373   2.696   6.563
   81CHL1   C19 8440   6.312   2.833   6.569
   81CHL1  H19A 8441   6.351   2.907   6.642
   81CHL1  H19B 8442   6.301   2.889   6.472
   81CHL1  H19C 8443   6.218   2.823   6.603
   81CHL1    C1 8444   6.503   2.687   6.491
   81CHL1   H1A 8445   6.556   2.745   6.566
   81CHL1   H1B 8446   6.556   2.593   6.509
   81CHL1    C2 8447   6.509   2.730   6.339
   81CHL1   H2A 8448   6.612   2.711   6.302
   81CHL1   H2B 8449   6.491   2.837   6.313
   81CHL1   C20 8450   6.344   2.718   7.273
   81CHL1   H20 8451   6.255   2.786   7.276
   81CHL1   C21 8452   6.465   2.808   7.269
   81CHL1  H21A 8453   6.482   2.855   7.172
   81CHL1  H21B 8454   6.557   2.757   7.304
   81CHL1  H21C 8455   6.440   2.897   7.327
   81CHL1   C22 8456   6.328   2.644   7.408
   81CHL1  H22A 8457   6.222   2.617   7.424
   81CHL1  H22B 8458   6.375   2.547   7.408
   81CHL1   C23 8459   6.375   2.723   7.530
   81CHL1  H23A 8460   6.485   2.727   7.537
   81CHL1  H23B 8461   6.341   2.827   7.515
   81CHL1   C24 8462   6.307   2.673   7.655
   81CHL1  H24A 8463   6.204   2.711   7.655
   81CHL1  H24B 8464   6.314   2.563   7.672
   81CHL1   C25 8465   6.355   2.736   7.776
   81CHL1   H25 8466   6.462   2.698   7.784
   81CHL1   C26 8467   6.327   2.885   7.786
   81CHL1  H26A 8468   6.353   2.925   7.883
   81CHL1  H26B 8469   6.375   2.943   7.714
   81CHL1  H26C 8470   6.236   2.931   7.774
   81CHL1   C27 8471   6.282   2.703   7.893
   81CHL1  H27A 8472   6.350   2.719   7.976
   81CHL1  H27B 8473   6.195   2.760   7.921
   81CHL1  H27C 8474   6.247   2.601   7.885
   82CHL1    C3 8475   5.787   5.998   6.270
   82CHL1    H3 8476   5.797   6.104   6.304
   82CHL1    O3 8477   5.777   5.999   6.129
   82CHL1   H3' 8478   5.769   5.906   6.100
   82CHL1    C4 8479   5.910   5.920   6.316
   82CHL1   H4A 8480   5.903   5.814   6.288
   82CHL1   H4B 8481   6.004   5.961   6.271
   82CHL1    C5 8482   5.905   5.926   6.464
   82CHL1    C6 8483   6.011   5.967   6.518
   82CHL1    H6 8484   6.099   5.990   6.456
   82CHL1    C7 8485   6.015   5.977   6.663
   82CHL1   H7A 8486   6.117   5.942   6.675
   82CHL1   H7B 8487   5.992   6.079   6.704
   82CHL1    C8 8488   5.928   5.902   6.751
   82CHL1    H8 8489   5.968   5.801   6.734
   82CHL1   C14 8490   5.928   5.948   6.894
   82CHL1   H14 8491   5.887   6.050   6.905
   82CHL1   C15 8492   6.050   5.979   6.958
   82CHL1  H15A 8493   6.143   5.949   6.915
   82CHL1  H15B 8494   6.070   6.082   6.950
   82CHL1   C16 8495   6.022   5.958   7.097
   82CHL1  H16A 8496   6.067   5.862   7.086
   82CHL1  H16B 8497   6.060   6.027   7.174
   82CHL1   C17 8498   5.888   5.910   7.125
   82CHL1   H17 8499   5.853   6.010   7.131
   82CHL1   C13 8500   5.852   5.864   6.989
   82CHL1   C18 8501   5.916   5.734   6.981
   82CHL1  H18A 8502   6.014   5.699   7.007
   82CHL1  H18B 8503   5.870   5.673   7.060
   82CHL1  H18C 8504   5.906   5.699   6.877
   82CHL1   C12 8505   5.707   5.880   6.946
   82CHL1  H12A 8506   5.637   5.820   7.007
   82CHL1  H12B 8507   5.682   5.986   6.958
   82CHL1   C11 8508   5.694   5.854   6.795
   82CHL1  H11A 8509   5.743   5.759   6.785
   82CHL1  H11B 8510   5.590   5.852   6.761
   82CHL1    C9 8511   5.791   5.927   6.701
   82CHL1    H9 8512   5.774   6.037   6.710
   82CHL1   C10 8513   5.783   5.892   6.549
   82CHL1   C19 8514   5.783   5.745   6.533
   82CHL1  H19A 8515   5.874   5.705   6.584
   82CHL1  H19B 8516   5.691   5.694   6.572
   82CHL1  H19C 8517   5.795   5.708   6.430
   82CHL1    C1 8518   5.660   5.953   6.485
   82CHL1   H1A 8519   5.570   5.908   6.530
   82CHL1   H1B 8520   5.660   6.061   6.511
   82CHL1    C2 8521   5.660   5.938   6.332
   82CHL1   H2A 8522   5.572   5.990   6.290
   82CHL1   H2B 8523   5.651   5.831   6.304
   82CHL1   C20 8524   5.873   5.822   7.253
   82CHL1   H20 8525   5.926   5.726   7.252
   82CHL1   C21 8526   5.722   5.781   7.265
   82CHL1  H21A 8527   5.643   5.857   7.246
   82CHL1  H21B 8528   5.706   5.748   7.369
   82CHL1  H21C 8529   5.695   5.712   7.185
   82CHL1   C22 8530   5.938   5.890   7.381
   82CHL1  H22A 8531   6.029   5.949   7.370
   82CHL1  H22B 8532   5.915   5.990   7.387
   82CHL1   C23 8533   5.922   5.816   7.514
   82CHL1  H23A 8534   5.814   5.805   7.542
   82CHL1  H23B 8535   5.959   5.720   7.475
   82CHL1   C24 8536   6.004   5.882   7.630
   82CHL1  H24A 8537   6.100   5.919   7.591
   82CHL1  H24B 8538   5.962   5.971   7.680
   82CHL1   C25 8539   6.030   5.795   7.747
   82CHL1   H25 8540   6.074   5.706   7.702
   82CHL1   C26 8541   6.130   5.855   7.844
   82CHL1  H26A 8542   6.091   5.946   7.894
   82CHL1  H26B 8543   6.155   5.781   7.923
   82CHL1  H26C 8544   6.221   5.886   7.789
   82CHL1   C27 8545   5.903   5.765   7.820
   82CHL1  H27A 8546   5.820   5.718   7.763
   82CHL1  H27B 8547   5.934   5.701   7.898
   82CHL1  H27C 8548   5.866   5.849   7.876
   83CHL1    C3 8549   3.792   6.815   6.266
   83CHL1    H3 8550   3.894   6.774   6.286
   83CHL1    O3 8551   3.772   6.794   6.129
   83CHL1   H3' 8552   3.856   6.826   6.093
   83CHL1    C4 8553   3.688   6.740   6.346
   83CHL1   H4A 8554   3.585   6.769   6.315
   83CHL1   H4B 8555   3.697   6.632   6.320
   83CHL1    C5 8556   3.708   6.768   6.494
   83CHL1    C6 8557   3.725   6.668   6.581
   83CHL1    H6 8558   3.719   6.565   6.542
   83CHL1    C7 8559   3.729   6.688   6.731
   83CHL1   H7A 8560   3.670   6.612   6.785
   83CHL1   H7B 8561   3.832   6.678   6.770
   83CHL1    C8 8562   3.671   6.826   6.771
   83CHL1    H8 8563   3.564   6.824   6.743
   83CHL1   C14 8564   3.696   6.843   6.920
   83CHL1   H14 8565   3.799   6.815   6.939
   83CHL1   C15 8566   3.623   6.751   7.021
   83CHL1  H15A 8567   3.519   6.732   6.988
   83CHL1  H15B 8568   3.680   6.657   7.026
   83CHL1   C16 8569   3.626   6.825   7.156
   83CHL1  H16A 8570   3.524   6.852   7.193
   83CHL1  H16B 8571   3.677   6.765   7.234
   83CHL1   C17 8572   3.690   6.960   7.121
   83CHL1   H17 8573   3.787   6.971   7.094
   83CHL1   C13 8574   3.669   6.980   6.968
   83CHL1   C18 8575   3.528   6.961   6.923
   83CHL1  H18A 8576   3.454   6.929   7.000
   83CHL1  H18B 8577   3.471   7.046   6.923
   83CHL1  H18C 8578   3.502   6.990   6.821
   83CHL1   C12 8579   3.760   7.080   6.891
   83CHL1  H12A 8580   3.771   7.183   6.932
   83CHL1  H12B 8581   3.855   7.039   6.904
   83CHL1   C11 8582   3.736   7.083   6.741
   83CHL1  H11A 8583   3.639   7.129   6.721
   83CHL1  H11B 8584   3.813   7.150   6.694
   83CHL1    C9 8585   3.732   6.937   6.686
   83CHL1    H9 8586   3.829   6.907   6.715
   83CHL1   C10 8587   3.707   6.917   6.532
   83CHL1   C19 8588   3.568   6.973   6.512
   83CHL1  H19A 8589   3.532   6.960   6.409
   83CHL1  H19B 8590   3.496   6.925   6.580
   83CHL1  H19C 8591   3.573   7.083   6.527
   83CHL1    C1 8592   3.787   7.002   6.431
   83CHL1   H1A 8593   3.800   7.106   6.460
   83CHL1   H1B 8594   3.887   6.974   6.412
   83CHL1    C2 8595   3.785   6.966   6.286
   83CHL1   H2A 8596   3.871   7.015   6.231
   83CHL1   H2B 8597   3.689   7.011   6.262
   83CHL1   C20 8598   3.694   7.061   7.235
   83CHL1   H20 8599   3.595   7.051   7.269
   83CHL1   C21 8600   3.736   7.201   7.182
   83CHL1  H21A 8601   3.707   7.280   7.248
   83CHL1  H21B 8602   3.680   7.279   7.137
   83CHL1  H21C 8603   3.830   7.218   7.139
   83CHL1   C22 8604   3.746   7.019   7.371
   83CHL1  H22A 8605   3.749   6.913   7.390
   83CHL1  H22B 8606   3.843   7.071   7.370
   83CHL1   C23 8607   3.675   7.060   7.496
   83CHL1  H23A 8608   3.736   7.145   7.482
   83CHL1  H23B 8609   3.577   7.099   7.497
   83CHL1   C24 8610   3.732   7.027   7.631
   83CHL1  H24A 8611   3.713   6.923   7.636
   83CHL1  H24B 8612   3.836   7.057   7.624
   83CHL1   C25 8613   3.679   7.086   7.761
   83CHL1   H25 8614   3.703   7.185   7.760
   83CHL1   C26 8615   3.531   7.114   7.780
   83CHL1  H26A 8616   3.516   7.179   7.870
   83CHL1  H26B 8617   3.482   7.163   7.694
   83CHL1  H26C 8618   3.494   7.013   7.788
   83CHL1   C27 8619   3.763   7.058   7.883
   83CHL1  H27A 8620   3.736   7.133   7.961
   83CHL1  H27B 8621   3.748   6.955   7.906
   83CHL1  H27C 8622   3.870   7.081   7.864
   84CHL1    C3 8623   6.265   1.795   6.271
   84CHL1    H3 8624   6.345   1.870   6.287
   84CHL1    O3 8625   6.258   1.768   6.131
   84CHL1   H3' 8626   6.203   1.839   6.094
   84CHL1    C4 8627   6.290   1.661   6.347
   84CHL1   H4A 8628   6.213   1.590   6.311
   84CHL1   H4B 8629   6.386   1.618   6.311
   84CHL1    C5 8630   6.289   1.666   6.499
   84CHL1    C6 8631   6.393   1.622   6.574
   84CHL1    H6 8632   6.480   1.574   6.526
   84CHL1    C7 8633   6.399   1.632   6.724
   84CHL1   H7A 8634   6.453   1.548   6.773
   84CHL1   H7B 8635   6.462   1.719   6.749
   84CHL1    C8 8636   6.261   1.657   6.790
   84CHL1    H8 8637   6.207   1.561   6.796
   84CHL1   C14 8638   6.279   1.714   6.930
   84CHL1   H14 8639   6.318   1.820   6.917
   84CHL1   C15 8640   6.383   1.647   7.020
   84CHL1  H15A 8641   6.380   1.537   7.004
   84CHL1  H15B 8642   6.485   1.683   6.999
   84CHL1   C16 8643   6.337   1.684   7.161
   84CHL1  H16A 8644   6.319   1.591   7.221
   84CHL1  H16B 8645   6.414   1.747   7.210
   84CHL1   C17 8646   6.206   1.766   7.147
   84CHL1   H17 8647   6.230   1.874   7.132
   84CHL1   C13 8648   6.150   1.720   7.011
   84CHL1   C18 8649   6.091   1.577   7.031
   84CHL1  H18A 8650   6.170   1.508   7.067
   84CHL1  H18B 8651   6.009   1.576   7.104
   84CHL1  H18C 8652   6.051   1.537   6.936
   84CHL1   C12 8653   6.055   1.817   6.937
   84CHL1  H12A 8654   5.958   1.819   6.989
   84CHL1  H12B 8655   6.099   1.919   6.940
   84CHL1   C11 8656   6.038   1.778   6.787
   84CHL1  H11A 8657   5.978   1.685   6.784
   84CHL1  H11B 8658   5.979   1.857   6.736
   84CHL1    C9 8659   6.174   1.757   6.712
   84CHL1    H9 8660   6.232   1.852   6.722
   84CHL1   C10 8661   6.161   1.731   6.558
   84CHL1   C19 8662   6.041   1.636   6.535
   84CHL1  H19A 8663   6.026   1.619   6.427
   84CHL1  H19B 8664   6.059   1.539   6.587
   84CHL1  H19C 8665   5.944   1.678   6.572
   84CHL1    C1 8666   6.132   1.864   6.479
   84CHL1   H1A 8667   6.031   1.900   6.510
   84CHL1   H1B 8668   6.209   1.937   6.513
   84CHL1    C2 8669   6.135   1.858   6.323
   84CHL1   H2A 8670   6.123   1.959   6.277
   84CHL1   H2B 8671   6.053   1.792   6.286
   84CHL1   C20 8672   6.132   1.754   7.278
   84CHL1   H20 8673   6.111   1.646   7.300
   84CHL1   C21 8674   5.999   1.827   7.283
   84CHL1  H21A 8675   6.004   1.937   7.295
   84CHL1  H21B 8676   5.962   1.786   7.377
   84CHL1  H21C 8677   5.927   1.794   7.206
   84CHL1   C22 8678   6.221   1.808   7.391
   84CHL1  H22A 8679   6.304   1.735   7.414
   84CHL1  H22B 8680   6.268   1.901   7.355
   84CHL1   C23 8681   6.150   1.850   7.519
   84CHL1  H23A 8682   6.082   1.935   7.509
   84CHL1  H23B 8683   6.102   1.759   7.564
   84CHL1   C24 8684   6.249   1.919   7.606
   84CHL1  H24A 8685   6.319   1.838   7.590
   84CHL1  H24B 8686   6.322   1.989   7.562
   84CHL1   C25 8687   6.199   1.963   7.749
   84CHL1   H25 8688   6.109   2.027   7.741
   84CHL1   C26 8689   6.144   1.852   7.840
   84CHL1  H26A 8690   6.215   1.780   7.862
   84CHL1  H26B 8691   6.141   1.885   7.944
   84CHL1  H26C 8692   6.094   1.762   7.801
   84CHL1   C27 8693   6.314   2.044   7.820
   84CHL1  H27A 8694   6.334   2.132   7.758
   84CHL1  H27B 8695   6.295   2.068   7.926
   84CHL1  H27C 8696   6.411   1.991   7.823
   85CHL1    C3 8697   5.192   6.511   6.263
   85CHL1    H3 8698   5.211   6.402   6.274
   85CHL1    O3 8699   5.142   6.544   6.135
   85CHL1   H3' 8700   5.081   6.476   6.109
   85CHL1    C4 8701   5.091   6.552   6.367
   85CHL1   H4A 8702   5.085   6.660   6.362
   85CHL1   H4B 8703   4.992   6.511   6.340
   85CHL1    C5 8704   5.139   6.515   6.504
   85CHL1    C6 8705   5.070   6.436   6.586
   85CHL1    H6 8706   4.971   6.400   6.556
   85CHL1    C7 8707   5.116   6.399   6.722
   85CHL1   H7A 8708   5.030   6.393   6.792
   85CHL1   H7B 8709   5.167   6.301   6.716
   85CHL1    C8 8710   5.220   6.500   6.773
   85CHL1    H8 8711   5.166   6.596   6.793
   85CHL1   C14 8712   5.287   6.441   6.894
   85CHL1   H14 8713   5.341   6.352   6.857
   85CHL1   C15 8714   5.201   6.387   7.011
   85CHL1  H15A 8715   5.108   6.446   7.023
   85CHL1  H15B 8716   5.174   6.282   6.987
   85CHL1   C16 8717   5.295   6.397   7.132
   85CHL1  H16A 8718   5.251   6.451   7.218
   85CHL1  H16B 8719   5.325   6.294   7.163
   85CHL1   C17 8720   5.425   6.468   7.081
   85CHL1   H17 8721   5.496   6.388   7.054
   85CHL1   C13 8722   5.396   6.526   6.948
   85CHL1   C18 8723   5.340   6.649   6.967
   85CHL1  H18A 8724   5.245   6.628   7.028
   85CHL1  H18B 8725   5.414   6.717   7.018
   85CHL1  H18C 8726   5.310   6.720   6.888
   85CHL1   C12 8727   5.509   6.556   6.858
   85CHL1  H12A 8728   5.572   6.636   6.903
   85CHL1  H12B 8729   5.568   6.464   6.855
   85CHL1   C11 8730   5.455   6.605   6.724
   85CHL1  H11A 8731   5.434   6.714   6.736
   85CHL1  H11B 8732   5.539   6.595   6.653
   85CHL1    C9 8733   5.332   6.525   6.670
   85CHL1    H9 8734   5.373   6.424   6.643
   85CHL1   C10 8735   5.275   6.575   6.536
   85CHL1   C19 8736   5.249   6.722   6.547
   85CHL1  H19A 8737   5.215   6.771   6.454
   85CHL1  H19B 8738   5.172   6.749   6.621
   85CHL1  H19C 8739   5.346   6.769   6.568
   85CHL1    C1 8740   5.376   6.553   6.421
   85CHL1   H1A 8741   5.468   6.615   6.436
   85CHL1   H1B 8742   5.401   6.445   6.420
   85CHL1    C2 8743   5.320   6.590   6.284
   85CHL1   H2A 8744   5.391   6.564   6.203
   85CHL1   H2B 8745   5.298   6.699   6.274
   85CHL1   C20 8746   5.493   6.556   7.183
   85CHL1   H20 8747   5.433   6.635   7.229
   85CHL1   C21 8748   5.624   6.609   7.147
   85CHL1  H21A 8749   5.679   6.639   7.238
   85CHL1  H21B 8750   5.620   6.697   7.085
   85CHL1  H21C 8751   5.674   6.526   7.093
   85CHL1   C22 8752   5.533   6.469   7.289
   85CHL1  H22A 8753   5.583   6.537   7.366
   85CHL1  H22B 8754   5.427   6.450   7.325
   85CHL1   C23 8755   5.621   6.335   7.267
   85CHL1  H23A 8756   5.577   6.264   7.201
   85CHL1  H23B 8757   5.725   6.356   7.235
   85CHL1   C24 8758   5.642   6.222   7.376
   85CHL1  H24A 8759   5.704   6.289   7.420
   85CHL1  H24B 8760   5.560   6.182   7.440
   85CHL1   C25 8761   5.760   6.148   7.413
   85CHL1   H25 8762   5.860   6.192   7.393
   85CHL1   C26 8763   5.765   6.080   7.552
   85CHL1  H26A 8764   5.850   6.023   7.551
   85CHL1  H26B 8765   5.811   6.145   7.629
   85CHL1  H26C 8766   5.688   6.008   7.583
   85CHL1   C27 8767   5.702   6.074   7.307
   85CHL1  H27A 8768   5.609   6.021   7.330
   85CHL1  H27B 8769   5.723   6.107   7.205
   85CHL1  H27C 8770   5.756   5.995   7.312
   86CHL1    C3 8771   6.884   4.116   6.270
   86CHL1    H3 8772   6.956   4.189   6.314
   86CHL1    O3 8773   6.878   4.137   6.130
   86CHL1   H3' 8774   6.968   4.150   6.098
   86CHL1    C4 8775   6.927   3.973   6.306
   86CHL1   H4A 8776   6.857   3.903   6.258
   86CHL1   H4B 8777   7.025   3.951   6.260
   86CHL1    C5 8778   6.932   3.957   6.457
   86CHL1    C6 8779   7.046   3.928   6.521
   86CHL1    H6 8780   7.137   3.911   6.461
   86CHL1    C7 8781   7.056   3.920   6.672
   86CHL1   H7A 8782   7.122   3.838   6.709
   86CHL1   H7B 8783   7.096   4.015   6.714
   86CHL1    C8 8784   6.919   3.906   6.741
   86CHL1    H8 8785   6.878   3.804   6.724
   86CHL1   C14 8786   6.935   3.937   6.888
   86CHL1   H14 8787   6.969   4.044   6.898
   86CHL1   C15 8788   7.044   3.864   6.965
   86CHL1  H15A 8789   7.035   3.757   6.938
   86CHL1  H15B 8790   7.147   3.899   6.939
   86CHL1   C16 8791   7.004   3.897   7.110
   86CHL1  H16A 8792   7.005   3.802   7.168
   86CHL1  H16B 8793   7.075   3.972   7.152
   86CHL1   C17 8794   6.859   3.956   7.110
   86CHL1   H17 8795   6.864   4.067   7.110
   86CHL1   C13 8796   6.806   3.925   6.970
   86CHL1   C18 8797   6.749   3.783   6.972
   86CHL1  H18A 8798   6.674   3.767   7.051
   86CHL1  H18B 8799   6.701   3.749   6.877
   86CHL1  H18C 8800   6.831   3.717   7.003
   86CHL1   C12 8801   6.706   4.024   6.914
   86CHL1  H12A 8802   6.611   4.004   6.965
   86CHL1  H12B 8803   6.737   4.128   6.939
   86CHL1   C11 8804   6.687   4.000   6.762
   86CHL1  H11A 8805   6.636   3.903   6.746
   86CHL1  H11B 8806   6.625   4.080   6.719
   86CHL1    C9 8807   6.820   4.004   6.683
   86CHL1    H9 8808   6.864   4.104   6.703
   86CHL1   C10 8809   6.802   3.994   6.531
   86CHL1   C19 8810   6.704   3.878   6.501
   86CHL1  H19A 8811   6.743   3.785   6.547
   86CHL1  H19B 8812   6.602   3.897   6.540
   86CHL1  H19C 8813   6.694   3.860   6.393
   86CHL1    C1 8814   6.749   4.131   6.478
   86CHL1   H1A 8815   6.645   4.151   6.510
   86CHL1   H1B 8816   6.815   4.212   6.517
   86CHL1    C2 8817   6.745   4.140   6.326
   86CHL1   H2A 8818   6.706   4.239   6.294
   86CHL1   H2B 8819   6.673   4.064   6.289
   86CHL1   C20 8820   6.778   3.916   7.236
   86CHL1   H20 8821   6.764   3.805   7.240
   86CHL1   C21 8822   6.637   3.980   7.237
   86CHL1  H21A 8823   6.574   3.944   7.153
   86CHL1  H21B 8824   6.648   4.090   7.236
   86CHL1  H21C 8825   6.583   3.953   7.330
   86CHL1   C22 8826   6.855   3.960   7.363
   86CHL1  H22A 8827   6.959   3.924   7.354
   86CHL1  H22B 8828   6.863   4.070   7.370
   86CHL1   C23 8829   6.802   3.902   7.496
   86CHL1  H23A 8830   6.712   3.957   7.530
   86CHL1  H23B 8831   6.775   3.797   7.475
   86CHL1   C24 8832   6.912   3.908   7.604
   86CHL1  H24A 8833   7.002   3.854   7.567
   86CHL1  H24B 8834   6.936   4.015   7.616
   86CHL1   C25 8835   6.874   3.859   7.745
   86CHL1   H25 8836   6.970   3.851   7.802
   86CHL1   C26 8837   6.781   3.956   7.812
   86CHL1  H26A 8838   6.761   3.925   7.917
   86CHL1  H26B 8839   6.830   4.055   7.807
   86CHL1  H26C 8840   6.684   3.959   7.757
   86CHL1   C27 8841   6.802   3.727   7.747
   86CHL1  H27A 8842   6.834   3.663   7.831
   86CHL1  H27B 8843   6.691   3.735   7.744
   86CHL1  H27C 8844   6.834   3.678   7.655
   87CHL1    C3 8845   0.852   2.033   6.270
   87CHL1    H3 8846   0.749   2.000   6.297
   87CHL1    O3 8847   0.862   2.037   6.129
   87CHL1   H3' 8848   0.853   1.948   6.096
   87CHL1    C4 8849   0.870   2.175   6.325
   87CHL1   H4A 8850   0.968   2.209   6.289
   87CHL1   H4B 8851   0.793   2.239   6.276
   87CHL1    C5 8852   0.869   2.186   6.474
   87CHL1    C6 8853   0.794   2.277   6.534
   87CHL1    H6 8854   0.725   2.338   6.474
   87CHL1    C7 8855   0.778   2.283   6.682
   87CHL1   H7A 8856   0.775   2.385   6.717
   87CHL1   H7B 8857   0.688   2.231   6.714
   87CHL1    C8 8858   0.887   2.212   6.757
   87CHL1    H8 8859   0.971   2.283   6.741
   87CHL1   C14 8860   0.851   2.198   6.902
   87CHL1   H14 8861   0.754   2.145   6.915
   87CHL1   C15 8862   0.825   2.322   6.970
   87CHL1  H15A 8863   0.916   2.381   6.938
   87CHL1  H15B 8864   0.732   2.376   6.938
   87CHL1   C16 8865   0.826   2.292   7.118
   87CHL1  H16A 8866   0.879   2.362   7.183
   87CHL1  H16B 8867   0.723   2.287   7.158
   87CHL1   C17 8868   0.894   2.156   7.127
   87CHL1   H17 8869   0.810   2.083   7.136
   87CHL1   C13 8870   0.957   2.133   6.989
   87CHL1   C18 8871   1.093   2.210   6.974
   87CHL1  H18A 8872   1.091   2.313   7.013
   87CHL1  H18B 8873   1.177   2.160   7.024
   87CHL1  H18C 8874   1.120   2.221   6.867
   87CHL1   C12 8875   0.959   1.989   6.939
   87CHL1  H12A 8876   1.031   1.930   6.997
   87CHL1  H12B 8877   0.859   1.941   6.950
   87CHL1   C11 8878   1.000   1.987   6.790
   87CHL1  H11A 8879   1.103   2.027   6.782
   87CHL1  H11B 8880   0.999   1.882   6.755
   87CHL1    C9 8881   0.909   2.074   6.701
   87CHL1    H9 8882   0.808   2.027   6.710
   87CHL1   C10 8883   0.948   2.081   6.550
   87CHL1   C19 8884   1.090   2.129   6.534
   87CHL1  H19A 8885   1.152   2.055   6.588
   87CHL1  H19B 8886   1.124   2.128   6.427
   87CHL1  H19C 8887   1.120   2.227   6.576
   87CHL1    C1 8888   0.938   1.939   6.486
   87CHL1   H1A 8889   1.017   1.873   6.528
   87CHL1   H1B 8890   0.838   1.899   6.513
   87CHL1    C2 8891   0.951   1.933   6.332
   87CHL1   H2A 8892   0.924   1.832   6.296
   87CHL1   H2B 8893   1.057   1.950   6.302
   87CHL1   C20 8894   0.978   2.144   7.252
   87CHL1   H20 8895   1.043   2.234   7.256
   87CHL1   C21 8896   1.063   2.016   7.256
   87CHL1  H21A 8897   0.994   1.931   7.236
   87CHL1  H21B 8898   1.112   2.006   7.355
   87CHL1  H21C 8899   1.146   2.016   7.183
   87CHL1   C22 8900   0.887   2.151   7.375
   87CHL1  H22A 8901   0.841   2.250   7.366
   87CHL1  H22B 8902   0.801   2.080   7.370
   87CHL1   C23 8903   0.960   2.134   7.508
   87CHL1  H23A 8904   0.980   2.030   7.531
   87CHL1  H23B 8905   1.054   2.197   7.512
   87CHL1   C24 8906   0.872   2.173   7.622
   87CHL1  H24A 8907   0.885   2.269   7.588
   87CHL1  H24B 8908   0.766   2.143   7.613
   87CHL1   C25 8909   0.932   2.186   7.762
   87CHL1   H25 8910   1.039   2.214   7.762
   87CHL1   C26 8911   0.859   2.245   7.882
   87CHL1  H26A 8912   0.887   2.224   7.986
   87CHL1  H26B 8913   0.889   2.349   7.866
   87CHL1  H26C 8914   0.749   2.227   7.870
   87CHL1   C27 8915   0.921   2.057   7.792
   87CHL1  H27A 8916   0.933   2.058   7.904
   87CHL1  H27B 8917   0.836   1.992   7.767
   87CHL1  H27C 8918   1.008   2.022   7.731
   88CHL1    C3 8919   4.684   0.475   6.262
   88CHL1    H3 8920   4.578   0.441   6.267
   88CHL1    O3 8921   4.707   0.528   6.133
   88CHL1   H3' 8922   4.634   0.589   6.123
   88CHL1    C4 8923   4.703   0.586   6.363
   88CHL1   H4A 8924   4.805   0.631   6.346
   88CHL1   H4B 8925   4.625   0.658   6.334
   88CHL1    C5 8926   4.678   0.531   6.501
   88CHL1    C6 8927   4.573   0.570   6.574
   88CHL1    H6 8928   4.508   0.646   6.533
   88CHL1    C7 8929   4.536   0.522   6.710
   88CHL1   H7A 8930   4.514   0.612   6.770
   88CHL1   H7B 8931   4.444   0.461   6.701
   88CHL1    C8 8932   4.651   0.450   6.780
   88CHL1    H8 8933   4.727   0.523   6.813
   88CHL1   C14 8934   4.614   0.384   6.915
   88CHL1   H14 8935   4.536   0.305   6.893
   88CHL1   C15 8936   4.572   0.464   7.037
   88CHL1  H15A 8937   4.641   0.552   7.043
   88CHL1  H15B 8938   4.468   0.497   7.030
   88CHL1   C16 8939   4.606   0.372   7.158
   88CHL1  H16A 8940   4.675   0.433   7.220
   88CHL1  H16B 8941   4.526   0.339   7.226
   88CHL1   C17 8942   4.678   0.247   7.103
   88CHL1   H17 8943   4.600   0.171   7.074
   88CHL1   C13 8944   4.734   0.318   6.978
   88CHL1   C18 8945   4.864   0.391   7.004
   88CHL1  H18A 8946   4.844   0.464   7.081
   88CHL1  H18B 8947   4.943   0.319   7.036
   88CHL1  H18C 8948   4.903   0.437   6.910
   88CHL1   C12 8949   4.785   0.243   6.875
   88CHL1  H12A 8950   4.843   0.182   6.941
   88CHL1  H12B 8951   4.693   0.201   6.842
   88CHL1   C11 8952   4.831   0.281   6.736
   88CHL1  H11A 8953   4.933   0.315   6.746
   88CHL1  H11B 8954   4.840   0.202   6.657
   88CHL1    C9 8955   4.717   0.357   6.676
   88CHL1    H9 8956   4.636   0.284   6.646
   88CHL1   C10 8957   4.766   0.417   6.546
   88CHL1   C19 8958   4.906   0.470   6.564
   88CHL1  H19A 8959   4.986   0.394   6.563
   88CHL1  H19B 8960   4.920   0.521   6.470
   88CHL1  H19C 8961   4.919   0.541   6.648
   88CHL1    C1 8962   4.769   0.311   6.433
   88CHL1   H1A 8963   4.853   0.238   6.445
   88CHL1   H1B 8964   4.669   0.263   6.439
   88CHL1    C2 8965   4.782   0.363   6.290
   88CHL1   H2A 8966   4.761   0.278   6.222
   88CHL1   H2B 8967   4.887   0.397   6.277
   88CHL1   C20 8968   4.759   0.177   7.215
   88CHL1   H20 8969   4.814   0.256   7.269
   88CHL1   C21 8970   4.871   0.075   7.180
   88CHL1  H21A 8971   4.915   0.028   7.269
   88CHL1  H21B 8972   4.955   0.122   7.128
   88CHL1  H21C 8973   4.842  -0.010   7.120
   88CHL1   C22 8974   4.661   0.121   7.318
   88CHL1  H22A 8975   4.556   0.129   7.284
   88CHL1  H22B 8976   4.686   0.012   7.336
   88CHL1   C23 8977   4.652   0.205   7.446
   88CHL1  H23A 8978   4.756   0.235   7.467
   88CHL1  H23B 8979   4.603   0.301   7.452
   88CHL1   C24 8980   4.571   0.129   7.549
   88CHL1  H24A 8981   4.499   0.048   7.519
   88CHL1  H24B 8982   4.633   0.042   7.518
   88CHL1   C25 8983   4.559   0.181   7.712
   88CHL1   H25 8984   4.504   0.275   7.697
   88CHL1   C26 8985   4.485   0.034   7.743
   88CHL1  H26A 8986   4.527  -0.065   7.749
   88CHL1  H26B 8987   4.463   0.006   7.845
   88CHL1  H26C 8988   4.398   0.022   7.680
   88CHL1   C27 8989   4.682   0.241   7.837
   88CHL1  H27A 8990   4.777   0.293   7.807
   88CHL1  H27B 8991   4.652   0.206   7.933
   88CHL1  H27C 8992   4.785   0.183   7.862
   89CHL1    C3 8993   0.304   4.302   6.270
   89CHL1    H3 8994   0.213   4.355   6.307
   89CHL1    O3 8995   0.335   4.341   6.136
   89CHL1   H3' 8996   0.259   4.324   6.079
   89CHL1    C4 8997   0.419   4.345   6.363
   89CHL1   H4A 8998   0.514   4.305   6.323
   89CHL1   H4B 8999   0.429   4.456   6.358
   89CHL1    C5 9000   0.388   4.301   6.504
   89CHL1    C6 9001   0.374   4.391   6.603
   89CHL1    H6 9002   0.395   4.495   6.577
   89CHL1    C7 9003   0.344   4.360   6.748
   89CHL1   H7A 9004   0.392   4.433   6.817
   89CHL1   H7B 9005   0.235   4.366   6.770
   89CHL1    C8 9006   0.389   4.215   6.776
   89CHL1    H8 9007   0.499   4.214   6.765
   89CHL1   C14 9008   0.352   4.173   6.919
   89CHL1   H14 9009   0.239   4.179   6.923
   89CHL1   C15 9010   0.402   4.261   7.036
   89CHL1  H15A 9011   0.509   4.290   7.026
   89CHL1  H15B 9012   0.338   4.350   7.043
   89CHL1   C16 9013   0.385   4.173   7.159
   89CHL1  H16A 9014   0.480   4.165   7.217
   89CHL1  H16B 9015   0.307   4.211   7.227
   89CHL1   C17 9016   0.338   4.038   7.106
   89CHL1   H17 9017   0.228   4.034   7.101
   89CHL1   C13 9018   0.384   4.030   6.959
   89CHL1   C18 9019   0.535   4.009   6.964
   89CHL1  H18A 9020   0.572   4.042   6.866
   89CHL1  H18B 9021   0.593   4.070   7.033
   89CHL1  H18C 9022   0.565   3.903   6.984
   89CHL1   C12 9023   0.311   3.938   6.856
   89CHL1  H12A 9024   0.339   3.832   6.868
   89CHL1  H12B 9025   0.203   3.950   6.875
   89CHL1   C11 9026   0.342   3.973   6.709
   89CHL1  H11A 9027   0.444   3.948   6.687
   89CHL1  H11B 9028   0.286   3.911   6.638
   89CHL1    C9 9029   0.327   4.121   6.671
   89CHL1    H9 9030   0.216   4.137   6.677
   89CHL1   C10 9031   0.367   4.150   6.522
   89CHL1   C19 9032   0.500   4.080   6.481
   89CHL1  H19A 9033   0.490   3.970   6.491
   89CHL1  H19B 9034   0.530   4.093   6.376
   89CHL1  H19C 9035   0.585   4.116   6.541
   89CHL1    C1 9036   0.252   4.107   6.427
   89CHL1   H1A 9037   0.234   3.997   6.434
   89CHL1   H1B 9038   0.159   4.159   6.460
   89CHL1    C2 9039   0.274   4.151   6.281
   89CHL1   H2A 9040   0.184   4.129   6.219
   89CHL1   H2B 9041   0.359   4.095   6.238
   89CHL1   C20 9042   0.379   3.936   7.203
   89CHL1   H20 9043   0.486   3.939   7.208
   89CHL1   C21 9044   0.346   3.819   7.129
   89CHL1  H21A 9045   0.243   3.776   7.142
   89CHL1  H21B 9046   0.421   3.745   7.155
   89CHL1  H21C 9047   0.409   3.788   7.044
   89CHL1   C22 9048   0.338   3.943   7.352
   89CHL1  H22A 9049   0.381   3.869   7.420
   89CHL1  H22B 9050   0.395   4.028   7.392
   89CHL1   C23 9051   0.187   3.951   7.371
   89CHL1  H23A 9052   0.158   4.056   7.352
   89CHL1  H23B 9053   0.133   3.886   7.298
   89CHL1   C24 9054   0.137   3.916   7.512
   89CHL1  H24A 9055   0.198   3.968   7.588
   89CHL1  H24B 9056   0.032   3.946   7.524
   89CHL1   C25 9057   0.139   3.768   7.544
   89CHL1   H25 9058   0.229   3.735   7.499
   89CHL1   C26 9059   0.159   3.738   7.691
   89CHL1  H26A 9060   0.186   3.632   7.701
   89CHL1  H26B 9061   0.239   3.803   7.733
   89CHL1  H26C 9062   0.065   3.747   7.747
   89CHL1   C27 9063   0.026   3.687   7.482
   89CHL1  H27A 9064  -0.068   3.724   7.522
   89CHL1  H27B 9065   0.025   3.700   7.372
   89CHL1  H27C 9066   0.037   3.578   7.505
   90CHL1    C3 9067   0.420   5.071   6.257
   90CHL1    H3 9068   0.334   5.005   6.232
   90CHL1    O3 9069   0.479   5.115   6.135
   90CHL1   H3' 9070   0.549   5.174   6.163
   90CHL1    C4 9071   0.375   5.199   6.331
   90CHL1   H4A 9072   0.458   5.272   6.330
   90CHL1   H4B 9073   0.294   5.251   6.276
   90CHL1    C5 9074   0.339   5.171   6.475
   90CHL1    C6 9075   0.219   5.203   6.523
   90CHL1    H6 9076   0.144   5.255   6.461
   90CHL1    C7 9077   0.185   5.183   6.667
   90CHL1   H7A 9078   0.124   5.267   6.688
   90CHL1   H7B 9079   0.116   5.098   6.682
   90CHL1    C8 9080   0.313   5.163   6.754
   90CHL1    H8 9081   0.369   5.259   6.758
   90CHL1   C14 9082   0.280   5.118   6.891
   90CHL1   H14 9083   0.212   5.030   6.883
   90CHL1   C15 9084   0.202   5.210   6.964
   90CHL1  H15A 9085   0.228   5.317   6.943
   90CHL1  H15B 9086   0.095   5.186   6.938
   90CHL1   C16 9087   0.225   5.181   7.111
   90CHL1  H16A 9088   0.273   5.276   7.143
   90CHL1  H16B 9089   0.133   5.158   7.171
   90CHL1   C17 9090   0.320   5.073   7.124
   90CHL1   H17 9091   0.257   4.982   7.120
   90CHL1   C13 9092   0.391   5.086   6.988
   90CHL1   C18 9093   0.496   5.197   6.998
   90CHL1  H18A 9094   0.463   5.284   7.057
   90CHL1  H18B 9095   0.582   5.149   7.048
   90CHL1  H18C 9096   0.527   5.233   6.897
   90CHL1   C12 9097   0.444   4.958   6.932
   90CHL1  H12A 9098   0.522   4.922   7.001
   90CHL1  H12B 9099   0.356   4.889   6.937
   90CHL1   C11 9100   0.499   4.982   6.789
   90CHL1  H11A 9101   0.586   5.049   6.792
   90CHL1  H11B 9102   0.540   4.886   6.750
   90CHL1    C9 9103   0.396   5.053   6.693
   90CHL1    H9 9104   0.319   4.974   6.672
   90CHL1   C10 9105   0.449   5.099   6.556
   90CHL1   C19 9106   0.568   5.195   6.575
   90CHL1  H19A 9107   0.657   5.142   6.613
   90CHL1  H19B 9108   0.600   5.240   6.479
   90CHL1  H19C 9109   0.542   5.279   6.643
   90CHL1    C1 9110   0.498   4.973   6.484
   90CHL1   H1A 9111   0.595   4.945   6.530
   90CHL1   H1B 9112   0.424   4.892   6.506
   90CHL1    C2 9113   0.526   4.991   6.335
   90CHL1   H2A 9114   0.548   4.891   6.292
   90CHL1   H2B 9115   0.620   5.048   6.325
   90CHL1   C20 9116   0.383   5.095   7.263
   90CHL1   H20 9117   0.434   5.194   7.266
   90CHL1   C21 9118   0.491   4.990   7.284
   90CHL1  H21A 9119   0.540   5.003   7.383
   90CHL1  H21B 9120   0.564   5.001   7.202
   90CHL1  H21C 9121   0.449   4.889   7.280
   90CHL1   C22 9122   0.279   5.099   7.379
   90CHL1  H22A 9123   0.216   5.187   7.370
   90CHL1  H22B 9124   0.212   5.010   7.375
   90CHL1   C23 9125   0.338   5.123   7.519
   90CHL1  H23A 9126   0.402   5.036   7.543
   90CHL1  H23B 9127   0.403   5.213   7.519
   90CHL1   C24 9128   0.230   5.138   7.628
   90CHL1  H24A 9129   0.159   5.222   7.611
   90CHL1  H24B 9130   0.170   5.045   7.622
   90CHL1   C25 9131   0.288   5.146   7.770
   90CHL1   H25 9132   0.366   5.068   7.782
   90CHL1   C26 9133   0.363   5.269   7.795
   90CHL1  H26A 9134   0.450   5.288   7.729
   90CHL1  H26B 9135   0.292   5.352   7.780
   90CHL1  H26C 9136   0.398   5.273   7.901
   90CHL1   C27 9137   0.180   5.140   7.879
   90CHL1  H27A 9138   0.228   5.149   7.979
   90CHL1  H27B 9139   0.107   5.223   7.872
   90CHL1  H27C 9140   0.125   5.045   7.869
   91CHL1    C3 9141   2.408   7.052   6.261
   91CHL1    H3 9142   2.334   6.972   6.246
   91CHL1    O3 9143   2.419   7.116   6.136
   91CHL1   H3' 9144   2.415   7.211   6.160
   91CHL1    C4 9145   2.377   7.149   6.378
   91CHL1   H4A 9146   2.453   7.231   6.376
   91CHL1   H4B 9147   2.278   7.197   6.363
   91CHL1    C5 9148   2.375   7.081   6.511
   91CHL1    C6 9149   2.261   7.068   6.583
   91CHL1    H6 9150   2.163   7.103   6.548
   91CHL1    C7 9151   2.259   7.008   6.719
   91CHL1   H7A 9152   2.205   7.075   6.788
   91CHL1   H7B 9153   2.207   6.910   6.716
   91CHL1    C8 9154   2.398   6.991   6.776
   91CHL1    H8 9155   2.441   7.090   6.802
   91CHL1   C14 9156   2.386   6.906   6.899
   91CHL1   H14 9157   2.341   6.804   6.873
   91CHL1   C15 9158   2.304   6.953   7.009
   91CHL1  H15A 9159   2.314   7.062   7.030
   91CHL1  H15B 9160   2.202   6.920   6.981
   91CHL1   C16 9161   2.351   6.879   7.132
   91CHL1  H16A 9162   2.407   6.948   7.197
   91CHL1  H16B 9163   2.284   6.812   7.189
   91CHL1   C17 9164   2.458   6.799   7.077
   91CHL1   H17 9165   2.424   6.697   7.047
   91CHL1   C13 9166   2.509   6.883   6.964
   91CHL1   C18 9167   2.598   7.006   7.001
   91CHL1  H18A 9168   2.610   7.071   6.914
   91CHL1  H18B 9169   2.556   7.060   7.088
   91CHL1  H18C 9170   2.701   6.979   7.029
   91CHL1   C12 9171   2.559   6.810   6.854
   91CHL1  H12A 9172   2.641   6.789   6.899
   91CHL1  H12B 9173   2.511   6.710   6.848
   91CHL1   C11 9174   2.616   6.885   6.736
   91CHL1  H11A 9175   2.702   6.950   6.759
   91CHL1  H11B 9176   2.658   6.825   6.656
   91CHL1    C9 9177   2.491   6.932   6.673
   91CHL1    H9 9178   2.441   6.834   6.646
   91CHL1   C10 9179   2.510   7.020   6.550
   91CHL1   C19 9180   2.615   7.129   6.582
   91CHL1  H19A 9181   2.585   7.198   6.663
   91CHL1  H19B 9182   2.715   7.088   6.608
   91CHL1  H19C 9183   2.633   7.187   6.489
   91CHL1    C1 9184   2.555   6.931   6.430
   91CHL1   H1A 9185   2.659   6.896   6.443
   91CHL1   H1B 9186   2.496   6.838   6.435
   91CHL1    C2 9187   2.542   6.992   6.288
   91CHL1   H2A 9188   2.566   6.914   6.214
   91CHL1   H2B 9189   2.611   7.076   6.266
   91CHL1   C20 9190   2.551   6.777   7.174
   91CHL1   H20 9191   2.599   6.876   7.192
   91CHL1   C21 9192   2.628   6.667   7.084
   91CHL1  H21A 9193   2.699   6.602   7.129
   91CHL1  H21B 9194   2.713   6.723   7.032
   91CHL1  H21C 9195   2.632   6.560   7.080
   91CHL1   C22 9196   2.498   6.761   7.327
   91CHL1  H22A 9197   2.395   6.759   7.359
   91CHL1  H22B 9198   2.510   6.674   7.283
   91CHL1   C23 9199   2.580   6.743   7.458
   91CHL1  H23A 9200   2.680   6.707   7.489
   91CHL1  H23B 9201   2.639   6.835   7.453
   91CHL1   C24 9202   2.536   6.652   7.572
   91CHL1  H24A 9203   2.450   6.692   7.538
   91CHL1  H24B 9204   2.478   6.569   7.548
   91CHL1   C25 9205   2.553   6.690   7.719
   91CHL1   H25 9206   2.660   6.670   7.722
   91CHL1   C26 9207   2.511   6.811   7.785
   91CHL1  H26A 9208   2.446   6.887   7.763
   91CHL1  H26B 9209   2.611   6.812   7.857
   91CHL1  H26C 9210   2.509   6.915   7.718
   91CHL1   C27 9211   2.521   6.624   7.821
   91CHL1  H27A 9212   2.532   6.518   7.815
   91CHL1  H27B 9213   2.562   6.655   7.921
   91CHL1  H27C 9214   2.445   6.576   7.788
   92CHL1    C3 9215   6.191   0.997   6.268
   92CHL1    H3 9216   6.296   1.031   6.280
   92CHL1    O3 9217   6.157   1.001   6.131
   92CHL1   H3' 9218   6.211   0.932   6.092
   92CHL1    C4 9219   6.167   0.855   6.316
   92CHL1   H4A 9220   6.063   0.823   6.300
   92CHL1   H4B 9221   6.229   0.786   6.252
   92CHL1    C5 9222   6.187   0.854   6.467
   92CHL1    C6 9223   6.264   0.772   6.521
   92CHL1    H6 9224   6.287   0.716   6.438
   92CHL1    C7 9225   6.310   0.750   6.662
   92CHL1   H7A 9226   6.297   0.655   6.702
   92CHL1   H7B 9227   6.417   0.768   6.680
   92CHL1    C8 9228   6.213   0.810   6.756
   92CHL1    H8 9229   6.121   0.744   6.754
   92CHL1   C14 9230   6.277   0.822   6.893
   92CHL1   H14 9231   6.368   0.882   6.880
   92CHL1   C15 9232   6.329   0.710   6.963
   92CHL1  H15A 9233   6.248   0.632   6.947
   92CHL1  H15B 9234   6.431   0.688   6.919
   92CHL1   C16 9235   6.348   0.733   7.110
   92CHL1  H16A 9236   6.299   0.658   7.174
   92CHL1  H16B 9237   6.455   0.741   7.136
   92CHL1   C17 9238   6.273   0.862   7.130
   92CHL1   H17 9239   6.347   0.942   7.125
   92CHL1   C13 9240   6.196   0.873   7.001
   92CHL1   C18 9241   6.091   0.768   7.026
   92CHL1  H18A 9242   6.052   0.764   6.924
   92CHL1  H18B 9243   6.084   0.663   7.050
   92CHL1  H18C 9244   6.030   0.813   7.105
   92CHL1   C12 9245   6.165   1.016   6.952
   92CHL1  H12A 9246   6.095   1.065   7.020
   92CHL1  H12B 9247   6.264   1.064   6.943
   92CHL1   C11 9248   6.129   1.036   6.805
   92CHL1  H11A 9249   6.054   0.971   6.816
   92CHL1  H11B 9250   6.085   1.131   6.773
   92CHL1    C9 9251   6.189   0.946   6.701
   92CHL1    H9 9252   6.288   0.993   6.690
   92CHL1   C10 9253   6.127   0.946   6.561
   92CHL1   C19 9254   5.988   0.895   6.567
   92CHL1  H19A 9255   5.964   0.800   6.618
   92CHL1  H19B 9256   5.931   0.978   6.611
   92CHL1  H19C 9257   5.950   0.880   6.463
   92CHL1    C1 9258   6.135   1.083   6.498
   92CHL1   H1A 9259   6.064   1.149   6.551
   92CHL1   H1B 9260   6.237   1.122   6.516
   92CHL1    C2 9261   6.097   1.084   6.349
   92CHL1   H2A 9262   6.089   1.187   6.312
   92CHL1   H2B 9263   5.998   1.037   6.333
   92CHL1   C20 9264   6.200   0.860   7.265
   92CHL1   H20 9265   6.135   0.768   7.271
   92CHL1   C21 9266   6.106   0.982   7.283
   92CHL1  H21A 9267   6.159   1.077   7.265
   92CHL1  H21B 9268   6.064   0.983   7.385
   92CHL1  H21C 9269   6.019   0.980   7.215
   92CHL1   C22 9270   6.302   0.849   7.379
   92CHL1  H22A 9271   6.371   0.763   7.362
   92CHL1  H22B 9272   6.362   0.942   7.384
   92CHL1   C23 9273   6.238   0.825   7.516
   92CHL1  H23A 9274   6.174   0.911   7.544
   92CHL1  H23B 9275   6.175   0.735   7.504
   92CHL1   C24 9276   6.339   0.798   7.626
   92CHL1  H24A 9277   6.375   0.694   7.612
   92CHL1  H24B 9278   6.426   0.867   7.616
   92CHL1   C25 9279   6.288   0.817   7.770
   92CHL1   H25 9280   6.272   0.927   7.781
   92CHL1   C26 9281   6.159   0.741   7.798
   92CHL1  H26A 9282   6.179   0.632   7.809
   92CHL1  H26B 9283   6.117   0.780   7.893
   92CHL1  H26C 9284   6.086   0.754   7.716
   92CHL1   C27 9285   6.393   0.773   7.874
   92CHL1  H27A 9286   6.409   0.663   7.866
   92CHL1  H27B 9287   6.488   0.824   7.850
   92CHL1  H27C 9288   6.366   0.795   7.978
   93CHL1    C3 9289   5.933   6.755   6.264
   93CHL1    H3 9290   5.826   6.725   6.275
   93CHL1    O3 9291   5.953   6.792   6.130
   93CHL1   H3' 9292   6.044   6.824   6.127
   93CHL1    C4 9293   5.953   6.877   6.355
   93CHL1   H4A 9294   6.057   6.916   6.347
   93CHL1   H4B 9295   5.881   6.952   6.316
   93CHL1    C5 9296   5.919   6.841   6.498
   93CHL1    C6 9297   5.825   6.903   6.569
   93CHL1    H6 9298   5.768   6.986   6.526
   93CHL1    C7 9299   5.797   6.872   6.714
   93CHL1   H7A 9300   5.784   6.965   6.771
   93CHL1   H7B 9301   5.701   6.817   6.710
   93CHL1    C8 9302   5.906   6.783   6.782
   93CHL1    H8 9303   5.997   6.845   6.795
   93CHL1   C14 9304   5.869   6.728   6.921
   93CHL1   H14 9305   5.770   6.678   6.907
   93CHL1   C15 9306   5.849   6.831   7.037
   93CHL1  H15A 9307   5.925   6.911   7.022
   93CHL1  H15B 9308   5.749   6.877   7.041
   93CHL1   C16 9309   5.885   6.755   7.167
   93CHL1  H16A 9310   5.971   6.803   7.218
   93CHL1  H16B 9311   5.810   6.766   7.246
   93CHL1   C17 9312   5.930   6.611   7.125
   93CHL1   H17 9313   5.851   6.538   7.114
   93CHL1   C13 9314   5.971   6.624   6.976
   93CHL1   C18 9315   6.113   6.686   6.983
   93CHL1  H18A 9316   6.110   6.781   7.041
   93CHL1  H18B 9317   6.187   6.616   7.029
   93CHL1  H18C 9318   6.149   6.711   6.883
   93CHL1   C12 9319   5.965   6.498   6.886
   93CHL1  H12A 9320   6.035   6.420   6.922
   93CHL1  H12B 9321   5.868   6.444   6.883
   93CHL1   C11 9322   5.997   6.539   6.741
   93CHL1  H11A 9323   6.103   6.563   6.736
   93CHL1  H11B 9324   5.976   6.454   6.673
   93CHL1    C9 9325   5.931   6.668   6.685
   93CHL1    H9 9326   5.828   6.634   6.660
   93CHL1   C10 9327   5.994   6.721   6.552
   93CHL1   C19 9328   6.138   6.772   6.577
   93CHL1  H19A 9329   6.198   6.697   6.629
   93CHL1  H19B 9330   6.191   6.800   6.483
   93CHL1  H19C 9331   6.140   6.857   6.648
   93CHL1    C1 9332   5.984   6.610   6.446
   93CHL1   H1A 9333   6.052   6.541   6.474
   93CHL1   H1B 9334   5.891   6.551   6.454
   93CHL1    C2 9335   6.024   6.641   6.302
   93CHL1   H2A 9336   6.007   6.552   6.237
   93CHL1   H2B 9337   6.133   6.665   6.299
   93CHL1   C20 9338   6.015   6.542   7.233
   93CHL1   H20 9339   6.111   6.597   7.243
   93CHL1   C21 9340   6.057   6.401   7.190
   93CHL1  H21A 9341   5.976   6.334   7.153
   93CHL1  H21B 9342   6.114   6.352   7.272
   93CHL1  H21C 9343   6.131   6.413   7.109
   93CHL1   C22 9344   5.958   6.550   7.378
   93CHL1  H22A 9345   6.035   6.515   7.448
   93CHL1  H22B 9346   5.929   6.652   7.404
   93CHL1   C23 9347   5.835   6.468   7.408
   93CHL1  H23A 9348   5.767   6.511   7.336
   93CHL1  H23B 9349   5.868   6.371   7.372
   93CHL1   C24 9350   5.763   6.468   7.551
   93CHL1  H24A 9351   5.848   6.438   7.614
   93CHL1  H24B 9352   5.725   6.570   7.563
   93CHL1   C25 9353   5.636   6.381   7.600
   93CHL1   H25 9354   5.667   6.275   7.599
   93CHL1   C26 9355   5.594   6.369   7.733
   93CHL1  H26A 9356   5.687   6.335   7.782
   93CHL1  H26B 9357   5.560   6.473   7.738
   93CHL1  H26C 9358   5.514   6.289   7.723
   93CHL1   C27 9359   5.493   6.401   7.547
   93CHL1  H27A 9360   5.471   6.503   7.515
   93CHL1  H27B 9361   5.506   6.356   7.459
   93CHL1  H27C 9362   5.424   6.322   7.510
   94CHL1    C3 9363   0.181   1.739   6.258
   94CHL1    H3 9364   0.240   1.829   6.262
   94CHL1    O3 9365   0.154   1.718   6.120
   94CHL1   H3' 9366   0.127   1.804   6.087
   94CHL1    C4 9367   0.275   1.627   6.319
   94CHL1   H4A 9368   0.262   1.522   6.300
   94CHL1   H4B 9369   0.359   1.616   6.249
   94CHL1    C5 9370   0.303   1.643   6.468
   94CHL1    C6 9371   0.424   1.659   6.513
   94CHL1    H6 9372   0.503   1.648   6.445
   94CHL1    C7 9373   0.463   1.664   6.655
   94CHL1   H7A 9374   0.552   1.602   6.683
   94CHL1   H7B 9375   0.487   1.770   6.658
   94CHL1    C8 9376   0.348   1.624   6.751
   94CHL1    H8 9377   0.332   1.514   6.747
   94CHL1   C14 9378   0.379   1.675   6.887
   94CHL1   H14 9379   0.381   1.786   6.874
   94CHL1   C15 9380   0.516   1.636   6.947
   94CHL1  H15A 9381   0.544   1.532   6.924
   94CHL1  H15B 9382   0.596   1.703   6.910
   94CHL1   C16 9383   0.496   1.646   7.097
   94CHL1  H16A 9384   0.504   1.544   7.138
   94CHL1  H16B 9385   0.574   1.708   7.143
   94CHL1   C17 9386   0.351   1.701   7.118
   94CHL1   H17 9387   0.360   1.811   7.107
   94CHL1   C13 9388   0.271   1.657   6.993
   94CHL1   C18 9389   0.228   1.517   7.016
   94CHL1  H18A 9390   0.321   1.471   7.035
   94CHL1  H18B 9391   0.171   1.499   7.109
   94CHL1  H18C 9392   0.185   1.456   6.934
   94CHL1   C12 9393   0.145   1.727   6.950
   94CHL1  H12A 9394   0.061   1.699   7.017
   94CHL1  H12B 9395   0.159   1.836   6.946
   94CHL1   C11 9396   0.104   1.682   6.811
   94CHL1  H11A 9397   0.057   1.581   6.815
   94CHL1  H11B 9398   0.023   1.752   6.782
   94CHL1    C9 9399   0.222   1.692   6.710
   94CHL1    H9 9400   0.244   1.800   6.701
   94CHL1   C10 9401   0.191   1.652   6.570
   94CHL1   C19 9402   0.148   1.486   6.596
   94CHL1  H19A 9403   0.218   1.407   6.589
   94CHL1  H19B 9404   0.055   1.481   6.651
   94CHL1  H19C 9405   0.103   1.424   6.511
   94CHL1    C1 9406   0.100   1.789   6.504
   94CHL1   H1A 9407   0.012   1.783   6.571
   94CHL1   H1B 9408   0.133   1.891   6.515
   94CHL1    C2 9409   0.063   1.801   6.339
   94CHL1   H2A 9410  -0.039   1.830   6.316
   94CHL1   H2B 9411   0.001   1.727   6.279
   94CHL1   C20 9412   0.293   1.669   7.255
   94CHL1   H20 9413   0.272   1.559   7.267
   94CHL1   C21 9414   0.168   1.749   7.271
   94CHL1  H21A 9415   0.136   1.755   7.376
   94CHL1  H21B 9416   0.081   1.711   7.212
   94CHL1  H21C 9417   0.183   1.856   7.250
   94CHL1   C22 9418   0.380   1.705   7.375
   94CHL1  H22A 9419   0.478   1.656   7.357
   94CHL1  H22B 9420   0.400   1.813   7.386
   94CHL1   C23 9421   0.319   1.660   7.507
   94CHL1  H23A 9422   0.248   1.580   7.511
   94CHL1  H23B 9423   0.384   1.579   7.527
   94CHL1   C24 9424   0.295   1.768   7.615
   94CHL1  H24A 9425   0.384   1.831   7.630
   94CHL1  H24B 9426   0.214   1.831   7.572
   94CHL1   C25 9427   0.246   1.718   7.754
   94CHL1   H25 9428   0.166   1.650   7.736
   94CHL1   C26 9429   0.336   1.635   7.835
   94CHL1  H26A 9430   0.334   1.544   7.776
   94CHL1  H26B 9431   0.432   1.692   7.842
   94CHL1  H26C 9432   0.316   1.586   7.928
   94CHL1   C27 9433   0.215   1.824   7.850
   94CHL1  H27A 9434   0.135   1.892   7.814
   94CHL1  H27B 9435   0.187   1.772   7.944
   94CHL1  H27C 9436   0.308   1.880   7.869
   95CHL1    C3 9437   6.057   0.216   6.271
   95CHL1    H3 9438   5.970   0.276   6.297
   95CHL1    O3 9439   6.069   0.208   6.128
   95CHL1   H3' 9440   6.050   0.296   6.098
   95CHL1    C4 9441   6.160   0.303   6.324
   95CHL1   H4A 9442   6.238   0.260   6.258
   95CHL1   H4B 9443   6.135   0.397   6.273
   95CHL1    C5 9444   6.185   0.319   6.478
   95CHL1    C6 9445   6.211   0.433   6.553
   95CHL1    H6 9446   6.230   0.536   6.517
   95CHL1    C7 9447   6.277   0.437   6.679
   95CHL1   H7A 9448   6.371   0.498   6.661
   95CHL1   H7B 9449   6.200   0.493   6.734
   95CHL1    C8 9450   6.309   0.303   6.734
   95CHL1    H8 9451   6.406   0.267   6.699
   95CHL1   C14 9452   6.304   0.311   6.879
   95CHL1   H14 9453   6.200   0.337   6.911
   95CHL1   C15 9454   6.343   0.430   6.942
   95CHL1  H15A 9455   6.425   0.478   6.882
   95CHL1  H15B 9456   6.375   0.516   6.907
   95CHL1   C16 9457   6.344   0.408   7.089
   95CHL1  H16A 9458   6.419   0.477   7.114
   95CHL1  H16B 9459   6.300   0.469   7.166
   95CHL1   C17 9460   6.348   0.248   7.102
   95CHL1   H17 9461   6.245   0.246   7.140
   95CHL1   C13 9462   6.358   0.194   6.954
   95CHL1   C18 9463   6.491   0.128   6.902
   95CHL1  H18A 9464   6.569   0.129   6.982
   95CHL1  H18B 9465   6.498   0.092   6.799
   95CHL1  H18C 9466   6.570   0.171   6.840
   95CHL1   C12 9467   6.259   0.088   6.929
   95CHL1  H12A 9468   6.306  -0.004   6.969
   95CHL1  H12B 9469   6.168   0.117   6.983
   95CHL1   C11 9470   6.240   0.071   6.778
   95CHL1  H11A 9471   6.332   0.025   6.739
   95CHL1  H11B 9472   6.154   0.004   6.765
   95CHL1    C9 9473   6.213   0.200   6.696
   95CHL1    H9 9474   6.117   0.242   6.733
   95CHL1   C10 9475   6.204   0.184   6.544
   95CHL1   C19 9476   6.324   0.103   6.491
   95CHL1  H19A 9477   6.414   0.130   6.547
   95CHL1  H19B 9478   6.325  -0.002   6.514
   95CHL1  H19C 9479   6.339   0.118   6.381
   95CHL1    C1 9480   6.083   0.106   6.499
   95CHL1   H1A 9481   6.101   0.006   6.544
   95CHL1   H1B 9482   5.993   0.152   6.543
   95CHL1    C2 9483   6.070   0.085   6.347
   95CHL1   H2A 9484   5.976   0.032   6.326
   95CHL1   H2B 9485   6.156   0.023   6.312
   95CHL1   C20 9486   6.424   0.166   7.216
   95CHL1   H20 9487   6.535   0.150   7.192
   95CHL1   C21 9488   6.377   0.033   7.238
   95CHL1  H21A 9489   6.269   0.042   7.250
   95CHL1  H21B 9490   6.434  -0.011   7.324
   95CHL1  H21C 9491   6.408  -0.005   7.141
   95CHL1   C22 9492   6.411   0.228   7.350
   95CHL1  H22A 9493   6.416   0.326   7.304
   95CHL1  H22B 9494   6.323   0.273   7.393
   95CHL1   C23 9495   6.514   0.173   7.459
   95CHL1  H23A 9496   6.464   0.084   7.496
   95CHL1  H23B 9497   6.615   0.161   7.412
   95CHL1   C24 9498   6.540   0.241   7.597
   95CHL1  H24A 9499   6.627   0.303   7.575
   95CHL1  H24B 9500   6.454   0.303   7.631
   95CHL1   C25 9501   6.654   0.213   7.694
   95CHL1   H25 9502   6.692   0.122   7.647
   95CHL1   C26 9503   6.776   0.311   7.713
   95CHL1  H26A 9504   6.861   0.246   7.743
   95CHL1  H26B 9505   6.812   0.370   7.626
   95CHL1  H26C 9506   6.755   0.383   7.794
   95CHL1   C27 9507   6.576   0.200   7.821
   95CHL1  H27A 9508   6.643   0.169   7.902
   95CHL1  H27B 9509   6.525   0.296   7.846
   95CHL1  H27C 9510   6.496   0.125   7.800
   96CHL1    C3 9511   6.695   7.002   6.265
   96CHL1    H3 9512   6.586   7.023   6.273
   96CHL1    O3 9513   6.726   7.009   6.129
   96CHL1   H3' 9514   6.638   7.001   6.090
   96CHL1    C4 9515   6.778   7.109   6.333
   96CHL1   H4A 9516   6.884   7.075   6.320
   96CHL1   H4B 9517   6.761   7.202   6.276
   96CHL1    C5 9518   6.741   7.124   6.478
   96CHL1    C6 9519   6.697   7.237   6.536
   96CHL1    H6 9520   6.690   7.329   6.478
   96CHL1    C7 9521   6.667   7.251   6.682
   96CHL1   H7A 9522   6.723   7.340   6.719
   96CHL1   H7B 9523   6.560   7.270   6.704
   96CHL1    C8 9524   6.711   7.131   6.769
   96CHL1    H8 9525   6.804   7.168   6.803
   96CHL1   C14 9526   6.651   7.121   6.904
   96CHL1   H14 9527   6.543   7.110   6.881
   96CHL1   C15 9528   6.678   7.240   6.991
   96CHL1  H15A 9529   6.768   7.301   6.973
   96CHL1  H15B 9530   6.600   7.294   6.954
   96CHL1   C16 9531   6.638   7.196   7.130
   96CHL1  H16A 9532   6.704   7.238   7.206
   96CHL1  H16B 9533   6.535   7.216   7.154
   96CHL1   C17 9534   6.625   7.042   7.129
   96CHL1   H17 9535   6.519   7.018   7.115
   96CHL1   C13 9536   6.683   7.007   6.998
   96CHL1   C18 9537   6.817   7.019   7.050
   96CHL1  H18A 9538   6.868   6.940   7.103
   96CHL1  H18B 9539   6.855   7.007   6.954
   96CHL1  H18C 9540   6.859   7.115   7.089
   96CHL1   C12 9541   6.648   6.877   6.926
   96CHL1  H12A 9542   6.687   6.786   6.974
   96CHL1  H12B 9543   6.541   6.875   6.912
   96CHL1   C11 9544   6.681   6.871   6.777
   96CHL1  H11A 9545   6.776   6.870   6.791
   96CHL1  H11B 9546   6.690   6.772   6.733
   96CHL1    C9 9547   6.687   7.002   6.695
   96CHL1    H9 9548   6.578   7.007   6.679
   96CHL1   C10 9549   6.749   6.996   6.553
   96CHL1   C19 9550   6.888   6.947   6.554
   96CHL1  H19A 9551   6.957   7.021   6.581
   96CHL1  H19B 9552   6.901   6.861   6.622
   96CHL1  H19C 9553   6.941   6.923   6.462
   96CHL1    C1 9554   6.683   6.886   6.478
   96CHL1   H1A 9555   6.728   6.807   6.541
   96CHL1   H1B 9556   6.574   6.887   6.494
   96CHL1    C2 9557   6.718   6.866   6.329
   96CHL1   H2A 9558   6.647   6.797   6.279
   96CHL1   H2B 9559   6.818   6.820   6.316
   96CHL1   C20 9560   6.678   6.978   7.259
   96CHL1   H20 9561   6.789   6.992   7.277
   96CHL1   C21 9562   6.651   6.828   7.255
   96CHL1  H21A 9563   6.714   6.779   7.181
   96CHL1  H21B 9564   6.547   6.802   7.232
   96CHL1  H21C 9565   6.675   6.782   7.352
   96CHL1   C22 9566   6.612   7.037   7.384
   96CHL1  H22A 9567   6.603   7.147   7.373
   96CHL1  H22B 9568   6.511   6.993   7.398
   96CHL1   C23 9569   6.693   7.008   7.509
   96CHL1  H23A 9570   6.690   6.898   7.525
   96CHL1  H23B 9571   6.798   7.037   7.490
   96CHL1   C24 9572   6.640   7.082   7.633
   96CHL1  H24A 9573   6.654   7.190   7.617
   96CHL1  H24B 9574   6.530   7.063   7.641
   96CHL1   C25 9575   6.711   7.041   7.764
   96CHL1   H25 9576   6.820   7.027   7.743
   96CHL1   C26 9577   6.689   7.131   7.882
   96CHL1  H26A 9578   6.688   7.238   7.855
   96CHL1  H26B 9579   6.592   7.105   7.928
   96CHL1  H26C 9580   6.769   7.107   7.955
   96CHL1   C27 9581   6.648   6.915   7.818
   96CHL1  H27A 9582   6.540   6.924   7.826
   96CHL1  H27B 9583   6.663   6.857   7.733
   96CHL1  H27C 9584   6.693   6.867   7.907
   97OSM      N 9585   3.117   2.911  10.289
   97OSM    C15 9586   3.065   2.812  10.387
   97OSM   H15A 9587   3.060   2.714  10.341
   97OSM   H15B 9588   2.964   2.838  10.416
   97OSM   H15C 9589   3.130   2.809  10.474
   97OSM    C14 9590   3.022   2.905  10.176
   97OSM   H14A 9591   2.925   2.930  10.214
   97OSM   H14B 9592   3.027   2.805  10.133
   97OSM   H14C 9593   3.049   2.977  10.098
   97OSM    C13 9594   3.112   3.049  10.349
   97OSM   H13A 9595   3.025   3.061  10.411
   97OSM   H13B 9596   3.114   3.126  10.271
   97OSM   H13C 9597   3.198   3.064  10.412
   97OSM    C12 9598   3.257   2.878  10.242
   97OSM   H12A 9599   3.256   2.784  10.187
   97OSM   H12B 9600   3.320   2.872  10.329
   97OSM    C11 9601   3.330   2.977  10.148
   97OSM   H11A 9602   3.431   2.932  10.125
   97OSM   H11B 9603   3.347   3.072  10.203
   97OSM      P 9604   3.276   2.921   9.901
   97OSM    O13 9605   3.397   2.966   9.831
   97OSM    O14 9606   3.270   2.778   9.937
   97OSM    O11 9607   3.146   2.955   9.818
   97OSM    O12 9608   3.254   3.007  10.032
   97OSM    C1S 9609   3.096   3.081   9.777
   97OSM    H1S 9610   3.166   3.166   9.796
   97OSM    H1T 9611   3.005   3.105   9.836
   97OSM     NF 9612   3.031   3.192   9.571
   97OSM    HNF 9613   2.937   3.222   9.549
   97OSM    C2S 9614   3.059   3.065   9.626
   97OSM    H2S 9615   3.147   3.027   9.570
   97OSM    C3S 9616   2.940   2.969   9.604
   97OSM    H3S 9617   2.851   3.006   9.659
   97OSM     O3 9618   2.962   2.834   9.647
   97OSM    HO3 9619   3.052   2.832   9.683
   97OSM    C4S 9620   2.909   2.970   9.456
   97OSM    H4S 9621   2.841   3.050   9.421
   97OSM    C5S 9622   2.954   2.879   9.368
   97OSM    H5S 9623   2.998   2.785   9.405
   97OSM    C6S 9624   2.924   2.882   9.223
   97OSM    H6S 9625   2.834   2.943   9.203
   97OSM    H6T 9626   2.903   2.779   9.193
   97OSM    C7S 9627   3.041   2.927   9.133
   97OSM    H7S 9628   3.127   2.859   9.149
   97OSM    H7T 9629   3.073   3.030   9.159
   97OSM    C8S 9630   2.993   2.920   8.987
   97OSM    H8S 9631   2.892   2.968   8.989
   97OSM    H8T 9632   2.978   2.813   8.958
   97OSM    C9S 9633   3.067   3.008   8.884
   97OSM    H9S 9634   3.081   3.108   8.929
   97OSM    H9T 9635   2.999   3.027   8.801
   97OSM   C10S 9636   3.197   2.959   8.821
   97OSM   H10S 9637   3.275   2.959   8.900
   97OSM   H10T 9638   3.235   3.031   8.744
   97OSM   C11S 9639   3.185   2.819   8.761
   97OSM   H11S 9640   3.156   2.751   8.845
   97OSM   H11T 9641   3.284   2.787   8.723
   97OSM   C12S 9642   3.080   2.801   8.650
   97OSM   H12S 9643   2.981   2.812   8.698
   97OSM   H12T 9644   3.085   2.698   8.611
   97OSM   C13S 9645   3.091   2.896   8.530
   97OSM   H13S 9646   3.196   2.926   8.516
   97OSM   H13T 9647   3.043   2.994   8.554
   97OSM   C14S 9648   3.044   2.831   8.397
   97OSM   H14S 9649   3.023   2.911   8.322
   97OSM   H14T 9650   2.949   2.776   8.410
   97OSM   C15S 9651   3.153   2.744   8.339
   97OSM   H15S 9652   3.176   2.664   8.413
   97OSM   H15T 9653   3.240   2.812   8.327
   97OSM   C16S 9654   3.126   2.666   8.212
   97OSM   H16S 9655   3.045   2.597   8.228
   97OSM   H16T 9656   3.217   2.607   8.191
   97OSM   C17S 9657   3.099   2.742   8.086
   97OSM   H17S 9658   3.202   2.780   8.070
   97OSM   H17T 9659   3.035   2.833   8.099
   97OSM   C18S 9660   3.040   2.657   7.969
   97OSM   H18S 9661   3.090   2.559   7.964
   97OSM   H18T 9662   3.050   2.695   7.867
   97OSM   H18U 9663   2.929   2.660   7.972
   97OSM    C1F 9664   3.140   3.269   9.558
   97OSM     OF 9665   3.254   3.235   9.562
   97OSM    C2F 9666   3.118   3.401   9.533
   97OSM    H2F 9667   3.108   3.452   9.627
   97OSM    H2G 9668   3.013   3.380   9.497
   97OSM    C3F 9669   3.214   3.477   9.436
   97OSM    H3F 9670   3.312   3.511   9.472
   97OSM    H3G 9671   3.195   3.578   9.390
   97OSM    C4F 9672   3.192   3.387   9.315
   97OSM    H4F 9673   3.248   3.307   9.342
   97OSM    H4G 9674   3.231   3.456   9.258
   97OSM    C5F 9675   3.091   3.342   9.199
   97OSM    H5F 9676   3.040   3.285   9.276
   97OSM    H5G 9677   3.100   3.248   9.139
   97OSM    C6F 9678   3.033   3.456   9.106
   97OSM    H6F 9679   3.016   3.553   9.154
   97OSM    H6G 9680   2.953   3.385   9.094
   97OSM    C7F 9681   3.028   3.515   8.971
   97OSM    H7F 9682   3.127   3.499   8.994
   97OSM    H7G 9683   2.986   3.620   8.970
   97OSM    C8F 9684   3.042   3.430   8.858
   97OSM    H8F 9685   3.099   3.340   8.884
   97OSM    H8G 9686   3.079   3.490   8.774
   97OSM    C9F 9687   2.919   3.369   8.837
   97OSM    H9F 9688   2.870   3.313   8.918
   97OSM   C10F 9689   2.870   3.379   8.720
   97OSM   H10F 9690   2.789   3.318   8.703
   97OSM   C11F 9691   2.889   3.434   8.586
   97OSM   H11F 9692   2.887   3.543   8.591
   97OSM   H11G 9693   2.802   3.408   8.519
   97OSM   C12F 9694   2.995   3.352   8.528
   97OSM   H12F 9695   2.963   3.244   8.536
   97OSM   H12G 9696   3.083   3.366   8.593
   97OSM   C13F 9697   3.009   3.399   8.386
   97OSM   H13F 9698   3.033   3.508   8.386
   97OSM   H13G 9699   2.914   3.393   8.329
   97OSM   C14F 9700   3.117   3.323   8.312
   97OSM   H14F 9701   3.208   3.317   8.377
   97OSM   H14G 9702   3.136   3.384   8.221
   97OSM   C15F 9703   3.082   3.182   8.270
   97OSM   H15F 9704   2.971   3.181   8.266
   97OSM   H15G 9705   3.117   3.105   8.341
   97OSM   C16F 9706   3.143   3.141   8.137
   97OSM   H16F 9707   3.090   3.192   8.054
   97OSM   H16G 9708   3.124   3.033   8.129
   97OSM   C17F 9709   3.293   3.168   8.126
   97OSM   H17F 9710   3.307   3.276   8.128
   97OSM   H17G 9711   3.331   3.139   8.026
   97OSM   C18F 9712   3.375   3.098   8.234
   97OSM   H18F 9713   3.347   2.991   8.234
   97OSM   H18G 9714   3.351   3.139   8.335
   97OSM   H18H 9715   3.485   3.105   8.215
   98OSM      N 9716   2.642   2.746  10.145
   98OSM    C15 9717   2.740   2.639  10.171
   98OSM   H15A 9718   2.741   2.610  10.276
   98OSM   H15B 9719   2.839   2.659  10.134
   98OSM   H15C 9720   2.713   2.550  10.113
   98OSM    C14 9721   2.663   2.852  10.247
   98OSM   H14A 9722   2.627   2.816  10.342
   98OSM   H14B 9723   2.607   2.943  10.224
   98OSM   H14C 9724   2.768   2.874  10.257
   98OSM    C13 9725   2.674   2.802  10.011
   98OSM   H13A 9726   2.640   2.736   9.931
   98OSM   H13B 9727   2.781   2.815  10.001
   98OSM   H13C 9728   2.624   2.898  10.001
   98OSM    C12 9729   2.502   2.686  10.140
   98OSM   H12A 9730   2.498   2.591  10.194
   98OSM   H12B 9731   2.484   2.653  10.038
   98OSM    C11 9732   2.380   2.776  10.177
   98OSM   H11A 9733   2.386   2.797  10.283
   98OSM   H11B 9734   2.289   2.713  10.163
   98OSM      P 9735   2.234   2.948  10.041
   98OSM    O13 9736   2.117   2.908  10.121
   98OSM    O14 9737   2.241   3.089   9.996
   98OSM    O11 9738   2.234   2.853   9.914
   98OSM    O12 9739   2.372   2.903  10.113
   98OSM    C1S 9740   2.353   2.839   9.836
   98OSM    H1S 9741   2.421   2.766   9.884
   98OSM    H1T 9742   2.410   2.934   9.823
   98OSM     NF 9743   2.442   2.754   9.636
   98OSM    HNF 9744   2.481   2.814   9.568
   98OSM    C2S 9745   2.321   2.781   9.697
   98OSM    H2S 9746   2.266   2.685   9.713
   98OSM    C3S 9747   2.244   2.873   9.605
   98OSM    H3S 9748   2.302   2.968   9.594
   98OSM     O3 9749   2.114   2.896   9.652
   98OSM    HO3 9750   2.111   2.846   9.735
   98OSM    C4S 9751   2.234   2.806   9.469
   98OSM    H4S 9752   2.181   2.710   9.470
   98OSM    C5S 9753   2.294   2.849   9.357
   98OSM    H5S 9754   2.364   2.934   9.365
   98OSM    C6S 9755   2.284   2.781   9.221
   98OSM    H6S 9756   2.317   2.676   9.232
   98OSM    H6T 9757   2.354   2.825   9.147
   98OSM    C7S 9758   2.147   2.781   9.151
   98OSM    H7S 9759   2.129   2.881   9.113
   98OSM    H7T 9760   2.066   2.763   9.225
   98OSM    C8S 9761   2.144   2.672   9.042
   98OSM    H8S 9762   2.142   2.576   9.095
   98OSM    H8T 9763   2.230   2.675   8.971
   98OSM    C9S 9764   2.021   2.662   8.958
   98OSM    H9S 9765   1.934   2.671   9.029
   98OSM    H9T 9766   2.007   2.561   8.914
   98OSM   C10S 9767   2.036   2.768   8.848
   98OSM   H10S 9768   2.057   2.867   8.888
   98OSM   H10T 9769   1.944   2.774   8.796
   98OSM   C11S 9770   2.124   2.758   8.731
   98OSM   H11S 9771   2.225   2.768   8.759
   98OSM   H11T 9772   2.111   2.841   8.655
   98OSM   C12S 9773   2.104   2.625   8.672
   98OSM   H12S 9774   2.003   2.603   8.672
   98OSM   H12T 9775   2.089   2.534   8.731
   98OSM   C13S 9776   2.174   2.619   8.537
   98OSM   H13S 9777   2.160   2.509   8.525
   98OSM   H13T 9778   2.270   2.653   8.578
   98OSM   C14S 9779   2.129   2.710   8.411
   98OSM   H14S 9780   2.109   2.812   8.436
   98OSM   H14T 9781   2.041   2.660   8.368
   98OSM   C15S 9782   2.200   2.746   8.281
   98OSM   H15S 9783   2.303   2.778   8.288
   98OSM   H15T 9784   2.176   2.760   8.171
   98OSM   C16S 9785   2.210   2.626   8.237
   98OSM   H16S 9786   2.097   2.572   8.200
   98OSM   H16T 9787   2.174   2.522   8.317
   98OSM   C17S 9788   2.482   2.598   8.175
   98OSM   H17S 9789   2.480   2.714   8.100
   98OSM   H17T 9790   2.562   2.473   8.059
   98OSM   C18S 9791   2.558   2.613   8.237
   98OSM   H18S 9792   2.527   2.543   8.306
   98OSM   H18T 9793   2.518   2.705   8.251
   98OSM   H18U 9794   2.612   2.584   8.143
   98OSM    C1F 9795   2.509   2.655   9.670
   98OSM     OF 9796   2.470   2.562   9.739
   98OSM    C2F 9797   2.633   2.675   9.615
   98OSM    H2F 9798   2.704   2.666   9.701
   98OSM    H2G 9799   2.667   2.769   9.560
   98OSM    C3F 9800   2.608   2.568   9.510
   98OSM    H3F 9801   2.617   2.456   9.511
   98OSM    H3G 9802   2.702   2.610   9.498
   98OSM    C4F 9803   2.538   2.583   9.391
   98OSM    H4F 9804   2.578   2.670   9.338
   98OSM    H4G 9805   2.440   2.560   9.434
   98OSM    C5F 9806   2.543   2.483   9.295
   98OSM    H5F 9807   2.448   2.432   9.274
   98OSM    H5G 9808   2.596   2.388   9.339
   98OSM    C6F 9809   2.589   2.560   9.155
   98OSM    H6F 9810   2.578   2.485   9.080
   98OSM    H6G 9811   2.689   2.587   9.120
   98OSM    C7F 9812   2.531   2.655   9.065
   98OSM    H7F 9813   2.572   2.730   9.137
   98OSM    H7G 9814   2.436   2.596   9.077
   98OSM    C8F 9815   2.613   2.662   8.932
   98OSM    H8F 9816   2.633   2.570   8.874
   98OSM    H8G 9817   2.716   2.702   8.953
   98OSM    C9F 9818   2.528   2.738   8.841
   98OSM    H9F 9819   2.439   2.679   8.812
   98OSM   C10F 9820   2.554   2.859   8.791
   98OSM   H10F 9821   2.482   2.909   8.726
   98OSM   C11F 9822   2.675   2.943   8.815
   98OSM   H11F 9823   2.734   2.903   8.899
   98OSM   H11G 9824   2.647   3.048   8.836
   98OSM   C12F 9825   2.761   2.939   8.690
   98OSM   H12F 9826   2.788   2.832   8.674
   98OSM   H12G 9827   2.855   2.989   8.707
   98OSM   C13F 9828   2.710   3.013   8.565
   98OSM   H13F 9829   2.726   3.122   8.576
   98OSM   H13G 9830   2.603   2.992   8.551
   98OSM   C14F 9831   2.782   2.964   8.441
   98OSM   H14F 9832   2.770   2.855   8.429
   98OSM   H14G 9833   2.885   2.986   8.465
   98OSM   C15F 9834   2.769   3.042   8.311
   98OSM   H15F 9835   2.857   3.020   8.245
   98OSM   H15G 9836   2.775   3.150   8.336
   98OSM   C16F 9837   2.643   3.002   8.234
   98OSM   H16F 9838   2.557   3.045   8.290
   98OSM   H16G 9839   2.635   2.891   8.236
   98OSM   C17F 9840   2.643   3.039   8.085
   98OSM   H17F 9841   2.552   3.002   8.033
   98OSM   H17G 9842   2.729   2.989   8.036
   98OSM   C18F 9843   2.653   3.190   8.071
   98OSM   H18F 9844   2.759   3.223   8.080
   98OSM   H18G 9845   2.592   3.233   8.153
   98OSM   H18H 9846   2.613   3.230   7.976
   99OSM      N 9847   3.095   1.997  10.151
   99OSM    C15 9848   3.076   1.983  10.297
   99OSM   H15A 9849   2.996   2.049  10.324
   99OSM   H15B 9850   3.167   2.006  10.350
   99OSM   H15C 9851   3.051   1.880  10.325
   99OSM    C14 9852   3.191   1.902  10.106
   99OSM   H14A 9853   3.208   1.907   9.998
   99OSM   H14B 9854   3.160   1.798  10.125
   99OSM   H14C 9855   3.289   1.908  10.150
   99OSM    C13 9856   2.965   1.969  10.083
   99OSM   H13A 9857   2.935   1.867  10.094
   99OSM   H13B 9858   2.964   1.998   9.977
   99OSM   H13C 9859   2.894   2.034  10.131
   99OSM    C12 9860   3.145   2.134  10.114
   99OSM   H12A 9861   3.170   2.132  10.007
   99OSM   H12B 9862   3.234   2.155  10.171
   99OSM    C11 9863   3.049   2.251  10.137
   99OSM   H11A 9864   3.104   2.347  10.137
   99OSM   H11B 9865   2.999   2.233  10.236
   99OSM      P 9866   2.815   2.313  10.048
   99OSM    O13 9867   2.722   2.204  10.015
   99OSM    O14 9868   2.806   2.369  10.185
   99OSM    O11 9869   2.800   2.436   9.948
   99OSM    O12 9870   2.958   2.254  10.029
   99OSM    C1S 9871   2.909   2.480   9.867
   99OSM    H1S 9872   3.009   2.452   9.908
   99OSM    H1T 9873   2.912   2.591   9.858
   99OSM     NF 9874   3.013   2.434   9.656
   99OSM    HNF 9875   3.007   2.478   9.563
   99OSM    C2S 9876   2.904   2.419   9.724
   99OSM    H2S 9877   2.872   2.309   9.729
   99OSM    C3S 9878   2.820   2.471   9.638
   99OSM    H3S 9879   2.846   2.582   9.627
   99OSM     O3 9880   2.696   2.417   9.698
   99OSM    HO3 9881   2.673   2.442   9.789
   99OSM    C4S 9882   2.843   2.434   9.478
   99OSM    H4S 9883   2.813   2.332   9.464
   99OSM    C5S 9884   2.853   2.525   9.372
   99OSM    H5S 9885   2.821   2.635   9.376
   99OSM    C6S 9886   2.865   2.503   9.231
   99OSM    H6S 9887   2.959   2.466   9.219
   99OSM    H6T 9888   2.850   2.604   9.191
   99OSM    C7S 9889   2.797   2.388   9.162
   99OSM    H7S 9890   2.709   2.397   9.200
   99OSM    H7T 9891   2.754   2.305   9.207
   99OSM    C8S 9892   2.770   2.394   9.013
   99OSM    H8S 9893   2.770   2.488   8.965
   99OSM    H8T 9894   2.674   2.369   8.970
   99OSM    C9S 9895   2.846   2.286   8.970
   99OSM    H9S 9896   2.801   2.191   9.003
   99OSM    H9T 9897   2.935   2.309   9.029
   99OSM   C10S 9898   2.859   2.303   8.827
   99OSM   H10S 9899   2.902   2.206   8.800
   99OSM   H10T 9900   2.903   2.397   8.793
   99OSM   C11S 9901   2.736   2.308   8.756
   99OSM   H11S 9902   2.670   2.393   8.785
   99OSM   H11T 9903   2.681   2.214   8.788
   99OSM   C12S 9904   2.759   2.296   8.604
   99OSM   H12S 9905   2.674   2.235   8.602
   99OSM   H12T 9906   2.695   2.311   8.525
   99OSM   C13S 9907   2.835   2.356   8.484
   99OSM   H13S 9908   2.921   2.337   8.546
   99OSM   H13T 9909   2.786   2.462   8.484
   99OSM   C14S 9910   2.853   2.266   8.343
   99OSM   H14S 9911   2.843   2.154   8.329
   99OSM   H14T 9912   2.949   2.296   8.309
   99OSM   C15S 9913   2.778   2.286   8.222
   99OSM   H15S 9914   2.701   2.204   8.219
   99OSM   H15T 9915   2.763   2.229   8.134
   99OSM   C16S 9916   2.744   2.425   8.247
   99OSM   H16S 9917   2.677   2.448   8.336
   99OSM   H16T 9918   2.699   2.419   8.147
   99OSM   C17S 9919   2.836   2.531   8.225
   99OSM   H17S 9920   2.888   2.482   8.142
   99OSM   H17T 9921   2.870   2.530   8.328
   99OSM   C18S 9922   2.803   2.675   8.191
   99OSM   H18S 9923   2.886   2.737   8.191
   99OSM   H18T 9924   2.741   2.722   8.272
   99OSM   H18U 9925   2.748   2.674   8.092
   99OSM    C1F 9926   3.093   2.343   9.691
   99OSM     OF 9927   3.080   2.275   9.787
   99OSM    C2F 9928   3.197   2.334   9.602
   99OSM    H2F 9929   3.204   2.456   9.629
   99OSM    H2G 9930   3.154   2.360   9.517
   99OSM    C3F 9931   3.352   2.228   9.562
   99OSM    H3F 9932   3.470   2.266   9.624
   99OSM    H3G 9933   3.479   2.288   9.529
   99OSM    C4F 9934   3.313   2.103   9.480
   99OSM    H4F 9935   3.204   2.087   9.500
   99OSM    H4G 9936   3.337   1.998   9.514
   99OSM    C5F 9937   3.321   2.121   9.328
   99OSM    H5F 9938   3.422   2.143   9.294
   99OSM    H5G 9939   3.276   2.206   9.282
   99OSM    C6F 9940   3.208   2.063   9.254
   99OSM    H6F 9941   3.122   2.035   9.318
   99OSM    H6G 9942   3.287   1.991   9.254
   99OSM    C7F 9943   3.172   2.120   9.114
   99OSM    H7F 9944   3.155   2.225   9.115
   99OSM    H7G 9945   3.073   2.076   9.096
   99OSM    C8F 9946   3.258   2.099   8.990
   99OSM    H8F 9947   3.366   2.104   9.033
   99OSM    H8G 9948   3.271   2.162   8.910
   99OSM    C9F 9949   3.201   1.980   8.912
   99OSM    H9F 9950   3.230   1.904   8.953
   99OSM   C10F 9951   3.142   1.924   8.809
   99OSM   H10F 9952   3.170   1.814   8.795
   99OSM   C11F 9953   3.104   2.008   8.698
   99OSM   H11F 9954   3.127   2.112   8.735
   99OSM   H11G 9955   3.003   1.966   8.682
   99OSM   C12F 9956   3.164   1.978   8.561
   99OSM   H12F 9957   3.102   2.010   8.472
   99OSM   H12G 9958   3.202   1.870   8.554
   99OSM   C13F 9959   3.276   2.071   8.530
   99OSM   H13F 9960   3.333   2.033   8.617
   99OSM   H13G 9961   3.322   2.162   8.566
   99OSM   C14F 9962   3.307   2.066   8.380
   99OSM   H14F 9963   3.253   1.997   8.316
   99OSM   H14G 9964   3.373   1.991   8.356
   99OSM   C15F 9965   3.348   2.199   8.323
   99OSM   H15F 9966   3.406   2.186   8.230
   99OSM   H15G 9967   3.408   2.264   8.392
   99OSM   C16F 9968   3.217   2.254   8.294
   99OSM   H16F 9969   3.231   2.362   8.284
   99OSM   H16G 9970   3.147   2.229   8.378
   99OSM   C17F 9971   3.171   2.197   8.163
   99OSM   H17F 9972   3.068   2.239   8.162
   99OSM   H17G 9973   3.157   2.087   8.159
   99OSM   C18F 9974   3.265   2.236   8.044
   99OSM   H18F 9975   3.232   2.199   7.944
   99OSM   H18G 9976   3.359   2.183   8.044
   99OSM   H18H 9977   3.266   2.348   8.036
  100OSM      N 9978   5.726   3.761  10.223
  100OSM    C15 9979   5.773   3.706  10.352
  100OSM   H15A 9980   5.870   3.748  10.375
  100OSM   H15B 9981   5.779   3.598  10.350
  100OSM   H15C 9982   5.700   3.735  10.427
  100OSM    C14 9983   5.813   3.705  10.115
  100OSM   H14A 9984   5.804   3.598  10.107
  100OSM   H14B 9985   5.917   3.733  10.134
  100OSM   H14C 9986   5.787   3.750  10.019
  100OSM    C13 9987   5.584   3.721  10.196
  100OSM   H13A 9988   5.517   3.752  10.275
  100OSM   H13B 9989   5.569   3.614  10.179
  100OSM   H13C 9990   5.551   3.772  10.107
  100OSM    C12 9991   5.740   3.913  10.231
  100OSM   H12A 9992   5.842   3.946  10.256
  100OSM   H12B 9993   5.685   3.947  10.318
  100OSM    C11 9994   5.692   3.993  10.107
  100OSM   H11A 9995   5.686   4.101  10.128
  100OSM   H11B 9996   5.588   3.965  10.085
  100OSM      P 9997   5.914   4.043   9.981
  100OSM    O13 9998   5.899   4.189  10.008
  100OSM    O14 9999   6.007   3.968  10.068
  100OSM    O1110000   5.956   4.017   9.831
  100OSM    O1210001   5.772   3.970   9.992
  100OSM    C1S10002   5.887   3.926   9.744
  100OSM    H1S10003   5.778   3.942   9.750
  100OSM    H1T10004   5.911   3.819   9.769
  100OSM     NF10005   5.854   3.885   9.496
  100OSM    HNF10006   5.905   3.819   9.442
  100OSM    C2S10007   5.933   3.952   9.598
  100OSM    H2S10008   5.927   4.063   9.581
  100OSM    C3S10009   6.081   3.911   9.582
  100OSM    H3S10010   6.076   3.806   9.544
  100OSM     O310011   6.161   3.913   9.701
  100OSM    HO310012   6.099   3.932   9.773
  100OSM    C4S10013   6.139   3.995   9.472
  100OSM    H4S10014   6.112   3.962   9.371
  100OSM    C5S10015   6.215   4.105   9.483
  100OSM    H5S10016   6.241   4.148   9.582
  100OSM    C6S10017   6.268   4.181   9.366
  100OSM    H6S10018   6.374   4.161   9.354
  100OSM    H6T10019   6.255   4.287   9.396
  100OSM    C7S10020   6.232   4.151   9.218
  100OSM    H7S10021   6.234   4.047   9.190
  100OSM    H7T10022   6.303   4.207   9.151
  100OSM    C8S10023   6.090   4.188   9.198
  100OSM    H8S10024   6.133   4.278   9.232
  100OSM    H8T10025   6.015   4.181   9.277
  100OSM    C9S10026   6.024   4.167   9.061
  100OSM    H9S10027   5.914   4.171   9.079
  100OSM    H9T10028   6.058   4.065   9.036
  100OSM   C10S10029   6.057   4.252   8.938
  100OSM   H10S10030   6.162   4.290   8.940
  100OSM   H10T10031   5.987   4.336   8.937
  100OSM   C11S10032   6.026   4.181   8.806
  100OSM   H11S10033   6.090   4.094   8.790
  100OSM   H11T10034   6.064   4.245   8.727
  100OSM   C12S10035   5.877   4.152   8.777
  100OSM   H12S10036   5.815   4.245   8.778
  100OSM   H12T10037   5.827   4.096   8.856
  100OSM   C13S10038   5.864   4.084   8.639
  100OSM   H13S10039   5.917   3.989   8.630
  100OSM   H13T10040   5.922   4.143   8.564
  100OSM   C14S10041   5.715   4.078   8.600
  100OSM   H14S10042   5.674   4.179   8.596
  100OSM   H14T10043   5.654   4.045   8.686
  100OSM   C15S10044   5.678   3.999   8.475
  100OSM   H15S10045   5.696   3.897   8.506
  100OSM   H15T10046   5.741   4.012   8.386
  100OSM   C16S10047   5.532   4.018   8.435
  100OSM   H16S10048   5.511   4.122   8.405
  100OSM   H16T10049   5.473   3.991   8.525
  100OSM   C17S10050   5.480   3.931   8.322
  100OSM   H17S10051   5.371   3.917   8.334
  100OSM   H17T10052   5.523   3.833   8.334
  100OSM   C18S10053   5.510   3.981   8.182
  100OSM   H18S10054   5.619   3.996   8.165
  100OSM   H18T10055   5.459   4.078   8.167
  100OSM   H18U10056   5.473   3.907   8.108
  100OSM    C1F10057   5.725   3.904   9.469
  100OSM     OF10058   5.654   3.974   9.539
  100OSM    C2F10059   5.670   3.833   9.348
  100OSM    H2F10060   5.570   3.792   9.373
  100OSM    H2G10061   5.736   3.746   9.324
  100OSM    C3F10062   5.668   3.927   9.226
  100OSM    H3F10063   5.769   3.972   9.214
  100OSM    H3G10064   5.598   4.012   9.240
  100OSM    C4F10065   5.627   3.866   9.092
  100OSM    H4F10066   5.631   3.945   9.013
  100OSM    H4G10067   5.523   3.828   9.100
  100OSM    C5F10068   5.708   3.745   9.046
  100OSM    H5F10069   5.685   3.719   8.943
  100OSM    H5G10070   5.672   3.659   9.105
  100OSM    C6F10071   5.859   3.754   9.048
  100OSM    H6F10072   5.885   3.759   9.156
  100OSM    H6G10073   5.891   3.851   9.003
  100OSM    C7F10074   5.924   3.627   8.986
  100OSM    H7F10075   5.867   3.537   9.020
  100OSM    H7G10076   6.028   3.616   9.019
  100OSM    C8F10077   5.923   3.605   8.835
  100OSM    H8F10078   5.824   3.570   8.817
  100OSM    H8G10079   5.953   3.503   8.805
  100OSM    C9F10080   5.981   3.713   8.747
  100OSM    H9F10081   5.946   3.817   8.760
  100OSM   C10F10082   6.076   3.691   8.656
  100OSM   H10F10083   6.119   3.777   8.604
  100OSM   C11F10084   6.140   3.561   8.623
  100OSM   H11F10085   6.090   3.474   8.670
  100OSM   H11G10086   6.246   3.563   8.659
  100OSM   C12F10087   6.146   3.536   8.471
  100OSM   H12F10088   6.203   3.442   8.456
  100OSM   H12G10089   6.208   3.617   8.428
  100OSM   C13F10090   6.015   3.531   8.391
  100OSM   H13F10091   5.961   3.628   8.402
  100OSM   H13G10092   5.942   3.452   8.420
  100OSM   C14F10093   6.044   3.505   8.243
  100OSM   H14F10094   6.045   3.397   8.220
  100OSM   H14G10095   6.145   3.542   8.214
  100OSM   C15F10096   5.937   3.569   8.157
  100OSM   H15F10097   5.962   3.550   8.051
  100OSM   H15G10098   5.955   3.676   8.184
  100OSM   C16F10099   5.786   3.535   8.176
  100OSM   H16F10100   5.760   3.550   8.281
  100OSM   H16G10101   5.767   3.431   8.141
  100OSM   C17F10102   5.685   3.616   8.093
  100OSM   H17F10103   5.701   3.583   7.988
  100OSM   H17G10104   5.696   3.726   8.117
  100OSM   C18F10105   5.540   3.591   8.097
  100OSM   H18F10106   5.518   3.501   8.039
  100OSM   H18G10107   5.479   3.679   8.068
  100OSM   H18H10108   5.532   3.571   8.200
  101OSM      N10109   1.446   4.012  10.134
  101OSM    C1510110   1.416   3.893  10.055
  101OSM   H15A10111   1.475   3.806  10.081
  101OSM   H15B10112   1.432   3.911   9.948
  101OSM   H15C10113   1.310   3.869  10.060
  101OSM    C1410114   1.340   4.113  10.107
  101OSM   H14A10115   1.243   4.067  10.113
  101OSM   H14B10116   1.357   4.158  10.008
  101OSM   H14C10117   1.343   4.195  10.178
  101OSM    C1310118   1.446   3.979  10.281
  101OSM   H13A10119   1.532   3.918  10.306
  101OSM   H13B10120   1.357   3.927  10.315
  101OSM   H13C10121   1.447   4.068  10.344
  101OSM    C1210122   1.582   4.063  10.087
  101OSM   H12A10123   1.597   4.055   9.978
  101OSM   H12B10124   1.658   4.002  10.134
  101OSM    C1110125   1.613   4.209  10.121
  101OSM   H11A10126   1.723   4.223  10.106
  101OSM   H11B10127   1.584   4.220  10.228
  101OSM      P10128   1.543   4.454  10.074
  101OSM    O1310129   1.403   4.498  10.095
  101OSM    O1410130   1.632   4.474  10.190
  101OSM    O1110131   1.604   4.524   9.946
  101OSM    O1210132   1.541   4.299  10.038
  101OSM    C1S10133   1.660   4.445   9.841
  101OSM    H1S10134   1.716   4.357   9.877
  101OSM    H1T10135   1.733   4.504   9.785
  101OSM     NF10136   1.614   4.310   9.641
  101OSM    HNF10137   1.606   4.338   9.546
  101OSM    C2S10138   1.555   4.403   9.737
  101OSM    H2S10139   1.477   4.347   9.792
  101OSM    C3S10140   1.499   4.535   9.671
  101OSM    H3S10141   1.586   4.597   9.639
  101OSM     O310142   1.414   4.617   9.753
  101OSM    HO310143   1.434   4.593   9.844
  101OSM    C4S10144   1.428   4.494   9.545
  101OSM    H4S10145   1.348   4.423   9.567
  101OSM    C5S10146   1.450   4.537   9.418
  101OSM    H5S10147   1.516   4.625   9.402
  101OSM    C6S10148   1.377   4.490   9.295
  101OSM    H6S10149   1.414   4.548   9.207
  101OSM    H6T10150   1.269   4.515   9.301
  101OSM    C7S10151   1.394   4.339   9.265
  101OSM    H7S10152   1.337   4.270   9.333
  101OSM    H7T10153   1.500   4.312   9.281
  101OSM    C8S10154   1.349   4.296   9.124
  101OSM    H8S10155   1.238   4.300   9.117
  101OSM    H8T10156   1.381   4.190   9.117
  101OSM    C9S10157   1.400   4.379   9.004
  101OSM    H9S10158   1.359   4.482   9.004
  101OSM    H9T10159   1.360   4.330   8.912
  101OSM   C10S10160   1.552   4.382   8.995
  101OSM   H10S10161   1.584   4.286   9.039
  101OSM   H10T10162   1.598   4.462   9.057
  101OSM   C11S10163   1.590   4.399   8.849
  101OSM   H11S10164   1.559   4.500   8.813
  101OSM   H11T10165   1.538   4.320   8.790
  101OSM   C12S10166   1.734   4.381   8.814
  101OSM   H12S10167   1.780   4.292   8.860
  101OSM   H12T10168   1.793   4.468   8.847
  101OSM   C13S10169   1.735   4.365   8.665
  101OSM   H13S10170   1.836   4.339   8.638
  101OSM   H13T10171   1.712   4.458   8.607
  101OSM   C14S10172   1.729   4.229   8.610
  101OSM   H14S10173   1.629   4.200   8.635
  101OSM   H14T10174   1.803   4.158   8.658
  101OSM   C15S10175   1.741   4.235   8.462
  101OSM   H15S10176   1.666   4.300   8.416
  101OSM   H15T10177   1.731   4.133   8.427
  101OSM   C16S10178   1.878   4.251   8.420
  101OSM   H16S10179   1.949   4.205   8.482
  101OSM   H16T10180   1.919   4.341   8.389
  101OSM   C17S10181   1.902   4.214   8.297
  101OSM   H17S10182   1.849   4.142   8.271
  101OSM   H17T10183   2.002   4.190   8.275
  101OSM   C18S10184   1.831   4.282   8.211
  101OSM   H18S10185   1.836   4.219   8.115
  101OSM   H18T10186   1.894   4.369   8.209
  101OSM   H18U10187   1.739   4.331   8.234
  101OSM    C1F10188   1.666   4.192   9.675
  101OSM     OF10189   1.637   4.134   9.779
  101OSM    C2F10190   1.751   4.128   9.575
  101OSM    H2F10191   1.851   4.091   9.608
  101OSM    H2G10192   1.766   4.191   9.484
  101OSM    C3F10193   1.676   4.006   9.546
  101OSM    H3F10194   1.571   4.022   9.510
  101OSM    H3G10195   1.676   3.929   9.633
  101OSM    C4F10196   1.747   3.962   9.425
  101OSM    H4F10197   1.692   3.878   9.468
  101OSM    H4G10198   1.848   3.910   9.428
  101OSM    C5F10199   1.699   4.036   9.285
  101OSM    H5F10200   1.802   4.081   9.269
  101OSM    H5G10201   1.618   4.101   9.308
  101OSM    C6F10202   1.608   3.998   9.144
  101OSM    H6F10203   1.487   3.993   9.168
  101OSM    H6G10204   1.695   4.030   9.072
  101OSM    C7F10205   1.583   3.859   9.038
  101OSM    H7F10206   1.560   3.754   9.087
  101OSM    H7G10207   1.666   3.790   8.997
  101OSM    C8F10208   1.486   3.917   8.974
  101OSM    H8F10209   1.568   3.945   8.902
  101OSM    H8G10210   1.460   4.016   8.996
  101OSM    C9F10211   1.378   3.810   8.987
  101OSM    H9F10212   1.358   3.771   9.088
  101OSM   C10F10213   1.343   3.742   8.880
  101OSM   H10F10214   1.313   3.638   8.880
  101OSM   C11F10215   1.403   3.769   8.756
  101OSM   H11F10216   1.430   3.669   8.711
  101OSM   H11G10217   1.490   3.822   8.787
  101OSM   C12F10218   1.347   3.866   8.662
  101OSM   H12F10219   1.338   3.955   8.727
  101OSM   H12G10220   1.259   3.803   8.645
  101OSM   C13F10221   1.410   3.906   8.528
  101OSM   H13F10222   1.412   3.822   8.456
  101OSM   H13G10223   1.510   3.951   8.531
  101OSM   C14F10224   1.335   4.025   8.475
  101OSM   H14F10225   1.351   4.106   8.548
  101OSM   H14G10226   1.228   3.995   8.476
  101OSM   C15F10227   1.390   4.069   8.339
  101OSM   H15F10228   1.365   3.989   8.266
  101OSM   H15G10229   1.501   4.074   8.340
  101OSM   C16F10230   1.328   4.202   8.294
  101OSM   H16F10231   1.382   4.292   8.332
  101OSM   H16G10232   1.227   4.203   8.339
  101OSM   C17F10233   1.308   4.206   8.143
  101OSM   H17F10234   1.242   4.285   8.105
  101OSM   H17G10235   1.264   4.110   8.109
  101OSM   C18F10236   1.436   4.211   8.073
  101OSM   H18F10237   1.493   4.123   8.110
  101OSM   H18G10238   1.499   4.295   8.096
  101OSM   H18H10239   1.418   4.210   7.962
  102OSM      N10240   3.529   5.914  10.253
  102OSM    C1510241   3.405   5.998  10.238
  102OSM   H15A10242   3.421   6.080  10.168
  102OSM   H15B10243   3.374   6.042  10.332
  102OSM   H15C10244   3.323   5.936  10.201
  102OSM    C1410245   3.648   6.002  10.278
  102OSM   H14A10246   3.638   6.064  10.367
  102OSM   H14B10247   3.671   6.070  10.196
  102OSM   H14C10248   3.742   5.946  10.287
  102OSM    C1310249   3.512   5.829  10.376
  102OSM   H13A10250   3.424   5.766  10.367
  102OSM   H13B10251   3.499   5.891  10.464
  102OSM   H13C10252   3.601   5.772  10.399
  102OSM    C1210253   3.548   5.827  10.129
  102OSM   H12A10254   3.465   5.756  10.128
  102OSM   H12B10255   3.639   5.769  10.138
  102OSM    C1110256   3.562   5.895   9.991
  102OSM   H11A10257   3.480   5.969   9.976
  102OSM   H11B10258   3.556   5.820   9.909
  102OSM      P10259   3.830   5.893   9.982
  102OSM    O1310260   3.896   5.943  10.103
  102OSM    O1410261   3.815   5.746   9.963
  102OSM    O1110262   3.892   5.954   9.858
  102OSM    O1210263   3.686   5.962   9.980
  102OSM    C1S10264   3.894   6.097   9.875
  102OSM    H1S10265   3.982   6.133   9.923
  102OSM    H1T10266   3.801   6.155   9.900
  102OSM     NF10267   3.814   6.085   9.686
  102OSM    HNF10268   3.850   6.021   9.616
  102OSM    C2S10269   3.923   6.154   9.746
  102OSM    H2S10270   3.899   6.245   9.727
  102OSM    C3S10271   4.088   6.125   9.704
  102OSM    H3S10272   4.068   6.015   9.726
  102OSM     O310273   4.193   6.160   9.773
  102OSM    HO310274   4.138   6.233   9.797
  102OSM    C4S10275   4.151   6.186   9.472
  102OSM    H4S10276   4.080   6.260   9.433
  102OSM    C5S10277   4.172   6.066   9.346
  102OSM    H5S10278   4.162   5.943   9.366
  102OSM    C6S10279   4.187   6.031   9.207
  102OSM    H6S10280   4.284   5.995   9.220
  102OSM    H6T10281   4.132   6.127   9.208
  102OSM    C7S10282   4.095   5.927   9.144
  102OSM    H7S10283   4.135   5.938   9.046
  102OSM    H7T10284   3.995   5.949   9.115
  102OSM    C8S10285   4.057   5.796   9.202
  102OSM    H8S10286   3.967   5.797   9.269
  102OSM    H8T10287   4.147   5.762   9.253
  102OSM    C9S10288   4.022   5.723   9.077
  102OSM    H9S10289   4.015   5.624   9.105
  102OSM    H9T10290   4.109   5.728   9.009
  102OSM   C10S10291   3.890   5.768   9.015
  102OSM   H10S10292   3.902   5.866   8.983
  102OSM   H10T10293   3.803   5.749   9.079
  102OSM   C11S10294   3.861   5.719   8.881
  102OSM   H11S10295   3.826   5.624   8.926
  102OSM   H11T10296   3.960   5.719   8.827
  102OSM   C12S10297   3.755   5.762   8.777
  102OSM   H12S10298   3.744   5.868   8.797
  102OSM   H12T10299   3.661   5.703   8.787
  102OSM   C13S10300   3.795   5.747   8.628
  102OSM   H13S10301   3.771   5.646   8.584
  102OSM   H13T10302   3.906   5.761   8.628
  102OSM   C14S10303   3.721   5.827   8.526
  102OSM   H14S10304   3.721   5.931   8.562
  102OSM   H14T10305   3.619   5.782   8.517
  102OSM   C15S10306   3.785   5.821   8.390
  102OSM   H15S10307   3.708   5.829   8.308
  102OSM   H15T10308   3.840   5.726   8.379
  102OSM   C16S10309   3.881   5.933   8.367
  102OSM   H16S10310   3.984   5.917   8.410
  102OSM   H16T10311   3.842   6.029   8.409
  102OSM   C17S10312   3.893   5.935   8.218
  102OSM   H17S10313   3.819   6.002   8.168
  102OSM   H17T10314   3.920   5.846   8.163
  102OSM   C18S10315   4.025   5.971   8.188
  102OSM   H18S10316   4.116   5.939   8.233
  102OSM   H18T10317   3.999   6.064   8.238
  102OSM   H18U10318   4.050   5.990   8.083
  102OSM    C1F10319   3.685   6.109   9.684
  102OSM     OF10320   3.646   6.209   9.741
  102OSM    C2F10321   3.593   6.013   9.609
  102OSM    H2F10322   3.533   5.992   9.698
  102OSM    H2G10323   3.637   5.918   9.579
  102OSM    C3F10324   3.489   6.055   9.502
  102OSM    H3F10325   3.444   6.113   9.578
  102OSM    H3G10326   3.402   5.990   9.490
  102OSM    C4F10327   3.522   6.109   9.361
  102OSM    H4F10328   3.587   6.196   9.358
  102OSM    H4G10329   3.441   6.155   9.302
  102OSM    C5F10330   3.573   5.989   9.292
  102OSM    H5F10331   3.542   5.893   9.332
  102OSM    H5G10332   3.668   5.971   9.312
  102OSM    C6F10333   3.591   5.987   9.150
  102OSM    H6F10334   3.634   5.888   9.119
  102OSM    H6G10335   3.647   6.066   9.101
  102OSM    C7F10336   3.468   5.999   9.099
  102OSM    H7F10337   3.413   6.096   9.112
  102OSM    H7G10338   3.406   5.921   9.150
  102OSM    C8F10339   3.518   5.976   8.961
  102OSM    H8F10340   3.459   5.864   8.956
  102OSM    H8G10341   3.563   5.882   8.914
  102OSM    C9F10342   3.497   6.143   8.891
  102OSM    H9F10343   3.606   6.167   8.908
  102OSM   C10F10344   3.401   6.232   8.770
  102OSM   H10F10345   3.487   6.252   8.709
  102OSM   C11F10346   3.225   6.129   8.614
  102OSM   H11F10347   3.145   6.170   8.632
  102OSM   H11G10348   3.160   6.023   8.670
  102OSM   C12F10349   3.282   6.052   8.424
  102OSM   H12F10350   3.219   6.038   8.489
  102OSM   H12G10351   3.378   5.972   8.412
  102OSM   C13F10352   3.311   6.132   8.333
  102OSM   H13F10353   3.348   6.169   8.424
  102OSM   H13G10354   3.207   6.126   8.315
  102OSM   C14F10355   3.428   6.090   8.265
  102OSM   H14F10356   3.522   6.093   8.327
  102OSM   H14G10357   3.418   6.176   8.201
  102OSM   C15F10358   3.393   5.969   8.200
  102OSM   H15F10359   3.290   5.982   8.158
  102OSM   H15G10360   3.396   5.882   8.265
  102OSM   C16F10361   3.507   5.933   8.128
  102OSM   H16F10362   3.507   5.835   8.084
  102OSM   H16G10363   3.606   5.978   8.162
  102OSM   C17F10364   3.484   5.986   8.010
  102OSM   H17F10365   3.584   5.983   7.960
  102OSM   H17G10366   3.521   6.094   8.057
  102OSM   C18F10367   3.343   5.961   7.902
  102OSM   H18F10368   3.332   6.023   7.799
  102OSM   H18G10369   3.238   5.998   7.929
  102OSM   H18H10370   3.358   5.866   7.870
  103OSM      N10371   2.561   1.136  10.151
  103OSM    C1510372   2.563   0.998  10.102
  103OSM   H15A10373   2.642   0.933  10.140
  103OSM   H15B10374   2.578   0.995   9.994
  103OSM   H15C10375   2.470   0.942  10.120
  103OSM    C1410376   2.532   1.136  10.297
  103OSM   H14A10377   2.582   1.052  10.345
  103OSM   H14B10378   2.427   1.127  10.318
  103OSM   H14C10379   2.570   1.229  10.338
  103OSM    C1310380   2.698   1.189  10.127
  103OSM   H13A10381   2.772   1.127  10.175
  103OSM   H13B10382   2.707   1.290  10.165
  103OSM   H13C10383   2.722   1.191  10.022
  103OSM    C1210384   2.454   1.215  10.073
  103OSM   H12A10385   2.366   1.152  10.065
  103OSM   H12B10386   2.490   1.233   9.972
  103OSM    C1110387   2.404   1.352  10.124
  103OSM   H11A10388   2.349   1.342  10.220
  103OSM   H11B10389   2.328   1.388  10.050
  103OSM      P10390   2.550   1.560  10.047
  103OSM    O1310391   2.445   1.663  10.045
  103OSM    O1410392   2.687   1.601  10.086
  103OSM    O1110393   2.552   1.481   9.909
  103OSM    O1210394   2.511   1.442  10.144
  103OSM    C1S10395   2.511   1.546   9.788
  103OSM    H1S10396   2.527   1.656   9.788
  103OSM    H1T10397   2.402   1.532   9.771
  103OSM     NF10398   2.603   1.349   9.675
  103OSM    HNF10399   2.696   1.321   9.695
  103OSM    C2S10400   2.584   1.486   9.666
  103OSM    H2S10401   2.526   1.511   9.573
  103OSM    C3S10402   2.719   1.541   9.655
  103OSM    H3S10403   2.786   1.511   9.738
  103OSM     O310404   2.725   1.681   9.675
  103OSM    HO310405   2.635   1.716   9.668
  103OSM    C4S10406   2.780   1.501   9.522
  103OSM    H4S10407   2.724   1.521   9.431
  103OSM    C5S10408   2.889   1.423   9.511
  103OSM    H5S10409   2.928   1.385   9.602
  103OSM    C6S10410   2.979   1.376   9.400
  103OSM    H6S10411   3.018   1.279   9.425
  103OSM    H6T10412   3.081   1.427   9.410
  103OSM    C7S10413   2.934   1.396   9.256
  103OSM    H7S10414   2.827   1.380   9.247
  103OSM    H7T10415   3.001   1.330   9.200
  103OSM    C8S10416   2.941   1.523   9.177
  103OSM    H8S10417   3.012   1.571   9.236
  103OSM    H8T10418   2.852   1.584   9.187
  103OSM    C9S10419   2.990   1.514   9.034
  103OSM    H9S10420   3.096   1.483   9.029
  103OSM    H9T10421   2.982   1.610   8.979
  103OSM   C10S10422   2.891   1.446   8.949
  103OSM   H10S10423   2.799   1.508   8.953
  103OSM   H10T10424   2.871   1.347   8.992
  103OSM   C11S10425   2.943   1.446   8.805
  103OSM   H11S10426   3.028   1.519   8.796
  103OSM   H11T10427   2.861   1.484   8.742
  103OSM   C12S10428   2.986   1.307   8.760
  103OSM   H12S10429   2.910   1.233   8.791
  103OSM   H12T10430   3.085   1.284   8.806
  103OSM   C13S10431   3.009   1.284   8.611
  103OSM   H13S10432   3.062   1.188   8.597
  103OSM   H13T10433   3.080   1.361   8.580
  103OSM   C14S10434   2.887   1.298   8.518
  103OSM   H14S10435   2.857   1.404   8.519
  103OSM   H14T10436   2.801   1.235   8.550
  103OSM   C15S10437   2.927   1.257   8.377
  103OSM   H15S10438   2.966   1.156   8.384
  103OSM   H15T10439   3.010   1.319   8.341
  103OSM   C16S10440   2.814   1.260   8.274
  103OSM   H16S10441   2.726   1.204   8.312
  103OSM   H16T10442   2.851   1.208   8.182
  103OSM   C17S10443   2.776   1.404   8.240
  103OSM   H17S10444   2.873   1.457   8.220
  103OSM   H17T10445   2.743   1.455   8.333
  103OSM   C18S10446   2.688   1.411   8.112
  103OSM   H18S10447   2.659   1.305   8.102
  103OSM   H18T10448   2.751   1.448   8.031
  103OSM   H18U10449   2.583   1.424   8.081
  103OSM    C1F10450   2.508   1.264   9.679
  103OSM     OF10451   2.389   1.288   9.688
  103OSM    C2F10452   2.560   1.132   9.688
  103OSM    H2F10453   2.487   1.087   9.761
  103OSM    H2G10454   2.661   1.119   9.727
  103OSM    C3F10455   2.607   1.056   9.560
  103OSM    H3F10456   2.536   1.030   9.487
  103OSM    H3G10457   2.651   0.958   9.584
  103OSM    C4F10458   2.656   1.106   9.432
  103OSM    H4F10459   2.676   1.011   9.373
  103OSM    H4G10460   2.745   1.142   9.482
  103OSM    C5F10461   2.574   1.213   9.355
  103OSM    H5F10462   2.645   1.238   9.277
  103OSM    H5G10463   2.537   1.295   9.420
  103OSM    C6F10464   2.455   1.181   9.265
  103OSM    H6F10465   2.371   1.187   9.342
  103OSM    H6G10466   2.494   1.090   9.209
  103OSM    C7F10467   2.386   1.254   9.148
  103OSM    H7F10468   2.466   1.251   9.073
  103OSM    H7G10469   2.374   1.342   9.211
  103OSM    C8F10470   2.238   1.225   9.094
  103OSM    H8F10471   2.195   1.286   9.016
  103OSM    H8G10472   2.169   1.211   9.181
  103OSM    C9F10473   2.220   1.107   9.010
  103OSM    H9F10474   2.156   1.024   9.048
  103OSM   C10F10475   2.309   1.083   8.916
  103OSM   H10F10476   2.349   0.987   8.887
  103OSM   C11F10477   2.424   1.126   8.853
  103OSM   H11F10478   2.511   1.055   8.856
  103OSM   H11G10479   2.424   1.226   8.887
  103OSM   C12F10480   2.351   1.117   8.725
  103OSM   H12F10481   2.269   1.196   8.733
  103OSM   H12G10482   2.310   1.013   8.705
  103OSM   C13F10483   2.428   1.159   8.600
  103OSM   H13F10484   2.484   1.067   8.573
  103OSM   H13G10485   2.483   1.240   8.647
  103OSM   C14F10486   2.359   1.223   8.474
  103OSM   H14F10487   2.275   1.294   8.483
  103OSM   H14G10488   2.322   1.134   8.426
  103OSM   C15F10489   2.426   1.288   8.359
  103OSM   H15F10490   2.471   1.224   8.283
  103OSM   H15G10491   2.503   1.349   8.408
  103OSM   C16F10492   2.333   1.373   8.272
  103OSM   H16F10493   2.407   1.406   8.198
  103OSM   H16G10494   2.301   1.459   8.335
  103OSM   C17F10495   2.208   1.320   8.195
  103OSM   H17F10496   2.172   1.394   8.122
  103OSM   H17G10497   2.127   1.306   8.267
  103OSM   C18F10498   2.213   1.203   8.101
  103OSM   H18F10499   2.129   1.178   8.037
  103OSM   H18G10500   2.195   1.109   8.146
  103OSM   H18H10501   2.303   1.207   8.043
  104OSM      N10502   3.855   0.588  10.028
  104OSM    C1510503   3.868   0.502  10.148
  104OSM   H15A10504   3.838   0.561  10.234
  104OSM   H15B10505   3.972   0.474  10.162
  104OSM   H15C10506   3.809   0.413  10.135
  104OSM    C1410507   3.972   0.682  10.025
  104OSM   H14A10508   4.064   0.626  10.020
  104OSM   H14B10509   3.970   0.745  10.115
  104OSM   H14C10510   3.964   0.749   9.939
  104OSM    C1310511   3.854   0.502   9.908
  104OSM   H13A10512   3.925   0.421   9.920
  104OSM   H13B10513   3.882   0.555   9.817
  104OSM   H13C10514   3.755   0.458   9.894
  104OSM    C1210515   3.726   0.667  10.036
  104OSM   H12A10516   3.642   0.601  10.021
  104OSM   H12B10517   3.726   0.741   9.956
  104OSM    C1110518   3.700   0.742  10.169
  104OSM   H11A10519   3.698   0.671  10.254
  104OSM   H11B10520   3.597   0.783  10.158
  104OSM      P10521   3.778   0.993  10.163
  104OSM    O1310522   3.659   1.046  10.233
  104OSM    O1410523   3.905   1.065  10.174
  104OSM    O1110524   3.733   0.982  10.009
  104OSM    O1210525   3.797   0.841  10.199
  104OSM    C1S10526   3.812   1.041   9.905
  104OSM    H1S10527   3.915   0.999   9.907
  104OSM    H1T10528   3.820   1.151   9.919
  104OSM     NF10529   3.835   1.062   9.656
  104OSM    HNF10530   3.802   1.135   9.596
  104OSM    C2S10531   3.748   1.021   9.762
  104OSM    H2S10532   3.724   0.912   9.751
  104OSM    C3S10533   3.616   1.095   9.744
  104OSM    H3S10534   3.641   1.204   9.734
  104OSM     O310535   3.521   1.067   9.848
  104OSM    HO310536   3.568   1.013   9.912
  104OSM    C4S10537   3.555   1.062   9.610
  104OSM    H4S10538   3.584   1.128   9.526
  104OSM    C5S10539   3.474   0.959   9.582
  104OSM    H5S10540   3.454   0.884   9.660
  104OSM    C6S10541   3.421   0.940   9.443
  104OSM    H6S10542   3.365   1.030   9.410
  104OSM    H6T10543   3.345   0.863   9.436
  104OSM    C7S10544   3.530   0.900   9.343
  104OSM    H7S10545   3.577   0.803   9.367
  104OSM    H7T10546   3.609   0.978   9.340
  104OSM    C8S10547   3.472   0.896   9.202
  104OSM    H8S10548   3.401   0.981   9.195
  104OSM    H8T10549   3.414   0.804   9.185
  104OSM    C9S10550   3.576   0.913   9.091
  104OSM    H9S10551   3.631   1.008   9.107
  104OSM    H9T10552   3.519   0.919   8.996
  104OSM   C10S10553   3.676   0.801   9.066
  104OSM   H10S10554   3.631   0.699   9.074
  104OSM   H10T10555   3.763   0.812   9.135
  104OSM   C11S10556   3.735   0.814   8.925
  104OSM   H11S10557   3.822   0.744   8.922
  104OSM   H11T10558   3.776   0.916   8.911
  104OSM   C12S10559   3.637   0.778   8.812
  104OSM   H12S10560   3.554   0.851   8.804
  104OSM   H12T10561   3.592   0.678   8.833
  104OSM   C13S10562   3.702   0.768   8.674
  104OSM   H13S10563   3.644   0.689   8.622
  104OSM   H13T10564   3.807   0.733   8.682
  104OSM   C14S10565   3.695   0.900   8.596
  104OSM   H14S10566   3.780   0.971   8.614
  104OSM   H14T10567   3.600   0.953   8.619
  104OSM   C15S10568   3.691   0.871   8.448
  104OSM   H15S10569   3.609   0.800   8.428
  104OSM   H15T10570   3.790   0.830   8.418
  104OSM   C16S10571   3.660   0.997   8.372
  104OSM   H16S10572   3.736   1.059   8.421
  104OSM   H16T10573   3.569   1.052   8.398
  104OSM   C17S10574   3.661   0.969   8.220
  104OSM   H17S10575   3.587   0.888   8.210
  104OSM   H17T10576   3.761   0.927   8.190
  104OSM   C18S10577   3.608   1.075   8.123
  104OSM   H18S10578   3.640   1.051   8.021
  104OSM   H18T10579   3.656   1.169   8.099
  104OSM   H18U10580   3.520   1.131   8.159
  104OSM    C1F10581   3.953   1.013   9.633
  104OSM     OF10582   4.003   0.919   9.692
  104OSM    C2F10583   4.028   1.089   9.536
  104OSM    H2F10584   4.122   1.111   9.596
  104OSM    H2G10585   3.972   1.185   9.510
  104OSM    C3F10586   4.060   1.008   9.411
  104OSM    H3F10587   3.968   0.980   9.362
  104OSM    H3G10588   4.114   0.919   9.442
  104OSM    C4F10589   4.145   1.068   9.305
  104OSM    H4F10590   4.242   1.098   9.357
  104OSM    H4G10591   4.080   1.145   9.254
  104OSM    C5F10592   4.175   1.019   9.168
  104OSM    H5F10593   4.196   0.918   9.175
  104OSM    H5G10594   4.269   1.068   9.133
  104OSM    C6F10595   4.069   1.017   9.062
  104OSM    H6F10596   4.012   1.110   9.052
  104OSM    H6G10597   4.003   0.932   9.082
  104OSM    C7F10598   4.134   1.003   8.927
  104OSM    H7F10599   4.209   1.082   8.904
  104OSM    H7G10600   4.058   0.998   8.850
  104OSM    C8F10601   4.202   0.875   8.913
  104OSM    H8F10602   4.238   0.851   9.015
  104OSM    H8G10603   4.274   0.894   8.830
  104OSM    C9F10604   4.159   0.738   8.915
  104OSM    H9F10605   4.120   0.704   9.012
  104OSM   C10F10606   4.176   0.651   8.819
  104OSM   H10F10607   4.123   0.559   8.843
  104OSM   C11F10608   4.241   0.668   8.683
  104OSM   H11F10609   4.277   0.571   8.642
  104OSM   H11G10610   4.326   0.738   8.683
  104OSM   C12F10611   4.141   0.731   8.586
  104OSM   H12F10612   4.090   0.814   8.641
  104OSM   H12G10613   4.067   0.655   8.555
  104OSM   C13F10614   4.206   0.790   8.460
  104OSM   H13F10615   4.257   0.711   8.400
  104OSM   H13G10616   4.282   0.863   8.493
  104OSM   C14F10617   4.102   0.865   8.375
  104OSM   H14F10618   4.066   0.953   8.434
  104OSM   H14G10619   4.016   0.797   8.357
  104OSM   C15F10620   4.157   0.918   8.242
  104OSM   H15F10621   4.222   1.005   8.256
  104OSM   H15G10622   4.071   0.945   8.181
  104OSM   C16F10623   4.221   0.819   8.150
  104OSM   H16F10624   4.127   0.761   8.123
  104OSM   H16G10625   4.295   0.752   8.196
  104OSM   C17F10626   4.277   0.872   8.017
  104OSM   H17F10627   4.334   0.804   7.950
  104OSM   H17G10628   4.339   0.960   8.022
  104OSM   C18F10629   4.160   0.909   7.942
  104OSM   H18F10630   4.095   0.839   7.885
  104OSM   H18G10631   4.191   0.946   7.850
  104OSM   H18H10632   4.110   0.996   7.986
  105OSM      N10633   0.926   4.739  10.170
  105OSM    C1510634   0.860   4.658  10.277
  105OSM   H15A10635   0.868   4.551  10.259
  105OSM   H15B10636   0.757   4.688  10.284
  105OSM   H15C10637   0.903   4.680  10.374
  105OSM    C1410638   1.075   4.718  10.179
  105OSM   H14A10639   1.096   4.613  10.162
  105OSM   H14B10640   1.114   4.748  10.276
  105OSM   H14C10641   1.134   4.776  10.107
  105OSM    C1310642   0.879   4.696  10.034
  105OSM   H13A10643   0.771   4.702  10.027
  105OSM   H13B10644   0.909   4.595  10.008
  105OSM   H13C10645   0.923   4.761   9.958
  105OSM    C1210646   0.888   4.883  10.199
  105OSM   H12A10647   0.912   4.897  10.304
  105OSM   H12B10648   0.782   4.896  10.189
  105OSM    C1110649   0.951   4.993  10.111
  105OSM   H11A10650   0.901   5.092  10.120
  105OSM   H11B10651   0.934   4.962  10.005
  105OSM      P10652   1.187   5.039  10.025
  105OSM    O1310653   1.325   5.062  10.078
  105OSM    O1410654   1.168   4.933   9.926
  105OSM    O1110655   1.130   5.173   9.962
  105OSM    O1210656   1.089   5.007  10.144
  105OSM    C1S10657   1.203   5.218   9.847
  105OSM    H1S10658   1.309   5.196   9.854
  105OSM    H1T10659   1.202   5.329   9.841
  105OSM     NF10660   1.230   5.207   9.607
  105OSM    HNF10661   1.193   5.257   9.531
  105OSM    C2S10662   1.143   5.174   9.713
  105OSM    H2S10663   1.117   5.064   9.708
  105OSM    C3S10664   1.020   5.253   9.699
  105OSM    H3S10665   1.031   5.357   9.737
  105OSM     O310666   0.919   5.186   9.771
  105OSM    HO310667   0.958   5.135   9.842
  105OSM    C4S10668   0.989   5.275   9.552
  105OSM    H4S10669   1.030   5.361   9.502
  105OSM    C5S10670   0.928   5.187   9.480
  105OSM    H5S10671   0.883   5.111   9.545
  105OSM    C6S10672   0.891   5.196   9.336
  105OSM    H6S10673   0.785   5.216   9.339
  105OSM    H6T10674   0.910   5.106   9.278
  105OSM    C7S10675   0.939   5.310   9.257
  105OSM    H7S10676   1.030   5.360   9.281
  105OSM    H7T10677   0.884   5.376   9.322
  105OSM    C8S10678   0.923   5.307   9.102
  105OSM    H8S10679   0.991   5.229   9.070
  105OSM    H8T10680   0.946   5.406   9.054
  105OSM    C9S10681   0.794   5.267   9.038
  105OSM    H9S10682   0.727   5.331   9.083
  105OSM    H9T10683   0.746   5.178   9.071
  105OSM   C10S10684   0.792   5.262   8.887
  105OSM   H10S10685   0.854   5.342   8.851
  105OSM   H10T10686   0.690   5.266   8.841
  105OSM   C11S10687   0.854   5.136   8.848
  105OSM   H11S10688   0.810   5.082   8.929
  105OSM   H11T10689   0.955   5.126   8.886
  105OSM   C12S10690   0.839   5.095   8.702
  105OSM   H12S10691   0.747   5.133   8.654
  105OSM   H12T10692   0.838   4.985   8.687
  105OSM   C13S10693   0.937   5.166   8.615
  105OSM   H13S10694   0.934   5.274   8.640
  105OSM   H13T10695   0.899   5.154   8.510
  105OSM   C14S10696   1.076   5.106   8.623
  105OSM   H14S10697   1.072   5.002   8.584
  105OSM   H14T10698   1.114   5.098   8.727
  105OSM   C15S10699   1.174   5.188   8.540
  105OSM   H15S10700   1.269   5.134   8.541
  105OSM   H15T10701   1.189   5.285   8.590
  105OSM   C16S10702   1.130   5.205   8.393
  105OSM   H16S10703   1.033   5.254   8.385
  105OSM   H16T10704   1.130   5.102   8.350
  105OSM   C17S10705   1.210   5.302   8.307
  105OSM   H17S10706   1.294   5.267   8.333
  105OSM   H17T10707   1.232   5.402   8.345
  105OSM   C18S10708   1.218   5.294   8.157
  105OSM   H18S10709   1.221   5.396   8.115
  105OSM   H18T10710   1.119   5.257   8.170
  105OSM   H18U10711   1.239   5.212   8.086
  105OSM    C1F10712   1.307   5.122   9.563
  105OSM     OF10713   1.310   5.011   9.605
  105OSM    C2F10714   1.342   5.159   9.431
  105OSM    H2F10715   1.410   5.234   9.422
  105OSM    H2G10716   1.284   5.118   9.352
  105OSM    C3F10717   1.439   5.076   9.381
  105OSM    H3F10718   1.400   4.968   9.400
  105OSM    H3G10719   1.519   5.123   9.467
  105OSM    C4F10720   1.505   5.069   9.223
  105OSM    H4F10721   1.582   4.990   9.184
  105OSM    H4G10722   1.599   5.116   9.213
  105OSM    C5F10723   1.435   5.035   9.114
  105OSM    H5F10724   1.520   5.041   9.039
  105OSM    H5G10725   1.388   5.119   9.162
  105OSM    C6F10726   1.388   4.904   9.107
  105OSM    H6F10727   1.370   4.872   9.210
  105OSM    H6G10728   1.475   4.848   9.067
  105OSM    C7F10729   1.262   4.927   9.028
  105OSM    H7F10730   1.270   4.945   8.920
  105OSM    H7G10731   1.215   5.020   9.065
  105OSM    C8F10732   1.175   4.808   9.024
  105OSM    H8F10733   1.132   4.809   9.126
  105OSM    H8G10734   1.245   4.721   9.014
  105OSM    C9F10735   1.076   4.830   8.910
  105OSM    H9F10736   1.028   4.929   8.908
  105OSM   C10F10737   1.059   4.753   8.803
  105OSM   H10F10738   0.980   4.781   8.732
  105OSM   C11F10739   1.133   4.625   8.773
  105OSM   H11F10740   1.070   4.554   8.715
  105OSM   H11G10741   1.152   4.571   8.869
  105OSM   C12F10742   1.267   4.645   8.698
  105OSM   H12F10743   1.283   4.556   8.632
  105OSM   H12G10744   1.350   4.653   8.771
  105OSM   C13F10745   1.274   4.766   8.605
  105OSM   H13F10746   1.290   4.860   8.665
  105OSM   H13G10747   1.178   4.769   8.552
  105OSM   C14F10748   1.381   4.759   8.498
  105OSM   H14F10749   1.407   4.656   8.468
  105OSM   H14G10750   1.462   4.799   8.559
  105OSM   C15F10751   1.348   4.844   8.374
  105OSM   H15F10752   1.430   4.856   8.307
  105OSM   H15G10753   1.337   4.946   8.408
  105OSM   C16F10754   1.220   4.815   8.296
  105OSM   H16F10755   1.215   4.874   8.202
  105OSM   H16G10756   1.142   4.855   8.364
  105OSM   C17F10757   1.186   4.669   8.266
  105OSM   H17F10758   1.094   4.669   8.203
  105OSM   H17G10759   1.157   4.620   8.362
  105OSM   C18F10760   1.292   4.585   8.196
  105OSM   H18F10761   1.338   4.640   8.110
  105OSM   H18G10762   1.246   4.491   8.160
  105OSM   H18H10763   1.373   4.553   8.265
  106OSM      N10764   0.375   3.225  10.248
  106OSM    C1510765   0.246   3.289  10.282
  106OSM   H15A10766   0.226   3.280  10.388
  106OSM   H15B10767   0.163   3.240  10.231
  106OSM   H15C10768   0.248   3.396  10.260
  106OSM    C1410769   0.491   3.303  10.304
  106OSM   H14A10770   0.512   3.393  10.245
  106OSM   H14B10771   0.580   3.242  10.297
  106OSM   H14C10772   0.480   3.331  10.408
  106OSM    C1310773   0.376   3.092  10.313
  106OSM   H13A10774   0.307   3.028  10.260
  106OSM   H13B10775   0.343   3.100  10.416
  106OSM   H13C10776   0.475   3.049  10.305
  106OSM    C1210777   0.385   3.203  10.098
  106OSM   H12A10778   0.296   3.149  10.071
  106OSM   H12B10779   0.469   3.139  10.076
  106OSM    C1110780   0.388   3.325  10.004
  106OSM   H11A10781   0.294   3.384  10.022
  106OSM   H11B10782   0.385   3.292   9.896
  106OSM      P10783   0.523   3.549   9.976
  106OSM    O1310784   0.395   3.620   9.996
  106OSM    O1410785   0.645   3.610  10.032
  106OSM    O1110786   0.548   3.527   9.821
  106OSM    O1210787   0.505   3.401  10.031
  106OSM    C1S10788   0.649   3.440   9.773
  106OSM    H1S10789   0.626   3.333   9.798
  106OSM    H1T10790   0.750   3.464   9.817
  106OSM     NF10791   0.683   3.324   9.563
  106OSM    HNF10792   0.774   3.328   9.524
  106OSM    C2S10793   0.648   3.451   9.620
  106OSM    H2S10794   0.550   3.472   9.577
  106OSM    C3S10795   0.743   3.571   9.575
  106OSM    H3S10796   0.847   3.558   9.606
  106OSM     O310797   0.718   3.692   9.639
  106OSM    HO310798   0.659   3.660   9.707
  106OSM    C4S10799   0.733   3.583   9.424
  106OSM    H4S10800   0.810   3.544   9.358
  106OSM    C5S10801   0.634   3.630   9.359
  106OSM    H5S10802   0.556   3.672   9.421
  106OSM    C6S10803   0.626   3.641   9.212
  106OSM    H6S10804   0.697   3.583   9.153
  106OSM    H6T10805   0.639   3.744   9.180
  106OSM    C7S10806   0.486   3.600   9.189
  106OSM    H7S10807   0.415   3.663   9.247
  106OSM    H7T10808   0.472   3.493   9.206
  106OSM    C8S10809   0.458   3.624   9.049
  106OSM    H8S10810   0.535   3.597   8.974
  106OSM    H8T10811   0.463   3.734   9.046
  106OSM    C9S10812   0.327   3.567   9.001
  106OSM    H9S10813   0.351   3.574   8.892
  106OSM    H9T10814   0.235   3.626   9.034
  106OSM   C10S10815   0.312   3.419   9.000
  106OSM   H10S10816   0.310   3.388   9.105
  106OSM   H10T10817   0.402   3.377   8.951
  106OSM   C11S10818   0.188   3.361   8.930
  106OSM   H11S10819   0.092   3.395   8.976
  106OSM   H11T10820   0.204   3.252   8.936
  106OSM   C12S10821   0.173   3.382   8.781
  106OSM   H12S10822   0.123   3.475   8.781
  106OSM   H12T10823   0.088   3.329   8.738
  106OSM   C13S10824   0.302   3.359   8.702
  106OSM   H13S10825   0.327   3.250   8.706
  106OSM   H13T10826   0.389   3.416   8.742
  106OSM   C14S10827   0.294   3.406   8.559
  106OSM   H14S10828   0.393   3.386   8.513
  106OSM   H14T10829   0.270   3.512   8.553
  106OSM   C15S10830   0.185   3.346   8.483
  106OSM   H15S10831   0.158   3.405   8.393
  106OSM   H15T10832   0.087   3.330   8.537
  106OSM   C16S10833   0.243   3.216   8.447
  106OSM   H16S10834   0.148   3.218   8.399
  106OSM   H16T10835   0.234   3.138   8.525
  106OSM   C17S10836   0.364   3.181   8.356
  106OSM   H17S10837   0.352   3.076   8.327
  106OSM   H17T10838   0.448   3.182   8.423
  106OSM   C18S10839   0.412   3.257   8.233
  106OSM   H18S10840   0.391   3.364   8.229
  106OSM   H18T10841   0.347   3.224   8.157
  106OSM   H18U10842   0.493   3.215   8.174
  106OSM    C1F10843   0.630   3.206   9.557
  106OSM     OF10844   0.526   3.177   9.612
  106OSM    C2F10845   0.703   3.107   9.480
  106OSM    H2F10846   0.728   3.035   9.561
  106OSM    H2G10847   0.803   3.125   9.434
  106OSM    C3F10848   0.608   3.058   9.367
  106OSM    H3F10849   0.512   3.034   9.414
  106OSM    H3G10850   0.635   2.968   9.311
  106OSM    C4F10851   0.600   3.156   9.254
  106OSM    H4F10852   0.696   3.149   9.197
  106OSM    H4G10853   0.589   3.254   9.304
  106OSM    C5F10854   0.477   3.134   9.165
  106OSM    H5F10855   0.495   3.190   9.071
  106OSM    H5G10856   0.384   3.161   9.216
  106OSM    C6F10857   0.448   2.992   9.129
  106OSM    H6F10858   0.428   2.924   9.215
  106OSM    H6G10859   0.552   2.980   9.109
  106OSM    C7F10860   0.355   2.966   9.010
  106OSM    H7F10861   0.273   3.035   9.033
  106OSM    H7G10862   0.313   2.863   9.010
  106OSM    C8F10863   0.375   3.028   8.869
  106OSM    H8F10864   0.408   3.127   8.870
  106OSM    H8G10865   0.289   2.989   8.811
  106OSM    C9F10866   0.460   2.991   8.764
  106OSM    H9F10867   0.398   2.907   8.707
  106OSM   C10F10868   0.597   3.019   8.742
  106OSM   H10F10869   0.678   2.935   8.728
  106OSM   C11F10870   0.666   3.108   8.831
  106OSM   H11F10871   0.768   3.095   8.865
  106OSM   H11G10872   0.603   3.148   8.907
  106OSM   C12F10873   0.669   3.204   8.711
  106OSM   H12F10874   0.600   3.208   8.627
  106OSM   H12G10875   0.747   3.164   8.640
  106OSM   C13F10876   0.669   3.360   8.748
  106OSM   H13F10877   0.735   3.383   8.841
  106OSM   H13G10878   0.649   3.387   8.851
  106OSM   C14F10879   0.725   3.450   8.616
  106OSM   H14F10880   0.770   3.549   8.648
  106OSM   H14G10881   0.625   3.448   8.579
  106OSM   C15F10882   0.836   3.400   8.498
  106OSM   H15F10883   0.820   3.294   8.471
  106OSM   H15G10884   0.947   3.401   8.521
  106OSM   C16F10885   0.860   3.484   8.385
  106OSM   H16F10886   0.915   3.574   8.412
  106OSM   H16G10887   0.760   3.499   8.406
  106OSM   C17F10888   0.873   3.413   8.253
  106OSM   H17F10889   0.778   3.358   8.232
  106OSM   H17G10890   0.957   3.343   8.267
  106OSM   C18F10891   0.904   3.507   8.139
  106OSM   H18F10892   0.954   3.600   8.175
  106OSM   H18G10893   0.809   3.531   8.088
  106OSM   H18H10894   0.966   3.457   8.064
  107OSM      N10895   2.243   0.619  10.287
  107OSM    C1510896   2.310   0.514  10.370
  107OSM   H15A10897   2.324   0.548  10.472
  107OSM   H15B10898   2.407   0.484  10.332
  107OSM   H15C10899   2.251   0.423  10.374
  107OSM    C1410900   2.106   0.650  10.340
  107OSM   H14A10901   2.047   0.692  10.260
  107OSM   H14B10902   2.106   0.720  10.424
  107OSM   H14C10903   2.059   0.562  10.381
  107OSM    C1310904   2.323   0.743  10.296
  107OSM   H13A10905   2.336   0.768  10.399
  107OSM   H13B10906   2.271   0.824  10.245
  107OSM   H13C10907   2.419   0.733  10.245
  107OSM    C1210908   2.233   0.568  10.141
  107OSM   H12A10909   2.166   0.484  10.146
  107OSM   H12B10910   2.330   0.530  10.110
  107OSM    C1110911   2.179   0.656  10.024
  107OSM   H11A10912   2.079   0.695  10.049
  107OSM   H11B10913   2.164   0.597   9.930
  107OSM      P10914   2.403   0.745   9.935
  107OSM    O1310915   2.499   0.749  10.046
  107OSM    O1410916   2.406   0.624   9.851
  107OSM    O1110917   2.417   0.875   9.846
  107OSM    O1210918   2.262   0.768   9.998
  107OSM    C1S10919   2.501   0.857   9.733
  107OSM    H1S10920   2.587   0.789   9.741
  107OSM    H1T10921   2.582   0.925   9.756
  107OSM     NF10922   2.512   0.812   9.486
  107OSM    HNF10923   2.540   0.891   9.430
  107OSM    C2S10924   2.417   0.853   9.596
  107OSM    H2S10925   2.342   0.777   9.600
  107OSM    C3S10926   2.335   0.997   9.566
  107OSM    H3S10927   2.384   1.098   9.538
  107OSM     O310928   2.249   1.041   9.665
  107OSM    HO310929   2.295   0.995   9.735
  107OSM    C4S10930   2.272   0.979   9.444
  107OSM    H4S10931   2.168   0.973   9.431
  107OSM    C5S10932   2.342   0.952   9.339
  107OSM    H5S10933   2.448   0.974   9.338
  107OSM    C6S10934   2.277   0.940   9.217
  107OSM    H6S10935   2.273   1.048   9.220
  107OSM    H6T10936   2.169   0.947   9.226
  107OSM    C7S10937   2.352   0.880   9.092
  107OSM    H7S10938   2.391   0.792   9.137
  107OSM    H7T10939   2.445   0.945   9.066
  107OSM    C8S10940   2.262   0.820   8.968
  107OSM    H8S10941   2.213   0.884   8.883
  107OSM    H8T10942   2.158   0.849   8.977
  107OSM    C9S10943   2.347   0.754   8.859
  107OSM    H9S10944   2.353   0.659   8.915
  107OSM    H9T10945   2.446   0.796   8.829
  107OSM   C10S10946   2.269   0.753   8.731
  107OSM   H10S10947   2.288   0.840   8.667
  107OSM   H10T10948   2.168   0.749   8.770
  107OSM   C11S10949   2.304   0.640   8.645
  107OSM   H11S10950   2.272   0.549   8.698
  107OSM   H11T10951   2.415   0.649   8.637
  107OSM   C12S10952   2.245   0.649   8.508
  107OSM   H12S10953   2.282   0.741   8.457
  107OSM   H12T10954   2.133   0.651   8.506
  107OSM   C13S10955   2.298   0.534   8.431
  107OSM   H13S10956   2.232   0.448   8.458
  107OSM   H13T10957   2.402   0.509   8.466
  107OSM   C14S10958   2.311   0.572   8.285
  107OSM   H14S10959   2.399   0.635   8.272
  107OSM   H14T10960   2.220   0.620   8.243
  107OSM   C15S10961   2.342   0.449   8.213
  107OSM   H15S10962   2.233   0.421   8.216
  107OSM   H15T10963   2.413   0.383   8.270
  107OSM   C16S10964   2.386   0.439   8.070
  107OSM   H16S10965   2.306   0.498   8.024
  107OSM   H16T10966   2.390   0.331   8.042
  107OSM   C17S10967   2.520   0.500   8.038
  107OSM   H17S10968   2.599   0.451   8.098
  107OSM   H17T10969   2.512   0.605   8.070
  107OSM   C18S10970   2.560   0.495   7.891
  107OSM   H18S10971   2.645   0.565   7.874
  107OSM   H18T10972   2.477   0.528   7.825
  107OSM   H18U10973   2.590   0.392   7.863
  107OSM    C1F10974   2.579   0.701   9.474
  107OSM     OF10975   2.545   0.609   9.543
  107OSM    C2F10976   2.692   0.693   9.376
  107OSM    H2F10977   2.743   0.598   9.397
  107OSM    H2G10978   2.762   0.775   9.385
  107OSM    C3F10979   2.639   0.694   9.232
  107OSM    H3F10980   2.621   0.798   9.194
  107OSM    H3G10981   2.547   0.635   9.234
  107OSM    C4F10982   2.729   0.630   9.126
  107OSM    H4F10983   2.762   0.526   9.146
  107OSM    H4G10984   2.814   0.692   9.129
  107OSM    C5F10985   2.680   0.646   8.982
  107OSM    H5F10986   2.672   0.756   8.961
  107OSM    H5G10987   2.581   0.597   8.993
  107OSM    C6F10988   2.751   0.567   8.869
  107OSM    H6F10989   2.773   0.467   8.907
  107OSM    H6G10990   2.850   0.592   8.831
  107OSM    C7F10991   2.692   0.576   8.730
  107OSM    H7F10992   2.662   0.682   8.712
  107OSM    H7G10993   2.600   0.519   8.728
  107OSM    C8F10994   2.793   0.529   8.622
  107OSM    H8F10995   2.842   0.432   8.646
  107OSM    H8G10996   2.875   0.603   8.628
  107OSM    C9F10997   2.732   0.522   8.484
  107OSM    H9F10998   2.689   0.425   8.453
  107OSM   C10F10999   2.705   0.628   8.409
  107OSM   H10F11000   2.659   0.613   8.309
  107OSM   C11F11001   2.730   0.771   8.452
  107OSM   H11F11002   2.776   0.838   8.385
  107OSM   H11G11003   2.804   0.794   8.528
  107OSM   C12F11004   2.613   0.861   8.455
  107OSM   H12F11005   2.650   0.960   8.492
  107OSM   H12G11006   2.549   0.809   8.527
  107OSM   C13F11007   2.557   0.874   8.316
  107OSM   H13F11008   2.517   0.780   8.278
  107OSM   H13G11009   2.626   0.922   8.244
  107OSM   C14F11010   2.446   0.964   8.315
  107OSM   H14F11011   2.484   1.058   8.353
  107OSM   H14G11012   2.375   0.931   8.394
  107OSM   C15F11013   2.388   0.977   8.176
  107OSM   H15F11014   2.339   1.059   8.225
  107OSM   H15G11015   2.315   0.898   8.149
  107OSM   C16F11016   2.460   1.042   8.055
  107OSM   H16F11017   2.564   1.016   8.068
  107OSM   H16G11018   2.474   1.153   8.060
  107OSM   C17F11019   2.395   0.996   7.921
  107OSM   H17F11020   2.292   1.041   7.904
  107OSM   H17G11021   2.375   0.889   7.935
  107OSM   C18F11022   2.482   1.009   7.792
  107OSM   H18F11023   2.524   1.109   7.762
  107OSM   H18G11024   2.429   0.989   7.698
  107OSM   H18H11025   2.572   0.956   7.818
  108OSM      N11026   0.603   1.742   9.989
  108OSM    C1511027   0.595   1.603   9.936
  108OSM   H15A11028   0.649   1.593   9.841
  108OSM   H15B11029   0.493   1.573   9.917
  108OSM   H15C11030   0.643   1.533  10.004
  108OSM    C1411031   0.748   1.778   9.992
  108OSM   H14A11032   0.796   1.701  10.051
  108OSM   H14B11033   0.769   1.875  10.036
  108OSM   H14C11034   0.789   1.777   9.891
  108OSM    C1311035   0.528   1.830   9.894
  108OSM   H13A11036   0.585   1.845   9.803
  108OSM   H13B11037   0.512   1.926   9.942
  108OSM   H13C11038   0.432   1.786   9.874
  108OSM    C1211039   0.544   1.755  10.129
  108OSM   H12A11040   0.614   1.715  10.202
  108OSM   H12B11041   0.452   1.699  10.135
  108OSM    C1111042   0.514   1.895  10.186
  108OSM   H11A11043   0.459   1.880  10.281
  108OSM   H11B11044   0.445   1.955  10.123
  108OSM      P11045   0.646   2.118  10.202
  108OSM    O1311046   0.540   2.178  10.286
  108OSM    O1411047   0.787   2.161  10.218
  108OSM    O1111048   0.600   2.132  10.050
  108OSM    O1211049   0.637   1.960  10.216
  108OSM    C1S11050   0.694   2.198   9.965
  108OSM    H1S11051   0.793   2.150   9.975
  108OSM    H1T11052   0.704   2.306   9.991
  108OSM     NF11053   0.769   2.225   9.735
  108OSM    HNF11054   0.769   2.318   9.700
  108OSM    C2S11055   0.659   2.189   9.815
  108OSM    H2S11056   0.627   2.085   9.787
  108OSM    C3S11057   0.542   2.274   9.782
  108OSM    H3S11058   0.563   2.383   9.807
  108OSM     O311059   0.433   2.217   9.849
  108OSM    HO311060   0.465   2.182   9.933
  108OSM    C4S11061   0.504   2.257   9.640
  108OSM    H4S11062   0.483   2.160   9.604
  108OSM    C5S11063   0.497   2.354   9.557
  108OSM    H5S11064   0.509   2.437   9.619
  108OSM    C6S11065   0.462   2.380   9.416
  108OSM    H6S11066   0.529   2.447   9.368
  108OSM    H6T11067   0.372   2.439   9.408
  108OSM    C7S11068   0.445   2.258   9.342
  108OSM    H7S11069   0.363   2.201   9.395
  108OSM    H7T11070   0.537   2.203   9.341
  108OSM    C8S11071   0.419   2.289   9.197
  108OSM    H8S11072   0.352   2.378   9.187
  108OSM    H8T11073   0.382   2.187   9.172
  108OSM    C9S11074   0.515   2.325   9.096
  108OSM    H9S11075   0.587   2.249   9.124
  108OSM    H9T11076   0.529   2.428   9.128
  108OSM   C10S11077   0.475   2.322   8.949
  108OSM   H10S11078   0.550   2.382   8.900
  108OSM   H10T11079   0.390   2.383   8.913
  108OSM   C11S11080   0.509   2.186   8.889
  108OSM   H11S11081   0.435   2.111   8.885
  108OSM   H11T11082   0.562   2.120   8.954
  108OSM   C12S11083   0.536   2.171   8.744
  108OSM   H12S11084   0.470   2.231   8.678
  108OSM   H12T11085   0.521   2.061   8.722
  108OSM   C13S11086   0.642   2.228   8.676
  108OSM   H13S11087   0.715   2.208   8.754
  108OSM   H13T11088   0.616   2.337   8.666
  108OSM   C14S11089   0.642   2.142   8.550
  108OSM   H14S11090   0.549   2.154   8.488
  108OSM   H14T11091   0.644   2.033   8.575
  108OSM   C15S11092   0.763   2.177   8.471
  108OSM   H15S11093   0.755   2.120   8.376
  108OSM   H15T11094   0.850   2.138   8.529
  108OSM   C16S11095   0.779   2.328   8.448
  108OSM   H16S11096   0.865   2.348   8.380
  108OSM   H16T11097   0.800   2.375   8.547
  108OSM   C17S11098   0.656   2.402   8.394
  108OSM   H17S11099   0.669   2.509   8.420
  108OSM   H17T11100   0.562   2.370   8.443
  108OSM   C18S11101   0.638   2.392   8.245
  108OSM   H18S11102   0.555   2.459   8.217
  108OSM   H18T11103   0.605   2.290   8.217
  108OSM   H18U11104   0.732   2.418   8.191
  108OSM    C1F11105   0.861   2.135   9.715
  108OSM     OF11106   0.868   2.030   9.778
  108OSM    C2F11107   0.963   2.180   9.622
  108OSM    H2F11108   1.050   2.119   9.641
  108OSM    H2G11109   0.978   2.289   9.635
  108OSM    C3F11110   0.971   2.142   9.477
  108OSM    H3F11111   0.941   2.036   9.482
  108OSM    H3G11112   1.076   2.146   9.436
  108OSM    C4F11113   0.879   2.234   9.401
  108OSM    H4F11114   0.928   2.333   9.384
  108OSM    H4G11115   0.787   2.249   9.460
  108OSM    C5F11116   0.838   2.175   9.268
  108OSM    H5F11117   0.930   2.139   9.217
  108OSM    H5G11118   0.797   2.256   9.204
  108OSM    C6F11119   0.739   2.060   9.274
  108OSM    H6F11120   0.646   2.083   9.221
  108OSM    H6G11121   0.706   2.033   9.377
  108OSM    C7F11122   0.798   1.945   9.198
  108OSM    H7F11123   0.876   1.908   9.256
  108OSM    H7G11124   0.843   1.961   9.096
  108OSM    C8F11125   0.709   1.832   9.197
  108OSM    H8F11126   0.678   1.793   9.298
  108OSM    H8G11127   0.765   1.752   9.152
  108OSM    C9F11128   0.604   1.879   9.105
  108OSM    H9F11129   0.515   1.909   9.162
  108OSM   C10F11130   0.592   1.845   8.976
  108OSM   H10F11131   0.492   1.858   8.931
  108OSM   C11F11132   0.679   1.752   8.898
  108OSM   H11F11133   0.623   1.674   8.850
  108OSM   H11G11134   0.749   1.690   8.957
  108OSM   C12F11135   0.728   1.798   8.773
  108OSM   H12F11136   0.785   1.880   8.816
  108OSM   H12G11137   0.640   1.828   8.710
  108OSM   C13F11138   0.818   1.694   8.713
  108OSM   H13F11139   0.770   1.628   8.642
  108OSM   H13G11140   0.874   1.628   8.785
  108OSM   C14F11141   0.882   1.764   8.600
  108OSM   H14F11142   0.965   1.815   8.625
  108OSM   H14G11143   0.845   1.858   8.565
  108OSM   C15F11144   0.949   1.681   8.505
  108OSM   H15F11145   0.980   1.587   8.565
  108OSM   H15G11146   1.031   1.744   8.457
  108OSM   C16F11147   0.877   1.633   8.398
  108OSM   H16F11148   0.809   1.571   8.461
  108OSM   H16G11149   0.954   1.581   8.343
  108OSM   C17F11150   0.814   1.734   8.309
  108OSM   H17F11151   0.886   1.819   8.301
  108OSM   H17G11152   0.725   1.767   8.365
  108OSM   C18F11153   0.781   1.681   8.170
  108OSM   H18F11154   0.868   1.681   8.101
  108OSM   H18G11155   0.695   1.729   8.123
  108OSM   H18H11156   0.742   1.581   8.172
  109OSM      N11157   5.889   1.041  10.114
  109OSM    C1511158   5.818   1.031  10.243
  109OSM   H15A11159   5.751   0.947  10.247
  109OSM   H15B11160   5.753   1.118  10.258
  109OSM   H15C11161   5.886   1.036  10.326
  109OSM    C1411162   5.789   1.059  10.010
  109OSM   H14A11163   5.843   1.058   9.916
  109OSM   H14B11164   5.734   1.149  10.016
  109OSM   H14C11165   5.724   0.971  10.003
  109OSM    C1311166   5.968   1.167  10.118
  109OSM   H13A11167   5.904   1.251  10.137
  109OSM   H13B11168   6.028   1.185  10.028
  109OSM   H13C11169   6.037   1.156  10.200
  109OSM    C1211170   5.972   0.918  10.083
  109OSM   H12A11171   5.996   0.918   9.977
  109OSM   H12B11172   5.909   0.829  10.094
  109OSM    C1111173   6.105   0.907  10.159
  109OSM   H11A11174   6.153   0.807  10.151
  109OSM   H11B11175   6.080   0.923  10.263
  109OSM      P11176   6.340   0.995  10.081
  109OSM    O1311177   6.427   1.043  10.189
  109OSM    O1411178   6.358   0.856  10.035
  109OSM    O1111179   6.342   1.089   9.952
  109OSM    O1211180   6.190   1.014  10.125
  109OSM    C1S11181   6.237   1.067   9.855
  109OSM    H1S11182   6.148   1.127   9.880
  109OSM    H1T11183   6.208   0.959   9.848
  109OSM     NF11184   6.168   1.086   9.626
  109OSM    HNF11185   6.158   1.006   9.568
  109OSM    C2S11186   6.277   1.099   9.710
  109OSM    H2S11187   6.315   1.205   9.703
  109OSM    C3S11188   6.376   0.998   9.663
  109OSM    H3S11189   6.325   0.899   9.663
  109OSM     O311190   6.494   0.998   9.742
  109OSM    HO311191   6.493   1.074   9.802
  109OSM    C4S11192   6.405   1.021   9.517
  109OSM    H4S11193   6.376   0.953   9.439
  109OSM    C5S11194   6.453   1.135   9.481
  109OSM    H5S11195   6.480   1.197   9.569
  109OSM    C6S11196   6.494   1.179   9.343
  109OSM    H6S11197   6.593   1.133   9.308
  109OSM    H6T11198   6.512   1.285   9.351
  109OSM    C7S11199   6.412   1.173   9.227
  109OSM    H7S11200   6.325   1.232   9.243
  109OSM    H7T11201   6.365   1.080   9.240
  109OSM    C8S11202   6.490   1.199   9.100
  109OSM    H8S11203   6.593   1.155   9.092
  109OSM    H8T11204   6.498   1.308   9.098
  109OSM    C9S11205   6.417   1.163   8.973
  109OSM    H9S11206   6.388   1.067   8.930
  109OSM    H9T11207   6.504   1.172   8.912
  109OSM   C10S11208   6.277   1.196   8.965
  109OSM   H10S11209   6.304   1.291   8.920
  109OSM   H10T11210   6.237   1.194   9.068
  109OSM   C11S11211   6.189   1.117   8.870
  109OSM   H11S11212   6.239   1.105   8.772
  109OSM   H11T11213   6.100   1.182   8.863
  109OSM   C12S11214   6.147   0.977   8.913
  109OSM   H12S11215   6.101   0.978   9.014
  109OSM   H12T11216   6.237   0.914   8.921
  109OSM   C13S11217   6.050   0.913   8.814
  109OSM   H13S11218   5.947   0.953   8.824
  109OSM   H13T11219   6.052   0.810   8.842
  109OSM   C14S11220   6.091   0.882   8.670
  109OSM   H14S11221   6.195   0.847   8.670
  109OSM   H14T11222   6.090   0.979   8.622
  109OSM   C15S11223   6.002   0.778   8.596
  109OSM   H15S11224   5.899   0.815   8.599
  109OSM   H15T11225   5.995   0.676   8.642
  109OSM   C16S11226   6.040   0.766   8.449
  109OSM   H16S11227   6.107   0.686   8.444
  109OSM   H16T11228   6.099   0.847   8.405
  109OSM   C17S11229   5.940   0.705   8.355
  109OSM   H17S11230   5.874   0.781   8.319
  109OSM   H17T11231   5.862   0.655   8.409
  109OSM   C18S11232   6.009   0.618   8.249
  109OSM   H18S11233   6.067   0.531   8.291
  109OSM   H18T11234   6.082   0.683   8.197
  109OSM   H18U11235   5.934   0.576   8.179
  109OSM    C1F11236   6.083   1.178   9.628
  109OSM     OF11237   6.086   1.274   9.703
  109OSM    C2F11238   5.978   1.156   9.532
  109OSM    H2F11239   5.989   1.054   9.517
  109OSM    H2G11240   5.989   1.136   9.427
  109OSM    C3F11241   5.839   1.189   9.583
  109OSM    H3F11242   5.896   1.265   9.572
  109OSM    H3G11243   5.799   1.215   9.682
  109OSM    C4F11244   5.735   1.181   9.479
  109OSM    H4F11245   5.668   1.233   9.557
  109OSM    H4G11246   5.669   1.095   9.468
  109OSM    C5F11247   5.780   1.215   9.322
  109OSM    H5F11248   5.680   1.182   9.324
  109OSM    H5G11249   5.858   1.158   9.282
  109OSM    C6F11250   5.793   1.358   9.229
  109OSM    H6F11251   5.896   1.357   9.251
  109OSM    H6G11252   5.732   1.455   9.250
  109OSM    C7F11253   5.836   1.411   9.102
  109OSM    H7F11254   5.836   1.521   9.097
  109OSM    H7G11255   5.748   1.404   9.062
  109OSM    C8F11256   5.931   1.327   9.034
  109OSM    H8F11257   6.020   1.317   9.094
  109OSM    H8G11258   5.960   1.372   8.945
  109OSM    C9F11259   5.867   1.202   8.994
  109OSM    H9F11260   5.889   1.118   9.059
  109OSM   C10F11261   5.778   1.189   8.897
  109OSM   H10F11262   5.722   1.096   8.908
  109OSM   C11F11263   5.724   1.298   8.807
  109OSM   H11F11264   5.759   1.394   8.825
  109OSM   H11G11265   5.622   1.320   8.827
  109OSM   C12F11266   5.733   1.293   8.660
  109OSM   H12F11267   5.665   1.344   8.590
  109OSM   H12G11268   5.653   1.225   8.655
  109OSM   C13F11269   5.878   1.250   8.624
  109OSM   H13F11270   5.921   1.153   8.656
  109OSM   H13G11271   5.944   1.322   8.669
  109OSM   C14F11272   5.895   1.236   8.480
  109OSM   H14F11273   5.837   1.314   8.429
  109OSM   H14G11274   5.851   1.141   8.468
  109OSM   C15F11275   6.012   1.164   8.425
  109OSM   H15F11276   6.002   1.138   8.323
  109OSM   H15G11277   6.026   1.067   8.471
  109OSM   C16F11278   6.121   1.247   8.430
  109OSM   H16F11279   6.200   1.213   8.496
  109OSM   H16G11280   6.079   1.332   8.485
  109OSM   C17F11281   6.172   1.271   8.291
  109OSM   H17F11282   6.197   1.359   8.341
  109OSM   H17G11283   6.135   1.326   8.205
  109OSM   C18F11284   6.273   1.175   8.238
  109OSM   H18F11285   6.338   1.220   8.160
  109OSM   H18G11286   6.208   1.096   8.198
  109OSM   H18H11287   6.336   1.131   8.314
  110OSM      N11288   5.303   6.673  10.181
  110OSM    C1511289   5.258   6.811  10.220
  110OSM   H15A11290   5.150   6.810  10.221
  110OSM   H15B11291   5.295   6.886  10.151
  110OSM   H15C11292   5.292   6.839  10.320
  110OSM    C1411293   5.266   6.577  10.287
  110OSM   H14A11294   5.309   6.479  10.270
  110OSM   H14B11295   5.159   6.568  10.289
  110OSM   H14C11296   5.298   6.614  10.385
  110OSM    C1311297   5.237   6.632  10.054
  110OSM   H13A11298   5.133   6.606  10.069
  110OSM   H13B11299   5.288   6.546  10.013
  110OSM   H13C11300   5.239   6.712   9.980
  110OSM    C1211301   5.453   6.664  10.171
  110OSM   H12A11302   5.478   6.559  10.163
  110OSM   H12B11303   5.492   6.699  10.266
  110OSM    C1111304   5.531   6.733  10.058
  110OSM   H11A11305   5.495   6.700   9.958
  110OSM   H11B11306   5.637   6.701  10.072
  110OSM      P11307   5.649   6.950  10.020
  110OSM    O1311308   5.623   7.053  10.110
  110OSM    O1411309   5.780   6.883  10.036
  110OSM    O1111310   5.631   7.014   9.878
  110OSM    O1211311   5.520   6.872  10.063
  110OSM    C1S11312   5.514   6.986   9.802
  110OSM    H1S11313   5.435   7.061   9.824
  110OSM    H1T11314   5.474   6.885   9.823
  110OSM     NF11315   5.628   6.884   9.610
  110OSM    HNF11316   5.723   6.899   9.586
  110OSM    C2S11317   5.547   6.997   9.653
  110OSM    H2S11318   5.454   7.002   9.592
  110OSM    C3S11319   5.616   7.131   9.635
  110OSM    H3S11320   5.719   7.125   9.681
  110OSM     O311321   5.552   7.243   9.688
  110OSM    HO311322   5.517   7.198   9.764
  110OSM    C4S11323   5.629   7.148   9.494
  110OSM    H4S11324   5.714   7.091   9.487
  110OSM    C5S11325   5.560   7.192   9.389
  110OSM    H5S11326   5.461   7.223   9.414
  110OSM    C6S11327   5.584   7.207   9.239
  110OSM    H6S11328   5.569   7.307   9.197
  110OSM    H6T11329   5.519   7.142   9.182
  110OSM    C7S11330   5.714   7.202   9.179
  110OSM    H7S11331   5.720   7.094   9.181
  110OSM    H7T11332   5.797   7.234   9.233
  110OSM    C8S11333   5.751   7.252   9.045
  110OSM    H8S11334   5.859   7.267   9.061
  110OSM    H8T11335   5.735   7.357   9.028
  110OSM    C9S11336   5.714   7.137   8.946
  110OSM    H9S11337   5.772   7.158   8.862
  110OSM    H9T11338   5.608   7.138   8.935
  110OSM   C10S11339   5.731   6.981   8.952
  110OSM   H10S11340   5.712   6.934   9.048
  110OSM   H10T11341   5.827   6.940   8.979
  110OSM   C11S11342   5.779   6.918   8.825
  110OSM   H11S11343   5.805   6.813   8.859
  110OSM   H11T11344   5.862   6.972   8.768
  110OSM   C12S11345   5.668   6.899   8.739
  110OSM   H12S11346   5.643   7.000   8.705
  110OSM   H12T11347   5.596   6.859   8.813
  110OSM   C13S11348   5.688   6.793   8.634
  110OSM   H13S11349   5.587   6.772   8.599
  110OSM   H13T11350   5.734   6.702   8.677
  110OSM   C14S11351   5.761   6.837   8.514
  110OSM   H14S11352   5.790   6.754   8.445
  110OSM   H14T11353   5.853   6.867   8.560
  110OSM   C15S11354   5.693   6.955   8.448
  110OSM   H15S11355   5.668   7.036   8.517
  110OSM   H15T11356   5.612   6.923   8.381
  110OSM   C16S11357   5.777   7.019   8.354
  110OSM   H16S11358   5.811   6.945   8.289
  110OSM   H16T11359   5.849   7.090   8.397
  110OSM   C17S11360   5.752   7.117   8.267
  110OSM   H17S11361   5.853   7.139   8.215
  110OSM   H17T11362   5.688   7.188   8.328
  110OSM   C18S11363   5.697   7.105   8.154
  110OSM   H18S11364   5.670   7.199   8.094
  110OSM   H18T11365   5.617   7.050   8.204
  110OSM   H18U11366   5.722   7.030   8.082
  110OSM    C1F11367   5.579   6.761   9.612
  110OSM     OF11368   5.465   6.737   9.650
  110OSM    C2F11369   5.669   6.650   9.570
  110OSM    H2F11370   5.673   6.581   9.657
  110OSM    H2G11371   5.773   6.682   9.544
  110OSM    C3F11372   5.607   6.568   9.456
  110OSM    H3F11373   5.504   6.536   9.484
  110OSM    H3G11374   5.665   6.474   9.455
  110OSM    C4F11375   5.604   6.644   9.322
  110OSM    H4F11376   5.679   6.602   9.251
  110OSM    H4G11377   5.632   6.751   9.337
  110OSM    C5F11378   5.464   6.640   9.257
  110OSM    H5F11379   5.387   6.657   9.336
  110OSM    H5G11380   5.442   6.538   9.221
  110OSM    C6F11381   5.444   6.747   9.148
  110OSM    H6F11382   5.500   6.724   9.055
  110OSM    H6G11383   5.482   6.846   9.183
  110OSM    C7F11384   5.296   6.761   9.112
  110OSM    H7F11385   5.231   6.757   9.202
  110OSM    H7G11386   5.270   6.673   9.050
  110OSM    C8F11387   5.271   6.888   9.031
  110OSM    H8F11388   5.339   6.889   8.945
  110OSM    H8G11389   5.288   6.981   9.088
  110OSM    C9F11390   5.134   6.899   8.981
  110OSM    H9F11391   5.068   6.929   9.061
  110OSM   C10F11392   5.079   6.859   8.867
  110OSM   H10F11393   4.977   6.896   8.852
  110OSM   C11F11394   5.136   6.785   8.747
  110OSM   H11F11395   5.240   6.759   8.764
  110OSM   H11G11396   5.120   6.844   8.654
  110OSM   C12F11397   5.100   6.637   8.713
  110OSM   H12F11398   4.999   6.645   8.722
  110OSM   H12G11399   5.088   6.560   8.789
  110OSM   C13F11400   5.129   6.594   8.566
  110OSM   H13F11401   5.100   6.660   8.482
  110OSM   H13G11402   5.072   6.505   8.536
  110OSM   C14F11403   5.274   6.586   8.547
  110OSM   H14F11404   5.301   6.503   8.615
  110OSM   H14G11405   5.320   6.682   8.581
  110OSM   C15F11406   5.312   6.558   8.404
  110OSM   H15F11407   5.281   6.639   8.334
  110OSM   H15G11408   5.257   6.466   8.372
  110OSM   C16F11409   5.462   6.539   8.405
  110OSM   H16F11410   5.487   6.462   8.481
  110OSM   H16G11411   5.514   6.631   8.442
  110OSM   C17F11412   5.521   6.511   8.266
  110OSM   H17F11413   5.621   6.466   8.286
  110OSM   H17G11414   5.543   6.605   8.215
  110OSM   C18F11415   5.441   6.425   8.165
  110OSM   H18F11416   5.410   6.327   8.207
  110OSM   H18G11417   5.512   6.404   8.080
  110OSM   H18H11418   5.345   6.462   8.133
  111OSM      N11419   0.466   5.766  10.045
  111OSM    C1511420   0.406   5.800   9.913
  111OSM   H15A11421   0.301   5.775   9.918
  111OSM   H15B11422   0.458   5.748   9.833
  111OSM   H15C11423   0.415   5.906   9.888
  111OSM    C1411424   0.609   5.814  10.047
  111OSM   H14A11425   0.615   5.922  10.047
  111OSM   H14B11426   0.659   5.775   9.958
  111OSM   H14C11427   0.665   5.778  10.133
  111OSM    C1311428   0.386   5.832  10.153
  111OSM   H13A11429   0.292   5.781  10.170
  111OSM   H13B11430   0.369   5.937  10.138
  111OSM   H13C11431   0.445   5.823  10.244
  111OSM    C1211432   0.460   5.618  10.072
  111OSM   H12A11433   0.518   5.561   9.999
  111OSM   H12B11434   0.356   5.586  10.062
  111OSM    C1111435   0.516   5.569  10.207
  111OSM   H11A11436   0.465   5.471  10.222
  111OSM   H11B11437   0.492   5.631  10.296
  111OSM      P11438   0.724   5.422  10.138
  111OSM    O1311439   0.867   5.448  10.113
  111OSM    O1411440   0.687   5.308  10.226
  111OSM    O1111441   0.649   5.411   9.996
  111OSM    O1211442   0.658   5.554  10.197
  111OSM    C1S11443   0.707   5.319   9.902
  111OSM    H1S11444   0.659   5.220   9.916
  111OSM    H1T11445   0.816   5.312   9.918
  111OSM     NF11446   0.703   5.269   9.649
  111OSM    HNF11447   0.785   5.285   9.592
  111OSM    C2S11448   0.682   5.364   9.754
  111OSM    H2S11449   0.574   5.384   9.748
  111OSM    C3S11450   0.768   5.488   9.721
  111OSM    H3S11451   0.876   5.461   9.721
  111OSM     O311452   0.751   5.596   9.811
  111OSM    HO311453   0.699   5.557   9.883
  111OSM    C4S11454   0.736   5.541   9.585
  111OSM    H4S11455   0.631   5.570   9.576
  111OSM    C5S11456   0.817   5.550   9.478
  111OSM    H5S11457   0.919   5.509   9.487
  111OSM    C6S11458   0.777   5.607   9.343
  111OSM    H6S11459   0.859   5.674   9.307
  111OSM    H6T11460   0.682   5.661   9.347
  111OSM    C7S11461   0.745   5.512   9.230
  111OSM    H7S11462   0.706   5.414   9.271
  111OSM    H7T11463   0.850   5.509   9.188
  111OSM    C8S11464   0.666   5.549   9.108
  111OSM    H8S11465   0.569   5.582   9.141
  111OSM    H8T11466   0.627   5.466   9.046
  111OSM    C9S11467   0.749   5.633   9.013
  111OSM    H9S11468   0.856   5.601   9.008
  111OSM    H9T11469   0.745   5.733   9.062
  111OSM   C10S11470   0.691   5.637   8.872
  111OSM   H10S11471   0.721   5.728   8.818
  111OSM   H10T11472   0.580   5.635   8.883
  111OSM   C11S11473   0.734   5.528   8.778
  111OSM   H11S11474   0.677   5.445   8.819
  111OSM   H11T11475   0.845   5.512   8.779
  111OSM   C12S11476   0.681   5.536   8.637
  111OSM   H12S11477   0.725   5.619   8.579
  111OSM   H12T11478   0.571   5.549   8.648
  111OSM   C13S11479   0.704   5.411   8.557
  111OSM   H13S11480   0.657   5.320   8.602
  111OSM   H13T11481   0.814   5.395   8.547
  111OSM   C14S11482   0.649   5.431   8.419
  111OSM   H14S11483   0.627   5.532   8.384
  111OSM   H14T11484   0.558   5.365   8.407
  111OSM   C15S11485   0.753   5.380   8.328
  111OSM   H15S11486   0.677   5.352   8.248
  111OSM   H15T11487   0.781   5.289   8.386
  111OSM   C16S11488   0.887   5.459   8.275
  111OSM   H16S11489   0.972   5.431   8.340
  111OSM   H16T11490   0.843   5.561   8.274
  111OSM   C17S11491   0.946   5.452   8.125
  111OSM   H17S11492   0.995   5.354   8.100
  111OSM   H17T11493   1.045   5.461   8.075
  111OSM   C18S11494   0.810   5.467   8.046
  111OSM   H18S11495   0.719   5.411   8.029
  111OSM   H18T11496   0.825   5.439   7.939
  111OSM   H18U11497   0.762   5.549   8.050
  111OSM    C1F11498   0.658   5.147   9.642
  111OSM     OF11499   0.621   5.083   9.738
  111OSM    C2F11500   0.658   5.091   9.506
  111OSM    H2F11501   0.661   4.989   9.515
  111OSM    H2G11502   0.740   5.069   9.446
  111OSM    C3F11503   0.571   5.168   9.414
  111OSM    H3F11504   0.558   5.272   9.425
  111OSM    H3G11505   0.496   5.129   9.474
  111OSM    C4F11506   0.580   5.147   9.266
  111OSM    H4F11507   0.637   5.050   9.259
  111OSM    H4G11508   0.659   5.191   9.220
  111OSM    C5F11509   0.461   5.197   9.169
  111OSM    H5F11510   0.404   5.273   9.216
  111OSM    H5G11511   0.385   5.119   9.203
  111OSM    C6F11512   0.477   5.205   9.000
  111OSM    H6F11513   0.538   5.128   8.939
  111OSM    H6G11514   0.576   5.225   8.974
  111OSM    C7F11515   0.344   5.171   8.925
  111OSM    H7F11516   0.301   5.266   8.926
  111OSM    H7G11517   0.277   5.091   8.969
  111OSM    C8F11518   0.337   5.122   8.788
  111OSM    H8F11519   0.370   5.024   8.820
  111OSM    H8G11520   0.408   5.182   8.725
  111OSM    C9F11521   0.226   5.073   8.715
  111OSM    H9F11522   0.193   4.971   8.738
  111OSM   C10F11523   0.177   5.157   8.631
  111OSM   H10F11524   0.089   5.118   8.582
  111OSM   C11F11525   0.232   5.298   8.614
  111OSM   H11F11526   0.315   5.332   8.682
  111OSM   H11G11527   0.149   5.361   8.646
  111OSM   C12F11528   0.273   5.344   8.474
  111OSM   H12F11529   0.364   5.288   8.443
  111OSM   H12G11530   0.303   5.452   8.479
  111OSM   C13F11531   0.162   5.322   8.370
  111OSM   H13F11532   0.075   5.386   8.393
  111OSM   H13G11533   0.124   5.217   8.375
  111OSM   C14F11534   0.207   5.345   8.225
  111OSM   H14F11535   0.116   5.336   8.162
  111OSM   H14G11536   0.278   5.265   8.193
  111OSM   C15F11537   0.270   5.483   8.195
  111OSM   H15F11538   0.317   5.522   8.286
  111OSM   H15G11539   0.194   5.559   8.168
  111OSM   C16F11540   0.377   5.480   8.086
  111OSM   H16F11541   0.424   5.380   8.078
  111OSM   H16G11542   0.456   5.548   8.120
  111OSM   C17F11543   0.322   5.520   7.949
  111OSM   H17F11544   0.253   5.597   7.954
  111OSM   H17G11545   0.240   5.452   7.922
  111OSM   C18F11546   0.421   5.555   7.837
  111OSM   H18F11547   0.495   5.628   7.864
  111OSM   H18G11548   0.369   5.595   7.749
  111OSM   H18H11549   0.479   5.468   7.805
  112OSM      N11550   0.060   2.629  10.271
  112OSM    C1511551   0.178   2.568  10.334
  112OSM   H15A11552   0.150   2.469  10.371
  112OSM   H15B11553   0.217   2.631  10.409
  112OSM   H15C11554   0.253   2.545  10.256
  112OSM    C1411555  -0.042   2.665  10.370
  112OSM   H14A11556  -0.127   2.717  10.327
  112OSM   H14B11557  -0.001   2.719  10.454
  112OSM   H14C11558  -0.085   2.576  10.410
  112OSM    C1311559   0.090   2.749  10.182
  112OSM   H13A11560  -0.001   2.793  10.141
  112OSM   H13B11561   0.149   2.717  10.096
  112OSM   H13C11562   0.144   2.826  10.233
  112OSM    C1211563   0.005   2.519  10.194
  112OSM   H12A11564  -0.100   2.552  10.178
  112OSM   H12B11565  -0.017   2.428  10.247
  112OSM    C1111566   0.088   2.486  10.062
  112OSM   H11A11567   0.074   2.562   9.978
  112OSM   H11B11568   0.049   2.395  10.016
  112OSM      P11569   0.296   2.463   9.942
  112OSM    O1311570   0.433   2.453   9.991
  112OSM    O1411571   0.224   2.360   9.863
  112OSM    O1111572   0.270   2.604   9.871
  112OSM    O1211573   0.223   2.466  10.081
  112OSM    C1S11574   0.361   2.641   9.768
  112OSM    H1S11575   0.467   2.611   9.792
  112OSM    H1T11576   0.361   2.751   9.754
  112OSM     NF11577   0.405   2.648   9.528
  112OSM    HNF11578   0.369   2.675   9.442
  112OSM    C2S11579   0.324   2.585   9.629
  112OSM    H2S11580   0.333   2.477   9.643
  112OSM    C3S11581   0.183   2.595   9.581
  112OSM    H3S11582   0.163   2.701   9.599
  112OSM     O311583   0.093   2.512   9.652
  112OSM    HO311584   0.148   2.452   9.706
  112OSM    C4S11585   0.167   2.555   9.432
  112OSM    H4S11586   0.190   2.632   9.357
  112OSM    C5S11587   0.141   2.430   9.384
  112OSM    H5S11588   0.152   2.341   9.449
  112OSM    C6S11589   0.126   2.398   9.238
  112OSM    H6S11590   0.174   2.477   9.174
  112OSM    H6T11591   0.021   2.391   9.211
  112OSM    C7S11592   0.153   2.254   9.190
  112OSM    H7S11593   0.156   2.157   9.238
  112OSM    H7T11594   0.224   2.239   9.269
  112OSM    C8S11595   0.194   2.250   9.042
  112OSM    H8S11596   0.254   2.338   9.022
  112OSM    H8T11597   0.112   2.280   8.977
  112OSM    C9S11598   0.245   2.114   8.993
  112OSM    H9S11599   0.198   2.037   9.052
  112OSM    H9T11600   0.343   2.076   9.030
  112OSM   C10S11601   0.209   2.091   8.842
  112OSM   H10S11602   0.107   2.125   8.819
  112OSM   H10T11603   0.228   1.983   8.822
  112OSM   C11S11604   0.270   2.172   8.732
  112OSM   H11S11605   0.339   2.089   8.730
  112OSM   H11T11606   0.304   2.275   8.757
  112OSM   C12S11607   0.283   2.145   8.584
  112OSM   H12S11608   0.293   2.039   8.551
  112OSM   H12T11609   0.362   2.201   8.528
  112OSM   C13S11610   0.169   2.224   8.560
  112OSM   H13S11611   0.187   2.333   8.568
  112OSM   H13T11612   0.094   2.200   8.637
  112OSM   C14S11613   0.132   2.187   8.429
  112OSM   H14S11614   0.041   2.243   8.450
  112OSM   H14T11615   0.112   2.079   8.414
  112OSM   C15S11616   0.213   2.252   8.322
  112OSM   H15S11617   0.321   2.245   8.332
  112OSM   H15T11618   0.177   2.356   8.299
  112OSM   C16S11619   0.198   2.170   8.204
  112OSM   H16S11620   0.095   2.172   8.204
  112OSM   H16T11621   0.233   2.068   8.184
  112OSM   C17S11622   0.205   2.234   8.087
  112OSM   H17S11623   0.114   2.275   8.049
  112OSM   H17T11624   0.145   2.164   8.025
  112OSM   C18S11625   0.347   2.285   8.066
  112OSM   H18S11626   0.397   2.190   8.037
  112OSM   H18T11627   0.374   2.352   8.146
  112OSM   H18U11628   0.377   2.347   7.980
  112OSM    C1F11629   0.528   2.648   9.519
  112OSM     OF11630   0.599   2.607   9.602
  112OSM    C2F11631   0.574   2.694   9.397
  112OSM    H2F11632   0.676   2.653   9.385
  112OSM    H2G11633   0.555   2.804   9.414
  112OSM    C3F11634   0.530   2.668   9.262
  112OSM    H3F11635   0.428   2.703   9.259
  112OSM    H3G11636   0.553   2.567   9.236
  112OSM    C4F11637   0.589   2.746   9.153
  112OSM    H4F11638   0.672   2.713   9.102
  112OSM    H4G11639   0.636   2.839   9.183
  112OSM    C5F11640   0.530   2.711   9.025
  112OSM    H5F11641   0.427   2.727   9.051
  112OSM    H5G11642   0.554   2.612   8.985
  112OSM    C6F11643   0.591   2.788   8.916
  112OSM    H6F11644   0.693   2.786   8.897
  112OSM    H6G11645   0.595   2.879   8.974
  112OSM    C7F11646   0.525   2.750   8.783
  112OSM    H7F11647   0.539   2.818   8.686
  112OSM    H7G11648   0.424   2.756   8.828
  112OSM    C8F11649   0.583   2.661   8.685
  112OSM    H8F11650   0.561   2.571   8.740
  112OSM    H8G11651   0.673   2.721   8.707
  112OSM    C9F11652   0.565   2.681   8.534
  112OSM    H9F11653   0.644   2.746   8.491
  112OSM   C10F11654   0.449   2.662   8.474
  112OSM   H10F11655   0.431   2.716   8.380
  112OSM   C11F11656   0.326   2.615   8.544
  112OSM   H11F11657   0.338   2.600   8.653
  112OSM   H11G11658   0.317   2.514   8.498
  112OSM   C12F11659   0.197   2.694   8.522
  112OSM   H12F11660   0.112   2.636   8.567
  112OSM   H12G11661   0.184   2.700   8.413
  112OSM   C13F11662   0.184   2.831   8.588
  112OSM   H13F11663   0.267   2.897   8.554
  112OSM   H13G11664   0.196   2.819   8.698
  112OSM   C14F11665   0.044   2.892   8.562
  112OSM   H14F11666   0.037   2.987   8.622
  112OSM   H14G11667  -0.040   2.829   8.596
  112OSM   C15F11668   0.006   2.914   8.414
  112OSM   H15F11669  -0.097   2.957   8.408
  112OSM   H15G11670   0.024   2.829   8.348
  112OSM   C16F11671   0.090   3.017   8.355
  112OSM   H16F11672   0.195   2.987   8.346
  112OSM   H16G11673   0.067   3.073   8.449
  112OSM   C17F11674   0.051   3.098   8.227
  112OSM   H17F11675  -0.056   3.112   8.223
  112OSM   H17G11676   0.096   3.024   8.161
  112OSM   C18F11677   0.097   3.243   8.186
  112OSM   H18F11678   0.191   3.251   8.221
  112OSM   H18G11679   0.068   3.325   8.247
  112OSM   H18H11680   0.112   3.281   8.086
  113OSM      N11681   0.013   1.932  10.199
  113OSM    C1511682  -0.032   2.001  10.326
  113OSM   H15A11683  -0.007   2.106  10.318
  113OSM   H15B11684   0.031   1.976  10.417
  113OSM   H15C11685  -0.133   1.988  10.360
  113OSM    C1411686   0.141   1.964  10.117
  113OSM   H14A11687   0.173   1.885  10.050
  113OSM   H14B11688   0.238   1.970  10.169
  113OSM   H14C11689   0.138   2.064  10.077
  113OSM    C1311690   0.003   1.791  10.228
  113OSM   H13A11691   0.005   1.723  10.144
  113OSM   H13B11692  -0.078   1.759  10.295
  113OSM   H13C11693   0.095   1.782  10.277
  113OSM    C1211694  -0.086   1.965  10.102
  113OSM   H12A11695  -0.042   1.931  10.009
  113OSM   H12B11696  -0.090   2.072  10.105
  113OSM    C1111697  -0.224   1.909  10.129
  113OSM   H11A11698  -0.294   1.971  10.070
  113OSM   H11B11699  -0.249   1.924  10.236
  113OSM      P11700  -0.328   1.713   9.981
  113OSM    O1311701  -0.311   1.567   9.975
  113OSM    O1411702  -0.465   1.768   9.996
  113OSM    O1111703  -0.260   1.773   9.849
  113OSM    O1211704  -0.234   1.771  10.095
  113OSM    C1S11705  -0.126   1.735   9.814
  113OSM    H1S11706  -0.091   1.641   9.862
  113OSM    H1T11707  -0.055   1.812   9.847
  113OSM     NF11708   0.008   1.649   9.629
  113OSM    HNF11709   0.094   1.694   9.608
  113OSM    C2S11710  -0.110   1.724   9.659
  113OSM    H2S11711  -0.200   1.671   9.618
  113OSM    C3S11712  -0.106   1.864   9.598
  113OSM    H3S11713  -0.023   1.921   9.644
  113OSM     O311714  -0.222   1.940   9.629
  113OSM    HO311715  -0.267   1.886   9.696
  113OSM    C4S11716  -0.085   1.853   9.447
  113OSM    H4S11717  -0.146   1.778   9.394
  113OSM    C5S11718   0.002   1.926   9.376
  113OSM    H5S11719   0.058   2.007   9.425
  113OSM    C6S11720   0.024   1.915   9.227
  113OSM    H6S11721   0.122   1.868   9.202
  113OSM    H6T11722   0.031   2.018   9.188
  113OSM    C7S11723  -0.077   1.836   9.143
  113OSM    H7S11724  -0.181   1.873   9.157
  113OSM    H7T11725  -0.072   1.729   9.174
  113OSM    C8S11726  -0.046   1.836   8.992
  113OSM    H8S11727  -0.123   1.770   8.949
  113OSM    H8T11728   0.052   1.788   8.971
  113OSM    C9S11729  -0.045   1.970   8.920
  113OSM    H9S11730  -0.019   1.954   8.814
  113OSM    H9T11731   0.031   2.030   8.969
  113OSM   C10S11732  -0.173   2.052   8.924
  113OSM   H10S11733  -0.182   2.097   9.026
  113OSM   H10T11734  -0.251   1.976   8.906
  113OSM   C11S11735  -0.196   2.151   8.808
  113OSM   H11S11736  -0.124   2.236   8.807
  113OSM   H11T11737  -0.300   2.185   8.817
  113OSM   C12S11738  -0.218   2.089   8.671
  113OSM   H12S11739  -0.325   2.066   8.654
  113OSM   H12T11740  -0.168   1.991   8.675
  113OSM   C13S11741  -0.168   2.179   8.558
  113OSM   H13S11742  -0.075   2.216   8.594
  113OSM   H13T11743  -0.222   2.275   8.544
  113OSM   C14S11744  -0.147   2.103   8.426
  113OSM   H14S11745  -0.240   2.046   8.410
  113OSM   H14T11746  -0.068   2.026   8.444
  113OSM   C15S11747  -0.122   2.193   8.300
  113OSM   H15S11748  -0.036   2.263   8.292
  113OSM   H15T11749  -0.192   2.274   8.301
  113OSM   C16S11750  -0.112   2.118   8.168
  113OSM   H16S11751  -0.065   2.192   8.098
  113OSM   H16T11752  -0.212   2.101   8.132
  113OSM   C17S11753  -0.025   1.989   8.173
  113OSM   H17S11754  -0.071   1.913   8.235
  113OSM   H17T11755   0.067   1.989   8.235
  113OSM   C18S11756   0.017   1.946   8.035
  113OSM   H18S11757  -0.069   1.938   7.968
  113OSM   H18T11758   0.069   1.852   8.051
  113OSM   H18U11759   0.087   2.006   7.974
  113OSM    C1F11760   0.002   1.520   9.631
  113OSM     OF11761  -0.096   1.451   9.656
  113OSM    C2F11762   0.125   1.458   9.604
  113OSM    H2F11763   0.113   1.399   9.693
  113OSM    H2G11764   0.223   1.497   9.637
  113OSM    C3F11765   0.124   1.394   9.465
  113OSM    H3F11766   0.028   1.343   9.442
  113OSM    H3G11767   0.200   1.317   9.443
  113OSM    C4F11768   0.165   1.505   9.371
  113OSM    H4F11769   0.263   1.546   9.406
  113OSM    H4G11770   0.086   1.582   9.379
  113OSM    C5F11771   0.174   1.462   9.228
  113OSM    H5F11772   0.075   1.428   9.196
  113OSM    H5G11773   0.248   1.379   9.218
  113OSM    C6F11774   0.195   1.570   9.129
  113OSM    H6F11775   0.120   1.649   9.121
  113OSM    H6G11776   0.213   1.528   9.027
  113OSM    C7F11777   0.308   1.652   9.161
  113OSM    H7F11778   0.379   1.586   9.188
  113OSM    H7G11779   0.315   1.721   9.248
  113OSM    C8F11780   0.340   1.715   9.030
  113OSM    H8F11781   0.402   1.781   9.086
  113OSM    H8G11782   0.269   1.790   9.007
  113OSM    C9F11783   0.389   1.651   8.899
  113OSM    H9F11784   0.473   1.590   8.888
  113OSM   C10F11785   0.352   1.622   8.784
  113OSM   H10F11786   0.410   1.551   8.727
  113OSM   C11F11787   0.226   1.650   8.737
  113OSM   H11F11788   0.257   1.700   8.645
  113OSM   H11G11789   0.178   1.715   8.811
  113OSM   C12F11790   0.161   1.515   8.716
  113OSM   H12F11791   0.145   1.457   8.811
  113OSM   H12G11792   0.222   1.453   8.648
  113OSM   C13F11793   0.025   1.545   8.653
  113OSM   H13F11794  -0.028   1.601   8.733
  113OSM   H13G11795  -0.027   1.450   8.636
  113OSM   C14F11796   0.030   1.623   8.520
  113OSM   H14F11797   0.098   1.564   8.455
  113OSM   H14G11798   0.070   1.726   8.533
  113OSM   C15F11799  -0.099   1.645   8.438
  113OSM   H15F11800  -0.067   1.688   8.341
  113OSM   H15G11801  -0.164   1.721   8.486
  113OSM   C16F11802  -0.172   1.512   8.414
  113OSM   H16F11803  -0.210   1.477   8.512
  113OSM   H16G11804  -0.099   1.439   8.376
  113OSM   C17F11805  -0.288   1.512   8.315
  113OSM   H17F11806  -0.337   1.604   8.329
  113OSM   H17G11807  -0.362   1.435   8.340
  113OSM   C18F11808  -0.253   1.498   8.172
  113OSM   H18F11809  -0.331   1.514   8.094
  113OSM   H18G11810  -0.215   1.393   8.160
  113OSM   H18H11811  -0.176   1.575   8.153
  114OSM      N11812  -0.170   0.916  10.068
  114OSM    C1511813  -0.252   1.041  10.101
  114OSM   H15A11814  -0.234   1.119  10.022
  114OSM   H15B11815  -0.268   1.075  10.199
  114OSM   H15C11816  -0.355   1.028  10.058
  114OSM    C1411817  -0.140   0.854   9.938
  114OSM   H14A11818  -0.056   0.804   9.892
  114OSM   H14B11819  -0.160   0.936   9.867
  114OSM   H14C11820  -0.229   0.801   9.901
  114OSM    C1311821  -0.047   0.973  10.098
  114OSM   H13A11822  -0.045   0.987  10.203
  114OSM   H13B11823  -0.034   1.067  10.045
  114OSM   H13C11824   0.027   0.900  10.061
  114OSM    C1211825  -0.241   0.810  10.140
  114OSM   H12A11826  -0.343   0.797  10.107
  114OSM   H12B11827  -0.244   0.854  10.237
  114OSM    C1111828  -0.178   0.676  10.134
  114OSM   H11A11829  -0.161   0.626  10.034
  114OSM   H11B11830  -0.227   0.602  10.192
  114OSM      P11831   0.058   0.669  10.148
  114OSM    O1311832   0.144   0.698  10.265
  114OSM    O1411833   0.048   0.530  10.104
  114OSM    O1111834   0.115   0.735  10.008
  114OSM    O1211835  -0.071   0.702  10.212
  114OSM    C1S11836   0.223   0.678   9.920
  114OSM    H1S11837   0.216   0.567   9.907
  114OSM    H1T11838   0.333   0.692   9.955
  114OSM     NF11839   0.346   0.646   9.722
  114OSM    HNF11840   0.446   0.650   9.736
  114OSM    C2S11841   0.270   0.740   9.792
  114OSM    H2S11842   0.173   0.751   9.742
  114OSM    C3S11843   0.363   0.854   9.828
  114OSM    H3S11844   0.456   0.825   9.871
  114OSM     O311845   0.322   0.926   9.941
  114OSM    HO311846   0.229   0.903   9.967
  114OSM    C4S11847   0.393   0.913   9.691
  114OSM    H4S11848   0.494   0.930   9.673
  114OSM    C5S11849   0.329   0.970   9.595
  114OSM    H5S11850   0.269   1.028   9.650
  114OSM    C6S11851   0.327   1.035   9.461
  114OSM    H6S11852   0.421   1.058   9.471
  114OSM    H6T11853   0.281   1.137   9.429
  114OSM    C7S11854   0.291   0.949   9.359
  114OSM    H7S11855   0.194   0.960   9.380
  114OSM    H7T11856   0.295   0.846   9.380
  114OSM    C8S11857   0.333   0.989   9.228
  114OSM    H8S11858   0.417   0.922   9.260
  114OSM    H8T11859   0.364   1.095   9.209
  114OSM    C9S11860   0.272   0.920   9.116
  114OSM    H9S11861   0.245   0.819   9.140
  114OSM    H9T11862   0.342   0.864   9.060
  114OSM   C10S11863   0.248   1.011   9.004
  114OSM   H10S11864   0.325   1.091   8.988
  114OSM   H10T11865   0.167   1.050   9.057
  114OSM   C11S11866   0.206   0.926   8.891
  114OSM   H11S11867   0.123   0.863   8.929
  114OSM   H11T11868   0.283   0.857   8.857
  114OSM   C12S11869   0.156   1.004   8.778
  114OSM   H12S11870   0.242   1.058   8.736
  114OSM   H12T11871   0.089   1.086   8.794
  114OSM   C13S11872   0.058   0.924   8.690
  114OSM   H13S11873  -0.002   0.999   8.634
  114OSM   H13T11874  -0.014   0.864   8.743
  114OSM   C14S11875   0.111   0.808   8.616
  114OSM   H14S11876   0.051   0.775   8.528
  114OSM   H14T11877   0.143   0.727   8.682
  114OSM   C15S11878   0.228   0.863   8.566
  114OSM   H15S11879   0.259   0.780   8.495
  114OSM   H15T11880   0.317   0.852   8.630
  114OSM   C16S11881   0.181   1.011   8.517
  114OSM   H16S11882   0.266   1.097   8.519
  114OSM   H16T11883   0.182   1.109   8.557
  114OSM   C17S11884   0.098   0.981   8.394
  114OSM   H17S11885   0.122   1.041   8.312
  114OSM   H17T11886  -0.005   1.011   8.413
  114OSM   C18S11887   0.131   0.877   8.289
  114OSM   H18S11888   0.130   0.778   8.309
  114OSM   H18T11889   0.200   0.903   8.198
  114OSM   H18U11890   0.032   0.894   8.276
  114OSM    C1F11891   0.294   0.553   9.653
  114OSM     OF11892   0.185   0.504   9.667
  114OSM    C2F11893   0.381   0.510   9.557
  114OSM    H2F11894   0.395   0.411   9.584
  114OSM    H2G11895   0.473   0.566   9.567
  114OSM    C3F11896   0.337   0.540   9.420
  114OSM    H3F11897   0.347   0.648   9.404
  114OSM    H3G11898   0.258   0.475   9.386
  114OSM    C4F11899   0.441   0.515   9.331
  114OSM    H4F11900   0.475   0.428   9.388
  114OSM    H4G11901   0.518   0.574   9.367
  114OSM    C5F11902   0.453   0.546   9.179
  114OSM    H5F11903   0.543   0.507   9.132
  114OSM    H5G11904   0.493   0.642   9.155
  114OSM    C6F11905   0.344   0.495   9.097
  114OSM    H6F11906   0.253   0.522   9.145
  114OSM    H6G11907   0.354   0.391   9.132
  114OSM    C7F11908   0.352   0.533   8.946
  114OSM    H7F11909   0.425   0.488   8.875
  114OSM    H7G11910   0.394   0.634   8.942
  114OSM    C8F11911   0.231   0.487   8.869
  114OSM    H8F11912   0.203   0.385   8.899
  114OSM    H8G11913   0.255   0.484   8.760
  114OSM    C9F11914   0.121   0.583   8.896
  114OSM    H9F11915   0.150   0.686   8.877
  114OSM   C10F11916  -0.004   0.553   8.929
  114OSM   H10F11917  -0.075   0.636   8.938
  114OSM   C11F11918  -0.063   0.415   8.948
  114OSM   H11F11919  -0.163   0.429   8.995
  114OSM   H11G11920  -0.002   0.353   9.018
  114OSM   C12F11921  -0.073   0.326   8.820
  114OSM   H12F11922  -0.108   0.225   8.848
  114OSM   H12G11923   0.029   0.312   8.779
  114OSM   C13F11924  -0.179   0.366   8.718
  114OSM   H13F11925  -0.159   0.469   8.695
  114OSM   H13G11926  -0.281   0.364   8.761
  114OSM   C14F11927  -0.179   0.288   8.587
  114OSM   H14F11928  -0.263   0.325   8.523
  114OSM   H14G11929  -0.203   0.180   8.605
  114OSM   C15F11930  -0.047   0.303   8.510
  114OSM   H15F11931  -0.054   0.244   8.417
  114OSM   H15G11932   0.039   0.273   8.573
  114OSM   C16F11933  -0.017   0.443   8.465
  114OSM   H16F11934   0.012   0.501   8.558
  114OSM   H16G11935  -0.112   0.476   8.415
  114OSM   C17F11936   0.097   0.471   8.372
  114OSM   H17F11937   0.155   0.379   8.366
  114OSM   H17G11938   0.160   0.557   8.402
  114OSM   C18F11939   0.063   0.484   8.232
  114OSM   H18F11940  -0.007   0.409   8.190
  114OSM   H18G11941   0.150   0.518   8.172
  114OSM   H18H11942   0.014   0.564   8.192
  115OSM      N11943   3.241   4.651   5.750
  115OSM    C1511944   3.334   4.533   5.738
  115OSM   H15A11945   3.280   4.443   5.709
  115OSM   H15B11946   3.375   4.510   5.836
  115OSM   H15C11947   3.409   4.553   5.663
  115OSM    C1411948   3.318   4.775   5.783
  115OSM   H14A11949   3.386   4.800   5.701
  115OSM   H14B11950   3.377   4.765   5.873
  115OSM   H14C11951   3.254   4.861   5.800
  115OSM    C1311952   3.183   4.663   5.614
  115OSM   H13A11953   3.118   4.747   5.599
  115OSM   H13B11954   3.124   4.574   5.597
  115OSM   H13C11955   3.265   4.668   5.541
  115OSM    C1211956   3.135   4.616   5.854
  115OSM   H12A11957   3.089   4.520   5.827
  115OSM   H12B11958   3.057   4.690   5.852
  115OSM    C1111959   3.184   4.597   6.001
  115OSM   H11A11960   3.093   4.600   6.066
  115OSM   H11B11961   3.253   4.680   6.029
  115OSM      P11962   3.188   4.335   6.025
  115OSM    O1311963   3.060   4.348   5.951
  115OSM    O1411964   3.291   4.244   5.971
  115OSM    O1111965   3.159   4.314   6.176
  115OSM    O1211966   3.257   4.478   6.023
  115OSM    C1S11967   3.207   4.397   6.283
  115OSM    H1S11968   3.171   4.500   6.269
  115OSM    H1T11969   3.318   4.390   6.292
  115OSM     NF11970   3.162   4.451   6.530
  115OSM    HNF11971   3.228   4.423   6.599
  115OSM    C2S11972   3.143   4.360   6.422
  115OSM    H2S11973   3.035   4.339   6.399
  115OSM    C3S11974   3.202   4.240   6.467
  115OSM    H3S11975   3.311   4.234   6.495
  115OSM     O311976   3.193   4.158   6.357
  115OSM    HO311977   3.142   4.167   6.275
  115OSM    C4S11978   3.138   4.183   6.585
  115OSM    H4S11979   3.175   4.214   6.683
  115OSM    C5S11980   3.016   4.150   6.588
  115OSM    H5S11981   2.962   4.128   6.498
  115OSM    C6S11982   2.979   4.089   6.708
  115OSM    H6S11983   2.958   3.975   6.717
  115OSM    H6T11984   2.885   4.101   6.647
  115OSM    C7S11985   2.980   4.156   6.850
  115OSM    H7S11986   2.922   4.246   6.867
  115OSM    H7T11987   3.088   4.173   6.858
  115OSM    C8S11988   2.920   4.083   6.974
  115OSM    H8S11989   2.929   3.969   6.946
  115OSM    H8T11990   2.853   4.019   7.012
  115OSM    C9S11991   2.901   4.138   7.121
  115OSM    H9S11992   2.867   4.041   7.179
  115OSM    H9T11993   2.809   4.195   7.130
  115OSM   C10S11994   3.037   4.215   7.173
  115OSM   H10S11995   3.069   4.276   7.091
  115OSM   H10T11996   3.133   4.172   7.126
  115OSM   C11S11997   3.073   4.245   7.335
  115OSM   H11S11998   3.019   4.179   7.421
  115OSM   H11T11999   2.992   4.296   7.376
  115OSM   C12S12000   3.233   4.238   7.369
  115OSM   H12S12001   3.289   4.273   7.283
  115OSM   H12T12002   3.305   4.147   7.357
  115OSM   C13S12003   3.242   4.276   7.514
  115OSM   H13S12004   3.184   4.226   7.597
  115OSM   H13T12005   3.189   4.370   7.504
  115OSM   C14S12006   3.382   4.260   7.549
  115OSM   H14S12007   3.435   4.303   7.461
  115OSM   H14T12008   3.406   4.151   7.559
  115OSM   C15S12009   3.394   4.336   7.677
  115OSM   H15S12010   3.374   4.270   7.762
  115OSM   H15T12011   3.320   4.420   7.676
  115OSM   C16S12012   3.533   4.387   7.690
  115OSM   H16S12013   3.554   4.421   7.591
  115OSM   H16T12014   3.602   4.303   7.695
  115OSM   C17S12015   3.552   4.489   7.801
  115OSM   H17S12016   3.477   4.570   7.792
  115OSM   H17T12017   3.652   4.536   7.789
  115OSM   C18S12018   3.548   4.425   7.940
  115OSM   H18S12019   3.626   4.347   7.949
  115OSM   H18T12020   3.447   4.382   7.961
  115OSM   H18U12021   3.573   4.503   8.013
  115OSM    C1F12022   3.098   4.564   6.535
  115OSM     OF12023   3.002   4.587   6.464
  115OSM    C2F12024   3.149   4.663   6.630
  115OSM    H2F12025   3.160   4.757   6.572
  115OSM    H2G12026   3.250   4.635   6.669
  115OSM    C3F12027   3.046   4.676   6.742
  115OSM    H3F12028   2.945   4.704   6.707
  115OSM    H3G12029   3.074   4.756   6.810
  115OSM    C4F12030   3.043   4.556   6.836
  115OSM    H4F12031   3.141   4.555   6.889
  115OSM    H4G12032   3.031   4.460   6.781
  115OSM    C5F12033   2.925   4.571   6.932
  115OSM    H5F12034   2.833   4.555   6.872
  115OSM    H5G12035   2.918   4.675   6.970
  115OSM    C6F12036   2.941   4.479   7.054
  115OSM    H6F12037   3.044   4.497   7.092
  115OSM    H6G12038   2.932   4.374   7.026
  115OSM    C7F12039   2.839   4.492   7.167
  115OSM    H7F12040   2.777   4.401   7.173
  115OSM    H7G12041   2.773   4.566   7.125
  115OSM    C8F12042   2.893   4.535   7.305
  115OSM    H8F12043   2.914   4.643   7.304
  115OSM    H8G12044   2.988   4.481   7.322
  115OSM    C9F12045   2.792   4.501   7.411
  115OSM    H9F12046   2.717   4.438   7.366
  115OSM   C10F12047   2.746   4.570   7.517
  115OSM   H10F12048   2.653   4.533   7.565
  115OSM   C11F12049   2.788   4.708   7.558
  115OSM   H11F12050   2.702   4.777   7.545
  115OSM   H11G12051   2.866   4.752   7.493
  115OSM   C12F12052   2.832   4.707   7.704
  115OSM   H12F12053   2.745   4.688   7.771
  115OSM   H12G12054   2.868   4.810   7.726
  115OSM   C13F12055   2.948   4.611   7.735
  115OSM   H13F12056   2.926   4.508   7.698
  115OSM   H13G12057   2.956   4.605   7.846
  115OSM   C14F12058   3.083   4.653   7.674
  115OSM   H14F12059   3.074   4.699   7.573
  115OSM   H14G12060   3.139   4.558   7.660
  115OSM   C15F12061   3.170   4.741   7.767
  115OSM   H15F12062   3.272   4.747   7.723
  115OSM   H15G12063   3.180   4.691   7.865
  115OSM   C16F12064   3.127   4.888   7.785
  115OSM   H16F12065   3.030   4.894   7.838
  115OSM   H16G12066   3.111   4.927   7.682
  115OSM   C17F12067   3.231   4.972   7.867
  115OSM   H17F12068   3.229   4.937   7.972
  115OSM   H17G12069   3.210   5.078   7.880
  115OSM   C18F12070   3.373   4.977   7.813
  115OSM   H18F12071   3.378   4.967   7.703
  115OSM   H18G12072   3.434   4.905   7.870
  115OSM   H18H12073   3.423   5.074   7.824
  116OSM      N12074   2.884   2.332   5.976
  116OSM    C1512075   3.014   2.387   6.028
  116OSM   H15A12076   3.068   2.449   5.957
  116OSM   H15B12077   3.084   2.306   6.053
  116OSM   H15C12078   2.996   2.440   6.120
  116OSM    C1412079   2.827   2.238   6.079
  116OSM   H14A12080   2.743   2.183   6.037
  116OSM   H14B12081   2.797   2.287   6.169
  116OSM   H14C12082   2.901   2.161   6.102
  116OSM    C1312083   2.781   2.436   5.946
  116OSM   H13A12084   2.819   2.511   5.879
  116OSM   H13B12085   2.747   2.486   6.036
  116OSM   H13C12086   2.696   2.391   5.895
  116OSM    C1212087   2.907   2.257   5.848
  116OSM   H12A12088   2.953   2.326   5.778
  116OSM   H12B12089   2.809   2.230   5.809
  116OSM    C1112090   2.987   2.125   5.859
  116OSM   H11A12091   3.076   2.144   5.922
  116OSM   H11B12092   3.023   2.096   5.758
  116OSM      P12093   2.798   1.949   5.828
  116OSM    O1312094   2.673   2.016   5.874
  116OSM    O1412095   2.830   1.965   5.686
  116OSM    O1112096   2.793   1.798   5.873
  116OSM    O1212097   2.911   2.018   5.916
  116OSM    C1S12098   2.877   1.739   5.972
  116OSM    H1S12099   2.984   1.759   5.957
  116OSM    H1T12100   2.863   1.628   5.965
  116OSM     NF12101   2.954   1.775   6.207
  116OSM    HNF12102   2.936   1.714   6.283
  116OSM    C2S12103   2.842   1.779   6.116
  116OSM    H2S12104   2.796   1.880   6.122
  116OSM    C3S12105   2.740   1.679   6.164
  116OSM    H3S12106   2.793   1.582   6.149
  116OSM     O312107   2.619   1.673   6.093
  116OSM    HO312108   2.645   1.723   6.015
  116OSM    C4S12109   2.710   1.712   6.308
  116OSM    H4S12110   2.740   1.646   6.388
  116OSM    C5S12111   2.640   1.807   6.358
  116OSM    H5S12112   2.602   1.884   6.293
  116OSM    C6S12113   2.624   1.817   6.504
  116OSM    H6S12114   2.519   1.785   6.536
  116OSM    H6T12115   2.649   1.925   6.519
  116OSM    C7S12116   2.700   1.761   6.616
  116OSM    H7S12117   2.806   1.777   6.594
  116OSM    H7T12118   2.674   1.657   6.618
  116OSM    C8S12119   2.655   1.811   6.752
  116OSM    H8S12120   2.555   1.767   6.772
  116OSM    H8T12121   2.644   1.922   6.752
  116OSM    C9S12122   2.752   1.748   6.852
  116OSM    H9S12123   2.837   1.705   6.794
  116OSM    H9T12124   2.700   1.665   6.905
  116OSM   C10S12125   2.823   1.841   6.949
  116OSM   H10S12126   2.832   1.941   6.904
  116OSM   H10T12127   2.925   1.799   6.967
  116OSM   C11S12128   2.750   1.848   7.081
  116OSM   H11S12129   2.749   1.743   7.120
  116OSM   H11T12130   2.644   1.879   7.062
  116OSM   C12S12131   2.820   1.935   7.184
  116OSM   H12S12132   2.804   2.043   7.165
  116OSM   H12T12133   2.930   1.916   7.183
  116OSM   C13S12134   2.766   1.904   7.324
  116OSM   H13S12135   2.799   1.799   7.338
  116OSM   H13T12136   2.654   1.902   7.322
  116OSM   C14S12137   2.817   2.003   7.431
  116OSM   H14S12138   2.818   2.105   7.388
  116OSM   H14T12139   2.922   1.980   7.458
  116OSM   C15S12140   2.735   2.014   7.560
  116OSM   H15S12141   2.631   2.048   7.537
  116OSM   H15T12142   2.783   2.091   7.625
  116OSM   C16S12143   2.731   1.883   7.639
  116OSM   H16S12144   2.685   1.803   7.576
  116OSM   H16T12145   2.669   1.899   7.730
  116OSM   C17S12146   2.867   1.833   7.687
  116OSM   H17S12147   2.927   1.919   7.723
  116OSM   H17T12148   2.920   1.788   7.599
  116OSM   C18S12149   2.863   1.725   7.795
  116OSM   H18S12150   2.795   1.750   7.879
  116OSM   H18T12151   2.966   1.706   7.830
  116OSM   H18U12152   2.831   1.628   7.754
  116OSM    C1F12153   3.058   1.854   6.213
  116OSM     OF12154   3.103   1.924   6.122
  116OSM    C2F12155   3.119   1.851   6.344
  116OSM    H2F12156   3.211   1.793   6.346
  116OSM    H2G12157   3.062   1.810   6.428
  116OSM    C3F12158   3.158   1.990   6.372
  116OSM    H3F12159   3.225   2.012   6.288
  116OSM    H3G12160   3.208   1.977   6.466
  116OSM    C4F12161   3.070   2.108   6.401
  116OSM    H4F12162   3.014   2.083   6.491
  116OSM    H4G12163   3.013   2.123   6.310
  116OSM    C5F12164   3.133   2.240   6.446
  116OSM    H5F12165   3.063   2.324   6.435
  116OSM    H5G12166   3.203   2.267   6.363
  116OSM    C6F12167   3.177   2.241   6.599
  116OSM    H6F12168   3.282   2.209   6.619
  116OSM    H6G12169   3.118   2.168   6.656
  116OSM    C7F12170   3.165   2.383   6.664
  116OSM    H7F12171   3.069   2.423   6.626
  116OSM    H7G12172   3.238   2.456   6.623
  116OSM    C8F12173   3.180   2.389   6.817
  116OSM    H8F12174   3.182   2.494   6.853
  116OSM    H8G12175   3.280   2.351   6.846
  116OSM    C9F12176   3.061   2.315   6.873
  116OSM    H9F12177   2.965   2.340   6.826
  116OSM   C10F12178   3.057   2.219   6.964
  116OSM   H10F12179   2.965   2.166   6.990
  116OSM   C11F12180   3.174   2.165   7.032
  116OSM   H11F12181   3.269   2.169   6.970
  116OSM   H11G12182   3.166   2.059   7.066
  116OSM   C12F12183   3.161   2.263   7.151
  116OSM   H12F12184   3.192   2.368   7.152
  116OSM   H12G12185   3.258   2.222   7.141
  116OSM   C13F12186   3.100   2.226   7.291
  116OSM   H13F12187   3.111   2.117   7.294
  116OSM   H13G12188   2.994   2.218   7.287
  116OSM   C14F12189   3.141   2.300   7.427
  116OSM   H14F12190   3.135   2.407   7.424
  116OSM   H14G12191   3.250   2.308   7.454
  116OSM   C15F12192   3.067   2.239   7.551
  116OSM   H15F12193   3.079   2.134   7.579
  116OSM   H15G12194   2.962   2.241   7.523
  116OSM   C16F12195   3.108   2.281   7.691
  116OSM   H16F12196   3.082   2.388   7.690
  116OSM   H16G12197   3.216   2.268   7.718
  116OSM   C17F12198   3.015   2.203   7.785
  116OSM   H17F12199   3.046   2.095   7.787
  116OSM   H17G12200   2.912   2.209   7.745
  116OSM   C18F12201   2.986   2.265   7.919
  116OSM   H18F12202   3.002   2.372   7.935
  116OSM   H18G12203   3.061   2.234   7.977
  116OSM   H18H12204   2.918   2.210   7.985
  117OSM      N12205   2.248   2.720   5.693
  117OSM    C1512206   2.208   2.743   5.550
  117OSM   H15A12207   2.287   2.800   5.502
  117OSM   H15B12208   2.119   2.805   5.542
  117OSM   H15C12209   2.187   2.652   5.496
  117OSM    C1412210   2.395   2.745   5.704
  117OSM   H14A12211   2.452   2.681   5.638
  117OSM   H14B12212   2.426   2.728   5.807
  117OSM   H14C12213   2.417   2.846   5.674
  117OSM    C1312214   2.179   2.824   5.773
  117OSM   H13A12215   2.195   2.922   5.730
  117OSM   H13B12216   2.221   2.824   5.874
  117OSM   H13C12217   2.071   2.806   5.778
  117OSM    C1212218   2.212   2.578   5.744
  117OSM   H12A12219   2.262   2.506   5.681
  117OSM   H12B12220   2.106   2.567   5.727
  117OSM    C1112221   2.238   2.533   5.891
  117OSM   H11A12222   2.347   2.531   5.913
  117OSM   H11B12223   2.204   2.428   5.907
  117OSM      P12224   2.238   2.691   6.103
  117OSM    O1312225   2.361   2.758   6.053
  117OSM    O1412226   2.138   2.767   6.180
  117OSM    O1112227   2.293   2.568   6.180
  117OSM    O1212228   2.166   2.618   5.981
  117OSM    C1S12229   2.199   2.467   6.197
  117OSM    H1S12230   2.255   2.378   6.234
  117OSM    H1T12231   2.121   2.448   6.121
  117OSM     NF12232   2.247   2.477   6.416
  117OSM    HNF12233   2.211   2.424   6.498
  117OSM    C2S12234   2.113   2.503   6.302
  117OSM    H2S12235   2.083   2.605   6.333
  117OSM    C3S12236   1.917   2.408   6.312
  117OSM    H3S12237   1.919   2.316   6.285
  117OSM     O312238   1.915   2.523   6.252
  117OSM    HO312239   1.946   2.500   6.164
  117OSM    C4S12240   1.819   2.369   6.467
  117OSM    H4S12241   1.794   2.464   6.508
  117OSM    C5S12242   1.825   2.265   6.563
  117OSM    H5S12243   1.912   2.205   6.594
  117OSM    C6S12244   1.763   2.298   6.691
  117OSM    H6S12245   1.719   2.205   6.710
  117OSM    H6T12246   1.714   2.393   6.688
  117OSM    C7S12247   1.863   2.318   6.821
  117OSM    H7S12248   1.916   2.226   6.816
  117OSM    H7T12249   1.785   2.337   6.892
  117OSM    C8S12250   1.956   2.422   6.896
  117OSM    H8S12251   1.899   2.503   6.937
  117OSM    H8T12252   2.029   2.442   6.828
  117OSM    C9S12253   2.067   2.451   6.990
  117OSM    H9S12254   2.141   2.399   6.945
  117OSM    H9T12255   2.020   2.414   7.075
  117OSM   C10S12256   2.144   2.584   6.987
  117OSM   H10S12257   2.077   2.672   6.997
  117OSM   H10T12258   2.207   2.597   6.894
  117OSM   C11S12259   2.223   2.589   7.112
  117OSM   H11S12260   2.278   2.494   7.124
  117OSM   H11T12261   2.146   2.600   7.192
  117OSM   C12S12262   2.317   2.705   7.104
  117OSM   H12S12263   2.267   2.800   7.079
  117OSM   H12T12264   2.390   2.685   7.021
  117OSM   C13S12265   2.386   2.719   7.237
  117OSM   H13S12266   2.464   2.791   7.213
  117OSM   H13T12267   2.436   2.625   7.268
  117OSM   C14S12268   2.306   2.787   7.351
  117OSM   H14S12269   2.215   2.729   7.360
  117OSM   H14T12270   2.291   2.894   7.323
  117OSM   C15S12271   2.355   2.778   7.496
  117OSM   H15S12272   2.411   2.866   7.507
  117OSM   H15T12273   2.423   2.696   7.525
  117OSM   C16S12274   2.276   2.819   7.612
  117OSM   H16S12275   2.223   2.724   7.627
  117OSM   H16T12276   2.216   2.909   7.586
  117OSM   C17S12277   2.357   2.849   7.735
  117OSM   H17S12278   2.406   2.946   7.735
  117OSM   H17T12279   2.436   2.771   7.756
  117OSM   C18S12280   2.247   2.862   7.838
  117OSM   H18S12281   2.184   2.768   7.828
  117OSM   H18T12282   2.180   2.943   7.848
  117OSM   H18U12283   2.302   2.871   7.935
  117OSM    C1F12284   2.307   2.569   6.495
  117OSM     OF12285   2.297   2.686   6.469
  117OSM    C2F12286   2.375   2.521   6.624
  117OSM    H2F12287   2.343   2.420   6.658
  117OSM    H2G12288   2.368   2.590   6.711
  117OSM    C3F12289   2.518   2.507   6.576
  117OSM    H3F12290   2.555   2.609   6.547
  117OSM    H3G12291   2.519   2.446   6.483
  117OSM    C4F12292   2.613   2.443   6.676
  117OSM    H4F12293   2.638   2.520   6.751
  117OSM    H4G12294   2.702   2.413   6.617
  117OSM    C5F12295   2.568   2.318   6.751
  117OSM    H5F12296   2.653   2.248   6.742
  117OSM    H5G12297   2.481   2.275   6.701
  117OSM    C6F12298   2.537   2.341   6.898
  117OSM    H6F12299   2.445   2.404   6.910
  117OSM    H6G12300   2.620   2.398   6.943
  117OSM    C7F12301   2.519   2.215   6.979
  117OSM    H7F12302   2.599   2.142   6.995
  117OSM    H7G12303   2.442   2.148   6.935
  117OSM    C8F12304   2.473   2.259   7.117
  117OSM    H8F12305   2.455   2.154   7.152
  117OSM    H8G12306   2.386   2.329   7.093
  117OSM    C9F12307   2.519   2.321   7.238
  117OSM    H9F12308   2.585   2.398   7.203
  117OSM   C10F12309   2.475   2.313   7.367
  117OSM   H10F12310   2.539   2.359   7.439
  117OSM   C11F12311   2.364   2.240   7.437
  117OSM   H11F12312   2.392   2.165   7.516
  117OSM   H11G12313   2.332   2.187   7.353
  117OSM   C12F12314   2.228   2.309   7.454
  117OSM   H12F12315   2.147   2.234   7.468
  117OSM   H12G12316   2.209   2.366   7.361
  117OSM   C13F12317   2.226   2.404   7.568
  117OSM   H13F12318   2.148   2.483   7.561
  117OSM   H13G12319   2.323   2.460   7.565
  117OSM   C14F12320   2.203   2.326   7.695
  117OSM   H14F12321   2.270   2.237   7.705
  117OSM   H14G12322   2.099   2.308   7.726
  117OSM   C15F12323   2.228   2.423   7.794
  117OSM   H15F12324   2.224   2.520   7.744
  117OSM   H15G12325   2.346   2.410   7.794
  117OSM   C16F12326   2.122   2.461   7.925
  117OSM   H16F12327   2.195   2.386   7.923
  117OSM   H16G12328   2.030   2.535   7.841
  117OSM   C17F12329   2.238   2.421   8.073
  117OSM   H17F12330   2.226   2.500   8.093
  117OSM   H17G12331   2.250   2.415   8.194
  117OSM   C18F12332   2.274   2.365   8.170
  117OSM   H18F12333   2.356   2.268   8.087
  117OSM   H18G12334   2.124   2.351   8.169
  117OSM   H18H12335   2.347   2.502   8.249
  118OSM      N12336   4.966   4.924   5.835
  118OSM    C1512337   5.060   5.001   5.925
  118OSM   H15A12338   5.155   5.018   5.880
  118OSM   H15B12339   5.075   4.954   6.022
  118OSM   H15C12340   5.011   5.094   5.952
  118OSM    C1412341   4.914   5.008   5.724
  118OSM   H14A12342   4.859   5.095   5.759
  118OSM   H14B12343   4.850   4.951   5.656
  118OSM   H14C12344   5.001   5.036   5.666
  118OSM    C1312345   5.037   4.827   5.753
  118OSM   H13A12346   5.099   4.767   5.818
  118OSM   H13B12347   5.099   4.868   5.676
  118OSM   H13C12348   4.970   4.753   5.709
  118OSM    C1212349   4.853   4.862   5.920
  118OSM   H12A12350   4.886   4.775   5.977
  118OSM   H12B12351   4.771   4.828   5.857
  118OSM    C1112352   4.794   4.956   6.028
  118OSM   H11A12353   4.873   4.968   6.105
  118OSM   H11B12354   4.708   4.905   6.078
  118OSM      P12355   4.602   5.104   5.933
  118OSM    O1312356   4.591   5.235   5.862
  118OSM    O1412357   4.562   4.984   5.858
  118OSM    O1112358   4.524   5.108   6.071
  118OSM    O1212359   4.756   5.083   5.976
  118OSM    C1S12360   4.521   5.231   6.144
  118OSM    H1S12361   4.447   5.299   6.099
  118OSM    H1T12362   4.618   5.285   6.145
  118OSM     NF12363   4.591   5.138   6.364
  118OSM    HNF12364   4.560   5.051   6.398
  118OSM    C2S12365   4.486   5.201   6.291
  118OSM    H2S12366   4.469   5.300   6.339
  118OSM    C3S12367   4.360   5.113   6.305
  118OSM    H3S12368   4.387   5.008   6.276
  118OSM     O312369   4.255   5.155   6.221
  118OSM    HO312370   4.297   5.224   6.168
  118OSM    C4S12371   4.315   5.118   6.449
  118OSM    H4S12372   4.269   5.208   6.489
  118OSM    C5S12373   4.330   5.020   6.536
  118OSM    H5S12374   4.367   4.933   6.489
  118OSM    C6S12375   4.293   5.008   6.682
  118OSM    H6S12376   4.237   4.918   6.707
  118OSM    H6T12377   4.231   5.093   6.713
  118OSM    C7S12378   4.403   4.978   6.782
  118OSM    H7S12379   4.473   5.063   6.773
  118OSM    H7T12380   4.460   4.887   6.753
  118OSM    C8S12381   4.347   4.965   6.925
  118OSM    H8S12382   4.288   4.871   6.940
  118OSM    H8T12383   4.279   5.049   6.950
  118OSM    C9S12384   4.457   4.966   7.029
  118OSM    H9S12385   4.508   5.064   7.029
  118OSM    H9T12386   4.533   4.893   6.995
  118OSM   C10S12387   4.404   4.939   7.170
  118OSM   H10S12388   4.382   4.832   7.190
  118OSM   H10T12389   4.310   4.997   7.189
  118OSM   C11S12390   4.508   4.983   7.270
  118OSM   H11S12391   4.568   5.066   7.229
  118OSM   H11T12392   4.577   4.904   7.289
  118OSM   C12S12393   4.444   5.014   7.403
  118OSM   H12S12394   4.392   4.921   7.439
  118OSM   H12T12395   4.367   5.089   7.382
  118OSM   C13S12396   4.549   5.068   7.500
  118OSM   H13S12397   4.615   5.144   7.456
  118OSM   H13T12398   4.615   4.990   7.524
  118OSM   C14S12399   4.500   5.097   7.642
  118OSM   H14S12400   4.585   5.117   7.711
  118OSM   H14T12401   4.457   5.002   7.681
  118OSM   C15S12402   4.402   5.212   7.639
  118OSM   H15S12403   4.331   5.192   7.557
  118OSM   H15T12404   4.449   5.311   7.617
  118OSM   C16S12405   4.322   5.225   7.766
  118OSM   H16S12406   4.279   5.127   7.797
  118OSM   H16T12407   4.234   5.289   7.745
  118OSM   C17S12408   4.403   5.280   7.882
  118OSM   H17S12409   4.471   5.201   7.922
  118OSM   H17T12410   4.320   5.281   7.953
  118OSM   C18S12411   4.474   5.418   7.867
  118OSM   H18S12412   4.410   5.495   7.825
  118OSM   H18T12413   4.566   5.408   7.809
  118OSM   H18U12414   4.504   5.474   7.957
  118OSM    C1F12415   4.707   5.189   6.401
  118OSM     OF12416   4.732   5.304   6.375
  118OSM    C2F12417   4.796   5.101   6.484
  118OSM    H2F12418   4.896   5.084   6.439
  118OSM    H2G12419   4.746   5.003   6.498
  118OSM    C3F12420   4.819   5.162   6.623
  118OSM    H3F12421   4.723   5.197   6.666
  118OSM    H3G12422   4.886   5.247   6.614
  118OSM    C4F12423   4.889   5.061   6.714
  118OSM    H4F12424   4.980   5.108   6.760
  118OSM    H4G12425   4.925   4.981   6.646
  118OSM    C5F12426   4.792   4.996   6.814
  118OSM    H5F12427   4.709   4.940   6.766
  118OSM    H5G12428   4.747   5.078   6.873
  118OSM    C6F12429   4.853   4.900   6.913
  118OSM    H6F12430   4.784   4.855   6.982
  118OSM    H6G12431   4.923   4.965   6.972
  118OSM    C7F12432   4.906   4.766   6.859
  118OSM    H7F12433   4.970   4.821   6.796
  118OSM    H7G12434   4.861   4.704   6.784
  118OSM    C8F12435   4.984   4.681   6.960
  118OSM    H8F12436   5.082   4.640   6.924
  118OSM    H8G12437   4.937   4.620   7.031
  118OSM    C9F12438   5.051   4.771   7.038
  118OSM    H9F12439   5.070   4.815   6.947
  118OSM   C10F12440   5.091   4.813   7.158
  118OSM   H10F12441   5.175   4.864   7.203
  118OSM   C11F12442   5.067   4.758   7.273
  118OSM   H11F12443   5.143   4.734   7.345
  118OSM   H11G12444   5.025   4.669   7.226
  118OSM   C12F12445   4.969   4.857   7.313
  118OSM   H12F12446   4.920   4.812   7.395
  118OSM   H12G12447   4.903   4.888   7.234
  118OSM   C13F12448   4.970   4.973   7.394
  118OSM   H13F12449   4.861   5.002   7.400
  118OSM   H13G12450   5.027   5.025   7.318
  118OSM   C14F12451   5.038   4.940   7.523
  118OSM   H14F12452   5.049   5.039   7.555
  118OSM   H14G12453   5.128   4.891   7.481
  118OSM   C15F12454   4.972   4.882   7.650
  118OSM   H15F12455   4.940   4.784   7.626
  118OSM   H15G12456   4.878   4.926   7.680
  118OSM   C16F12457   5.045   4.873   7.779
  118OSM   H16F12458   5.047   4.977   7.809
  118OSM   H16G12459   5.149   4.852   7.759
  118OSM   C17F12460   4.980   4.771   7.873
  118OSM   H17F12461   4.964   4.668   7.840
  118OSM   H17G12462   4.880   4.817   7.898
  118OSM   C18F12463   5.059   4.762   7.998
  118OSM   H18F12464   5.014   4.856   8.023
  118OSM   H18G12465   5.169   4.774   7.995
  118OSM   H18H12466   5.028   4.695   8.079
  119OSM      N12467   5.176   4.531   5.828
  119OSM    C1512468   5.168   4.489   5.684
  119OSM   H15A12469   5.135   4.573   5.624
  119OSM   H15B12470   5.103   4.405   5.670
  119OSM   H15C12471   5.266   4.462   5.642
  119OSM    C1412472   5.275   4.644   5.831
  119OSM   H14A12473   5.375   4.607   5.803
  119OSM   H14B12474   5.294   4.687   5.928
  119OSM   H14C12475   5.248   4.715   5.756
  119OSM    C1312476   5.042   4.572   5.879
  119OSM   H13A12477   4.962   4.506   5.857
  119OSM   H13B12478   5.011   4.659   5.830
  119OSM   H13C12479   5.045   4.604   5.983
  119OSM    C1212480   5.226   4.421   5.919
  119OSM   H12A12481   5.145   4.350   5.935
  119OSM   H12B12482   5.251   4.470   6.012
  119OSM    C1112483   5.358   4.348   5.885
  119OSM   H11A12484   5.343   4.304   5.788
  119OSM   H11B12485   5.376   4.264   5.956
  119OSM      P12486   5.584   4.463   5.977
  119OSM    O1312487   5.692   4.367   5.951
  119OSM    O1412488   5.612   4.609   5.979
  119OSM    O1112489   5.502   4.423   6.107
  119OSM    O1212490   5.467   4.438   5.873
  119OSM    C1S12491   5.478   4.513   6.214
  119OSM    H1S12492   5.446   4.615   6.178
  119OSM    H1T12493   5.569   4.525   6.277
  119OSM     NF12494   5.327   4.555   6.398
  119OSM    HNF12495   5.364   4.550   6.489
  119OSM    C2S12496   5.370   4.452   6.305
  119OSM    H2S12497   5.282   4.422   6.243
  119OSM    C3S12498   5.428   4.323   6.376
  119OSM    H3S12499   5.526   4.352   6.422
  119OSM     O312500   5.442   4.209   6.291
  119OSM    HO312501   5.421   4.241   6.203
  119OSM    C4S12502   5.338   4.286   6.493
  119OSM    H4S12503   5.378   4.312   6.592
  119OSM    C5S12504   5.224   4.216   6.489
  119OSM    H5S12505   5.187   4.178   6.392
  119OSM    C6S12506   5.142   4.188   6.611
  119OSM    H6S12507   5.179   4.100   6.661
  119OSM    H6T12508   5.039   4.163   6.579
  119OSM    C7S12509   5.144   4.305   6.711
  119OSM    H7S12510   5.117   4.396   6.653
  119OSM    H7T12511   5.242   4.327   6.755
  119OSM    C8S12512   5.049   4.292   6.829
  119OSM    H8S12513   5.020   4.189   6.859
  119OSM    H8T12514   4.971   4.352   6.780
  119OSM    C9S12515   5.055   4.380   6.951
  119OSM    H9S12516   4.958   4.391   7.007
  119OSM    H9T12517   5.080   4.470   6.898
  119OSM   C10S12518   5.164   4.329   7.041
  119OSM   H10S12519   5.250   4.306   6.976
  119OSM   H10T12520   5.124   4.238   7.091
  119OSM   C11S12521   5.221   4.428   7.137
  119OSM   H11S12522   5.252   4.519   7.080
  119OSM   H11T12523   5.308   4.395   7.196
  119OSM   C12S12524   5.121   4.472   7.235
  119OSM   H12S12525   5.018   4.477   7.191
  119OSM   H12T12526   5.171   4.566   7.260
  119OSM   C13S12527   5.123   4.420   7.371
  119OSM   H13S12528   5.216   4.425   7.428
  119OSM   H13T12529   5.103   4.314   7.347
  119OSM   C14S12530   5.016   4.490   7.452
  119OSM   H14S12531   5.038   4.452   7.551
  119OSM   H14T12532   4.911   4.459   7.427
  119OSM   C15S12533   5.028   4.600   7.543
  119OSM   H15S12534   4.953   4.597   7.628
  119OSM   H15T12535   5.002   4.682   7.484
  119OSM   C16S12536   5.155   4.642   7.591
  119OSM   H16S12537   5.134   4.738   7.622
  119OSM   H16T12538   5.223   4.675   7.514
  119OSM   C17S12539   5.186   4.567   7.714
  119OSM   H17S12540   5.235   4.483   7.664
  119OSM   H17T12541   5.094   4.540   7.771
  119OSM   C18S12542   5.286   4.633   7.800
  119OSM   H18S12543   5.371   4.653   7.731
  119OSM   H18T12544   5.322   4.589   7.892
  119OSM   H18U12545   5.249   4.727   7.838
  119OSM    C1F12546   5.245   4.655   6.368
  119OSM     OF12547   5.222   4.694   6.254
  119OSM    C2F12548   5.160   4.697   6.486
  119OSM    H2F12549   5.124   4.604   6.537
  119OSM    H2G12550   5.072   4.754   6.448
  119OSM    C3F12551   5.235   4.785   6.582
  119OSM    H3F12552   5.239   4.885   6.534
  119OSM    H3G12553   5.330   4.738   6.610
  119OSM    C4F12554   5.174   4.811   6.715
  119OSM    H4F12555   5.148   4.712   6.762
  119OSM    H4G12556   5.088   4.872   6.681
  119OSM    C5F12557   5.265   4.900   6.803
  119OSM    H5F12558   5.258   5.006   6.782
  119OSM    H5G12559   5.359   4.843   6.812
  119OSM    C6F12560   5.243   4.913   6.945
  119OSM    H6F12561   5.252   4.795   6.954
  119OSM    H6G12562   5.142   4.970   6.954
  119OSM    C7F12563   5.300   4.974   7.065
  119OSM    H7F12564   5.216   5.014   7.131
  119OSM    H7G12565   5.325   5.071   7.033
  119OSM    C8F12566   5.387   4.859   7.119
  119OSM    H8F12567   5.363   4.754   7.089
  119OSM    H8G12568   5.398   4.849   7.224
  119OSM    C9F12569   5.509   4.895   7.055
  119OSM    H9F12570   5.517   4.999   7.019
  119OSM   C10F12571   5.607   4.811   7.038
  119OSM   H10F12572   5.691   4.853   7.017
  119OSM   C11F12573   5.656   4.676   7.058
  119OSM   H11F12574   5.768   4.670   7.044
  119OSM   H11G12575   5.610   4.614   6.980
  119OSM   C12F12576   5.609   4.646   7.197
  119OSM   H12F12577   5.503   4.653   7.209
  119OSM   H12G12578   5.657   4.706   7.274
  119OSM   C13F12579   5.634   4.509   7.238
  119OSM   H13F12580   5.733   4.544   7.269
  119OSM   H13G12581   5.622   4.435   7.157
  119OSM   C14F12582   5.581   4.451   7.365
  119OSM   H14F12583   5.602   4.341   7.361
  119OSM   H14G12584   5.472   4.467   7.365
  119OSM   C15F12585   5.643   4.513   7.489
  119OSM   H15F12586   5.612   4.615   7.504
  119OSM   H15G12587   5.755   4.511   7.493
  119OSM   C16F12588   5.593   4.451   7.614
  119OSM   H16F12589   5.635   4.359   7.584
  119OSM   H16G12590   5.486   4.429   7.628
  119OSM   C17F12591   5.675   4.504   7.730
  119OSM   H17F12592   5.635   4.601   7.765
  119OSM   H17G12593   5.779   4.463   7.736
  119OSM   C18F12594   5.648   4.476   7.865
  119OSM   H18F12595   5.698   4.376   7.880
  119OSM   H18G12596   5.534   4.465   7.876
  119OSM   H18H12597   5.712   4.421   7.936
  120OSM      N12598   4.171   2.001   5.783
  120OSM    C1512599   4.157   2.143   5.830
  120OSM   H15A12600   4.153   2.143   5.939
  120OSM   H15B12601   4.070   2.191   5.790
  120OSM   H15C12602   4.246   2.199   5.802
  120OSM    C1412603   4.042   1.922   5.791
  120OSM   H14A12604   4.003   1.915   5.892
  120OSM   H14B12605   4.052   1.816   5.765
  120OSM   H14C12606   3.969   1.962   5.723
  120OSM    C1312607   4.214   2.009   5.642
  120OSM   H13A12608   4.153   2.083   5.591
  120OSM   H13B12609   4.199   1.913   5.597
  120OSM   H13C12610   4.319   2.036   5.633
  120OSM    C1212611   4.280   1.945   5.872
  120OSM   H12A12612   4.242   1.955   5.974
  120OSM   H12B12613   4.366   2.012   5.864
  120OSM    C1112614   4.326   1.798   5.860
  120OSM   H11A12615   4.409   1.778   5.933
  120OSM   H11B12616   4.367   1.779   5.759
  120OSM      P12617   4.172   1.674   6.027
  120OSM    O1312618   4.049   1.592   6.023
  120OSM    O1412619   4.290   1.624   6.097
  120OSM    O1112620   4.137   1.820   6.079
  120OSM    O1212621   4.217   1.708   5.878
  120OSM    C1S12622   4.072   1.829   6.206
  120OSM    H1S12623   4.014   1.737   6.232
  120OSM    H1T12624   3.997   1.911   6.202
  120OSM     NF12625   4.120   1.847   6.452
  120OSM    HNF12626   4.114   1.932   6.500
  120OSM    C2S12627   4.178   1.855   6.318
  120OSM    H2S12628   4.257   1.778   6.310
  120OSM    C3S12629   4.243   1.995   6.295
  120OSM    H3S12630   4.163   2.072   6.296
  120OSM     O312631   4.312   2.012   6.171
  120OSM    HO312632   4.293   1.930   6.123
  120OSM    C4S12633   4.341   2.022   6.406
  120OSM    H4S12634   4.435   1.965   6.401
  120OSM    C5S12635   4.327   2.111   6.504
  120OSM    H5S12636   4.241   2.179   6.511
  120OSM    C6S12637   4.431   2.128   6.609
  120OSM    H6S12638   4.433   2.231   6.644
  120OSM    H6T12639   4.534   2.105   6.570
  120OSM    C7S12640   4.400   2.046   6.735
  120OSM    H7S12641   4.481   2.070   6.806
  120OSM    H7T12642   4.415   1.938   6.714
  120OSM    C8S12643   4.266   2.078   6.806
  120OSM    H8S12644   4.172   2.056   6.751
  120OSM    H8T12645   4.259   2.189   6.816
  120OSM    C9S12646   4.262   2.017   6.948
  120OSM    H9S12647   4.168   2.047   7.001
  120OSM    H9T12648   4.351   2.054   7.003
  120OSM   C10S12649   4.266   1.865   6.953
  120OSM   H10S12650   4.329   1.821   6.873
  120OSM   H10T12651   4.163   1.826   6.949
  120OSM   C11S12652   4.308   1.805   7.086
  120OSM   H11S12653   4.404   1.828   7.123
  120OSM   H11T12654   4.316   1.700   7.050
  120OSM   C12S12655   4.221   1.838   7.207
  120OSM   H12S12656   4.152   1.791   7.162
  120OSM   H12T12657   4.168   1.934   7.216
  120OSM   C13S12658   4.219   1.741   7.324
  120OSM   H13S12659   4.302   1.791   7.372
  120OSM   H13T12660   4.244   1.639   7.288
  120OSM   C14S12661   4.098   1.727   7.418
  120OSM   H14S12662   4.009   1.694   7.362
  120OSM   H14T12663   4.077   1.825   7.466
  120OSM   C15S12664   4.130   1.622   7.524
  120OSM   H15S12665   4.236   1.629   7.552
  120OSM   H15T12666   4.113   1.521   7.481
  120OSM   C16S12667   4.048   1.621   7.651
  120OSM   H16S12668   4.096   1.553   7.724
  120OSM   H16T12669   3.947   1.589   7.620
  120OSM   C17S12670   4.027   1.745   7.722
  120OSM   H17S12671   3.987   1.795   7.637
  120OSM   H17T12672   4.118   1.801   7.746
  120OSM   C18S12673   3.922   1.740   7.830
  120OSM   H18S12674   3.823   1.707   7.795
  120OSM   H18T12675   3.926   1.830   7.884
  120OSM   H18U12676   3.936   1.694   7.925
  120OSM    C1F12677   4.079   1.729   6.503
  120OSM     OF12678   4.093   1.625   6.442
  120OSM    C2F12679   4.018   1.729   6.642
  120OSM    H2F12680   4.035   1.823   6.689
  120OSM    H2G12681   4.068   1.655   6.700
  120OSM    C3F12682   3.864   1.732   6.646
  120OSM    H3F12683   3.843   1.678   6.552
  120OSM    H3G12684   3.854   1.825   6.614
  120OSM    C4F12685   3.749   1.752   6.761
  120OSM    H4F12686   3.789   1.659   6.804
  120OSM    H4G12687   3.669   1.713   6.705
  120OSM    C5F12688   3.642   1.832   6.852
  120OSM    H5F12689   3.762   1.890   6.795
  120OSM    H5G12690   3.742   1.881   6.908
  120OSM    C6F12691   3.543   2.000   6.960
  120OSM    H6F12692   3.541   1.909   6.921
  120OSM    H6G12693   3.513   1.922   6.913
  120OSM    C7F12694   3.661   2.062   7.136
  120OSM    H7F12695   3.638   2.124   7.054
  120OSM    H7G12696   3.771   2.039   7.052
  120OSM    C8F12697   3.603   2.092   7.183
  120OSM    H8F12698   3.527   2.042   7.208
  120OSM    H8G12699   3.664   2.167   7.207
  120OSM    C9F12700   3.669   2.076   7.277
  120OSM    H9F12701   3.617   1.961   7.300
  120OSM   C10F12702   3.782   2.139   7.365
  120OSM   H10F12703   3.851   2.070   7.436
  120OSM   C11F12704   3.855   2.236   7.383
  120OSM   H11F12705   3.838   2.223   7.491
  120OSM   H11G12706   3.768   2.271   7.332
  120OSM   C12F12707   3.990   2.211   7.338
  120OSM   H12F12708   3.997   2.319   7.323
  120OSM   H12G12709   4.000   2.159   7.241
  120OSM   C13F12710   4.087   2.163   7.446
  120OSM   H13F12711   4.086   2.052   7.448
  120OSM   H13G12712   4.056   2.203   7.547
  120OSM   C14F12713   4.227   2.204   7.408
  120OSM   H14F12714   4.227   2.314   7.424
  120OSM   H14G12715   4.238   2.180   7.300
  120OSM   C15F12716   4.344   2.137   7.482
  120OSM   H15F12717   4.441   2.187   7.455
  120OSM   H15G12718   4.351   2.032   7.446
  120OSM   C16F12719   4.329   2.129   7.634
  120OSM   H16F12720   4.241   2.066   7.657
  120OSM   H16G12721   4.312   2.228   7.678
  120OSM   C17F12722   4.452   2.065   7.700
  120OSM   H17F12723   4.539   2.135   7.696
  120OSM   H17G12724   4.473   1.975   7.638
  120OSM   C18F12725   4.431   2.032   7.847
  120OSM   H18F12726   4.403   2.127   7.898
  120OSM   H18G12727   4.528   2.002   7.893
  120OSM   H18H12728   4.354   1.953   7.863
  121OSM      N12729   5.806   3.851   5.786
  121OSM    C1512730   5.731   3.787   5.676
  121OSM   H15A12731   5.656   3.723   5.723
  121OSM   H15B12732   5.799   3.726   5.619
  121OSM   H15C12733   5.678   3.856   5.611
  121OSM    C1412734   5.702   3.901   5.883
  121OSM   H14A12735   5.627   3.960   5.830
  121OSM   H14B12736   5.746   3.962   5.961
  121OSM   H14C12737   5.647   3.821   5.934
  121OSM    C1312738   5.893   3.746   5.846
  121OSM   H13A12739   5.835   3.676   5.903
  121OSM   H13B12740   5.967   3.796   5.908
  121OSM   H13C12741   5.951   3.692   5.770
  121OSM    C1212742   5.901   3.957   5.731
  121OSM   H12A12743   5.873   3.976   5.628
  121OSM   H12B12744   6.000   3.912   5.726
  121OSM    C1112745   5.931   4.088   5.808
  121OSM   H11A12746   5.845   4.158   5.806
  121OSM   H11B12747   6.018   4.140   5.763
  121OSM      P12748   6.087   4.083   6.027
  121OSM    O1312749   6.213   4.030   5.971
  121OSM    O1412750   6.086   4.219   6.079
  121OSM    O1112751   6.057   4.002   6.150
  121OSM    O1212752   5.961   4.053   5.938
  121OSM    C1S12753   5.924   3.972   6.170
  121OSM    H1S12754   5.897   3.888   6.099
  121OSM    H1T12755   5.842   4.049   6.158
  121OSM     NF12756   5.913   4.040   6.418
  121OSM    HNF12757   5.990   4.042   6.478
  121OSM    C2S12758   5.914   3.939   6.316
  121OSM    H2S12759   5.820   3.933   6.325
  121OSM    C3S12760   6.019   3.827   6.344
  121OSM    H3S12761   6.114   3.881   6.340
  121OSM     O312762   6.008   3.716   6.251
  121OSM    HO312763   5.957   3.749   6.177
  121OSM    C4S12764   6.000   3.767   6.482
  121OSM    H4S12765   5.902   3.729   6.511
  121OSM    C5S12766   6.092   3.767   6.578
  121OSM    H5S12767   6.185   3.822   6.562
  121OSM    C6S12768   6.069   3.709   6.715
  121OSM    H6S12769   6.165   3.710   6.771
  121OSM    H6T12770   6.028   3.605   6.712
  121OSM    C7S12771   5.969   3.796   6.791
  121OSM    H7S12772   5.876   3.809   6.730
  121OSM    H7T12773   6.010   3.898   6.805
  121OSM    C8S12774   5.946   3.737   6.930
  121OSM    H8S12775   6.042   3.735   6.987
  121OSM    H8T12776   5.904   3.635   6.924
  121OSM    C9S12777   5.851   3.817   7.017
  121OSM    H9S12778   5.832   3.758   7.110
  121OSM    H9T12779   5.759   3.834   6.956
  121OSM   C10S12780   5.904   3.956   7.050
  121OSM   H10S12781   5.920   4.010   6.953
  121OSM   H10T12782   5.995   3.948   7.108
  121OSM   C11S12783   5.812   4.036   7.139
  121OSM   H11S12784   5.732   4.023   7.074
  121OSM   H11T12785   5.822   4.145   7.140
  121OSM   C12S12786   5.758   3.973   7.269
  121OSM   H12S12787   5.843   3.919   7.306
  121OSM   H12T12788   5.685   3.891   7.252
  121OSM   C13S12789   5.703   4.079   7.367
  121OSM   H13S12790   5.612   4.140   7.347
  121OSM   H13T12791   5.774   4.162   7.367
  121OSM   C14S12792   5.665   4.023   7.499
  121OSM   H14S12793   5.744   3.965   7.545
  121OSM   H14T12794   5.579   3.953   7.491
  121OSM   C15S12795   5.630   4.135   7.589
  121OSM   H15S12796   5.549   4.201   7.547
  121OSM   H15T12797   5.724   4.198   7.594
  121OSM   C16S12798   5.579   4.076   7.721
  121OSM   H16S12799   5.634   3.987   7.744
  121OSM   H16T12800   5.468   4.073   7.718
  121OSM   C17S12801   5.616   4.135   7.850
  121OSM   H17S12802   5.727   4.162   7.857
  121OSM   H17T12803   5.577   4.111   7.950
  121OSM   C18S12804   5.536   4.246   7.829
  121OSM   H18S12805   5.444   4.290   7.789
  121OSM   H18T12806   5.619   4.279   7.757
  121OSM   H18U12807   5.538   4.287   7.934
  121OSM    C1F12808   5.808   4.129   6.437
  121OSM     OF12809   5.711   4.150   6.366
  121OSM    C2F12810   5.821   4.221   6.545
  121OSM    H2F12811   5.834   4.316   6.489
  121OSM    H2G12812   5.909   4.200   6.605
  121OSM    C3F12813   5.696   4.224   6.631
  121OSM    H3F12814   5.691   4.125   6.680
  121OSM    H3G12815   5.605   4.243   6.569
  121OSM    C4F12816   5.700   4.329   6.741
  121OSM    H4F12817   5.595   4.346   6.772
  121OSM    H4G12818   5.737   4.420   6.689
  121OSM    C5F12819   5.799   4.289   6.852
  121OSM    H5F12820   5.896   4.270   6.803
  121OSM    H5G12821   5.778   4.192   6.900
  121OSM    C6F12822   5.823   4.395   6.958
  121OSM    H6F12823   5.750   4.376   7.038
  121OSM    H6G12824   5.798   4.494   6.916
  121OSM    C7F12825   5.969   4.395   7.009
  121OSM    H7F12826   6.030   4.439   6.927
  121OSM    H7G12827   6.003   4.290   7.019
  121OSM    C8F12828   5.993   4.473   7.140
  121OSM    H8F12829   5.957   4.577   7.119
  121OSM    H8G12830   6.097   4.486   7.174
  121OSM    C9F12831   5.914   4.423   7.254
  121OSM    H9F12832   5.820   4.399   7.212
  121OSM   C10F12833   5.930   4.364   7.371
  121OSM   H10F12834   5.845   4.356   7.443
  121OSM   C11F12835   6.064   4.329   7.417
  121OSM   H11F12836   6.100   4.394   7.497
  121OSM   H11G12837   6.133   4.342   7.330
  121OSM   C12F12838   6.059   4.178   7.445
  121OSM   H12F12839   6.157   4.137   7.410
  121OSM   H12G12840   5.981   4.125   7.384
  121OSM   C13F12841   6.031   4.139   7.590
  121OSM   H13F12842   5.932   4.180   7.618
  121OSM   H13G12843   6.106   4.182   7.660
  121OSM   C14F12844   6.026   3.987   7.605
  121OSM   H14F12845   6.130   3.947   7.593
  121OSM   H14G12846   5.963   3.948   7.521
  121OSM   C15F12847   5.967   3.936   7.737
  121OSM   H15F12848   5.867   3.980   7.758
  121OSM   H15G12849   6.033   3.969   7.820
  121OSM   C16F12850   5.951   3.783   7.733
  121OSM   H16F12851   6.031   3.735   7.674
  121OSM   H16G12852   5.849   3.761   7.691
  121OSM   C17F12853   5.964   3.721   7.868
  121OSM   H17F12854   6.057   3.750   7.922
  121OSM   H17G12855   5.959   3.609   7.864
  121OSM   C18F12856   5.852   3.777   7.945
  121OSM   H18F12857   5.869   3.753   8.048
  121OSM   H18G12858   5.759   3.733   7.908
  121OSM   H18H12859   5.829   3.881   7.951
  122OSM      N12860   2.657   5.707   5.785
  122OSM    C1512861   2.560   5.658   5.686
  122OSM   H15A12862   2.466   5.710   5.694
  122OSM   H15B12863   2.541   5.552   5.692
  122OSM   H15C12864   2.596   5.684   5.587
  122OSM    C1412865   2.592   5.710   5.919
  122OSM   H14A12866   2.601   5.618   5.972
  122OSM   H14B12867   2.489   5.746   5.916
  122OSM   H14C12868   2.647   5.781   5.979
  122OSM    C1312869   2.775   5.617   5.789
  122OSM   H13A12870   2.835   5.629   5.700
  122OSM   H13B12871   2.744   5.514   5.790
  122OSM   H13C12872   2.839   5.638   5.876
  122OSM    C1212873   2.696   5.850   5.744
  122OSM   H12A12874   2.611   5.913   5.767
  122OSM   H12B12875   2.711   5.851   5.638
  122OSM    C1112876   2.820   5.913   5.809
  122OSM   H11A12877   2.821   6.025   5.807
  122OSM   H11B12878   2.911   5.881   5.754
  122OSM      P12879   2.955   5.864   6.020
  122OSM    O1312880   2.977   5.755   6.114
  122OSM    O1412881   3.064   5.935   5.946
  122OSM    O1112882   2.876   5.954   6.105
  122OSM    O1212883   2.823   5.865   5.940
  122OSM    C1S12884   2.762   5.955   6.192
  122OSM    H1S12885   2.680   5.922   6.134
  122OSM    H1T12886   2.704   6.054   6.202
  122OSM     NF12887   2.662   5.983   6.403
  122OSM    HNF12888   2.657   6.060   6.466
  122OSM    C2S12889   2.787   5.965   6.344
  122OSM    H2S12890   2.847   5.873   6.361
  122OSM    C3S12891   2.862   6.063   6.428
  122OSM    H3S12892   2.854   6.175   6.415
  122OSM     O312893   2.996   6.046   6.442
  122OSM    HO312894   3.045   6.015   6.363
  122OSM    C4S12895   2.853   6.036   6.562
  122OSM    H4S12896   2.911   5.943   6.590
  122OSM    C5S12897   2.795   6.115   6.650
  122OSM    H5S12898   2.753   6.211   6.618
  122OSM    C6S12899   2.802   6.085   6.793
  122OSM    H6S12900   2.717   6.106   6.853
  122OSM    H6T12901   2.850   6.187   6.808
  122OSM    C7S12902   2.865   5.948   6.851
  122OSM    H7S12903   2.962   5.912   6.824
  122OSM    H7T12904   2.849   5.863   6.790
  122OSM    C8S12905   2.887   5.927   7.002
  122OSM    H8S12906   2.801   5.933   7.063
  122OSM    H8T12907   2.904   6.016   7.049
  122OSM    C9S12908   2.996   5.837   7.054
  122OSM    H9S12909   3.096   5.833   7.014
  122OSM    H9T12910   2.977   5.742   7.009
  122OSM   C10S12911   3.002   5.833   7.208
  122OSM   H10S12912   3.082   5.758   7.229
  122OSM   H10T12913   2.905   5.789   7.235
  122OSM   C11S12914   3.016   5.953   7.299
  122OSM   H11S12915   2.940   6.026   7.267
  122OSM   H11T12916   3.112   6.002   7.303
  122OSM   C12S12917   3.013   5.919   7.444
  122OSM   H12S12918   3.094   5.848   7.472
  122OSM   H12T12919   2.910   5.879   7.450
  122OSM   C13S12920   3.032   6.040   7.532
  122OSM   H13S12921   3.133   6.084   7.514
  122OSM   H13T12922   3.028   6.005   7.637
  122OSM   C14S12923   2.922   6.140   7.507
  122OSM   H14S12924   2.820   6.100   7.516
  122OSM   H14T12925   2.932   6.191   7.407
  122OSM   C15S12926   2.914   6.242   7.611
  122OSM   H15S12927   2.861   6.322   7.588
  122OSM   H15T12928   2.986   6.298   7.576
  122OSM   C16S12929   2.926   6.227   7.759
  122OSM   H16S12930   2.947   6.323   7.817
  122OSM   H16T12931   3.002   6.152   7.787
  122OSM   C17S12932   2.807   6.187   7.789
  122OSM   H17S12933   2.817   6.081   7.754
  122OSM   H17T12934   2.734   6.184   7.714
  122OSM   C18S12935   2.778   6.244   7.930
  122OSM   H18S12936   2.685   6.199   7.968
  122OSM   H18T12937   2.728   6.315   7.990
  122OSM   H18U12938   2.874   6.234   7.985
  122OSM    C1F12939   2.564   5.905   6.385
  122OSM     OF12940   2.559   5.816   6.303
  122OSM    C2F12941   2.461   5.936   6.475
  122OSM    H2F12942   2.395   5.984   6.415
  122OSM    H2G12943   2.480   6.019   6.546
  122OSM    C3F12944   2.410   5.801   6.515
  122OSM    H3F12945   2.490   5.762   6.579
  122OSM    H3G12946   2.370   5.734   6.439
  122OSM    C4F12947   2.312   5.790   6.615
  122OSM    H4F12948   2.299   5.702   6.662
  122OSM    H4G12949   2.213   5.797   6.584
  122OSM    C5F12950   2.328   5.891   6.694
  122OSM    H5F12951   2.219   5.866   6.740
  122OSM    H5G12952   2.309   5.994   6.651
  122OSM    C6F12953   2.461   5.901   6.782
  122OSM    H6F12954   2.488   5.999   6.829
  122OSM    H6G12955   2.546   5.925   6.721
  122OSM    C7F12956   2.466   5.792   6.892
  122OSM    H7F12957   2.467   5.706   6.826
  122OSM    H7G12958   2.379   5.782   6.962
  122OSM    C8F12959   2.573   5.793   7.000
  122OSM    H8F12960   2.665   5.817   6.947
  122OSM    H8G12961   2.566   5.689   7.040
  122OSM    C9F12962   2.551   5.889   7.110
  122OSM    H9F12963   2.597   5.988   7.104
  122OSM   C10F12964   2.470   5.875   7.210
  122OSM   H10F12965   2.446   5.974   7.237
  122OSM   C11F12966   2.377   5.767   7.251
  122OSM   H11F12967   2.373   5.702   7.175
  122OSM   H11G12968   2.276   5.794   7.273
  122OSM   C12F12969   2.425   5.679   7.362
  122OSM   H12F12970   2.535   5.676   7.362
  122OSM   H12G12971   2.370   5.586   7.382
  122OSM   C13F12972   2.395   5.741   7.484
  122OSM   H13F12973   2.287   5.722   7.511
  122OSM   H13G12974   2.413   5.845   7.448
  122OSM   C14F12975   2.494   5.721   7.594
  122OSM   H14F12976   2.486   5.795   7.668
  122OSM   H14G12977   2.591   5.768   7.578
  122OSM   C15F12978   2.473   5.588   7.660
  122OSM   H15F12979   2.499   5.520   7.579
  122OSM   H15G12980   2.366   5.568   7.684
  122OSM   C16F12981   2.561   5.566   7.780
  122OSM   H16F12982   2.548   5.461   7.812
  122OSM   H16G12983   2.537   5.631   7.868
  122OSM   C17F12984   2.706   5.598   7.742
  122OSM   H17F12985   2.718   5.689   7.686
  122OSM   H17G12986   2.750   5.510   7.691
  122OSM   C18F12987   2.778   5.641   7.860
  122OSM   H18F12988   2.887   5.639   7.874
  122OSM   H18G12989   2.742   5.550   7.902
  122OSM   H18H12990   2.727   5.715   7.925
  123OSM      N12991   2.335   1.832   5.828
  123OSM    C1512992   2.481   1.836   5.817
  123OSM   H15A12993   2.525   1.752   5.766
  123OSM   H15B12994   2.527   1.846   5.915
  123OSM   H15C12995   2.517   1.926   5.764
  123OSM    C1412996   2.282   1.812   5.690
  123OSM   H14A12997   2.336   1.728   5.647
  123OSM   H14B12998   2.291   1.898   5.627
  123OSM   H14C12999   2.178   1.788   5.703
  123OSM    C1313000   2.293   1.711   5.904
  123OSM   H13A13001   2.356   1.626   5.881
  123OSM   H13B13002   2.191   1.685   5.877
  123OSM   H13C13003   2.294   1.731   6.010
  123OSM    C1213004   2.288   1.957   5.899
  123OSM   H12A13005   2.356   2.038   5.874
  123OSM   H12B13006   2.301   1.940   6.006
  123OSM    C1113007   2.145   2.004   5.872
  123OSM   H11A13008   2.138   2.050   5.772
  123OSM   H11B13009   2.121   2.081   5.947
  123OSM      P13010   1.925   1.889   5.952
  123OSM    O1313011   1.846   2.010   5.918
  123OSM    O1413012   1.868   1.766   5.904
  123OSM    O1113013   1.994   1.867   6.098
  123OSM    O1213014   2.056   1.896   5.874
  123OSM    C1S13015   1.948   1.899   6.226
  123OSM    H1S13016   1.846   1.917   6.233
  123OSM    H1T13017   1.956   1.997   6.246
  123OSM     NF13018   2.160   1.895   6.345
  123OSM    HNF13019   2.202   1.810   6.345
  123OSM    C2S13020   2.024   1.875   6.352
  123OSM    H2S13021   1.988   1.955   6.424
  123OSM    C3S13022   2.001   1.729   6.393
  123OSM    H3S13023   2.002   1.664   6.307
  123OSM     O313024   1.882   1.667   6.422
  123OSM    HO313025   1.832   1.746   6.394
  123OSM    C4S13026   2.065   1.710   6.519
  123OSM    H4S13027   2.045   1.784   6.597
  123OSM    C5S13028   2.132   1.601   6.539
  123OSM    H5S13029   2.127   1.530   6.456
  123OSM    C6S13030   2.204   1.561   6.663
  123OSM    H6S13031   2.311   1.567   6.641
  123OSM    H6T13032   2.176   1.455   6.673
  123OSM    C7S13033   2.193   1.641   6.795
  123OSM    H7S13034   2.213   1.748   6.780
  123OSM    H7T13035   2.261   1.595   6.871
  123OSM    C8S13036   2.063   1.637   6.866
  123OSM    H8S13037   2.081   1.543   6.920
  123OSM    H8T13038   1.979   1.621   6.797
  123OSM    C9S13039   2.035   1.745   6.972
  123OSM    H9S13040   2.019   1.841   6.918
  123OSM    H9T13041   2.119   1.767   7.037
  123OSM   C10S13042   1.913   1.720   7.063
  123OSM   H10S13043   1.903   1.631   7.110
  123OSM   H10T13044   1.808   1.724   7.029
  123OSM   C11S13045   1.925   1.799   7.181
  123OSM   H11S13046   1.969   1.887   7.130
  123OSM   H11T13047   2.004   1.814   7.248
  123OSM   C12S13048   1.800   1.790   7.260
  123OSM   H12S13049   1.770   1.706   7.316
  123OSM   H12T13050   1.699   1.768   7.216
  123OSM   C13S13051   1.807   1.911   7.339
  123OSM   H13S13052   1.704   1.898   7.338
  123OSM   H13T13053   1.758   2.000   7.310
  123OSM   C14S13054   1.907   1.932   7.455
  123OSM   H14S13055   1.994   1.986   7.415
  123OSM   H14T13056   1.926   1.828   7.472
  123OSM   C15S13057   1.880   2.000   7.594
  123OSM   H15S13058   1.781   1.994   7.650
  123OSM   H15T13059   1.907   2.101   7.577
  123OSM   C16S13060   1.945   1.954   7.714
  123OSM   H16S13061   1.931   1.847   7.724
  123OSM   H16T13062   1.892   2.005   7.801
  123OSM   C17S13063   2.082   1.995   7.684
  123OSM   H17S13064   2.078   2.102   7.656
  123OSM   H17T13065   2.125   1.942   7.596
  123OSM   C18S13066   2.167   1.975   7.803
  123OSM   H18S13067   2.106   1.975   7.897
  123OSM   H18T13068   2.248   2.050   7.808
  123OSM   H18U13069   2.214   1.877   7.789
  123OSM    C1F13070   2.241   1.994   6.335
  123OSM     OF13071   2.234   2.105   6.335
  123OSM    C2F13072   2.374   1.988   6.317
  123OSM    H2F13073   2.391   2.021   6.212
  123OSM    H2G13074   2.391   1.884   6.336
  123OSM    C3F13075   2.444   2.093   6.412
  123OSM    H3F13076   2.406   2.195   6.430
  123OSM    H3G13077   2.542   2.097   6.361
  123OSM    C4F13078   2.457   2.045   6.554
  123OSM    H4F13079   2.549   2.081   6.604
  123OSM    H4G13080   2.459   1.949   6.511
  123OSM    C5F13081   2.344   2.002   6.642
  123OSM    H5F13082   2.376   1.945   6.733
  123OSM    H5G13083   2.274   1.935   6.587
  123OSM    C6F13084   2.284   2.128   6.689
  123OSM    H6F13085   2.280   2.206   6.611
  123OSM    H6G13086   2.352   2.160   6.769
  123OSM    C7F13087   2.154   2.090   6.745
  123OSM    H7F13088   2.152   1.982   6.766
  123OSM    H7G13089   2.072   2.117   6.677
  123OSM    C8F13090   2.133   2.146   6.876
  123OSM    H8F13091   2.068   2.078   6.932
  123OSM    H8G13092   2.090   2.240   6.844
  123OSM    C9F13093   2.214   2.203   6.976
  123OSM    H9F13094   2.272   2.294   6.941
  123OSM   C10F13095   2.241   2.145   7.087
  123OSM   H10F13096   2.266   2.208   7.172
  123OSM   C11F13097   2.212   2.021   7.143
  123OSM   H11F13098   2.243   1.954   7.061
  123OSM   H11G13099   2.108   2.035   7.169
  123OSM   C12F13100   2.306   1.971   7.251
  123OSM   H12F13101   2.309   2.022   7.344
  123OSM   H12G13102   2.413   1.964   7.219
  123OSM   C13F13103   2.244   1.856   7.321
  123OSM   H13F13104   2.201   1.793   7.243
  123OSM   H13G13105   2.163   1.894   7.388
  123OSM   C14F13106   2.339   1.791   7.419
  123OSM   H14F13107   2.377   1.874   7.485
  123OSM   H14G13108   2.425   1.747   7.366
  123OSM   C15F13109   2.268   1.685   7.502
  123OSM   H15F13110   2.249   1.591   7.446
  123OSM   H15G13111   2.167   1.723   7.526
  123OSM   C16F13112   2.343   1.663   7.633
  123OSM   H16F13113   2.271   1.617   7.705
  123OSM   H16G13114   2.373   1.765   7.667
  123OSM   C17F13115   2.472   1.580   7.624
  123OSM   H17F13116   2.520   1.599   7.527
  123OSM   H17G13117   2.454   1.473   7.627
  123OSM   C18F13118   2.573   1.608   7.733
  123OSM   H18F13119   2.540   1.574   7.833
  123OSM   H18G13120   2.590   1.717   7.736
  123OSM   H18H13121   2.668   1.558   7.710
  124OSM      N13122   0.787   3.819   5.846
  124OSM    C1513123   0.665   3.739   5.874
  124OSM   H15A13124   0.593   3.758   5.795
  124OSM   H15B13125   0.624   3.759   5.972
  124OSM   H15C13126   0.689   3.634   5.866
  124OSM    C1413127   0.861   3.761   5.728
  124OSM   H14A13128   0.921   3.839   5.682
  124OSM   H14B13129   0.799   3.721   5.649
  124OSM   H14C13130   0.926   3.678   5.757
  124OSM    C1313131   0.744   3.957   5.813
  124OSM   H13A13132   0.675   3.994   5.887
  124OSM   H13B13133   0.697   3.965   5.716
  124OSM   H13C13134   0.831   4.020   5.811
  124OSM    C1213135   0.874   3.819   5.971
  124OSM   H12A13136   0.812   3.849   6.055
  124OSM   H12B13137   0.952   3.895   5.962
  124OSM    C1113138   0.942   3.684   6.010
  124OSM   H11A13139   0.864   3.605   6.002
  124OSM   H11B13140   0.975   3.685   6.116
  124OSM      P13141   1.181   3.737   5.923
  124OSM    O1313142   1.302   3.663   5.886
  124OSM    O1413143   1.147   3.855   5.840
  124OSM    O1113144   1.187   3.782   6.075
  124OSM    O1213145   1.051   3.647   5.926
  124OSM    C1S13146   1.238   3.689   6.173
  124OSM    H1S13147   1.346   3.668   6.152
  124OSM    H1T13148   1.185   3.592   6.173
  124OSM     NF13149   1.093   3.781   6.348
  124OSM    HNF13150   1.059   3.869   6.322
  124OSM    C2S13151   1.223   3.758   6.312
  124OSM    H2S13152   1.274   3.689   6.385
  124OSM    C3S13153   1.281   3.891   6.307
  124OSM    H3S13154   1.233   3.969   6.248
  124OSM     O313155   1.392   3.873   6.228
  124OSM    HO313156   1.426   3.783   6.232
  124OSM    C4S13157   1.280   3.950   6.446
  124OSM    H4S13158   1.208   4.028   6.464
  124OSM    C5S13159   1.336   3.920   6.557
  124OSM    H5S13160   1.397   3.833   6.555
  124OSM    C6S13161   1.317   3.996   6.685
  124OSM    H6S13162   1.299   4.103   6.697
  124OSM    H6T13163   1.408   4.053   6.707
  124OSM    C7S13164   1.279   3.885   6.783
  124OSM    H7S13165   1.337   3.789   6.773
  124OSM    H7T13166   1.176   3.871   6.769
  124OSM    C8S13167   1.274   3.931   6.924
  124OSM    H8S13168   1.229   4.028   6.926
  124OSM    H8T13169   1.374   3.955   6.927
  124OSM    C9S13170   1.263   3.862   7.061
  124OSM    H9S13171   1.160   3.870   7.075
  124OSM    H9T13172   1.297   3.935   7.140
  124OSM   C10S13173   1.307   3.712   7.076
  124OSM   H10S13174   1.413   3.674   7.077
  124OSM   H10T13175   1.271   3.666   6.985
  124OSM   C11S13176   1.296   3.647   7.207
  124OSM   H11S13177   1.374   3.686   7.277
  124OSM   H11T13178   1.317   3.543   7.177
  124OSM   C12S13179   1.159   3.671   7.253
  124OSM   H12S13180   1.090   3.632   7.174
  124OSM   H12T13181   1.147   3.781   7.268
  124OSM   C13S13182   1.132   3.588   7.373
  124OSM   H13S13183   1.159   3.482   7.348
  124OSM   H13T13184   1.024   3.596   7.392
  124OSM   C14S13185   1.205   3.634   7.497
  124OSM   H14S13186   1.316   3.621   7.490
  124OSM   H14T13187   1.165   3.573   7.581
  124OSM   C15S13188   1.171   3.775   7.539
  124OSM   H15S13189   1.060   3.788   7.535
  124OSM   H15T13190   1.215   3.855   7.476
  124OSM   C16S13191   1.219   3.783   7.683
  124OSM   H16S13192   1.329   3.800   7.682
  124OSM   H16T13193   1.189   3.703   7.753
  124OSM   C17S13194   1.143   3.884   7.752
  124OSM   H17S13195   1.032   3.877   7.749
  124OSM   H17T13196   1.164   3.960   7.671
  124OSM   C18S13197   1.177   3.904   7.905
  124OSM   H18S13198   1.156   3.815   7.961
  124OSM   H18T13199   1.134   3.991   7.961
  124OSM   H18U13200   1.276   3.937   7.924
  124OSM    C1F13201   1.029   3.701   6.414
  124OSM     OF13202   1.084   3.604   6.461
  124OSM    C2F13203   0.888   3.744   6.423
  124OSM    H2F13204   0.852   3.689   6.506
  124OSM    H2G13205   0.827   3.724   6.333
  124OSM    C3F13206   0.845   3.850   6.521
  124OSM    H3F13207   0.846   3.932   6.450
  124OSM    H3G13208   0.921   3.850   6.601
  124OSM    C4F13209   0.710   3.834   6.590
  124OSM    H4F13210   0.702   3.734   6.624
  124OSM    H4G13211   0.629   3.846   6.516
  124OSM    C5F13212   0.689   3.917   6.714
  124OSM    H5F13213   0.595   3.883   6.761
  124OSM    H5G13214   0.676   4.018   6.672
  124OSM    C6F13215   0.793   3.922   6.827
  124OSM    H6F13216   0.762   3.995   6.904
  124OSM    H6G13217   0.884   3.968   6.788
  124OSM    C7F13218   0.818   3.786   6.894
  124OSM    H7F13219   0.852   3.713   6.818
  124OSM    H7G13220   0.720   3.751   6.933
  124OSM    C8F13221   0.925   3.784   7.004
  124OSM    H8F13222   1.023   3.805   6.958
  124OSM    H8G13223   0.934   3.680   7.043
  124OSM    C9F13224   0.909   3.889   7.111
  124OSM    H9F13225   0.983   3.970   7.102
  124OSM   C10F13226   0.819   3.895   7.208
  124OSM   H10F13227   0.829   3.969   7.288
  124OSM   C11F13228   0.711   3.794   7.231
  124OSM   H11F13229   0.710   3.709   7.162
  124OSM   H11G13230   0.616   3.832   7.208
  124OSM   C12F13231   0.714   3.746   7.375
  124OSM   H12F13232   0.809   3.692   7.392
  124OSM   H12G13233   0.629   3.679   7.380
  124OSM   C13F13234   0.696   3.842   7.490
  124OSM   H13F13235   0.616   3.915   7.466
  124OSM   H13G13236   0.794   3.892   7.504
  124OSM   C14F13237   0.665   3.766   7.621
  124OSM   H14F13238   0.738   3.684   7.634
  124OSM   H14G13239   0.568   3.715   7.619
  124OSM   C15F13240   0.662   3.857   7.742
  124OSM   H15F13241   0.558   3.897   7.756
  124OSM   H15G13242   0.733   3.942   7.735
  124OSM   C16F13243   0.702   3.778   7.864
  124OSM   H16F13244   0.812   3.760   7.867
  124OSM   H16G13245   0.650   3.680   7.856
  124OSM   C17F13246   0.660   3.855   7.987
  124OSM   H17F13247   0.678   3.783   8.069
  124OSM   H17G13248   0.549   3.868   7.983
  124OSM   C18F13249   0.733   3.993   7.997
  124OSM   H18F13250   0.695   4.065   7.923
  124OSM   H18G13251   0.842   3.983   7.978
  124OSM   H18H13252   0.722   4.045   8.095
  125OSM      N13253   5.788   1.606   5.980
  125OSM    C1513254   5.727   1.714   5.894
  125OSM   H15A13255   5.799   1.793   5.877
  125OSM   H15B13256   5.640   1.763   5.937
  125OSM   H15C13257   5.693   1.673   5.799
  125OSM    C1413258   5.910   1.545   5.914
  125OSM   H14A13259   5.884   1.481   5.831
  125OSM   H14B13260   5.961   1.484   5.988
  125OSM   H14C13261   5.979   1.617   5.874
  125OSM    C1313262   5.842   1.668   6.105
  125OSM   H13A13263   5.765   1.710   6.170
  125OSM   H13B13264   5.910   1.746   6.076
  125OSM   H13C13265   5.899   1.594   6.161
  125OSM    C1213266   5.691   1.493   6.012
  125OSM   H12A13267   5.608   1.530   6.072
  125OSM   H12B13268   5.744   1.426   6.078
  125OSM    C1113269   5.633   1.409   5.892
  125OSM   H11A13270   5.569   1.326   5.930
  125OSM   H11B13271   5.720   1.362   5.842
  125OSM      P13272   5.412   1.509   5.809
  125OSM    O1313273   5.359   1.612   5.718
  125OSM    O1413274   5.339   1.380   5.814
  125OSM    O1113275   5.419   1.566   5.956
  125OSM    O1213276   5.567   1.483   5.788
  125OSM    C1S13277   5.312   1.545   6.044
  125OSM    H1S13278   5.245   1.459   6.021
  125OSM    H1T13279   5.246   1.628   6.020
  125OSM     NF13280   5.269   1.490   6.272
  125OSM    HNF13281   5.224   1.557   6.331
  125OSM    C2S13282   5.367   1.534   6.188
  125OSM    H2S13283   5.444   1.459   6.201
  125OSM    C3S13284   5.427   1.660   6.243
  125OSM    H3S13285   5.363   1.738   6.253
  125OSM     O313286   5.527   1.717   6.167
  125OSM    HO313287   5.500   1.685   6.080
  125OSM    C4S13288   5.473   1.635   6.380
  125OSM    H4S13289   5.509   1.539   6.405
  125OSM    C5S13290   5.451   1.718   6.477
  125OSM    H5S13291   5.382   1.802   6.452
  125OSM    C6S13292   5.495   1.701   6.617
  125OSM    H6S13293   5.408   1.733   6.674
  125OSM    H6T13294   5.579   1.770   6.643
  125OSM    C7S13295   5.529   1.571   6.669
  125OSM    H7S13296   5.620   1.541   6.614
  125OSM    H7T13297   5.440   1.506   6.649
  125OSM    C8S13298   5.578   1.575   6.812
  125OSM    H8S13299   5.517   1.602   6.890
  125OSM    H8T13300   5.651   1.650   6.839
  125OSM    C9S13301   5.602   1.435   6.847
  125OSM    H9S13302   5.695   1.404   6.811
  125OSM    H9T13303   5.509   1.392   6.800
  125OSM   C10S13304   5.624   1.408   6.992
  125OSM   H10S13305   5.521   1.439   6.985
  125OSM   H10T13306   5.677   1.484   7.050
  125OSM   C11S13307   5.627   1.271   7.058
  125OSM   H11S13308   5.652   1.191   6.991
  125OSM   H11T13309   5.532   1.233   7.080
  125OSM   C12S13310   5.654   1.245   7.201
  125OSM   H12S13311   5.755   1.269   7.215
  125OSM   H12T13312   5.612   1.142   7.217
  125OSM   C13S13313   5.610   1.340   7.301
  125OSM   H13S13314   5.511   1.333   7.282
  125OSM   H13T13315   5.614   1.445   7.314
  125OSM   C14S13316   5.584   1.302   7.423
  125OSM   H14S13317   5.517   1.209   7.395
  125OSM   H14T13318   5.522   1.385   7.473
  125OSM   C15S13319   5.703   1.309   7.514
  125OSM   H15S13320   5.746   1.407   7.513
  125OSM   H15T13321   5.766   1.239   7.458
  125OSM   C16S13322   5.697   1.299   7.671
  125OSM   H16S13323   5.762   1.231   7.730
  125OSM   H16T13324   5.651   1.214   7.658
  125OSM   C17S13325   5.579   1.362   7.753
  125OSM   H17S13326   5.484   1.402   7.715
  125OSM   H17T13327   5.626   1.457   7.768
  125OSM   C18S13328   5.518   1.273   7.868
  125OSM   H18S13329   5.464   1.189   7.878
  125OSM   H18T13330   5.427   1.323   7.909
  125OSM   H18U13331   5.592   1.227   7.938
  125OSM    C1F13332   5.210   1.381   6.258
  125OSM     OF13333   5.260   1.277   6.223
  125OSM    C2F13334   5.083   1.390   6.302
  125OSM    H2F13335   5.050   1.291   6.274
  125OSM    H2G13336   5.013   1.473   6.277
  125OSM    C3F13337   5.109   1.401   6.441
  125OSM    H3F13338   5.171   1.333   6.484
  125OSM    H3G13339   5.018   1.371   6.469
  125OSM    C4F13340   5.080   1.515   6.518
  125OSM    H4F13341   5.000   1.550   6.452
  125OSM    H4G13342   5.177   1.556   6.525
  125OSM    C5F13343   5.043   1.535   6.654
  125OSM    H5F13344   5.130   1.481   6.689
  125OSM    H5G13345   4.939   1.531   6.682
  125OSM    C6F13346   5.069   1.648   6.732
  125OSM    H6F13347   5.022   1.750   6.725
  125OSM    H6G13348   5.174   1.668   6.697
  125OSM    C7F13349   5.020   1.607   6.868
  125OSM    H7F13350   4.920   1.641   6.887
  125OSM    H7G13351   5.052   1.726   6.876
  125OSM    C8F13352   5.126   1.500   7.032
  125OSM    H8F13353   5.231   1.500   7.029
  125OSM    H8G13354   5.144   1.420   7.030
  125OSM    C9F13355   5.138   1.500   7.178
  125OSM    H9F13356   5.044   1.447   7.185
  125OSM   C10F13357   5.205   1.602   7.253
  125OSM   H10F13358   5.169   1.621   7.344
  125OSM   C11F13359   5.280   1.734   7.223
  125OSM   H11F13360   5.221   1.829   7.202
  125OSM   H11G13361   5.339   1.719   7.142
  125OSM   C12F13362   5.400   1.774   7.298
  125OSM   H12F13363   5.445   1.680   7.326
  125OSM   H12G13364   5.360   1.833   7.377
  125OSM   C13F13365   5.512   1.852   7.235
  125OSM   H13F13366   5.460   1.942   7.196
  125OSM   H13G13367   5.559   1.783   7.160
  125OSM   C14F13368   5.626   1.895   7.325
  125OSM   H14F13369   5.594   1.990   7.374
  125OSM   H14G13370   5.716   1.916   7.266
  125OSM   C15F13371   5.665   1.786   7.423
  125OSM   H15F13372   5.696   1.693   7.371
  125OSM   H15G13373   5.570   1.760   7.463
  125OSM   C16F13374   5.763   1.821   7.537
  125OSM   H16F13375   5.855   1.853   7.493
  125OSM   H16G13376   5.784   1.730   7.597
  125OSM   C17F13377   5.745   1.946   7.623
  125OSM   H17F13378   5.741   2.038   7.563
  125OSM   H17G13379   5.819   1.950   7.706
  125OSM   C18F13380   5.626   1.930   7.696
  125OSM   H18F13381   5.639   1.834   7.746
  125OSM   H18G13382   5.537   1.963   7.639
  125OSM   H18H13383   5.591   1.967   7.790
  126OSM      N13384   3.317   1.005   5.924
  126OSM    C1513385   3.305   1.152   5.908
  126OSM   H15A13386   3.297   1.180   5.804
  126OSM   H15B13387   3.395   1.196   5.949
  126OSM   H15C13388   3.219   1.191   5.962
  126OSM    C1413389   3.451   0.968   5.864
  126OSM   H14A13390   3.479   0.868   5.897
  126OSM   H14B13391   3.528   1.039   5.894
  126OSM   H14C13392   3.451   0.963   5.755
  126OSM    C1313393   3.319   0.971   6.069
  126OSM   H13A13394   3.342   0.865   6.084
  126OSM   H13B13395   3.220   0.983   6.111
  126OSM   H13C13396   3.393   1.029   6.120
  126OSM    C1213397   3.197   0.929   5.864
  126OSM   H12A13398   3.198   0.933   5.756
  126OSM   H12B13399   3.106   0.979   5.897
  126OSM    C1113400   3.188   0.777   5.895
  126OSM   H11A13401   3.100   0.735   5.841
  126OSM   H11B13402   3.168   0.755   6.002
  126OSM      P13403   3.349   0.563   5.869
  126OSM    O1313404   3.235   0.477   5.831
  126OSM    O1413405   3.481   0.537   5.804
  126OSM    O1113406   3.376   0.559   6.024
  126OSM    O1213407   3.309   0.716   5.849
  126OSM    C1S13408   3.479   0.630   6.090
  126OSM    H1S13409   3.473   0.737   6.066
  126OSM    H1T13410   3.577   0.594   6.053
  126OSM     NF13411   3.361   0.691   6.297
  126OSM    HNF13412   3.382   0.774   6.348
  126OSM    C2S13413   3.468   0.612   6.245
  126OSM    H2S13414   3.448   0.505   6.268
  126OSM    C3S13415   3.601   0.651   6.313
  126OSM    H3S13416   3.630   0.753   6.282
  126OSM     O313417   3.704   0.564   6.272
  126OSM    HO313418   3.657   0.497   6.222
  126OSM    C4S13419   3.586   0.645   6.464
  126OSM    H4S13420   3.534   0.555   6.499
  126OSM    C5S13421   3.620   0.739   6.554
  126OSM    H5S13422   3.666   0.834   6.522
  126OSM    C6S13423   3.600   0.723   6.703
  126OSM    H6S13424   3.695   0.729   6.756
  126OSM    H6T13425   3.565   0.623   6.733
  126OSM    C7S13426   3.505   0.827   6.763
  126OSM    H7S13427   3.402   0.807   6.727
  126OSM    H7T13428   3.538   0.930   6.734
  126OSM    C8S13429   3.507   0.814   6.915
  126OSM    H8S13430   3.605   0.851   6.928
  126OSM    H8T13431   3.525   0.711   6.950
  126OSM    C9S13432   3.402   0.895   6.993
  126OSM    H9S13433   3.307   0.848   6.966
  126OSM    H9T13434   3.392   0.999   6.957
  126OSM   C10S13435   3.412   0.902   7.147
  126OSM   H10S13436   3.487   0.979   7.175
  126OSM   H10T13437   3.451   0.805   7.184
  126OSM   C11S13438   3.276   0.947   7.210
  126OSM   H11S13439   3.193   0.880   7.184
  126OSM   H11T13440   3.254   1.047   7.166
  126OSM   C12S13441   3.270   0.962   7.363
  126OSM   H12S13442   3.360   1.015   7.376
  126OSM   H12T13443   3.281   0.865   7.413
  126OSM   C13S13444   3.162   1.056   7.422
  126OSM   H13S13445   3.069   0.996   7.420
  126OSM   H13T13446   3.153   1.141   7.351
  126OSM   C14S13447   3.168   1.105   7.571
  126OSM   H14S13448   3.208   1.024   7.634
  126OSM   H14T13449   3.062   1.116   7.600
  126OSM   C15S13450   3.229   1.245   7.600
  126OSM   H15S13451   3.215   1.306   7.509
  126OSM   H15T13452   3.337   1.243   7.613
  126OSM   C16S13453   3.188   1.323   7.728
  126OSM   H16S13454   3.081   1.346   7.715
  126OSM   H16T13455   3.244   1.419   7.732
  126OSM   C17S13456   3.221   1.269   7.868
  126OSM   H17S13457   3.189   1.164   7.883
  126OSM   H17T13458   3.157   1.328   7.938
  126OSM   C18S13459   3.363   1.305   7.923
  126OSM   H18S13460   3.442   1.252   7.887
  126OSM   H18T13461   3.394   1.264   8.021
  126OSM   H18U13462   3.407   1.401   7.901
  126OSM    C1F13463   3.236   0.652   6.283
  126OSM     OF13464   3.201   0.544   6.237
  126OSM    C2F13465   3.144   0.745   6.349
  126OSM    H2F13466   3.146   0.850   6.321
  126OSM    H2G13467   3.157   0.730   6.458
  126OSM    C3F13468   3.004   0.710   6.327
  126OSM    H3F13469   3.013   0.605   6.364
  126OSM    H3G13470   2.971   0.694   6.221
  126OSM    C4F13471   2.917   0.816   6.408
  126OSM    H4F13472   2.805   0.809   6.424
  126OSM    H4G13473   2.880   0.890   6.339
  126OSM    C5F13474   2.961   0.843   6.555
  126OSM    H5F13475   2.868   0.887   6.598
  126OSM    H5G13476   3.049   0.902   6.548
  126OSM    C6F13477   3.014   0.742   6.663
  126OSM    H6F13478   3.083   0.659   6.640
  126OSM    H6G13479   2.956   0.662   6.695
  126OSM    C7F13480   2.976   0.789   6.797
  126OSM    H7F13481   2.863   0.803   6.813
  126OSM    H7G13482   3.003   0.892   6.787
  126OSM    C8F13483   3.054   0.695   6.895
  126OSM    H8F13484   3.011   0.755   6.980
  126OSM    H8G13485   3.158   0.715   6.887
  126OSM    C9F13486   3.057   0.539   6.909
  126OSM    H9F13487   2.966   0.494   6.921
  126OSM   C10F13488   3.130   0.432   6.915
  126OSM   H10F13489   3.082   0.330   6.915
  126OSM   C11F13490   3.272   0.451   6.906
  126OSM   H11F13491   3.292   0.554   6.868
  126OSM   H11G13492   3.301   0.386   6.825
  126OSM   C12F13493   3.340   0.419   7.039
  126OSM   H12F13494   3.448   0.420   7.017
  126OSM   H12G13495   3.309   0.318   7.079
  126OSM   C13F13496   3.317   0.525   7.146
  126OSM   H13F13497   3.211   0.536   7.156
  126OSM   H13G13498   3.355   0.624   7.124
  126OSM   C14F13499   3.375   0.491   7.279
  126OSM   H14F13500   3.478   0.455   7.271
  126OSM   H14G13501   3.310   0.403   7.291
  126OSM   C15F13502   3.365   0.595   7.392
  126OSM   H15F13503   3.254   0.607   7.407
  126OSM   H15G13504   3.403   0.695   7.374
  126OSM   C16F13505   3.459   0.583   7.516
  126OSM   H16F13506   3.554   0.542   7.533
  126OSM   H16G13507   3.439   0.500   7.581
  126OSM   C17F13508   3.390   0.546   7.619
  126OSM   H17F13509   3.274   0.563   7.584
  126OSM   H17G13510   3.334   0.645   7.637
  126OSM   C18F13511   3.451   0.417   7.813
  126OSM   H18F13512   3.540   0.380   7.856
  126OSM   H18G13513   3.372   0.349   7.855
  126OSM   H18H13514   3.395   0.474   7.914
  127OSM      N13515   1.892   1.192   5.830
  127OSM    C1513516   1.794   1.149   5.725
  127OSM   H15A13517   1.833   1.175   5.628
  127OSM   H15B13518   1.697   1.195   5.738
  127OSM   H15C13519   1.778   1.041   5.728
  127OSM    C1413520   1.885   1.339   5.836
  127OSM   H14A13521   1.976   1.385   5.871
  127OSM   H14B13522   1.806   1.363   5.907
  127OSM   H14C13523   1.856   1.375   5.738
  127OSM    C1313524   1.845   1.139   5.961
  127OSM   H13A13525   1.741   1.165   5.977
  127OSM   H13B13526   1.905   1.172   6.046
  127OSM   H13C13527   1.851   1.029   5.961
  127OSM    C1213528   2.033   1.147   5.797
  127OSM   H12A13529   2.095   1.181   5.878
  127OSM   H12B13530   2.061   1.194   5.705
  127OSM    C1113531   2.061   0.997   5.783
  127OSM   H11A13532   2.169   0.978   5.757
  127OSM   H11B13533   2.001   0.952   5.702
  127OSM      P13534   2.113   0.855   5.990
  127OSM    O1313535   2.055   0.780   6.101
  127OSM    O1413536   2.194   0.785   5.889
  127OSM    O1113537   2.208   0.968   6.057
  127OSM    O1213538   2.016   0.936   5.903
  127OSM    C1S13539   2.148   1.060   6.151
  127OSM    H1S13540   2.039   1.070   6.135
  127OSM    H1T13541   2.189   1.162   6.135
  127OSM     NF13542   2.113   1.120   6.385
  127OSM    HNF13543   2.176   1.174   6.440
  127OSM    C2S13544   2.175   1.024   6.300
  127OSM    H2S13545   2.128   0.925   6.322
  127OSM    C3S13546   2.326   1.027   6.331
  127OSM    H3S13547   2.367   1.127   6.311
  127OSM     O313548   2.412   0.952   6.252
  127OSM    HO313549   2.355   0.893   6.200
  127OSM    C4S13550   2.335   0.992   6.476
  127OSM    H4S13551   2.278   0.909   6.515
  127OSM    C5S13552   2.395   1.060   6.566
  127OSM    H5S13553   2.452   1.143   6.536
  127OSM    C6S13554   2.403   1.033   6.708
  127OSM    H6S13555   2.397   1.136   6.754
  127OSM    H6T13556   2.492   0.972   6.734
  127OSM    C7S13557   2.309   0.973   6.798
  127OSM    H7S13558   2.358   0.970   6.898
  127OSM    H7T13559   2.301   0.872   6.756
  127OSM    C8S13560   2.187   1.061   6.792
  127OSM    H8S13561   2.150   1.065   6.687
  127OSM    H8T13562   2.204   1.166   6.827
  127OSM    C9S13563   2.082   1.000   6.878
  127OSM    H9S13564   2.065   0.896   6.844
  127OSM    H9T13565   1.991   1.058   6.857
  127OSM   C10S13566   2.118   0.995   7.027
  127OSM   H10S13567   2.125   1.096   7.073
  127OSM   H10T13568   2.219   0.951   7.041
  127OSM   C11S13569   2.012   0.906   7.094
  127OSM   H11S13570   1.995   0.813   7.036
  127OSM   H11T13571   1.916   0.960   7.088
  127OSM   C12S13572   2.049   0.871   7.239
  127OSM   H12S13573   2.057   0.968   7.291
  127OSM   H12T13574   2.151   0.829   7.244
  127OSM   C13S13575   1.948   0.783   7.314
  127OSM   H13S13576   1.959   0.675   7.290
  127OSM   H13T13577   1.844   0.804   7.283
  127OSM   C14S13578   1.957   0.802   7.467
  127OSM   H14S13579   2.061   0.818   7.503
  127OSM   H14T13580   1.924   0.703   7.506
  127OSM   C15S13581   1.867   0.917   7.518
  127OSM   H15S13582   1.765   0.899   7.479
  127OSM   H15T13583   1.901   1.012   7.472
  127OSM   C16S13584   1.869   0.947   7.671
  127OSM   H16S13585   1.964   0.920   7.717
  127OSM   H16T13586   1.811   0.879   7.733
  127OSM   C17S13587   1.817   1.087   7.710
  127OSM   H17S13588   1.741   1.125   7.639
  127OSM   H17T13589   1.903   1.154   7.693
  127OSM   C18S13590   1.758   1.098   7.852
  127OSM   H18S13591   1.732   1.202   7.881
  127OSM   H18T13592   1.828   1.061   7.929
  127OSM   H18U13593   1.661   1.043   7.856
  127OSM    C1F13594   1.984   1.144   6.390
  127OSM     OF13595   1.905   1.073   6.332
  127OSM    C2F13596   1.950   1.267   6.465
  127OSM    H2F13597   1.946   1.347   6.389
  127OSM    H2G13598   2.029   1.289   6.539
  127OSM    C3F13599   1.820   1.255   6.540
  127OSM    H3F13600   1.832   1.190   6.625
  127OSM    H3G13601   1.746   1.223   6.464
  127OSM    C4F13602   1.771   1.375   6.614
  127OSM    H4F13603   1.677   1.342   6.663
  127OSM    H4G13604   1.759   1.459   6.546
  127OSM    C5F13605   1.851   1.434   6.719
  127OSM    H5F13606   1.784   1.515   6.748
  127OSM    H5G13607   1.938   1.477   6.667
  127OSM    C6F13608   1.881   1.332   6.826
  127OSM    H6F13609   1.970   1.277   6.792
  127OSM    H6G13610   1.796   1.261   6.833
  127OSM    C7F13611   1.911   1.389   6.962
  127OSM    H7F13612   1.909   1.496   6.941
  127OSM    H7G13613   2.006   1.354   7.008
  127OSM    C8F13614   1.796   1.410   7.057
  127OSM    H8F13615   1.714   1.457   6.997
  127OSM    H8G13616   1.825   1.483   7.129
  127OSM    C9F13617   1.766   1.294   7.143
  127OSM    H9F13618   1.749   1.204   7.085
  127OSM   C10F13619   1.760   1.296   7.278
  127OSM   H10F13620   1.726   1.207   7.331
  127OSM   C11F13621   1.782   1.418   7.364
  127OSM   H11F13622   1.728   1.406   7.461
  127OSM   H11G13623   1.728   1.498   7.310
  127OSM   C12F13624   1.928   1.457   7.403
  127OSM   H12F13625   1.927   1.552   7.462
  127OSM   H12G13626   1.988   1.479   7.312
  127OSM   C13F13627   2.003   1.354   7.490
  127OSM   H13F13628   1.938   1.265   7.505
  127OSM   H13G13629   2.027   1.394   7.591
  127OSM   C14F13630   2.128   1.300   7.417
  127OSM   H14F13631   2.213   1.371   7.425
  127OSM   H14G13632   2.093   1.289   7.311
  127OSM   C15F13633   2.181   1.168   7.474
  127OSM   H15F13634   2.272   1.131   7.420
  127OSM   H15G13635   2.100   1.095   7.458
  127OSM   C16F13636   2.211   1.175   7.624
  127OSM   H16F13637   2.224   1.071   7.658
  127OSM   H16G13638   2.128   1.215   7.687
  127OSM   C17F13639   2.335   1.259   7.650
  127OSM   H17F13640   2.309   1.361   7.622
  127OSM   H17G13641   2.423   1.222   7.592
  127OSM   C18F13642   2.363   1.285   7.796
  127OSM   H18F13643   2.373   1.191   7.828
  127OSM   H18G13644   2.287   1.269   7.871
  127OSM   H18H13645   2.464   1.319   7.822
  128OSM      N13646   6.255   5.638   5.828
  128OSM    C1513647   6.385   5.700   5.863
  128OSM   H15A13648   6.379   5.751   5.959
  128OSM   H15B13649   6.405   5.779   5.790
  128OSM   H15C13650   6.463   5.626   5.867
  128OSM    C1413651   6.155   5.747   5.848
  128OSM   H14A13652   6.060   5.715   5.810
  128OSM   H14B13653   6.186   5.840   5.801
  128OSM   H14C13654   6.148   5.773   5.954
  128OSM    C1313655   6.267   5.594   5.686
  128OSM   H13A13656   6.276   5.679   5.618
  128OSM   H13B13657   6.186   5.531   5.654
  128OSM   H13C13658   6.357   5.535   5.675
  128OSM    C1213659   6.225   5.524   5.923
  128OSM   H12A13660   6.126   5.490   5.899
  128OSM   H12B13661   6.227   5.564   6.025
  128OSM    C1113662   6.312   5.395   5.921
  128OSM   H11A13663   6.301   5.352   5.819
  128OSM   H11B13664   6.269   5.325   5.997
  128OSM      P13665   6.560   5.307   5.957
  128OSM    O1313666   6.517   5.188   5.882
  128OSM    O1413667   6.690   5.365   5.918
  128OSM    O1113668   6.568   5.278   6.111
  128OSM    O1213669   6.449   5.421   5.950
  128OSM    C1S13670   6.591   5.388   6.199
  128OSM    H1S13671   6.509   5.462   6.196
  128OSM    H1T13672   6.686   5.441   6.175
  128OSM     NF13673   6.557   5.441   6.437
  128OSM    HNF13674   6.628   5.480   6.493
  128OSM    C2S13675   6.591   5.337   6.343
  128OSM    H2S13676   6.528   5.246   6.356
  128OSM    C3S13677   6.720   5.287   6.376
  128OSM    H3S13678   6.801   5.369   6.378
  128OSM     O313679   6.775   5.196   6.278
  128OSM    HO313680   6.747   5.206   6.186
  128OSM    C4S13681   6.714   5.220   6.514
  128OSM    H4S13682   6.742   5.114   6.516
  128OSM    C5S13683   6.715   5.287   6.635
  128OSM    H5S13684   6.764   5.389   6.638
  128OSM    C6S13685   6.738   5.195   6.758
  128OSM    H6S13686   6.836   5.190   6.819
  128OSM    H6T13687   6.778   5.093   6.745
  128OSM    C7S13688   6.628   5.255   6.829
  128OSM    H7S13689   6.544   5.210   6.772
  128OSM    H7T13690   6.620   5.368   6.834
  128OSM    C8S13691   6.613   5.204   6.965
  128OSM    H8S13692   6.681   5.246   7.037
  128OSM    H8T13693   6.639   5.099   6.960
  128OSM    C9S13694   6.470   5.230   7.001
  128OSM    H9S13695   6.442   5.152   7.073
  128OSM    H9T13696   6.409   5.220   6.909
  128OSM   C10S13697   6.448   5.371   7.051
  128OSM   H10S13698   6.343   5.398   7.032
  128OSM   H10T13699   6.505   5.449   6.997
  128OSM   C11S13700   6.484   5.382   7.199
  128OSM   H11S13701   6.442   5.475   7.243
  128OSM   H11T13702   6.587   5.364   7.213
  128OSM   C12S13703   6.448   5.288   7.304
  128OSM   H12S13704   6.475   5.185   7.307
  128OSM   H12T13705   6.373   5.251   7.232
  128OSM   C13S13706   6.423   5.342   7.455
  128OSM   H13S13707   6.365   5.438   7.463
  128OSM   H13T13708   6.516   5.354   7.508
  128OSM   C14S13709   6.372   5.230   7.548
  128OSM   H14S13710   6.375   5.131   7.503
  128OSM   H14T13711   6.282   5.198   7.513
  128OSM   C15S13712   6.345   5.243   7.699
  128OSM   H15S13713   6.433   5.260   7.754
  128OSM   H15T13714   6.316   5.139   7.730
  128OSM   C16S13715   6.249   5.348   7.760
  128OSM   H16S13716   6.143   5.326   7.751
  128OSM   H16T13717   6.243   5.453   7.735
  128OSM   C17S13718   6.203   5.322   7.886
  128OSM   H17S13719   6.242   5.230   7.879
  128OSM   H17T13720   6.126   5.240   7.904
  128OSM   C18S13721   6.214   5.465   7.940
  128OSM   H18S13722   6.126   5.521   7.927
  128OSM   H18T13723   6.288   5.528   7.911
  128OSM   H18U13724   6.254   5.509   8.022
  128OSM    C1F13725   6.435   5.484   6.451
  128OSM     OF13726   6.346   5.449   6.377
  128OSM    C2F13727   6.418   5.580   6.562
  128OSM    H2F13728   6.478   5.671   6.542
  128OSM    H2G13729   6.452   5.532   6.657
  128OSM    C3F13730   6.273   5.619   6.584
  128OSM    H3F13731   6.221   5.528   6.619
  128OSM    H3G13732   6.225   5.655   6.490
  128OSM    C4F13733   6.261   5.722   6.696
  128OSM    H4F13734   6.162   5.766   6.679
  128OSM    H4G13735   6.341   5.798   6.683
  128OSM    C5F13736   6.264   5.660   6.838
  128OSM    H5F13737   6.365   5.628   6.864
  128OSM    H5G13738   6.187   5.581   6.848
  128OSM    C6F13739   6.243   5.759   6.949
  128OSM    H6F13740   6.142   5.771   6.910
  128OSM    H6G13741   6.305   5.848   6.922
  128OSM    C7F13742   6.250   5.719   7.102
  128OSM    H7F13743   6.358   5.701   7.109
  128OSM    H7G13744   6.188   5.631   7.111
  128OSM    C8F13745   6.215   5.805   7.228
  128OSM    H8F13746   6.229   5.779   7.332
  128OSM    H8G13747   6.115   5.829   7.256
  128OSM    C9F13748   6.284   5.922   7.186
  128OSM    H9F13749   6.235   6.012   7.162
  128OSM   C10F13750   6.380   5.949   7.255
  128OSM   H10F13751   6.416   6.033   7.300
  128OSM   C11F13752   6.447   5.917   7.353
  128OSM   H11F13753   6.538   5.908   7.282
  128OSM   H11G13754   6.395   5.829   7.374
  128OSM   C12F13755   6.469   5.970   7.493
  128OSM   H12F13756   6.394   6.036   7.533
  128OSM   H12G13757   6.533   6.058   7.472
  128OSM   C13F13758   6.553   5.867   7.597
  128OSM   H13F13759   6.478   5.837   7.661
  128OSM   H13G13760   6.578   5.963   7.633
  128OSM   C14F13761   6.706   5.751   7.575
  128OSM   H14F13762   6.783   5.751   7.445
  128OSM   H14G13763   6.623   5.682   7.592
  128OSM   C15F13764   6.696   5.709   7.683
  128OSM   H15F13765   6.734   5.773   7.735
  128OSM   H15G13766   6.757   5.619   7.654
  128OSM   C16F13767   6.625   5.639   7.787
  128OSM   H16F13768   6.559   5.568   7.744
  128OSM   H16G13769   6.576   5.716   7.848
  128OSM   C17F13770   6.712   5.573   7.890
  128OSM   H17F13771   6.804   5.623   7.925
  128OSM   H17G13772   6.747   5.477   7.847
  128OSM   C18F13773   6.627   5.557   8.012
  128OSM   H18F13774   6.593   5.647   8.067
  128OSM   H18G13775   6.700   5.526   8.081
  128OSM   H18H13776   6.546   5.483   8.002
  129OSM      N13777   3.958   7.495   5.740
  129OSM    C1513778   3.858   7.391   5.702
  129OSM   H15A13779   3.758   7.428   5.718
  129OSM   H15B13780   3.872   7.304   5.766
  129OSM   H15C13781   3.868   7.364   5.597
  129OSM    C1413782   4.097   7.440   5.718
  129OSM   H14A13783   4.128   7.429   5.616
  129OSM   H14B13784   4.101   7.342   5.764
  129OSM   H14C13785   4.175   7.496   5.771
  129OSM    C1313786   3.937   7.618   5.657
  129OSM   H13A13787   3.964   7.598   5.554
  129OSM   H13B13788   3.995   7.701   5.693
  129OSM   H13C13789   3.831   7.644   5.651
  129OSM    C1213790   3.943   7.523   5.888
  129OSM   H12A13791   3.850   7.578   5.903
  129OSM   H12B13792   4.025   7.587   5.920
  129OSM    C1113793   3.932   7.408   5.993
  129OSM   H11A13794   3.831   7.362   5.987
  129OSM   H11B13795   3.940   7.453   6.094
  129OSM      P13796   4.178   7.328   6.044
  129OSM    O1313797   4.247   7.205   5.998
  129OSM    O1413798   4.212   7.463   5.994
  129OSM    O1113799   4.175   7.336   6.203
  129OSM    O1213800   4.031   7.307   5.985
  129OSM    C1S13801   4.093   7.254   6.283
  129OSM    H1S13802   4.114   7.146   6.264
  129OSM    H1T13803   3.987   7.277   6.259
  129OSM     NF13804   4.040   7.181   6.507
  129OSM    HNF13805   3.948   7.207   6.536
  129OSM    C2S13806   4.112   7.282   6.434
  129OSM    H2S13807   4.217   7.274   6.469
  129OSM    C3S13808   4.063   7.425   6.467
  129OSM    H3S13809   3.953   7.433   6.445
  129OSM     O313810   4.134   7.531   6.404
  129OSM    HO313811   4.207   7.488   6.357
  129OSM    C4S13812   4.077   7.441   6.615
  129OSM    H4S13813   3.981   7.446   6.665
  129OSM    C5S13814   4.194   7.457   6.680
  129OSM    H5S13815   4.284   7.468   6.618
  129OSM    C6S13816   4.215   7.473   6.829
  129OSM    H6S13817   4.243   7.579   6.849
  129OSM    H6T13818   4.297   7.407   6.865
  129OSM    C7S13819   4.095   7.438   6.918
  129OSM    H7S13820   4.072   7.330   6.902
  129OSM    H7T13821   4.010   7.501   6.884
  129OSM    C8S13822   4.125   7.456   7.068
  129OSM    H8S13823   4.170   7.555   7.091
  129OSM    H8T13824   4.201   7.378   7.093
  129OSM    C9S13825   4.000   7.443   7.154
  129OSM    H9S13826   3.968   7.338   7.147
  129OSM    H9T13827   3.919   7.507   7.113
  129OSM   C10S13828   4.022   7.468   7.304
  129OSM   H10S13829   4.067   7.568   7.321
  129OSM   H10T13830   4.089   7.388   7.343
  129OSM   C11S13831   3.892   7.472   7.383
  129OSM   H11S13832   3.813   7.531   7.330
  129OSM   H11T13833   3.906   7.511   7.484
  129OSM   C12S13834   3.837   7.339   7.415
  129OSM   H12S13835   3.889   7.260   7.469
  129OSM   H12T13836   3.870   7.285   7.328
  129OSM   C13S13837   3.689   7.359   7.460
  129OSM   H13S13838   3.625   7.277   7.425
  129OSM   H13T13839   3.625   7.434   7.425
  129OSM   C14S13840   3.676   7.352   7.609
  129OSM   H14S13841   3.701   7.255   7.606
  129OSM   H14T13842   3.580   7.327   7.653
  129OSM   C15S13843   3.794   7.392   7.697
  129OSM   H15S13844   3.769   7.496   7.694
  129OSM   H15T13845   3.891   7.358   7.653
  129OSM   C16S13846   3.794   7.351   7.845
  129OSM   H16S13847   3.854   7.261   7.844
  129OSM   H16T13848   3.692   7.332   7.885
  129OSM   C17S13849   3.893   7.399   7.936
  129OSM   H17S13850   3.996   7.384   7.896
  129OSM   H17T13851   3.881   7.350   8.038
  129OSM   C18S13852   3.854   7.536   7.926
  129OSM   H18S13853   3.752   7.549   7.972
  129OSM   H18T13854   3.860   7.598   7.838
  129OSM   H18U13855   3.945   7.571   7.977
  129OSM    C1F13856   4.098   7.058   6.520
  129OSM     OF13857   4.208   7.030   6.482
  129OSM    C2F13858   4.020   6.952   6.577
  129OSM    H2F13859   4.002   6.868   6.502
  129OSM    H2G13860   3.931   7.012   6.602
  129OSM    C3F13861   4.062   6.888   6.701
  129OSM    H3F13862   4.152   6.835   6.672
  129OSM    H3G13863   3.984   6.810   6.715
  129OSM    C4F13864   4.069   6.993   6.810
  129OSM    H4F13865   3.992   7.070   6.785
  129OSM    H4G13866   4.167   7.040   6.801
  129OSM    C5F13867   4.052   6.933   6.949
  129OSM    H5F13868   4.141   6.874   6.972
  129OSM    H5G13869   3.971   6.860   6.940
  129OSM    C6F13870   4.025   7.030   7.064
  129OSM    H6F13871   3.947   7.108   7.046
  129OSM    H6G13872   4.104   7.100   7.086
  129OSM    C7F13873   3.981   6.956   7.189
  129OSM    H7F13874   3.909   6.872   7.170
  129OSM    H7G13875   3.938   7.044   7.232
  129OSM    C8F13876   4.058   6.872   7.279
  129OSM    H8F13877   4.096   6.791   7.214
  129OSM    H8G13878   3.987   6.830   7.353
  129OSM    C9F13879   4.161   6.951   7.343
  129OSM    H9F13880   4.228   6.975   7.267
  129OSM   C10F13881   4.179   6.990   7.468
  129OSM   H10F13882   4.275   7.036   7.496
  129OSM   C11F13883   4.087   6.956   7.578
  129OSM   H11F13884   4.132   6.874   7.636
  129OSM   H11G13885   3.987   6.916   7.546
  129OSM   C12F13886   4.056   7.080   7.661
  129OSM   H12F13887   3.987   7.037   7.735
  129OSM   H12G13888   4.001   7.157   7.603
  129OSM   C13F13889   4.163   7.145   7.741
  129OSM   H13F13890   4.132   7.250   7.764
  129OSM   H13G13891   4.256   7.153   7.682
  129OSM   C14F13892   4.177   7.072   7.873
  129OSM   H14F13893   4.205   6.966   7.859
  129OSM   H14G13894   4.082   7.081   7.931
  129OSM   C15F13895   4.287   7.134   7.949
  129OSM   H15F13896   4.289   7.238   7.915
  129OSM   H15G13897   4.385   7.091   7.924
  129OSM   C16F13898   4.267   7.120   8.093
  129OSM   H16F13899   4.284   7.027   8.128
  129OSM   H16G13900   4.169   7.134   8.140
  129OSM   C17F13901   4.375   7.179   8.155
  129OSM   H17F13902   4.459   7.222   8.098
  129OSM   H17G13903   4.403   7.147   8.252
  129OSM   C18F13904   4.308   7.262   8.214
  129OSM   H18F13905   4.246   7.320   8.153
  129OSM   H18G13906   4.384   7.329   8.264
  129OSM   H18H13907   4.205   7.257   8.261
  130OSM      N13908   0.272   2.335   5.778
  130OSM    C1513909   0.395   2.421   5.772
  130OSM   H15A13910   0.458   2.398   5.689
  130OSM   H15B13911   0.454   2.415   5.864
  130OSM   H15C13912   0.365   2.526   5.764
  130OSM    C1413913   0.185   2.380   5.665
  130OSM   H14A13914   0.229   2.347   5.572
  130OSM   H14B13915   0.173   2.489   5.667
  130OSM   H14C13916   0.085   2.340   5.672
  130OSM    C1313917   0.305   2.192   5.758
  130OSM   H13A13918   0.349   2.174   5.660
  130OSM   H13B13919   0.216   2.131   5.767
  130OSM   H13C13920   0.379   2.164   5.831
  130OSM    C1213921   0.212   2.352   5.915
  130OSM   H12A13922   0.288   2.336   5.992
  130OSM   H12B13923   0.138   2.275   5.928
  130OSM    C1113924   0.142   2.483   5.948
  130OSM   H11A13925   0.101   2.484   6.050
  130OSM   H11B13926   0.051   2.477   5.894
  130OSM      P13927   0.302   2.676   6.011
  130OSM    O1313928   0.429   2.693   5.938
  130OSM    O1413929   0.240   2.792   6.077
  130OSM    O1113930   0.323   2.562   6.121
  130OSM    O1213931   0.206   2.602   5.909
  130OSM    C1S13932   0.424   2.584   6.218
  130OSM    H1S13933   0.450   2.692   6.229
  130OSM    H1T13934   0.518   2.541   6.184
  130OSM     NF13935   0.431   2.574   6.460
  130OSM    HNF13936   0.503   2.532   6.509
  130OSM    C2S13937   0.382   2.515   6.349
  130OSM    H2S13938   0.272   2.518   6.367
  130OSM    C3S13939   0.437   2.376   6.353
  130OSM    H3S13940   0.550   2.384   6.346
  130OSM     O313941   0.390   2.302   6.244
  130OSM    HO313942   0.350   2.375   6.193
  130OSM    C4S13943   0.403   2.314   6.487
  130OSM    H4S13944   0.305   2.331   6.528
  130OSM    C5S13945   0.486   2.250   6.564
  130OSM    H5S13946   0.581   2.231   6.523
  130OSM    C6S13947   0.460   2.189   6.696
  130OSM    H6S13948   0.529   2.102   6.712
  130OSM    H6T13949   0.357   2.150   6.694
  130OSM    C7S13950   0.474   2.295   6.807
  130OSM    H7S13951   0.414   2.384   6.781
  130OSM    H7T13952   0.575   2.337   6.822
  130OSM    C8S13953   0.434   2.233   6.939
  130OSM    H8S13954   0.498   2.143   6.956
  130OSM    H8T13955   0.329   2.198   6.924
  130OSM    C9S13956   0.454   2.321   7.061
  130OSM    H9S13957   0.412   2.421   7.050
  130OSM    H9T13958   0.563   2.342   7.068
  130OSM   C10S13959   0.391   2.256   7.185
  130OSM   H10S13960   0.440   2.159   7.208
  130OSM   H10T13961   0.287   2.227   7.159
  130OSM   C11S13962   0.397   2.342   7.312
  130OSM   H11S13963   0.344   2.440   7.299
  130OSM   H11T13964   0.502   2.370   7.327
  130OSM   C12S13965   0.370   2.265   7.442
  130OSM   H12S13966   0.443   2.182   7.450
  130OSM   H12T13967   0.269   2.219   7.448
  130OSM   C13S13968   0.398   2.353   7.562
  130OSM   H13S13969   0.341   2.448   7.563
  130OSM   H13T13970   0.502   2.377   7.560
  130OSM   C14S13971   0.386   2.275   7.687
  130OSM   H14S13972   0.433   2.323   7.766
  130OSM   H14T13973   0.451   2.187   7.694
  130OSM   C15S13974   0.241   2.253   7.710
  130OSM   H15S13975   0.232   2.140   7.725
  130OSM   H15T13976   0.168   2.298   7.649
  130OSM   C16S13977   0.188   2.315   7.833
  130OSM   H16S13978   0.270   2.279   7.870
  130OSM   H16T13979   0.171   2.223   7.871
  130OSM   C17S13980   0.117   2.442   7.890
  130OSM   H17S13981   0.020   2.421   7.843
  130OSM   H17T13982   0.178   2.521   7.844
  130OSM   C18S13983   0.091   2.489   8.043
  130OSM   H18S13984   0.062   2.420   8.127
  130OSM   H18T13985  -0.004   2.532   8.060
  130OSM   H18U13986   0.175   2.551   8.079
  130OSM    C1F13987   0.422   2.690   6.483
  130OSM     OF13988   0.383   2.767   6.407
  130OSM    C2F13989   0.484   2.721   6.594
  130OSM    H2F13990   0.534   2.815   6.560
  130OSM    H2G13991   0.555   2.638   6.607
  130OSM    C3F13992   0.406   2.744   6.712
  130OSM    H3F13993   0.318   2.795   6.673
  130OSM    H3G13994   0.452   2.839   6.735
  130OSM    C4F13995   0.390   2.650   6.840
  130OSM    H4F13996   0.369   2.572   6.772
  130OSM    H4G13997   0.294   2.666   6.896
  130OSM    C5F13998   0.508   2.610   6.937
  130OSM    H5F13999   0.555   2.559   6.854
  130OSM    H5G14000   0.542   2.522   6.979
  130OSM    C6F14001   0.588   2.675   7.056
  130OSM    H6F14002   0.648   2.712   6.973
  130OSM    H6G14003   0.681   2.736   7.063
  130OSM    C7F14004   0.551   2.767   7.196
  130OSM    H7F14005   0.470   2.796   7.159
  130OSM    H7G14006   0.477   2.813   7.291
  130OSM    C8F14007   0.515   2.678   7.259
  130OSM    H8F14008   0.506   2.587   7.197
  130OSM    H8G14009   0.397   2.673   7.271
  130OSM    C9F14010   0.666   2.743   7.300
  130OSM    H9F14011   0.723   2.692   7.228
  130OSM   C10F14012   0.709   2.801   7.413
  130OSM   H10F14013   0.798   2.757   7.461
  130OSM   C11F14014   0.603   2.819   7.517
  130OSM   H11F14015   0.500   2.854   7.482
  130OSM   H11G14016   0.660   2.911   7.544
  130OSM   C12F14017   0.586   2.828   7.658
  130OSM   H12F14018   0.514   2.909   7.687
  130OSM   H12G14019   0.683   2.838   7.711
  130OSM   C13F14020   0.509   2.714   7.681
  130OSM   H13F14021   0.588   2.639   7.677
  130OSM   H13G14022   0.450   2.660   7.604
  130OSM   C14F14023   0.437   2.758   7.810
  130OSM   H14F14024   0.364   2.671   7.781
  130OSM   H14G14025   0.344   2.764   7.855
  130OSM   C15F14026   0.536   2.768   7.946
  130OSM   H15F14027   0.621   2.821   7.908
  130OSM   H15G14028   0.612   2.692   7.981
  130OSM   C16F14029   0.484   2.744   8.089
  130OSM   H16F14030   0.564   2.758   8.168
  130OSM   H16G14031   0.446   2.640   8.108
  130OSM   C17F14032   0.372   2.836   8.104
  130OSM   H17F14033   0.305   2.810   8.184
  130OSM   H17G14034   0.317   2.850   8.011
  130OSM   C18F14035   0.417   2.964   8.144
  130OSM   H18F14036   0.462   3.001   8.058
  130OSM   H18G14037   0.483   2.972   8.233
  130OSM   H18H14038   0.356   3.049   8.123
  131OSM      N14039   1.134   0.667   5.746
  131OSM    C1514040   1.068   0.574   5.652
  131OSM   H15A14041   1.138   0.496   5.621
  131OSM   H15B14042   1.051   0.632   5.562
  131OSM   H15C14043   0.976   0.530   5.688
  131OSM    C1414044   1.260   0.707   5.679
  131OSM   H14A14045   1.240   0.746   5.581
  131OSM   H14B14046   1.327   0.623   5.671
  131OSM   H14C14047   1.312   0.784   5.739
  131OSM    C1314048   1.049   0.788   5.767
  131OSM   H13A14049   0.972   0.771   5.843
  131OSM   H13B14050   1.001   0.821   5.676
  131OSM   H13C14051   1.114   0.867   5.805
  131OSM    C1214052   1.169   0.601   5.879
  131OSM   H12A14053   1.231   0.515   5.859
  131OSM   H12B14054   1.074   0.567   5.920
  131OSM    C1114055   1.236   0.688   5.991
  131OSM   H11A14056   1.289   0.624   6.065
  131OSM   H11B14057   1.150   0.738   6.041
  131OSM      P14058   1.419   0.878   6.030
  131OSM    O1314059   1.551   0.892   5.966
  131OSM    O1414060   1.352   1.002   6.071
  131OSM    O1114061   1.434   0.788   6.161
  131OSM    O1214062   1.322   0.789   5.941
  131OSM    C1S14063   1.498   0.844   6.276
  131OSM    H1S14064   1.574   0.920   6.249
  131OSM    H1T14065   1.559   0.767   6.328
  131OSM     NF14066   1.473   0.922   6.498
  131OSM    HNF14067   1.458   0.857   6.571
  131OSM    C2S14068   1.397   0.903   6.379
  131OSM    H2S14069   1.359   1.000   6.339
  131OSM    C3S14070   1.275   0.809   6.406
  131OSM    H3S14071   1.311   0.711   6.439
  131OSM     O314072   1.194   0.783   6.293
  131OSM    HO314073   1.247   0.816   6.218
  131OSM    C4S14074   1.199   0.870   6.524
  131OSM    H4S14075   1.217   0.827   6.621
  131OSM    C5S14076   1.109   0.966   6.520
  131OSM    H5S14077   1.081   0.997   6.421
  131OSM    C6S14078   1.029   1.037   6.626
  131OSM    H6S14079   0.934   1.033   6.585
  131OSM    H6T14080   1.030   1.147   6.621
  131OSM    C7S14081   1.038   0.998   6.772
  131OSM    H7S14082   1.044   0.888   6.781
  131OSM    H7T14083   0.945   1.034   6.822
  131OSM    C8S14084   1.161   1.059   6.836
  131OSM    H8S14085   1.163   1.168   6.809
  131OSM    H8T14086   1.247   1.010   6.786
  131OSM    C9S14087   1.168   1.036   6.989
  131OSM    H9S14088   1.172   0.929   7.015
  131OSM    H9T14089   1.078   1.084   7.031
  131OSM   C10S14090   1.292   1.093   7.056
  131OSM   H10S14091   1.323   1.144   6.969
  131OSM   H10T14092   1.371   1.018   7.075
  131OSM   C11S14093   1.276   1.197   7.166
  131OSM   H11S14094   1.205   1.276   7.135
  131OSM   H11T14095   1.372   1.252   7.179
  131OSM   C12S14096   1.245   1.128   7.299
  131OSM   H12S14097   1.158   1.060   7.287
  131OSM   H12T14098   1.216   1.202   7.375
  131OSM   C13S14099   1.370   1.057   7.352
  131OSM   H13S14100   1.382   1.077   7.460
  131OSM   H13T14101   1.459   1.098   7.299
  131OSM   C14S14102   1.363   0.905   7.348
  131OSM   H14S14103   1.358   0.869   7.245
  131OSM   H14T14104   1.266   0.872   7.388
  131OSM   C15S14105   1.476   0.835   7.424
  131OSM   H15S14106   1.571   0.847   7.370
  131OSM   H15T14107   1.453   0.727   7.428
  131OSM   C16S14108   1.503   0.872   7.570
  131OSM   H16S14109   1.425   0.842   7.638
  131OSM   H16T14110   1.522   0.981   7.586
  131OSM   C17S14111   1.595   0.775   7.637
  131OSM   H17S14112   1.667   0.848   7.647
  131OSM   H17T14113   1.630   0.697   7.571
  131OSM   C18S14114   1.561   0.720   7.772
  131OSM   H18S14115   1.473   0.655   7.763
  131OSM   H18T14116   1.545   0.810   7.825
  131OSM   H18U14117   1.638   0.683   7.842
  131OSM    C1F14118   1.569   1.010   6.509
  131OSM     OF14119   1.574   1.108   6.437
  131OSM    C2F14120   1.659   0.979   6.622
  131OSM    H2F14121   1.745   1.040   6.613
  131OSM    H2G14122   1.694   0.877   6.611
  131OSM    C3F14123   1.590   0.995   6.757
  131OSM    H3F14124   1.487   0.950   6.748
  131OSM    H3G14125   1.594   1.106   6.766
  131OSM    C4F14126   1.650   0.949   6.889
  131OSM    H4F14127   1.588   0.984   6.976
  131OSM    H4G14128   1.750   0.994   6.899
  131OSM    C5F14129   1.661   0.798   6.899
  131OSM    H5F14130   1.703   0.782   7.001
  131OSM    H5G14131   1.738   0.764   6.826
  131OSM    C6F14132   1.528   0.722   6.878
  131OSM    H6F14133   1.528   0.684   6.772
  131OSM    H6G14134   1.440   0.786   6.894
  131OSM    C7F14135   1.504   0.598   6.963
  131OSM    H7F14136   1.602   0.563   6.959
  131OSM    H7G14137   1.445   0.519   6.913
  131OSM    C8F14138   1.464   0.604   7.110
  131OSM    H8F14139   1.535   0.661   7.175
  131OSM    H8G14140   1.468   0.498   7.145
  131OSM    C9F14141   1.328   0.665   7.116
  131OSM    H9F14142   1.323   0.766   7.077
  131OSM   C10F14143   1.215   0.611   7.153
  131OSM   H10F14144   1.120   0.667   7.152
  131OSM   C11F14145   1.208   0.470   7.197
  131OSM   H11F14146   1.297   0.405   7.200
  131OSM   H11G14147   1.121   0.432   7.142
  131OSM   C12F14148   1.173   0.468   7.335
  131OSM   H12F14149   1.150   0.385   7.396
  131OSM   H12G14150   1.069   0.510   7.324
  131OSM   C13F14151   1.279   0.492   7.437
  131OSM   H13F14152   1.267   0.600   7.406
  131OSM   H13G14153   1.380   0.480   7.403
  131OSM   C14F14154   1.258   0.426   7.593
  131OSM   H14F14155   1.354   0.449   7.643
  131OSM   H14G14156   1.269   0.322   7.573
  131OSM   C15F14157   1.133   0.453   7.712
  131OSM   H15F14158   1.150   0.413   7.810
  131OSM   H15G14159   1.054   0.399   7.660
  131OSM   C16F14160   1.081   0.600   7.786
  131OSM   H16F14161   1.044   0.684   7.717
  131OSM   H16G14162   1.170   0.624   7.837
  131OSM   C17F14163   0.963   0.676   7.841
  131OSM   H17F14164   0.943   0.584   7.890
  131OSM   H17G14165   0.887   0.722   7.777
  131OSM   C18F14166   0.995   0.808   7.904
  131OSM   H18F14167   1.083   0.771   7.946
  131OSM   H18G14168   0.912   0.845   7.961
  131OSM   H18H14169   1.028   0.898   7.850
  132OSM      N14170   1.281   6.892   5.871
  132OSM    C1514171   1.150   6.844   5.924
  132OSM   H15A14172   1.105   6.920   5.986
  132OSM   H15B14173   1.162   6.752   5.982
  132OSM   H15C14174   1.083   6.816   5.843
  132OSM    C1414175   1.345   6.775   5.806
  132OSM   H14A14176   1.293   6.750   5.715
  132OSM   H14B14177   1.349   6.691   5.875
  132OSM   H14C14178   1.450   6.797   5.784
  132OSM    C1314179   1.262   6.999   5.769
  132OSM   H13A14180   1.191   6.967   5.693
  132OSM   H13B14181   1.359   7.013   5.723
  132OSM   H13C14182   1.233   7.094   5.811
  132OSM    C1214183   1.377   6.937   5.981
  132OSM   H12A14184   1.409   6.849   6.036
  132OSM   H12B14185   1.324   7.004   6.048
  132OSM    C1114186   1.515   7.001   5.942
  132OSM   H11A14187   1.573   7.031   6.033
  132OSM   H11B14188   1.486   7.095   5.891
  132OSM      P14189   1.716   6.821   5.904
  132OSM    O1314190   1.712   6.695   5.824
  132OSM    O1414191   1.844   6.885   5.936
  132OSM    O1114192   1.659   6.803   6.042
  132OSM    O1214193   1.595   6.916   5.858
  132OSM    C1S14194   1.604   6.684   6.068
  132OSM    H1S14195   1.644   6.601   6.007
  132OSM    H1T14196   1.509   6.668   6.011
  132OSM     NF14197   1.486   6.756   6.257
  132OSM    HNF14198   1.493   6.781   6.351
  132OSM    C2S14199   1.622   6.673   6.222
  132OSM    H2S14200   1.635   6.577   6.281
  132OSM    C3S14201   1.743   6.696   6.308
  132OSM    H3S14202   1.797   6.766   6.251
  132OSM     O314203   1.826   6.571   6.325
  132OSM    HO314204   1.763   6.496   6.304
  132OSM    C4S14205   1.701   6.720   6.451
  132OSM    H4S14206   1.647   6.639   6.508
  132OSM    C5S14207   1.709   6.841   6.502
  132OSM    H5S14208   1.722   6.924   6.431
  132OSM    C6S14209   1.677   6.882   6.641
  132OSM    H6S14210   1.615   6.972   6.643
  132OSM    H6T14211   1.774   6.916   6.685
  132OSM    C7S14212   1.616   6.775   6.732
  132OSM    H7S14213   1.664   6.675   6.721
  132OSM    H7T14214   1.511   6.765   6.699
  132OSM    C8S14215   1.613   6.818   6.877
  132OSM    H8S14216   1.545   6.756   6.939
  132OSM    H8T14217   1.578   6.923   6.877
  132OSM    C9S14218   1.749   6.805   6.937
  132OSM    H9S14219   1.828   6.855   6.873
  132OSM    H9T14220   1.777   6.708   6.978
  132OSM   C10S14221   1.752   6.871   7.063
  132OSM   H10S14222   1.782   6.967   7.003
  132OSM   H10T14223   1.833   6.860   7.124
  132OSM   C11S14224   1.646   6.848   7.182
  132OSM   H11S14225   1.620   6.743   7.180
  132OSM   H11T14226   1.555   6.898   7.146
  132OSM   C12S14227   1.666   6.907   7.335
  132OSM   H12S14228   1.567   6.919   7.382
  132OSM   H12T14229   1.690   7.016   7.360
  132OSM   C13S14230   1.787   6.856   7.403
  132OSM   H13S14231   1.878   6.876   7.344
  132OSM   H13T14232   1.768   6.750   7.402
  132OSM   C14S14233   1.806   6.916   7.540
  132OSM   H14S14234   1.829   7.024   7.529
  132OSM   H14T14235   1.893   6.864   7.584
  132OSM   C15S14236   1.686   6.889   7.631
  132OSM   H15S14237   1.676   6.779   7.646
  132OSM   H15T14238   1.591   6.927   7.590
  132OSM   C16S14239   1.709   6.943   7.769
  132OSM   H16S14240   1.816   6.922   7.798
  132OSM   H16T14241   1.643   6.899   7.847
  132OSM   C17S14242   1.690   7.088   7.774
  132OSM   H17S14243   1.585   7.125   7.791
  132OSM   H17T14244   1.727   7.142   7.683
  132OSM   C18S14245   1.785   7.111   7.891
  132OSM   H18S14246   1.883   7.162   7.878
  132OSM   H18T14247   1.732   7.123   7.988
  132OSM   H18U14248   1.767   7.201   7.855
  132OSM    C1F14249   1.340   6.729   6.235
  132OSM     OF14250   1.271   6.635   6.192
  132OSM    C2F14251   1.249   6.835   6.269
  132OSM    H2F14252   1.159   6.827   6.202
  132OSM    H2G14253   1.306   6.924   6.244
  132OSM    C3F14254   1.212   6.831   6.418
  132OSM    H3F14255   1.282   6.783   6.487
  132OSM    H3G14256   1.123   6.773   6.435
  132OSM    C4F14257   1.196   6.968   6.473
  132OSM    H4F14258   1.118   6.973   6.552
  132OSM    H4G14259   1.174   7.029   6.384
  132OSM    C5F14260   1.329   7.013   6.522
  132OSM    H5F14261   1.394   7.010   6.434
  132OSM    H5G14262   1.363   6.946   6.603
  132OSM    C6F14263   1.336   7.148   6.574
  132OSM    H6F14264   1.335   7.233   6.511
  132OSM    H6G14265   1.430   7.185   6.554
  132OSM    C7F14266   1.253   7.166   6.698
  132OSM    H7F14267   1.145   7.160   6.701
  132OSM    H7G14268   1.277   7.265   6.732
  132OSM    C8F14269   1.309   7.095   6.806
  132OSM    H8F14270   1.417   7.090   6.766
  132OSM    H8G14271   1.340   6.994   6.811
  132OSM    C9F14272   1.264   7.177   6.929
  132OSM    H9F14273   1.298   7.286   6.949
  132OSM   C10F14274   1.248   7.110   7.032
  132OSM   H10F14275   1.257   7.175   7.122
  132OSM   C11F14276   1.264   6.959   7.039
  132OSM   H11F14277   1.348   6.913   6.986
  132OSM   H11G14278   1.166   6.926   6.999
  132OSM   C12F14279   1.269   6.883   7.169
  132OSM   H12F14280   1.158   6.889   7.197
  132OSM   H12G14281   1.348   6.923   7.237
  132OSM   C13F14282   1.262   6.740   7.201
  132OSM   H13F14283   1.347   6.709   7.140
  132OSM   H13G14284   1.162   6.707   7.167
  132OSM   C14F14285   1.284   6.693   7.347
  132OSM   H14F14286   1.381   6.722   7.399
  132OSM   H14G14287   1.273   6.584   7.348
  132OSM   C15F14288   1.184   6.698   7.443
  132OSM   H15F14289   1.079   6.711   7.408
  132OSM   H15G14290   1.225   6.802   7.430
  132OSM   C16F14291   1.209   6.629   7.588
  132OSM   H16F14292   1.191   6.524   7.585
  132OSM   H16G14293   1.103   6.657   7.634
  132OSM   C17F14294   1.355   6.653   7.685
  132OSM   H17F14295   1.403   6.760   7.719
  132OSM   H17G14296   1.441   6.691   7.639
  132OSM   C18F14297   1.336   6.606   7.840
  132OSM   H18F14298   1.232   6.567   7.858
  132OSM   H18G14299   1.377   6.649   7.932
  132OSM   H18H14300   1.373   6.554   7.767
  133SAPE     N14301   2.711   3.852  10.194
  133SAPE   HN114302   2.661   3.851  10.102
  133SAPE   HN214303   2.643   3.858  10.274
  133SAPE   HN314304   2.775   3.933  10.198
  133SAPE   C1214305   2.786   3.723  10.203
  133SAPE  H12A14306   2.718   3.652  10.242
  133SAPE  H12B14307   2.864   3.735  10.274
  133SAPE   C1114308   2.847   3.658  10.082
  133SAPE  H11A14309   2.873   3.555  10.115
  133SAPE  H11B14310   2.944   3.704  10.055
  133SAPE     P14311   2.720   3.525   9.899
  133SAPE   O1314312   2.840   3.473   9.832
  133SAPE   O1414313   2.648   3.444   9.999
  133SAPE   O1214314   2.751   3.662   9.976
  133SAPE   O1114315   2.615   3.574   9.791
  133SAPE    C114316   2.485   3.611   9.837
  133SAPE    HA14317   2.417   3.524   9.821
  133SAPE    HB14318   2.485   3.642   9.944
  133SAPE    C214319   2.421   3.733   9.767
  133SAPE    HS14320   2.311   3.730   9.790
  133SAPE   O2114321   2.449   3.736   9.626
  133SAPE   C2114322   2.377   3.648   9.562
  133SAPE   O2214323   2.275   3.595   9.606
  133SAPE   C2214324   2.437   3.616   9.428
  133SAPE   H2R14325   2.542   3.586   9.438
  133SAPE   H2S14326   2.381   3.529   9.386
  133SAPE    C314327   2.467   3.866   9.832
  133SAPE    HX14328   2.416   3.871   9.930
  133SAPE    HY14329   2.426   3.947   9.768
  133SAPE   O3114330   2.610   3.873   9.855
  133SAPE   C3114331   2.674   3.936   9.757
  133SAPE   O3214332   2.624   4.004   9.671
  133SAPE   C3214333   2.824   3.918   9.771
  133SAPE   H2X14334   2.857   3.876   9.867
  133SAPE   H2Y14335   2.868   4.019   9.759
  133SAPE   C2314336   2.424   3.731   9.325
  133SAPE   H3R14337   2.316   3.746   9.314
  133SAPE   H3S14338   2.448   3.675   9.233
  133SAPE   C2414339   2.507   3.865   9.346
  133SAPE   H4R14340   2.456   3.920   9.425
  133SAPE   H4S14341   2.492   3.940   9.267
  133SAPE   C2514342   2.650   3.856   9.386
  133SAPE   H5R14343   2.658   3.803   9.483
  133SAPE   C2614344   2.754   3.902   9.314
  133SAPE   H6R14345   2.850   3.858   9.340
  133SAPE   C2714346   2.750   3.971   9.178
  133SAPE   H7R14347   2.698   3.918   9.093
  133SAPE   H7S14348   2.856   3.977   9.146
  133SAPE   C2814349   2.697   4.111   9.201
  133SAPE   H8R14350   2.708   4.143   9.306
  133SAPE   C2914351   2.641   4.195   9.112
  133SAPE   H9R14352   2.602   4.292   9.149
  133SAPE  C21014353   2.622   4.162   8.966
  133SAPE  H10R14354   2.580   4.059   8.951
  133SAPE  H10S14355   2.720   4.162   8.915
  133SAPE  C21114356   2.551   4.267   8.887
  133SAPE  H11R14357   2.478   4.327   8.939
  133SAPE  C21214358   2.535   4.272   8.756
  133SAPE  H12R14359   2.447   4.334   8.727
  133SAPE  C21314360   2.581   4.172   8.654
  133SAPE  H13R14361   2.681   4.147   8.690
  133SAPE  H13S14362   2.585   4.230   8.560
  133SAPE  C21414363   2.519   4.033   8.633
  133SAPE  H14R14364   2.481   3.987   8.725
  133SAPE  C21514365   2.496   3.964   8.519
  133SAPE  H15R14366   2.432   3.873   8.525
  133SAPE  C21614367   2.525   4.006   8.378
  133SAPE  H16R14368   2.604   3.950   8.325
  133SAPE  H16S14369   2.551   4.115   8.371
  133SAPE  C21714370   2.401   3.979   8.297
  133SAPE  H17R14371   2.330   4.031   8.368
  133SAPE  H17S14372   2.329   3.900   8.313
  133SAPE  C21814373   2.423   4.019   8.143
  133SAPE  H18R14374   2.324   4.012   8.096
  133SAPE  H18S14375   2.472   3.931   8.099
  133SAPE  C21914376   2.513   4.156   8.103
  133SAPE  H19R14377   2.506   4.144   7.999
  133SAPE  H19S14378   2.592   4.169   8.173
  133SAPE  C22014379   2.499   4.319   8.064
  133SAPE  H20R14380   2.491   4.418   8.108
  133SAPE  H20S14381   2.443   4.380   8.139
  133SAPE  H20T14382   2.436   4.319   7.977
  133SAPE   C3314383   2.862   3.815   9.666
  133SAPE   H3X14384   2.864   3.866   9.568
  133SAPE   H3Y14385   2.782   3.735   9.663
  133SAPE   C3414386   2.999   3.751   9.697
  133SAPE   H4X14387   2.997   3.682   9.785
  133SAPE   H4Y14388   3.076   3.825   9.717
  133SAPE   C3514389   3.057   3.681   9.579
  133SAPE   H5X14390   3.151   3.631   9.616
  133SAPE   H5Y14391   3.095   3.748   9.500
  133SAPE   C3614392   2.943   3.601   9.521
  133SAPE   H6X14393   2.846   3.640   9.503
  133SAPE   H6Y14394   2.922   3.515   9.590
  133SAPE   C3714395   2.952   3.576   9.376
  133SAPE   H7X14396   3.022   3.509   9.366
  133SAPE   H7Y14397   3.020   3.640   9.316
  133SAPE   C3814398   2.859   3.462   9.337
  133SAPE   H8X14399   2.880   3.352   9.352
  133SAPE   H8Y14400   2.910   3.421   9.266
  133SAPE   C3914401   2.780   3.516   9.223
  133SAPE   H9X14402   2.832   3.605   9.176
  133SAPE   H9Y14403   2.711   3.543   9.300
  133SAPE  C31014404   2.736   3.416   9.117
  133SAPE  H10X14405   2.747   3.308   9.139
  133SAPE  H10Y14406   2.797   3.437   9.029
  133SAPE  C31114407   2.618   3.466   9.045
  133SAPE  H11X14408   2.641   3.567   9.001
  133SAPE  H11Y14409   2.549   3.473   9.130
  133SAPE  C31214410   2.550   3.373   8.946
  133SAPE  H12X14411   2.466   3.436   8.912
  133SAPE  H12Y14412   2.520   3.279   8.993
  133SAPE  C31314413   2.611   3.332   8.818
  133SAPE  H13X14414   2.572   3.245   8.764
  133SAPE  H13Y14415   2.698   3.272   8.853
  133SAPE  C31414416   2.601   3.449   8.713
  133SAPE  H14X14417   2.681   3.470   8.648
  133SAPE  H14Y14418   2.615   3.552   8.748
  133SAPE  C31514419   2.540   3.412   8.580
  133SAPE  H15X14420   2.437   3.402   8.613
  133SAPE  H15Y14421   2.579   3.313   8.541
  133SAPE  C31614422   2.561   3.525   8.476
  133SAPE  H16X14423   2.667   3.539   8.444
  133SAPE  H16Y14424   2.532   3.622   8.522
  133SAPE  C31714425   2.473   3.500   8.357
  133SAPE  H17X14426   2.372   3.498   8.398
  133SAPE  H17Y14427   2.491   3.402   8.308
  133SAPE  C31814428   2.473   3.605   8.249
  133SAPE  H18X14429   2.463   3.707   8.291
  133SAPE  H18Y14430   2.388   3.578   8.181
  133SAPE  H18Z14431   2.566   3.597   8.191
  134SAPE     N14432   5.373   3.042  10.249
  134SAPE   HN114433   5.348   2.974  10.176
  134SAPE   HN214434   5.337   3.012  10.343
  134SAPE   HN314435   5.330   3.132  10.218
  134SAPE   C1214436   5.524   3.044  10.245
  134SAPE  H12A14437   5.561   2.945  10.280
  134SAPE  H12B14438   5.557   3.124  10.314
  134SAPE   C1114439   5.581   3.063  10.104
  134SAPE  H11A14440   5.582   2.965  10.050
  134SAPE  H11B14441   5.690   3.088  10.114
  134SAPE     P14442   5.517   3.155   9.871
  134SAPE   O1314443   5.649   3.098   9.835
  134SAPE   O1414444   5.395   3.081   9.833
  134SAPE   O1214445   5.510   3.165  10.033
  134SAPE   O1114446   5.509   3.307   9.832
  134SAPE    C114447   5.407   3.385   9.895
  134SAPE    HA14448   5.325   3.323   9.939
  134SAPE    HB14449   5.450   3.449   9.975
  134SAPE    C214450   5.337   3.478   9.798
  134SAPE    HS14451   5.245   3.518   9.848
  134SAPE   O2114452   5.305   3.399   9.687
  134SAPE   C2114453   5.202   3.421   9.628
  134SAPE   O2214454   5.109   3.497   9.656
  134SAPE   C2214455   5.234   3.330   9.509
  134SAPE   H2R14456   5.260   3.227   9.524
  134SAPE   H2S14457   5.137   3.280   9.510
  134SAPE    C314458   5.428   3.594   9.753
  134SAPE    HX14459   5.480   3.643   9.838
  134SAPE    HY14460   5.354   3.665   9.727
  134SAPE   O3114461   5.511   3.572   9.637
  134SAPE   C3114462   5.641   3.569   9.663
  134SAPE   O3214463   5.694   3.599   9.768
  134SAPE   C3214464   5.719   3.522   9.540
  134SAPE   H2X14465   5.828   3.523   9.561
  134SAPE   H2Y14466   5.697   3.586   9.452
  134SAPE   C2314467   5.303   3.403   9.377
  134SAPE   H3R14468   5.317   3.331   9.296
  134SAPE   H3S14469   5.399   3.416   9.424
  134SAPE   C2414470   5.260   3.537   9.292
  134SAPE   H4R14471   5.334   3.564   9.216
  134SAPE   H4S14472   5.272   3.616   9.365
  134SAPE   C2514473   5.126   3.547   9.217
  134SAPE   H5R14474   5.032   3.579   9.267
  134SAPE   C2614475   5.087   3.501   9.110
  134SAPE   H6R14476   4.979   3.472   9.119
  134SAPE   C2714477   5.180   3.426   9.028
  134SAPE   H7R14478   5.137   3.330   8.992
  134SAPE   H7S14479   5.276   3.427   9.070
  134SAPE   C2814480   5.202   3.511   8.920
  134SAPE   H8R14481   5.122   3.475   8.877
  134SAPE   C2914482   5.275   3.596   8.857
  134SAPE   H9R14483   5.237   3.651   8.773
  134SAPE  C21014484   5.399   3.630   8.913
  134SAPE  H10R14485   5.452   3.540   8.879
  134SAPE  H10S14486   5.391   3.633   9.022
  134SAPE  C21114487   5.450   3.758   8.860
  134SAPE  H11R14488   5.437   3.843   8.927
  134SAPE  C21214489   5.542   3.768   8.766
  134SAPE  H12R14490   5.602   3.859   8.768
  134SAPE  C21314491   5.605   3.649   8.702
  134SAPE  H13R14492   5.568   3.546   8.721
  134SAPE  H13S14493   5.697   3.654   8.749
  134SAPE  C21414494   5.652   3.677   8.568
  134SAPE  H14R14495   5.744   3.736   8.571
  134SAPE  C21514496   5.595   3.647   8.453
  134SAPE  H15R14497   5.637   3.684   8.358
  134SAPE  C21614498   5.468   3.577   8.439
  134SAPE  H16R14499   5.483   3.475   8.476
  134SAPE  H16S14500   5.433   3.562   8.338
  134SAPE  C21714501   5.354   3.645   8.506
  134SAPE  H17R14502   5.332   3.748   8.465
  134SAPE  H17S14503   5.366   3.648   8.614
  134SAPE  C21814504   5.235   3.550   8.485
  134SAPE  H18R14505   5.162   3.593   8.558
  134SAPE  H18S14506   5.251   3.444   8.503
  134SAPE  C21914507   5.195   3.533   8.335
  134SAPE  H19R14508   5.247   3.543   8.241
  134SAPE  H19S14509   5.225   3.634   8.350
  134SAPE  C22014510   5.059   3.487   8.273
  134SAPE  H20R14511   4.970   3.550   8.323
  134SAPE  H20S14512   5.069   3.383   8.306
  134SAPE  H20T14513   4.961   3.522   8.235
  134SAPE   C3314514   5.677   3.379   9.507
  134SAPE   H3X14515   5.571   3.386   9.482
  134SAPE   H3Y14516   5.691   3.314   9.597
  134SAPE   C3414517   5.750   3.324   9.386
  134SAPE   H4X14518   5.857   3.328   9.405
  134SAPE   H4Y14519   5.730   3.388   9.298
  134SAPE   C3514520   5.721   3.177   9.358
  134SAPE   H5X14521   5.618   3.148   9.388
  134SAPE   H5Y14522   5.791   3.117   9.422
  134SAPE   C3614523   5.737   3.145   9.208
  134SAPE   H6X14524   5.838   3.169   9.168
  134SAPE   H6Y14525   5.666   3.207   9.151
  134SAPE   C3714526   5.716   2.996   9.182
  134SAPE   H7X14527   5.614   2.960   9.207
  134SAPE   H7Y14528   5.783   2.950   9.259
  134SAPE   C3814529   5.754   2.954   9.039
  134SAPE   H8X14530   5.756   2.843   9.041
  134SAPE   H8Y14531   5.856   2.992   9.013
  134SAPE   C3914532   5.650   2.989   8.931
  134SAPE   H9X14533   5.639   3.099   8.919
  134SAPE   H9Y14534   5.552   2.946   8.963
  134SAPE  C31014535   5.674   2.928   8.793
  134SAPE  H10X14536   5.695   2.819   8.801
  134SAPE  H10Y14537   5.763   2.976   8.747
  134SAPE  C31114538   5.549   2.948   8.705
  134SAPE  H11X14539   5.456   2.911   8.756
  134SAPE  H11Y14540   5.563   2.891   8.611
  134SAPE  C31214541   5.528   3.095   8.667
  134SAPE  H12X14542   5.617   3.132   8.612
  134SAPE  H12Y14543   5.506   3.157   8.757
  134SAPE  C31314544   5.406   3.120   8.581
  134SAPE  H13X14545   5.395   3.229   8.569
  134SAPE  H13Y14546   5.317   3.086   8.638
  134SAPE  C31414547   5.414   3.055   8.443
  134SAPE  H14X14548   5.435   2.946   8.451
  134SAPE  H14Y14549   5.498   3.100   8.384
  134SAPE  C31514550   5.283   3.076   8.370
  134SAPE  H15X14551   5.261   3.184   8.355
  134SAPE  H15Y14552   5.203   3.036   8.435
  134SAPE  C31614553   5.285   3.008   8.234
  134SAPE  H16X14554   5.184   3.010   8.186
  134SAPE  H16Y14555   5.311   2.901   8.250
  134SAPE  C31714556   5.384   3.074   8.139
  134SAPE  H17X14557   5.362   3.026   8.046
  134SAPE  H17Y14558   5.489   3.052   8.167
  134SAPE  C31814559   5.358   3.219   8.108
  134SAPE  H18X14560   5.399   3.282   8.190
  134SAPE  H18Y14561   5.249   3.234   8.106
  134SAPE  H18Z14562   5.398   3.249   8.008
  135SAPE     N14563   4.953   2.345   9.946
  135SAPE   HN114564   4.908   2.307  10.032
  135SAPE   HN214565   4.877   2.351   9.876
  135SAPE   HN314566   5.028   2.280   9.917
  135SAPE   C1214567   4.995   2.488   9.972
  135SAPE  H12A14568   4.942   2.527  10.062
  135SAPE  H12B14569   4.958   2.545   9.884
  135SAPE   C1114570   5.148   2.504   9.971
  135SAPE  H11A14571   5.172   2.612   9.988
  135SAPE  H11B14572   5.180   2.476   9.869
  135SAPE     P14573   5.301   2.295  10.028
  135SAPE   O1314574   5.396   2.267  10.138
  135SAPE   O1414575   5.206   2.188   9.988
  135SAPE   O1214576   5.216   2.424  10.066
  135SAPE   O1114577   5.381   2.335   9.895
  135SAPE    C114578   5.372   2.269   9.767
  135SAPE    HA14579   5.426   2.172   9.766
  135SAPE    HB14580   5.266   2.249   9.741
  135SAPE    C214581   5.431   2.354   9.650
  135SAPE    HS14582   5.537   2.382   9.673
  135SAPE   O2114583   5.350   2.472   9.644
  135SAPE   C2114584   5.391   2.573   9.570
  135SAPE   O2214585   5.488   2.577   9.497
  135SAPE   C2214586   5.297   2.690   9.591
  135SAPE   H2R14587   5.294   2.711   9.700
  135SAPE   H2S14588   5.347   2.773   9.538
  135SAPE    C314589   5.427   2.273   9.515
  135SAPE    HX14590   5.325   2.289   9.473
  135SAPE    HY14591   5.442   2.164   9.535
  135SAPE   O3114592   5.525   2.318   9.421
  135SAPE   C3114593   5.520   2.261   9.301
  135SAPE   O3214594   5.443   2.175   9.265
  135SAPE   C3214595   5.640   2.310   9.222
  135SAPE   H2X14596   5.659   2.239   9.140
  135SAPE   H2Y14597   5.726   2.307   9.292
  135SAPE   C2314598   5.153   2.662   9.540
  135SAPE   H3R14599   5.083   2.714   9.609
  135SAPE   H3S14600   5.130   2.554   9.544
  135SAPE   C2414601   5.123   2.717   9.398
  135SAPE   H4R14602   5.130   2.827   9.403
  135SAPE   H4S14603   5.016   2.695   9.377
  135SAPE   C2514604   5.217   2.666   9.291
  135SAPE   H5R14605   5.305   2.730   9.270
  135SAPE   C2614606   5.210   2.549   9.224
  135SAPE   H6R14607   5.288   2.529   9.149
  135SAPE   C2714608   5.108   2.438   9.237
  135SAPE   H7R14609   5.043   2.460   9.325
  135SAPE   H7S14610   5.156   2.340   9.261
  135SAPE   C2814611   5.025   2.431   9.111
  135SAPE   H8R14612   4.917   2.442   9.131
  135SAPE   C2914613   5.064   2.404   8.985
  135SAPE   H9R14614   4.993   2.435   8.906
  135SAPE  C21014615   5.202   2.373   8.930
  135SAPE  H10R14616   5.275   2.338   9.007
  135SAPE  H10S14617   5.244   2.468   8.894
  135SAPE  C21114618   5.208   2.276   8.814
  135SAPE  H11R14619   5.267   2.185   8.834
  135SAPE  C21214620   5.158   2.295   8.691
  135SAPE  H12R14621   5.179   2.220   8.612
  135SAPE  C21314622   5.084   2.418   8.645
  135SAPE  H13R14623   5.154   2.483   8.588
  135SAPE  H13S14624   5.046   2.482   8.728
  135SAPE  C21414625   4.965   2.370   8.564
  135SAPE  H14R14626   4.903   2.292   8.613
  135SAPE  C21514627   4.932   2.412   8.441
  135SAPE  H15R14628   4.842   2.374   8.391
  135SAPE  C21614629   5.004   2.515   8.361
  135SAPE  H16R14630   5.038   2.595   8.431
  135SAPE  H16S14631   4.932   2.565   8.293
  135SAPE  C21714632   5.123   2.462   8.280
  135SAPE  H17R14633   5.095   2.388   8.200
  135SAPE  H17S14634   5.194   2.408   8.346
  135SAPE  C21814635   5.193   2.585   8.223
  135SAPE  H18R14636   5.259   2.626   8.299
  135SAPE  H18S14637   5.116   2.654   8.181
  135SAPE  C21914638   5.289   2.557   8.116
  135SAPE  H19R14639   5.220   2.490   8.083
  135SAPE  H19S14640   5.377   2.491   8.131
  135SAPE  C22014641   5.292   2.652   8.005
  135SAPE  H20R14642   5.387   2.621   7.952
  135SAPE  H20S14643   5.290   2.754   8.048
  135SAPE  H20T14644   5.221   2.707   7.945
  135SAPE   C3314645   5.617   2.447   9.161
  135SAPE   H3X14646   5.610   2.519   9.246
  135SAPE   H3Y14647   5.520   2.446   9.107
  135SAPE   C3414648   5.731   2.488   9.070
  135SAPE   H4X14649   5.815   2.490   9.140
  135SAPE   H4Y14650   5.712   2.590   9.030
  135SAPE   C3514651   5.776   2.393   8.958
  135SAPE   H5X14652   5.805   2.295   9.003
  135SAPE   H5Y14653   5.866   2.431   8.903
  135SAPE   C3614654   5.664   2.369   8.858
  135SAPE   H6X14655   5.630   2.467   8.819
  135SAPE   H6Y14656   5.582   2.319   8.914
  135SAPE   C3714657   5.716   2.287   8.741
  135SAPE   H7X14658   5.773   2.202   8.782
  135SAPE   H7Y14659   5.788   2.351   8.685
  135SAPE   C3814660   5.615   2.233   8.638
  135SAPE   H8X14661   5.531   2.177   8.684
  135SAPE   H8Y14662   5.675   2.157   8.584
  135SAPE   C3914663   5.566   2.341   8.540
  135SAPE   H9X14664   5.655   2.385   8.488
  135SAPE   H9Y14665   5.514   2.421   8.596
  135SAPE  C31014666   5.475   2.287   8.433
  135SAPE  H10X14667   5.438   2.366   8.363
  135SAPE  H10Y14668   5.384   2.236   8.472
  135SAPE  C31114669   5.559   2.186   8.352
  135SAPE  H11X14670   5.581   2.091   8.405
  135SAPE  H11Y14671   5.630   2.235   8.285
  135SAPE  C31214672   5.477   2.145   8.241
  135SAPE  H12X14673   5.449   2.242   8.203
  135SAPE  H12Y14674   5.390   2.131   8.312
  135SAPE  C31314675   5.513   2.039   8.121
  135SAPE  H13X14676   5.435   1.980   8.037
  135SAPE  H13Y14677   5.557   1.973   8.195
  135SAPE  C31414678   5.621   2.062   8.040
  135SAPE  H14X14679   5.636   1.992   7.961
  135SAPE  H14Y14680   5.709   2.089   8.099
  135SAPE  C31514681   5.597   2.174   7.973
  135SAPE  H15X14682   5.595   2.239   8.061
  135SAPE  H15Y14683   5.519   2.243   7.960
  135SAPE  C31614684   5.667   2.169   7.848
  135SAPE  H16X14685   5.606   2.131   7.766
  135SAPE  H16Y14686   5.772   2.163   7.851
  135SAPE  C31714687   5.668   2.269   7.776
  135SAPE  H17X14688   5.569   2.297   7.711
  135SAPE  H17Y14689   5.639   2.252   7.659
  135SAPE  C31814690   5.826   2.475   7.836
  135SAPE  H18X14691   5.777   2.550   7.877
  135SAPE  H18Y14692   5.790   2.555   7.749
  135SAPE  H18Z14693   5.850   2.383   7.857
  136SAPE     N14694   1.718   3.025   9.778
  136SAPE   HN114695   1.615   3.017   9.777
  136SAPE   HN214696   1.749   3.121   9.804
  136SAPE   HN314697   1.758   3.002   9.683
  136SAPE   C1214698   1.770   2.923   9.876
  136SAPE  H12A14699   1.872   2.957   9.904
  136SAPE  H12B14700   1.775   2.830   9.816
  136SAPE   C1114701   1.683   2.903  10.005
  136SAPE  H11A14702   1.573   2.902   9.987
  136SAPE  H11B14703   1.706   2.992  10.068
  136SAPE     P14704   1.659   2.647  10.080
  136SAPE   O1314705   1.745   2.542  10.142
  136SAPE   O1414706   1.516   2.651  10.117
  136SAPE   O1214707   1.726   2.790  10.081
  136SAPE   O1114708   1.660   2.620   9.924
  136SAPE    C114709   1.585   2.511   9.871
  136SAPE    HA14710   1.649   2.419   9.869
  136SAPE    HB14711   1.492   2.488   9.928
  136SAPE    C214712   1.550   2.538   9.723
  136SAPE    HS14713   1.644   2.560   9.670
  136SAPE   O2114714   1.449   2.640   9.710
  136SAPE   C2114715   1.475   2.740   9.626
  136SAPE   O2214716   1.580   2.762   9.569
  136SAPE   C2214717   1.353   2.831   9.628
  136SAPE   H2R14718   1.258   2.773   9.627
  136SAPE   H2S14719   1.353   2.890   9.721
  136SAPE    C314720   1.502   2.406   9.660
  136SAPE    HX14721   1.404   2.385   9.698
  136SAPE    HY14722   1.566   2.322   9.694
  136SAPE   O3114723   1.484   2.413   9.519
  136SAPE   C3114724   1.595   2.397   9.448
  136SAPE   O3214725   1.706   2.375   9.494
  136SAPE   C3214726   1.559   2.399   9.300
  136SAPE   H2X14727   1.497   2.490   9.282
  136SAPE   H2Y14728   1.499   2.308   9.280
  136SAPE   C2314729   1.358   2.936   9.520
  136SAPE   H3R14730   1.453   2.977   9.484
  136SAPE   H3S14731   1.290   3.020   9.551
  136SAPE   C2414732   1.308   2.880   9.396
  136SAPE   H4R14733   1.288   2.977   9.338
  136SAPE   H4S14734   1.220   2.821   9.430
  136SAPE   C2514735   1.346   2.768   9.311
  136SAPE   H5R14736   1.312   2.672   9.352
  136SAPE   C2614737   1.389   2.780   9.187
  136SAPE   H6R14738   1.421   2.690   9.135
  136SAPE   C2714739   1.411   2.903   9.107
  136SAPE   H7R14740   1.314   2.920   9.077
  136SAPE   H7S14741   1.444   2.873   9.007
  136SAPE   C2814742   1.479   3.033   9.145
  136SAPE   H8R14743   1.412   3.121   9.148
  136SAPE   C2914744   1.609   3.050   9.176
  136SAPE   H9R14745   1.645   3.154   9.186
  136SAPE  C21014746   1.718   2.945   9.180
  136SAPE  H10R14747   1.680   2.843   9.167
  136SAPE  H10S14748   1.771   2.948   9.276
  136SAPE  C21114749   1.819   2.974   9.078
  136SAPE  H11R14750   1.881   3.059   9.099
  136SAPE  C21214751   1.838   2.920   8.961
  136SAPE  H12R14752   1.909   2.975   8.895
  136SAPE  C21314753   1.756   2.808   8.901
  136SAPE  H13R14754   1.698   2.758   8.980
  136SAPE  H13S14755   1.805   2.709   8.887
  136SAPE  C21414756   1.703   2.847   8.764
  136SAPE  H14R14757   1.602   2.881   8.777
  136SAPE  C21514758   1.748   2.851   8.635
  136SAPE  H15R14759   1.693   2.900   8.557
  136SAPE  C21614760   1.873   2.817   8.568
  136SAPE  H16R14761   1.934   2.850   8.642
  136SAPE  H16S14762   1.926   2.886   8.500
  136SAPE  C21714763   1.857   2.672   8.531
  136SAPE  H17R14764   1.832   2.598   8.608
  136SAPE  H17S14765   1.944   2.618   8.506
  136SAPE  C21814766   1.804   2.650   8.399
  136SAPE  H18R14767   1.833   2.743   8.344
  136SAPE  H18S14768   1.702   2.648   8.437
  136SAPE  C21914769   1.849   2.521   8.331
  136SAPE  H19R14770   1.824   2.436   8.397
  136SAPE  H19S14771   1.956   2.499   8.323
  136SAPE  C22014772   1.786   2.527   8.193
  136SAPE  H20R14773   1.818   2.616   8.134
  136SAPE  H20S14774   1.679   2.537   8.220
  136SAPE  H20T14775   1.800   2.440   8.127
  136SAPE   C3314776   1.690   2.403   9.217
  136SAPE   H3X14777   1.767   2.331   9.255
  136SAPE   H3Y14778   1.730   2.505   9.230
  136SAPE   C3414779   1.684   2.375   9.065
  136SAPE   H4X14780   1.660   2.268   9.049
  136SAPE   H4Y14781   1.789   2.394   9.030
  136SAPE   C3514782   1.588   2.461   8.983
  136SAPE   H5X14783   1.601   2.567   9.012
  136SAPE   H5Y14784   1.484   2.436   9.014
  136SAPE   C3614785   1.594   2.450   8.828
  136SAPE   H6X14786   1.595   2.347   8.785
  136SAPE   H6Y14787   1.687   2.498   8.790
  136SAPE   C3714788   1.470   2.520   8.769
  136SAPE   H7X14789   1.448   2.611   8.829
  136SAPE   H7Y14790   1.383   2.452   8.778
  136SAPE   C3814791   1.490   2.549   8.621
  136SAPE   H8X14792   1.516   2.455   8.568
  136SAPE   H8Y14793   1.574   2.619   8.608
  136SAPE   C3914794   1.372   2.602   8.547
  136SAPE   H9X14795   1.332   2.690   8.602
  136SAPE   H9Y14796   1.286   2.528   8.547
  136SAPE  C31014797   1.412   2.645   8.401
  136SAPE  H10X14798   1.496   2.711   8.388
  136SAPE  H10Y14799   1.372   2.737   8.353
  136SAPE  C31114800   1.357   2.553   8.300
  136SAPE  H11X14801   1.255   2.511   8.321
  136SAPE  H11Y14802   1.433   2.473   8.296
  136SAPE  C31214803   1.350   2.621   8.171
  136SAPE  H12X14804   1.443   2.679   8.150
  136SAPE  H12Y14805   1.257   2.685   8.150
  136SAPE  C31314806   1.354   2.500   8.089
  136SAPE  H13X14807   1.332   2.586   8.020
  136SAPE  H13Y14808   1.269   2.435   8.071
  136SAPE  C31414809   1.485   2.427   8.043
  136SAPE  H14X14810   1.507   2.333   8.098
  136SAPE  H14Y14811   1.567   2.503   8.040
  136SAPE  C31514812   1.499   2.362   7.902
  136SAPE  H15X14813   1.610   2.367   7.898
  136SAPE  H15Y14814   1.523   2.421   7.815
  136SAPE  C31614815   1.388   2.262   7.820
  136SAPE  H16X14816   1.402   2.271   7.713
  136SAPE  H16Y14817   1.278   2.286   7.799
  136SAPE  C31714818   1.355   2.130   7.877
  136SAPE  H17X14819   1.278   2.087   7.812
  136SAPE  H17Y14820   1.320   2.150   7.974
  136SAPE  C31814821   1.460   2.032   7.889
  136SAPE  H18X14822   1.446   1.931   7.910
  136SAPE  H18Y14823   1.540   2.076   7.957
  136SAPE  H18Z14824   1.488   2.024   7.782
  137SAPE     N14825   5.757   5.151  10.106
  137SAPE   HN114826   5.804   5.118  10.192
  137SAPE   HN214827   5.676   5.213  10.126
  137SAPE   HN314828   5.725   5.071  10.048
  137SAPE   C1214829   5.850   5.229  10.018
  137SAPE  H12A14830   5.902   5.160   9.949
  137SAPE  H12B14831   5.924   5.285  10.079
  137SAPE   C1114832   5.766   5.328   9.939
  137SAPE  H11A14833   5.702   5.274   9.864
  137SAPE  H11B14834   5.843   5.384   9.880
  137SAPE     P14835   5.546   5.470   9.986
  137SAPE   O1314836   5.469   5.507  10.107
  137SAPE   O1414837   5.563   5.561   9.872
  137SAPE   O1214838   5.689   5.411  10.028
  137SAPE   O1114839   5.484   5.334   9.940
  137SAPE    C114840   5.363   5.330   9.867
  137SAPE    HA14841   5.285   5.383   9.925
  137SAPE    HB14842   5.367   5.386   9.771
  137SAPE    C214843   5.342   5.184   9.821
  137SAPE    HS14844   5.310   5.121   9.910
  137SAPE   O2114845   5.460   5.134   9.769
  137SAPE   C2114846   5.457   5.006   9.760
  137SAPE   O2214847   5.368   4.932   9.795
  137SAPE   C2214848   5.591   4.970   9.701
  137SAPE   H2R14849   5.667   5.043   9.726
  137SAPE   H2S14850   5.622   4.872   9.738
  137SAPE    C314851   5.235   5.178   9.712
  137SAPE    HX14852   5.179   5.246   9.768
  137SAPE    HY14853   5.182   5.080   9.697
  137SAPE   O3114854   5.241   5.257   9.596
  137SAPE   C3114855   5.161   5.361   9.564
  137SAPE   O3214856   5.090   5.427   9.635
  137SAPE   C3214857   5.190   5.387   9.425
  137SAPE   H2X14858   5.247   5.302   9.393
  137SAPE   H2Y14859   5.249   5.479   9.418
  137SAPE   C2314860   5.585   4.970   9.549
  137SAPE   H3R14861   5.489   4.969   9.535
  137SAPE   H3S14862   5.604   4.871   9.502
  137SAPE   C2414863   5.575   5.100   9.471
  137SAPE   H4R14864   5.530   5.181   9.528
  137SAPE   H4S14865   5.530   5.097   9.371
  137SAPE   C2514866   5.704   5.133   9.437
  137SAPE   H5R14867   5.758   5.070   9.374
  137SAPE   C2614868   5.760   5.236   9.426
  137SAPE   H6R14869   5.859   5.206   9.393
  137SAPE   C2714870   5.701   5.367   9.447
  137SAPE   H7R14871   5.712   5.395   9.552
  137SAPE   H7S14872   5.596   5.355   9.422
  137SAPE   C2814873   5.737   5.488   9.376
  137SAPE   H8R14874   5.834   5.526   9.402
  137SAPE   C2914875   5.694   5.533   9.260
  137SAPE   H9R14876   5.754   5.615   9.215
  137SAPE  C21014877   5.596   5.468   9.167
  137SAPE  H10R14878   5.554   5.378   9.210
  137SAPE  H10S14879   5.638   5.421   9.074
  137SAPE  C21114880   5.504   5.575   9.129
  137SAPE  H11R14881   5.481   5.637   9.216
  137SAPE  C21214882   5.451   5.593   9.006
  137SAPE  H12R14883   5.377   5.672   8.997
  137SAPE  C21314884   5.471   5.512   8.880
  137SAPE  H13R14885   5.388   5.438   8.872
  137SAPE  H13S14886   5.563   5.449   8.875
  137SAPE  C21414887   5.477   5.587   8.752
  137SAPE  H14R14888   5.575   5.627   8.724
  137SAPE  C21514889   5.373   5.610   8.672
  137SAPE  H15R14890   5.404   5.642   8.574
  137SAPE  C21614891   5.228   5.569   8.687
  137SAPE  H16R14892   5.152   5.648   8.663
  137SAPE  H16S14893   5.204   5.550   8.792
  137SAPE  C21714894   5.189   5.445   8.611
  137SAPE  H17R14895   5.078   5.433   8.625
  137SAPE  H17S14896   5.250   5.356   8.633
  137SAPE  C21814897   5.195   5.453   8.467
  137SAPE  H18R14898   5.293   5.490   8.439
  137SAPE  H18S14899   5.124   5.530   8.459
  137SAPE  C21914900   5.133   5.332   8.407
  137SAPE  H19R14901   5.038   5.305   8.453
  137SAPE  H19S14902   5.205   5.250   8.414
  137SAPE  C22014903   5.083   5.354   8.278
  137SAPE  H20R14904   5.055   5.456   8.266
  137SAPE  H20S14905   5.003   5.290   8.238
  137SAPE  H20T14906   5.158   5.355   8.204
  137SAPE   C3314907   5.063   5.407   9.355
  137SAPE   H3X14908   5.035   5.495   9.404
  137SAPE   H3Y14909   4.984   5.329   9.366
  137SAPE   C3414910   5.066   5.491   9.236
  137SAPE   H4X14911   5.116   5.583   9.206
  137SAPE   H4Y14912   5.001   5.466   9.160
  137SAPE   C3514913   5.113   5.420   9.167
  137SAPE   H5X14914   5.234   5.426   9.192
  137SAPE   H5Y14915   5.195   5.451   9.079
  137SAPE   C3614916   5.002   5.180   9.110
  137SAPE   H6X14917   4.924   5.173   9.050
  137SAPE   H6Y14918   4.998   5.233   9.198
  137SAPE   C3714919   5.177   5.059   9.009
  137SAPE   H7X14920   5.235   5.111   8.936
  137SAPE   H7Y14921   5.181   4.961   9.025
  137SAPE   C3814922   5.364   5.066   9.118
  137SAPE   H8X14923   5.350   5.088   9.238
  137SAPE   H8Y14924   5.422   5.167   9.127
  137SAPE   C3914925   5.445   4.980   9.127
  137SAPE   H9X14926   5.353   4.925   9.153
  137SAPE   H9Y14927   5.505   4.971   9.215
  137SAPE  C31014928   5.495   4.989   8.989
  137SAPE  H10X14929   5.407   4.987   8.917
  137SAPE  H10Y14930   5.557   4.900   8.990
  137SAPE  C31114931   5.524   5.105   8.906
  137SAPE  H11X14932   5.613   5.141   8.955
  137SAPE  H11Y14933   5.435   5.174   8.908
  137SAPE  C31214934   5.555   5.062   8.764
  137SAPE  H12X14935   5.462   5.022   8.714
  137SAPE  H12Y14936   5.636   4.984   8.767
  137SAPE  C31314937   5.595   5.190   8.694
  137SAPE  H13X14938   5.670   5.250   8.751
  137SAPE  H13Y14939   5.499   5.245   8.688
  137SAPE  C31414940   5.649   5.182   8.555
  137SAPE  H14X14941   5.753   5.143   8.563
  137SAPE  H14Y14942   5.648   5.285   8.512
  137SAPE  C31514943   5.583   5.088   8.459
  137SAPE  H15X14944   5.473   5.097   8.451
  137SAPE  H15Y14945   5.603   4.985   8.492
  137SAPE  C31614946   5.666   5.116   8.336
  137SAPE  H16X14947   5.750   5.052   8.338
  137SAPE  H16Y14948   5.683   5.225   8.313
  137SAPE  C31714949   5.624   5.052   8.216
  137SAPE  H17X14950   5.602   5.151   8.174
  137SAPE  H17Y14951   5.539   5.006   8.255
  137SAPE  C31814952   5.693   4.950   8.125
  137SAPE  H18X14953   5.635   4.882   8.064
  137SAPE  H18Y14954   5.760   4.884   8.170
  137SAPE  H18Z14955   5.734   5.020   8.047
  138SAPE     N14956   3.035   6.577  10.215
  138SAPE   HN114957   2.971   6.606  10.292
  138SAPE   HN214958   3.001   6.624  10.129
  138SAPE   HN314959   3.026   6.475  10.201
  138SAPE   C1214960   3.182   6.610  10.239
  138SAPE  H12A14961   3.212   6.555  10.329
  138SAPE  H12B14962   3.191   6.719  10.256
  138SAPE   C1114963   3.282   6.563  10.132
  138SAPE  H11A14964   3.261   6.459  10.099
  138SAPE  H11B14965   3.384   6.564  10.178
  138SAPE     P14966   3.217   6.624   9.881
  138SAPE   O1314967   3.110   6.522   9.895
  138SAPE   O1414968   3.187   6.751   9.816
  138SAPE   O1214969   3.281   6.652  10.023
  138SAPE   O1114970   3.338   6.556   9.805
  138SAPE    C114971   3.306   6.503   9.676
  138SAPE    HA14972   3.206   6.454   9.674
  138SAPE    HB14973   3.304   6.582   9.598
  138SAPE    C214974   3.417   6.408   9.638
  138SAPE    HS14975   3.459   6.356   9.727
  138SAPE   O2114976   3.518   6.478   9.569
  138SAPE   C2114977   3.627   6.424   9.531
  138SAPE   O2214978   3.670   6.313   9.524
  138SAPE   C2214979   3.709   6.514   9.469
  138SAPE   H2R14980   3.711   6.613   9.516
  138SAPE   H2S14981   3.795   6.460   9.497
  138SAPE    C314982   3.362   6.310   9.548
  138SAPE    HX14983   3.312   6.236   9.624
  138SAPE    HY14984   3.452   6.276   9.502
  138SAPE   O3114985   3.306   6.354   9.424
  138SAPE   C3114986   3.231   6.262   9.389
  138SAPE   O3214987   3.219   6.159   9.458
  138SAPE   C3214988   3.138   6.346   9.282
  138SAPE   H2X14989   3.067   6.286   9.223
  138SAPE   H2Y14990   3.194   6.384   9.198
  138SAPE   C2314991   3.698   6.487   9.320
  138SAPE   H3R14992   3.589   6.488   9.300
  138SAPE   H3S14993   3.745   6.393   9.286
  138SAPE   C2414994   3.740   6.590   9.226
  138SAPE   H4R14995   3.746   6.562   9.121
  138SAPE   H4S14996   3.851   6.581   9.225
  138SAPE   C2514997   3.657   6.709   9.285
  138SAPE   H5R14998   3.705   6.774   9.362
  138SAPE   C2614999   3.562   6.778   9.228
  138SAPE   H6R15000   3.564   6.885   9.259
  138SAPE   C2715001   3.520   6.745   9.090
  138SAPE   H7R15002   3.419   6.779   9.095
  138SAPE   H7S15003   3.537   6.637   9.075
  138SAPE   C2815004   3.516   6.803   8.959
  138SAPE   H8R15005   3.570   6.896   8.951
  138SAPE   C2915006   3.535   6.720   8.856
  138SAPE   H9R15007   3.624   6.728   8.816
  138SAPE  C21015008   3.561   6.579   8.815
  138SAPE  H10R15009   3.608   6.519   8.894
  138SAPE  H10S15010   3.613   6.551   8.719
  138SAPE  C21115011   3.418   6.568   8.787
  138SAPE  H11R15012   3.379   6.522   8.876
  138SAPE  C21215013   3.337   6.627   8.696
  138SAPE  H12R15014   3.237   6.587   8.700
  138SAPE  C21315015   3.371   6.727   8.586
  138SAPE  H13R15016   3.392   6.674   8.492
  138SAPE  H13S15017   3.466   6.781   8.604
  138SAPE  C21415018   3.265   6.831   8.559
  138SAPE  H14R15019   3.253   6.910   8.636
  138SAPE  C21515020   3.188   6.837   8.450
  138SAPE  H15R15021   3.111   6.915   8.443
  138SAPE  C21615022   3.190   6.742   8.333
  138SAPE  H16R15023   3.085   6.731   8.298
  138SAPE  H16S15024   3.224   6.640   8.362
  138SAPE  C21715025   3.270   6.788   8.209
  138SAPE  H17R15026   3.372   6.824   8.230
  138SAPE  H17S15027   3.209   6.872   8.169
  138SAPE  C21815028   3.285   6.672   8.113
  138SAPE  H18R15029   3.292   6.577   8.171
  138SAPE  H18S15030   3.376   6.674   8.049
  138SAPE  C21915031   3.162   6.656   8.031
  138SAPE  H19R15032   3.156   6.731   7.950
  138SAPE  H19S15033   3.068   6.641   8.088
  138SAPE  C22015034   3.173   6.529   7.972
  138SAPE  H20R15035   3.086   6.505   7.909
  138SAPE  H20S15036   3.200   6.439   8.034
  138SAPE  H20T15037   3.255   6.547   7.906
  138SAPE   C3315038   3.051   6.465   9.347
  138SAPE   H3X15039   3.116   6.516   9.419
  138SAPE   H3Y15040   2.964   6.446   9.415
  138SAPE   C3415041   2.972   6.543   9.246
  138SAPE   H4X15042   2.886   6.589   9.302
  138SAPE   H4Y15043   2.931   6.474   9.168
  138SAPE   C3515044   3.071   6.643   9.193
  138SAPE   H5X15045   3.159   6.590   9.150
  138SAPE   H5Y15046   3.105   6.701   9.282
  138SAPE   C3615047   3.021   6.739   9.086
  138SAPE   H6X15048   3.112   6.798   9.063
  138SAPE   H6Y15049   2.942   6.803   9.131
  138SAPE   C3715050   2.964   6.677   8.958
  138SAPE   H7X15051   2.961   6.753   8.876
  138SAPE   H7Y15052   2.858   6.648   8.975
  138SAPE   C3815053   3.035   6.550   8.910
  138SAPE   H8X15054   3.015   6.466   8.980
  138SAPE   H8Y15055   3.145   6.567   8.909
  138SAPE   C3915056   2.988   6.507   8.772
  138SAPE   H9X15057   3.031   6.580   8.701
  138SAPE   H9Y15058   2.878   6.509   8.759
  138SAPE  C31015059   3.032   6.364   8.746
  138SAPE  H10X15060   2.975   6.294   8.812
  138SAPE  H10Y15061   3.140   6.349   8.767
  138SAPE  C31115062   3.005   6.337   8.601
  138SAPE  H11X15063   2.910   6.379   8.572
  138SAPE  H11Y15064   2.998   6.231   8.586
  138SAPE  C31215065   3.104   6.399   8.505
  138SAPE  H12X15066   3.127   6.497   8.540
  138SAPE  H12Y15067   3.067   6.393   8.399
  138SAPE  C31315068   3.240   6.347   8.506
  138SAPE  H13X15069   3.191   6.260   8.460
  138SAPE  H13Y15070   3.285   6.315   8.601
  138SAPE  C31415071   3.351   6.402   8.426
  138SAPE  H14X15072   3.394   6.477   8.487
  138SAPE  H14Y15073   3.308   6.432   8.328
  138SAPE  C31515074   3.483   6.327   8.418
  138SAPE  H15X15075   3.463   6.300   8.315
  138SAPE  H15Y15076   3.510   6.236   8.477
  138SAPE  C31615077   3.600   6.366   8.364
  138SAPE  H16X15078   3.651   6.262   8.355
  138SAPE  H16Y15079   3.639   6.422   8.450
  138SAPE  C31715080   3.593   6.448   8.235
  138SAPE  H17X15081   3.513   6.428   8.165
  138SAPE  H17Y15082   3.674   6.414   8.165
  138SAPE  C31815083   3.601   6.592   8.286
  138SAPE  H18X15084   3.609   6.661   8.200
  138SAPE  H18Y15085   3.695   6.608   8.345
  138SAPE  H18Z15086   3.536   6.621   8.368
  139SAPE     N15087   2.175   6.601   9.954
  139SAPE   HN115088   2.178   6.500   9.976
  139SAPE   HN215089   2.077   6.636   9.945
  139SAPE   HN315090   2.220   6.615   9.862
  139SAPE   C1215091   2.257   6.677  10.057
  139SAPE  H12A15092   2.191   6.693  10.146
  139SAPE  H12B15093   2.280   6.774  10.008
  139SAPE   C1115094   2.384   6.603  10.113
  139SAPE  H11A15095   2.356   6.510  10.168
  139SAPE  H11B15096   2.430   6.663  10.194
  139SAPE     P15097   2.549   6.441   9.980
  139SAPE   O1315098   2.696   6.448   9.995
  139SAPE   O1415099   2.471   6.343  10.059
  139SAPE   O1215100   2.486   6.584  10.015
  139SAPE   O1115101   2.498   6.440   9.831
  139SAPE    C115102   2.563   6.526   9.737
  139SAPE    HA15103   2.590   6.624   9.782
  139SAPE    HB15104   2.656   6.476   9.702
  139SAPE    C215105   2.466   6.553   9.619
  139SAPE    HS15106   2.386   6.616   9.662
  139SAPE   O2115107   2.419   6.426   9.567
  139SAPE   C2115108   2.293   6.415   9.535
  139SAPE   O2215109   2.205   6.495   9.563
  139SAPE   C2215110   2.273   6.291   9.445
  139SAPE   H2R15111   2.358   6.287   9.372
  139SAPE   H2S15112   2.267   6.195   9.500
  139SAPE    C315113   2.537   6.629   9.503
  139SAPE    HX15114   2.617   6.559   9.470
  139SAPE    HY15115   2.591   6.720   9.537
  139SAPE   O3115116   2.447   6.652   9.390
  139SAPE   C3115117   2.374   6.763   9.400
  139SAPE   O3215118   2.380   6.842   9.492
  139SAPE   C3215119   2.283   6.784   9.275
  139SAPE   H2X15120   2.247   6.888   9.283
  139SAPE   H2Y15121   2.193   6.719   9.275
  139SAPE   C2315122   2.141   6.302   9.369
  139SAPE   H3R15123   2.067   6.349   9.437
  139SAPE   H3S15124   2.104   6.200   9.346
  139SAPE   C2415125   2.163   6.396   9.251
  139SAPE   H4R15126   2.240   6.360   9.181
  139SAPE   H4S15127   2.186   6.496   9.288
  139SAPE   C2515128   2.048   6.428   9.173
  139SAPE   H5R15129   1.962   6.479   9.223
  139SAPE   C2615130   2.024   6.369   9.060
  139SAPE   H6R15131   1.926   6.384   9.057
  139SAPE   C2715132   2.078   6.267   8.966
  139SAPE   H7R15133   2.063   6.164   9.004
  139SAPE   H7S15134   2.184   6.292   8.970
  139SAPE   C2815135   2.020   6.270   8.825
  139SAPE   H8R15136   1.912   6.250   8.813
  139SAPE   C2915137   2.091   6.282   8.713
  139SAPE   H9R15138   2.042   6.281   8.614
  139SAPE  C21015139   2.240   6.296   8.708
  139SAPE  H10R15140   2.275   6.333   8.806
  139SAPE  H10S15141   2.266   6.375   8.635
  139SAPE  C21115142   2.315   6.169   8.678
  139SAPE  H11R15143   2.360   6.126   8.768
  139SAPE  C21215144   2.327   6.104   8.561
  139SAPE  H12R15145   2.384   6.010   8.558
  139SAPE  C21315146   2.264   6.148   8.431
  139SAPE  H13R15147   2.310   6.243   8.395
  139SAPE  H13S15148   2.157   6.173   8.448
  139SAPE  C21415149   2.269   6.043   8.324
  139SAPE  H14R15150   2.316   5.946   8.348
  139SAPE  C21515151   2.219   6.062   8.203
  139SAPE  H15R15152   2.228   5.982   8.133
  139SAPE  C21615153   2.149   6.184   8.152
  139SAPE  H16R15154   2.116   6.249   8.235
  139SAPE  H16S15155   2.056   6.145   8.121
  139SAPE  C21715156   2.215   6.272   8.045
  139SAPE  H17R15157   2.137   6.337   8.000
  139SAPE  H17S15158   2.265   6.216   7.963
  139SAPE  C21815159   2.313   6.370   8.107
  139SAPE  H18R15160   2.392   6.312   8.159
  139SAPE  H18S15161   2.261   6.438   8.178
  139SAPE  C21915162   2.372   6.466   8.007
  139SAPE  H19R15163   2.447   6.407   7.947
  139SAPE  H19S15164   2.421   6.544   8.071
  139SAPE  C22015165   2.271   6.530   7.909
  139SAPE  H20R15166   2.250   6.460   7.826
  139SAPE  H20S15167   2.301   6.623   7.857
  139SAPE  H20T15168   2.189   6.577   7.960
  139SAPE   C3315169   2.349   6.769   9.136
  139SAPE   H3X15170   2.369   6.661   9.117
  139SAPE   H3Y15171   2.446   6.823   9.132
  139SAPE   C3415172   2.257   6.811   9.020
  139SAPE   H4X15173   2.223   6.917   9.021
  139SAPE   H4Y15174   2.163   6.750   9.023
  139SAPE   C3515175   2.328   6.773   8.890
  139SAPE   H5X15176   2.382   6.678   8.902
  139SAPE   H5Y15177   2.396   6.855   8.862
  139SAPE   C3615178   2.228   6.742   8.783
  139SAPE   H6X15179   2.192   6.840   8.801
  139SAPE   H6Y15180   2.145   6.674   8.808
  139SAPE   C3715181   2.276   6.723   8.639
  139SAPE   H7X15182   2.333   6.629   8.647
  139SAPE   H7Y15183   2.344   6.807   8.613
  139SAPE   C3815184   2.170   6.702   8.529
  139SAPE   H8X15185   2.095   6.783   8.521
  139SAPE   H8Y15186   2.115   6.607   8.549
  139SAPE   C3915187   2.228   6.692   8.389
  139SAPE   H9X15188   2.146   6.683   8.315
  139SAPE   H9Y15189   2.284   6.597   8.386
  139SAPE  C31015190   2.313   6.812   8.351
  139SAPE  H10X15191   2.401   6.824   8.418
  139SAPE  H10Y15192   2.252   6.904   8.354
  139SAPE  C31115193   2.366   6.789   8.211
  139SAPE  H11X15194   2.280   6.776   8.140
  139SAPE  H11Y15195   2.424   6.693   8.220
  139SAPE  C31215196   2.457   6.903   8.169
  139SAPE  H12X15197   2.559   6.898   8.211
  139SAPE  H12Y15198   2.412   7.003   8.158
  139SAPE  C31315199   2.500   6.890   8.032
  139SAPE  H13X15200   2.405   6.893   7.970
  139SAPE  H13Y15201   2.536   6.784   8.041
  139SAPE  C31415202   2.620   6.987   7.977
  139SAPE  H14X15203   2.708   6.937   8.021
  139SAPE  H14Y15204   2.588   7.088   8.010
  139SAPE  C31515205   2.669   7.012   7.816
  139SAPE  H15X15206   2.745   7.075   7.784
  139SAPE  H15Y15207   2.566   7.063   7.802
  139SAPE  C31615208   2.728   6.903   7.687
  139SAPE  H16X15209   2.701   6.826   7.624
  139SAPE  H16Y15210   2.634   6.872   7.620
  139SAPE  C31715211   2.844   6.799   7.732
  139SAPE  H17X15212   2.880   6.833   7.826
  139SAPE  H17Y15213   2.919   6.834   7.668
  139SAPE  C31815214   2.888   6.656   7.685
  139SAPE  H18X15215   2.825   6.639   7.597
  139SAPE  H18Y15216   2.831   6.614   7.757
  139SAPE  H18Z15217   2.924   6.561   7.738
  140SAPE     N15218   5.458   1.163   9.905
  140SAPE   HN115219   5.544   1.125   9.859
  140SAPE   HN215220   5.451   1.266   9.892
  140SAPE   HN315221   5.466   1.139  10.006
  140SAPE   C1215222   5.330   1.101   9.858
  140SAPE  H12A15223   5.319   1.130   9.751
  140SAPE  H12B15224   5.247   1.145   9.920
  140SAPE   C1115225   5.332   0.948   9.871
  140SAPE  H11A15226   5.423   0.910   9.820
  140SAPE  H11B15227   5.244   0.910   9.813
  140SAPE     P15228   5.446   0.846  10.088
  140SAPE   O1315229   5.531   0.966  10.115
  140SAPE   O1415230   5.404   0.756  10.198
  140SAPE   O1215231   5.322   0.902  10.007
  140SAPE   O1115232   5.511   0.766   9.972
  140SAPE    C115233   5.638   0.709   9.969
  140SAPE    HA15234   5.718   0.769  10.018
  140SAPE    HB15235   5.629   0.620  10.032
  140SAPE    C215236   5.677   0.672   9.819
  140SAPE    HS15237   5.789   0.657   9.820
  140SAPE   O2115238   5.640   0.772   9.729
  140SAPE   C2115239   5.710   0.870   9.746
  140SAPE   O2215240   5.803   0.888   9.823
  140SAPE   C2215241   5.679   0.952   9.634
  140SAPE   H2R15242   5.611   0.920   9.555
  140SAPE   H2S15243   5.657   1.057   9.668
  140SAPE    C315244   5.612   0.543   9.760
  140SAPE    HX15245   5.621   0.461   9.830
  140SAPE    HY15246   5.667   0.509   9.669
  140SAPE   O3115247   5.469   0.547   9.753
  140SAPE   C3115248   5.424   0.533   9.631
  140SAPE   O3215249   5.488   0.497   9.538
  140SAPE   C3215250   5.279   0.565   9.624
  140SAPE   H2X15251   5.250   0.609   9.721
  140SAPE   H2Y15252   5.221   0.473   9.602
  140SAPE   C2315253   5.816   0.938   9.573
  140SAPE   H3R15254   5.877   0.992   9.654
  140SAPE   H3S15255   5.817   0.987   9.468
  140SAPE   C2415256   5.894   0.835   9.504
  140SAPE   H4R15257   5.944   0.777   9.580
  140SAPE   H4S15258   5.975   0.881   9.439
  140SAPE   C2515259   5.799   0.759   9.425
  140SAPE   H5R15260   5.726   0.702   9.484
  140SAPE   C2615261   5.791   0.763   9.294
  140SAPE   H6R15262   5.718   0.698   9.262
  140SAPE   C2715263   5.864   0.836   9.185
  140SAPE   H7R15264   5.927   0.918   9.220
  140SAPE   H7S15265   5.790   0.883   9.115
  140SAPE   C2815266   5.960   0.745   9.115
  140SAPE   H8R15267   6.039   0.700   9.176
  140SAPE   C2915268   5.943   0.700   8.993
  140SAPE   H9R15269   6.009   0.617   8.960
  140SAPE  C21015270   5.826   0.728   8.898
  140SAPE  H10R15271   5.861   0.770   8.805
  140SAPE  H10S15272   5.743   0.782   8.941
  140SAPE  C21115273   5.763   0.623   8.824
  140SAPE  H11R15274   5.801   0.540   8.864
  140SAPE  C21215275   5.646   0.590   8.789
  140SAPE  H12R15276   5.641   0.483   8.755
  140SAPE  C21315277   5.529   0.674   8.828
  140SAPE  H13R15278   5.501   0.698   8.724
  140SAPE  H13S15279   5.553   0.760   8.884
  140SAPE  C21415280   5.412   0.658   8.916
  140SAPE  H14R15281   5.386   0.630   9.024
  140SAPE  C21515282   5.342   0.598   8.831
  140SAPE  H15R15283   5.321   0.517   8.905
  140SAPE  C21615284   5.342   0.544   8.671
  140SAPE  H16R15285   5.284   0.449   8.629
  140SAPE  H16S15286   5.385   0.446   8.640
  140SAPE  C21715287   5.238   0.637   8.604
  140SAPE  H17R15288   5.311   0.717   8.622
  140SAPE  H17S15289   5.143   0.670   8.654
  140SAPE  C21815290   5.217   0.608   8.460
  140SAPE  H18R15291   5.123   0.551   8.444
  140SAPE  H18S15292   5.297   0.544   8.431
  140SAPE  C21915293   5.238   0.737   8.388
  140SAPE  H19R15294   5.339   0.782   8.410
  140SAPE  H19S15295   5.158   0.801   8.430
  140SAPE  C22015296   5.230   0.721   8.241
  140SAPE  H20R15297   5.306   0.652   8.201
  140SAPE  H20S15298   5.231   0.819   8.192
  140SAPE  H20T15299   5.141   0.668   8.217
  140SAPE   C3315300   5.258   0.665   9.509
  140SAPE   H3X15301   5.150   0.692   9.510
  140SAPE   H3Y15302   5.278   0.615   9.412
  140SAPE   C3415303   5.338   0.797   9.522
  140SAPE   H4X15304   5.444   0.790   9.491
  140SAPE   H4Y15305   5.339   0.826   9.629
  140SAPE   C3515306   5.273   0.915   9.451
  140SAPE   H5X15307   5.333   1.005   9.475
  140SAPE   H5Y15308   5.170   0.916   9.494
  140SAPE   C3615309   5.260   0.911   9.300
  140SAPE   H6X15310   5.186   0.987   9.267
  140SAPE   H6Y15311   5.230   0.811   9.276
  140SAPE   C3715312   5.384   0.929   9.217
  140SAPE   H7X15313   5.447   0.838   9.233
  140SAPE   H7Y15314   5.439   1.016   9.257
  140SAPE   C3815315   5.338   0.948   9.072
  140SAPE   H8X15316   5.252   1.020   9.073
  140SAPE   H8Y15317   5.298   0.854   9.032
  140SAPE   C3915318   5.445   1.002   8.978
  140SAPE   H9X15319   5.537   0.940   8.976
  140SAPE   H9Y15320   5.470   1.094   9.026
  140SAPE  C31015321   5.395   1.030   8.836
  140SAPE  H10X15322   5.299   1.085   8.841
  140SAPE  H10Y15323   5.384   0.935   8.783
  140SAPE  C31115324   5.496   1.101   8.750
  140SAPE  H11X15325   5.528   1.173   8.824
  140SAPE  H11Y15326   5.457   1.164   8.668
  140SAPE  C31215327   5.609   1.001   8.708
  140SAPE  H12X15328   5.557   0.915   8.671
  140SAPE  H12Y15329   5.669   0.971   8.795
  140SAPE  C31315330   5.697   1.015   8.580
  140SAPE  H13X15331   5.800   0.977   8.578
  140SAPE  H13Y15332   5.756   1.077   8.634
  140SAPE  C31415333   5.631   1.089   8.457
  140SAPE  H14X15334   5.572   1.179   8.485
  140SAPE  H14Y15335   5.566   1.003   8.445
  140SAPE  C31515336   5.700   1.117   8.316
  140SAPE  H15X15337   5.759   1.208   8.305
  140SAPE  H15Y15338   5.633   1.157   8.241
  140SAPE  C31615339   5.802   1.007   8.273
  140SAPE  H16X15340   5.730   0.927   8.251
  140SAPE  H16Y15341   5.867   0.976   8.357
  140SAPE  C31715342   5.897   1.029   8.151
  140SAPE  H17X15343   5.933   0.932   8.115
  140SAPE  H17Y15344   5.994   1.080   8.160
  140SAPE  C31815345   5.832   1.106   8.043
  140SAPE  H18X15346   5.746   1.055   7.998
  140SAPE  H18Y15347   5.904   1.141   7.966
  140SAPE  H18Z15348   5.787   1.189   8.099
  141SAPE     N15349   6.867   2.351  10.209
  141SAPE   HN115350   6.772   2.320  10.240
  141SAPE   HN215351   6.876   2.321  10.109
  141SAPE   HN315352   6.945   2.312  10.266
  141SAPE   C1215353   6.882   2.500  10.209
  141SAPE  H12A15354   6.987   2.523  10.181
  141SAPE  H12B15355   6.867   2.536  10.313
  141SAPE   C1115356   6.777   2.566  10.119
  141SAPE  H11A15357   6.799   2.675  10.120
  141SAPE  H11B15358   6.676   2.551  10.163
  141SAPE     P15359   6.666   2.559   9.886
  141SAPE   O1315360   6.697   2.514   9.749
  141SAPE   O1415361   6.540   2.510   9.948
  141SAPE   O1215362   6.783   2.514   9.985
  141SAPE   O1115363   6.665   2.716   9.897
  141SAPE    C115364   6.717   2.806   9.801
  141SAPE    HA15365   6.755   2.896   9.855
  141SAPE    HB15366   6.806   2.765   9.747
  141SAPE    C215367   6.610   2.851   9.696
  141SAPE    HS15368   6.531   2.905   9.751
  141SAPE   O2115369   6.551   2.737   9.641
  141SAPE   C2115370   6.441   2.756   9.582
  141SAPE   O2215371   6.379   2.860   9.566
  141SAPE   C2215372   6.399   2.625   9.542
  141SAPE   H2R15373   6.471   2.540   9.549
  141SAPE   H2S15374   6.310   2.601   9.603
  141SAPE    C315375   6.673   2.935   9.582
  141SAPE    HX15376   6.729   3.018   9.631
  141SAPE    HY15377   6.598   2.977   9.512
  141SAPE   O3115378   6.753   2.846   9.503
  141SAPE   C3115379   6.878   2.877   9.492
  141SAPE   O3215380   6.929   2.984   9.506
  141SAPE   C3215381   6.968   2.762   9.464
  141SAPE   H2X15382   7.043   2.765   9.546
  141SAPE   H2Y15383   7.015   2.787   9.367
  141SAPE   C2315384   6.366   2.651   9.399
  141SAPE   H3R15385   6.289   2.718   9.356
  141SAPE   H3S15386   6.291   2.578   9.416
  141SAPE   C2415387   6.473   2.632   9.297
  141SAPE   H4R15388   6.502   2.526   9.282
  141SAPE   H4S15389   6.545   2.705   9.324
  141SAPE   C2515390   6.436   2.676   9.165
  141SAPE   H5R15391   6.350   2.622   9.156
  141SAPE   C2615392   6.470   2.756   9.062
  141SAPE   H6R15393   6.413   2.770   8.966
  141SAPE   C2715394   6.580   2.840   9.056
  141SAPE   H7R15395   6.552   2.901   9.142
  141SAPE   H7S15396   6.569   2.889   8.957
  141SAPE   C2815397   6.691   2.743   9.076
  141SAPE   H8R15398   6.677   2.667   9.155
  141SAPE   C2915399   6.800   2.737   9.003
  141SAPE   H9R15400   6.868   2.657   9.031
  141SAPE  C21015401   6.841   2.822   8.887
  141SAPE  H10R15402   6.808   2.769   8.796
  141SAPE  H10S15403   6.951   2.820   8.884
  141SAPE  C21115404   6.807   2.969   8.884
  141SAPE  H11R15405   6.822   3.024   8.979
  141SAPE  C21215406   6.774   3.037   8.773
  141SAPE  H12R15407   6.747   3.141   8.781
  141SAPE  C21315408   6.765   2.986   8.633
  141SAPE  H13R15409   6.680   2.915   8.624
  141SAPE  H13S15410   6.859   2.933   8.610
  141SAPE  C21415411   6.745   3.095   8.531
  141SAPE  H14R15412   6.730   3.198   8.572
  141SAPE  C21515413   6.735   3.072   8.399
  141SAPE  H15R15414   6.726   3.158   8.331
  141SAPE  C21615415   6.740   2.938   8.328
  141SAPE  H16R15416   6.719   2.855   8.400
  141SAPE  H16S15417   6.835   2.919   8.277
  141SAPE  C21715418   6.638   2.914   8.217
  141SAPE  H17R15419   6.556   2.915   8.278
  141SAPE  H17S15420   6.631   2.808   8.187
  141SAPE  C21815421   6.642   3.012   8.101
  141SAPE  H18R15422   6.745   2.987   8.070
  141SAPE  H18S15423   6.628   3.119   8.125
  141SAPE  C21915424   6.548   2.987   7.990
  141SAPE  H19R15425   6.559   3.048   7.898
  141SAPE  H19S15426   6.442   3.010   8.020
  141SAPE  C22015427   6.569   2.843   7.958
  141SAPE  H20R15428   6.526   2.762   8.009
  141SAPE  H20S15429   6.647   2.799   7.908
  141SAPE  H20T15430   6.531   2.845   7.864
  141SAPE   C3315431   6.904   2.623   9.464
  141SAPE   H3X15432   6.810   2.623   9.405
  141SAPE   H3Y15433   6.884   2.592   9.569
  141SAPE   C3415434   6.994   2.526   9.387
  141SAPE   H4X15435   7.099   2.543   9.421
  141SAPE   H4Y15436   6.985   2.558   9.282
  141SAPE   C3515437   6.946   2.379   9.395
  141SAPE   H5X15438   6.916   2.362   9.501
  141SAPE   H5Y15439   7.028   2.307   9.372
  141SAPE   C3615440   6.823   2.341   9.310
  141SAPE   H6X15441   6.735   2.387   9.361
  141SAPE   H6Y15442   6.812   2.230   9.320
  141SAPE   C3715443   6.825   2.384   9.162
  141SAPE   H7X15444   6.828   2.494   9.162
  141SAPE   H7Y15445   6.731   2.353   9.112
  141SAPE   C3815446   6.946   2.332   9.081
  141SAPE   H8X15447   6.946   2.221   9.085
  141SAPE   H8Y15448   7.041   2.365   9.129
  141SAPE   C3915449   6.943   2.375   8.933
  141SAPE   H9X15450   7.039   2.349   8.889
  141SAPE   H9Y15451   6.947   2.482   8.914
  141SAPE  C31015452   6.829   2.308   8.854
  141SAPE  H10X15453   6.732   2.336   8.901
  141SAPE  H10Y15454   6.840   2.197   8.860
  141SAPE  C31115455   6.828   2.346   8.706
  141SAPE  H11X15456   6.747   2.286   8.659
  141SAPE  H11Y15457   6.924   2.318   8.657
  141SAPE  C31215458   6.809   2.496   8.681
  141SAPE  H12X15459   6.897   2.555   8.713
  141SAPE  H12Y15460   6.723   2.528   8.744
  141SAPE  C31315461   6.778   2.529   8.536
  141SAPE  H13X15462   6.861   2.505   8.466
  141SAPE  H13Y15463   6.765   2.640   8.528
  141SAPE  C31415464   6.649   2.466   8.492
  141SAPE  H14X15465   6.567   2.510   8.554
  141SAPE  H14Y15466   6.636   2.356   8.506
  141SAPE  C31515467   6.624   2.484   8.346
  141SAPE  H15X15468   6.688   2.435   8.272
  141SAPE  H15Y15469   6.639   2.593   8.321
  141SAPE  C31615470   6.488   2.405   8.350
  141SAPE  H16X15471   6.442   2.401   8.449
  141SAPE  H16Y15472   6.476   2.316   8.296
  141SAPE  C31715473   6.388   2.448   8.270
  141SAPE  H17X15474   6.458   2.501   8.187
  141SAPE  H17Y15475   6.432   2.540   8.344
  141SAPE  C31815476   6.133   2.473   8.231
  141SAPE  H18X15477   6.149   2.386   8.245
  141SAPE  H18Y15478   6.176   2.450   8.182
  141SAPE  H18Z15479   6.116   2.557   8.139
  142SAPE     N15480   6.501   1.776  10.306
  142SAPE   HN115481   6.565   1.712  10.254
  142SAPE   HN215482   6.540   1.797  10.400
  142SAPE   HN315483   6.408   1.731  10.315
  142SAPE   C1215484   6.491   1.894  10.212
  142SAPE  H12A15485   6.569   1.965  10.245
  142SAPE  H12B15486   6.392   1.942  10.220
  142SAPE   C1115487   6.503   1.853  10.064
  142SAPE  H11A15488   6.590   1.784  10.048
  142SAPE  H11B15489   6.520   1.949  10.010
  142SAPE     P15490   6.387   1.709   9.881
  142SAPE   O1315491   6.499   1.613   9.895
  142SAPE   O1415492   6.253   1.658   9.852
  142SAPE   O1215493   6.382   1.794  10.017
  142SAPE   O1115494   6.423   1.817   9.773
  142SAPE    C115495   6.556   1.851   9.739
  142SAPE    HA15496   6.566   1.960   9.759
  142SAPE    HB15497   6.633   1.802   9.804
  142SAPE    C215498   6.585   1.807   9.592
  142SAPE    HS15499   6.693   1.823   9.567
  142SAPE   O2115500   6.495   1.868   9.499
  142SAPE   C2115501   6.510   1.995   9.482
  142SAPE   O2215502   6.608   2.060   9.510
  142SAPE   C2215503   6.379   2.054   9.426
  142SAPE   H2R15504   6.293   2.000   9.470
  142SAPE   H2S15505   6.378   2.156   9.467
  142SAPE    C315506   6.567   1.659   9.568
  142SAPE    HX15507   6.462   1.625   9.591
  142SAPE    HY15508   6.632   1.616   9.652
  142SAPE   O3115509   6.603   1.634   9.425
  142SAPE   C3115510   6.632   1.509   9.422
  142SAPE   O3215511   6.629   1.450   9.530
  142SAPE   C3215512   6.675   1.455   9.277
  142SAPE   H2X15513   6.598   1.395   9.228
  142SAPE   H2Y15514   6.762   1.385   9.281
  142SAPE   C2315515   6.375   2.066   9.270
  142SAPE   H3R15516   6.474   2.089   9.231
  142SAPE   H3S15517   6.319   2.152   9.231
  142SAPE   C2415518   6.314   1.952   9.190
  142SAPE   H4R15519   6.320   1.985   9.083
  142SAPE   H4S15520   6.206   1.944   9.215
  142SAPE   C2515521   6.399   1.828   9.210
  142SAPE   H5R15522   6.502   1.840   9.241
  142SAPE   C2615523   6.364   1.702   9.212
  142SAPE   H6R15524   6.434   1.620   9.227
  142SAPE   C2715525   6.234   1.653   9.195
  142SAPE   H7R15526   6.158   1.723   9.150
  142SAPE   H7S15527   6.206   1.658   9.305
  142SAPE   C2815528   6.215   1.515   9.131
  142SAPE   H8R15529   6.169   1.435   9.193
  142SAPE   C2915530   6.231   1.488   9.007
  142SAPE   H9R15531   6.175   1.402   8.967
  142SAPE  C21015532   6.276   1.591   8.913
  142SAPE  H10R15533   6.383   1.564   8.913
  142SAPE  H10S15534   6.265   1.694   8.949
  142SAPE  C21115535   6.235   1.574   8.774
  142SAPE  H11R15536   6.181   1.478   8.761
  142SAPE  C21215537   6.224   1.668   8.678
  142SAPE  H12R15538   6.172   1.642   8.586
  142SAPE  C21315539   6.247   1.815   8.677
  142SAPE  H13R15540   6.153   1.863   8.712
  142SAPE  H13S15541   6.260   1.844   8.570
  142SAPE  C21415542   6.363   1.864   8.757
  142SAPE  H14R15543   6.347   1.876   8.865
  142SAPE  C21515544   6.484   1.886   8.708
  142SAPE  H15R15545   6.555   1.934   8.775
  142SAPE  C21615546   6.532   1.867   8.567
  142SAPE  H16R15547   6.518   1.962   8.511
  142SAPE  H16S15548   6.480   1.783   8.514
  142SAPE  C21715549   6.681   1.829   8.569
  142SAPE  H17R15550   6.688   1.730   8.621
  142SAPE  H17S15551   6.740   1.906   8.623
  142SAPE  C21815552   6.743   1.821   8.429
  142SAPE  H18R15553   6.722   1.913   8.370
  142SAPE  H18S15554   6.689   1.740   8.375
  142SAPE  C21915555   6.895   1.799   8.426
  142SAPE  H19R15556   6.921   1.701   8.473
  142SAPE  H19S15557   6.943   1.875   8.492
  142SAPE  C22015558   6.949   1.816   8.282
  142SAPE  H20R15559   7.061   1.821   8.281
  142SAPE  H20S15560   6.902   1.901   8.231
  142SAPE  H20T15561   6.923   1.730   8.216
  142SAPE   C3315562   6.712   1.571   9.182
  142SAPE   H3X15563   6.771   1.640   9.246
  142SAPE   H3Y15564   6.626   1.632   9.146
  142SAPE   C3415565   6.797   1.540   9.060
  142SAPE   H4X15566   6.896   1.506   9.097
  142SAPE   H4Y15567   6.814   1.635   9.002
  142SAPE   C3515568   6.743   1.436   8.961
  142SAPE   H5X15569   6.684   1.355   9.009
  142SAPE   H5Y15570   6.836   1.390   8.921
  142SAPE   C3615571   6.672   1.499   8.839
  142SAPE   H6X15572   6.740   1.576   8.798
  142SAPE   H6Y15573   6.580   1.552   8.868
  142SAPE   C3715574   6.645   1.401   8.723
  142SAPE   H7X15575   6.720   1.319   8.722
  142SAPE   H7Y15576   6.652   1.455   8.627
  142SAPE   C3815577   6.501   1.351   8.731
  142SAPE   H8X15578   6.427   1.429   8.733
  142SAPE   H8Y15579   6.496   1.319   8.829
  142SAPE   C3915580   6.452   1.252   8.631
  142SAPE   H9X15581   6.358   1.198   8.653
  142SAPE   H9Y15582   6.521   1.173   8.642
  142SAPE  C31015583   6.449   1.312   8.494
  142SAPE  H10X15584   6.414   1.228   8.437
  142SAPE  H10Y15585   6.545   1.343   8.450
  142SAPE  C31115586   6.360   1.434   8.480
  142SAPE  H11X15587   6.390   1.513   8.547
  142SAPE  H11Y15588   6.262   1.403   8.523
  142SAPE  C31215589   6.367   1.487   8.333
  142SAPE  H12X15590   6.359   1.402   8.262
  142SAPE  H12Y15591   6.463   1.505   8.292
  142SAPE  C31315592   6.260   1.584   8.286
  142SAPE  H13X15593   6.196   1.602   8.366
  142SAPE  H13Y15594   6.203   1.549   8.197
  142SAPE  C31415595   6.296   1.726   8.270
  142SAPE  H14X15596   6.336   1.760   8.367
  142SAPE  H14Y15597   6.206   1.786   8.241
  142SAPE  C31515598   6.398   1.728   8.161
  142SAPE  H15X15599   6.477   1.655   8.178
  142SAPE  H15Y15600   6.441   1.829   8.161
  142SAPE  C31615601   6.335   1.706   8.027
  142SAPE  H16X15602   6.261   1.787   8.045
  142SAPE  H16Y15603   6.264   1.623   8.006
  142SAPE  C31715604   6.438   1.731   7.911
  142SAPE  H17X15605   6.507   1.648   7.911
  142SAPE  H17Y15606   6.485   1.832   7.922
  142SAPE  C31815607   6.407   1.720   7.761
  142SAPE  H18X15608   6.374   1.820   7.766
  142SAPE  H18Y15609   6.308   1.680   7.728
  142SAPE  H18Z15610   6.470   1.769   7.685
  143SAPE     N15611   1.152   1.455  10.193
  143SAPE   HN115612   1.069   1.491  10.142
  143SAPE   HN215613   1.178   1.520  10.270
  143SAPE   HN315614   1.233   1.445  10.127
  143SAPE   C1215615   1.119   1.318  10.244
  143SAPE  H12A15616   1.043   1.325  10.325
  143SAPE  H12B15617   1.216   1.279  10.284
  143SAPE   C1115618   1.067   1.229  10.131
  143SAPE  H11A15619   0.972   1.272  10.090
  143SAPE  H11B15620   1.036   1.130  10.170
  143SAPE     P15621   1.138   1.274   9.887
  143SAPE   O1315622   1.093   1.412   9.893
  143SAPE   O1415623   1.263   1.271   9.808
  143SAPE   O1215624   1.170   1.219  10.034
  143SAPE   O1115625   1.021   1.171   9.840
  143SAPE    C115626   0.990   1.030   9.868
  143SAPE    HA15627   1.061   0.985   9.939
  143SAPE    HB15628   0.899   1.010   9.921
  143SAPE    C215629   0.971   0.941   9.745
  143SAPE    HS15630   0.970   0.840   9.735
  143SAPE   O2115631   1.089   0.925   9.710
  143SAPE   C2115632   1.217   0.827   9.709
  143SAPE   O2215633   1.198   0.735   9.775
  143SAPE   C2215634   1.406   0.928   9.575
  143SAPE   H2R15635   1.394   1.000   9.489
  143SAPE   H2S15636   1.429   1.040   9.603
  143SAPE    C315637   0.879   0.995   9.638
  143SAPE    HX15638   0.786   0.989   9.699
  143SAPE    HY15639   0.860   0.926   9.552
  143SAPE   O3115640   0.909   1.132   9.605
  143SAPE   C3115641   0.946   1.166   9.484
  143SAPE   O3215642   0.935   1.096   9.384
  143SAPE   C3215643   0.975   1.312   9.486
  143SAPE   H2X15644   0.962   1.359   9.586
  143SAPE   H2Y15645   0.897   1.366   9.441
  143SAPE   C2315646   1.482   0.817   9.581
  143SAPE   H3R15647   1.460   0.764   9.674
  143SAPE   H3S15648   1.548   0.892   9.608
  143SAPE   C2415649   1.493   0.729   9.465
  143SAPE   H4R15650   1.420   0.649   9.471
  143SAPE   H4S15651   1.541   0.643   9.476
  143SAPE   C2515652   1.509   0.813   9.344
  143SAPE   H5R15653   1.604   0.780   9.304
  143SAPE   C2615654   1.429   0.885   9.258
  143SAPE   H6R15655   1.471   0.920   9.172
  143SAPE   C2715656   1.283   0.921   9.230
  143SAPE   H7R15657   1.247   0.953   9.315
  143SAPE   H7S15658   1.213   0.837   9.202
  143SAPE   C2815659   1.228   1.033   9.164
  143SAPE   H8R15660   1.303   1.109   9.184
  143SAPE   C2915661   1.123   1.043   9.079
  143SAPE   H9R15662   1.122   1.140   9.031
  143SAPE  C21015663   1.024   0.937   9.022
  143SAPE  H10R15664   0.940   0.995   8.981
  143SAPE  H10S15665   0.987   0.879   9.108
  143SAPE  C21115666   1.049   0.828   8.920
  143SAPE  H11R15667   1.121   0.752   8.954
  143SAPE  C21215668   1.048   0.851   8.788
  143SAPE  H12R15669   1.128   0.791   8.726
  143SAPE  C21315670   1.018   1.003   8.738
  143SAPE  H13R15671   1.072   0.946   8.662
  143SAPE  H13S15672   1.084   1.081   8.771
  143SAPE  C21415673   0.890   1.085   8.671
  143SAPE  H14R15674   0.874   1.025   8.774
  143SAPE  C21515675   0.817   1.064   8.522
  143SAPE  H15R15676   0.718   0.989   8.509
  143SAPE  C21615677   0.871   0.955   8.398
  143SAPE  H16R15678   0.920   1.042   8.375
  143SAPE  H16S15679   0.840   0.949   8.297
  143SAPE  C21715680   0.968   0.788   8.384
  143SAPE  H17R15681   0.939   0.682   8.413
  143SAPE  H17S15682   1.037   0.794   8.470
  143SAPE  C21815683   1.018   0.735   8.250
  143SAPE  H18R15684   1.121   0.761   8.233
  143SAPE  H18S15685   0.961   0.787   8.174
  143SAPE  C21915686   1.065   0.600   8.223
  143SAPE  H19R15687   1.111   0.622   8.122
  143SAPE  H19S15688   0.962   0.563   8.223
  143SAPE  C22015689   1.167   0.546   8.322
  143SAPE  H20R15690   1.268   0.591   8.310
  143SAPE  H20S15691   1.192   0.445   8.302
  143SAPE  H20T15692   1.136   0.550   8.429
  143SAPE   C3315693   1.100   1.345   9.407
  143SAPE   H3X15694   1.078   1.443   9.360
  143SAPE   H3Y15695   1.127   1.287   9.320
  143SAPE   C3415696   1.215   1.343   9.504
  143SAPE   H4X15697   1.224   1.248   9.559
  143SAPE   H4Y15698   1.170   1.401   9.585
  143SAPE   C3515699   1.350   1.396   9.447
  143SAPE   H5X15700   1.431   1.398   9.520
  143SAPE   H5Y15701   1.341   1.500   9.413
  143SAPE   C3615702   1.398   1.316   9.333
  143SAPE   H6X15703   1.311   1.302   9.270
  143SAPE   H6Y15704   1.429   1.219   9.371
  143SAPE   C3715705   1.499   1.387   9.246
  143SAPE   H7X15706   1.583   1.403   9.314
  143SAPE   H7Y15707   1.475   1.490   9.219
  143SAPE   C3815708   1.519   1.316   9.111
  143SAPE   H8X15709   1.426   1.291   9.060
  143SAPE   H8Y15710   1.544   1.212   9.123
  143SAPE   C3915711   1.613   1.391   9.014
  143SAPE   H9X15712   1.638   1.333   8.925
  143SAPE   H9Y15713   1.711   1.427   9.049
  143SAPE  C31015714   1.564   1.481   8.912
  143SAPE  H10X15715   1.648   1.498   8.839
  143SAPE  H10Y15716   1.544   1.570   8.971
  143SAPE  C31115717   1.444   1.429   8.834
  143SAPE  H11X15718   1.414   1.525   8.788
  143SAPE  H11Y15719   1.362   1.396   8.900
  143SAPE  C31215720   1.475   1.321   8.727
  143SAPE  H12X15721   1.468   1.222   8.772
  143SAPE  H12Y15722   1.578   1.328   8.690
  143SAPE  C31315723   1.390   1.327   8.600
  143SAPE  H13X15724   1.414   1.258   8.517
  143SAPE  H13Y15725   1.441   1.405   8.552
  143SAPE  C31415726   1.238   1.330   8.625
  143SAPE  H14X15727   1.205   1.351   8.728
  143SAPE  H14Y15728   1.213   1.230   8.623
  143SAPE  C31515729   1.143   1.369   8.512
  143SAPE  H15X15730   1.163   1.468   8.483
  143SAPE  H15Y15731   1.043   1.392   8.549
  143SAPE  C31615732   1.150   1.291   8.378
  143SAPE  H16X15733   1.090   1.199   8.387
  143SAPE  H16Y15734   1.254   1.265   8.352
  143SAPE  C31715735   1.100   1.383   8.268
  143SAPE  H17X15736   1.168   1.468   8.266
  143SAPE  H17Y15737   1.007   1.419   8.310
  143SAPE  C31815738   1.077   1.338   8.123
  143SAPE  H18X15739   1.169   1.302   8.078
  143SAPE  H18Y15740   1.035   1.425   8.065
  143SAPE  H18Z15741   0.998   1.260   8.116
  144SAPE     N15742   5.312   0.341   9.906
  144SAPE   HN115743   5.321   0.311   9.807
  144SAPE   HN215744   5.251   0.425   9.912
  144SAPE   HN315745   5.408   0.366   9.936
  144SAPE   C1215746   5.240   0.227   9.975
  144SAPE  H12A15747   5.318   0.166  10.023
  144SAPE  H12B15748   5.193   0.169   9.891
  144SAPE   C1115749   5.132   0.270  10.077
  144SAPE  H11A15750   5.170   0.348  10.146
  144SAPE  H11B15751   5.103   0.187  10.147
  144SAPE     P15752   4.884   0.241  10.014
  144SAPE   O1315753   4.909   0.098   9.989
  144SAPE   O1415754   4.823   0.279  10.143
  144SAPE   O1215755   5.021   0.322  10.004
  144SAPE   O1115756   4.799   0.297   9.892
  144SAPE    C115757   4.805   0.239   9.760
  144SAPE    HA15758   4.823   0.129   9.762
  144SAPE    HB15759   4.705   0.246   9.713
  144SAPE    C215760   4.923   0.298   9.675
  144SAPE    HS15761   5.015   0.281   9.732
  144SAPE   O2115762   4.919   0.438   9.654
  144SAPE   C2115763   4.810   0.484   9.610
  144SAPE   O2215764   4.702   0.428   9.602
  144SAPE   C2215765   4.858   0.623   9.571
  144SAPE   H2R15766   4.858   0.686   9.657
  144SAPE   H2S15767   4.959   0.644   9.549
  144SAPE    C315768   4.938   0.231   9.533
  144SAPE    HX15769   4.954   0.123   9.552
  144SAPE    HY15770   5.033   0.272   9.490
  144SAPE   O3115771   4.824   0.250   9.445
  144SAPE   C3115772   4.834   0.198   9.324
  144SAPE   O3215773   4.934   0.149   9.275
  144SAPE   C3215774   4.698   0.205   9.253
  144SAPE   H2X15775   4.641   0.295   9.283
  144SAPE   H2Y15776   4.637   0.117   9.282
  144SAPE   C2315777   4.839   0.688   9.438
  144SAPE   H3R15778   4.802   0.783   9.410
  144SAPE   H3S15779   4.756   0.677   9.489
  144SAPE   C2415780   4.839   0.635   9.317
  144SAPE   H4R15781   4.728   0.648   9.284
  144SAPE   H4S15782   4.808   0.542   9.282
  144SAPE   C2515783   4.964   0.723   9.270
  144SAPE   H5R15784   4.970   0.829   9.233
  144SAPE   C2615785   5.060   0.662   9.231
  144SAPE   H6R15786   5.130   0.716   9.169
  144SAPE   C2715787   5.039   0.519   9.239
  144SAPE   H7R15788   4.954   0.482   9.177
  144SAPE   H7S15789   5.029   0.497   9.345
  144SAPE   C2815790   5.155   0.452   9.193
  144SAPE   H8R15791   5.238   0.423   9.261
  144SAPE   C2915792   5.173   0.460   9.065
  144SAPE   H9R15793   5.272   0.418   9.060
  144SAPE  C21015794   5.094   0.528   8.946
  144SAPE  H10R15795   5.121   0.640   8.934
  144SAPE  H10S15796   4.986   0.530   8.945
  144SAPE  C21115797   5.115   0.457   8.814
  144SAPE  H11R15798   5.203   0.455   8.789
  144SAPE  C21215799   5.083   0.373   8.720
  144SAPE  H12R15800   5.142   0.335   8.632
  144SAPE  C21315801   4.967   0.306   8.740
  144SAPE  H13R15802   4.917   0.360   8.659
  144SAPE  H13S15803   4.939   0.328   8.844
  144SAPE  C21415804   5.005   0.166   8.723
  144SAPE  H14R15805   5.025   0.121   8.821
  144SAPE  C21515806   5.003   0.098   8.608
  144SAPE  H15R15807   5.021  -0.010   8.612
  144SAPE  C21615808   4.963   0.153   8.473
  144SAPE  H16R15809   5.015   0.098   8.393
  144SAPE  H16S15810   4.992   0.259   8.461
  144SAPE  C21715811   4.814   0.142   8.441
  144SAPE  H17R15812   4.754   0.206   8.510
  144SAPE  H17S15813   4.791   0.034   8.454
  144SAPE  C21815814   4.787   0.174   8.295
  144SAPE  H18R15815   4.818   0.091   8.227
  144SAPE  H18S15816   4.830   0.269   8.266
  144SAPE  C21915817   4.648   0.194   8.258
  144SAPE  H19R15818   4.627   0.251   8.167
  144SAPE  H19S15819   4.594   0.253   8.334
  144SAPE  C22015820   4.601   0.057   8.232
  144SAPE  H20R15821   4.637  -0.023   8.171
  144SAPE  H20S15822   4.519   0.061   8.163
  144SAPE  H20T15823   4.575   0.020   8.326
  144SAPE   C3315824   4.723   0.207   9.101
  144SAPE   H3X15825   4.705   0.105   9.059
  144SAPE   H3Y15826   4.825   0.243   9.077
  144SAPE   C3415827   4.630   0.303   9.030
  144SAPE   H4X15828   4.598   0.391   9.088
  144SAPE   H4Y15829   4.551   0.232   9.023
  144SAPE   C3515830   4.671   0.337   8.888
  144SAPE   H5X15831   4.693   0.240   8.837
  144SAPE   H5Y15832   4.759   0.400   8.895
  144SAPE   C3615833   4.567   0.417   8.812
  144SAPE   H6X15834   4.524   0.499   8.865
  144SAPE   H6Y15835   4.481   0.368   8.829
  144SAPE   C3715836   4.584   0.435   8.662
  144SAPE   H7X15837   4.491   0.470   8.610
  144SAPE   H7Y15838   4.619   0.342   8.615
  144SAPE   C3815839   4.684   0.540   8.647
  144SAPE   H8X15840   4.780   0.508   8.690
  144SAPE   H8Y15841   4.635   0.616   8.708
  144SAPE   C3915842   4.698   0.578   8.505
  144SAPE   H9X15843   4.599   0.619   8.471
  144SAPE   H9Y15844   4.722   0.491   8.443
  144SAPE  C31015845   4.825   0.658   8.489
  144SAPE  H10X15846   4.918   0.618   8.521
  144SAPE  H10Y15847   4.815   0.741   8.555
  144SAPE  C31115848   4.848   0.702   8.352
  144SAPE  H11X15849   4.900   0.803   8.341
  144SAPE  H11Y15850   4.737   0.715   8.338
  144SAPE  C31215851   4.877   0.609   8.233
  144SAPE  H12X15852   4.867   0.511   8.276
  144SAPE  H12Y15853   4.976   0.637   8.211
  144SAPE  C31315854   4.800   0.614   8.094
  144SAPE  H13X15855   4.696   0.609   8.134
  144SAPE  H13Y15856   4.812   0.519   8.041
  144SAPE  C31415857   4.831   0.731   7.986
  144SAPE  H14X15858   4.922   0.789   8.012
  144SAPE  H14Y15859   4.767   0.823   7.974
  144SAPE  C31515860   4.786   0.711   7.848
  144SAPE  H15X15861   4.742   0.802   7.799
  144SAPE  H15Y15862   4.706   0.635   7.857
  144SAPE  C31615863   4.915   0.676   7.788
  144SAPE  H16X15864   5.000   0.688   7.861
  144SAPE  H16Y15865   4.941   0.737   7.699
  144SAPE  C31715866   4.897   0.536   7.752
  144SAPE  H17X15867   4.837   0.529   7.660
  144SAPE  H17Y15868   4.849   0.476   7.835
  144SAPE  C31815869   5.031   0.486   7.736
  144SAPE  H18X15870   5.085   0.508   7.641
  144SAPE  H18Y15871   5.017   0.386   7.755
  144SAPE  H18Z15872   5.094   0.502   7.824
  145SAPE     N15873   1.676   0.542  10.215
  145SAPE   HN115874   1.762   0.578  10.168
  145SAPE   HN215875   1.605   0.618  10.223
  145SAPE   HN315876   1.699   0.510  10.311
  145SAPE   C1215877   1.617   0.419  10.146
  145SAPE  H12A15878   1.511   0.412  10.178
  145SAPE  H12B15879   1.671   0.333  10.189
  145SAPE   C1115880   1.622   0.424   9.991
  145SAPE  H11A15881   1.565   0.340   9.943
  145SAPE  H11B15882   1.728   0.414   9.958
  145SAPE     P15883   1.412   0.575   9.937
  145SAPE   O1315884   1.346   0.485   9.841
  145SAPE   O1415885   1.363   0.585  10.075
  145SAPE   O1215886   1.570   0.546   9.943
  145SAPE   O1115887   1.421   0.716   9.880
  145SAPE    C115888   1.428   0.837   9.956
  145SAPE    HA15889   1.328   0.870   9.991
  145SAPE    HB15890   1.506   0.836  10.031
  145SAPE    C215891   1.483   0.944   9.875
  145SAPE    HS15892   1.459   1.049   9.886
  145SAPE   O2115893   1.404   0.947   9.785
  145SAPE   C2115894   1.279   1.045   9.740
  145SAPE   O2215895   1.240   1.032   9.855
  145SAPE   C2215896   1.189   0.973   9.525
  145SAPE   H2R15897   1.101   0.911   9.510
  145SAPE   H2S15898   1.209   1.057   9.476
  145SAPE    C315899   1.629   0.917   9.824
  145SAPE    HX15900   1.691   0.939   9.912
  145SAPE    HY15901   1.640   0.989   9.743
  145SAPE   O3115902   1.672   0.788   9.781
  145SAPE   C3115903   1.727   0.764   9.661
  145SAPE   O3215904   1.734   0.831   9.564
  145SAPE   C3215905   1.782   0.635   9.637
  145SAPE   H2X15906   1.812   0.607   9.737
  145SAPE   H2Y15907   1.862   0.662   9.563
  145SAPE   C2315908   1.230   0.795   9.474
  145SAPE   H3R15909   1.281   0.722   9.547
  145SAPE   H3S15910   1.304   0.833   9.428
  145SAPE   C2415911   1.183   0.702   9.383
  145SAPE   H4R15912   1.130   0.782   9.341
  145SAPE   H4S15913   1.105   0.665   9.443
  145SAPE   C2515914   1.271   0.601   9.307
  145SAPE   H5R15915   1.292   0.522   9.382
  145SAPE   C2615916   1.343   0.601   9.190
  145SAPE   H6R15917   1.412   0.519   9.171
  145SAPE   C2715918   1.368   0.701   9.080
  145SAPE   H7R15919   1.466   0.753   9.084
  145SAPE   H7S15920   1.294   0.774   9.068
  145SAPE   C2815921   1.379   0.668   8.946
  145SAPE   H8R15922   1.444   0.586   8.947
  145SAPE   C2915923   1.362   0.751   8.847
  145SAPE   H9R15924   1.356   0.707   8.750
  145SAPE  C21015925   1.325   0.893   8.870
  145SAPE  H10R15926   1.274   0.920   8.960
  145SAPE  H10S15927   1.246   0.906   8.817
  145SAPE  C21115928   1.373   0.999   8.792
  145SAPE  H11R15929   1.439   1.049   8.856
  145SAPE  C21215930   1.338   1.044   8.671
  145SAPE  H12R15931   1.397   1.117   8.633
  145SAPE  C21315932   1.246   1.020   8.561
  145SAPE  H13R15933   1.244   1.091   8.479
  145SAPE  H13S15934   1.146   1.070   8.572
  145SAPE  C21415935   1.279   0.884   8.518
  145SAPE  H14R15936   1.297   0.804   8.591
  145SAPE  C21515937   1.241   0.855   8.400
  145SAPE  H15R15938   1.227   0.749   8.392
  145SAPE  C21615939   1.161   0.956   8.316
  145SAPE  H16R15940   1.083   0.987   8.372
  145SAPE  H16S15941   1.060   0.941   8.268
  145SAPE  C21715942   1.183   0.990   8.180
  145SAPE  H17R15943   1.266   1.042   8.228
  145SAPE  H17S15944   1.096   1.051   8.139
  145SAPE  C21815945   1.246   0.892   8.086
  145SAPE  H18R15946   1.188   0.807   8.067
  145SAPE  H18S15947   1.329   0.830   8.120
  145SAPE  C21915948   1.278   0.991   7.982
  145SAPE  H19R15949   1.346   1.056   8.038
  145SAPE  H19S15950   1.190   1.049   7.950
  145SAPE  C22015951   1.381   0.957   7.886
  145SAPE  H20R15952   1.399   1.013   7.792
  145SAPE  H20S15953   1.339   0.910   7.808
  145SAPE  H20T15954   1.411   0.858   7.918
  145SAPE   C3315955   1.698   0.529   9.568
  145SAPE   H3X15956   1.593   0.532   9.605
  145SAPE   H3Y15957   1.730   0.433   9.603
  145SAPE   C3415958   1.723   0.535   9.413
  145SAPE   H4X15959   1.831   0.531   9.390
  145SAPE   H4Y15960   1.688   0.626   9.365
  145SAPE   C3515961   1.658   0.427   9.332
  145SAPE   H5X15962   1.560   0.387   9.371
  145SAPE   H5Y15963   1.746   0.363   9.344
  145SAPE   C3615964   1.680   0.434   9.183
  145SAPE   H6X15965   1.789   0.428   9.161
  145SAPE   H6Y15966   1.644   0.535   9.163
  145SAPE   C3715967   1.622   0.325   9.094
  145SAPE   H7X15968   1.516   0.327   9.096
  145SAPE   H7Y15969   1.634   0.225   9.130
  145SAPE   C3815970   1.684   0.320   8.955
  145SAPE   H8X15971   1.639   0.233   8.905
  145SAPE   H8Y15972   1.793   0.300   8.961
  145SAPE   C3915973   1.644   0.431   8.860
  145SAPE   H9X15974   1.683   0.528   8.893
  145SAPE   H9Y15975   1.533   0.437   8.858
  145SAPE  C31015976   1.694   0.401   8.718
  145SAPE  H10X15977   1.626   0.326   8.672
  145SAPE  H10Y15978   1.796   0.357   8.725
  145SAPE  C31115979   1.691   0.524   8.629
  145SAPE  H11X15980   1.757   0.599   8.667
  145SAPE  H11Y15981   1.591   0.571   8.633
  145SAPE  C31215982   1.731   0.505   8.484
  145SAPE  H12X15983   1.669   0.425   8.439
  145SAPE  H12Y15984   1.839   0.480   8.476
  145SAPE  C31315985   1.703   0.632   8.404
  145SAPE  H13X15986   1.760   0.719   8.444
  145SAPE  H13Y15987   1.594   0.655   8.414
  145SAPE  C31415988   1.747   0.612   8.259
  145SAPE  H14X15989   1.852   0.575   8.259
  145SAPE  H14Y15990   1.747   0.713   8.214
  145SAPE  C31515991   1.667   0.510   8.176
  145SAPE  H15X15992   1.706   0.407   8.199
  145SAPE  H15Y15993   1.687   0.528   8.069
  145SAPE  C31615994   1.515   0.520   8.194
  145SAPE  H16X15995   1.476   0.622   8.198
  145SAPE  H16Y15996   1.495   0.465   8.288
  145SAPE  C31715997   1.428   0.465   8.085
  145SAPE  H17X15998   1.430   0.513   7.986
  145SAPE  H17Y15999   1.326   0.444   8.126
  145SAPE  C31816000   1.472   0.338   8.052
  145SAPE  H18X16001   1.568   0.330   7.999
  145SAPE  H18Y16002   1.398   0.300   7.976
  145SAPE  H18Z16003   1.478   0.274   8.144
  146SAPE     N16004   6.690   0.523  10.166
  146SAPE   HN116005   6.587   0.517  10.181
  146SAPE   HN216006   6.738   0.480  10.248
  146SAPE   HN316007   6.717   0.624  10.160
  146SAPE   C1216008   6.718   0.452  10.036
  146SAPE  H12A16009   6.825   0.463  10.011
  146SAPE  H12B16010   6.663   0.507   9.957
  146SAPE   C1116011   6.688   0.300  10.039
  146SAPE  H11A16012   6.748   0.255  10.119
  146SAPE  H11B16013   6.725   0.253   9.946
  146SAPE     P16014   6.452   0.231   9.949
  146SAPE   O1316015   6.466   0.089   9.921
  146SAPE   O1416016   6.320   0.285   9.983
  146SAPE   O1216017   6.552   0.268  10.068
  146SAPE   O1116018   6.521   0.314   9.833
  146SAPE    C116019   6.519   0.270   9.697
  146SAPE    HA16020   6.516   0.158   9.686
  146SAPE    HB16021   6.436   0.320   9.642
  146SAPE    C216022   6.649   0.308   9.626
  146SAPE    HS16023   6.730   0.255   9.677
  146SAPE   O2116024   6.668   0.446   9.645
  146SAPE   C2116025   6.788   0.485   9.630
  146SAPE   O2216026   6.886   0.420   9.601
  146SAPE   C2216027   6.778   0.629   9.669
  146SAPE   H2R16028   6.772   0.650   9.774
  146SAPE   H2S16029   6.854   0.677   9.618
  146SAPE    C316030   6.643   0.270   9.477
  146SAPE    HX16031   6.637   0.159   9.481
  146SAPE    HY16032   6.736   0.302   9.424
  146SAPE   O3116033   6.526   0.325   9.412
  146SAPE   C3116034   6.525   0.291   9.284
  146SAPE   O3216035   6.606   0.217   9.231
  146SAPE   C3216036   6.409   0.360   9.210
  146SAPE   H2X16037   6.454   0.433   9.141
  146SAPE   H2Y16038   6.347   0.417   9.282
  146SAPE   C2316039   6.669   0.709   9.614
  146SAPE   H3R16040   6.666   0.816   9.623
  146SAPE   H3S16041   6.570   0.661   9.626
  146SAPE   C2416042   6.707   0.730   9.481
  146SAPE   H4R16043   6.612   0.752   9.444
  146SAPE   H4S16044   6.645   0.620   9.465
  146SAPE   C2516045   6.851   0.801   9.395
  146SAPE   H5R16046   6.900   0.865   9.459
  146SAPE   C2616047   6.913   0.784   9.245
  146SAPE   H6R16048   7.020   0.786   9.240
  146SAPE   C2716049   6.863   0.679   9.094
  146SAPE   H7R16050   6.855   0.559   9.106
  146SAPE   H7S16051   6.935   0.621   9.041
  146SAPE   C2816052   6.719   0.648   9.029
  146SAPE   H8R16053   6.633   0.634   9.096
  146SAPE   C2916054   6.661   0.609   8.924
  146SAPE   H9R16055   6.558   0.648   8.911
  146SAPE  C21016056   6.764   0.585   8.829
  146SAPE  H10R16057   6.821   0.503   8.878
  146SAPE  H10S16058   6.832   0.669   8.820
  146SAPE  C21116059   6.708   0.554   8.698
  146SAPE  H11R16060   6.694   0.637   8.631
  146SAPE  C21216061   6.676   0.435   8.657
  146SAPE  H12R16062   6.635   0.419   8.556
  146SAPE  C21316063   6.694   0.318   8.744
  146SAPE  H13R16064   6.603   0.291   8.796
  146SAPE  H13S16065   6.779   0.317   8.815
  146SAPE  C21416066   6.707   0.211   8.653
  146SAPE  H14R16067   6.812   0.172   8.663
  146SAPE  C21516068   6.603   0.143   8.594
  146SAPE  H15R16069   6.607   0.058   8.526
  146SAPE  C21616070   6.467   0.132   8.579
  146SAPE  H16R16071   6.449   0.190   8.667
  146SAPE  H16S16072   6.445   0.021   8.580
  146SAPE  C21716073   6.449   0.206   8.444
  146SAPE  H17R16074   6.495   0.306   8.445
  146SAPE  H17S16075   6.340   0.220   8.451
  146SAPE  C21816076   6.492   0.149   8.304
  146SAPE  H18R16077   6.490   0.039   8.313
  146SAPE  H18S16078   6.597   0.175   8.274
  146SAPE  C21916079   6.399   0.194   8.189
  146SAPE  H19R16080   6.294   0.197   8.228
  146SAPE  H19S16081   6.405   0.124   8.102
  146SAPE  C22016082   6.429   0.334   8.137
  146SAPE  H20R16083   6.350   0.370   8.066
  146SAPE  H20S16084   6.526   0.331   8.086
  146SAPE  H20T16085   6.439   0.404   8.222
  146SAPE   C3316086   6.325   0.257   9.128
  146SAPE   H3X16087   6.292   0.176   9.196
  146SAPE   H3Y16088   6.386   0.206   9.050
  146SAPE   C3416089   6.207   0.319   9.052
  146SAPE   H4X16090   6.165   0.404   9.112
  146SAPE   H4Y16091   6.125   0.245   9.040
  146SAPE   C3516092   6.252   0.363   8.912
  146SAPE   H5X16093   6.221   0.291   8.833
  146SAPE   H5Y16094   6.362   0.374   8.907
  146SAPE   C3616095   6.205   0.501   8.877
  146SAPE   H6X16096   6.199   0.561   8.969
  146SAPE   H6Y16097   6.109   0.491   8.837
  146SAPE   C3716098   6.276   0.571   8.764
  146SAPE   H7X16099   6.384   0.569   8.784
  146SAPE   H7Y16100   6.244   0.676   8.764
  146SAPE   C3816101   6.248   0.516   8.624
  146SAPE   H8X16102   6.141   0.493   8.607
  146SAPE   H8Y16103   6.306   0.425   8.605
  146SAPE   C3916104   6.297   0.616   8.521
  146SAPE   H9X16105   6.264   0.719   8.549
  146SAPE   H9Y16106   6.254   0.584   8.423
  146SAPE  C31016107   6.443   0.619   8.493
  146SAPE  H10X16108   6.465   0.520   8.449
  146SAPE  H10Y16109   6.486   0.635   8.594
  146SAPE  C31116110   6.476   0.726   8.388
  146SAPE  H11X16111   6.488   0.822   8.439
  146SAPE  H11Y16112   6.388   0.731   8.319
  146SAPE  C31216113   6.593   0.698   8.294
  146SAPE  H12X16114   6.613   0.787   8.228
  146SAPE  H12Y16115   6.566   0.615   8.225
  146SAPE  C31316116   6.721   0.661   8.362
  146SAPE  H13X16117   6.719   0.554   8.390
  146SAPE  H13Y16118   6.743   0.716   8.458
  146SAPE  C31416119   6.834   0.708   8.274
  146SAPE  H14X16120   6.903   0.657   8.328
  146SAPE  H14Y16121   6.859   0.814   8.292
  146SAPE  C31516122   6.881   0.660   8.138
  146SAPE  H15X16123   6.986   0.700   8.126
  146SAPE  H15Y16124   6.814   0.716   8.072
  146SAPE  C31616125   6.900   0.512   8.106
  146SAPE  H16X16126   6.808   0.453   8.127
  146SAPE  H16Y16127   6.986   0.467   8.160
  146SAPE  C31716128   6.938   0.493   7.960
  146SAPE  H17X16129   7.003   0.574   7.920
  146SAPE  H17Y16130   6.841   0.505   7.915
  146SAPE  C31816131   6.998   0.356   7.928
  146SAPE  H18X16132   6.923   0.276   7.948
  146SAPE  H18Y16133   7.086   0.337   7.991
  146SAPE  H18Z16134   7.029   0.347   7.822
  147SAPE     N16135   3.597   3.963   5.967
  147SAPE   HN116136   3.655   3.949   5.881
  147SAPE   HN216137   3.631   3.899   6.042
  147SAPE   HN316138   3.494   3.957   5.956
  147SAPE   C1216139   3.623   4.101   6.010
  147SAPE  H12A16140   3.541   4.124   6.083
  147SAPE  H12B16141   3.612   4.166   5.920
  147SAPE   C1116142   3.766   4.104   6.064
  147SAPE  H11A16143   3.778   4.045   6.159
  147SAPE  H11B16144   3.785   4.209   6.092
  147SAPE     P16145   3.954   3.941   5.985
  147SAPE   O1316146   3.857   3.829   5.984
  147SAPE   O1416147   4.061   3.940   5.884
  147SAPE   O1216148   3.860   4.067   5.963
  147SAPE   O1116149   4.001   3.957   6.133
  147SAPE    C116150   4.085   4.063   6.174
  147SAPE    HA16151   4.176   4.071   6.111
  147SAPE    HB16152   4.031   4.161   6.171
  147SAPE    C216153   4.127   4.033   6.317
  147SAPE    HS16154   4.197   3.946   6.321
  147SAPE   O2116155   4.007   4.010   6.392
  147SAPE   C2116156   4.012   3.931   6.494
  147SAPE   O2216157   4.104   3.858   6.527
  147SAPE   C2216158   3.887   3.955   6.577
  147SAPE   H2R16159   3.850   3.856   6.608
  147SAPE   H2S16160   3.917   4.008   6.669
  147SAPE    C316161   4.203   4.154   6.365
  147SAPE    HX16162   4.155   4.251   6.344
  147SAPE    HY16163   4.303   4.151   6.327
  147SAPE   O3116164   4.230   4.150   6.491
  147SAPE   C3116165   4.129   4.188   6.566
  147SAPE   O3216166   4.016   4.208   6.553
  147SAPE   C3216167   4.159   4.184   6.683
  147SAPE   H2X16168   4.199   4.278   6.709
  147SAPE   H2Y16169   4.242   4.091   6.664
  147SAPE   C2316170   3.777   4.041   6.508
  147SAPE   H3R16171   3.741   3.992   6.415
  147SAPE   H3S16172   3.822   4.137   6.475
  147SAPE   C2416173   3.660   4.068   6.604
  147SAPE   H4R16174   3.587   4.139   6.560
  147SAPE   H4S16175   3.699   4.112   6.698
  147SAPE   C2516176   3.590   3.939   6.627
  147SAPE   H5R16177   3.527   3.914   6.546
  147SAPE   C2616178   3.605   3.845   6.720
  147SAPE   H6R16179   3.540   3.756   6.730
  147SAPE   C2716180   3.698   3.846   6.828
  147SAPE   H7R16181   3.751   3.937   6.832
  147SAPE   H7S16182   3.755   3.752   6.842
  147SAPE   C2816183   3.624   3.881   6.939
  147SAPE   H8R16184   3.540   3.799   6.935
  147SAPE   C2916185   3.672   3.965   7.046
  147SAPE   H9R16186   3.657   3.938   7.153
  147SAPE  C21016187   3.762   4.047   7.117
  147SAPE  H10R16188   3.798   4.056   7.014
  147SAPE  H10S16189   3.815   3.983   7.193
  147SAPE  C21116190   3.668   4.142   7.188
  147SAPE  H11R16191   3.600   4.187   7.119
  147SAPE  C21216192   3.627   4.173   7.309
  147SAPE  H12R16193   3.530   4.227   7.311
  147SAPE  C21316194   3.657   4.130   7.442
  147SAPE  H13R16195   3.571   4.070   7.474
  147SAPE  H13S16196   3.652   4.228   7.492
  147SAPE  C21416197   3.788   4.060   7.456
  147SAPE  H14R16198   3.778   3.952   7.452
  147SAPE  C21516199   3.911   4.115   7.466
  147SAPE  H15R16200   3.998   4.051   7.481
  147SAPE  C21616201   3.944   4.260   7.465
  147SAPE  H16R16202   3.850   4.313   7.450
  147SAPE  H16S16203   4.010   4.284   7.379
  147SAPE  C21716204   4.006   4.314   7.594
  147SAPE  H17R16205   3.931   4.308   7.677
  147SAPE  H17S16206   4.023   4.422   7.575
  147SAPE  C21816207   4.133   4.243   7.643
  147SAPE  H18R16208   4.216   4.247   7.568
  147SAPE  H18S16209   4.103   4.138   7.660
  147SAPE  C21916210   4.187   4.293   7.777
  147SAPE  H19R16211   4.110   4.282   7.856
  147SAPE  H19S16212   4.200   4.402   7.762
  147SAPE  C22016213   4.320   4.227   7.819
  147SAPE  H20R16214   4.391   4.235   7.734
  147SAPE  H20S16215   4.314   4.119   7.844
  147SAPE  H20T16216   4.367   4.276   7.907
  147SAPE   C3316217   4.063   4.214   6.820
  147SAPE   H3X16218   3.972   4.166   6.812
  147SAPE   H3Y16219   4.060   4.329   6.790
  147SAPE   C3416220   4.095   4.171   6.995
  147SAPE   H4X16221   4.116   4.266   7.051
  147SAPE   H4Y16222   4.173   4.080   6.967
  147SAPE   C3516223   4.169   4.072   7.096
  147SAPE   H5X16224   4.198   4.107   7.196
  147SAPE   H5Y16225   4.272   4.023   7.096
  147SAPE   C3616226   4.040   3.998   7.074
  147SAPE   H6X16227   4.011   3.998   6.961
  147SAPE   H6Y16228   3.974   4.068   7.127
  147SAPE   C3716229   4.054   3.859   7.105
  147SAPE   H7X16230   4.121   3.812   7.030
  147SAPE   H7Y16231   3.953   3.816   7.096
  147SAPE   C3816232   4.114   3.847   7.240
  147SAPE   H8X16233   4.042   3.889   7.315
  147SAPE   H8Y16234   4.213   3.897   7.252
  147SAPE   C3916235   4.145   3.706   7.268
  147SAPE   H9X16236   4.206   3.654   7.193
  147SAPE   H9Y16237   4.048   3.654   7.264
  147SAPE  C31016238   4.221   3.706   7.398
  147SAPE  H10X16239   4.316   3.754   7.380
  147SAPE  H10Y16240   4.238   3.599   7.431
  147SAPE  C31116241   4.167   3.795   7.503
  147SAPE  H11X16242   4.060   3.771   7.507
  147SAPE  H11Y16243   4.142   3.896   7.491
  147SAPE  C31216244   4.243   3.804   7.632
  147SAPE  H12X16245   4.350   3.833   7.625
  147SAPE  H12Y16246   4.281   3.703   7.660
  147SAPE  C31316247   4.144   3.890   7.736
  147SAPE  H13X16248   4.088   3.952   7.677
  147SAPE  H13Y16249   4.236   3.941   7.775
  147SAPE  C31416250   4.011   3.848   7.854
  147SAPE  H14X16251   4.005   3.755   7.931
  147SAPE  H14Y16252   3.937   3.791   7.803
  147SAPE  C31516253   4.004   3.898   7.997
  147SAPE  H15X16254   4.089   3.922   8.066
  147SAPE  H15Y16255   3.966   3.823   8.069
  147SAPE  C31616256   3.956   4.015   7.942
  147SAPE  H16X16257   4.039   4.058   7.879
  147SAPE  H16Y16258   3.949   4.060   8.038
  147SAPE  C31716259   3.828   3.980   7.870
  147SAPE  H17X16260   3.771   3.906   7.933
  147SAPE  H17Y16261   3.842   3.938   7.767
  147SAPE  C31816262   3.758   4.106   7.840
  147SAPE  H18X16263   3.693   4.088   7.753
  147SAPE  H18Y16264   3.836   4.181   7.815
  147SAPE  H18Z16265   3.698   4.140   7.926
  148SAPE     N16266   3.680   3.028   5.749
  148SAPE   HN116267   3.741   2.954   5.786
  148SAPE   HN216268   3.599   3.037   5.814
  148SAPE   HN316269   3.645   3.006   5.653
  148SAPE   C1216270   3.759   3.156   5.752
  148SAPE  H12A16271   3.692   3.240   5.723
  148SAPE  H12B16272   3.846   3.148   5.683
  148SAPE   C1116273   3.802   3.182   5.895
  148SAPE  H11A16274   3.869   3.272   5.895
  148SAPE  H11B16275   3.858   3.094   5.936
  148SAPE     P16276   3.690   3.231   6.129
  148SAPE   O1316277   3.778   3.345   6.155
  148SAPE   O1416278   3.551   3.228   6.179
  148SAPE   O1216279   3.683   3.203   5.970
  148SAPE   O1116280   3.762   3.101   6.176
  148SAPE    C116281   3.713   2.978   6.130
  148SAPE    HA16282   3.606   2.959   6.155
  148SAPE    HB16283   3.723   2.963   6.020
  148SAPE    C216284   3.800   2.870   6.187
  148SAPE    HS16285   3.731   2.793   6.154
  148SAPE   O2116286   3.820   2.862   6.329
  148SAPE   C2116287   3.713   2.832   6.400
  148SAPE   O2216288   3.603   2.808   6.355
  148SAPE   C2216289   3.746   2.823   6.549
  148SAPE   H2R16290   3.817   2.744   6.576
  148SAPE   H2S16291   3.785   2.923   6.575
  148SAPE    C316292   3.945   2.867   6.125
  148SAPE    HX16293   3.936   2.854   6.015
  148SAPE    HY16294   4.012   2.783   6.157
  148SAPE   O3116295   4.006   2.993   6.146
  148SAPE   C3116296   4.066   3.008   6.262
  148SAPE   O3216297   4.097   2.919   6.339
  148SAPE   C3216298   4.091   3.154   6.281
  148SAPE   H2X16299   4.038   3.214   6.207
  148SAPE   H2Y16300   4.189   3.188   6.254
  148SAPE   C2316301   3.618   2.789   6.623
  148SAPE   H3R16302   3.566   2.697   6.589
  148SAPE   H3S16303   3.555   2.871   6.579
  148SAPE   C2416304   3.621   2.787   6.781
  148SAPE   H4R16305   3.521   2.755   6.818
  148SAPE   H4S16306   3.635   2.890   6.822
  148SAPE   C2516307   3.699   2.681   6.846
  148SAPE   H5R16308   3.702   2.591   6.785
  148SAPE   C2616309   3.743   2.681   6.973
  148SAPE   H6R16310   3.801   2.593   7.004
  148SAPE   C2716311   3.723   2.791   7.077
  148SAPE   H7R16312   3.694   2.749   7.176
  148SAPE   H7S16313   3.637   2.859   7.053
  148SAPE   C2816314   3.848   2.875   7.081
  148SAPE   H8R16315   3.862   2.939   6.993
  148SAPE   C2916316   3.950   2.881   7.168
  148SAPE   H9R16317   4.019   2.962   7.146
  148SAPE  C21016318   3.988   2.809   7.296
  148SAPE  H10R16319   3.966   2.881   7.378
  148SAPE  H10S16320   4.100   2.802   7.297
  148SAPE  C21116321   3.941   2.668   7.323
  148SAPE  H11R16322   4.009   2.593   7.281
  148SAPE  C21216323   3.838   2.628   7.401
  148SAPE  H12R16324   3.823   2.520   7.421
  148SAPE  C21316325   3.749   2.720   7.479
  148SAPE  H13R16326   3.713   2.807   7.419
  148SAPE  H13S16327   3.810   2.764   7.560
  148SAPE  C21416328   3.628   2.653   7.538
  148SAPE  H14R16329   3.573   2.587   7.469
  148SAPE  C21516330   3.594   2.643   7.666
  148SAPE  H15R16331   3.501   2.587   7.686
  148SAPE  C21616332   3.662   2.691   7.792
  148SAPE  H16R16333   3.588   2.711   7.874
  148SAPE  H16S16334   3.725   2.779   7.776
  148SAPE  C21716335   3.770   2.595   7.842
  148SAPE  H17R16336   3.829   2.532   7.775
  148SAPE  H17S16337   3.711   2.521   7.867
  148SAPE  C21816338   3.831   2.619   7.976
  148SAPE  H18R16339   3.860   2.521   8.025
  148SAPE  H18S16340   3.763   2.676   8.042
  148SAPE  C21916341   3.955   2.690   7.942
  148SAPE  H19R16342   3.934   2.796   7.912
  148SAPE  H19S16343   3.995   2.641   7.851
  148SAPE  C22016344   4.047   2.673   8.060
  148SAPE  H20R16345   4.093   2.577   8.072
  148SAPE  H20S16346   3.995   2.713   8.151
  148SAPE  H20T16347   4.139   2.732   8.042
  148SAPE   C3316348   4.076   3.201   6.425
  148SAPE   H3X16349   4.113   3.305   6.416
  148SAPE   H3Y16350   4.130   3.144   6.504
  148SAPE   C3416351   3.946   3.182   6.487
  148SAPE   H4X16352   3.947   3.077   6.525
  148SAPE   H4Y16353   3.877   3.194   6.402
  148SAPE   C3516354   3.931   3.283   6.598
  148SAPE   H5X16355   3.985   3.377   6.572
  148SAPE   H5Y16356   3.981   3.244   6.690
  148SAPE   C3616357   3.787   3.311   6.634
  148SAPE   H6X16358   3.726   3.358   6.553
  148SAPE   H6Y16359   3.796   3.383   6.718
  148SAPE   C3716360   3.718   3.185   6.677
  148SAPE   H7X16361   3.781   3.128   6.748
  148SAPE   H7Y16362   3.695   3.120   6.589
  148SAPE   C3816363   3.591   3.209   6.752
  148SAPE   H8X16364   3.563   3.102   6.771
  148SAPE   H8Y16365   3.515   3.261   6.689
  148SAPE   C3916366   3.609   3.277   6.886
  148SAPE   H9X16367   3.509   3.296   6.920
  148SAPE   H9Y16368   3.654   3.377   6.879
  148SAPE  C31016369   3.658   3.187   7.000
  148SAPE  H10X16370   3.743   3.127   6.962
  148SAPE  H10Y16371   3.576   3.115   7.024
  148SAPE  C31116372   3.696   3.268   7.126
  148SAPE  H11X16373   3.626   3.354   7.132
  148SAPE  H11Y16374   3.797   3.313   7.115
  148SAPE  C31216375   3.702   3.193   7.260
  148SAPE  H12X16376   3.758   3.251   7.335
  148SAPE  H12Y16377   3.758   3.097   7.247
  148SAPE  C31316378   3.568   3.161   7.321
  148SAPE  H13X16379   3.533   3.087   7.246
  148SAPE  H13Y16380   3.495   3.246   7.323
  148SAPE  C31416381   3.574   3.099   7.463
  148SAPE  H14X16382   3.655   3.025   7.469
  148SAPE  H14Y16383   3.484   3.038   7.483
  148SAPE  C31516384   3.576   3.202   7.576
  148SAPE  H15X16385   3.476   3.249   7.585
  148SAPE  H15Y16386   3.644   3.288   7.559
  148SAPE  C31616387   3.595   3.146   7.715
  148SAPE  H16X16388   3.527   3.061   7.740
  148SAPE  H16Y16389   3.571   3.230   7.784
  148SAPE  C31716390   3.735   3.109   7.741
  148SAPE  H17X16391   3.811   3.180   7.699
  148SAPE  H17Y16392   3.760   3.010   7.694
  148SAPE  C31816393   3.753   3.100   7.888
  148SAPE  H18X16394   3.698   3.022   7.945
  148SAPE  H18Y16395   3.771   3.191   7.949
  148SAPE  H18Z16396   3.849   3.058   7.865
  149SAPE     N16397   2.986   3.445   5.831
  149SAPE   HN116398   2.983   3.347   5.864
  149SAPE   HN216399   2.889   3.483   5.821
  149SAPE   HN316400   3.034   3.449   5.739
  149SAPE   C1216401   3.060   3.523   5.937
  149SAPE  H12A16402   3.156   3.561   5.895
  149SAPE  H12B16403   3.079   3.449   6.017
  149SAPE   C1116404   2.980   3.643   5.990
  149SAPE  H11A16405   2.888   3.604   6.038
  149SAPE  H11B16406   2.953   3.707   5.902
  149SAPE     P16407   3.157   3.834   6.041
  149SAPE   O1316408   3.189   3.815   5.897
  149SAPE   O1416409   3.109   3.965   6.085
  149SAPE   O1216410   3.057   3.717   6.086
  149SAPE   O1116411   3.288   3.797   6.122
  149SAPE    C116412   3.371   3.887   6.197
  149SAPE    HA16413   3.475   3.868   6.165
  149SAPE    HB16414   3.350   3.995   6.178
  149SAPE    C216415   3.375   3.860   6.350
  149SAPE    HS16416   3.478   3.887   6.381
  149SAPE   O2116417   3.332   3.729   6.384
  149SAPE   C2116418   3.333   3.703   6.514
  149SAPE   O2216419   3.388   3.761   6.600
  149SAPE   C2216420   3.250   3.593   6.553
  149SAPE   H2R16421   3.151   3.637   6.570
  149SAPE   H2S16422   3.248   3.543   6.456
  149SAPE    C316423   3.291   3.947   6.429
  149SAPE    HX16424   3.354   4.042   6.416
  149SAPE    HY16425   3.293   3.951   6.540
  149SAPE   O3116426   3.159   3.929   6.361
  149SAPE   C3116427   3.063   3.917   6.443
  149SAPE   O3216428   3.085   3.892   6.562
  149SAPE   C3216429   2.920   3.944   6.378
  149SAPE   H2X16430   2.921   3.900   6.278
  149SAPE   H2Y16431   2.889   4.050   6.359
  149SAPE   C2316432   3.307   3.502   6.668
  149SAPE   H3R16433   3.410   3.468   6.649
  149SAPE   H3S16434   3.249   3.408   6.661
  149SAPE   C2416435   3.286   3.553   6.813
  149SAPE   H4R16436   3.179   3.541   6.836
  149SAPE   H4S16437   3.313   3.661   6.822
  149SAPE   C2516438   3.355   3.473   6.917
  149SAPE   H5R16439   3.349   3.366   6.904
  149SAPE   C2616440   3.398   3.511   7.036
  149SAPE   H6R16441   3.449   3.441   7.104
  149SAPE   C2716442   3.385   3.646   7.089
  149SAPE   H7R16443   3.340   3.645   7.190
  149SAPE   H7S16444   3.325   3.722   7.035
  149SAPE   C2816445   3.521   3.659   7.131
  149SAPE   H8R16446   3.605   3.640   7.051
  149SAPE   C2916447   3.529   3.780   7.165
  149SAPE   H9R16448   3.643   3.775   7.151
  149SAPE  C21016449   3.443   3.927   7.169
  149SAPE  H10R16450   3.493   3.981   7.251
  149SAPE  H10S16451   3.351   3.915   7.213
  149SAPE  C21116452   3.415   4.067   7.080
  149SAPE  H11R16453   3.492   4.094   7.003
  149SAPE  C21216454   3.339   4.100   6.980
  149SAPE  H12R16455   3.343   4.192   6.917
  149SAPE  C21316456   3.274   3.981   6.941
  149SAPE  H13R16457   3.297   3.894   6.998
  149SAPE  H13S16458   3.278   3.967   6.835
  149SAPE  C21416459   3.151   3.944   6.976
  149SAPE  H14R16460   3.098   3.972   6.887
  149SAPE  C21516461   3.088   3.916   7.087
  149SAPE  H15R16462   3.068   4.013   7.100
  149SAPE  C21616463   3.085   3.901   7.225
  149SAPE  H16R16464   3.182   3.864   7.230
  149SAPE  H16S16465   2.983   3.870   7.253
  149SAPE  C21716466   3.097   4.000   7.314
  149SAPE  H17R16467   2.987   4.043   7.314
  149SAPE  H17S16468   3.179   4.056   7.257
  149SAPE  C21816469   3.164   3.989   7.448
  149SAPE  H18R16470   3.146   4.078   7.504
  149SAPE  H18S16471   3.274   3.986   7.453
  149SAPE  C21916472   3.090   3.923   7.548
  149SAPE  H19R16473   3.097   3.834   7.485
  149SAPE  H19S16474   2.987   3.964   7.556
  149SAPE  C22016475   3.176   3.927   7.672
  149SAPE  H20R16476   3.175   4.023   7.729
  149SAPE  H20S16477   3.281   3.910   7.640
  149SAPE  H20T16478   3.139   3.839   7.728
  149SAPE   C3316479   2.815   3.884   6.470
  149SAPE   H3X16480   2.715   3.884   6.423
  149SAPE   H3Y16481   2.806   3.946   6.560
  149SAPE   C3416482   2.854   3.746   6.516
  149SAPE   H4X16483   2.939   3.742   6.589
  149SAPE   H4Y16484   2.884   3.683   6.430
  149SAPE   C3516485   2.739   3.678   6.575
  149SAPE   H5X16486   2.678   3.621   6.505
  149SAPE   H5Y16487   2.663   3.713   6.638
  149SAPE   C3616488   2.778   3.595   6.682
  149SAPE   H6X16489   2.831   3.531   6.625
  149SAPE   H6Y16490   2.685   3.543   6.703
  149SAPE   C3716491   2.855   3.626   6.805
  149SAPE   H7X16492   2.783   3.654   6.883
  149SAPE   H7Y16493   2.957   3.662   6.792
  149SAPE   C3816494   2.894   3.514   6.885
  149SAPE   H8X16495   2.972   3.467   6.817
  149SAPE   H8Y16496   2.789   3.465   6.898
  149SAPE   C3916497   2.962   3.522   7.019
  149SAPE   H9X16498   3.071   3.529   7.010
  149SAPE   H9Y16499   2.957   3.431   7.071
  149SAPE  C31016500   2.885   3.570   7.136
  149SAPE  H10X16501   2.808   3.498   7.175
  149SAPE  H10Y16502   2.834   3.654   7.088
  149SAPE  C31116503   2.987   3.608   7.241
  149SAPE  H11X16504   2.935   3.666   7.319
  149SAPE  H11Y16505   3.066   3.671   7.195
  149SAPE  C31216506   3.059   3.494   7.308
  149SAPE  H12X16507   3.141   3.456   7.242
  149SAPE  H12Y16508   2.988   3.411   7.331
  149SAPE  C31316509   3.118   3.542   7.439
  149SAPE  H13X16510   3.043   3.603   7.494
  149SAPE  H13Y16511   3.204   3.606   7.415
  149SAPE  C31416512   3.158   3.425   7.527
  149SAPE  H14X16513   3.238   3.362   7.482
  149SAPE  H14Y16514   3.065   3.367   7.546
  149SAPE  C31516515   3.220   3.469   7.657
  149SAPE  H15X16516   3.224   3.379   7.721
  149SAPE  H15Y16517   3.150   3.542   7.701
  149SAPE  C31616518   3.359   3.532   7.638
  149SAPE  H16X16519   3.345   3.632   7.592
  149SAPE  H16Y16520   3.421   3.469   7.570
  149SAPE  C31716521   3.440   3.548   7.768
  149SAPE  H17X16522   3.543   3.575   7.736
  149SAPE  H17Y16523   3.449   3.452   7.823
  149SAPE  C31816524   3.391   3.661   7.859
  149SAPE  H18X16525   3.457   3.672   7.948
  149SAPE  H18Y16526   3.288   3.642   7.894
  149SAPE  H18Z16527   3.393   3.756   7.801
  150SAPE     N16528   2.444   4.448   5.835
  150SAPE   HN116529   2.512   4.520   5.804
  150SAPE   HN216530   2.355   4.458   5.782
  150SAPE   HN316531   2.430   4.448   5.938
  150SAPE   C1216532   2.510   4.316   5.806
  150SAPE  H12A16533   2.606   4.318   5.860
  150SAPE  H12B16534   2.533   4.315   5.698
  150SAPE   C1116535   2.425   4.196   5.855
  150SAPE  H11A16536   2.473   4.098   5.828
  150SAPE  H11B16537   2.328   4.192   5.803
  150SAPE     P16538   2.480   4.116   6.099
  150SAPE   O1316539   2.451   3.976   6.063
  150SAPE   O1416540   2.619   4.164   6.100
  150SAPE   O1216541   2.401   4.210   5.995
  150SAPE   O1116542   2.412   4.158   6.235
  150SAPE    C116543   2.357   4.289   6.245
  150SAPE    HA16544   2.434   4.366   6.222
  150SAPE    HB16545   2.274   4.300   6.173
  150SAPE    C216546   2.295   4.320   6.382
  150SAPE    HS16547   2.249   4.421   6.369
  150SAPE   O2116548   2.404   4.315   6.480
  150SAPE   C2116549   2.373   4.377   6.593
  150SAPE   O2216550   2.265   4.425   6.611
  150SAPE   C2216551   2.484   4.373   6.697
  150SAPE   H2R16552   2.580   4.385   6.642
  150SAPE   H2S16553   2.479   4.458   6.769
  150SAPE    C316554   2.179   4.222   6.417
  150SAPE    HX16555   2.104   4.219   6.335
  150SAPE    HY16556   2.126   4.256   6.509
  150SAPE   O3116557   2.231   4.093   6.442
  150SAPE   C3116558   2.150   3.992   6.427
  150SAPE   O3216559   2.038   3.989   6.383
  150SAPE   C3216560   2.212   3.875   6.488
  150SAPE   H2X16561   2.315   3.914   6.507
  150SAPE   H2Y16562   2.217   3.791   6.415
  150SAPE   C2316563   2.478   4.243   6.781
  150SAPE   H3R16564   2.471   4.152   6.715
  150SAPE   H3S16565   2.393   4.235   6.850
  150SAPE   C2416566   2.598   4.243   6.872
  150SAPE   H4R16567   2.589   4.169   6.953
  150SAPE   H4S16568   2.624   4.338   6.916
  150SAPE   C2516569   2.687   4.202   6.767
  150SAPE   H5R16570   2.765   4.269   6.721
  150SAPE   C2616571   2.718   4.080   6.789
  150SAPE   H6R16572   2.802   4.050   6.780
  150SAPE   C2716573   2.724   3.956   6.857
  150SAPE   H7R16574   2.707   3.997   6.951
  150SAPE   H7S16575   2.812   3.876   6.857
  150SAPE   C2816576   2.668   3.870   6.799
  150SAPE   H8R16577   2.710   3.857   6.702
  150SAPE   C2916578   2.577   3.845   6.875
  150SAPE   H9R16579   2.540   3.768   6.831
  150SAPE  C21016580   2.537   3.904   7.009
  150SAPE  H10R16581   2.435   3.950   7.010
  150SAPE  H10S16582   2.546   4.010   7.024
  150SAPE  C21116583   2.578   3.802   7.112
  150SAPE  H11R16584   2.515   3.717   7.100
  150SAPE  C21216585   2.604   3.817   7.239
  150SAPE  H12R16586   2.556   3.740   7.304
  150SAPE  C21316587   2.599   3.951   7.301
  150SAPE  H13R16588   2.701   3.981   7.273
  150SAPE  H13S16589   2.603   3.933   7.410
  150SAPE  C21416590   2.507   4.069   7.275
  150SAPE  H14R16591   2.417   4.057   7.212
  150SAPE  C21516592   2.518   4.184   7.341
  150SAPE  H15R16593   2.448   4.266   7.321
  150SAPE  C21616594   2.621   4.206   7.448
  150SAPE  H16R16595   2.659   4.304   7.452
  150SAPE  H16S16596   2.713   4.144   7.437
  150SAPE  C21716597   2.564   4.191   7.587
  150SAPE  H17R16598   2.537   4.084   7.590
  150SAPE  H17S16599   2.476   4.260   7.602
  150SAPE  C21816600   2.674   4.213   7.690
  150SAPE  H18R16601   2.705   4.319   7.690
  150SAPE  H18S16602   2.758   4.145   7.664
  150SAPE  C21916603   2.642   4.166   7.828
  150SAPE  H19R16604   2.559   4.237   7.849
  150SAPE  H19S16605   2.720   4.190   7.903
  150SAPE  C22016606   2.603   4.016   7.839
  150SAPE  H20R16607   2.680   3.951   7.798
  150SAPE  H20S16608   2.507   3.995   7.788
  150SAPE  H20T16609   2.590   3.981   7.944
  150SAPE   C3316610   2.140   3.826   6.615
  150SAPE   H3X16611   2.191   3.740   6.660
  150SAPE   H3Y16612   2.050   3.768   6.596
  150SAPE   C3416613   2.140   3.930   6.729
  150SAPE   H4X16614   2.092   4.022   6.696
  150SAPE   H4Y16615   2.243   3.964   6.758
  150SAPE   C3516616   2.063   3.875   6.848
  150SAPE   H5X16617   2.101   3.784   6.887
  150SAPE   H5Y16618   1.970   3.834   6.811
  150SAPE   C3616619   2.053   3.966   6.969
  150SAPE   H6X16620   1.993   4.050   6.931
  150SAPE   H6Y16621   2.153   4.006   6.996
  150SAPE   C3716622   1.986   3.902   7.093
  150SAPE   H7X16623   2.039   3.811   7.128
  150SAPE   H7Y16624   1.883   3.869   7.067
  150SAPE   C3816625   1.989   4.001   7.210
  150SAPE   H8X16626   1.918   3.973   7.290
  150SAPE   H8Y16627   1.958   4.102   7.173
  150SAPE   C3916628   2.128   4.001   7.274
  150SAPE   H9X16629   2.204   4.033   7.197
  150SAPE   H9Y16630   2.153   3.898   7.307
  150SAPE  C31016631   2.148   4.084   7.396
  150SAPE  H10X16632   2.250   4.064   7.440
  150SAPE  H10Y16633   2.074   4.061   7.476
  150SAPE  C31116634   2.131   4.227   7.361
  150SAPE  H11X16635   2.022   4.250   7.362
  150SAPE  H11Y16636   2.169   4.254   7.259
  150SAPE  C31216637   2.215   4.300   7.463
  150SAPE  H12X16638   2.184   4.393   7.489
  150SAPE  H12Y16639   2.305   4.347   7.425
  150SAPE  C31316640   2.178   4.294   7.606
  150SAPE  H13X16641   2.227   4.202   7.626
  150SAPE  H13Y16642   2.066   4.283   7.619
  150SAPE  C31416643   2.235   4.419   7.677
  150SAPE  H14X16644   2.175   4.507   7.656
  150SAPE  H14Y16645   2.337   4.447   7.645
  150SAPE  C31516646   2.222   4.410   7.816
  150SAPE  H15X16647   2.122   4.456   7.843
  150SAPE  H15Y16648   2.297   4.476   7.867
  150SAPE  C31616649   2.233   4.261   7.855
  150SAPE  H16X16650   2.338   4.234   7.831
  150SAPE  H16Y16651   2.157   4.194   7.816
  150SAPE  C31716652   2.200   4.206   7.988
  150SAPE  H17X16653   2.278   4.260   8.029
  150SAPE  H17Y16654   2.201   4.103   8.014
  150SAPE  C31816655   2.070   4.227   8.046
  150SAPE  H18X16656   2.047   4.327   8.086
  150SAPE  H18Y16657   2.045   4.283   8.135
  150SAPE  H18Z16658   1.988   4.187   8.004
  151SAPE     N16659   4.822   2.209   5.742
  151SAPE   HN116660   4.858   2.161   5.656
  151SAPE   HN216661   4.750   2.279   5.719
  151SAPE   HN316662   4.900   2.256   5.793
  151SAPE   C1216663   4.773   2.108   5.843
  151SAPE  H12A16664   4.691   2.050   5.800
  151SAPE  H12B16665   4.733   2.161   5.931
  151SAPE   C1116666   4.885   2.014   5.878
  151SAPE  H11A16667   4.933   1.982   5.783
  151SAPE  H11B16668   4.841   1.923   5.929
  151SAPE     P16669   4.978   2.090   6.112
  151SAPE   O1316670   4.923   2.222   6.149
  151SAPE   O1416671   4.910   1.969   6.159
  151SAPE   O1216672   4.982   2.087   5.953
  151SAPE   O1116673   5.128   2.082   6.150
  151SAPE    C116674   5.223   2.008   6.077
  151SAPE    HA16675   5.180   1.924   6.016
  151SAPE    HB16676   5.278   2.073   6.008
  151SAPE    C216677   5.319   1.957   6.180
  151SAPE    HS16678   5.392   1.895   6.123
  151SAPE   O2116679   5.241   1.891   6.283
  151SAPE   C2116680   5.160   1.797   6.248
  151SAPE   O2216681   5.132   1.747   6.143
  151SAPE   C2216682   5.137   1.723   6.366
  151SAPE   H2R16683   5.109   1.626   6.328
  151SAPE   H2S16684   5.215   1.708   6.443
  151SAPE    C316685   5.404   2.064   6.252
  151SAPE    HX16686   5.331   2.146   6.267
  151SAPE    HY16687   5.487   2.099   6.188
  151SAPE   O3116688   5.463   2.016   6.375
  151SAPE   C3116689   5.391   2.042   6.482
  151SAPE   O3216690   5.288   2.106   6.491
  151SAPE   C3216691   5.451   1.974   6.601
  151SAPE   H2X16692   5.560   1.956   6.590
  151SAPE   H2Y16693   5.380   1.894   6.605
  151SAPE   C2316694   5.000   1.766   6.393
  151SAPE   H3R16695   4.924   1.702   6.345
  151SAPE   H3S16696   4.996   1.874   6.387
  151SAPE   C2416697   4.966   1.778   6.527
  151SAPE   H4R16698   5.075   1.793   6.569
  151SAPE   H4S16699   4.945   1.683   6.543
  151SAPE   C2516700   4.836   1.741   6.596
  151SAPE   H5R16701   4.800   1.639   6.634
  151SAPE   C2616702   4.778   1.850   6.627
  151SAPE   H6R16703   4.683   1.846   6.675
  151SAPE   C2716704   4.850   1.975   6.587
  151SAPE   H7R16705   4.845   1.988   6.476
  151SAPE   H7S16706   4.957   1.980   6.622
  151SAPE   C2816707   4.793   2.094   6.644
  151SAPE   H8R16708   4.758   2.165   6.569
  151SAPE   C2916709   4.792   2.127   6.772
  151SAPE   H9R16710   4.747   2.219   6.785
  151SAPE  C21016711   4.842   2.062   6.897
  151SAPE  H10R16712   4.846   1.954   6.875
  151SAPE  H10S16713   4.773   2.074   6.984
  151SAPE  C21116714   4.980   2.111   6.929
  151SAPE  H11R16715   5.059   2.094   6.854
  151SAPE  C21216716   5.018   2.169   7.042
  151SAPE  H12R16717   5.125   2.192   7.052
  151SAPE  C21316718   4.933   2.201   7.165
  151SAPE  H13R16719   4.944   2.132   7.248
  151SAPE  H13S16720   4.825   2.208   7.144
  151SAPE  C21416721   4.984   2.332   7.207
  151SAPE  H14R16722   4.987   2.382   7.115
  151SAPE  C21516723   5.035   2.389   7.316
  151SAPE  H15R16724   5.064   2.497   7.324
  151SAPE  C21616725   5.050   2.308   7.435
  151SAPE  H16R16726   5.041   2.202   7.419
  151SAPE  H16S16727   4.978   2.334   7.513
  151SAPE  C21716728   5.182   2.324   7.492
  151SAPE  H17R16729   5.143   2.405   7.550
  151SAPE  H17S16730   5.273   2.343   7.433
  151SAPE  C21816731   5.210   2.229   7.598
  151SAPE  H18R16732   5.231   2.133   7.559
  151SAPE  H18S16733   5.115   2.213   7.653
  151SAPE  C21916734   5.334   2.264   7.668
  151SAPE  H19R16735   5.361   2.369   7.699
  151SAPE  H19S16736   5.416   2.235   7.604
  151SAPE  C22016737   5.388   2.157   7.749
  151SAPE  H20R16738   5.371   2.063   7.786
  151SAPE  H20S16739   5.437   2.201   7.823
  151SAPE  H20T16740   5.326   2.085   7.806
  151SAPE   C3316741   5.404   1.994   6.742
  151SAPE   H3X16742   5.293   1.992   6.755
  151SAPE   H3Y16743   5.436   2.090   6.776
  151SAPE   C3416744   5.493   1.919   6.834
  151SAPE   H4X16745   5.594   1.957   6.839
  151SAPE   H4Y16746   5.512   1.815   6.816
  151SAPE   C3516747   5.431   1.922   6.962
  151SAPE   H5X16748   5.413   2.012   7.021
  151SAPE   H5Y16749   5.502   1.855   7.010
  151SAPE   C3616750   5.308   1.852   6.947
  151SAPE   H6X16751   5.211   1.885   6.912
  151SAPE   H6Y16752   5.284   1.870   7.045
  151SAPE   C3716753   5.344   1.722   6.928
  151SAPE   H7X16754   5.373   1.637   6.986
  151SAPE   H7Y16755   5.376   1.691   6.832
  151SAPE   C3816756   5.233   1.684   6.944
  151SAPE   H8X16757   5.255   1.571   6.879
  151SAPE   H8Y16758   5.226   1.619   6.857
  151SAPE   C3916759   5.061   1.718   7.073
  151SAPE   H9X16760   5.028   1.675   7.165
  151SAPE   H9Y16761   4.972   1.621   7.065
  151SAPE  C31016762   4.972   1.812   7.070
  151SAPE  H10X16763   4.953   1.836   6.970
  151SAPE  H10Y16764   5.068   1.850   7.102
  151SAPE  C31116765   4.847   1.750   7.136
  151SAPE  H11X16766   4.801   1.662   7.081
  151SAPE  H11Y16767   4.805   1.841   7.102
  151SAPE  C31216768   4.860   1.723   7.287
  151SAPE  H12X16769   4.887   1.613   7.298
  151SAPE  H12Y16770   4.760   1.740   7.321
  151SAPE  C31316771   4.969   1.810   7.354
  151SAPE  H13X16772   4.944   1.916   7.340
  151SAPE  H13Y16773   5.068   1.803   7.309
  151SAPE  C31416774   4.981   1.778   7.502
  151SAPE  H14X16775   4.990   1.669   7.523
  151SAPE  H14Y16776   4.885   1.814   7.541
  151SAPE  C31516777   5.087   1.860   7.575
  151SAPE  H15X16778   5.047   1.898   7.671
  151SAPE  H15Y16779   5.111   1.947   7.510
  151SAPE  C31616780   5.213   1.780   7.592
  151SAPE  H16X16781   5.243   1.746   7.492
  151SAPE  H16Y16782   5.206   1.692   7.659
  151SAPE  C31716783   5.328   1.859   7.635
  151SAPE  H17X16784   5.301   1.922   7.719
  151SAPE  H17Y16785   5.371   1.926   7.557
  151SAPE  C31816786   5.423   1.753   7.679
  151SAPE  H18X16787   5.401   1.657   7.720
  151SAPE  H18Y16788   5.459   1.804   7.765
  151SAPE  H18Z16789   5.512   1.742   7.622
  152SAPE     N16790   2.149   4.612   6.058
  152SAPE   HN116791   2.108   4.517   6.072
  152SAPE   HN216792   2.232   4.607   5.996
  152SAPE   HN316793   2.178   4.646   6.152
  152SAPE   C1216794   2.045   4.703   5.997
  152SAPE  H12A16795   2.034   4.669   5.891
  152SAPE  H12B16796   2.081   4.808   5.995
  152SAPE   C1116797   1.911   4.682   6.070
  152SAPE  H11A16798   1.902   4.721   6.173
  152SAPE  H11B16799   1.903   4.572   6.079
  152SAPE     P16800   1.750   4.870   5.972
  152SAPE   O1316801   1.843   4.926   5.871
  152SAPE   O1416802   1.606   4.866   5.941
  152SAPE   O1216803   1.799   4.722   5.994
  152SAPE   O1116804   1.780   4.939   6.110
  152SAPE    C116805   1.889   5.033   6.116
  152SAPE    HA16806   1.983   4.993   6.073
  152SAPE    HB16807   1.866   5.126   6.058
  152SAPE    C216808   1.919   5.066   6.264
  152SAPE    HS16809   2.012   5.128   6.261
  152SAPE   O2116810   1.934   4.946   6.344
  152SAPE   C2116811   2.046   4.883   6.328
  152SAPE   O2216812   2.138   4.915   6.254
  152SAPE   C2216813   2.054   4.759   6.417
  152SAPE   H2R16814   2.000   4.674   6.371
  152SAPE   H2S16815   2.162   4.738   6.426
  152SAPE    C316816   1.806   5.147   6.331
  152SAPE    HX16817   1.714   5.084   6.336
  152SAPE    HY16818   1.784   5.236   6.268
  152SAPE   O3116819   1.850   5.198   6.457
  152SAPE   C3116820   1.803   5.152   6.570
  152SAPE   O3216821   1.726   5.059   6.586
  152SAPE   C3216822   1.864   5.232   6.686
  152SAPE   H2X16823   1.798   5.317   6.710
  152SAPE   H2Y16824   1.956   5.276   6.655
  152SAPE   C2316825   1.994   4.783   6.557
  152SAPE   H3R16826   1.883   4.788   6.546
  152SAPE   H3S16827   2.034   4.880   6.594
  152SAPE   C2416828   2.027   4.677   6.663
  152SAPE   H4R16829   1.970   4.585   6.639
  152SAPE   H4S16830   1.990   4.709   6.762
  152SAPE   C2516831   2.176   4.658   6.668
  152SAPE   H5R16832   2.220   4.629   6.573
  152SAPE   C2616833   2.264   4.664   6.767
  152SAPE   H6R16834   2.368   4.628   6.754
  152SAPE   C2716835   2.222   4.694   6.903
  152SAPE   H7R16836   2.121   4.736   6.911
  152SAPE   H7S16837   2.276   4.777   6.943
  152SAPE   C2816838   2.236   4.580   6.990
  152SAPE   H8R16839   2.264   4.478   6.957
  152SAPE   C2916840   2.182   4.604   7.106
  152SAPE   H9R16841   2.208   4.513   7.168
  152SAPE  C21016842   2.104   4.741   7.168
  152SAPE  H10R16843   2.105   4.824   7.105
  152SAPE  H10S16844   2.158   4.797   7.252
  152SAPE  C21116845   1.964   4.750   7.235
  152SAPE  H11R16846   1.892   4.679   7.182
  152SAPE  C21216847   1.918   4.817   7.346
  152SAPE  H12R16848   1.865   4.754   7.425
  152SAPE  C21316849   1.992   4.913   7.432
  152SAPE  H13R16850   1.902   4.964   7.469
  152SAPE  H13S16851   2.025   4.968   7.342
  152SAPE  C21416852   2.104   4.926   7.535
  152SAPE  H14R16853   2.167   5.014   7.517
  152SAPE  C21516854   2.139   4.847   7.638
  152SAPE  H15R16855   2.234   4.866   7.689
  152SAPE  C21616856   2.077   4.720   7.684
  152SAPE  H16R16857   2.143   4.669   7.756
  152SAPE  H16S16858   2.064   4.650   7.605
  152SAPE  C21716859   1.933   4.730   7.721
  152SAPE  H17R16860   1.869   4.775   7.642
  152SAPE  H17S16861   1.933   4.795   7.809
  152SAPE  C21816862   1.867   4.598   7.748
  152SAPE  H18R16863   1.938   4.535   7.800
  152SAPE  H18S16864   1.842   4.531   7.667
  152SAPE  C21916865   1.726   4.632   7.788
  152SAPE  H19R16866   1.655   4.560   7.745
  152SAPE  H19S16867   1.681   4.710   7.732
  152SAPE  C22016868   1.701   4.681   7.926
  152SAPE  H20R16869   1.603   4.675   7.969
  152SAPE  H20S16870   1.780   4.737   7.977
  152SAPE  H20T16871   1.708   4.595   7.988
  152SAPE   C3316872   1.892   5.128   6.795
  152SAPE   H3X16873   1.960   5.048   6.762
  152SAPE   H3Y16874   1.799   5.073   6.799
  152SAPE   C3416875   1.962   5.165   6.926
  152SAPE   H4X16876   2.051   5.196   6.878
  152SAPE   H4Y16877   2.000   5.084   6.993
  152SAPE   C3516878   1.910   5.286   7.005
  152SAPE   H5X16879   1.857   5.372   6.955
  152SAPE   H5Y16880   1.964   5.331   7.085
  152SAPE   C3616881   1.824   5.264   7.075
  152SAPE   H6X16882   1.869   5.164   7.103
  152SAPE   H6Y16883   1.740   5.256   6.981
  152SAPE   C3716884   1.805   5.324   7.232
  152SAPE   H7X16885   1.769   5.428   7.223
  152SAPE   H7Y16886   1.896   5.296   7.269
  152SAPE   C3816887   1.714   5.269   7.362
  152SAPE   H8X16888   1.711   5.161   7.378
  152SAPE   H8Y16889   1.623   5.263   7.332
  152SAPE   C3916890   1.708   5.218   7.504
  152SAPE   H9X16891   1.664   5.314   7.493
  152SAPE   H9Y16892   1.810   5.215   7.535
  152SAPE  C31016893   1.591   5.182   7.603
  152SAPE  H10X16894   1.576   5.086   7.559
  152SAPE  H10Y16895   1.486   5.221   7.613
  152SAPE  C31116896   1.636   5.192   7.742
  152SAPE  H11X16897   1.660   5.287   7.776
  152SAPE  H11Y16898   1.736   5.151   7.749
  152SAPE  C31216899   1.530   5.167   7.846
  152SAPE  H12X16900   1.525   5.058   7.841
  152SAPE  H12Y16901   1.431   5.213   7.824
  152SAPE  C31316902   1.569   5.220   7.982
  152SAPE  H13X16903   1.500   5.181   8.058
  152SAPE  H13Y16904   1.557   5.331   7.981
  152SAPE  C31416905   1.712   5.186   8.019
  152SAPE  H14X16906   1.752   5.239   8.102
  152SAPE  H14Y16907   1.784   5.217   7.944
  152SAPE  C31516908   1.730   5.044   8.053
  152SAPE  H15X16909   1.719   4.981   7.963
  152SAPE  H15Y16910   1.640   5.023   8.116
  152SAPE  C31616911   1.866   5.001   8.115
  152SAPE  H16X16912   1.877   4.892   8.123
  152SAPE  H16Y16913   1.888   5.037   8.217
  152SAPE  C31716914   1.983   5.023   8.031
  152SAPE  H17X16915   1.969   5.129   8.005
  152SAPE  H17Y16916   1.979   4.959   7.941
  152SAPE  C31816917   2.105   4.992   8.115
  152SAPE  H18X16918   2.128   4.883   8.124
  152SAPE  H18Y16919   2.082   5.029   8.218
  152SAPE  H18Z16920   2.192   5.046   8.075
  153SAPE     N16921   5.352   5.103   5.890
  153SAPE   HN116922   5.338   5.206   5.882
  153SAPE   HN216923   5.290   5.052   5.826
  153SAPE   HN316924   5.336   5.079   5.991
  153SAPE   C1216925   5.488   5.052   5.850
  153SAPE  H12A16926   5.511   5.094   5.750
  153SAPE  H12B16927   5.481   4.942   5.845
  153SAPE   C1116928   5.599   5.092   5.947
  153SAPE  H11A16929   5.690   5.092   5.882
  153SAPE  H11B16930   5.613   5.020   6.032
  153SAPE     P16931   5.689   5.313   6.057
  153SAPE   O1316932   5.808   5.310   5.971
  153SAPE   O1416933   5.628   5.446   6.081
  153SAPE   O1216934   5.572   5.221   5.999
  153SAPE   O1116935   5.725   5.250   6.195
  153SAPE    C116936   5.760   5.357   6.282
  153SAPE    HA16937   5.831   5.435   6.243
  153SAPE    HB16938   5.678   5.399   6.347
  153SAPE    C216939   5.838   5.300   6.380
  153SAPE    HS16940   5.919   5.247   6.345
  153SAPE   O2116941   5.750   5.193   6.444
  153SAPE   C2116942   5.797   5.072   6.492
  153SAPE   O2216943   5.910   5.034   6.487
  153SAPE   C2216944   5.703   5.020   6.618
  153SAPE   H2R16945   5.640   5.103   6.655
  153SAPE   H2S16946   5.653   4.950   6.553
  153SAPE    C316947   5.875   5.451   6.456
  153SAPE    HX16948   5.971   5.505   6.432
  153SAPE    HY16949   5.953   5.425   6.504
  153SAPE   O3116950   5.802   5.499   6.574
  153SAPE   C3116951   5.846   5.523   6.704
  153SAPE   O3216952   5.959   5.509   6.749
  153SAPE   C3216953   5.713   5.529   6.781
  153SAPE   H2X16954   5.647   5.445   6.767
  153SAPE   H2Y16955   5.655   5.610   6.742
  153SAPE   C2316956   5.754   4.935   6.753
  153SAPE   H3R16957   5.848   4.882   6.728
  153SAPE   H3S16958   5.673   4.872   6.788
  153SAPE   C2416959   5.778   4.985   6.899
  153SAPE   H4R16960   5.703   5.068   6.926
  153SAPE   H4S16961   5.856   5.037   6.940
  153SAPE   C2516962   5.899   4.928   6.976
  153SAPE   H5R16963   5.991   4.922   6.912
  153SAPE   C2616964   5.906   4.922   7.113
  153SAPE   H6R16965   6.002   4.904   7.157
  153SAPE   C2716966   5.792   4.976   7.202
  153SAPE   H7R16967   5.705   5.030   7.153
  153SAPE   H7S16968   5.827   5.049   7.275
  153SAPE   C2816969   5.774   4.892   7.315
  153SAPE   H8R16970   5.859   4.825   7.322
  153SAPE   C2916971   5.687   4.901   7.414
  153SAPE   H9R16972   5.689   4.811   7.475
  153SAPE  C21016973   5.580   5.003   7.442
  153SAPE  H10R16974   5.591   5.085   7.370
  153SAPE  H10S16975   5.616   5.049   7.536
  153SAPE  C21116976   5.432   4.970   7.454
  153SAPE  H11R16977   5.376   4.936   7.369
  153SAPE  C21216978   5.358   4.984   7.562
  153SAPE  H12R16979   5.252   4.979   7.562
  153SAPE  C21316980   5.394   5.032   7.694
  153SAPE  H13R16981   5.317   5.102   7.729
  153SAPE  H13S16982   5.491   5.080   7.686
  153SAPE  C21416983   5.404   4.916   7.782
  153SAPE  H14R16984   5.366   4.828   7.745
  153SAPE  C21516985   5.469   4.910   7.889
  153SAPE  H15R16986   5.468   4.825   7.960
  153SAPE  C21616987   5.530   5.043   7.906
  153SAPE  H16R16988   5.627   5.058   7.866
  153SAPE  H16S16989   5.551   5.031   7.998
  153SAPE  C21716990   5.477   5.165   7.974
  153SAPE  H17R16991   5.412   5.194   7.895
  153SAPE  H17S16992   5.551   5.237   8.011
  153SAPE  C21816993   5.408   5.130   8.096
  153SAPE  H18R16994   5.404   5.057   8.171
  153SAPE  H18S16995   5.386   5.022   8.076
  153SAPE  C21916996   5.362   5.222   8.204
  153SAPE  H19R16997   5.265   5.212   8.248
  153SAPE  H19S16998   5.334   5.272   8.129
  153SAPE  C22016999   5.424   5.316   8.285
  153SAPE  H20R17000   5.443   5.252   8.369
  153SAPE  H20S17001   5.346   5.378   8.317
  153SAPE  H20T17002   5.491   5.373   8.224
  153SAPE   C3317003   5.730   5.552   6.926
  153SAPE   H3X17004   5.671   5.619   6.984
  153SAPE   H3Y17005   5.838   5.548   6.925
  153SAPE   C3417006   5.735   5.456   7.025
  153SAPE   H4X17007   5.856   5.436   7.041
  153SAPE   H4Y17008   5.665   5.380   6.975
  153SAPE   C3517009   5.735   5.456   7.172
  153SAPE   H5X17010   5.812   5.530   7.192
  153SAPE   H5Y17011   5.777   5.372   7.231
  153SAPE   C3617012   5.595   5.444   7.211
  153SAPE   H6X17013   5.545   5.346   7.194
  153SAPE   H6Y17014   5.549   5.514   7.139
  153SAPE   C3717015   5.590   5.483   7.355
  153SAPE   H7X17016   5.485   5.514   7.368
  153SAPE   H7Y17017   5.659   5.567   7.374
  153SAPE   C3817018   5.618   5.371   7.453
  153SAPE   H8X17019   5.723   5.333   7.451
  153SAPE   H8Y17020   5.554   5.286   7.425
  153SAPE   C3917021   5.574   5.413   7.590
  153SAPE   H9X17022   5.482   5.368   7.631
  153SAPE   H9Y17023   5.576   5.525   7.602
  153SAPE  C31017024   5.671   5.367   7.685
  153SAPE  H10X17025   5.755   5.422   7.649
  153SAPE  H10Y17026   5.700   5.261   7.690
  153SAPE  C31117027   5.623   5.411   7.814
  153SAPE  H11X17028   5.542   5.370   7.864
  153SAPE  H11Y17029   5.603   5.528   7.819
  153SAPE  C31217030   5.722   5.352   7.900
  153SAPE  H12X17031   5.718   5.337   8.016
  153SAPE  H12Y17032   5.752   5.458   7.848
  153SAPE  C31317033   5.811   5.249   7.958
  153SAPE  H13X17034   5.879   5.213   7.892
  153SAPE  H13Y17035   5.749   5.168   7.951
  153SAPE  C31417036   5.941   5.270   8.050
  153SAPE  H14X17037   5.999   5.181   8.012
  153SAPE  H14Y17038   5.884   5.283   8.147
  153SAPE  C31517039   6.043   5.374   8.141
  153SAPE  H15X17040   6.006   5.465   8.179
  153SAPE  H15Y17041   6.064   5.349   8.047
  153SAPE  C31617042   6.183   5.361   8.195
  153SAPE  H16X17043   6.234   5.278   8.164
  153SAPE  H16Y17044   6.130   5.349   8.285
  153SAPE  C31717045   6.290   5.451   8.225
  153SAPE  H17X17046   6.362   5.458   8.144
  153SAPE  H17Y17047   6.359   5.403   8.293
  153SAPE  C31817048   6.217   5.568   8.271
  153SAPE  H18X17049   6.134   5.605   8.206
  153SAPE  H18Y17050   6.290   5.643   8.295
  153SAPE  H18Z17051   6.169   5.521   8.358
  154SAPE     N17052   1.147   5.387   5.725
  154SAPE   HN117053   1.183   5.298   5.766
  154SAPE   HN217054   1.043   5.394   5.733
  154SAPE   HN317055   1.181   5.396   5.627
  154SAPE   C1217056   1.210   5.493   5.811
  154SAPE  H12A17057   1.165   5.589   5.779
  154SAPE  H12B17058   1.316   5.498   5.784
  154SAPE   C1117059   1.193   5.458   5.960
  154SAPE  H11A17060   1.088   5.476   5.987
  154SAPE  H11B17061   1.253   5.526   6.026
  154SAPE     P17062   1.307   5.255   6.100
  154SAPE   O1317063   1.255   5.120   6.129
  154SAPE   O1417064   1.448   5.273   6.063
  154SAPE   O1217065   1.215   5.319   5.986
  154SAPE   O1117066   1.278   5.350   6.221
  154SAPE    C117067   1.147   5.383   6.264
  154SAPE    HA17068   1.127   5.490   6.241
  154SAPE    HB17069   1.066   5.325   6.213
  154SAPE    C217070   1.141   5.367   6.416
  154SAPE    HS17071   1.239   5.407   6.454
  154SAPE   O2117072   1.125   5.227   6.447
  154SAPE   C2117073   1.196   5.184   6.551
  154SAPE   O2217074   1.255   5.254   6.631
  154SAPE   C2217075   1.188   5.031   6.557
  154SAPE   H2R17076   1.095   4.999   6.606
  154SAPE   H2S17077   1.184   4.992   6.453
  154SAPE    C317078   1.023   5.453   6.469
  154SAPE    HX17079   0.937   5.438   6.400
  154SAPE    HY17080   1.045   5.561   6.458
  154SAPE   O3117081   0.993   5.424   6.607
  154SAPE   C3117082   0.869   5.385   6.629
  154SAPE   O3217083   0.780   5.382   6.547
  154SAPE   C3217084   0.854   5.345   6.776
  154SAPE   H2X17085   0.883   5.239   6.779
  154SAPE   H2Y17086   0.748   5.361   6.806
  154SAPE   C2317087   1.306   4.970   6.637
  154SAPE   H3R17088   1.399   5.030   6.631
  154SAPE   H3S17089   1.324   4.872   6.589
  154SAPE   C2417090   1.274   4.933   6.783
  154SAPE   H4R17091   1.359   4.871   6.818
  154SAPE   H4S17092   1.185   4.869   6.780
  154SAPE   C2517093   1.253   5.051   6.874
  154SAPE   H5R17094   1.163   5.109   6.852
  154SAPE   C2617095   1.330   5.084   6.979
  154SAPE   H6R17096   1.309   5.179   7.031
  154SAPE   C2717097   1.451   5.008   7.025
  154SAPE   H7R17098   1.436   4.900   7.016
  154SAPE   H7S17099   1.462   5.020   7.134
  154SAPE   C2817100   1.581   4.993   6.960
  154SAPE   H8R17101   1.597   4.974   6.853
  154SAPE   C2917102   1.672   5.048   7.027
  154SAPE   H9R17103   1.753   5.076   6.965
  154SAPE  C21017104   1.646   5.128   7.155
  154SAPE  H10R17105   1.757   5.106   7.220
  154SAPE  H10S17106   1.608   5.083   7.242
  154SAPE  C21117107   1.575   5.291   7.118
  154SAPE  H11R17108   1.634   5.375   7.061
  154SAPE  C21217109   1.479   5.366   7.175
  154SAPE  H12R17110   1.489   5.479   7.181
  154SAPE  C21317111   1.417   5.297   7.289
  154SAPE  H13R17112   1.457   5.192   7.295
  154SAPE  H13S17113   1.319   5.286   7.259
  154SAPE  C21417114   1.413   5.340   7.427
  154SAPE  H14R17115   1.500   5.317   7.465
  154SAPE  C21517116   1.354   5.417   7.512
  154SAPE  H15R17117   1.398   5.437   7.614
  154SAPE  C21617118   1.252   5.493   7.452
  154SAPE  H16R17119   1.226   5.452   7.354
  154SAPE  H16S17120   1.281   5.599   7.441
  154SAPE  C21717121   1.144   5.458   7.540
  154SAPE  H17R17122   1.125   5.352   7.565
  154SAPE  H17S17123   1.061   5.479   7.470
  154SAPE  C21817124   1.160   5.538   7.666
  154SAPE  H18R17125   1.190   5.503   7.764
  154SAPE  H18S17126   1.058   5.512   7.670
  154SAPE  C21917127   1.201   5.686   7.654
  154SAPE  H19R17128   1.182   5.718   7.550
  154SAPE  H19S17129   1.308   5.680   7.642
  154SAPE  C22017130   1.142   5.793   7.761
  154SAPE  H20R17131   1.153   5.764   7.868
  154SAPE  H20S17132   1.039   5.804   7.776
  154SAPE  H20T17133   1.152   5.897   7.739
  154SAPE   C3317134   0.951   5.421   6.869
  154SAPE   H3X17135   0.939   5.532   6.861
  154SAPE   H3Y17136   1.053   5.391   6.835
  154SAPE   C3417137   0.929   5.389   7.016
  154SAPE   H4X17138   0.820   5.397   7.035
  154SAPE   H4Y17139   0.983   5.464   7.079
  154SAPE   C3517140   0.981   5.251   7.056
  154SAPE   H5X17141   1.019   5.260   7.160
  154SAPE   H5Y17142   1.064   5.220   6.989
  154SAPE   C3617143   0.876   5.140   7.054
  154SAPE   H6X17144   0.839   5.132   6.950
  154SAPE   H6Y17145   0.788   5.165   7.116
  154SAPE   C3717146   0.936   5.008   7.100
  154SAPE   H7X17147   1.018   4.977   7.030
  154SAPE   H7Y17148   0.860   4.928   7.100
  154SAPE   C3817149   1.001   5.017   7.239
  154SAPE   H8X17150   0.934   5.059   7.318
  154SAPE   H8Y17151   1.094   5.077   7.231
  154SAPE   C3917152   1.035   4.876   7.280
  154SAPE   H9X17153   1.061   4.827   7.184
  154SAPE   H9Y17154   0.942   4.827   7.317
  154SAPE  C31017155   1.154   4.858   7.374
  154SAPE  H10X17156   1.238   4.920   7.339
  154SAPE  H10Y17157   1.199   4.760   7.361
  154SAPE  C31117158   1.117   4.867   7.522
  154SAPE  H11X17159   1.200   4.840   7.591
  154SAPE  H11Y17160   1.034   4.795   7.541
  154SAPE  C31217161   1.071   5.007   7.558
  154SAPE  H12X17162   0.964   5.015   7.529
  154SAPE  H12Y17163   1.133   5.081   7.503
  154SAPE  C31317164   1.082   5.034   7.707
  154SAPE  H13X17165   1.187   5.040   7.742
  154SAPE  H13Y17166   1.032   4.948   7.756
  154SAPE  C31417167   1.005   5.156   7.752
  154SAPE  H14X17168   0.906   5.153   7.702
  154SAPE  H14Y17169   1.057   5.251   7.726
  154SAPE  C31517170   0.980   5.140   7.901
  154SAPE  H15X17171   1.074   5.144   7.959
  154SAPE  H15Y17172   0.922   5.055   7.934
  154SAPE  C31617173   0.882   5.231   7.949
  154SAPE  H16X17174   0.783   5.255   7.903
  154SAPE  H16Y17175   0.954   5.320   7.923
  154SAPE  C31717176   0.829   5.210   8.096
  154SAPE  H17X17177   0.791   5.286   8.141
  154SAPE  H17Y17178   0.882   5.255   8.179
  154SAPE  C31817179   0.817   5.102   8.185
  154SAPE  H18X17180   0.774   5.148   8.277
  154SAPE  H18Y17181   0.928   5.087   8.194
  154SAPE  H18Z17182   0.748   5.092   8.100
  155SAPE     N17183   3.072   6.577   6.235
  155SAPE   HN117184   3.158   6.547   6.185
  155SAPE   HN217185   3.095   6.612   6.331
  155SAPE   HN317186   3.010   6.494   6.242
  155SAPE   C1217187   3.001   6.680   6.152
  155SAPE  H12A17188   3.073   6.764   6.132
  155SAPE  H12B17189   2.916   6.709   6.218
  155SAPE   C1117190   2.925   6.637   6.026
  155SAPE  H11A17191   2.890   6.732   5.980
  155SAPE  H11B17192   2.829   6.584   6.046
  155SAPE     P17193   3.024   6.418   5.899
  155SAPE   O1317194   2.924   6.374   5.798
  155SAPE   O1417195   3.166   6.383   5.889
  155SAPE   O1217196   3.008   6.570   5.933
  155SAPE   O1117197   2.980   6.364   6.036
  155SAPE    C117198   2.925   6.237   6.020
  155SAPE    HA17199   2.829   6.233   5.962
  155SAPE    HB17200   2.981   6.152   5.976
  155SAPE    C217201   2.904   6.202   6.157
  155SAPE    HS17202   2.839   6.136   6.141
  155SAPE   O2117203   2.853   6.298   6.248
  155SAPE   C2117204   2.739   6.324   6.195
  155SAPE   O2217205   2.681   6.259   6.106
  155SAPE   C2217206   2.697   6.445   6.282
  155SAPE   H2R17207   2.774   6.516   6.258
  155SAPE   H2S17208   2.618   6.498   6.229
  155SAPE    C317209   3.033   6.141   6.202
  155SAPE    HX17210   3.082   6.051   6.166
  155SAPE    HY17211   2.999   6.045   6.242
  155SAPE   O3117212   3.119   6.232   6.265
  155SAPE   C3117213   3.205   6.191   6.348
  155SAPE   O3217214   3.221   6.080   6.397
  155SAPE   C3217215   3.283   6.310   6.389
  155SAPE   H2X17216   3.247   6.406   6.362
  155SAPE   H2Y17217   3.393   6.299   6.371
  155SAPE   C2317218   2.667   6.422   6.439
  155SAPE   H3R17219   2.732   6.354   6.493
  155SAPE   H3S17220   2.582   6.355   6.466
  155SAPE   C2417221   2.636   6.546   6.527
  155SAPE   H4R17222   2.583   6.500   6.616
  155SAPE   H4S17223   2.564   6.619   6.483
  155SAPE   C2517224   2.764   6.615   6.546
  155SAPE   H5R17225   2.801   6.643   6.449
  155SAPE   C2617226   2.823   6.658   6.657
  155SAPE   H6R17227   2.894   6.739   6.664
  155SAPE   C2717228   2.771   6.647   6.789
  155SAPE   H7R17229   2.663   6.638   6.763
  155SAPE   H7S17230   2.801   6.745   6.838
  155SAPE   C2817231   2.806   6.533   6.868
  155SAPE   H8R17232   2.746   6.449   6.826
  155SAPE   C2917233   2.865   6.535   6.992
  155SAPE   H9R17234   2.847   6.439   7.042
  155SAPE  C21017235   2.913   6.655   7.088
  155SAPE  H10R17236   2.959   6.728   7.021
  155SAPE  H10S17237   2.968   6.608   7.167
  155SAPE  C21117238   2.854   6.750   7.200
  155SAPE  H11R17239   2.792   6.842   7.155
  155SAPE  C21217240   2.784   6.709   7.298
  155SAPE  H12R17241   2.725   6.805   7.310
  155SAPE  C21317242   2.728   6.558   7.334
  155SAPE  H13R17243   2.780   6.555   7.427
  155SAPE  H13S17244   2.774   6.481   7.277
  155SAPE  C21417245   2.581   6.481   7.339
  155SAPE  H14R17246   2.485   6.509   7.283
  155SAPE  C21517247   2.543   6.386   7.420
  155SAPE  H15R17248   2.441   6.400   7.465
  155SAPE  C21617249   2.643   6.342   7.511
  155SAPE  H16R17250   2.744   6.374   7.471
  155SAPE  H16S17251   2.637   6.236   7.497
  155SAPE  C21717252   2.612   6.359   7.659
  155SAPE  H17R17253   2.675   6.342   7.741
  155SAPE  H17S17254   2.514   6.367   7.698
  155SAPE  C21817255   2.709   6.452   7.721
  155SAPE  H18R17256   2.701   6.510   7.627
  155SAPE  H18S17257   2.789   6.458   7.651
  155SAPE  C21917258   2.725   6.509   7.900
  155SAPE  H19R17259   2.799   6.451   7.909
  155SAPE  H19S17260   2.633   6.489   7.971
  155SAPE  C22017261   2.803   6.630   7.981
  155SAPE  H20R17262   2.902   6.649   7.934
  155SAPE  H20S17263   2.739   6.705   8.031
  155SAPE  H20T17264   2.799   6.731   7.945
  155SAPE   C3317265   3.268   6.305   6.534
  155SAPE   H3X17266   3.349   6.372   6.563
  155SAPE   H3Y17267   3.289   6.203   6.562
  155SAPE   C3417268   3.146   6.352   6.610
  155SAPE   H4X17269   3.111   6.443   6.567
  155SAPE   H4Y17270   3.154   6.383   6.717
  155SAPE   C3517271   3.045   6.248   6.631
  155SAPE   H5X17272   3.004   6.251   6.530
  155SAPE   H5Y17273   2.968   6.296   6.691
  155SAPE   C3617274   3.091   6.107   6.679
  155SAPE   H6X17275   3.151   6.046   6.609
  155SAPE   H6Y17276   3.022   6.031   6.696
  155SAPE   C3717277   3.102   6.071   6.821
  155SAPE   H7X17278   3.206   6.054   6.780
  155SAPE   H7Y17279   3.130   5.969   6.848
  155SAPE   C3817280   3.039   6.174   6.934
  155SAPE   H8X17281   2.942   6.151   6.951
  155SAPE   H8Y17282   3.021   6.279   6.907
  155SAPE   C3917283   3.068   6.186   7.086
  155SAPE   H9X17284   3.049   6.087   7.115
  155SAPE   H9Y17285   2.995   6.185   7.165
  155SAPE  C31017286   3.198   6.246   7.146
  155SAPE  H10X17287   3.285   6.215   7.106
  155SAPE  H10Y17288   3.263   6.200   7.221
  155SAPE  C31117289   3.220   6.378   7.117
  155SAPE  H11X17290   3.190   6.416   7.021
  155SAPE  H11Y17291   3.328   6.382   7.108
  155SAPE  C31217292   3.126   6.413   7.221
  155SAPE  H12X17293   3.027   6.365   7.211
  155SAPE  H12Y17294   3.118   6.515   7.194
  155SAPE  C31317295   3.170   6.393   7.363
  155SAPE  H13X17296   3.243   6.471   7.387
  155SAPE  H13Y17297   3.206   6.290   7.388
  155SAPE  C31417298   3.078   6.455   7.456
  155SAPE  H14X17299   2.988   6.397   7.431
  155SAPE  H14Y17300   3.053   6.557   7.429
  155SAPE  C31517301   3.143   6.458   7.596
  155SAPE  H15X17302   3.081   6.513   7.665
  155SAPE  H15Y17303   3.238   6.508   7.599
  155SAPE  C31617304   3.184   6.326   7.654
  155SAPE  H16X17305   3.213   6.238   7.599
  155SAPE  H16Y17306   3.106   6.296   7.695
  155SAPE  C31717307   3.197   6.315   7.796
  155SAPE  H17X17308   3.168   6.210   7.830
  155SAPE  H17Y17309   3.139   6.334   7.882
  155SAPE  C31817310   3.325   6.375   7.789
  155SAPE  H18X17311   3.365   6.471   7.798
  155SAPE  H18Y17312   3.368   6.331   7.710
  155SAPE  H18Z17313   3.398   6.367   7.865
  156SAPE     N17314   1.297   5.859   5.917
  156SAPE   HN117315   1.234   5.942   5.924
  156SAPE   HN217316   1.249   5.785   5.862
  156SAPE   HN317317   1.315   5.829   6.016
  156SAPE   C1217318   1.423   5.906   5.849
  156SAPE  H12A17319   1.395   5.942   5.749
  156SAPE  H12B17320   1.490   5.821   5.834
  156SAPE   C1117321   1.488   6.020   5.925
  156SAPE  H11A17322   1.578   6.063   5.876
  156SAPE  H11B17323   1.523   5.983   6.025
  156SAPE     P17324   1.360   6.195   6.065
  156SAPE   O1317325   1.273   6.311   6.036
  156SAPE   O1417326   1.323   6.090   6.162
  156SAPE   O1217327   1.389   6.122   5.930
  156SAPE   O1117328   1.502   6.240   6.101
  156SAPE    C117329   1.568   6.338   6.026
  156SAPE    HA17330   1.641   6.294   5.959
  156SAPE    HB17331   1.505   6.410   5.966
  156SAPE    C217332   1.622   6.410   6.141
  156SAPE    HS17333   1.711   6.473   6.099
  156SAPE   O2117334   1.695   6.348   6.245
  156SAPE   C2117335   1.787   6.271   6.196
  156SAPE   O2217336   1.824   6.267   6.081
  156SAPE   C2217337   1.818   6.175   6.309
  156SAPE   H2R17338   1.903   6.217   6.365
  156SAPE   H2S17339   1.731   6.168   6.378
  156SAPE    C317340   1.478   6.473   6.207
  156SAPE    HX17341   1.436   6.533   6.123
  156SAPE    HY17342   1.474   6.550   6.298
  156SAPE   O3117343   1.394   6.408   6.284
  156SAPE   C3117344   1.417   6.397   6.414
  156SAPE   O3217345   1.505   6.448   6.482
  156SAPE   C3217346   1.304   6.330   6.450
  156SAPE   H2X17347   1.347   6.229   6.443
  156SAPE   H2Y17348   1.223   6.346   6.373
  156SAPE   C2317349   1.836   6.031   6.258
  156SAPE   H3R17350   1.943   6.021   6.226
  156SAPE   H3S17351   1.771   6.008   6.171
  156SAPE   C2417352   1.788   5.927   6.360
  156SAPE   H4R17353   1.826   5.828   6.325
  156SAPE   H4S17354   1.683   5.923   6.378
  156SAPE   C2517355   1.839   5.956   6.491
  156SAPE   H5R17356   1.937   5.973   6.459
  156SAPE   C2617357   1.799   5.967   6.620
  156SAPE   H6R17358   1.863   5.981   6.709
  156SAPE   C2717359   1.670   5.949   6.672
  156SAPE   H7R17360   1.639   5.856   6.626
  156SAPE   H7S17361   1.628   6.039   6.626
  156SAPE   C2817362   1.675   5.936   6.823
  156SAPE   H8R17363   1.704   5.839   6.858
  156SAPE   C2917364   1.647   6.030   6.911
  156SAPE   H9R17365   1.645   6.015   7.020
  156SAPE  C21017366   1.604   6.163   6.863
  156SAPE  H10R17367   1.502   6.180   6.881
  156SAPE  H10S17368   1.634   6.197   6.762
  156SAPE  C21117369   1.604   6.284   6.929
  156SAPE  H11R17370   1.706   6.243   6.946
  156SAPE  C21217371   1.574   6.352   7.040
  156SAPE  H12R17372   1.639   6.451   7.053
  156SAPE  C21317373   1.516   6.281   7.160
  156SAPE  H13R17374   1.564   6.227   7.245
  156SAPE  H13S17375   1.464   6.195   7.119
  156SAPE  C21417376   1.456   6.408   7.204
  156SAPE  H14R17377   1.377   6.434   7.132
  156SAPE  C21517378   1.500   6.500   7.294
  156SAPE  H15R17379   1.449   6.589   7.286
  156SAPE  C21617380   1.609   6.535   7.393
  156SAPE  H16R17381   1.576   6.618   7.459
  156SAPE  H16S17382   1.708   6.564   7.352
  156SAPE  C21717383   1.632   6.441   7.506
  156SAPE  H17R17384   1.600   6.348   7.461
  156SAPE  H17S17385   1.555   6.401   7.568
  156SAPE  C21817386   1.765   6.462   7.582
  156SAPE  H18R17387   1.741   6.498   7.681
  156SAPE  H18S17388   1.848   6.516   7.526
  156SAPE  C21917389   1.814   6.352   7.670
  156SAPE  H19R17390   1.936   6.358   7.648
  156SAPE  H19S17391   1.926   6.312   7.623
  156SAPE  C22017392   1.675   6.184   7.711
  156SAPE  H20R17393   1.736   6.069   7.716
  156SAPE  H20S17394   1.614   6.134   7.644
  156SAPE  H20T17395   1.655   6.251   7.775
  156SAPE   C3317396   1.268   6.376   6.587
  156SAPE   H3X17397   1.237   6.483   6.589
  156SAPE   H3Y17398   1.356   6.365   6.653
  156SAPE   C3417399   1.151   6.292   6.631
  156SAPE   H4X17400   1.135   6.203   6.566
  156SAPE   H4Y17401   1.062   6.359   6.625
  156SAPE   C3517402   1.168   6.246   6.773
  156SAPE   H5X17403   1.074   6.204   6.799
  156SAPE   H5Y17404   1.190   6.332   6.839
  156SAPE   C3617405   1.265   6.132   6.799
  156SAPE   H6X17406   1.362   6.175   6.777
  156SAPE   H6Y17407   1.247   6.040   6.739
  156SAPE   C3717408   1.262   6.090   6.942
  156SAPE   H7X17409   1.254   6.180   7.007
  156SAPE   H7Y17410   1.356   6.041   6.975
  156SAPE   C3817411   1.156   5.983   6.949
  156SAPE   H8X17412   1.125   5.920   6.867
  156SAPE   H8Y17413   1.060   6.029   6.930
  156SAPE   C3917414   1.190   5.901   7.068
  156SAPE   H9X17415   1.267   5.829   7.055
  156SAPE   H9Y17416   1.122   5.810   7.071
  156SAPE  C31017417   1.231   5.988   7.195
  156SAPE  H10X17418   1.336   5.988   7.205
  156SAPE  H10Y17419   1.237   5.902   7.255
  156SAPE  C31117420   1.184   6.125   7.267
  156SAPE  H11X17421   1.099   6.095   7.311
  156SAPE  H11Y17422   1.138   6.210   7.213
  156SAPE  C31217423   1.166   6.131   7.420
  156SAPE  H12X17424   1.157   6.029   7.467
  156SAPE  H12Y17425   1.081   6.192   7.466
  156SAPE  C31317426   1.300   6.178   7.433
  156SAPE  H13X17427   1.310   6.279   7.388
  156SAPE  H13Y17428   1.365   6.103   7.385
  156SAPE  C31417429   1.334   6.190   7.567
  156SAPE  H14X17430   1.255   6.267   7.594
  156SAPE  H14Y17431   1.438   6.231   7.573
  156SAPE  C31517432   1.323   6.072   7.661
  156SAPE  H15X17433   1.216   6.047   7.668
  156SAPE  H15Y17434   1.353   6.104   7.764
  156SAPE  C31617435   1.417   5.962   7.614
  156SAPE  H16X17436   1.501   6.009   7.558
  156SAPE  H16Y17437   1.362   5.901   7.541
  156SAPE  C31717438   1.483   5.881   7.728
  156SAPE  H17X17439   1.548   5.950   7.783
  156SAPE  H17Y17440   1.544   5.797   7.690
  156SAPE  C31817441   1.398   5.828   7.839
  156SAPE  H18X17442   1.317   5.899   7.866
  156SAPE  H18Y17443   1.444   5.782   7.925
  156SAPE  H18Z17444   1.355   5.734   7.806
  157SAPE     N17445   5.434   1.010   5.834
  157SAPE   HN117446   5.470   1.023   5.931
  157SAPE   HN217447   5.509   1.035   5.768
  157SAPE   HN317448   5.353   1.072   5.814
  157SAPE   C1217449   5.381   0.868   5.823
  157SAPE  H12A17450   5.334   0.862   5.722
  157SAPE  H12B17451   5.304   0.859   5.903
  157SAPE   C1117452   5.481   0.752   5.846
  157SAPE  H11A17453   5.574   0.769   5.787
  157SAPE  H11B17454   5.432   0.658   5.811
  157SAPE     P17455   5.433   0.688   6.099
  157SAPE   O1317456   5.364   0.806   6.153
  157SAPE   O1417457   5.350   0.575   6.054
  157SAPE   O1217458   5.523   0.739   5.981
  157SAPE   O1117459   5.540   0.636   6.201
  157SAPE    C117460   5.645   0.547   6.158
  157SAPE    HA17461   5.601   0.459   6.106
  157SAPE    HB17462   5.715   0.600   6.090
  157SAPE    C217463   5.729   0.498   6.281
  157SAPE    HS17464   5.786   0.405   6.258
  157SAPE   O2117465   5.650   0.473   6.396
  157SAPE   C2117466   5.540   0.419   6.364
  157SAPE   O2217467   5.529   0.330   6.278
  157SAPE   C2217468   5.445   0.484   6.473
  157SAPE   H2R17469   5.368   0.426   6.506
  157SAPE   H2S17470   5.490   0.481   6.572
  157SAPE    C317471   5.829   0.606   6.322
  157SAPE    HX17472   5.896   0.622   6.235
  157SAPE    HY17473   5.893   0.569   6.404
  157SAPE   O3117474   5.760   0.724   6.364
  157SAPE   C3117475   5.751   0.822   6.274
  157SAPE   O3217476   5.811   0.829   6.169
  157SAPE   C3217477   5.662   0.930   6.334
  157SAPE   H2X17478   5.566   0.882   6.363
  157SAPE   H2Y17479   5.650   1.013   6.264
  157SAPE   C2317480   5.323   0.572   6.442
  157SAPE   H3R17481   5.270   0.538   6.350
  157SAPE   H3S17482   5.376   0.667   6.431
  157SAPE   C2417483   5.218   0.580   6.555
  157SAPE   H4R17484   5.270   0.621   6.642
  157SAPE   H4S17485   5.180   0.480   6.587
  157SAPE   C2517486   5.106   0.669   6.508
  157SAPE   H5R17487   5.044   0.632   6.430
  157SAPE   C2617488   5.071   0.790   6.538
  157SAPE   H6R17489   4.984   0.844   6.493
  157SAPE   C2717490   5.154   0.857   6.632
  157SAPE   H7R17491   5.107   0.938   6.587
  157SAPE   H7S17492   5.262   0.856   6.603
  157SAPE   C2817493   5.126   0.882   6.775
  157SAPE   H8R17494   5.028   0.932   6.792
  157SAPE   C2917495   5.214   0.876   6.875
  157SAPE   H9R17496   5.177   0.908   6.973
  157SAPE  C21017497   5.362   0.843   6.876
  157SAPE  H10R17498   5.398   0.867   6.978
  157SAPE  H10S17499   5.425   0.911   6.816
  157SAPE  C21117500   5.396   0.702   6.833
  157SAPE  H11R17501   5.432   0.696   6.730
  157SAPE  C21217502   5.408   0.593   6.909
  157SAPE  H12R17503   5.432   0.493   6.871
  157SAPE  C21317504   5.387   0.599   7.052
  157SAPE  H13R17505   5.339   0.691   7.089
  157SAPE  H13S17506   5.483   0.586   7.108
  157SAPE  C21417507   5.272   0.521   7.085
  157SAPE  H14R17508   5.220   0.445   7.020
  157SAPE  C21517509   5.283   0.480   7.204
  157SAPE  H15R17510   5.203   0.403   7.191
  157SAPE  C21617511   5.390   0.491   7.320
  157SAPE  H16R17512   5.443   0.583   7.311
  157SAPE  H16S17513   5.481   0.418   7.323
  157SAPE  C21717514   5.318   0.486   7.457
  157SAPE  H17R17515   5.277   0.394   7.481
  157SAPE  H17S17516   5.221   0.535   7.455
  157SAPE  C21817517   5.399   0.471   7.583
  157SAPE  H18R17518   5.452   0.565   7.582
  157SAPE  H18S17519   5.463   0.378   7.581
  157SAPE  C21917520   5.317   0.466   7.707
  157SAPE  H19R17521   5.245   0.380   7.707
  157SAPE  H19S17522   5.260   0.559   7.725
  157SAPE  C22017523   5.411   0.455   7.818
  157SAPE  H20R17524   5.458   0.545   7.860
  157SAPE  H20S17525   5.489   0.378   7.799
  157SAPE  H20T17526   5.335   0.432   7.891
  157SAPE   C3317527   5.734   0.991   6.451
  157SAPE   H3X17528   5.821   1.034   6.400
  157SAPE   H3Y17529   5.769   0.908   6.512
  157SAPE   C3417530   5.654   1.085   6.545
  157SAPE   H4X17531   5.551   1.043   6.536
  157SAPE   H4Y17532   5.621   1.175   6.493
  157SAPE   C3517533   5.732   1.112   6.687
  157SAPE   H5X17534   5.685   1.197   6.739
  157SAPE   H5Y17535   5.840   1.142   6.676
  157SAPE   C3617536   5.747   0.997   6.790
  157SAPE   H6X17537   5.781   0.903   6.728
  157SAPE   H6Y17538   5.658   0.985   6.854
  157SAPE   C3717539   5.836   0.996   6.899
  157SAPE   H7X17540   5.854   1.086   6.954
  157SAPE   H7Y17541   5.894   1.000   6.812
  157SAPE   C3817542   5.852   0.865   6.968
  157SAPE   H8X17543   5.939   0.921   6.998
  157SAPE   H8Y17544   5.879   0.774   6.908
  157SAPE   C3917545   5.757   0.826   7.077
  157SAPE   H9X17546   5.700   0.733   7.052
  157SAPE   H9Y17547   5.693   0.914   7.074
  157SAPE  C31017548   5.816   0.790   7.209
  157SAPE  H10X17549   5.853   0.886   7.247
  157SAPE  H10Y17550   5.901   0.717   7.202
  157SAPE  C31117551   5.712   0.722   7.296
  157SAPE  H11X17552   5.765   0.698   7.390
  157SAPE  H11Y17553   5.685   0.627   7.245
  157SAPE  C31217554   5.584   0.803   7.321
  157SAPE  H12X17555   5.519   0.745   7.391
  157SAPE  H12Y17556   5.531   0.825   7.227
  157SAPE  C31317557   5.611   0.936   7.388
  157SAPE  H13X17558   5.512   0.977   7.419
  157SAPE  H13Y17559   5.656   1.002   7.313
  157SAPE  C31417560   5.713   0.912   7.499
  157SAPE  H14X17561   5.817   0.903   7.464
  157SAPE  H14Y17562   5.674   0.828   7.556
  157SAPE  C31517563   5.725   1.006   7.610
  157SAPE  H15X17564   5.728   1.089   7.544
  157SAPE  H15Y17565   5.814   1.033   7.667
  157SAPE  C31617566   5.605   1.004   7.696
  157SAPE  H16X17567   5.516   0.988   7.628
  157SAPE  H16Y17568   5.617   1.085   7.775
  157SAPE  C31717569   5.559   0.911   7.786
  157SAPE  H17X17570   5.665   0.901   7.810
  157SAPE  H17Y17571   5.506   0.841   7.717
  157SAPE  C31817572   5.469   0.959   7.898
  157SAPE  H18X17573   5.364   0.973   7.867
  157SAPE  H18Y17574   5.503   1.041   7.965
  157SAPE  H18Z17575   5.471   0.875   7.963
  158SAPE     N17576   0.658   6.166   5.917
  158SAPE   HN117577   0.560   6.198   5.920
  158SAPE   HN217578   0.689   6.136   6.012
  158SAPE   HN317579   0.717   6.244   5.883
  158SAPE   C1217580   0.662   6.039   5.834
  158SAPE  H12A17581   0.765   6.001   5.837
  158SAPE  H12B17582   0.634   6.066   5.731
  158SAPE   C1117583   0.568   5.930   5.888
  158SAPE  H11A17584   0.571   5.838   5.823
  158SAPE  H11B17585   0.462   5.962   5.878
  158SAPE     P17586   0.616   5.752   6.069
  158SAPE   O1317587   0.484   5.687   6.077
  158SAPE   O1417588   0.720   5.693   5.982
  158SAPE   O1217589   0.600   5.906   6.025
  158SAPE   O1117590   0.675   5.763   6.212
  158SAPE    C117591   0.801   5.822   6.237
  158SAPE    HA17592   0.868   5.737   6.263
  158SAPE    HB17593   0.845   5.876   6.150
  158SAPE    C217594   0.796   5.914   6.361
  158SAPE    HS17595   0.900   5.928   6.397
  158SAPE   O2117596   0.713   5.856   6.463
  158SAPE   C2117597   0.770   5.762   6.533
  158SAPE   O2217598   0.890   5.745   6.545
  158SAPE   C2217599   0.661   5.678   6.598
  158SAPE   H2R17600   0.571   5.742   6.606
  158SAPE   H2S17601   0.635   5.594   6.530
  158SAPE    C317602   0.744   6.057   6.330
  158SAPE    HX17603   0.637   6.060   6.299
  158SAPE    HY17604   0.805   6.095   6.246
  158SAPE   O3117605   0.770   6.141   6.443
  158SAPE   C3117606   0.676   6.135   6.537
  158SAPE   O3217607   0.566   6.086   6.525
  158SAPE   C3217608   0.724   6.210   6.660
  158SAPE   H2X17609   0.649   6.290   6.678
  158SAPE   H2Y17610   0.824   6.254   6.643
  158SAPE   C2317611   0.694   5.625   6.738
  158SAPE   H3R17612   0.793   5.579   6.749
  158SAPE   H3S17613   0.617   5.548   6.757
  158SAPE   C2417614   0.683   5.734   6.843
  158SAPE   H4R17615   0.585   5.782   6.826
  158SAPE   H4S17616   0.764   5.808   6.823
  158SAPE   C2517617   0.695   5.680   6.983
  158SAPE   H5R17618   0.788   5.625   7.003
  158SAPE   C2617619   0.599   5.686   7.077
  158SAPE   H6R17620   0.618   5.629   7.169
  158SAPE   C2717621   0.463   5.750   7.059
  158SAPE   H7R17622   0.409   5.688   6.985
  158SAPE   H7S17623   0.468   5.849   7.007
  158SAPE   C2817624   0.372   5.749   7.179
  158SAPE   H8R17625   0.360   5.650   7.226
  158SAPE   C2917626   0.300   5.849   7.231
  158SAPE   H9R17627   0.246   5.821   7.318
  158SAPE  C21017628   0.288   5.992   7.184
  158SAPE  H10R17629   0.187   6.021   7.153
  158SAPE  H10S17630   0.346   6.001   7.092
  158SAPE  C21117631   0.320   6.101   7.281
  158SAPE  H11R17632   0.237   6.171   7.301
  158SAPE  C21217633   0.438   6.123   7.337
  158SAPE  H12R17634   0.445   6.199   7.415
  158SAPE  C21317635   0.560   6.038   7.312
  158SAPE  H13R17636   0.654   6.097   7.310
  158SAPE  H13S17637   0.554   5.998   7.208
  158SAPE  C21417638   0.573   5.925   7.411
  158SAPE  H14R17639   0.566   5.829   7.360
  158SAPE  C21517640   0.599   5.932   7.543
  158SAPE  H15R17641   0.601   5.841   7.606
  158SAPE  C21617642   0.622   6.062   7.615
  158SAPE  H16R17643   0.574   6.145   7.559
  158SAPE  H16S17644   0.729   6.084   7.621
  158SAPE  C21717645   0.570   6.073   7.755
  158SAPE  H17R17646   0.587   5.990   7.825
  158SAPE  H17S17647   0.467   6.064   7.735
  158SAPE  C21817648   0.600   6.209   7.814
  158SAPE  H18R17649   0.523   6.224   7.884
  158SAPE  H18S17650   0.582   6.295   7.747
  158SAPE  C21917651   0.728   6.224   7.892
  158SAPE  H19R17652   0.774   6.125   7.918
  158SAPE  H19S17653   0.707   6.277   7.988
  158SAPE  C22017654   0.828   6.306   7.813
  158SAPE  H20R17655   0.866   6.248   7.727
  158SAPE  H20S17656   0.916   6.321   7.876
  158SAPE  H20T17657   0.788   6.404   7.778
  158SAPE   C3317658   0.727   6.116   6.781
  158SAPE   H3X17659   0.772   6.018   6.753
  158SAPE   H3Y17660   0.624   6.100   6.817
  158SAPE   C3417661   0.820   6.169   6.888
  158SAPE   H4X17662   0.807   6.273   6.920
  158SAPE   H4Y17663   0.912   6.162   6.833
  158SAPE   C3517664   0.846   6.078   7.003
  158SAPE   H5X17665   0.875   5.977   6.962
  158SAPE   H5Y17666   0.761   6.066   7.070
  158SAPE   C3617667   0.949   6.131   7.098
  158SAPE   H6X17668   0.945   6.239   7.123
  158SAPE   H6Y17669   1.051   6.155   7.058
  158SAPE   C3717670   0.936   6.025   7.213
  158SAPE   H7X17671   0.905   6.098   7.285
  158SAPE   H7Y17672   0.900   5.977   7.298
  158SAPE   C3817673   0.959   5.874   7.215
  158SAPE   H8X17674   0.989   5.916   7.125
  158SAPE   H8Y17675   0.873   5.822   7.173
  158SAPE   C3917676   1.043   5.809   7.334
  158SAPE   H9X17677   1.136   5.850   7.381
  158SAPE   H9Y17678   1.075   5.705   7.308
  158SAPE  C31017679   0.969   5.836   7.464
  158SAPE  H10X17680   0.865   5.855   7.441
  158SAPE  H10Y17681   1.010   5.921   7.524
  158SAPE  C31117682   0.934   5.716   7.536
  158SAPE  H11X17683   1.009   5.734   7.597
  158SAPE  H11Y17684   0.962   5.623   7.494
  158SAPE  C31217685   0.859   5.727   7.661
  158SAPE  H12X17686   0.761   5.699   7.629
  158SAPE  H12Y17687   0.868   5.826   7.713
  158SAPE  C31317688   0.901   5.625   7.754
  158SAPE  H13X17689   1.007   5.628   7.793
  158SAPE  H13Y17690   0.883   5.521   7.715
  158SAPE  C31417691   0.820   5.635   7.860
  158SAPE  H14X17692   0.915   5.594   7.922
  158SAPE  H14Y17693   0.735   5.561   7.836
  158SAPE  C31517694   0.760   5.751   7.937
  158SAPE  H15X17695   0.703   5.804   7.861
  158SAPE  H15Y17696   0.845   5.803   7.982
  158SAPE  C31617697   0.655   5.731   8.053
  158SAPE  H16X17698   0.689   5.673   8.143
  158SAPE  H16Y17699   0.571   5.669   8.020
  158SAPE  C31717700   0.613   5.858   8.119
  158SAPE  H17X17701   0.554   5.917   8.047
  158SAPE  H17Y17702   0.705   5.913   8.149
  158SAPE  C31817703   0.531   5.826   8.242
  158SAPE  H18X17704   0.475   5.911   8.281
  158SAPE  H18Y17705   0.602   5.797   8.323
  158SAPE  H18Z17706   0.456   5.748   8.215
  159SAPE     N17707   0.909   1.483   5.961
  159SAPE   HN117708   0.983   1.542   5.915
  159SAPE   HN217709   0.821   1.536   5.972
  159SAPE   HN317710   0.944   1.449   6.053
  159SAPE   C1217711   0.874   1.360   5.885
  159SAPE  H12A17712   0.927   1.277   5.937
  159SAPE  H12B17713   0.915   1.374   5.782
  159SAPE   C1117714   0.721   1.340   5.887
  159SAPE  H11A17715   0.693   1.267   5.807
  159SAPE  H11B17716   0.668   1.433   5.860
  159SAPE     P17717   0.647   1.153   6.055
  159SAPE   O1317718   0.542   1.139   6.157
  159SAPE   O1417719   0.640   1.075   5.929
  159SAPE   O1217720   0.672   1.305   6.016
  159SAPE   O1117721   0.787   1.123   6.119
  159SAPE    C117722   0.834   0.988   6.107
  159SAPE    HA17723   0.753   0.912   6.111
  159SAPE    HB17724   0.886   0.976   6.010
  159SAPE    C217725   0.940   0.956   6.215
  159SAPE    HS17726   0.967   0.848   6.210
  159SAPE   O2117727   0.887   0.990   6.347
  159SAPE   C2117728   0.797   0.901   6.394
  159SAPE   O2217729   0.765   0.800   6.333
  159SAPE   C2217730   0.745   0.939   6.535
  159SAPE   H2R17731   0.813   0.901   6.615
  159SAPE   H2S17732   0.740   1.049   6.545
  159SAPE    C317733   1.074   1.034   6.180
  159SAPE    HX17734   1.109   1.010   6.078
  159SAPE    HY17735   1.154   0.999   6.246
  159SAPE   O3117736   1.061   1.177   6.180
  159SAPE   C3117737   1.082   1.235   6.296
  159SAPE   O3217738   1.140   1.192   6.391
  159SAPE   C3217739   1.013   1.365   6.301
  159SAPE   H2X17740   0.998   1.404   6.200
  159SAPE   H2Y17741   1.076   1.432   6.364
  159SAPE   C2317742   0.616   0.874   6.577
  159SAPE   H3R17743   0.649   0.770   6.568
  159SAPE   H3S17744   0.537   0.901   6.504
  159SAPE   C2417745   0.572   0.905   6.721
  159SAPE   H4R17746   0.472   0.862   6.742
  159SAPE   H4S17747   0.559   1.014   6.722
  159SAPE   C2517748   0.667   0.877   6.832
  159SAPE   H5R17749   0.769   0.911   6.816
  159SAPE   C2617750   0.639   0.824   6.951
  159SAPE   H6R17751   0.723   0.820   7.021
  159SAPE   C2717752   0.505   0.777   7.004
  159SAPE   H7R17753   0.503   0.667   7.006
  159SAPE   H7S17754   0.419   0.801   6.938
  159SAPE   C2817755   0.483   0.833   7.142
  159SAPE   H8R17756   0.396   0.902   7.144
  159SAPE   C2917757   0.527   0.779   7.259
  159SAPE   H9R17758   0.484   0.814   7.354
  159SAPE  C21017759   0.607   0.652   7.277
  159SAPE  H10R17760   0.571   0.570   7.212
  159SAPE  H10S17761   0.589   0.613   7.380
  159SAPE  C21117762   0.753   0.682   7.254
  159SAPE  H11R17763   0.796   0.649   7.160
  159SAPE  C21217764   0.833   0.738   7.344
  159SAPE  H12R17765   0.939   0.751   7.318
  159SAPE  C21317766   0.797   0.781   7.484
  159SAPE  H13R17767   0.692   0.802   7.503
  159SAPE  H13S17768   0.855   0.872   7.510
  159SAPE  C21417769   0.802   0.657   7.562
  159SAPE  H14R17770   0.754   0.669   7.664
  159SAPE  C21517771   0.915   0.592   7.571
  159SAPE  H15R17772   0.916   0.540   7.664
  159SAPE  C21617773   1.060   0.614   7.522
  159SAPE  H16R17774   1.057   0.668   7.436
  159SAPE  H16S17775   1.051   0.502   7.508
  159SAPE  C21717776   1.217   0.685   7.596
  159SAPE  H17R17777   1.319   0.675   7.560
  159SAPE  H17S17778   1.274   0.625   7.679
  159SAPE  C21817779   1.210   0.806   7.681
  159SAPE  H18R17780   1.227   0.786   7.789
  159SAPE  H18S17781   1.115   0.840   7.708
  159SAPE  C21917782   1.195   0.925   7.608
  159SAPE  H19R17783   1.134   0.899   7.520
  159SAPE  H19S17784   1.291   0.943   7.576
  159SAPE  C22017785   1.152   1.045   7.682
  159SAPE  H20R17786   1.047   1.036   7.709
  159SAPE  H20S17787   1.184   1.129   7.623
  159SAPE  H20T17788   1.207   1.060   7.772
  159SAPE   C3317789   0.887   1.343   6.383
  159SAPE   H3X17790   0.917   1.317   6.487
  159SAPE   H3Y17791   0.830   1.255   6.346
  159SAPE   C3417792   0.805   1.469   6.379
  159SAPE   H4X17793   0.808   1.513   6.276
  159SAPE   H4Y17794   0.848   1.546   6.448
  159SAPE   C3517795   0.659   1.437   6.403
  159SAPE   H5X17796   0.616   1.381   6.318
  159SAPE   H5Y17797   0.617   1.535   6.395
  159SAPE   C3617798   0.621   1.368   6.535
  159SAPE   H6X17799   0.662   1.428   6.619
  159SAPE   H6Y17800   0.665   1.267   6.539
  159SAPE   C3717801   0.469   1.344   6.545
  159SAPE   H7X17802   0.425   1.319   6.448
  159SAPE   H7Y17803   0.426   1.440   6.565
  159SAPE   C3817804   0.417   1.258   6.661
  159SAPE   H8X17805   0.436   1.153   6.637
  159SAPE   H8Y17806   0.307   1.270   6.671
  159SAPE   C3917807   0.491   1.296   6.790
  159SAPE   H9X17808   0.475   1.403   6.806
  159SAPE   H9Y17809   0.596   1.270   6.782
  159SAPE  C31017810   0.468   1.217   6.916
  159SAPE  H10X17811   0.465   1.108   6.911
  159SAPE  H10Y17812   0.377   1.264   6.931
  159SAPE  C31117813   0.489   1.270   7.055
  159SAPE  H11X17814   0.427   1.212   7.127
  159SAPE  H11Y17815   0.458   1.373   7.059
  159SAPE  C31217816   0.628   1.287   7.088
  159SAPE  H12X17817   0.637   1.364   7.167
  159SAPE  H12Y17818   0.676   1.323   6.995
  159SAPE  C31317819   0.675   1.155   7.135
  159SAPE  H13X17820   0.785   1.162   7.139
  159SAPE  H13Y17821   0.645   1.079   7.058
  159SAPE  C31417822   0.620   1.120   7.274
  159SAPE  H14X17823   0.668   1.024   7.303
  159SAPE  H14Y17824   0.510   1.103   7.273
  159SAPE  C31517825   0.648   1.223   7.382
  159SAPE  H15X17826   0.592   1.318   7.364
  159SAPE  H15Y17827   0.756   1.252   7.378
  159SAPE  C31617828   0.611   1.168   7.519
  159SAPE  H16X17829   0.614   1.058   7.526
  159SAPE  H16Y17830   0.504   1.193   7.541
  159SAPE  C31717831   0.705   1.218   7.626
  159SAPE  H17X17832   0.670   1.172   7.721
  159SAPE  H17Y17833   0.710   1.330   7.625
  159SAPE  C31817834   0.846   1.179   7.641
  159SAPE  H18X17835   0.847   1.073   7.674
  159SAPE  H18Y17836   0.887   1.244   7.722
  159SAPE  H18Z17837   0.899   1.203   7.548
  160SAPE     N17838   1.143   0.055   5.765
  160SAPE   HN117839   1.219  -0.006   5.726
  160SAPE   HN217840   1.054   0.030   5.710
  160SAPE   HN317841   1.147   0.155   5.781
  160SAPE   C1217842   1.118  -0.004   5.893
  160SAPE  H12A17843   1.204  -0.048   5.944
  160SAPE  H12B17844   1.079  -0.096   5.843
  160SAPE   C1117845   1.049   0.099   5.987
  160SAPE  H11A17846   1.100   0.196   5.972
  160SAPE  H11B17847   1.069   0.082   6.095
  160SAPE     P17848   0.806   0.120   6.093
  160SAPE   O1317849   0.862   0.170   6.217
  160SAPE   O1417850   0.679   0.173   6.041
  160SAPE   O1217851   0.909   0.119   5.968
  160SAPE   O1117852   0.788  -0.036   6.109
  160SAPE    C117853   0.679  -0.119   6.143
  160SAPE    HA17854   0.586  -0.061   6.162
  160SAPE    HB17855   0.642  -0.192   6.066
  160SAPE    C217856   0.725  -0.209   6.245
  160SAPE    HS17857   0.640  -0.269   6.245
  160SAPE   O2117858   0.743  -0.134   6.363
  160SAPE   C2117859   0.643  -0.060   6.401
  160SAPE   O2217860   0.524  -0.081   6.375
  160SAPE   C2217861   0.694   0.013   6.521
  160SAPE   H2R17862   0.729  -0.031   6.611
  160SAPE   H2S17863   0.799   0.032   6.511
  160SAPE    C317864   0.852  -0.290   6.210
  160SAPE    HX17865   0.844  -0.348   6.116
  160SAPE    HY17866   0.871  -0.369   6.281
  160SAPE   O3117867   0.966  -0.205   6.207
  160SAPE   C3117868   1.000  -0.177   6.327
  160SAPE   O3217869   0.969  -0.236   6.429
  160SAPE   C3217870   1.097  -0.062   6.314
  160SAPE   H2X17871   1.042   0.027   6.288
  160SAPE   H2Y17872   1.179  -0.084   6.242
  160SAPE   C2317873   0.592   0.109   6.572
  160SAPE   H3R17874   0.508   0.083   6.638
  160SAPE   H3S17875   0.520   0.114   6.490
  160SAPE   C2417876   0.678   0.223   6.620
  160SAPE   H4R17877   0.742   0.264   6.537
  160SAPE   H4S17878   0.749   0.190   6.697
  160SAPE   C2517879   0.592   0.329   6.672
  160SAPE   H5R17880   0.524   0.354   6.593
  160SAPE   C2617881   0.565   0.372   6.792
  160SAPE   H6R17882   0.511   0.466   6.808
  160SAPE   C2717883   0.628   0.308   6.908
  160SAPE   H7R17884   0.738   0.308   6.895
  160SAPE   H7S17885   0.594   0.202   6.903
  160SAPE   C2817886   0.586   0.377   7.033
  160SAPE   H8R17887   0.564   0.485   7.022
  160SAPE   C2917888   0.567   0.315   7.151
  160SAPE   H9R17889   0.525   0.373   7.235
  160SAPE  C21017890   0.583   0.170   7.186
  160SAPE  H10R17891   0.567   0.164   7.296
  160SAPE  H10S17892   0.685   0.132   7.171
  160SAPE  C21117893   0.487   0.072   7.127
  160SAPE  H11R17894   0.431   0.105   7.037
  160SAPE  C21217895   0.479  -0.054   7.179
  160SAPE  H12R17896   0.413  -0.134   7.148
  160SAPE  C21317897   0.552  -0.115   7.290
  160SAPE  H13R17898   0.644  -0.057   7.300
  160SAPE  H13S17899   0.581  -0.216   7.255
  160SAPE  C21417900   0.487  -0.142   7.419
  160SAPE  H14R17901   0.390  -0.196   7.415
  160SAPE  C21517902   0.508  -0.069   7.526
  160SAPE  H15R17903   0.440  -0.092   7.608
  160SAPE  C21617904   0.592   0.056   7.554
  160SAPE  H16R17905   0.654   0.065   7.468
  160SAPE  H16S17906   0.659   0.042   7.636
  160SAPE  C21717907   0.539   0.196   7.606
  160SAPE  H17R17908   0.474   0.182   7.696
  160SAPE  H17S17909   0.482   0.259   7.534
  160SAPE  C21817910   0.644   0.298   7.611
  160SAPE  H18R17911   0.594   0.399   7.614
  160SAPE  H18S17912   0.702   0.287   7.516
  160SAPE  C21917913   0.727   0.271   7.731
  160SAPE  H19R17914   0.785   0.177   7.712
  160SAPE  H19S17915   0.662   0.274   7.820
  160SAPE  C22017916   0.816   0.376   7.766
  160SAPE  H20R17917   0.919   0.343   7.756
  160SAPE  H20S17918   0.803   0.438   7.855
  160SAPE  H20T17919   0.780   0.441   7.687
  160SAPE   C3317920   1.147  -0.027   6.448
  160SAPE   H3X17921   1.241   0.034   6.445
  160SAPE   H3Y17922   1.151  -0.128   6.492
  160SAPE   C3417923   1.064   0.034   6.554
  160SAPE   H4X17924   1.010  -0.052   6.602
  160SAPE   H4Y17925   1.003   0.113   6.514
  160SAPE   C3517926   1.145   0.110   6.655
  160SAPE   H5X17927   1.211   0.189   6.622
  160SAPE   H5Y17928   1.237   0.066   6.666
  160SAPE   C3617929   1.072   0.137   6.781
  160SAPE   H6X17930   0.980   0.195   6.760
  160SAPE   H6Y17931   1.141   0.191   6.848
  160SAPE   C3717932   1.017   0.023   6.856
  160SAPE   H7X17933   1.095  -0.038   6.886
  160SAPE   H7Y17934   0.952  -0.049   6.802
  160SAPE   C3817935   0.959   0.080   6.983
  160SAPE   H8X17936   0.969   0.006   7.058
  160SAPE   H8Y17937   0.854   0.106   6.968
  160SAPE   C3917938   1.037   0.152   7.089
  160SAPE   H9X17939   1.059   0.248   7.044
  160SAPE   H9Y17940   1.131   0.101   7.121
  160SAPE  C31017941   0.941   0.170   7.208
  160SAPE  H10X17942   0.895   0.082   7.256
  160SAPE  H10Y17943   0.865   0.241   7.166
  160SAPE  C31117944   1.008   0.235   7.321
  160SAPE  H11X17945   0.941   0.290   7.389
  160SAPE  H11Y17946   1.046   0.309   7.255
  160SAPE  C31217947   1.125   0.167   7.396
  160SAPE  H12X17948   1.146   0.222   7.490
  160SAPE  H12Y17949   1.221   0.163   7.340
  160SAPE  C31317950   1.088   0.036   7.451
  160SAPE  H13X17951   1.181   0.014   7.507
  160SAPE  H13Y17952   1.066  -0.026   7.363
  160SAPE  C31417953   0.973   0.038   7.549
  160SAPE  H14X17954   0.891   0.090   7.498
  160SAPE  H14Y17955   1.005   0.094   7.639
  160SAPE  C31517956   0.921  -0.096   7.589
  160SAPE  H15X17957   0.930  -0.172   7.507
  160SAPE  H15Y17958   0.815  -0.092   7.618
  160SAPE  C31617959   0.984  -0.142   7.714
  160SAPE  H16X17960   0.951  -0.100   7.807
  160SAPE  H16Y17961   1.093  -0.115   7.706
  160SAPE  C31717962   0.933  -0.280   7.717
  160SAPE  H17X17963   0.951  -0.316   7.621
  160SAPE  H17Y17964   0.841  -0.327   7.733
  160SAPE  C31817965   0.980  -0.355   7.806
  160SAPE  H18X17966   0.941  -0.409   7.892
  160SAPE  H18Y17967   1.093  -0.343   7.791
  160SAPE  H18Z17968   1.036  -0.419   7.793
  161SOPE     N17969   3.809   2.071  10.151
  161SOPE   HN117970   3.901   2.097  10.191
  161SOPE   HN217971   3.812   1.978  10.106
  161SOPE   HN317972   3.787   2.144  10.078
  161SOPE   C1217973   3.698   2.076  10.253
  161SOPE  H12A17974   3.740   2.128  10.341
  161SOPE  H12B17975   3.675   1.972  10.281
  161SOPE   C1117976   3.567   2.139  10.199
  161SOPE  H11A17977   3.486   2.123  10.273
  161SOPE  H11B17978   3.525   2.082  10.114
  161SOPE     P17979   3.640   2.338  10.036
  161SOPE   O1317980   3.788   2.324  10.045
  161SOPE   O1417981   3.583   2.470  10.007
  161SOPE   O1217982   3.582   2.279  10.172
  161SOPE   O1117983   3.587   2.230   9.938
  161SOPE    C117984   3.667   2.127   9.878
  161SOPE    HA17985   3.638   2.030   9.924
  161SOPE    HB17986   3.774   2.146   9.883
  161SOPE    C217987   3.646   2.123   9.732
  161SOPE    HS17988   3.695   2.047   9.665
  161SOPE   O2117989   3.681   2.262   9.683
  161SOPE   C2117990   3.798   2.267   9.620
  161SOPE   O2217991   3.869   2.171   9.598
  161SOPE   C2217992   3.837   2.410   9.572
  161SOPE   H2R17993   3.933   2.397   9.517
  161SOPE   H2S17994   3.858   2.480   9.654
  161SOPE    C317995   3.498   2.077   9.743
  161SOPE    HX17996   3.426   2.141   9.789
  161SOPE    HY17997   3.447   1.983   9.713
  161SOPE   O3117998   3.512   2.110   9.633
  161SOPE   C3117999   3.412   2.426   9.664
  161SOPE   O3218000   3.373   2.356   9.764
  161SOPE   C3218001   3.361   2.419   9.433
  161SOPE   H2X18002   3.280   2.330   9.404
  161SOPE   H2Y18003   3.430   2.349   9.372
  161SOPE   C2318004   3.727   2.479   9.489
  161SOPE   H3R18005   3.746   2.588   9.482
  161SOPE   H3S18006   3.634   2.476   9.549
  161SOPE   C2418007   3.711   2.421   9.348
  161SOPE   H4R18008   3.685   2.313   9.356
  161SOPE   H4S18009   3.627   2.474   9.300
  161SOPE   C2518010   3.832   2.437   9.253
  161SOPE   H5R18011   3.847   2.544   9.228
  161SOPE   H5S18012   3.921   2.394   9.303
  161SOPE   C2618013   3.810   2.353   9.127
  161SOPE   H6R18014   3.825   2.248   9.164
  161SOPE   H6S18015   3.707   2.367   9.091
  161SOPE   C2718016   3.902   2.383   9.008
  161SOPE   H7R18017   3.910   2.492   8.992
  161SOPE   H7S18018   3.999   2.346   9.043
  161SOPE   C2818019   3.866   2.322   8.873
  161SOPE   H8R18020   3.772   2.354   8.825
  161SOPE   H8S18021   3.937   2.346   8.799
  161SOPE   C2918022   3.885   2.179   8.886
  161SOPE   H9118023   3.983   2.131   8.871
  161SOPE  C21018024   3.782   2.105   8.895
  161SOPE  H10118025   3.821   2.004   8.917
  161SOPE  C21118026   3.631   2.142   8.893
  161SOPE  H11R18027   3.614   2.240   8.936
  161SOPE  H11S18028   3.583   2.088   8.980
  161SOPE  C21218029   3.542   2.120   8.753
  161SOPE  H12R18030   3.583   2.192   8.682
  161SOPE  H12S18031   3.435   2.118   8.783
  161SOPE  C21318032   3.555   1.993   8.653
  161SOPE  H13R18033   3.535   1.893   8.686
  161SOPE  H13S18034   3.658   1.992   8.642
  161SOPE  C21418035   3.505   1.947   8.521
  161SOPE  H14R18036   3.411   1.890   8.539
  161SOPE  H14S18037   3.484   1.848   8.468
  161SOPE  C21518038   3.578   2.039   8.431
  161SOPE  H15R18039   3.673   2.080   8.471
  161SOPE  H15S18040   3.527   2.131   8.442
  161SOPE  C21618041   3.586   1.994   8.291
  161SOPE  H16R18042   3.499   1.944   8.240
  161SOPE  H16S18043   3.664   1.926   8.270
  161SOPE  C21718044   3.639   2.104   8.224
  161SOPE  H17R18045   3.750   2.111   8.231
  161SOPE  H17S18046   3.590   2.200   8.244
  161SOPE  C21818047   3.605   2.058   8.097
  161SOPE  H18R18048   3.507   2.062   8.047
  161SOPE  H18S18049   3.668   1.972   8.062
  161SOPE  H18T18050   3.645   2.147   8.059
  161SOPE   C3318051   3.254   2.491   9.366
  161SOPE   H3X18052   3.334   2.556   9.387
  161SOPE   H3Y18053   3.162   2.509   9.422
  161SOPE   C3418054   3.190   2.439   9.244
  161SOPE   H4X18055   3.137   2.536   9.233
  161SOPE   H4Y18056   3.116   2.356   9.266
  161SOPE   C3518057   3.289   2.412   9.137
  161SOPE   H5X18058   3.223   2.390   9.051
  161SOPE   H5Y18059   3.353   2.323   9.154
  161SOPE   C3618060   3.376   2.533   9.115
  161SOPE   H6X18061   3.448   2.545   9.199
  161SOPE   H6Y18062   3.311   2.624   9.112
  161SOPE   C3718063   3.457   2.521   8.988
  161SOPE   H7X18064   3.391   2.485   8.906
  161SOPE   H7Y18065   3.533   2.443   9.005
  161SOPE   C3818066   3.518   2.656   8.952
  161SOPE   H8X18067   3.609   2.671   9.014
  161SOPE   H8Y18068   3.443   2.733   8.982
  161SOPE   C3918069   3.556   2.668   8.804
  161SOPE   H9X18070   3.470   2.654   8.734
  161SOPE   H9Y18071   3.624   2.583   8.779
  161SOPE  C31018072   3.629   2.801   8.779
  161SOPE  H10X18073   3.573   2.883   8.829
  161SOPE  H10Y18074   3.631   2.826   8.671
  161SOPE  C31118075   3.772   2.806   8.835
  161SOPE  H11X18076   3.771   2.797   8.945
  161SOPE  H11Y18077   3.817   2.904   8.807
  161SOPE  C31218078   3.871   2.698   8.790
  161SOPE  H12X18079   3.845   2.600   8.832
  161SOPE  H12Y18080   3.970   2.732   8.828
  161SOPE  C31318081   3.878   2.683   8.641
  161SOPE  H13X18082   3.917   2.782   8.619
  161SOPE  H13Y18083   3.781   2.674   8.590
  161SOPE  C31418084   3.955   2.565   8.586
  161SOPE  H14X18085   3.952   2.559   8.475
  161SOPE  H14Y18086   3.906   2.475   8.629
  161SOPE  C31518087   4.096   2.551   8.618
  161SOPE  H15X18088   4.113   2.565   8.726
  161SOPE  H15Y18089   4.166   2.632   8.584
  161SOPE  C31618090   4.112   2.403   8.557
  161SOPE  H16X18091   4.049   2.321   8.567
  161SOPE  H16Y18092   4.176   2.323   8.605
  161SOPE  C31718093   4.192   2.394   8.462
  161SOPE  H17X18094   4.232   2.284   8.448
  161SOPE  H17Y18095   4.248   2.462   8.544
  161SOPE  C31818096   4.154   2.466   8.345
  161SOPE  H18X18097   4.203   2.401   8.275
  161SOPE  H18Y18098   4.184   2.574   8.336
  161SOPE  H18Z18099   4.051   2.449   8.329
  162SOPE     N18100   3.502   1.210  10.098
  162SOPE   HN118101   3.449   1.219  10.008
  162SOPE   HN218102   3.579   1.139  10.093
  162SOPE   HN318103   3.439   1.174  10.173
  162SOPE   C1218104   3.577   1.335  10.135
  162SOPE  H12A18105   3.647   1.358  10.052
  162SOPE  H12B18106   3.641   1.311  10.223
  162SOPE   C1118107   3.485   1.454  10.161
  162SOPE  H11A18108   3.553   1.541  10.171
  162SOPE  H11B18109   3.432   1.437  10.258
  162SOPE     P18110   3.260   1.556  10.083
  162SOPE   O1318111   3.266   1.681  10.005
  162SOPE   O1418112   3.241   1.566  10.229
  162SOPE   O1218113   3.395   1.478  10.052
  162SOPE   O1118114   3.146   1.467  10.026
  162SOPE    C118115   3.173   1.364   9.933
  162SOPE    HA18116   3.092   1.290   9.946
  162SOPE    HB18117   3.269   1.312   9.950
  162SOPE    C218118   3.166   1.412   9.788
  162SOPE    HS18119   3.167   1.325   9.717
  162SOPE   O2118120   3.272   1.501   9.751
  162SOPE   C2118121   3.389   1.455   9.735
  162SOPE   O2218122   3.425   1.339   9.748
  162SOPE   C2218123   3.481   1.574   9.704
  162SOPE   H2R18124   3.582   1.532   9.694
  162SOPE   H2S18125   3.473   1.645   9.791
  162SOPE    C318126   3.039   1.488   9.767
  162SOPE    HX18127   3.013   1.573   9.832
  162SOPE    HY18128   2.952   1.415   9.779
  162SOPE   O3118129   3.070   1.534   9.634
  162SOPE   C3118130   3.044   1.654   9.592
  162SOPE   O3218131   3.024   1.751   9.662
  162SOPE   C3218132   3.034   1.658   9.440
  162SOPE   H2X18133   2.941   1.615   9.400
  162SOPE   H2Y18134   3.120   1.612   9.392
  162SOPE   C2318135   3.444   1.660   9.581
  162SOPE   H3R18136   3.517   1.743   9.570
  162SOPE   H3S18137   3.345   1.709   9.599
  162SOPE   C2418138   3.454   1.588   9.446
  162SOPE   H4R18139   3.379   1.506   9.443
  162SOPE   H4S18140   3.426   1.664   9.370
  162SOPE   C2518141   3.595   1.533   9.406
  162SOPE   H5R18142   3.671   1.614   9.406
  162SOPE   H5S18143   3.631   1.453   9.474
  162SOPE   C2618144   3.597   1.481   9.261
  162SOPE   H6R18145   3.534   1.392   9.244
  162SOPE   H6S18146   3.552   1.566   9.207
  162SOPE   C2718147   3.738   1.455   9.203
  162SOPE   H7R18148   3.803   1.537   9.241
  162SOPE   H7S18149   3.780   1.356   9.234
  162SOPE   C2818150   3.747   1.464   9.050
  162SOPE   H8R18151   3.687   1.548   9.011
  162SOPE   H8S18152   3.853   1.492   9.026
  162SOPE   C2918153   3.722   1.331   8.983
  162SOPE   H9118154   3.814   1.272   8.979
  162SOPE  C21018155   3.607   1.275   8.940
  162SOPE  H10118156   3.613   1.179   8.886
  162SOPE  C21118157   3.469   1.335   8.949
  162SOPE  H11R18158   3.464   1.393   9.044
  162SOPE  H11S18159   3.388   1.258   8.954
  162SOPE  C21218160   3.430   1.435   8.838
  162SOPE  H12R18161   3.489   1.526   8.852
  162SOPE  H12S18162   3.324   1.463   8.859
  162SOPE  C21318163   3.452   1.394   8.690
  162SOPE  H13R18164   3.454   1.284   8.682
  162SOPE  H13S18165   3.551   1.431   8.653
  162SOPE  C21418166   3.347   1.454   8.594
  162SOPE  H14R18167   3.340   1.565   8.605
  162SOPE  H14S18168   3.253   1.412   8.630
  162SOPE  C21518169   3.367   1.413   8.447
  162SOPE  H15R18170   3.346   1.304   8.441
  162SOPE  H15S18171   3.472   1.439   8.419
  162SOPE  C21618172   3.273   1.480   8.345
  162SOPE  H16R18173   3.288   1.590   8.346
  162SOPE  H16S18174   3.171   1.456   8.377
  162SOPE  C21718175   3.278   1.428   8.200
  162SOPE  H17R18176   3.382   1.435   8.161
  162SOPE  H17S18177   3.213   1.494   8.138
  162SOPE  C21818178   3.217   1.288   8.189
  162SOPE  H18R18179   3.261   1.218   8.260
  162SOPE  H18S18180   3.237   1.237   8.098
  162SOPE  H18T18181   3.107   1.283   8.175
  162SOPE   C3318182   3.009   1.792   9.379
  162SOPE   H3X18183   3.083   1.857   9.419
  162SOPE   H3Y18184   2.916   1.825   9.416
  162SOPE   C3418185   2.992   1.805   9.230
  162SOPE   H4X18186   2.971   1.910   9.206
  162SOPE   H4Y18187   2.896   1.762   9.200
  162SOPE   C3518188   3.103   1.744   9.143
  162SOPE   H5X18189   3.068   1.747   9.040
  162SOPE   H5Y18190   3.155   1.649   9.167
  162SOPE   C3618191   3.223   1.811   9.135
  162SOPE   H6X18192   3.268   1.826   9.226
  162SOPE   H6Y18193   3.152   1.894   9.113
  162SOPE   C3718194   3.328   1.749   9.037
  162SOPE   H7X18195   3.274   1.716   8.944
  162SOPE   H7Y18196   3.374   1.668   9.088
  162SOPE   C3818197   3.433   1.850   8.980
  162SOPE   H8X18198   3.450   1.937   9.047
  162SOPE   H8Y18199   3.403   1.896   8.879
  162SOPE   C3918200   3.544   1.778   8.918
  162SOPE   H9X18201   3.500   1.723   8.834
  162SOPE   H9Y18202   3.594   1.740   9.006
  162SOPE  C31018203   3.648   1.863   8.871
  162SOPE  H10X18204   3.674   1.916   8.958
  162SOPE  H10Y18205   3.573   1.936   8.859
  162SOPE  C31118206   3.764   1.838   8.764
  162SOPE  H11X18207   3.844   1.802   8.827
  162SOPE  H11Y18208   3.808   1.932   8.718
  162SOPE  C31218209   3.747   1.739   8.649
  162SOPE  H12X18210   3.681   1.657   8.686
  162SOPE  H12Y18211   3.839   1.715   8.595
  162SOPE  C31318212   3.701   1.790   8.519
  162SOPE  H13X18213   3.742   1.895   8.503
  162SOPE  H13Y18214   3.600   1.758   8.563
  162SOPE  C31418215   3.668   1.731   8.386
  162SOPE  H14X18216   3.581   1.768   8.325
  162SOPE  H14Y18217   3.618   1.640   8.417
  162SOPE  C31518218   3.798   1.745   8.316
  162SOPE  H15X18219   3.868   1.706   8.392
  162SOPE  H15Y18220   3.831   1.852   8.300
  162SOPE  C31618221   3.790   1.662   8.192
  162SOPE  H16X18222   3.891   1.659   8.146
  162SOPE  H16Y18223   3.715   1.703   8.123
  162SOPE  C31718224   3.737   1.525   8.229
  162SOPE  H17X18225   3.637   1.523   8.273
  162SOPE  H17Y18226   3.809   1.490   8.308
  162SOPE  C31818227   3.704   1.434   8.114
  162SOPE  H18X18228   3.719   1.331   8.136
  162SOPE  H18Y18229   3.775   1.436   8.042
  162SOPE  H18Z18230   3.653   1.460   8.024
  163SOPE     N18231   4.989   1.772  10.351
  163SOPE   HN118232   4.948   1.721  10.431
  163SOPE   HN218233   5.064   1.834  10.382
  163SOPE   HN318234   4.916   1.828  10.303
  163SOPE   C1218235   5.035   1.665  10.256
  163SOPE  H12A18236   5.120   1.610  10.300
  163SOPE  H12B18237   5.067   1.716  10.163
  163SOPE   C1118238   4.917   1.570  10.237
  163SOPE  H11A18239   4.860   1.553  10.331
  163SOPE  H11B18240   4.957   1.470  10.210
  163SOPE     P18241   4.833   1.562   9.989
  163SOPE   O1318242   4.701   1.579   9.927
  163SOPE   O1418243   4.900   1.430   9.987
  163SOPE   O1218244   4.831   1.624  10.137
  163SOPE   O1118245   4.929   1.663   9.921
  163SOPE    C118246   4.904   1.802   9.902
  163SOPE    HA18247   4.972   1.860   9.969
  163SOPE    HB18248   4.797   1.826   9.923
  163SOPE    C218249   4.934   1.848   9.756
  163SOPE    HS18250   4.891   1.949   9.743
  163SOPE   O2118251   4.882   1.750   9.662
  163SOPE   C2118252   4.753   1.754   9.651
  163SOPE   O2218253   4.682   1.849   9.682
  163SOPE   C2218254   4.706   1.630   9.576
  163SOPE   H2R18255   4.605   1.615   9.611
  163SOPE   H2S18256   4.756   1.538   9.612
  163SOPE    C318257   5.081   1.857   9.725
  163SOPE    HX18258   5.144   1.928   9.784
  163SOPE    HY18259   5.095   1.893   9.619
  163SOPE   O3118260   5.117   1.718   9.741
  163SOPE   C3118261   5.174   1.670   9.855
  163SOPE   O3218262   5.208   1.739   9.949
  163SOPE   C3218263   5.244   1.537   9.811
  163SOPE   H2X18264   5.232   1.468   9.894
  163SOPE   H2Y18265   5.347   1.551   9.830
  163SOPE   C2318266   4.711   1.657   9.423
  163SOPE   H3R18267   4.816   1.669   9.392
  163SOPE   H3S18268   4.660   1.751   9.395
  163SOPE   C2418269   4.650   1.553   9.335
  163SOPE   H4R18270   4.659   1.451   9.372
  163SOPE   H4S18271   4.545   1.555   9.335
  163SOPE   C2518272   4.670   1.573   9.187
  163SOPE   H5R18273   4.601   1.652   9.145
  163SOPE   H5S18274   4.772   1.594   9.159
  163SOPE   C2618275   4.649   1.433   9.140
  163SOPE   H6R18276   4.563   1.398   9.205
  163SOPE   H6S18277   4.644   1.428   9.028
  163SOPE   C2718278   4.741   1.319   9.153
  163SOPE   H7R18279   4.768   1.318   9.258
  163SOPE   H7S18280   4.681   1.228   9.126
  163SOPE   C2818281   4.859   1.344   9.061
  163SOPE   H8R18282   4.842   1.433   8.996
  163SOPE   H8S18283   4.938   1.376   9.131
  163SOPE   C2918284   4.894   1.219   8.987
  163SOPE   H9118285   4.954   1.146   9.043
  163SOPE  C21018286   4.872   1.202   8.856
  163SOPE  H10118287   4.884   1.104   8.814
  163SOPE  C21118288   4.810   1.304   8.764
  163SOPE  H11R18289   4.881   1.385   8.747
  163SOPE  H11S18290   4.724   1.352   8.813
  163SOPE  C21218291   4.767   1.255   8.625
  163SOPE  H12R18292   4.710   1.167   8.644
  163SOPE  H12S18293   4.855   1.232   8.562
  163SOPE  C21318294   4.660   1.340   8.559
  163SOPE  H13R18295   4.696   1.444   8.556
  163SOPE  H13S18296   4.571   1.329   8.627
  163SOPE  C21418297   4.615   1.300   8.418
  163SOPE  H14R18298   4.518   1.343   8.394
  163SOPE  H14S18299   4.583   1.200   8.430
  163SOPE  C21518300   4.721   1.316   8.307
  163SOPE  H15R18301   4.797   1.236   8.320
  163SOPE  H15S18302   4.770   1.414   8.316
  163SOPE  C21618303   4.671   1.322   8.161
  163SOPE  H16R18304   4.748   1.345   8.085
  163SOPE  H16S18305   4.573   1.369   8.147
  163SOPE  C21718306   4.635   1.194   8.115
  163SOPE  H17R18307   4.603   1.156   8.217
  163SOPE  H17S18308   4.731   1.137   8.103
  163SOPE  C21818309   4.523   1.179   7.997
  163SOPE  H18R18310   4.523   1.082   7.939
  163SOPE  H18S18311   4.533   1.239   7.910
  163SOPE  H18T18312   4.419   1.167   8.039
  163SOPE   C3318313   5.213   1.470   9.670
  163SOPE   H3X18314   5.104   1.474   9.663
  163SOPE   H3Y18315   5.247   1.365   9.676
  163SOPE   C3418316   5.279   1.501   9.531
  163SOPE   H4X18317   5.375   1.458   9.505
  163SOPE   H4Y18318   5.325   1.590   9.534
  163SOPE   C3518319   5.189   1.567   9.428
  163SOPE   H5X18320   5.121   1.629   9.491
  163SOPE   H5Y18321   5.135   1.482   9.388
  163SOPE   C3618322   5.251   1.658   9.318
  163SOPE   H6X18323   5.314   1.602   9.247
  163SOPE   H6Y18324   5.314   1.738   9.359
  163SOPE   C3718325   5.148   1.745   9.244
  163SOPE   H7X18326   5.203   1.814   9.175
  163SOPE   H7Y18327   5.099   1.806   9.323
  163SOPE   C3818328   5.041   1.669   9.167
  163SOPE   H8X18329   4.951   1.659   9.226
  163SOPE   H8Y18330   5.072   1.562   9.160
  163SOPE   C3918331   4.995   1.741   9.036
  163SOPE   H9X18332   4.968   1.843   9.064
  163SOPE   H9Y18333   4.910   1.687   8.989
  163SOPE  C31018334   5.099   1.756   8.933
  163SOPE  H10X18335   5.196   1.804   8.963
  163SOPE  H10Y18336   5.069   1.795   8.832
  163SOPE  C31118337   5.126   1.616   8.926
  163SOPE  H11X18338   5.055   1.550   8.875
  163SOPE  H11Y18339   5.171   1.572   9.019
  163SOPE  C31218340   5.211   1.619   8.827
  163SOPE  H12X18341   5.254   1.534   8.883
  163SOPE  H12Y18342   5.313   1.668   8.860
  163SOPE  C31318343   5.156   1.561   8.664
  163SOPE  H13X18344   5.234   1.561   8.566
  163SOPE  H13Y18345   5.087   1.636   8.651
  163SOPE  C31418346   5.128   1.421   8.620
  163SOPE  H14X18347   5.062   1.397   8.700
  163SOPE  H14Y18348   5.208   1.344   8.625
  163SOPE  C31518349   5.091   1.420   8.477
  163SOPE  H15X18350   5.049   1.518   8.447
  163SOPE  H15Y18351   5.016   1.342   8.496
  163SOPE  C31618352   5.208   1.377   8.387
  163SOPE  H16X18353   5.268   1.295   8.434
  163SOPE  H16Y18354   5.279   1.459   8.361
  163SOPE  C31718355   5.146   1.316   8.264
  163SOPE  H17X18356   5.065   1.249   8.301
  163SOPE  H17Y18357   5.226   1.253   8.220
  163SOPE  C31818358   5.097   1.414   8.156
  163SOPE  H18X18359   5.074   1.359   8.063
  163SOPE  H18Y18360   5.177   1.488   8.133
  163SOPE  H18Z18361   5.006   1.471   8.186
  164SOPE     N18362   6.024   4.545  10.369
  164SOPE   HN118363   5.952   4.613  10.402
  164SOPE   HN218364   6.045   4.474  10.442
  164SOPE   HN318365   6.112   4.597  10.350
  164SOPE   C1218366   5.989   4.483  10.234
  164SOPE  H12A18367   5.883   4.507  10.210
  164SOPE  H12B18368   5.995   4.373  10.248
  164SOPE   C1118369   6.083   4.533  10.122
  164SOPE  H11A18370   6.064   4.484  10.023
  164SOPE  H11B18371   6.188   4.506  10.147
  164SOPE     P18372   6.156   4.765  10.015
  164SOPE   O1318373   6.289   4.765  10.077
  164SOPE   O1418374   6.085   4.894   9.996
  164SOPE   O1218375   6.066   4.674  10.111
  164SOPE   O1118376   6.156   4.679   9.882
  164SOPE    C118377   6.238   4.722   9.774
  164SOPE    HA18378   6.337   4.671   9.777
  164SOPE    HB18379   6.253   4.833   9.774
  164SOPE    C218380   6.176   4.686   9.639
  164SOPE    HS18381   6.233   4.735   9.557
  164SOPE   O2118382   6.043   4.729   9.631
  164SOPE   C2118383   6.021   4.854   9.627
  164SOPE   O2218384   6.097   4.949   9.629
  164SOPE   C2218385   5.878   4.862   9.596
  164SOPE   H2R18386   5.835   4.936   9.667
  164SOPE   H2S18387   5.825   4.766   9.600
  164SOPE    C318388   6.176   4.534   9.616
  164SOPE    HX18389   6.111   4.485   9.693
  164SOPE    HY18390   6.277   4.492   9.634
  164SOPE   O3118391   6.124   4.511   9.482
  164SOPE   C3118392   6.216   4.523   9.387
  164SOPE   O3218393   6.337   4.516   9.405
  164SOPE   C3218394   6.157   4.539   9.246
  164SOPE   H2X18395   6.241   4.498   9.183
  164SOPE   H2Y18396   6.137   4.643   9.218
  164SOPE   C2318397   5.877   4.910   9.454
  164SOPE   H3R18398   5.927   5.008   9.438
  164SOPE   H3S18399   5.771   4.917   9.450
  164SOPE   C2418400   5.862   4.828   9.330
  164SOPE   H4R18401   5.948   4.762   9.338
  164SOPE   H4S18402   5.768   4.769   9.340
  164SOPE   C2518403   5.866   4.914   9.201
  164SOPE   H5R18404   5.817   4.862   9.115
  164SOPE   H5S18405   5.816   5.013   9.208
  164SOPE   C2618406   6.012   4.944   9.170
  164SOPE   H6R18407   6.054   5.010   9.248
  164SOPE   H6S18408   6.070   4.851   9.178
  164SOPE   C2718409   6.037   5.006   9.035
  164SOPE   H7R18410   5.974   4.946   8.965
  164SOPE   H7S18411   6.008   5.114   9.037
  164SOPE   C2818412   6.187   5.008   8.999
  164SOPE   H8R18413   6.194   5.078   8.912
  164SOPE   H8S18414   6.243   5.058   9.081
  164SOPE   C2918415   6.246   4.874   8.965
  164SOPE   H9118416   6.290   4.815   9.046
  164SOPE  C21018417   6.246   4.822   8.843
  164SOPE  H10118418   6.282   4.721   8.820
  164SOPE  C21118419   6.188   4.887   8.726
  164SOPE  H11R18420   6.214   4.993   8.723
  164SOPE  H11S18421   6.078   4.886   8.720
  164SOPE  C21218422   6.228   4.802   8.615
  164SOPE  H12R18423   6.225   4.694   8.604
  164SOPE  H12S18424   6.341   4.805   8.601
  164SOPE  C21318425   6.127   4.842   8.512
  164SOPE  H13R18426   6.154   4.948   8.498
  164SOPE  H13S18427   6.027   4.882   8.509
  164SOPE  C21418428   6.144   4.735   8.414
  164SOPE  H14R18429   6.151   4.637   8.386
  164SOPE  H14S18430   6.258   4.746   8.395
  164SOPE  C21518431   6.017   4.732   8.312
  164SOPE  H15R18432   6.037   4.850   8.313
  164SOPE  H15S18433   5.978   4.834   8.302
  164SOPE  C21618434   6.048   4.638   8.144
  164SOPE  H16R18435   6.154   4.617   8.095
  164SOPE  H16S18436   6.026   4.673   8.036
  164SOPE  C21718437   6.021   4.514   8.166
  164SOPE  H17R18438   5.942   4.583   8.206
  164SOPE  H17S18439   6.117   4.502   8.226
  164SOPE  C21818440   6.005   4.465   8.024
  164SOPE  H18R18441   6.102   4.453   7.972
  164SOPE  H18S18442   5.935   4.525   7.958
  164SOPE  H18T18443   5.955   4.375   8.052
  164SOPE   C3318444   6.031   4.461   9.211
  164SOPE   H3X18445   6.000   4.395   9.297
  164SOPE   H3Y18446   6.070   4.406   9.120
  164SOPE   C3418447   5.909   4.510   9.144
  164SOPE   H4X18448   5.870   4.573   9.225
  164SOPE   H4Y18449   5.843   4.420   9.127
  164SOPE   C3518450   5.949   4.576   9.012
  164SOPE   H5X18451   6.020   4.513   8.959
  164SOPE   H5Y18452   6.010   4.664   9.035
  164SOPE   C3618453   5.836   4.598   8.912
  164SOPE   H6X18454   5.767   4.667   8.961
  164SOPE   H6Y18455   5.781   4.504   8.892
  164SOPE   C3718456   5.873   4.666   8.779
  164SOPE   H7X18457   5.918   4.765   8.795
  164SOPE   H7Y18458   5.777   4.686   8.728
  164SOPE   C3818459   5.971   4.591   8.688
  164SOPE   H8X18460   6.072   4.595   8.737
  164SOPE   H8Y18461   5.977   4.633   8.586
  164SOPE   C3918462   5.949   4.444   8.670
  164SOPE   H9X18463   5.909   4.404   8.765
  164SOPE   H9Y18464   6.053   4.409   8.654
  164SOPE  C31018465   5.866   4.397   8.553
  164SOPE  H10X18466   5.833   4.300   8.585
  164SOPE  H10Y18467   5.921   4.377   8.458
  164SOPE  C31118468   5.730   4.460   8.542
  164SOPE  H11X18469   5.739   4.563   8.503
  164SOPE  H11Y18470   5.686   4.464   8.645
  164SOPE  C31218471   5.639   4.386   8.445
  164SOPE  H12X18472   5.538   4.427   8.460
  164SOPE  H12Y18473   5.631   4.279   8.459
  164SOPE  C31318474   5.680   4.391   8.298
  164SOPE  H13X18475   5.752   4.310   8.274
  164SOPE  H13Y18476   5.734   4.484   8.278
  164SOPE  C31418477   5.554   4.377   8.215
  164SOPE  H14X18478   5.466   4.404   8.272
  164SOPE  H14Y18479   5.542   4.276   8.171
  164SOPE  C31518480   5.534   4.480   8.112
  164SOPE  H15X18481   5.452   4.453   8.042
  164SOPE  H15Y18482   5.636   4.478   8.079
  164SOPE  C31618483   5.549   4.626   8.131
  164SOPE  H16X18484   5.539   4.667   8.027
  164SOPE  H16Y18485   5.650   4.632   8.181
  164SOPE  C31718486   5.450   4.664   8.232
  164SOPE  H17X18487   5.492   4.626   8.327
  164SOPE  H17Y18488   5.354   4.622   8.204
  164SOPE  C31818489   5.439   4.806   8.247
  164SOPE  H18X18490   5.407   4.850   8.151
  164SOPE  H18Y18491   5.543   4.832   8.265
  164SOPE  H18Z18492   5.380   4.846   8.332
  165SOPE     N18493   4.949   6.014  10.190
  165SOPE   HN118494   4.880   6.075  10.142
  165SOPE   HN218495   5.002   5.954  10.123
  165SOPE   HN318496   4.894   5.952  10.252
  165SOPE   C1218497   5.055   6.091  10.268
  165SOPE  H12A18498   5.124   6.016  10.313
  165SOPE  H12B18499   4.998   6.138  10.351
  165SOPE   C1118500   5.134   6.196  10.182
  165SOPE  H11A18501   5.224   6.242  10.230
  165SOPE  H11B18502   5.067   6.285  10.175
  165SOPE     P18503   5.274   6.024  10.036
  165SOPE   O1318504   5.210   5.911  10.108
  165SOPE   O1418505   5.404   6.077  10.082
  165SOPE   O1218506   5.169   6.147  10.051
  165SOPE   O1118507   5.278   5.994   9.883
  165SOPE    C118508   5.282   6.097   9.786
  165SOPE    HA18509   5.361   6.069   9.712
  165SOPE    HB18510   5.309   6.196   9.827
  165SOPE    C218511   5.144   6.108   9.717
  165SOPE    HS18512   5.067   6.115   9.798
  165SOPE   O2118513   5.125   5.992   9.638
  165SOPE   C2118514   5.003   5.944   9.629
  165SOPE   O2218515   4.906   5.983   9.693
  165SOPE   C2218516   5.015   5.834   9.528
  165SOPE   H2R18517   5.015   5.737   9.581
  165SOPE   H2S18518   5.112   5.839   9.473
  165SOPE    C318519   5.137   6.231   9.623
  165SOPE    HX18520   5.161   6.322   9.682
  165SOPE    HY18521   5.032   6.244   9.585
  165SOPE   O3118522   5.235   6.224   9.518
  165SOPE   C3118523   5.196   6.173   9.404
  165SOPE   O3218524   5.085   6.131   9.376
  165SOPE   C3218525   5.315   6.179   9.310
  165SOPE   H2X18526   5.404   6.146   9.367
  165SOPE   H2Y18527   5.335   6.285   9.282
  165SOPE   C2318528   4.908   5.837   9.426
  165SOPE   H3R18529   4.892   5.932   9.369
  165SOPE   H3S18530   4.809   5.803   9.468
  165SOPE   C2418531   4.945   5.742   9.323
  165SOPE   H4R18532   5.039   5.743   9.264
  165SOPE   H4S18533   4.958   5.648   9.374
  165SOPE   C2518534   4.816   5.751   9.253
  165SOPE   H5R18535   4.866   5.701   9.171
  165SOPE   H5S18536   4.732   5.694   9.303
  165SOPE   C2618537   4.765   5.846   9.152
  165SOPE   H6R18538   4.682   5.795   9.096
  165SOPE   H6S18539   4.721   5.914   9.224
  165SOPE   C2718540   4.877   5.903   9.064
  165SOPE   H7R18541   4.931   5.974   9.128
  165SOPE   H7S18542   4.945   5.838   9.005
  165SOPE   C2818543   4.833   5.993   8.957
  165SOPE   H8R18544   4.759   6.050   9.017
  165SOPE   H8S18545   4.915   6.061   8.934
  165SOPE   C2918546   4.792   5.917   8.835
  165SOPE   H9118547   4.692   5.866   8.842
  165SOPE  C21018548   4.848   5.929   8.717
  165SOPE  H10118549   4.800   5.891   8.630
  165SOPE  C21118550   4.955   6.008   8.665
  165SOPE  H11R18551   4.987   6.073   8.746
  165SOPE  H11S18552   4.914   6.067   8.580
  165SOPE  C21218553   5.060   5.907   8.621
  165SOPE  H12R18554   5.026   5.831   8.549
  165SOPE  H12S18555   5.091   5.851   8.712
  165SOPE  C21318556   5.176   5.983   8.559
  165SOPE  H13R18557   5.246   6.003   8.643
  165SOPE  H13S18558   5.134   6.080   8.523
  165SOPE  C21418559   5.239   5.926   8.432
  165SOPE  H14R18560   5.321   5.988   8.392
  165SOPE  H14S18561   5.161   5.925   8.354
  165SOPE  C21518562   5.292   5.787   8.446
  165SOPE  H15R18563   5.225   5.729   8.511
  165SOPE  H15S18564   5.394   5.798   8.488
  165SOPE  C21618565   5.294   5.710   8.319
  165SOPE  H16R18566   5.349   5.614   8.321
  165SOPE  H16S18567   5.346   5.768   8.242
  165SOPE  C21718568   5.153   5.696   8.278
  165SOPE  H17R18569   5.079   5.775   8.286
  165SOPE  H17S18570   5.090   5.630   8.331
  165SOPE  C21818571   5.152   5.640   8.151
  165SOPE  H18R18572   5.050   5.617   8.145
  165SOPE  H18S18573   5.187   5.538   8.153
  165SOPE  H18T18574   5.183   5.691   8.062
  165SOPE   C3318575   5.293   6.082   9.194
  165SOPE   H3X18576   5.199   6.095   9.140
  165SOPE   H3Y18577   5.305   5.977   9.234
  165SOPE   C3418578   5.387   6.093   9.082
  165SOPE   H4X18579   5.385   6.184   9.018
  165SOPE   H4Y18580   5.371   6.005   9.015
  165SOPE   C3518581   5.513   6.055   9.132
  165SOPE   H5X18582   5.522   5.991   9.219
  165SOPE   H5Y18583   5.558   6.144   9.193
  165SOPE   C3618584   5.565   5.989   8.995
  165SOPE   H6X18585   5.610   5.889   8.995
  165SOPE   H6Y18586   5.638   6.013   9.048
  165SOPE   C3718587   5.592   6.061   8.859
  165SOPE   H7X18588   5.695   6.056   8.877
  165SOPE   H7Y18589   5.597   6.166   8.822
  165SOPE   C3818590   5.527   5.993   8.751
  165SOPE   H8X18591   5.427   6.027   8.780
  165SOPE   H8Y18592   5.549   5.888   8.780
  165SOPE   C3918593   5.562   6.043   8.611
  165SOPE   H9X18594   5.528   5.978   8.531
  165SOPE   H9Y18595   5.658   6.012   8.593
  165SOPE  C31018596   5.560   6.196   8.580
  165SOPE  H10X18597   5.602   6.270   8.652
  165SOPE  H10Y18598   5.455   6.215   8.578
  165SOPE  C31118599   5.621   6.253   8.456
  165SOPE  H11X18600   5.716   6.232   8.434
  165SOPE  H11Y18601   5.653   6.359   8.468
  165SOPE  C31218602   5.550   6.210   8.333
  165SOPE  H12X18603   5.582   6.290   8.271
  165SOPE  H12Y18604   5.452   6.182   8.361
  165SOPE  C31318605   5.593   6.118   8.227
  165SOPE  H13X18606   5.626   6.048   8.311
  165SOPE  H13Y18607   5.665   6.182   8.155
  165SOPE  C31418608   5.536   6.055   8.108
  165SOPE  H14X18609   5.494   6.150   8.074
  165SOPE  H14Y18610   5.469   5.984   8.157
  165SOPE  C31518611   5.624   5.995   7.994
  165SOPE  H15X18612   5.710   6.054   7.954
  165SOPE  H15Y18613   5.555   5.974   7.911
  165SOPE  C31618614   5.681   5.862   8.024
  165SOPE  H16X18615   5.785   5.871   8.064
  165SOPE  H16Y18616   5.692   5.806   7.929
  165SOPE  C31718617   5.579   5.788   8.103
  165SOPE  H17X18618   5.570   5.793   8.212
  165SOPE  H17Y18619   5.628   5.707   8.111
  165SOPE  C31818620   5.479   5.704   8.029
  165SOPE  H18X18621   5.522   5.637   7.953
  165SOPE  H18Y18622   5.424   5.786   7.985
  165SOPE  H18Z18623   5.426   5.642   8.105
  166SOPE     N18624  -0.003   6.145  10.331
  166SOPE   HN118625  -0.090   6.204  10.335
  166SOPE   HN218626  -0.028   6.072  10.263
  166SOPE   HN318627  -0.001   6.100  10.426
  166SOPE   C1218628   0.123   6.227  10.317
  166SOPE  H12A18629   0.201   6.159  10.283
  166SOPE  H12B18630   0.154   6.259  10.414
  166SOPE   C1118631   0.108   6.346  10.227
  166SOPE  H11A18632   0.186   6.423  10.228
  166SOPE  H11B18633   0.010   6.396  10.255
  166SOPE     P18634   0.199   6.297   9.971
  166SOPE   O1318635   0.284   6.180  10.002
  166SOPE   O1418636   0.248   6.436   9.971
  166SOPE   O1218637   0.112   6.284  10.100
  166SOPE   O1118638   0.105   6.274   9.845
  166SOPE    C118639   0.021   6.163   9.819
  166SOPE    HA18640  -0.046   6.175   9.898
  166SOPE    HB18641   0.073   6.065   9.824
  166SOPE    C218642  -0.073   6.168   9.694
  166SOPE    HS18643  -0.137   6.074   9.691
  166SOPE   O2118644   0.014   6.184   9.580
  166SOPE   C2118645   0.038   6.081   9.502
  166SOPE   O2218646  -0.024   5.978   9.502
  166SOPE   C2218647   0.164   6.099   9.416
  166SOPE   H2R18648   0.134   6.102   9.309
  166SOPE   H2S18649   0.222   6.005   9.431
  166SOPE    C318650  -0.169   6.290   9.699
  166SOPE    HX18651  -0.115   6.378   9.739
  166SOPE    HY18652  -0.256   6.270   9.769
  166SOPE   O3118653  -0.214   6.314   9.564
  166SOPE   C3118654  -0.212   6.432   9.512
  166SOPE   O3218655  -0.161   6.532   9.561
  166SOPE   C3218656  -0.290   6.431   9.378
  166SOPE   H2X18657  -0.347   6.526   9.370
  166SOPE   H2Y18658  -0.363   6.348   9.377
  166SOPE   C2318659   0.246   6.225   9.452
  166SOPE   H3R18660   0.278   6.218   9.560
  166SOPE   H3S18661   0.178   6.312   9.441
  166SOPE   C2418662   0.371   6.250   9.364
  166SOPE   H4R18663   0.431   6.334   9.406
  166SOPE   H4S18664   0.435   6.160   9.362
  166SOPE   C2518665   0.340   6.287   9.219
  166SOPE   H5R18666   0.240   6.335   9.213
  166SOPE   H5S18667   0.413   6.362   9.181
  166SOPE   C2618668   0.340   6.167   9.123
  166SOPE   H6R18669   0.282   6.081   9.163
  166SOPE   H6S18670   0.283   6.204   9.035
  166SOPE   C2718671   0.479   6.118   9.080
  166SOPE   H7R18672   0.538   6.208   9.052
  166SOPE   H7S18673   0.537   6.071   9.163
  166SOPE   C2818674   0.472   6.020   8.959
  166SOPE   H8R18675   0.454   6.083   8.870
  166SOPE   H8S18676   0.572   5.972   8.946
  166SOPE   C2918677   0.364   5.913   8.966
  166SOPE   H9118678   0.366   5.850   9.056
  166SOPE  C21018679   0.270   5.882   8.873
  166SOPE  H10118680   0.194   5.808   8.899
  166SOPE  C21118681   0.245   5.942   8.737
  166SOPE  H11R18682   0.249   5.856   8.665
  166SOPE  H11S18683   0.327   6.010   8.705
  166SOPE  C21218684   0.103   6.003   8.722
  166SOPE  H12R18685   0.037   5.970   8.805
  166SOPE  H12S18686   0.055   5.956   8.632
  166SOPE  C21318687   0.093   6.158   8.716
  166SOPE  H13R18688   0.172   6.204   8.778
  166SOPE  H13S18689  -0.005   6.186   8.763
  166SOPE  C21418690   0.101   6.214   8.572
  166SOPE  H14R18691   0.061   6.135   8.506
  166SOPE  H14S18692   0.209   6.227   8.548
  166SOPE  C21518693   0.036   6.352   8.547
  166SOPE  H15R18694   0.094   6.428   8.604
  166SOPE  H15S18695  -0.066   6.358   8.588
  166SOPE  C21618696   0.030   6.401   8.403
  166SOPE  H16R18697  -0.051   6.355   8.340
  166SOPE  H16S18698   0.120   6.379   8.341
  166SOPE  C21718699   0.005   6.549   8.411
  166SOPE  H17R18700   0.096   6.613   8.425
  166SOPE  H17S18701  -0.085   6.595   8.454
  166SOPE  C21818702  -0.036   6.572   8.284
  166SOPE  H18R18703  -0.082   6.508   8.208
  166SOPE  H18S18704   0.058   6.564   8.243
  166SOPE  H18T18705  -0.065   6.673   8.279
  166SOPE   C3318706  -0.205   6.422   9.251
  166SOPE   H3X18707  -0.267   6.457   9.164
  166SOPE   H3Y18708  -0.170   6.318   9.235
  166SOPE   C3418709  -0.088   6.516   9.245
  166SOPE   H4X18710  -0.001   6.483   9.307
  166SOPE   H4Y18711  -0.127   6.614   9.285
  166SOPE   C3518712  -0.040   6.531   9.099
  166SOPE   H5X18713  -0.126   6.573   9.041
  166SOPE   H5Y18714  -0.006   6.439   9.053
  166SOPE   C3618715   0.081   6.617   9.081
  166SOPE   H6X18716   0.160   6.629   9.157
  166SOPE   H6Y18717   0.008   6.693   9.102
  166SOPE   C3718718   0.149   6.623   8.947
  166SOPE   H7X18719   0.075   6.618   8.865
  166SOPE   H7Y18720   0.218   6.537   8.945
  166SOPE   C3818721   0.234   6.744   8.926
  166SOPE   H8X18722   0.271   6.813   9.002
  166SOPE   H8Y18723   0.174   6.804   8.863
  166SOPE   C3918724   0.343   6.720   8.844
  166SOPE   H9X18725   0.413   6.653   8.889
  166SOPE   H9Y18726   0.379   6.823   8.841
  166SOPE  C31018727   0.307   6.672   8.709
  166SOPE  H10X18728   0.243   6.765   8.689
  166SOPE  H10Y18729   0.237   6.596   8.687
  166SOPE  C31118730   0.420   6.605   8.618
  166SOPE  H11X18731   0.509   6.559   8.658
  166SOPE  H11Y18732   0.488   6.676   8.597
  166SOPE  C31218733   0.382   6.559   8.474
  166SOPE  H12X18734   0.297   6.629   8.454
  166SOPE  H12Y18735   0.292   6.511   8.457
  166SOPE  C31318736   0.495   6.556   8.356
  166SOPE  H13X18737   0.582   6.607   8.390
  166SOPE  H13Y18738   0.495   6.601   8.253
  166SOPE  C31418739   0.561   6.435   8.336
  166SOPE  H14X18740   0.596   6.418   8.441
  166SOPE  H14Y18741   0.646   6.455   8.265
  166SOPE  C31518742   0.444   6.368   8.275
  166SOPE  H15X18743   0.417   6.419   8.179
  166SOPE  H15Y18744   0.351   6.373   8.336
  166SOPE  C31618745   0.489   6.228   8.257
  166SOPE  H16X18746   0.511   6.192   8.360
  166SOPE  H16Y18747   0.584   6.235   8.198
  166SOPE  C31718748   0.385   6.140   8.193
  166SOPE  H17X18749   0.300   6.126   8.261
  166SOPE  H17Y18750   0.430   6.044   8.168
  166SOPE  C31818751   0.330   6.191   8.065
  166SOPE  H18X18752   0.303   6.293   8.075
  166SOPE  H18Y18753   0.252   6.134   8.013
  166SOPE  H18Z18754   0.415   6.189   8.005
  167SOPE     N18755   4.971   3.709   6.036
  167SOPE   HN118756   4.873   3.735   6.055
  167SOPE   HN218757   4.982   3.691   5.934
  167SOPE   HN318758   4.992   3.619   6.082
  167SOPE   C1218759   5.073   3.812   6.085
  167SOPE  H12A18760   5.064   3.815   6.196
  167SOPE  H12B18761   5.047   3.912   6.045
  167SOPE   C1118762   5.220   3.780   6.044
  167SOPE  H11A18763   5.242   3.678   6.082
  167SOPE  H11B18764   5.290   3.851   6.096
  167SOPE     P18765   5.257   3.678   5.798
  167SOPE   O1318766   5.290   3.735   5.667
  167SOPE   O1418767   5.132   3.601   5.811
  167SOPE   O1218768   5.243   3.795   5.904
  167SOPE   O1118769   5.376   3.589   5.841
  167SOPE    C118770   5.485   3.620   5.922
  167SOPE    HA18771   5.477   3.719   5.973
  167SOPE    HB18772   5.582   3.619   5.866
  167SOPE    C218773   5.490   3.506   6.017
  167SOPE    HS18774   5.484   3.406   5.967
  167SOPE   O2118775   5.393   3.518   6.126
  167SOPE   C2118776   5.354   3.405   6.189
  167SOPE   O2218777   5.403   3.295   6.173
  167SOPE   C2218778   5.235   3.438   6.281
  167SOPE   H2R18779   5.209   3.346   6.337
  167SOPE   H2S18780   5.152   3.465   6.214
  167SOPE    C318781   5.634   3.511   6.060
  167SOPE    HX18782   5.712   3.447   6.020
  167SOPE    HY18783   5.592   3.436   6.117
  167SOPE   O3118784   5.687   3.627   6.124
  167SOPE   C3118785   5.657   3.658   6.248
  167SOPE   O3218786   5.588   3.608   6.329
  167SOPE   C3218787   5.708   3.769   6.289
  167SOPE   H2X18788   5.760   3.807   6.199
  167SOPE   H2Y18789   5.771   3.759   6.382
  167SOPE   C2318790   5.257   3.550   6.387
  167SOPE   H3R18791   5.257   3.651   6.340
  167SOPE   H3S18792   5.359   3.532   6.427
  167SOPE   C2418793   5.155   3.541   6.503
  167SOPE   H4R18794   5.050   3.547   6.467
  167SOPE   H4S18795   5.168   3.440   6.548
  167SOPE   C2518796   5.174   3.643   6.617
  167SOPE   H5R18797   5.271   3.624   6.669
  167SOPE   H5S18798   5.176   3.744   6.570
  167SOPE   C2618799   5.065   3.634   6.727
  167SOPE   H6R18800   4.965   3.656   6.684
  167SOPE   H6S18801   5.067   3.530   6.768
  167SOPE   C2718802   5.092   3.734   6.839
  167SOPE   H7R18803   5.190   3.707   6.887
  167SOPE   H7S18804   5.103   3.831   6.786
  167SOPE   C2818805   4.988   3.749   6.951
  167SOPE   H8R18806   4.887   3.775   6.912
  167SOPE   H8S18807   4.979   3.652   7.004
  167SOPE   C2918808   5.049   3.858   7.037
  167SOPE   H9118809   5.157   3.860   7.044
  167SOPE  C21018810   4.991   3.944   7.116
  167SOPE  H10118811   5.045   4.021   7.172
  167SOPE  C21118812   4.851   3.958   7.142
  167SOPE  H11R18813   4.782   3.923   7.061
  167SOPE  H11S18814   4.853   4.069   7.162
  167SOPE  C21218815   4.795   3.903   7.261
  167SOPE  H12R18816   4.758   3.805   7.258
  167SOPE  H12S18817   4.692   3.951   7.264
  167SOPE  C21318818   4.895   3.896   7.380
  167SOPE  H13R18819   4.805   3.935   7.391
  167SOPE  H13S18820   4.978   3.970   7.358
  167SOPE  C21418821   4.820   3.884   7.521
  167SOPE  H14R18822   4.706   3.882   7.521
  167SOPE  H14S18823   4.830   3.955   7.605
  167SOPE  C21518824   4.871   3.758   7.548
  167SOPE  H15R18825   4.980   3.767   7.531
  167SOPE  H15S18826   4.823   3.698   7.466
  167SOPE  C21618827   4.833   3.727   7.687
  167SOPE  H16R18828   4.726   3.753   7.693
  167SOPE  H16S18829   4.880   3.797   7.758
  167SOPE  C21718830   4.875   3.585   7.714
  167SOPE  H17R18831   4.986   3.585   7.712
  167SOPE  H17S18832   4.842   3.516   7.633
  167SOPE  C21818833   4.829   3.531   7.848
  167SOPE  H18R18834   4.889   3.440   7.866
  167SOPE  H18S18835   4.722   3.503   7.848
  167SOPE  H18T18836   4.849   3.602   7.931
  167SOPE   C3318837   5.602   3.869   6.341
  167SOPE   H3X18838   5.526   3.901   6.272
  167SOPE   H3Y18839   5.649   3.963   6.334
  167SOPE   C3418840   5.566   3.855   6.490
  167SOPE   H4X18841   5.654   3.870   6.557
  167SOPE   H4Y18842   5.530   3.751   6.498
  167SOPE   C3518843   5.452   3.948   6.532
  167SOPE   H5X18844   5.363   3.915   6.473
  167SOPE   H5Y18845   5.475   4.053   6.504
  167SOPE   C3618846   5.412   3.941   6.679
  167SOPE   H6X18847   5.397   3.837   6.712
  167SOPE   H6Y18848   5.315   3.988   6.690
  167SOPE   C3718849   5.503   4.016   6.774
  167SOPE   H7X18850   5.513   4.119   6.736
  167SOPE   H7Y18851   5.602   3.966   6.781
  167SOPE   C3818852   5.444   4.032   6.911
  167SOPE   H8X18853   5.432   3.929   6.952
  167SOPE   H8Y18854   5.350   4.088   6.912
  167SOPE   C3918855   5.537   4.108   6.995
  167SOPE   H9X18856   5.549   4.218   6.994
  167SOPE   H9Y18857   5.631   4.078   6.944
  167SOPE  C31018858   5.522   4.063   7.139
  167SOPE  H10X18859   5.599   4.134   7.172
  167SOPE  H10Y18860   5.552   3.957   7.142
  167SOPE  C31118861   5.396   4.075   7.218
  167SOPE  H11X18862   5.333   4.004   7.162
  167SOPE  H11Y18863   5.362   4.179   7.212
  167SOPE  C31218864   5.391   4.032   7.365
  167SOPE  H12X18865   5.451   4.093   7.431
  167SOPE  H12Y18866   5.419   3.925   7.379
  167SOPE  C31318867   5.259   4.072   7.424
  167SOPE  H13X18868   5.190   4.047   7.342
  167SOPE  H13Y18869   5.249   4.183   7.424
  167SOPE  C31418870   5.240   4.014   7.567
  167SOPE  H14X18871   5.139   4.031   7.602
  167SOPE  H14Y18872   5.299   4.077   7.635
  167SOPE  C31518873   5.269   3.863   7.591
  167SOPE  H15X18874   5.378   3.848   7.597
  167SOPE  H15Y18875   5.235   3.801   7.505
  167SOPE  C31618876   5.209   3.797   7.719
  167SOPE  H16X18877   5.232   3.687   7.711
  167SOPE  H16Y18878   5.099   3.810   7.722
  167SOPE  C31718879   5.268   3.843   7.853
  167SOPE  H17X18880   5.243   3.949   7.874
  167SOPE  H17Y18881   5.380   3.834   7.847
  167SOPE  C31818882   5.218   3.759   7.971
  167SOPE  H18X18883   5.107   3.757   7.979
  167SOPE  H18Y18884   5.262   3.799   8.066
  167SOPE  H18Z18885   5.248   3.654   7.954
  168SOPE     N18886   3.933   0.776   5.906
  168SOPE   HN118887   3.849   0.736   5.953
  168SOPE   HN218888   3.926   0.880   5.901
  168SOPE   HN318889   3.941   0.737   5.811
  168SOPE   C1218890   4.064   0.758   5.977
  168SOPE  H12A18891   4.101   0.654   5.960
  168SOPE  H12B18892   4.050   0.771   6.086
  168SOPE   C1118893   4.158   0.868   5.926
  168SOPE  H11A18894   4.166   0.849   5.816
  168SOPE  H11B18895   4.258   0.855   5.974
  168SOPE     P18896   4.171   1.127   5.873
  168SOPE   O1318897   4.059   1.181   5.794
  168SOPE   O1418898   4.291   1.086   5.798
  168SOPE   O1218899   4.106   0.999   5.952
  168SOPE   O1118900   4.214   1.226   5.987
  168SOPE    C118901   4.118   1.258   6.085
  168SOPE    HA18902   4.072   1.165   6.125
  168SOPE    HB18903   4.037   1.320   6.039
  168SOPE    C218904   4.184   1.337   6.199
  168SOPE    HS18905   4.209   1.436   6.161
  168SOPE   O2118906   4.301   1.268   6.243
  168SOPE   C2118907   4.406   1.336   6.273
  168SOPE   O2218908   4.423   1.456   6.281
  168SOPE   C2218909   4.510   1.232   6.298
  168SOPE   H2R18910   4.591   1.278   6.247
  168SOPE   H2S18911   4.505   1.137   6.244
  168SOPE    C318912   4.088   1.350   6.316
  168SOPE    HX18913   4.000   1.415   6.294
  168SOPE    HY18914   4.149   1.408   6.391
  168SOPE   O3118915   4.040   1.215   6.348
  168SOPE   C3118916   4.064   1.185   6.474
  168SOPE   O3218917   4.129   1.258   6.547
  168SOPE   C3218918   3.972   1.064   6.519
  168SOPE   H2X18919   4.051   0.994   6.541
  168SOPE   H2Y18920   3.901   1.037   6.439
  168SOPE   C2318921   4.534   1.217   6.449
  168SOPE   H3R18922   4.543   1.314   6.504
  168SOPE   H3S18923   4.635   1.176   6.446
  168SOPE   C2418924   4.451   1.115   6.513
  168SOPE   H4R18925   4.349   1.153   6.501
  168SOPE   H4S18926   4.471   1.022   6.455
  168SOPE   C2518927   4.486   1.083   6.656
  168SOPE   H5R18928   4.437   0.986   6.676
  168SOPE   H5S18929   4.593   1.065   6.664
  168SOPE   C2618930   4.449   1.192   6.756
  168SOPE   H6R18931   4.536   1.213   6.822
  168SOPE   H6S18932   4.422   1.288   6.706
  168SOPE   C2718933   4.341   1.146   6.849
  168SOPE   H7R18934   4.258   1.094   6.792
  168SOPE   H7S18935   4.379   1.081   6.930
  168SOPE   C2818936   4.289   1.261   6.928
  168SOPE   H8R18937   4.245   1.321   6.851
  168SOPE   H8S18938   4.208   1.217   6.992
  168SOPE   C2918939   4.376   1.367   6.988
  168SOPE   H9118940   4.397   1.454   6.923
  168SOPE  C21018941   4.403   1.379   7.119
  168SOPE  H10118942   4.464   1.462   7.151
  168SOPE  C21118943   4.353   1.290   7.229
  168SOPE  H11R18944   4.255   1.248   7.201
  168SOPE  H11S18945   4.331   1.350   7.320
  168SOPE  C21218946   4.446   1.172   7.264
  168SOPE  H12R18947   4.533   1.214   7.319
  168SOPE  H12S18948   4.479   1.114   7.176
  168SOPE  C21318949   4.377   1.066   7.349
  168SOPE  H13R18950   4.451   0.985   7.366
  168SOPE  H13S18951   4.291   1.025   7.292
  168SOPE  C21418952   4.332   1.121   7.483
  168SOPE  H14R18953   4.239   1.173   7.467
  168SOPE  H14S18954   4.397   1.203   7.519
  168SOPE  C21518955   4.313   1.016   7.589
  168SOPE  H15R18956   4.405   0.954   7.596
  168SOPE  H15S18957   4.228   0.946   7.568
  168SOPE  C21618958   4.303   1.084   7.723
  168SOPE  H16R18959   4.383   1.152   7.754
  168SOPE  H16S18960   4.340   1.000   7.785
  168SOPE  C21718961   4.167   1.157   7.749
  168SOPE  H17R18962   4.159   1.231   7.667
  168SOPE  H17S18963   4.175   1.214   7.844
  168SOPE  C21818964   4.030   1.083   7.755
  168SOPE  H18R18965   4.011   1.008   7.823
  168SOPE  H18S18966   4.004   1.026   7.666
  168SOPE  H18T18967   3.949   1.145   7.799
  168SOPE   C3318968   3.888   1.051   6.651
  168SOPE   H3X18969   3.792   1.085   6.610
  168SOPE   H3Y18970   3.914   1.118   6.732
  168SOPE   C3418971   3.889   0.920   6.722
  168SOPE   H4X18972   3.976   0.866   6.686
  168SOPE   H4Y18973   3.790   0.876   6.708
  168SOPE   C3518974   3.911   0.931   6.871
  168SOPE   H5X18975   3.859   1.030   6.877
  168SOPE   H5Y18976   4.004   0.972   6.908
  168SOPE   C3618977   3.866   0.802   6.958
  168SOPE   H6X18978   3.949   0.731   6.949
  168SOPE   H6Y18979   3.774   0.758   6.919
  168SOPE   C3718980   3.846   0.789   7.112
  168SOPE   H7X18981   3.749   0.767   7.166
  168SOPE   H7Y18982   3.788   0.867   7.134
  168SOPE   C3818983   3.963   0.839   7.194
  168SOPE   H8X18984   3.905   0.871   7.275
  168SOPE   H8Y18985   4.029   0.929   7.177
  168SOPE   C3918986   4.030   0.737   7.260
  168SOPE   H9X18987   4.110   0.793   7.313
  168SOPE   H9Y18988   4.061   0.681   7.170
  168SOPE  C31018989   3.936   0.663   7.353
  168SOPE  H10X18990   3.849   0.621   7.297
  168SOPE  H10Y18991   3.893   0.732   7.430
  168SOPE  C31118992   4.019   0.551   7.412
  168SOPE  H11X18993   4.044   0.487   7.324
  168SOPE  H11Y18994   3.956   0.498   7.485
  168SOPE  C31218995   4.144   0.601   7.487
  168SOPE  H12X18996   4.106   0.686   7.548
  168SOPE  H12Y18997   4.220   0.637   7.414
  168SOPE  C31318998   4.221   0.504   7.578
  168SOPE  H13X18999   4.309   0.558   7.622
  168SOPE  H13Y19000   4.264   0.420   7.519
  168SOPE  C31419001   4.137   0.452   7.693
  168SOPE  H14X19002   4.204   0.397   7.755
  168SOPE  H14Y19003   4.060   0.379   7.661
  168SOPE  C31519004   4.080   0.555   7.789
  168SOPE  H15X19005   3.970   0.554   7.772
  168SOPE  H15Y19006   4.118   0.657   7.770
  168SOPE  C31619007   4.107   0.518   7.936
  168SOPE  H16X19008   4.121   0.413   7.957
  168SOPE  H16Y19009   4.021   0.561   7.994
  168SOPE  C31719010   4.226   0.585   7.998
  168SOPE  H17X19011   4.213   0.587   8.108
  168SOPE  H17Y19012   4.191   0.678   7.956
  168SOPE  C31819013   4.372   0.567   7.959
  168SOPE  H18X19014   4.388   0.577   7.850
  168SOPE  H18Y19015   4.404   0.468   7.988
  168SOPE  H18Z19016   4.438   0.642   8.011
  169SOPE     N19017   0.970   3.000   5.588
  169SOPE   HN119018   1.060   3.038   5.550
  169SOPE   HN219019   0.978   2.897   5.605
  169SOPE   HN319020   0.892   3.013   5.519
  169SOPE   C1219021   0.947   3.069   5.721
  169SOPE  H12A19022   0.928   3.173   5.697
  169SOPE  H12B19023   1.043   3.070   5.775
  169SOPE   C1119024   0.835   3.009   5.810
  169SOPE  H11A19025   0.753   2.975   5.746
  169SOPE  H11B19026   0.791   3.085   5.875
  169SOPE     P19027   0.780   2.845   6.006
  169SOPE   O1319028   0.776   2.698   5.996
  169SOPE   O1419029   0.661   2.932   6.013
  169SOPE   O1219030   0.882   2.905   5.895
  169SOPE   O1119031   0.855   2.876   6.137
  169SOPE    C119032   0.987   2.911   6.123
  169SOPE    HA19033   1.006   3.020   6.105
  169SOPE    HB19034   1.049   2.854   6.049
  169SOPE    C219035   1.039   2.873   6.250
  169SOPE    HS19036   1.135   2.832   6.206
  169SOPE   O2119037   0.986   2.765   6.336
  169SOPE   C2119038   1.050   2.662   6.400
  169SOPE   O2219039   1.165   2.628   6.412
  169SOPE   C2219040   0.956   2.577   6.469
  169SOPE   H2R19041   1.004   2.539   6.562
  169SOPE   H2S19042   0.950   2.499   6.391
  169SOPE    C319043   1.033   3.026   6.326
  169SOPE    HX19044   1.080   3.112   6.274
  169SOPE    HY19045   1.119   3.071   6.388
  169SOPE   O3119046   0.934   3.030   6.423
  169SOPE   C3119047   0.941   3.106   6.524
  169SOPE   O3219048   1.037   3.153   6.581
  169SOPE   C3219049   0.804   3.134   6.552
  169SOPE   H2X19050   0.743   3.047   6.546
  169SOPE   H2Y19051   0.755   3.187   6.475
  169SOPE   C2319052   0.827   2.645   6.497
  169SOPE   H3R19053   0.763   2.563   6.537
  169SOPE   H3S19054   0.778   2.689   6.406
  169SOPE   C2419055   0.851   2.756   6.601
  169SOPE   H4R19056   0.925   2.734   6.676
  169SOPE   H4S19057   0.851   2.859   6.562
  169SOPE   C2519058   0.743   2.772   6.688
  169SOPE   H5R19059   0.728   2.874   6.728
  169SOPE   H5S19060   0.691   2.761   6.596
  169SOPE   C2619061   0.742   2.662   6.784
  169SOPE   H6R19062   0.637   2.703   6.782
  169SOPE   H6S19063   0.722   2.558   6.757
  169SOPE   C2719064   0.843   2.680   6.907
  169SOPE   H7R19065   0.936   2.715   6.875
  169SOPE   H7S19066   0.837   2.779   6.951
  169SOPE   C2819067   0.830   2.591   7.044
  169SOPE   H8R19068   0.739   2.533   7.081
  169SOPE   H8S19069   0.838   2.530   6.972
  169SOPE   C2919070   0.914   2.603   7.165
  169SOPE   H9119071   0.997   2.663   7.132
  169SOPE  C21019072   0.877   2.565   7.295
  169SOPE  H10119073   0.927   2.622   7.375
  169SOPE  C21119074   0.737   2.498   7.340
  169SOPE  H11R19075   0.675   2.452   7.264
  169SOPE  H11S19076   0.634   2.534   7.340
  169SOPE  C21219077   0.694   2.527   7.481
  169SOPE  H12R19078   0.587   2.522   7.507
  169SOPE  H12S19079   0.728   2.611   7.539
  169SOPE  C21319080   0.776   2.437   7.534
  169SOPE  H13R19081   0.887   2.454   7.521
  169SOPE  H13S19082   0.742   2.346   7.480
  169SOPE  C21419083   0.730   2.428   7.672
  169SOPE  H14R19084   0.770   2.347   7.712
  169SOPE  H14S19085   0.636   2.376   7.681
  169SOPE  C21519086   0.779   2.532   7.766
  169SOPE  H15R19087   0.757   2.631   7.729
  169SOPE  H15S19088   0.888   2.548   7.764
  169SOPE  C21619089   0.733   2.511   7.908
  169SOPE  H16R19090   0.772   2.603   7.951
  169SOPE  H16S19091   0.784   2.445   7.976
  169SOPE  C21719092   0.595   2.452   7.936
  169SOPE  H17R19093   0.553   2.483   8.033
  169SOPE  H17S19094   0.575   2.351   7.899
  169SOPE  C21819095   0.490   2.501   7.858
  169SOPE  H18R19096   0.385   2.511   7.890
  169SOPE  H18S19097   0.498   2.498   7.750
  169SOPE  H18T19098   0.530   2.583   7.865
  169SOPE   C3319099   0.792   3.227   6.664
  169SOPE   H3X19100   0.841   3.326   6.669
  169SOPE   H3Y19101   0.803   3.172   6.753
  169SOPE   C3419102   0.669   3.282   6.654
  169SOPE   H4X19103   0.634   3.294   6.549
  169SOPE   H4Y19104   0.642   3.339   6.740
  169SOPE   C3519105   0.565   3.222   6.692
  169SOPE   H5X19106   0.587   3.137   6.647
  169SOPE   H5Y19107   0.488   3.287   6.657
  169SOPE   C3619108   0.509   3.201   6.802
  169SOPE   H6X19109   0.466   3.267   6.865
  169SOPE   H6Y19110   0.585   3.208   6.839
  169SOPE   C3719111   0.505   3.089   6.834
  169SOPE   H7X19112   0.498   3.013   6.752
  169SOPE   H7Y19113   0.457   3.026   6.839
  169SOPE   C3819114   0.397   3.130   6.977
  169SOPE   H8X19115   0.304   3.064   7.019
  169SOPE   H8Y19116   0.335   3.115   7.062
  169SOPE   C3919117   0.507   3.130   7.062
  169SOPE   H9X19118   0.500   3.206   7.127
  169SOPE   H9Y19119   0.610   3.129   6.975
  169SOPE  C31019120   0.493   3.056   7.225
  169SOPE  H10X19121   0.520   2.966   7.243
  169SOPE  H10Y19122   0.404   3.049   7.291
  169SOPE  C31119123   0.616   3.057   7.339
  169SOPE  H11X19124   0.726   3.026   7.336
  169SOPE  H11Y19125   0.602   2.996   7.407
  169SOPE  C31219126   0.617   3.168   7.411
  169SOPE  H12X19127   0.583   3.199   7.311
  169SOPE  H12Y19128   0.721   3.193   7.435
  169SOPE  C31319129   0.515   3.231   7.489
  169SOPE  H13X19130   0.416   3.208   7.471
  169SOPE  H13Y19131   0.525   3.343   7.488
  169SOPE  C31419132   0.541   3.165   7.614
  169SOPE  H14X19133   0.631   3.210   7.620
  169SOPE  H14Y19134   0.572   3.063   7.613
  169SOPE  C31519135   0.524   3.232   7.741
  169SOPE  H15X19136   0.424   3.228   7.703
  169SOPE  H15Y19137   0.557   3.335   7.757
  169SOPE  C31619138   0.533   3.154   7.869
  169SOPE  H16X19139   0.514   3.052   7.831
  169SOPE  H16Y19140   0.467   3.187   7.951
  169SOPE  C31719141   0.640   3.155   7.965
  169SOPE  H17X19142   0.680   3.252   7.991
  169SOPE  H17Y19143   0.690   3.088   7.898
  169SOPE  C31819144   0.664   3.052   8.058
  169SOPE  H18X19145   0.629   3.070   8.158
  169SOPE  H18Y19146   0.752   3.019   8.056
  169SOPE  H18Z19147   0.632   2.956   8.019
  170SOPE     N19148   2.195   6.347   5.591
  170SOPE   HN119149   2.125   6.288   5.644
  170SOPE   HN219150   2.153   6.439   5.571
  170SOPE   HN319151   2.227   6.297   5.505
  170SOPE   C1219152   2.311   6.367   5.683
  170SOPE  H12A19153   2.376   6.444   5.636
  170SOPE  H12B19154   2.364   6.269   5.694
  170SOPE   C1119155   2.263   6.419   5.818
  170SOPE  H11A19156   2.226   6.523   5.807
  170SOPE  H11B19157   2.353   6.418   5.884
  170SOPE     P19158   2.122   6.325   6.022
  170SOPE   O1319159   2.054   6.195   6.037
  170SOPE   O1419160   2.064   6.453   6.069
  170SOPE   O1219161   2.161   6.334   5.868
  170SOPE   O1119162   2.257   6.307   6.093
  170SOPE    C119163   2.338   6.194   6.086
  170SOPE    HA19164   2.414   6.215   6.007
  170SOPE    HB19165   2.283   6.100   6.065
  170SOPE    C219166   2.399   6.177   6.224
  170SOPE    HS19167   2.467   6.084   6.217
  170SOPE   O2119168   2.318   6.172   6.335
  170SOPE   C2119169   2.229   6.088   6.323
  170SOPE   O2219170   2.237   5.979   6.266
  170SOPE   C2219171   2.158   6.119   6.451
  170SOPE   H2R19172   2.055   6.143   6.435
  170SOPE   H2S19173   2.211   6.169   6.536
  170SOPE    C319174   2.474   6.284   6.264
  170SOPE    HX19175   2.515   6.321   6.179
  170SOPE    HY19176   2.556   6.246   6.330
  170SOPE   O3119177   2.423   6.414   6.241
  170SOPE   C3119178   2.400   6.489   6.337
  170SOPE   O3219179   2.406   6.457   6.453
  170SOPE   C3219180   2.355   6.623   6.303
  170SOPE   H2X19181   2.301   6.616   6.207
  170SOPE   H2Y19182   2.434   6.701   6.304
  170SOPE   C2319183   2.136   5.996   6.512
  170SOPE   H3R19184   2.226   5.953   6.502
  170SOPE   H3S19185   2.108   5.914   6.443
  170SOPE   C2419186   2.074   6.025   6.653
  170SOPE   H4R19187   1.994   6.096   6.633
  170SOPE   H4S19188   2.026   5.938   6.670
  170SOPE   C2519189   2.120   6.070   6.798
  170SOPE   H5R19190   2.139   6.174   6.771
  170SOPE   H5S19191   2.047   6.039   6.875
  170SOPE   C2619192   2.246   6.033   6.870
  170SOPE   H6R19193   2.257   5.918   6.894
  170SOPE   H6S19194   2.323   6.083   6.798
  170SOPE   C2719195   2.307   6.053   6.989
  170SOPE   H7R19196   2.249   5.988   7.055
  170SOPE   H7S19197   2.399   5.996   6.987
  170SOPE   C2819198   2.334   6.195   6.968
  170SOPE   H8R19199   2.381   6.231   6.872
  170SOPE   H8S19200   2.231   6.230   6.973
  170SOPE   C2919201   2.428   6.222   7.072
  170SOPE   H9119202   2.534   6.223   7.040
  170SOPE  C21019203   2.383   6.239   7.194
  170SOPE  H10119204   2.461   6.244   7.267
  170SOPE  C21119205   2.240   6.235   7.245
  170SOPE  H11R19206   2.167   6.272   7.169
  170SOPE  H11S19207   2.229   6.299   7.335
  170SOPE  C21219208   2.188   6.099   7.292
  170SOPE  H12R19209   2.158   6.029   7.211
  170SOPE  H12S19210   2.103   6.111   7.358
  170SOPE  C21319211   2.281   6.030   7.386
  170SOPE  H13R19212   2.388   6.051   7.374
  170SOPE  H13S19213   2.254   5.927   7.376
  170SOPE  C21419214   2.270   6.055   7.532
  170SOPE  H14R19215   2.166   6.046   7.564
  170SOPE  H14S19216   2.328   6.147   7.539
  170SOPE  C21519217   2.344   5.965   7.625
  170SOPE  H15R19218   2.451   5.960   7.592
  170SOPE  H15S19219   2.280   5.877   7.604
  170SOPE  C21619220   2.310   5.938   7.769
  170SOPE  H16R19221   2.199   5.944   7.763
  170SOPE  H16S19222   2.366   6.018   7.817
  170SOPE  C21719223   2.352   5.806   7.838
  170SOPE  H17R19224   2.464   5.805   7.845
  170SOPE  H17S19225   2.311   5.718   7.784
  170SOPE  C21819226   2.314   5.786   7.979
  170SOPE  H18R19227   2.392   5.733   8.037
  170SOPE  H18S19228   2.222   5.727   7.982
  170SOPE  H18T19229   2.299   5.886   8.014
  170SOPE   C3319230   2.263   6.642   6.424
  170SOPE   H3X19231   2.215   6.739   6.408
  170SOPE   H3Y19232   2.318   6.648   6.522
  170SOPE   C3419233   2.154   6.533   6.435
  170SOPE   H4X19234   2.165   6.456   6.354
  170SOPE   H4Y19235   2.057   6.581   6.417
  170SOPE   C3519236   2.158   6.456   6.567
  170SOPE   H5X19237   2.258   6.419   6.595
  170SOPE   H5Y19238   2.098   6.364   6.557
  170SOPE   C3619239   2.113   6.537   6.686
  170SOPE   H6X19240   2.035   6.611   6.655
  170SOPE   H6Y19241   2.200   6.587   6.732
  170SOPE   C3719242   2.062   6.443   6.789
  170SOPE   H7X19243   2.059   6.497   6.887
  170SOPE   H7Y19244   2.127   6.354   6.805
  170SOPE   C3819245   1.931   6.389   6.746
  170SOPE   H8X19246   1.933   6.314   6.663
  170SOPE   H8Y19247   1.853   6.467   6.728
  170SOPE   C3919248   1.895   6.311   6.862
  170SOPE   H9X19249   1.965   6.257   6.927
  170SOPE   H9Y19250   1.836   6.228   6.814
  170SOPE  C31019251   1.839   6.411   6.966
  170SOPE  H10X19252   1.749   6.456   6.904
  170SOPE  H10Y19253   1.875   6.510   6.983
  170SOPE  C31119254   1.816   6.332   7.110
  170SOPE  H11X19255   1.780   6.222   7.108
  170SOPE  H11Y19256   1.737   6.389   7.176
  170SOPE  C31219257   1.870   6.344   7.234
  170SOPE  H12X19258   1.866   6.453   7.268
  170SOPE  H12Y19259   1.962   6.296   7.207
  170SOPE  C31319260   1.787   6.252   7.319
  170SOPE  H13X19261   1.749   6.150   7.299
  170SOPE  H13Y19262   1.698   6.307   7.331
  170SOPE  C31419263   1.876   6.250   7.426
  170SOPE  H14X19264   1.916   6.355   7.437
  170SOPE  H14Y19265   1.960   6.192   7.419
  170SOPE  C31519266   1.832   6.154   7.539
  170SOPE  H15X19267   1.751   6.087   7.507
  170SOPE  H15Y19268   1.729   6.232   7.524
  170SOPE  C31619269   1.910   6.158   7.757
  170SOPE  H16X19270   1.952   6.260   7.807
  170SOPE  H16Y19271   1.974   6.101   7.711
  170SOPE  C31719272   1.810   6.165   7.908
  170SOPE  H17X19273   1.713   6.097   7.918
  170SOPE  H17Y19274   1.757   6.267   7.928
  170SOPE  C31819275   1.882   6.097   7.993
  170SOPE  H18X19276   1.807   6.093   8.075
  170SOPE  H18Y19277   1.957   6.179   7.983
  170SOPE  H18Z19278   1.902   6.008   7.928
  171SOPE     N19279   6.904   4.899   5.619
  171SOPE   HN119280   6.884   5.000   5.610
  171SOPE   HN219281   7.007   4.884   5.618
  171SOPE   HN319282   6.859   4.846   5.540
  171SOPE   C1219283   6.848   4.853   5.752
  171SOPE  H12A19284   6.884   4.750   5.769
  171SOPE  H12B19285   6.738   4.854   5.743
  171SOPE   C1119286   6.880   4.950   5.868
  171SOPE  H11A19287   6.828   4.911   5.960
  171SOPE  H11B19288   6.829   5.046   5.841
  171SOPE     P19289   7.106   4.879   5.989
  171SOPE   O1319290   7.245   4.929   5.995
  171SOPE   O1419291   7.082   4.739   5.950
  171SOPE   O1219292   7.020   4.973   5.889
  171SOPE   O1119293   7.038   4.903   6.128
  171SOPE    C119294   7.000   5.031   6.176
  171SOPE    HA19295   6.897   5.018   6.213
  171SOPE    HB19296   6.994   5.107   6.096
  171SOPE    C219297   7.089   5.073   6.297
  171SOPE    HS19298   7.187   5.111   6.263
  171SOPE   O2119299   7.103   4.959   6.384
  171SOPE   C2119300   7.201   4.966   6.471
  171SOPE   O2219301   7.288   5.050   6.477
  171SOPE   C2219302   7.185   4.853   6.572
  171SOPE   H2R19303   7.284   4.834   6.618
  171SOPE   H2S19304   7.153   4.764   6.514
  171SOPE    C319305   7.028   5.185   6.382
  171SOPE    HX19306   6.934   5.127   6.409
  171SOPE    HY19307   6.997   5.273   6.319
  171SOPE   O3119308   7.118   5.216   6.497
  171SOPE   C3119309   7.044   5.256   6.599
  171SOPE   O3219310   6.939   5.278   6.573
  171SOPE   C3219311   7.059   5.293   6.745
  171SOPE   H2X19312   7.120   5.379   6.734
  171SOPE   H2Y19313   7.099   5.203   6.788
  171SOPE   C2319314   7.075   4.893   6.672
  171SOPE   H3R19315   6.984   4.861   6.615
  171SOPE   H3S19316   7.070   5.003   6.688
  171SOPE   C2419317   7.069   4.826   6.810
  171SOPE   H4R19318   7.098   4.719   6.797
  171SOPE   H4S19319   7.141   4.874   6.881
  171SOPE   C2519320   6.926   4.831   6.868
  171SOPE   H5R19321   6.896   4.933   6.899
  171SOPE   H5S19322   6.853   4.802   6.790
  171SOPE   C2619323   6.907   4.732   6.983
  171SOPE   H6R19324   6.804   4.741   7.023
  171SOPE   H6S19325   6.923   4.628   6.946
  171SOPE   C2719326   6.996   4.762   7.104
  171SOPE   H7R19327   7.102   4.778   7.074
  171SOPE   H7S19328   6.959   4.856   7.148
  171SOPE   C2819329   6.992   4.648   7.208
  171SOPE   H8R19330   7.027   4.555   7.157
  171SOPE   H8S19331   7.069   4.674   7.284
  171SOPE   C2919332   6.861   4.613   7.274
  171SOPE   H9119333   6.817   4.521   7.234
  171SOPE  C21019334   6.808   4.671   7.385
  171SOPE  H10119335   6.710   4.638   7.423
  171SOPE  C21119336   6.868   4.784   7.465
  171SOPE  H11R19337   6.821   4.877   7.426
  171SOPE  H11S19338   6.978   4.796   7.452
  171SOPE  C21219339   6.835   4.775   7.618
  171SOPE  H12R19340   6.725   4.777   7.623
  171SOPE  H12S19341   6.878   4.862   7.673
  171SOPE  C21319342   6.873   4.649   7.699
  171SOPE  H13R19343   6.983   4.646   7.720
  171SOPE  H13S19344   6.845   4.559   7.642
  171SOPE  C21419345   6.802   4.640   7.834
  171SOPE  H14R19346   6.840   4.550   7.890
  171SOPE  H14S19347   6.692   4.632   7.824
  171SOPE  C21519348   6.837   4.757   7.920
  171SOPE  H15R19349   6.787   4.851   7.889
  171SOPE  H15S19350   6.946   4.778   7.917
  171SOPE  C21619351   6.812   4.720   8.062
  171SOPE  H16R19352   6.877   4.785   8.107
  171SOPE  H16S19353   6.853   4.630   8.106
  171SOPE  C21719354   6.674   4.722   8.107
  171SOPE  H17R19355   6.631   4.650   8.040
  171SOPE  H17S19356   6.633   4.817   8.072
  171SOPE  C21819357   6.656   4.677   8.253
  171SOPE  H18R19358   6.577   4.729   8.308
  171SOPE  H18S19359   6.706   4.722   8.327
  171SOPE  H18T19360   6.656   4.571   8.276
  171SOPE   C3319361   6.953   5.384   6.826
  171SOPE   H3X19362   6.854   5.358   6.858
  171SOPE   H3Y19363   6.911   5.465   6.765
  171SOPE   C3419364   6.990   5.424   6.966
  171SOPE   H4X19365   6.904   5.473   7.012
  171SOPE   H4Y19366   7.067   5.499   6.945
  171SOPE   C3519367   7.031   5.320   7.070
  171SOPE   H5X19368   7.075   5.387   7.144
  171SOPE   H5Y19369   7.108   5.249   7.035
  171SOPE   C3619370   6.926   5.236   7.144
  171SOPE   H6X19371   6.977   5.174   7.222
  171SOPE   H6Y19372   6.877   5.168   7.074
  171SOPE   C3719373   6.823   5.314   7.217
  171SOPE   H7X19374   6.752   5.364   7.149
  171SOPE   H7Y19375   6.886   5.399   7.245
  171SOPE   C3819376   6.761   5.247   7.342
  171SOPE   H8X19377   6.737   5.143   7.316
  171SOPE   H8Y19378   6.665   5.289   7.379
  171SOPE   C3919379   6.854   5.262   7.461
  171SOPE   H9X19380   6.830   5.356   7.514
  171SOPE   H9Y19381   6.957   5.272   7.419
  171SOPE  C31019382   6.843   5.149   7.562
  171SOPE  H10X19383   6.874   5.057   7.512
  171SOPE  H10Y19384   6.738   5.138   7.598
  171SOPE  C31119385   6.933   5.162   7.684
  171SOPE  H11X19386   7.041   5.160   7.660
  171SOPE  H11Y19387   6.914   5.071   7.742
  171SOPE  C31219388   6.896   5.284   7.763
  171SOPE  H12X19389   6.791   5.317   7.748
  171SOPE  H12Y19390   6.969   5.347   7.727
  171SOPE  C31319391   6.918   5.278   7.906
  171SOPE  H13X19392   6.909   5.381   7.954
  171SOPE  H13Y19393   7.026   5.257   7.928
  171SOPE  C31419394   6.797   5.170   7.922
  171SOPE  H14X19395   6.840   5.102   7.995
  171SOPE  H14Y19396   6.820   5.071   7.893
  171SOPE  C31519397   6.633   5.212   7.968
  171SOPE  H15X19398   6.602   5.231   7.872
  171SOPE  H15Y19399   6.606   5.309   8.044
  171SOPE  C31619400   6.561   5.116   8.066
  171SOPE  H16X19401   6.588   5.080   8.173
  171SOPE  H16Y19402   6.570   5.030   8.002
  171SOPE  C31719403   6.453   5.182   8.125
  171SOPE  H17X19404   6.452   5.263   8.198
  171SOPE  H17Y19405   6.412   5.105   8.173
  171SOPE  C31819406   6.391   5.186   8.012
  171SOPE  H18X19407   6.368   5.099   7.949
  171SOPE  H18Y19408   6.412   5.279   7.954
  171SOPE  H18Z19409   6.287   5.175   8.041
  172SOPE     N19410   1.731   0.340   5.664
  172SOPE   HN119411   1.751   0.364   5.566
  172SOPE   HN219412   1.632   0.360   5.685
  172SOPE   HN319413   1.794   0.386   5.735
  172SOPE   C1219414   1.750   0.193   5.677
  172SOPE  H12A19415   1.849   0.168   5.633
  172SOPE  H12B19416   1.673   0.148   5.611
  172SOPE   C1119417   1.722   0.150   5.822
  172SOPE  H11A19418   1.687   0.044   5.818
  172SOPE  H11B19419   1.640   0.208   5.869
  172SOPE     P19420   1.883   0.266   6.007
  172SOPE   O1319421   1.788   0.378   5.996
  172SOPE   O1419422   2.024   0.293   5.977
  172SOPE   O1219423   1.838   0.153   5.903
  172SOPE   O1119424   1.871   0.189   6.147
  172SOPE    C119425   1.754   0.117   6.185
  172SOPE    HA19426   1.746   0.024   6.124
  172SOPE    HB19427   1.662   0.178   6.165
  172SOPE    C219428   1.745   0.077   6.338
  172SOPE    HS19429   1.696   0.161   6.392
  172SOPE   O2119430   1.869   0.035   6.399
  172SOPE   C2119431   1.937   0.138   6.439
  172SOPE   O2219432   1.894   0.253   6.438
  172SOPE   C2219433   2.069   0.086   6.503
  172SOPE   H2R19434   2.155   0.088   6.442
  172SOPE   H2S19435   2.071  -0.022   6.507
  172SOPE    C319436   1.652  -0.043   6.354
  172SOPE    HX19437   1.694  -0.122   6.290
  172SOPE    HY19438   1.550  -0.014   6.319
  172SOPE   O3119439   1.655  -0.091   6.489
  172SOPE   C3119440   1.590  -0.012   6.570
  172SOPE   O3219441   1.501   0.066   6.540
  172SOPE   C3219442   1.610  -0.077   6.707
  172SOPE   H2X19443   1.689  -0.032   6.761
  172SOPE   H2Y19444   1.623  -0.187   6.698
  172SOPE   C2319445   2.128   0.157   6.626
  172SOPE   H3R19446   2.077   0.251   6.653
  172SOPE   H3S19447   2.233   0.191   6.600
  172SOPE   C2419448   2.129   0.057   6.736
  172SOPE   H4R19449   2.185  -0.031   6.696
  172SOPE   H4S19450   2.185   0.109   6.816
  172SOPE   C2519451   1.990   0.009   6.779
  172SOPE   H5R19452   1.932  -0.030   6.692
  172SOPE   H5S19453   2.001  -0.074   6.852
  172SOPE   C2619454   1.906   0.115   6.853
  172SOPE   H6R19455   1.832   0.060   6.915
  172SOPE   H6S19456   1.971   0.176   6.919
  172SOPE   C2719457   1.822   0.198   6.756
  172SOPE   H7R19458   1.882   0.272   6.700
  172SOPE   H7S19459   1.785   0.124   6.683
  172SOPE   C2819460   1.696   0.261   6.815
  172SOPE   H8R19461   1.637   0.292   6.726
  172SOPE   H8S19462   1.632   0.188   6.871
  172SOPE   C2919463   1.741   0.385   6.886
  172SOPE   H9119464   1.748   0.471   6.817
  172SOPE  C21019465   1.751   0.411   7.018
  172SOPE  H10119466   1.763   0.518   7.047
  172SOPE  C21119467   1.720   0.323   7.133
  172SOPE  H11R19468   1.675   0.227   7.102
  172SOPE  H11S19469   1.643   0.368   7.199
  172SOPE  C21219470   1.855   0.297   7.200
  172SOPE  H12R19471   1.932   0.377   7.188
  172SOPE  H12S19472   1.895   0.211   7.143
  172SOPE  C21319473   1.844   0.249   7.344
  172SOPE  H13R19474   1.808   0.326   7.416
  172SOPE  H13S19475   1.946   0.219   7.378
  172SOPE  C21419476   1.756   0.124   7.345
  172SOPE  H14R19477   1.762   0.075   7.245
  172SOPE  H14S19478   1.650   0.153   7.356
  172SOPE  C21519479   1.802   0.021   7.449
  172SOPE  H15R19480   1.909  -0.005   7.427
  172SOPE  H15S19481   1.740  -0.068   7.430
  172SOPE  C21619482   1.797   0.064   7.597
  172SOPE  H16R19483   1.862   0.152   7.610
  172SOPE  H16S19484   1.844  -0.017   7.659
  172SOPE  C21719485   1.657   0.108   7.645
  172SOPE  H17R19486   1.598   0.015   7.669
  172SOPE  H17S19487   1.602   0.170   7.575
  172SOPE  C21819488   1.650   0.228   7.742
  172SOPE  H18R19489   1.562   0.222   7.811
  172SOPE  H18S19490   1.738   0.273   7.791
  172SOPE  H18T19491   1.719   0.176   7.796
  172SOPE   C3319492   1.509  -0.046   6.815
  172SOPE   H3X19493   1.450  -0.074   6.736
  172SOPE   H3Y19494   1.441   0.039   6.830
  172SOPE   C3419495   1.530  -0.149   6.927
  172SOPE   H4X19496   1.505  -0.258   6.928
  172SOPE   H4Y19497   1.457  -0.149   7.001
  172SOPE   C3519498   1.582  -0.081   7.041
  172SOPE   H5X19499   1.524   0.012   7.051
  172SOPE   H5Y19500   1.675  -0.083   6.979
  172SOPE   C3619501   1.564  -0.170   7.160
  172SOPE   H6X19502   1.483  -0.254   7.151
  172SOPE   H6Y19503   1.570  -0.127   7.256
  172SOPE   C3719504   1.688  -0.226   7.123
  172SOPE   H7X19505   1.640  -0.291   7.048
  172SOPE   H7Y19506   1.673  -0.282   7.197
  172SOPE   C3819507   1.840  -0.210   7.162
  172SOPE   H8X19508   1.851  -0.182   7.269
  172SOPE   H8Y19509   1.860  -0.141   7.081
  172SOPE   C3919510   1.960  -0.307   7.132
  172SOPE   H9X19511   1.963  -0.347   7.026
  172SOPE   H9Y19512   1.966  -0.395   7.200
  172SOPE  C31019513   2.094  -0.259   7.150
  172SOPE  H10X19514   2.114  -0.187   7.068
  172SOPE  H10Y19515   2.139  -0.360   7.144
  172SOPE  C31119516   2.126  -0.224   7.290
  172SOPE  H11X19517   2.098  -0.312   7.354
  172SOPE  H11Y19518   2.064  -0.137   7.310
  172SOPE  C31219519   2.271  -0.193   7.307
  172SOPE  H12X19520   2.312  -0.126   7.230
  172SOPE  H12Y19521   2.323  -0.287   7.303
  172SOPE  C31319522   2.309  -0.169   7.449
  172SOPE  H13X19523   2.420  -0.188   7.455
  172SOPE  H13Y19524   2.256  -0.240   7.516
  172SOPE  C31419525   2.275  -0.032   7.494
  172SOPE  H14X19526   2.165  -0.012   7.500
  172SOPE  H14Y19527   2.315   0.042   7.423
  172SOPE  C31519528   2.342  -0.029   7.628
  172SOPE  H15X19529   2.448   0.000   7.635
  172SOPE  H15Y19530   2.305  -0.109   7.699
  172SOPE  C31619531   2.291   0.070   7.707
  172SOPE  H16X19532   2.345   0.067   7.805
  172SOPE  H16Y19533   2.176   0.047   7.712
  172SOPE  C31719534   2.332   0.227   7.687
  172SOPE  H17X19535   2.307   0.200   7.573
  172SOPE  H17Y19536   2.414   0.259   7.720
  172SOPE  C31819537   2.188   0.453   7.801
  172SOPE  H18X19538   2.190   0.425   7.916
  172SOPE  H18Y19539   2.066   0.421   7.786
  172SOPE  H18Z19540   2.222   0.511   7.737
  173SAPI   C1219541   2.771   5.305  10.348
  173SAPI    H219542   2.692   5.379  10.318
  173SAPI    O219543   2.891   5.330  10.272
  173SAPI   HO219544   2.954   5.260  10.290
  173SAPI   C1319545   2.802   5.330  10.494
  173SAPI    H319546   2.711   5.310  10.554
  173SAPI    O319547   2.837   5.466  10.521
  173SAPI   HO319548   2.912   5.491  10.467
  173SAPI   C1419549   2.905   5.230  10.544
  173SAPI    H419550   3.000   5.244  10.487
  173SAPI    O419551   2.939   5.256  10.679
  173SAPI   HO419552   3.025   5.299  10.681
  173SAPI   C1519553   2.846   5.090  10.528
  173SAPI    H519554   2.747   5.088  10.580
  173SAPI    O519555   2.923   4.989  10.592
  173SAPI   HO519556   2.980   4.950  10.527
  173SAPI   C1619557   2.819   5.064  10.379
  173SAPI    H619558   2.916   5.081  10.326
  173SAPI    O619559   2.784   4.929  10.351
  173SAPI   HO619560   2.707   4.932  10.293
  173SAPI   C1119561   2.716   5.164  10.325
  173SAPI    H119562   2.621   5.152  10.384
  173SAPI     P19563   2.545   5.118  10.126
  173SAPI   O1319564   2.454   5.232  10.151
  173SAPI   O1419565   2.507   4.990  10.187
  173SAPI   O1219566   2.696   5.152  10.183
  173SAPI   O1119567   2.567   5.101   9.971
  173SAPI    C119568   2.629   4.981   9.924
  173SAPI    HA19569   2.713   4.950   9.991
  173SAPI    HB19570   2.554   4.899   9.918
  173SAPI    C219571   2.684   4.998   9.781
  173SAPI    HS19572   2.756   4.917   9.761
  173SAPI   O2119573   2.749   5.124   9.765
  173SAPI   C2119574   2.835   5.157   9.857
  173SAPI   O2219575   2.904   5.084   9.924
  173SAPI   C2219576   2.859   5.306   9.847
  173SAPI   H2R19577   2.878   5.358   9.942
  173SAPI   H2S19578   2.949   5.302   9.800
  173SAPI    C319579   2.568   4.985   9.680
  173SAPI    HX19580   2.515   4.888   9.699
  173SAPI    HY19581   2.602   4.985   9.575
  173SAPI   O3119582   2.485   5.097   9.700
  173SAPI   C3119583   2.360   5.076   9.700
  173SAPI   O3219584   2.303   4.973   9.664
  173SAPI   C3219585   2.307   5.209   9.737
  173SAPI   H2X19586   2.357   5.296   9.687
  173SAPI   H2Y19587   2.276   5.231   9.840
  173SAPI   C2319588   2.768   5.381   9.750
  173SAPI   H3R19589   2.782   5.487   9.783
  173SAPI   H3S19590   2.665   5.347   9.765
  173SAPI   C2419591   2.800   5.375   9.600
  173SAPI   H4R19592   2.889   5.434   9.604
  173SAPI   H4S19593   2.723   5.430   9.541
  173SAPI   C2519594   2.850   5.252   9.537
  173SAPI   H5R19595   2.934   5.213   9.592
  173SAPI   C2619596   2.810   5.187   9.429
  173SAPI   H6R19597   2.859   5.092   9.408
  173SAPI   C2719598   2.697   5.224   9.337
  173SAPI   H7R19599   2.613   5.269   9.395
  173SAPI   H7S19600   2.657   5.130   9.296
  173SAPI   C2819601   2.737   5.309   9.218
  173SAPI   H8R19602   2.700   5.412   9.224
  173SAPI   C2919603   2.777   5.267   9.096
  173SAPI   H9R19604   2.800   5.341   9.020
  173SAPI  C21019605   2.794   5.127   9.045
  173SAPI  H10R19606   2.709   5.061   9.037
  173SAPI  H10S19607   2.839   5.086   9.133
  173SAPI  C21119608   2.867   5.111   8.915
  173SAPI  H11R19609   2.946   5.039   8.923
  173SAPI  C21219610   2.846   5.129   8.788
  173SAPI  H12R19611   2.936   5.160   8.729
  173SAPI  C21319612   2.714   5.176   8.750
  173SAPI  H13R19613   2.646   5.191   8.835
  173SAPI  H13S19614   2.678   5.092   8.689
  173SAPI  C21419615   2.722   5.295   8.670
  173SAPI  H14R19616   2.691   5.389   8.721
  173SAPI  C21519617   2.758   5.283   8.541
  173SAPI  H15R19618   2.775   5.364   8.482
  173SAPI  C21619619   2.795   5.182   8.445
  173SAPI  H16R19620   2.738   5.203   8.352
  173SAPI  H16S19621   2.764   5.086   8.487
  173SAPI  C21719622   2.946   5.171   8.419
  173SAPI  H17R19623   2.958   5.095   8.339
  173SAPI  H17S19624   2.999   5.140   8.511
  173SAPI  C21819625   3.036   5.285   8.382
  173SAPI  H18R19626   3.130   5.246   8.343
  173SAPI  H18S19627   3.044   5.367   8.456
  173SAPI  C21919628   3.002   5.339   8.259
  173SAPI  H19R19629   2.922   5.405   8.295
  173SAPI  H19S19630   2.942   5.267   8.203
  173SAPI  C22019631   3.112   5.405   8.175
  173SAPI  H20R19632   3.216   5.384   8.188
  173SAPI  H20S19633   3.116   5.506   8.195
  173SAPI  H20T19634   3.087   5.425   8.069
  173SAPI   C3319635   2.188   5.212   9.672
  173SAPI   H3X19636   2.169   5.316   9.664
  173SAPI   H3Y19637   2.102   5.172   9.731
  173SAPI   C3419638   2.209   5.229   9.531
  173SAPI   H4X19639   2.112   5.312   9.506
  173SAPI   H4Y19640   2.231   5.126   9.481
  173SAPI   C3519641   2.306   5.301   9.449
  173SAPI   H5X19642   2.398   5.253   9.478
  173SAPI   H5Y19643   2.263   5.395   9.484
  173SAPI   C3619644   2.305   5.293   9.299
  173SAPI   H6X19645   2.376   5.351   9.242
  173SAPI   H6Y19646   2.218   5.366   9.291
  173SAPI   C3719647   2.300   5.147   9.227
  173SAPI   H7X19648   2.205   5.089   9.257
  173SAPI   H7Y19649   2.339   5.061   9.273
  173SAPI   C3819650   2.317   5.159   9.066
  173SAPI   H8X19651   2.388   5.239   9.042
  173SAPI   H8Y19652   2.238   5.194   8.996
  173SAPI   C3919653   2.304   5.028   8.994
  173SAPI   H9X19654   2.207   4.979   9.022
  173SAPI   H9Y19655   2.389   4.979   9.040
  173SAPI  C31019656   2.305   5.025   8.841
  173SAPI  H10X19657   2.390   5.087   8.801
  173SAPI  H10Y19658   2.212   5.070   8.799
  173SAPI  C31119659   2.323   4.879   8.795
  173SAPI  H11X19660   2.235   4.814   8.810
  173SAPI  H11Y19661   2.402   4.832   8.858
  173SAPI  C31219662   2.370   4.870   8.650
  173SAPI  H12X19663   2.395   4.763   8.634
  173SAPI  H12Y19664   2.461   4.933   8.646
  173SAPI  C31319665   2.269   4.915   8.542
  173SAPI  H13X19666   2.230   5.015   8.570
  173SAPI  H13Y19667   2.185   4.842   8.534
  173SAPI  C31419668   2.327   4.935   8.401
  173SAPI  H14X19669   2.245   4.961   8.330
  173SAPI  H14Y19670   2.369   4.840   8.365
  173SAPI  C31519671   2.429   5.049   8.396
  173SAPI  H15X19672   2.513   5.028   8.465
  173SAPI  H15Y19673   2.384   5.142   8.440
  173SAPI  C31619674   2.479   5.071   8.251
  173SAPI  H16X19675   2.555   5.151   8.250
  173SAPI  H16Y19676   2.397   5.100   8.183
  173SAPI  C31719677   2.564   4.963   8.185
  173SAPI  H17X19678   2.522   4.866   8.217
  173SAPI  H17Y19679   2.667   4.976   8.226
  173SAPI  C31819680   2.564   4.974   8.031
  173SAPI  H18X19681   2.470   4.931   7.990
  173SAPI  H18Y19682   2.651   4.923   7.983
  173SAPI  H18Z19683   2.567   5.082   8.002
  174SAPI   C1219684   4.268   6.202  10.403
  174SAPI    H219685   4.235   6.291  10.346
  174SAPI    O219686   4.406   6.224  10.429
  174SAPI   HO219687   4.448   6.229  10.341
  174SAPI   C1319688   4.192   6.195  10.535
  174SAPI    H319689   4.084   6.179  10.512
  174SAPI    O319690   4.201   6.318  10.609
  174SAPI   HO319691   4.295   6.334  10.619
  174SAPI   C1419692   4.240   6.075  10.616
  174SAPI    H419693   4.347   6.089  10.643
  174SAPI    O419694   4.172   6.070  10.743
  174SAPI   HO419695   4.229   6.112  10.805
  174SAPI   C1519696   4.223   5.945  10.538
  174SAPI    H519697   4.116   5.925  10.516
  174SAPI    O519698   4.277   5.835  10.613
  174SAPI   HO519699   4.233   5.753  10.585
  174SAPI   C1619700   4.295   5.955  10.405
  174SAPI    H619701   4.400   5.978  10.432
  174SAPI    O619702   4.283   5.829  10.336
  174SAPI   HO619703   4.365   5.778  10.346
  174SAPI   C1119704   4.247   6.073  10.323
  174SAPI    H119705   4.136   6.066  10.303
  174SAPI     P19706   4.247   6.043  10.061
  174SAPI   O1319707   4.147   6.148  10.045
  174SAPI   O1419708   4.207   5.901  10.063
  174SAPI   O1219709   4.325   6.083  10.202
  174SAPI   O1119710   4.362   6.064   9.954
  174SAPI    C119711   4.492   6.021   9.991
  174SAPI    HA19712   4.544   6.109  10.032
  174SAPI    HB19713   4.488   5.938  10.066
  174SAPI    C219714   4.575   5.967   9.872
  174SAPI    HS19715   4.676   5.944   9.912
  174SAPI   O2119716   4.583   6.059   9.763
  174SAPI   C2119717   4.673   6.156   9.761
  174SAPI   O2219718   4.751   6.184   9.850
  174SAPI   C2219719   4.668   6.226   9.627
  174SAPI   H2R19720   4.681   6.336   9.632
  174SAPI   H2S19721   4.746   6.184   9.562
  174SAPI    C319722   4.516   5.834   9.819
  174SAPI    HX19723   4.488   5.774   9.907
  174SAPI    HY19724   4.588   5.776   9.758
  174SAPI   O3119725   4.397   5.856   9.745
  174SAPI   C3119726   4.414   5.857   9.615
  174SAPI   O3219727   4.516   5.846   9.550
  174SAPI   C3219728   4.284   5.859   9.546
  174SAPI   H2X19729   4.207   5.787   9.569
  174SAPI   H2Y19730   4.318   5.872   9.445
  174SAPI   C2319731   4.538   6.182   9.565
  174SAPI   H3R19732   4.451   6.186   9.628
  174SAPI   H3S19733   4.530   6.086   9.519
  174SAPI   C2419734   4.518   6.252   9.451
  174SAPI   H4R19735   4.601   6.272   9.383
  174SAPI   H4S19736   4.517   6.352   9.512
  174SAPI   C2519737   4.405   6.208   9.358
  174SAPI   H5R19738   4.315   6.271   9.346
  174SAPI   C2619739   4.415   6.174   9.234
  174SAPI   H6R19740   4.323   6.190   9.173
  174SAPI   C2719741   4.534   6.164   9.159
  174SAPI   H7R19742   4.512   6.064   9.124
  174SAPI   H7S19743   4.615   6.155   9.231
  174SAPI   C2819744   4.576   6.259   9.052
  174SAPI   H8R19745   4.596   6.359   9.084
  174SAPI   C2919746   4.597   6.229   8.925
  174SAPI   H9R19747   4.635   6.302   8.852
  174SAPI  C21019748   4.581   6.094   8.870
  174SAPI  H10R19749   4.591   6.010   8.945
  174SAPI  H10S19750   4.665   6.094   8.800
  174SAPI  C21119751   4.461   6.070   8.793
  174SAPI  H11R19752   4.370   6.090   8.847
  174SAPI  C21219753   4.460   6.036   8.665
  174SAPI  H12R19754   4.367   6.007   8.620
  174SAPI  C21319755   4.574   6.014   8.573
  174SAPI  H13R19756   4.541   5.948   8.491
  174SAPI  H13S19757   4.633   5.945   8.624
  174SAPI  C21419758   4.661   6.129   8.531
  174SAPI  H14R19759   4.724   6.178   8.606
  174SAPI  C21519760   4.645   6.192   8.417
  174SAPI  H15R19761   4.693   6.292   8.408
  174SAPI  C21619762   4.535   6.158   8.320
  174SAPI  H16R19763   4.496   6.245   8.267
  174SAPI  H16S19764   4.442   6.136   8.375
  174SAPI  C21719765   4.564   6.048   8.221
  174SAPI  H17R19766   4.611   5.965   8.278
  174SAPI  H17S19767   4.636   6.083   8.143
  174SAPI  C21819768   4.435   6.000   8.154
  174SAPI  H18R19769   4.385   6.084   8.101
  174SAPI  H18S19770   4.362   5.966   8.231
  174SAPI  C21919771   4.461   5.885   8.057
  174SAPI  H19R19772   4.484   5.791   8.111
  174SAPI  H19S19773   4.556   5.911   8.004
  174SAPI  C22019774   4.347   5.862   7.958
  174SAPI  H20R19775   4.248   5.839   8.005
  174SAPI  H20S19776   4.369   5.779   7.889
  174SAPI  H20T19777   4.340   5.952   7.893
  174SAPI   C3319778   4.212   5.967   9.576
  174SAPI   H3X19779   4.289   6.062   9.575
  174SAPI   H3Y19780   4.228   5.961   9.684
  174SAPI   C3419781   4.021   5.992   9.526
  174SAPI   H4X19782   4.003   6.037   9.441
  174SAPI   H4Y19783   3.969   6.112   9.533
  174SAPI   C3519784   3.938   5.912   9.504
  174SAPI   H5X19785   3.938   5.886   9.610
  174SAPI   H5Y19786   3.994   5.850   9.438
  174SAPI   C3619787   3.828   5.995   9.436
  174SAPI   H6X19788   3.781   6.076   9.480
  174SAPI   H6Y19789   3.760   5.922   9.452
  174SAPI   C3719790   3.838   6.128   9.346
  174SAPI   H7X19791   3.921   6.199   9.367
  174SAPI   H7Y19792   3.759   6.197   9.349
  174SAPI   C3819793   3.857   6.071   9.221
  174SAPI   H8X19794   3.809   5.976   9.194
  174SAPI   H8Y19795   3.945   6.028   9.265
  174SAPI   C3919796   3.867   6.163   9.103
  174SAPI   H9X19797   3.932   6.244   9.138
  174SAPI   H9Y19798   3.765   6.202   9.092
  174SAPI  C31019799   3.907   6.099   8.968
  174SAPI  H10X19800   3.831   6.022   8.947
  174SAPI  H10Y19801   4.008   6.057   8.970
  174SAPI  C31119802   3.931   6.186   8.848
  174SAPI  H11X19803   4.007   6.259   8.885
  174SAPI  H11Y19804   3.835   6.233   8.827
  174SAPI  C31219805   3.988   6.115   8.721
  174SAPI  H12X19806   3.908   6.087   8.648
  174SAPI  H12Y19807   4.035   6.018   8.750
  174SAPI  C31319808   4.102   6.198   8.658
  174SAPI  H13X19809   4.187   6.195   8.728
  174SAPI  H13Y19810   4.074   6.306   8.647
  174SAPI  C31419811   4.173   6.138   8.534
  174SAPI  H14X19812   4.179   6.028   8.535
  174SAPI  H14Y19813   4.268   6.188   8.514
  174SAPI  C31519814   4.109   6.178   8.410
  174SAPI  H15X19815   4.082   6.282   8.445
  174SAPI  H15Y19816   4.014   6.122   8.431
  174SAPI  C31619817   4.172   6.186   8.249
  174SAPI  H16X19818   4.219   6.090   8.255
  174SAPI  H16Y19819   4.257   6.248   8.244
  174SAPI  C31719820   4.087   6.211   8.092
  174SAPI  H17X19821   3.981   6.163   8.079
  174SAPI  H17Y19822   4.110   6.157   8.004
  174SAPI  C31819823   4.046   6.344   8.025
  174SAPI  H18X19824   4.011   6.409   8.096
  174SAPI  H18Y19825   3.930   6.337   8.020
  174SAPI  H18Z19826   4.116   6.396   8.093
  175SAPI   C1219827   1.339   3.354   5.766
  175SAPI    H219828   1.374   3.441   5.826
  175SAPI    O219829   1.237   3.290   5.844
  175SAPI   HO219830   1.265   3.305   5.935
  175SAPI   C1319831   1.289   3.408   5.632
  175SAPI    H319832   1.377   3.451   5.580
  175SAPI    O319833   1.200   3.518   5.644
  175SAPI   HO319834   1.255   3.597   5.641
  175SAPI   C1419835   1.238   3.295   5.544
  175SAPI    H419836   1.149   3.247   5.590
  175SAPI    O419837   1.196   3.346   5.417
  175SAPI   HO419838   1.193   3.274   5.354
  175SAPI   C1519839   1.347   3.192   5.521
  175SAPI    H519840   1.430   3.244   5.466
  175SAPI    O519841   1.294   3.086   5.438
  175SAPI   HO519842   1.309   3.107   5.345
  175SAPI   C1619843   1.401   3.137   5.653
  175SAPI    H619844   1.321   3.084   5.709
  175SAPI    O619845   1.506   3.043   5.628
  175SAPI   HO619846   1.476   2.959   5.590
  175SAPI   C1119847   1.453   3.257   5.736
  175SAPI    H119848   1.525   3.308   5.666
  175SAPI     P19849   1.640   3.316   5.918
  175SAPI   O1319850   1.573   3.428   5.988
  175SAPI   O1419851   1.732   3.349   5.809
  175SAPI   O1219852   1.527   3.213   5.851
  175SAPI   O1119853   1.713   3.230   6.030
  175SAPI    C119854   1.679   3.101   6.070
  175SAPI    HA19855   1.682   3.035   5.981
  175SAPI    HB19856   1.757   3.066   6.143
  175SAPI    C219857   1.538   3.098   6.134
  175SAPI    HS19858   1.464   3.111   6.051
  175SAPI   O2119859   1.520   3.202   6.232
  175SAPI   C2119860   1.397   3.246   6.255
  175SAPI   O2219861   1.298   3.226   6.188
  175SAPI   C2219862   1.391   3.313   6.392
  175SAPI   H2R19863   1.422   3.237   6.467
  175SAPI   H2S19864   1.456   3.403   6.387
  175SAPI    C319865   1.524   2.962   6.202
  175SAPI    HX19866   1.585   2.959   6.293
  175SAPI    HY19867   1.541   2.876   6.135
  175SAPI   O3119868   1.399   2.943   6.241
  175SAPI   C3119869   1.369   2.944   6.377
  175SAPI   O3219870   1.432   2.975   6.472
  175SAPI   C3219871   1.247   2.894   6.396
  175SAPI   H2X19872   1.241   2.801   6.349
  175SAPI   H2Y19873   1.226   2.959   6.306
  175SAPI   C2319874   1.247   3.351   6.429
  175SAPI   H3R19875   1.178   3.270   6.398
  175SAPI   H3S19876   1.211   3.440   6.375
  175SAPI   C2419877   1.223   3.367   6.581
  175SAPI   H4R19878   1.219   3.267   6.628
  175SAPI   H4S19879   1.123   3.414   6.594
  175SAPI   C2519880   1.319   3.455   6.653
  175SAPI   H5R19881   1.356   3.536   6.591
  175SAPI   C2619882   1.365   3.441   6.778
  175SAPI   H6R19883   1.436   3.516   6.813
  175SAPI   C2719884   1.328   3.332   6.875
  175SAPI   H7R19885   1.379   3.241   6.837
  175SAPI   H7S19886   1.219   3.307   6.871
  175SAPI   C2819887   1.368   3.351   7.017
  175SAPI   H8R19888   1.284   3.384   7.079
  175SAPI   C2919889   1.492   3.333   7.070
  175SAPI   H9R19890   1.505   3.339   7.179
  175SAPI  C21019891   1.615   3.290   6.992
  175SAPI  H10R19892   1.648   3.373   6.926
  175SAPI  H10S19893   1.588   3.209   6.920
  175SAPI  C21119894   1.731   3.255   7.082
  175SAPI  H11R19895   1.805   3.335   7.095
  175SAPI  C21219896   1.751   3.139   7.146
  175SAPI  H12R19897   1.837   3.125   7.215
  175SAPI  C21319898   1.658   3.024   7.138
  175SAPI  H13R19899   1.692   2.955   7.058
  175SAPI  H13S19900   1.553   3.048   7.109
  175SAPI  C21419901   1.669   2.954   7.269
  175SAPI  H14R19902   1.721   2.859   7.255
  175SAPI  C21519903   1.631   2.977   7.395
  175SAPI  H15R19904   1.646   2.894   7.467
  175SAPI  C21619905   1.558   3.095   7.444
  175SAPI  H16R19906   1.447   3.085   7.439
  175SAPI  H16S19907   1.592   3.180   7.382
  175SAPI  C21719908   1.594   3.114   7.591
  175SAPI  H17R19909   1.705   3.128   7.594
  175SAPI  H17S19910   1.568   3.021   7.647
  175SAPI  C21819911   1.519   3.234   7.651
  175SAPI  H18R19912   1.425   3.202   7.701
  175SAPI  H18S19913   1.485   3.304   7.572
  175SAPI  C21919914   1.606   3.312   7.750
  175SAPI  H19R19915   1.681   3.372   7.693
  175SAPI  H19S19916   1.660   3.238   7.812
  175SAPI  C22019917   1.532   3.409   7.839
  175SAPI  H20R19918   1.463   3.356   7.907
  175SAPI  H20S19919   1.472   3.478   7.776
  175SAPI  H20T19920   1.608   3.466   7.899
  175SAPI   C3319921   1.156   2.901   6.528
  175SAPI   H3X19922   1.044   2.883   6.524
  175SAPI   H3Y19923   1.167   2.996   6.574
  175SAPI   C3419924   1.200   2.801   6.618
  175SAPI   H4X19925   1.300   2.777   6.578
  175SAPI   H4Y19926   1.127   2.718   6.615
  175SAPI   C3519927   1.196   2.834   6.760
  175SAPI   H5X19928   1.269   2.756   6.791
  175SAPI   H5Y19929   1.091   2.813   6.792
  175SAPI   C3619930   1.251   2.969   6.800
  175SAPI   H6X19931   1.203   3.059   6.755
  175SAPI   H6Y19932   1.358   2.972   6.770
  175SAPI   C3719933   1.223   2.983   6.948
  175SAPI   H7X19934   1.112   2.979   6.957
  175SAPI   H7Y19935   1.254   3.084   6.979
  175SAPI   C3819936   1.287   2.876   7.037
  175SAPI   H8X19937   1.394   2.860   7.010
  175SAPI   H8Y19938   1.230   2.781   7.027
  175SAPI   C3919939   1.286   2.918   7.185
  175SAPI   H9X19940   1.337   3.017   7.188
  175SAPI   H9Y19941   1.347   2.846   7.243
  175SAPI  C31019942   1.141   2.918   7.236
  175SAPI  H10X19943   1.101   2.814   7.236
  175SAPI  H10Y19944   1.084   2.978   7.162
  175SAPI  C31119945   1.111   2.984   7.372
  175SAPI  H11X19946   1.010   3.032   7.364
  175SAPI  H11Y19947   1.186   3.065   7.387
  175SAPI  C31219948   1.117   2.897   7.498
  175SAPI  H12X19949   1.208   2.834   7.500
  175SAPI  H12Y19950   1.028   2.832   7.509
  175SAPI  C31319951   1.134   2.985   7.621
  175SAPI  H13X19952   1.064   3.069   7.613
  175SAPI  H13Y19953   1.225   3.047   7.616
  175SAPI  C31419954   1.131   2.901   7.751
  175SAPI  H14X19955   1.148   2.793   7.741
  175SAPI  H14Y19956   1.027   2.884   7.790
  175SAPI  C31519957   1.222   2.969   7.861
  175SAPI  H15X19958   1.327   2.950   7.853
  175SAPI  H15Y19959   1.207   2.899   7.935
  175SAPI  C31619960   1.218   3.122   7.903
  175SAPI  H16X19961   1.125   3.150   7.949
  175SAPI  H16Y19962   1.221   3.177   7.809
  175SAPI  C31719963   1.264   3.189   8.033
  175SAPI  H17X19964   1.367   3.205   8.022
  175SAPI  H17Y19965   1.276   3.134   8.125
  175SAPI  C31819966   1.179   3.313   8.071
  175SAPI  H18X19967   1.218   3.348   8.168
  175SAPI  H18Y19968   1.069   3.295   8.087
  175SAPI  H18Z19969   1.196   3.382   7.986
  176SAPI   C1219970   1.369   1.521   5.571
  176SAPI    H219971   1.425   1.429   5.599
  176SAPI    O219972   1.468   1.620   5.553
  176SAPI   HO219973   1.553   1.579   5.556
  176SAPI   C1319974   1.292   1.496   5.441
  176SAPI    H319975   1.227   1.406   5.448
  176SAPI    O319976   1.381   1.464   5.334
  176SAPI   HO319977   1.432   1.388   5.364
  176SAPI   C1419978   1.206   1.620   5.413
  176SAPI    H419979   1.276   1.706   5.399
  176SAPI    O419980   1.126   1.603   5.295
  176SAPI   HO419981   1.082   1.518   5.302
  176SAPI   C1519982   1.115   1.651   5.534
  176SAPI    H519983   1.056   1.557   5.550
  176SAPI    O519984   1.024   1.759   5.510
  176SAPI   HO519985   0.942   1.742   5.556
  176SAPI   C1619986   1.193   1.674   5.662
  176SAPI    H619987   1.263   1.759   5.644
  176SAPI    O619988   1.106   1.709   5.773
  176SAPI   HO619989   1.019   1.673   5.760
  176SAPI   C1119990   1.277   1.551   5.688
  176SAPI    H119991   1.216   1.461   5.701
  176SAPI     P19992   1.325   1.502   5.950
  176SAPI   O1319993   1.328   1.356   5.935
  176SAPI   O1419994   1.198   1.558   6.002
  176SAPI   O1219995   1.361   1.566   5.803
  176SAPI   O1119996   1.443   1.559   6.032
  176SAPI    C119997   1.578   1.521   6.015
  176SAPI    HA19998   1.589   1.410   6.023
  176SAPI    HB19999   1.621   1.563   5.921
  176SAPI    C220000   1.653   1.573   6.134
  176SAPI    HS20001   1.756   1.528   6.129
  176SAPI   O2120002   1.578   1.544   6.248
  176SAPI   C2120003   1.644   1.484   6.338
  176SAPI   O2220004   1.760   1.446   6.328
  176SAPI   C2220005   1.548   1.470   6.454
  176SAPI   H2R20006   1.574   1.391   6.521
  176SAPI   H2S20007   1.538   1.562   6.514
  176SAPI    C320008   1.671   1.721   6.133
  176SAPI    HX20009   1.592   1.791   6.101
  176SAPI    HY20010   1.747   1.723   6.060
  176SAPI   O3120011   1.737   1.758   6.250
  176SAPI   C3120012   1.666   1.793   6.352
  176SAPI   O3220013   1.546   1.774   6.359
  176SAPI   C3220014   1.750   1.872   6.470
  176SAPI   H2X20015   1.796   1.971   6.453
  176SAPI   H2Y20016   1.849   1.867   6.494
  176SAPI   C2320017   1.425   1.398   6.408
  176SAPI   H3R20018   1.451   1.315   6.337
  176SAPI   H3S20019   1.371   1.477   6.356
  176SAPI   C2420020   1.339   1.358   6.525
  176SAPI   H4R20021   1.237   1.350   6.491
  176SAPI   H4S20022   1.341   1.436   6.601
  176SAPI   C2520023   1.373   1.231   6.588
  176SAPI   H5R20024   1.379   1.146   6.522
  176SAPI   C2620025   1.397   1.214   6.714
  176SAPI   H6R20026   1.404   1.113   6.746
  176SAPI   C2720027   1.398   1.310   6.826
  176SAPI   H7R20028   1.441   1.257   6.912
  176SAPI   H7S20029   1.291   1.334   6.834
  176SAPI   C2820030   1.481   1.430   6.828
  176SAPI   H8R20031   1.558   1.432   6.755
  176SAPI   C2920032   1.468   1.531   6.912
  176SAPI   H9R20033   1.525   1.620   6.888
  176SAPI  C21020034   1.365   1.540   7.021
  176SAPI  H10R20035   1.328   1.438   7.045
  176SAPI  H10S20036   1.277   1.593   6.981
  176SAPI  C21120037   1.410   1.607   7.148
  176SAPI  H11R20038   1.504   1.664   7.146
  176SAPI  C21220039   1.334   1.612   7.259
  176SAPI  H12R20040   1.375   1.663   7.347
  176SAPI  C21320041   1.195   1.554   7.279
  176SAPI  H13R20042   1.170   1.486   7.196
  176SAPI  H13S20043   1.113   1.630   7.278
  176SAPI  C21420044   1.199   1.476   7.408
  176SAPI  H14R20045   1.267   1.390   7.403
  176SAPI  C21520046   1.129   1.493   7.521
  176SAPI  H15R20047   1.142   1.419   7.602
  176SAPI  C21620048   1.026   1.600   7.548
  176SAPI  H16R20049   0.933   1.552   7.584
  176SAPI  H16S20050   1.001   1.655   7.455
  176SAPI  C21720051   1.068   1.709   7.647
  176SAPI  H17R20052   0.993   1.790   7.638
  176SAPI  H17S20053   1.165   1.752   7.611
  176SAPI  C21820054   1.055   1.662   7.794
  176SAPI  H18R20055   1.104   1.564   7.808
  176SAPI  H18S20056   0.945   1.650   7.812
  176SAPI  C21920057   1.115   1.748   7.905
  176SAPI  H19R20058   1.218   1.777   7.876
  176SAPI  H19S20059   1.105   1.710   8.006
  176SAPI  C22020060   1.037   1.865   7.935
  176SAPI  H20R20061   1.071   1.950   7.998
  176SAPI  H20S20062   0.925   1.860   7.928
  176SAPI  H20T20063   1.066   1.897   7.836
  176SAPI   C3320064   1.712   1.818   6.598
  176SAPI   H3X20065   1.673   1.715   6.586
  176SAPI   H3Y20066   1.633   1.889   6.627
  176SAPI   C3420067   1.828   1.804   6.689
  176SAPI   H4X20068   1.896   1.892   6.705
  176SAPI   H4Y20069   1.886   1.715   6.666
  176SAPI   C3520070   1.771   1.755   6.807
  176SAPI   H5X20071   1.850   1.793   6.864
  176SAPI   H5Y20072   1.757   1.655   6.843
  176SAPI   C3620073   1.658   1.824   6.841
  176SAPI   H6X20074   1.631   1.761   6.934
  176SAPI   H6Y20075   1.557   1.819   6.806
  176SAPI   C3720076   1.710   1.985   6.835
  176SAPI   H7X20077   1.717   2.032   6.744
  176SAPI   H7Y20078   1.817   1.984   6.854
  176SAPI   C3820079   1.638   2.106   6.930
  176SAPI   H8X20080   1.588   1.990   6.900
  176SAPI   H8Y20081   1.642   2.181   6.994
  176SAPI   C3920082   1.588   2.108   7.181
  176SAPI   H9X20083   1.674   2.124   7.215
  176SAPI   H9Y20084   1.571   1.992   7.234
  176SAPI  C31020085   1.474   2.075   7.278
  176SAPI  H10X20086   1.392   2.017   7.231
  176SAPI  H10Y20087   1.487   2.183   7.271
  176SAPI  C31120088   1.487   1.986   7.406
  176SAPI  H11X20089   1.477   1.878   7.377
  176SAPI  H11Y20090   1.408   2.044   7.450
  176SAPI  C31220091   1.596   1.980   7.503
  176SAPI  H12X20092   1.569   2.045   7.581
  176SAPI  H12Y20093   1.679   2.034   7.467
  176SAPI  C31320094   1.653   1.841   7.541
  176SAPI  H13X20095   1.753   1.832   7.577
  176SAPI  H13Y20096   1.701   1.770   7.475
  176SAPI  C31420097   1.595   1.796   7.654
  176SAPI  H14X20098   1.508   1.769   7.594
  176SAPI  H14Y20099   1.584   1.882   7.721
  176SAPI  C31520100   1.688   1.692   7.710
  176SAPI  H15X20101   1.792   1.728   7.721
  176SAPI  H15Y20102   1.692   1.611   7.637
  176SAPI  C31620103   1.633   1.647   7.838
  176SAPI  H16X20104   1.644   1.739   7.892
  176SAPI  H16Y20105   1.696   1.570   7.885
  176SAPI  C31720106   1.483   1.621   7.843
  176SAPI  H17X20107   1.422   1.699   7.792
  176SAPI  H17Y20108   1.453   1.629   7.949
  176SAPI  C31820109   1.449   1.484   7.785
  176SAPI  H18X20110   1.507   1.474   7.691
  176SAPI  H18Y20111   1.339   1.476   7.766
  176SAPI  H18Z20112   1.482   1.401   7.850
  177SLPC     N20113   4.973   5.216   9.893
  177SLPC   C1320114   4.899   5.337   9.928
  177SLPC  H13A20115   4.910   5.353  10.033
  177SLPC  H13B20116   4.940   5.426   9.878
  177SLPC  H13C20117   4.798   5.320   9.895
  177SLPC   C1420118   4.923   5.083   9.926
  177SLPC  H14A20119   4.991   5.007   9.887
  177SLPC  H14B20120   4.911   5.073  10.032
  177SLPC  H14C20121   4.829   5.071   9.875
  177SLPC   C1520122   5.098   5.230   9.975
  177SLPC  H15A20123   5.109   5.180  10.069
  177SLPC  H15B20124   5.168   5.172   9.918
  177SLPC  H15C20125   5.146   5.328   9.969
  177SLPC   C1220126   4.972   5.206   9.741
  177SLPC  H12A20127   5.037   5.129   9.707
  177SLPC  H12B20128   5.028   5.290   9.710
  177SLPC   C1120129   4.859   5.187   9.645
  177SLPC  H11A20130   4.807   5.094   9.676
  177SLPC  H11B20131   4.914   5.169   9.547
  177SLPC     P20132   4.756   5.404   9.534
  177SLPC   O1320133   4.639   5.487   9.558
  177SLPC   O1420134   4.871   5.487   9.519
  177SLPC   O1220135   4.780   5.302   9.653
  177SLPC   O1120136   4.739   5.307   9.408
  177SLPC    C120137   4.615   5.238   9.397
  177SLPC    HA20138   4.607   5.166   9.482
  177SLPC    HB20139   4.527   5.306   9.406
  177SLPC    C220140   4.600   5.162   9.261
  177SLPC    HS20141   4.512   5.102   9.268
  177SLPC   O2120142   4.710   5.074   9.229
  177SLPC   C2120143   4.741   4.979   9.315
  177SLPC   O2220144   4.691   4.952   9.421
  177SLPC   C2220145   4.858   4.898   9.272
  177SLPC   H2R20146   4.835   4.793   9.299
  177SLPC   H2S20147   4.877   4.907   9.164
  177SLPC    C320148   4.576   5.256   9.137
  177SLPC    HX20149   4.483   5.317   9.143
  177SLPC    HY20150   4.572   5.198   9.044
  177SLPC   O3120151   4.682   5.339   9.117
  177SLPC   C3120152   4.664   5.451   9.165
  177SLPC   O3220153   4.571   5.515   9.211
  177SLPC   C3220154   4.786   5.488   9.147
  177SLPC   H2X20155   4.847   5.488   9.241
  177SLPC   H2Y20156   4.759   5.564   9.192
  177SLPC   C2320157   4.974   4.928   9.367
  177SLPC   H3R20158   5.049   4.854   9.352
  177SLPC   H3S20159   4.950   4.933   9.473
  177SLPC   C2420160   5.036   5.060   9.345
  177SLPC   H4R20161   5.107   5.105   9.411
  177SLPC   H4S20162   4.947   5.125   9.328
  177SLPC   C2520163   5.141   5.058   9.244
  177SLPC   H5R20164   5.070   4.985   9.174
  177SLPC   H5S20165   5.199   4.984   9.232
  177SLPC   C2620166   5.213   5.228   9.145
  177SLPC   H6R20167   5.278   5.255   9.066
  177SLPC   H6S20168   5.223   5.248   9.237
  177SLPC   C2720169   5.094   5.320   8.964
  177SLPC   H7R20170   5.056   5.423   8.966
  177SLPC   H7S20171   4.979   5.348   9.014
  177SLPC   C2820172   5.068   5.258   8.846
  177SLPC   H8R20173   5.171   5.242   8.835
  177SLPC   H8S20174   5.047   5.350   8.798
  177SLPC   C2920175   4.973   5.149   8.823
  177SLPC   H9R20176   4.993   5.045   8.862
  177SLPC  C21020177   4.855   5.207   8.821
  177SLPC  H10R20178   4.803   5.116   8.769
  177SLPC  C21120179   4.845   5.380   8.849
  177SLPC  H11R20180   4.989   5.604   8.982
  177SLPC  H11S20181   4.875   5.400   8.754
  177SLPC  C21220182   4.677   5.333   8.792
  177SLPC  H12R20183   4.617   5.344   8.880
  177SLPC  C21320184   4.579   5.266   8.698
  177SLPC  H13R20185   4.466   5.276   8.716
  177SLPC  C21420186   4.568   5.181   8.563
  177SLPC  H14R20187   4.534   5.072   8.572
  177SLPC  H14S20188   4.663   5.180   8.507
  177SLPC  C21520189   4.469   5.232   8.452
  177SLPC  H15R20190   4.363   5.220   8.482
  177SLPC  H15S20191   4.490   5.172   8.361
  177SLPC  C21620192   4.494   5.374   8.401
  177SLPC  H16R20193   4.599   5.372   8.365
  177SLPC  H16S20194   4.478   5.441   8.486
  177SLPC  C21720195   4.403   5.419   8.289
  177SLPC  H17R20196   4.389   5.527   8.274
  177SLPC  H17S20197   4.297   5.394   8.312
  177SLPC  C21820198   4.441   5.350   8.163
  177SLPC  H18R20199   4.471   5.246   8.171
  177SLPC  H18S20200   4.526   5.384   8.107
  177SLPC  H18T20201   4.346   5.358   8.109
  177SLPC   C3320202   4.806   5.551   9.008
  177SLPC   H3X20203   4.884   5.493   9.033
  177SLPC   H3Y20204   4.884   5.532   8.930
  177SLPC   C3420205   4.743   5.640   8.893
  177SLPC   H4X20206   4.778   5.725   8.947
  177SLPC   H4Y20207   4.651   5.601   8.920
  177SLPC   C3520208   4.773   5.645   8.732
  177SLPC   H5X20209   4.814   5.555   8.706
  177SLPC   H5Y20210   4.876   5.687   8.739
  177SLPC   C3620211   4.678   5.685   8.605
  177SLPC   H6X20212   4.658   5.778   8.624
  177SLPC   H6Y20213   4.569   5.682   8.611
  177SLPC   C3720214   4.774   5.715   8.499
  177SLPC   H7X20215   4.875   5.730   8.540
  177SLPC   H7Y20216   4.757   5.814   8.449
  177SLPC   C3820217   4.774   5.575   8.461
  177SLPC   H8X20218   4.691   5.512   8.501
  177SLPC   H8Y20219   4.833   5.508   8.526
  177SLPC   C3920220   4.831   5.578   8.326
  177SLPC   H9X20221   4.847   5.473   8.306
  177SLPC   H9Y20222   4.916   5.645   8.341
  177SLPC  C31020223   4.756   5.648   8.217
  177SLPC  H10X20224   4.766   5.755   8.193
  177SLPC  H10Y20225   4.678   5.673   8.285
  177SLPC  C31120226   4.741   5.574   8.085
  177SLPC  H11X20227   4.672   5.635   8.024
  177SLPC  H11Y20228   4.706   5.469   8.088
  177SLPC  C31220229   4.877   5.574   8.019
  177SLPC  H12X20230   4.920   5.672   8.044
  177SLPC  H12Y20231   4.882   5.605   7.917
  177SLPC  C31320232   4.958   5.440   8.041
  177SLPC  H13X20233   4.907   5.345   8.027
  177SLPC  H13Y20234   4.931   5.437   8.141
  177SLPC  C31420235   5.098   5.434   7.967
  177SLPC  H14X20236   5.146   5.529   7.957
  177SLPC  H14Y20237   5.105   5.423   7.861
  177SLPC  C31520238   5.193   5.327   7.991
  177SLPC  H15X20239   5.255   5.400   8.055
  177SLPC  H15Y20240   5.279   5.307   7.928
  177SLPC  C31620241   5.121   5.194   8.039
  177SLPC  H16X20242   5.074   5.143   7.959
  177SLPC  H16Y20243   5.072   5.176   8.131
  177SLPC  C31720244   5.171   5.057   8.071
  177SLPC  H17X20245   5.222   5.068   8.170
  177SLPC  H17Y20246   5.237   5.045   7.979
  177SLPC  C31820247   5.161   4.967   8.195
  177SLPC  H18X20248   5.120   4.995   8.295
  177SLPC  H18Y20249   5.233   4.886   8.197
  177SLPC  H18Z20250   5.084   4.938   8.144
  178SLPC     N20251   2.024   2.144   9.810
  178SLPC   C1320252   1.994   2.076   9.938
  178SLPC  H13A20253   2.043   1.978   9.935
  178SLPC  H13B20254   2.035   2.137  10.019
  178SLPC  H13C20255   1.888   2.062   9.954
  178SLPC   C1420256   1.944   2.268   9.791
  178SLPC  H14A20257   1.838   2.245   9.784
  178SLPC  H14B20258   1.959   2.341   9.870
  178SLPC  H14C20259   1.973   2.311   9.697
  178SLPC   C1520260   1.983   2.046   9.704
  178SLPC  H15A20261   2.003   2.087   9.607
  178SLPC  H15B20262   2.042   1.955   9.715
  178SLPC  H15C20263   1.878   2.019   9.711
  178SLPC   C1220264   2.173   2.180   9.808
  178SLPC  H12A20265   2.194   2.235   9.900
  178SLPC  H12B20266   2.196   2.252   9.730
  178SLPC   C1120267   2.278   2.067   9.803
  178SLPC  H11A20268   2.261   2.002   9.891
  178SLPC  H11B20269   2.378   2.117   9.815
  178SLPC     P20270   2.366   2.012   9.561
  178SLPC   O1320271   2.335   1.918   9.452
  178SLPC   O1420272   2.367   2.156   9.529
  178SLPC   O1220273   2.269   1.986   9.685
  178SLPC   O1120274   2.505   1.964   9.620
  178SLPC    C120275   2.632   2.020   9.588
  178SLPC    HA20276   2.632   2.130   9.604
  178SLPC    HB20277   2.707   1.983   9.661
  178SLPC    C220278   2.682   1.968   9.450
  178SLPC    HS20279   2.789   2.006   9.439
  178SLPC   O2120280   2.599   2.003   9.340
  178SLPC   C2120281   2.620   2.121   9.310
  178SLPC   O2220282   2.712   2.187   9.359
  178SLPC   C2220283   2.515   2.145   9.198
  178SLPC   H2R20284   2.517   2.057   9.132
  178SLPC   H2S20285   2.422   2.183   9.241
  178SLPC    C320286   2.685   1.818   9.441
  178SLPC    HX20287   2.600   1.767   9.488
  178SLPC    HY20288   2.770   1.792   9.503
  178SLPC   O3120289   2.711   1.773   9.307
  178SLPC   C3120290   2.613   1.718   9.239
  178SLPC   O3220291   2.507   1.678   9.281
  178SLPC   C3220292   2.660   1.701   9.094
  178SLPC   H2X20293   2.695   1.596   9.088
  178SLPC   H2Y20294   2.744   1.769   9.072
  178SLPC   C2320295   2.540   2.246   9.098
  178SLPC   H3R20296   2.639   2.219   9.075
  178SLPC   H3S20297   2.542   2.327   9.155
  178SLPC   C2420298   2.454   2.303   8.990
  178SLPC   H4R20299   2.494   2.393   8.934
  178SLPC   H4S20300   2.360   2.341   9.031
  178SLPC   C2520301   2.447   2.196   8.898
  178SLPC   H5R20302   2.399   2.111   8.950
  178SLPC   H5S20303   2.539   2.143   8.870
  178SLPC   C2620304   2.363   2.250   8.788
  178SLPC   H6R20305   2.257   2.248   8.803
  178SLPC   H6S20306   2.361   2.153   8.747
  178SLPC   C2720307   2.391   2.381   8.706
  178SLPC   H7R20308   2.416   2.460   8.773
  178SLPC   H7S20309   2.300   2.411   8.651
  178SLPC   C2820310   2.498   2.389   8.609
  178SLPC   H8R20311   2.536   2.327   8.682
  178SLPC   H8S20312   2.572   2.470   8.590
  178SLPC   C2920313   2.435   2.312   8.511
  178SLPC   H9R20314   2.520   2.335   8.450
  178SLPC  C21020315   2.429   2.184   8.497
  178SLPC  H10R20316   2.372   2.212   8.417
  178SLPC  C21120317   2.476   2.047   8.557
  178SLPC  H11R20318   2.404   2.008   8.633
  178SLPC  H11S20319   2.496   2.108   8.641
  178SLPC  C21220320   2.613   1.950   8.525
  178SLPC  H12R20321   2.718   1.974   8.514
  178SLPC  C21320322   2.682   1.829   8.495
  178SLPC  H13R20323   2.799   1.805   8.481
  178SLPC  C21420324   2.619   1.703   8.476
  178SLPC  H14R20325   2.526   1.699   8.535
  178SLPC  H14S20326   2.676   1.622   8.521
  178SLPC  C21520327   2.627   1.702   8.322
  178SLPC  H15R20328   2.524   1.676   8.306
  178SLPC  H15S20329   2.679   1.617   8.281
  178SLPC  C21620330   2.634   1.822   8.224
  178SLPC  H16R20331   2.732   1.873   8.234
  178SLPC  H16S20332   2.554   1.894   8.249
  178SLPC  C21720333   2.618   1.782   8.075
  178SLPC  H17R20334   2.684   1.700   8.044
  178SLPC  H17S20335   2.646   1.876   8.021
  178SLPC  C21820336   2.477   1.745   8.032
  178SLPC  H18R20337   2.432   1.840   8.058
  178SLPC  H18S20338   2.424   1.664   8.087
  178SLPC  H18T20339   2.466   1.732   7.923
  178SLPC   C3320340   2.549   1.726   8.993
  178SLPC   H3X20341   2.585   1.794   8.914
  178SLPC   H3Y20342   2.465   1.781   9.043
  178SLPC   C3420343   2.495   1.595   8.934
  178SLPC   H4X20344   2.449   1.540   9.019
  178SLPC   H4Y20345   2.575   1.527   8.898
  178SLPC   C3520346   2.394   1.620   8.820
  178SLPC   H5X20347   2.362   1.522   8.777
  178SLPC   H5Y20348   2.445   1.680   8.741
  178SLPC   C3620349   2.270   1.696   8.867
  178SLPC   H6X20350   2.305   1.794   8.903
  178SLPC   H6Y20351   2.229   1.641   8.955
  178SLPC   C3720352   2.159   1.719   8.761
  178SLPC   H7X20353   2.072   1.766   8.812
  178SLPC   H7Y20354   2.130   1.621   8.716
  178SLPC   C3820355   2.198   1.809   8.644
  178SLPC   H8X20356   2.294   1.774   8.600
  178SLPC   H8Y20357   2.216   1.913   8.681
  178SLPC   C3920358   2.092   1.809   8.530
  178SLPC   H9X20359   2.000   1.863   8.560
  178SLPC   H9Y20360   2.065   1.708   8.496
  178SLPC  C31020361   2.151   1.862   8.401
  178SLPC  H10X20362   2.087   1.872   8.313
  178SLPC  H10Y20363   2.247   1.805   8.386
  178SLPC  C31120364   2.201   1.996   8.421
  178SLPC  H11X20365   2.306   1.969   8.439
  178SLPC  H11Y20366   2.175   2.015   8.520
  178SLPC  C31220367   2.172   2.089   8.306
  178SLPC  H12X20368   2.194   2.190   8.349
  178SLPC  H12Y20369   2.069   2.098   8.272
  178SLPC  C31320370   2.242   2.008   8.194
  178SLPC  H13X20371   2.322   1.937   8.206
  178SLPC  H13Y20372   2.322   2.012   8.261
  178SLPC  C31420373   2.360   2.056   8.120
  178SLPC  H14X20374   2.255   2.067   8.072
  178SLPC  H14Y20375   2.360   2.078   8.018
  178SLPC  C31520376   2.472   2.150   8.221
  178SLPC  H15X20377   2.375   2.182   8.258
  178SLPC  H15Y20378   2.410   2.214   8.246
  178SLPC  C31620379   2.513   2.339   8.210
  178SLPC  H16X20380   2.490   2.350   8.120
  178SLPC  H16Y20381   2.610   2.252   8.341
  178SLPC  C31720382   2.417   2.537   7.979
  178SLPC  H17X20383   2.519   2.609   7.973
  178SLPC  H17Y20384   2.489   2.622   7.951
  178SLPC  C31820385   2.343   2.615   7.916
  178SLPC  H18X20386   2.247   2.624   7.907
  178SLPC  H18Y20387   2.387   2.584   7.819
  178SLPC  H18Z20388   2.323   2.703   7.959
  179SLPC     N20389   2.969   5.680   9.569
  179SLPC   C1320390   2.822   5.656   9.568
  179SLPC  H13A20391   2.801   5.569   9.630
  179SLPC  H13B20392   2.766   5.733   9.618
  179SLPC  H13C20393   2.781   5.629   9.472
  179SLPC   C1420394   2.989   5.801   9.484
  179SLPC  H14A20395   2.956   5.787   9.381
  179SLPC  H14B20396   2.926   5.881   9.523
  179SLPC  H14C20397   3.091   5.838   9.480
  179SLPC   C1520398   3.047   5.571   9.507
  179SLPC  H15A20399   3.009   5.551   9.409
  179SLPC  H15B20400   3.154   5.589   9.507
  179SLPC  H15C20401   3.030   5.480   9.562
  179SLPC   C1220402   3.010   5.697   9.716
  179SLPC  H12A20403   3.109   5.738   9.722
  179SLPC  H12B20404   3.012   5.599   9.764
  179SLPC   C1120405   2.923   5.788   9.806
  179SLPC  H11A20406   2.979   5.803   9.901
  179SLPC  H11B20407   2.825   5.743   9.832
  179SLPC     P20408   2.814   6.023   9.814
  179SLPC   O1320409   2.678   6.004   9.760
  179SLPC   O1420410   2.832   6.011   9.960
  179SLPC   O1220411   2.904   5.913   9.742
  179SLPC   O1120412   2.883   6.154   9.763
  179SLPC    C120413   2.977   6.158   9.659
  179SLPC    HA20414   3.057   6.231   9.687
  179SLPC    HB20415   3.031   6.063   9.638
  179SLPC    C220416   2.896   6.194   9.536
  179SLPC    HS20417   2.853   6.298   9.558
  179SLPC   O2120418   2.810   6.095   9.490
  179SLPC   C2120419   2.694   6.136   9.470
  179SLPC   O2220420   2.650   6.250   9.478
  179SLPC   C2220421   2.618   6.014   9.430
  179SLPC   H2R20422   2.683   5.935   9.385
  179SLPC   H2S20423   2.574   5.976   9.525
  179SLPC    C320424   2.965   6.215   9.420
  179SLPC    HX20425   3.033   6.286   9.484
  179SLPC    HY20426   2.910   6.273   9.341
  179SLPC   O3120427   3.026   6.093   9.367
  179SLPC   C3120428   3.042   6.058   9.243
  179SLPC   O3220429   2.966   6.088   9.152
  179SLPC   C3220430   3.172   5.980   9.224
  179SLPC   H2X20431   3.204   5.927   9.316
  179SLPC   H2Y20432   3.259   6.046   9.210
  179SLPC   C2320433   2.523   6.064   9.326
  179SLPC   H3R20434   2.571   6.119   9.244
  179SLPC   H3S20435   2.436   6.117   9.370
  179SLPC   C2420436   2.463   5.958   9.252
  179SLPC   H4R20437   2.376   5.994   9.190
  179SLPC   H4S20438   2.418   5.902   9.337
  179SLPC   C2520439   2.550   5.861   9.170
  179SLPC   H5R20440   2.503   5.794   9.099
  179SLPC   H5S20441   2.586   5.779   9.232
  179SLPC   C2620442   2.642   5.927   9.073
  179SLPC   H6R20443   2.705   5.986   9.140
  179SLPC   H6S20444   2.586   5.993   9.003
  179SLPC   C2720445   2.720   5.819   8.997
  179SLPC   H7R20446   2.650   5.738   8.965
  179SLPC   H7S20447   2.791   5.775   9.070
  179SLPC   C2820448   2.793   5.870   8.871
  179SLPC   H8R20449   2.880   5.802   8.856
  179SLPC   H8S20450   2.836   5.971   8.890
  179SLPC   C2920451   2.701   5.875   8.751
  179SLPC   H9R20452   2.635   5.961   8.747
  179SLPC  C21020453   2.699   5.794   8.646
  179SLPC  H10R20454   2.622   5.808   8.568
  179SLPC  C21120455   2.794   5.681   8.634
  179SLPC  H11R20456   2.804   5.621   8.727
  179SLPC  H11S20457   2.894   5.715   8.605
  179SLPC  C21220458   2.761   5.581   8.538
  179SLPC  H12R20459   2.702   5.505   8.583
  179SLPC  C21320460   2.777   5.580   8.410
  179SLPC  H13R20461   2.759   5.483   8.356
  179SLPC  C21420462   2.837   5.690   8.330
  179SLPC  H14R20463   2.888   5.760   8.391
  179SLPC  H14S20464   2.752   5.740   8.278
  179SLPC  C21520465   2.953   5.651   8.240
  179SLPC  H15R20466   2.945   5.612   8.141
  179SLPC  H15S20467   2.997   5.574   8.300
  179SLPC  C21620468   3.012   5.742   8.135
  179SLPC  H16R20469   3.044   5.810   8.209
  179SLPC  H16S20470   2.941   5.776   8.054
  179SLPC  C21720471   3.131   5.695   8.059
  179SLPC  H17R20472   3.158   5.768   7.981
  179SLPC  H17S20473   3.095   5.606   8.003
  179SLPC  C21820474   3.254   5.684   8.149
  179SLPC  H18R20475   3.264   5.780   8.192
  179SLPC  H18S20476   3.349   5.667   8.102
  179SLPC  H18T20477   3.259   5.606   8.225
  179SLPC   C3320478   3.136   5.884   9.108
  179SLPC   H3X20479   3.035   5.847   9.118
  179SLPC   H3Y20480   3.204   5.795   9.108
  179SLPC   C3420481   3.132   5.948   8.966
  179SLPC   H4X20482   3.093   6.052   8.956
  179SLPC   H4Y20483   3.109   5.879   8.883
  179SLPC   C3520484   3.264   5.970   8.931
  179SLPC   H5X20485   3.298   5.908   9.001
  179SLPC   H5Y20486   3.290   6.079   8.963
  179SLPC   C3620487   3.331   5.905   8.799
  179SLPC   H6X20488   3.297   5.825   8.754
  179SLPC   H6Y20489   3.451   5.894   8.775
  179SLPC   C3720490   3.366   5.987   8.742
  179SLPC   H7X20491   3.349   6.054   8.731
  179SLPC   H7Y20492   3.275   6.075   8.791
  179SLPC   C3820493   3.412   5.966   8.608
  179SLPC   H8X20494   3.487   6.033   8.548
  179SLPC   H8Y20495   3.418   6.084   8.576
  179SLPC   C3920496   3.277   5.843   8.541
  179SLPC   H9X20497   3.326   5.762   8.582
  179SLPC   H9Y20498   3.293   5.813   8.430
  179SLPC  C31020499   3.099   5.873   8.520
  179SLPC  H10X20500   3.057   5.874   8.621
  179SLPC  H10Y20501   3.051   5.784   8.487
  179SLPC  C31120502   3.018   6.009   8.444
  179SLPC  H11X20503   3.035   5.995   8.338
  179SLPC  H11Y20504   3.053   6.120   8.427
  179SLPC  C31220505   2.885   6.050   8.504
  179SLPC  H12X20506   2.891   6.078   8.613
  179SLPC  H12Y20507   2.832   5.956   8.497
  179SLPC  C31320508   2.819   6.163   8.423
  179SLPC  H13X20509   2.877   6.174   8.331
  179SLPC  H13Y20510   2.822   6.261   8.470
  179SLPC  C31420511   2.670   6.145   8.407
  179SLPC  H14X20512   2.615   6.241   8.392
  179SLPC  H14Y20513   2.640   6.096   8.501
  179SLPC  C31520514   2.634   6.048   8.300
  179SLPC  H15X20515   2.527   6.024   8.301
  179SLPC  H15Y20516   2.693   5.955   8.307
  179SLPC  C31620517   2.657   6.107   8.168
  179SLPC  H16X20518   2.624   6.215   8.159
  179SLPC  H16Y20519   2.585   6.061   8.098
  179SLPC  C31720520   2.798   6.063   8.118
  179SLPC  H17X20521   2.861   5.990   8.165
  179SLPC  H17Y20522   2.863   6.156   8.145
  179SLPC  C31820523   2.803   5.992   7.972
  179SLPC  H18X20524   2.710   6.036   7.908
  179SLPC  H18Y20525   2.735   5.952   7.898
  179SLPC  H18Z20526   2.902   6.036   7.930
  180SLPC     N20527   5.480   1.721   9.643
  180SLPC   C1320528   5.502   1.735   9.499
  180SLPC  H13A20529   5.425   1.674   9.449
  180SLPC  H13B20530   5.486   1.836   9.468
  180SLPC  H13C20531   5.595   1.690   9.474
  180SLPC   C1420532   5.510   1.582   9.688
  180SLPC  H14A20533   5.426   1.514   9.672
  180SLPC  H14B20534   5.597   1.539   9.642
  180SLPC  H14C20535   5.507   1.582   9.796
  180SLPC   C1520536   5.347   1.762   9.669
  180SLPC  H15A20537   5.275   1.678   9.646
  180SLPC  H15B20538   5.328   1.760   9.775
  180SLPC  H15C20539   5.289   1.835   9.617
  180SLPC   C1220540   5.547   1.813   9.733
  180SLPC  H12A20541   5.510   1.791   9.833
  180SLPC  H12B20542   5.513   1.911   9.706
  180SLPC   C1120543   5.695   1.800   9.728
  180SLPC  H11A20544   5.737   1.889   9.778
  180SLPC  H11B20545   5.726   1.800   9.621
  180SLPC     P20546   5.875   1.623   9.770
  180SLPC   O1320547   5.980   1.721   9.749
  180SLPC   O1420548   5.890   1.497   9.848
  180SLPC   O1220549   5.733   1.683   9.800
  180SLPC   O1120550   5.833   1.595   9.625
  180SLPC    C120551   5.832   1.463   9.606
  180SLPC    HA20552   5.943   1.427   9.617
  180SLPC    HB20553   5.764   1.405   9.672
  180SLPC    C220554   5.790   1.432   9.470
  180SLPC    HS20555   5.864   1.358   9.439
  180SLPC   O2120556   5.851   1.535   9.401
  180SLPC   C2120557   5.984   1.514   9.375
  180SLPC   O2220558   6.057   1.415   9.386
  180SLPC   C2220559   5.971   1.608   9.264
  180SLPC   H2R20560   6.058   1.562   9.269
  180SLPC   H2S20561   5.983   1.599   9.154
  180SLPC    C320562   5.608   1.392   9.422
  180SLPC    HX20563   5.565   1.449   9.500
  180SLPC    HY20564   5.549   1.293   9.448
  180SLPC   O3120565   5.547   1.362   9.285
  180SLPC   C3120566   5.558   1.273   9.174
  180SLPC   O3220567   5.620   1.175   9.141
  180SLPC   C3220568   5.498   1.332   9.073
  180SLPC   H2X20569   5.397   1.315   9.111
  180SLPC   H2Y20570   5.537   1.267   8.991
  180SLPC   C2320571   5.970   1.739   9.326
  180SLPC   H3R20572   6.038   1.809   9.276
  180SLPC   H3S20573   6.004   1.730   9.433
  180SLPC   C2420574   5.829   1.781   9.305
  180SLPC   H4R20575   5.778   1.757   9.401
  180SLPC   H4S20576   5.783   1.718   9.225
  180SLPC   C2520577   5.827   1.926   9.266
  180SLPC   H5R20578   5.894   1.942   9.179
  180SLPC   H5S20579   5.873   1.982   9.351
  180SLPC   C2620580   5.688   1.976   9.231
  180SLPC   H6R20581   5.707   2.082   9.219
  180SLPC   H6S20582   5.625   1.967   9.322
  180SLPC   C2720583   5.619   1.908   9.110
  180SLPC   H7R20584   5.511   1.886   9.123
  180SLPC   H7S20585   5.666   1.809   9.099
  180SLPC   C2820586   5.620   1.984   8.976
  180SLPC   H8R20587   5.572   2.083   8.986
  180SLPC   H8S20588   5.556   1.925   8.906
  180SLPC   C2920589   5.761   1.999   8.929
  180SLPC   H9R20590   5.820   2.084   8.970
  180SLPC  C21020591   5.817   1.914   8.844
  180SLPC  H10R20592   5.920   1.931   8.812
  180SLPC  C21120593   5.747   1.794   8.784
  180SLPC  H11R20594   5.760   1.798   8.675
  180SLPC  H11S20595   5.638   1.794   8.794
  180SLPC  C21220596   5.787   1.665   8.846
  180SLPC  H12R20597   5.719   1.624   8.921
  180SLPC  C21320598   5.877   1.585   8.795
  180SLPC  H13R20599   5.909   1.498   8.847
  180SLPC  C21420600   5.951   1.605   8.673
  180SLPC  H14R20601   6.030   1.532   8.680
  180SLPC  H14S20602   5.982   1.709   8.659
  180SLPC  C21520603   5.902   1.551   8.546
  180SLPC  H15R20604   5.811   1.595   8.515
  180SLPC  H15S20605   5.877   1.454   8.559
  180SLPC  C21620606   6.001   1.551   8.439
  180SLPC  H16R20607   6.096   1.508   8.481
  180SLPC  H16S20608   6.024   1.657   8.421
  180SLPC  C21720609   5.962   1.487   8.306
  180SLPC  H17R20610   5.941   1.382   8.304
  180SLPC  H17S20611   6.048   1.477   8.245
  180SLPC  C21820612   5.864   1.557   8.220
  180SLPC  H18R20613   5.888   1.664   8.226
  180SLPC  H18S20614   5.763   1.533   8.257
  180SLPC  H18T20615   5.874   1.525   8.115
  180SLPC   C3320616   5.548   1.470   9.050
  180SLPC   H3X20617   5.622   1.464   8.966
  180SLPC   H3Y20618   5.584   1.533   9.134
  180SLPC   C3420619   5.452   1.532   8.975
  180SLPC   H4X20620   5.466   1.640   8.983
  180SLPC   H4Y20621   5.363   1.506   9.038
  180SLPC   C3520622   5.462   1.471   8.830
  180SLPC   H5X20623   5.426   1.362   8.831
  180SLPC   H5Y20624   5.547   1.503   8.768
  180SLPC   C3620625   5.396   1.518   8.707
  180SLPC   H6X20626   5.305   1.445   8.750
  180SLPC   H6Y20627   5.368   1.446   8.635
  180SLPC   C3720628   5.378   1.697   8.656
  180SLPC   H7X20629   5.462   1.694   8.596
  180SLPC   H7Y20630   5.380   1.780   8.735
  180SLPC   C3820631   5.247   1.781   8.585
  180SLPC   H8X20632   5.158   1.807   8.651
  180SLPC   H8Y20633   5.194   1.719   8.505
  180SLPC   C3920634   5.263   1.896   8.506
  180SLPC   H9X20635   5.354   1.936   8.552
  180SLPC   H9Y20636   5.171   1.959   8.515
  180SLPC  C31020637   5.275   1.829   8.375
  180SLPC  H10X20638   5.181   1.803   8.317
  180SLPC  H10Y20639   5.349   1.745   8.372
  180SLPC  C31120640   5.337   1.916   8.308
  180SLPC  H11X20641   5.435   1.947   8.354
  180SLPC  H11Y20642   5.255   1.996   8.317
  180SLPC  C31220643   5.334   1.834   8.180
  180SLPC  H12X20644   5.354   1.923   8.170
  180SLPC  H12Y20645   5.250   1.861   8.115
  180SLPC  C31320646   5.464   1.771   8.126
  180SLPC  H13X20647   5.421   1.687   8.172
  180SLPC  H13Y20648   5.565   1.796   8.167
  180SLPC  C31420649   5.489   1.762   7.979
  180SLPC  H14X20650   5.550   1.842   7.936
  180SLPC  H14Y20651   5.392   1.761   7.926
  180SLPC  C31520652   5.573   1.645   7.954
  180SLPC  H15X20653   5.641   1.635   8.042
  180SLPC  H15Y20654   5.632   1.642   7.859
  180SLPC  C31620655   5.488   1.528   7.969
  180SLPC  H16X20656   5.444   1.512   7.866
  180SLPC  H16Y20657   5.390   1.524   8.017
  180SLPC  C31720658   5.585   1.431   8.049
  180SLPC  H17X20659   5.521   1.340   8.077
  180SLPC  H17Y20660   5.597   1.425   8.154
  180SLPC  C31820661   5.728   1.410   7.978
  180SLPC  H18X20662   5.779   1.323   7.996
  180SLPC  H18Y20663   5.776   1.492   7.927
  180SLPC  H18Z20664   5.743   1.346   7.889
  181SLPC     N20665   6.331   5.464   9.914
  181SLPC   C1320666   6.186   5.469   9.880
  181SLPC  H13A20667   6.171   5.466   9.773
  181SLPC  H13B20668   6.132   5.384   9.921
  181SLPC  H13C20669   6.140   5.558   9.922
  181SLPC   C1420670   6.352   5.450  10.060
  181SLPC  H14A20671   6.284   5.515  10.113
  181SLPC  H14B20672   6.340   5.345  10.089
  181SLPC  H14C20673   6.454   5.473  10.090
  181SLPC   C1520674   6.399   5.589   9.865
  181SLPC  H15A20675   6.385   5.596   9.756
  181SLPC  H15B20676   6.364   5.678   9.914
  181SLPC  H15C20677   6.507   5.581   9.878
  181SLPC   C1220678   6.402   5.345   9.850
  181SLPC  H12A20679   6.370   5.252   9.897
  181SLPC  H12B20680   6.507   5.361   9.873
  181SLPC   C1120681   6.402   5.324   9.698
  181SLPC  H11A20682   6.303   5.301   9.655
  181SLPC  H11B20683   6.465   5.233   9.677
  181SLPC     P20684   6.487   5.433   9.483
  181SLPC   O1320685   6.588   5.537   9.454
  181SLPC   O1420686   6.514   5.293   9.446
  181SLPC   O1220687   6.454   5.441   9.637
  181SLPC   O1120688   6.353   5.472   9.417
  181SLPC    C120689   6.260   5.560   9.475
  181SLPC    HA20690   6.289   5.606   9.572
  181SLPC    HB20691   6.241   5.639   9.401
  181SLPC    C220692   6.129   5.491   9.488
  181SLPC    HS20693   6.145   5.412   9.569
  181SLPC   O2120694   6.109   5.441   9.350
  181SLPC   C2120695   6.020   5.355   9.367
  181SLPC   O2220696   5.980   5.333   9.482
  181SLPC   C2220697   5.985   5.284   9.227
  181SLPC   H2R20698   6.073   5.295   9.164
  181SLPC   H2S20699   5.977   5.178   9.247
  181SLPC    C320700   6.018   5.590   9.535
  181SLPC    HX20701   6.043   5.621   9.637
  181SLPC    HY20702   5.920   5.544   9.553
  181SLPC   O3120703   6.019   5.701   9.447
  181SLPC   C3120704   5.921   5.750   9.381
  181SLPC   O3220705   5.802   5.743   9.397
  181SLPC   C3220706   5.980   5.859   9.304
  181SLPC   H2X20707   6.059   5.914   9.349
  181SLPC   H2Y20708   5.911   5.931   9.333
  181SLPC   C2320709   5.856   5.318   9.141
  181SLPC   H3R20710   5.764   5.301   9.201
  181SLPC   H3S20711   5.825   5.245   9.065
  181SLPC   C2420712   5.873   5.460   9.081
  181SLPC   H4R20713   5.916   5.517   9.168
  181SLPC   H4S20714   5.788   5.523   9.044
  181SLPC   C2520715   5.964   5.491   8.975
  181SLPC   H5R20716   6.051   5.435   9.010
  181SLPC   H5S20717   5.978   5.601   8.989
  181SLPC   C2620718   5.913   5.454   8.837
  181SLPC   H6R20719   5.875   5.350   8.836
  181SLPC   H6S20720   6.006   5.460   8.782
  181SLPC   C2720721   5.815   5.548   8.765
  181SLPC   H7R20722   5.729   5.568   8.831
  181SLPC   H7S20723   5.770   5.497   8.678
  181SLPC   C2820724   5.883   5.679   8.722
  181SLPC   H8R20725   5.927   5.725   8.813
  181SLPC   H8S20726   5.811   5.749   8.677
  181SLPC   C2920727   5.995   5.659   8.628
  181SLPC   H9R20728   6.091   5.638   8.676
  181SLPC  C21020729   5.986   5.638   8.499
  181SLPC  H10R20730   6.080   5.628   8.452
  181SLPC  C21120731   5.868   5.627   8.410
  181SLPC  H11R20732   5.778   5.666   8.459
  181SLPC  H11S20733   5.854   5.519   8.387
  181SLPC  C21220734   5.893   5.701   8.285
  181SLPC  H12R20735   5.923   5.806   8.278
  181SLPC  C21320736   5.829   5.656   8.185
  181SLPC  H13R20737   5.843   5.708   8.088
  181SLPC  C21420738   5.734   5.538   8.188
  181SLPC  H14R20739   5.623   5.546   8.195
  181SLPC  H14S20740   5.758   5.440   8.232
  181SLPC  C21520741   5.748   5.547   8.042
  181SLPC  H15R20742   5.714   5.615   7.967
  181SLPC  H15S20743   5.643   5.489   8.034
  181SLPC  C21620744   5.899   5.516   7.978
  181SLPC  H16R20745   5.868   5.460   8.059
  181SLPC  H16S20746   5.981   5.570   8.020
  181SLPC  C21720747   5.952   5.435   7.835
  181SLPC  H17R20748   5.898   5.352   7.779
  181SLPC  H17S20749   5.998   5.349   7.853
  181SLPC  C21820750   5.956   5.498   7.712
  181SLPC  H18R20751   6.055   5.537   7.717
  181SLPC  H18S20752   5.873   5.561   7.701
  181SLPC  H18T20753   5.932   5.430   7.627
  181SLPC   C3320754   5.984   5.839   9.158
  181SLPC   H3X20755   5.882   5.822   9.118
  181SLPC   H3Y20756   6.039   5.747   9.148
  181SLPC   C3420757   6.062   5.947   9.090
  181SLPC   H4X20758   6.047   6.053   9.127
  181SLPC   H4Y20759   6.041   5.940   8.979
  181SLPC   C3520760   6.197   5.940   9.097
  181SLPC   H5X20761   6.228   5.921   9.201
  181SLPC   H5Y20762   6.231   6.033   9.052
  181SLPC   C3620763   6.246   5.860   8.997
  181SLPC   H6X20764   6.241   5.926   8.906
  181SLPC   H6Y20765   6.187   5.771   8.983
  181SLPC   C3720766   6.372   5.828   9.063
  181SLPC   H7X20767   6.423   5.919   9.108
  181SLPC   H7Y20768   6.413   5.779   8.975
  181SLPC   C3820769   6.409   5.699   9.126
  181SLPC   H8X20770   6.319   5.696   9.185
  181SLPC   H8Y20771   6.501   5.715   9.186
  181SLPC   C3920772   6.427   5.572   9.036
  181SLPC   H9X20773   6.415   5.487   9.105
  181SLPC   H9Y20774   6.533   5.571   9.001
  181SLPC  C31020775   6.332   5.558   8.915
  181SLPC  H10X20776   6.350   5.645   8.851
  181SLPC  H10Y20777   6.227   5.566   8.948
  181SLPC  C31120778   6.358   5.435   8.826
  181SLPC  H11X20779   6.334   5.345   8.887
  181SLPC  H11Y20780   6.468   5.436   8.809
  181SLPC  C31220781   6.276   5.434   8.695
  181SLPC  H12X20782   6.302   5.513   8.621
  181SLPC  H12Y20783   6.170   5.421   8.714
  181SLPC  C31320784   6.280   5.312   8.613
  181SLPC  H13X20785   6.293   5.232   8.692
  181SLPC  H13Y20786   6.361   5.335   8.538
  181SLPC  C31420787   6.167   5.270   8.524
  181SLPC  H14X20788   6.131   5.362   8.478
  181SLPC  H14Y20789   6.098   5.204   8.580
  181SLPC  C31520790   6.200   5.194   8.401
  181SLPC  H15X20791   6.230   5.114   8.432
  181SLPC  H15Y20792   6.295   5.215   8.347
  181SLPC  C31620793   6.080   5.115   8.344
  181SLPC  H16X20794   6.029   5.040   8.396
  181SLPC  H16Y20795   6.107   5.048   8.258
  181SLPC  C31720796   6.028   5.139   8.236
  181SLPC  H17X20797   6.103   5.163   8.146
  181SLPC  H17Y20798   5.980   5.224   8.298
  181SLPC  C31820799   5.933   5.047   8.178
  181SLPC  H18X20800   5.962   5.009   8.077
  181SLPC  H18Y20801   5.847   5.109   8.154
  181SLPC  H18Z20802   5.892   4.989   8.255
  182SLPC     N20803   6.788   1.155   9.549
  182SLPC   C1320804   6.894   1.153   9.450
  182SLPC  H13A20805   6.932   1.254   9.453
  182SLPC  H13B20806   6.963   1.077   9.478
  182SLPC  H13C20807   6.853   1.128   9.353
  182SLPC   C1420808   6.721   1.029   9.574
  182SLPC  H14A20809   6.681   0.974   9.489
  182SLPC  H14B20810   6.784   0.968   9.635
  182SLPC  H14C20811   6.632   1.038   9.635
  182SLPC   C1520812   6.708   1.228   9.482
  182SLPC  H15A20813   6.615   1.235   9.537
  182SLPC  H15B20814   6.723   1.329   9.458
  182SLPC  H15C20815   6.682   1.210   9.381
  182SLPC   C1220816   6.806   1.240   9.671
  182SLPC  H12A20817   6.710   1.272   9.709
  182SLPC  H12B20818   6.858   1.331   9.646
  182SLPC   C1120819   6.871   1.169   9.782
  182SLPC  H11A20820   6.787   1.123   9.839
  182SLPC  H11B20821   6.928   1.239   9.848
  182SLPC     P20822   6.954   0.937   9.795
  182SLPC   O1320823   7.018   1.019   9.880
  182SLPC   O1420824   6.848   0.862   9.865
  182SLPC   O1220825   6.951   1.068   9.722
  182SLPC   O1120826   7.075   0.865   9.732
  182SLPC    C120827   7.047   0.764   9.653
  182SLPC    HA20828   7.015   0.675   9.713
  182SLPC    HB20829   6.967   0.808   9.598
  182SLPC    C220830   7.149   0.740   9.549
  182SLPC    HS20831   7.242   0.707   9.599
  182SLPC   O2120832   7.163   0.863   9.476
  182SLPC   C2120833   7.274   0.875   9.408
  182SLPC   O2220834   7.372   0.804   9.421
  182SLPC   C2220835   7.260   1.013   9.342
  182SLPC   H2R20836   7.200   0.992   9.254
  182SLPC   H2S20837   7.220   1.087   9.414
  182SLPC    C320838   7.107   0.622   9.460
  182SLPC    HX20839   7.111   0.534   9.521
  182SLPC    HY20840   7.173   0.623   9.371
  182SLPC   O3120841   6.972   0.597   9.437
  182SLPC   C3120842   6.935   0.545   9.314
  182SLPC   O3220843   7.027   0.534   9.232
  182SLPC   C3220844   6.749   0.595   9.285
  182SLPC   H2X20845   6.776   0.560   9.377
  182SLPC   H2Y20846   6.697   0.522   9.237
  182SLPC   C2320847   7.384   1.078   9.291
  182SLPC   H3R20848   7.430   0.994   9.239
  182SLPC   H3S20849   7.435   1.112   9.386
  182SLPC   C2420850   7.401   1.191   9.197
  182SLPC   H4R20851   7.504   1.203   9.155
  182SLPC   H4S20852   7.398   1.265   9.273
  182SLPC   C2520853   7.290   1.220   9.100
  182SLPC   H5R20854   7.306   1.327   9.072
  182SLPC   H5S20855   7.193   1.206   9.147
  182SLPC   C2620856   7.299   1.152   8.967
  182SLPC   H6R20857   7.408   1.159   8.952
  182SLPC   H6S20858   7.251   1.210   8.886
  182SLPC   C2720859   7.245   1.011   8.965
  182SLPC   H7R20860   7.287   0.952   9.048
  182SLPC   H7S20861   7.279   0.956   8.881
  182SLPC   C2820862   7.095   1.005   8.961
  182SLPC   H8R20863   7.051   1.047   8.870
  182SLPC   H8S20864   7.069   1.066   9.049
  182SLPC   C2920865   7.056   0.864   8.972
  182SLPC   H9R20866   7.034   0.838   9.071
  182SLPC  C21020867   7.035   0.775   8.876
  182SLPC  H10R20868   7.014   0.670   8.899
  182SLPC  C21120869   7.044   0.799   8.732
  182SLPC  H11R20870   7.092   0.895   8.712
  182SLPC  H11S20871   6.946   0.792   8.681
  182SLPC  C21220872   7.141   0.704   8.683
  182SLPC  H12R20873   7.216   0.659   8.748
  182SLPC  C21320874   7.144   0.665   8.562
  182SLPC  H13R20875   7.218   0.604   8.543
  182SLPC  C21420876   7.077   0.685   8.442
  182SLPC  H14R20877   6.987   0.742   8.472
  182SLPC  H14S20878   7.060   0.590   8.381
  182SLPC  C21520879   7.140   0.775   8.351
  182SLPC  H15R20880   7.177   0.865   8.406
  182SLPC  H15S20881   7.055   0.801   8.281
  182SLPC  C21620882   7.245   0.729   8.246
  182SLPC  H16R20883   7.192   0.640   8.211
  182SLPC  H16S20884   7.316   0.698   8.325
  182SLPC  C21720885   7.317   0.807   8.099
  182SLPC  H17R20886   7.218   0.788   8.081
  182SLPC  H17S20887   7.382   0.740   8.048
  182SLPC  C21820888   7.378   0.972   8.057
  182SLPC  H18R20889   7.396   1.031   8.149
  182SLPC  H18S20890   7.338   1.062   8.107
  182SLPC  H18T20891   7.483   0.984   8.041
  182SLPC   C3320892   6.665   0.780   9.236
  182SLPC   H3X20893   6.714   0.839   9.148
  182SLPC   H3Y20894   6.693   0.884   9.281
  182SLPC   C3420895   6.529   0.783   9.239
  182SLPC   H4X20896   6.482   0.774   9.336
  182SLPC   H4Y20897   6.487   0.709   9.177
  182SLPC   C3520898   6.497   0.907   9.197
  182SLPC   H5X20899   6.566   0.988   9.220
  182SLPC   H5Y20900   6.401   0.910   9.255
  182SLPC   C3620901   6.470   0.907   9.056
  182SLPC   H6X20902   6.400   0.982   9.085
  182SLPC   H6Y20903   6.394   0.846   9.015
  182SLPC   C3720904   6.583   0.939   8.954
  182SLPC   H7X20905   6.621   0.841   8.962
  182SLPC   H7Y20906   6.664   1.007   8.987
  182SLPC   C3820907   6.553   0.966   8.804
  182SLPC   H8X20908   6.494   1.054   8.779
  182SLPC   H8Y20909   6.486   0.893   8.757
  182SLPC   C3920910   6.681   1.000   8.730
  182SLPC   H9X20911   6.749   0.920   8.763
  182SLPC   H9Y20912   6.718   1.098   8.771
  182SLPC  C31020913   6.666   0.998   8.577
  182SLPC  H10X20914   6.592   1.064   8.529
  182SLPC  H10Y20915   6.622   0.904   8.546
  182SLPC  C31120916   6.784   1.047   8.496
  182SLPC  H11X20917   6.860   0.966   8.486
  182SLPC  H11Y20918   6.830   1.131   8.552
  182SLPC  C31220919   6.730   1.098   8.359
  182SLPC  H12X20920   6.668   1.188   8.376
  182SLPC  H12Y20921   6.665   1.020   8.314
  182SLPC  C31320922   6.837   1.135   8.259
  182SLPC  H13X20923   6.886   1.039   8.236
  182SLPC  H13Y20924   6.907   1.204   8.311
  182SLPC  C31420925   6.795   1.204   8.128
  182SLPC  H14X20926   6.744   1.299   8.150
  182SLPC  H14Y20927   6.735   1.136   8.063
  182SLPC  C31520928   6.920   1.249   8.056
  182SLPC  H15X20929   7.007   1.237   8.125
  182SLPC  H15Y20930   6.925   1.350   8.019
  182SLPC  C31620931   6.946   1.174   7.934
  182SLPC  H16X20932   6.881   1.171   7.847
  182SLPC  H16Y20933   6.918   1.071   7.965
  182SLPC  C31720934   7.090   1.209   7.894
  182SLPC  H17X20935   7.154   1.123   7.870
  182SLPC  H17Y20936   7.179   1.221   7.953
  182SLPC  C31820937   7.106   1.310   7.795
  182SLPC  H18X20938   7.077   1.403   7.830
  182SLPC  H18Y20939   7.047   1.308   7.709
  182SLPC  H18Z20940   7.210   1.287   7.763
  183SLPC     N20941   0.074   1.071   9.738
  183SLPC   C1320942   0.145   1.072   9.859
  183SLPC  H13A20943   0.142   0.968   9.890
  183SLPC  H13B20944   0.256   1.088   9.846
  183SLPC  H13C20945   0.118   1.125   9.948
  183SLPC   C1420946  -0.058   1.074   9.774
  183SLPC  H14A20947  -0.129   1.096   9.697
  183SLPC  H14B20948  -0.072   0.966   9.786
  183SLPC  H14C20949  -0.073   1.120   9.870
  183SLPC   C1520950   0.072   0.949   9.653
  183SLPC  H15A20951   0.135   0.990   9.567
  183SLPC  H15B20952   0.151   0.876   9.671
  183SLPC  H15C20953   0.011   0.935   9.571
  183SLPC   C1220954   0.127   1.192   9.679
  183SLPC  H12A20955   0.105   1.262   9.760
  183SLPC  H12B20956   0.065   1.222   9.596
  183SLPC   C1120957   0.282   1.246   9.669
  183SLPC  H11A20958   0.309   1.326   9.600
  183SLPC  H11B20959   0.302   1.202   9.585
  183SLPC     P20960   0.540   1.231   9.692
  183SLPC   O1320961   0.545   1.374   9.654
  183SLPC   O1420962   0.627   1.168   9.792
  183SLPC   O1220963   0.389   1.199   9.744
  183SLPC   O1120964   0.560   1.152   9.562
  183SLPC    C120965   0.672   1.159   9.480
  183SLPC    HA20966   0.729   1.248   9.511
  183SLPC    HB20967   0.723   1.063   9.490
  183SLPC    C220968   0.658   1.174   9.329
  183SLPC    HS20969   0.750   1.175   9.268
  183SLPC   O2120970   0.571   1.280   9.309
  183SLPC   C2120971   0.635   1.390   9.314
  183SLPC   O2220972   0.753   1.410   9.313
  183SLPC   C2220973   0.545   1.491   9.288
  183SLPC   H2R20974   0.458   1.439   9.243
  183SLPC   H2S20975   0.514   1.555   9.370
  183SLPC    C320976   0.598   1.058   9.272
  183SLPC    HX20977   0.510   1.081   9.328
  183SLPC    HY20978   0.626   0.961   9.321
  183SLPC   O3120979   0.569   1.074   9.128
  183SLPC   C3120980   0.556   0.951   9.080
  183SLPC   O3220981   0.581   0.853   9.149
  183SLPC   C3220982   0.529   0.933   8.932
  183SLPC   H2X20983   0.506   1.018   8.863
  183SLPC   H2Y20984   0.464   0.849   8.901
  183SLPC   C2320985   0.611   1.569   9.183
  183SLPC   H3R20986   0.719   1.582   9.177
  183SLPC   H3S20987   0.554   1.666   9.189
  183SLPC   C2420988   0.569   1.509   9.057
  183SLPC   H4R20989   0.605   1.583   9.000
  183SLPC   H4S20990   0.464   1.503   9.052
  183SLPC   C2520991   0.614   1.397   8.973
  183SLPC   H5R20992   0.557   1.323   9.032
  183SLPC   H5S20993   0.722   1.401   8.981
  183SLPC   C2620994   0.578   1.378   8.822
  183SLPC   H6R20995   0.472   1.354   8.803
  183SLPC   H6S20996   0.642   1.290   8.799
  183SLPC   C2720997   0.621   1.468   8.705
  183SLPC   H7R20998   0.730   1.462   8.698
  183SLPC   H7S20999   0.591   1.572   8.712
  183SLPC   C2821000   0.552   1.445   8.570
  183SLPC   H8R21001   0.569   1.535   8.505
  183SLPC   H8S21002   0.443   1.436   8.588
  183SLPC   C2921003   0.608   1.316   8.522
  183SLPC   H9R21004   0.590   1.233   8.591
  183SLPC  C21021005   0.669   1.294   8.405
  183SLPC  H10R21006   0.705   1.197   8.375
  183SLPC  C21121007   0.692   1.391   8.299
  183SLPC  H11R21008   0.747   1.467   8.339
  183SLPC  H11S21009   0.604   1.449   8.270
  183SLPC  C21221010   0.777   1.354   8.184
  183SLPC  H12R21011   0.874   1.389   8.198
  183SLPC  C21321012   0.743   1.304   8.068
  183SLPC  H13R21013   0.815   1.290   7.987
  183SLPC  C21421014   0.600   1.277   8.046
  183SLPC  H14R21015   0.543   1.285   8.141
  183SLPC  H14S21016   0.597   1.170   8.017
  183SLPC  C21521017   0.521   1.370   7.954
  183SLPC  H15R21018   0.538   1.477   7.974
  183SLPC  H15S21019   0.415   1.342   7.964
  183SLPC  C21621020   0.552   1.337   7.813
  183SLPC  H16R21021   0.519   1.231   7.809
  183SLPC  H16S21022   0.663   1.355   7.809
  183SLPC  C21721023   0.489   1.404   7.691
  183SLPC  H17R21024   0.380   1.383   7.703
  183SLPC  H17S21025   0.508   1.368   7.592
  183SLPC  C21821026   0.551   1.543   7.680
  183SLPC  H18R21027   0.654   1.568   7.670
  183SLPC  H18S21028   0.542   1.561   7.783
  183SLPC  H18T21029   0.499   1.631   7.646
  183SLPC   C3321030   0.668   0.878   8.936
  183SLPC   H3X21031   0.683   0.778   8.986
  183SLPC   H3Y21032   0.743   0.955   8.972
  183SLPC   C3421033   0.712   0.828   8.813
  183SLPC   H4X21034   0.665   0.744   8.763
  183SLPC   H4Y21035   0.820   0.808   8.834
  183SLPC   C3521036   0.698   0.923   8.716
  183SLPC   H5X21037   0.694   1.028   8.770
  183SLPC   H5Y21038   0.609   0.955   8.661
  183SLPC   C3621039   0.823   0.840   8.638
  183SLPC   H6X21040   0.927   0.855   8.599
  183SLPC   H6Y21041   0.918   0.892   8.585
  183SLPC   C3721042   0.777   0.727   8.571
  183SLPC   H7X21043   0.873   0.673   8.588
  183SLPC   H7Y21044   0.800   0.781   8.495
  183SLPC   C3821045   0.683   0.735   8.439
  183SLPC   H8X21046   0.600   0.775   8.495
  183SLPC   H8Y21047   0.698   0.629   8.422
  183SLPC   C3921048   0.678   0.807   8.293
  183SLPC   H9X21049   0.766   0.792   8.227
  183SLPC   H9Y21050   0.665   0.920   8.292
  183SLPC  C31021051   0.562   0.775   8.207
  183SLPC  H10X21052   0.520   0.689   8.265
  183SLPC  H10Y21053   0.596   0.753   8.106
  183SLPC  C31121054   0.467   0.887   8.211
  183SLPC  H11X21055   0.375   0.860   8.157
  183SLPC  H11Y21056   0.498   0.991   8.185
  183SLPC  C31221057   0.457   0.894   8.354
  183SLPC  H12X21058   0.529   0.957   8.410
  183SLPC  H12Y21059   0.435   0.796   8.411
  183SLPC  C31321060   0.375   0.993   8.377
  183SLPC  H13X21061   0.393   0.986   8.498
  183SLPC  H13Y21062   0.314   0.905   8.365
  183SLPC  C31421063   0.314   1.137   8.307
  183SLPC  H14X21064   0.307   1.124   8.197
  183SLPC  H14Y21065   0.385   1.206   8.349
  183SLPC  C31521066   0.181   1.237   8.352
  183SLPC  H15X21067   0.152   1.253   8.457
  183SLPC  H15Y21068   0.072   1.207   8.326
  183SLPC  C31621069   0.184   1.373   8.306
  183SLPC  H16X21070   0.085   1.415   8.334
  183SLPC  H16Y21071   0.213   1.365   8.198
  183SLPC  C31721072   0.297   1.457   8.302
  183SLPC  H17X21073   0.378   1.384   8.276
  183SLPC  H17Y21074   0.290   1.491   8.405
  183SLPC  C31821075   0.285   1.566   8.195
  183SLPC  H18X21076   0.277   1.526   8.093
  183SLPC  H18Y21077   0.378   1.623   8.203
  183SLPC  H18Z21078   0.194   1.628   8.209
  184SLPC     N21079   0.544   7.271   9.911
  184SLPC   C1321080   0.643   7.159   9.921
  184SLPC  H13A21081   0.606   7.074   9.864
  184SLPC  H13B21082   0.735   7.188   9.871
  184SLPC  H13C21083   0.667   7.125  10.022
  184SLPC   C1421084   0.588   7.385   9.997
  184SLPC  H14A21085   0.574   7.365  10.102
  184SLPC  H14B21086   0.695   7.402   9.980
  184SLPC  H14C21087   0.536   7.476   9.971
  184SLPC   C1521088   0.404   7.228   9.948
  184SLPC  H15A21089   0.337   7.312   9.947
  184SLPC  H15B21090   0.368   7.155   9.876
  184SLPC  H15C21091   0.398   7.183  10.047
  184SLPC   C1221092   0.546   7.331   9.771
  184SLPC  H12A21093   0.651   7.359   9.755
  184SLPC  H12B21094   0.491   7.424   9.781
  184SLPC   C1121095   0.493   7.256   9.645
  184SLPC  H11A21096   0.525   7.304   9.551
  184SLPC  H11B21097   0.382   7.254   9.646
  184SLPC     P21098   0.504   7.048   9.498
  184SLPC   O1321099   0.493   7.141   9.384
  184SLPC   O1421100   0.601   6.937   9.491
  184SLPC   O1221101   0.542   7.126   9.633
  184SLPC   O1121102   0.360   6.993   9.523
  184SLPC    C121103   0.338   6.910   9.635
  184SLPC    HA21104   0.391   6.813   9.624
  184SLPC    HB21105   0.380   6.959   9.725
  184SLPC    C221106   0.186   6.883   9.648
  184SLPC    HS21107   0.174   6.788   9.705
  184SLPC   O2121108   0.113   6.861   9.526
  184SLPC   C2121109   0.157   6.776   9.438
  184SLPC   O2221110   0.240   6.688   9.453
  184SLPC   C2221111   0.069   6.799   9.316
  184SLPC   H2R21112   0.040   6.699   9.291
  184SLPC   H2S21113  -0.028   6.844   9.340
  184SLPC    C321114   0.114   7.001   9.721
  184SLPC    HX21115   0.146   7.017   9.826
  184SLPC    HY21116   0.012   6.962   9.721
  184SLPC   O3121117   0.121   7.126   9.650
  184SLPC   C3121118   0.034   7.222   9.679
  184SLPC   O3221119  -0.055   7.210   9.761
  184SLPC   C3221120   0.062   7.348   9.598
  184SLPC   H2X21121   0.120   7.415   9.660
  184SLPC   H2Y21122  -0.028   7.411   9.581
  184SLPC   C2321123   0.139   6.875   9.199
  184SLPC   H3R21124   0.232   6.818   9.177
  184SLPC   H3S21125   0.173   6.971   9.239
  184SLPC   C2421126   0.048   6.899   9.073
  184SLPC   H4R21127  -0.056   6.883   9.104
  184SLPC   H4S21128   0.037   6.831   8.990
  184SLPC   C2521129   0.081   7.012   8.984
  184SLPC   H5R21130   0.125   7.084   9.053
  184SLPC   H5S21131  -0.021   7.031   8.943
  184SLPC   C2621132   0.123   7.019   8.842
  184SLPC   H6R21133   0.227   6.987   8.851
  184SLPC   H6S21134   0.117   7.125   8.813
  184SLPC   C2721135   0.036   6.934   8.747
  184SLPC   H7R21136   0.019   6.828   8.778
  184SLPC   H7S21137   0.078   6.945   8.648
  184SLPC   C2821138  -0.100   6.978   8.728
  184SLPC   H8R21139  -0.098   7.085   8.696
  184SLPC   H8S21140  -0.140   6.949   8.825
  184SLPC   C2921141  -0.180   6.893   8.650
  184SLPC   H9R21142  -0.209   6.792   8.680
  184SLPC  C21021143  -0.224   6.934   8.543
  184SLPC  H10R21144  -0.252   6.847   8.499
  184SLPC  C21121145  -0.217   7.056   8.466
  184SLPC  H11R21146  -0.225   7.136   8.534
  184SLPC  H11S21147  -0.310   7.063   8.405
  184SLPC  C21221148  -0.090   7.082   8.399
  184SLPC  H12R21149  -0.038   7.171   8.430
  184SLPC  C21321150  -0.047   7.027   8.294
  184SLPC  H13R21151   0.049   7.040   8.268
  184SLPC  C21421152  -0.095   6.931   8.204
  184SLPC  H14R21153  -0.122   6.997   8.112
  184SLPC  H14S21154  -0.160   6.862   8.260
  184SLPC  C21521155  -0.030   6.829   8.149
  184SLPC  H15R21156   0.045   6.825   8.237
  184SLPC  H15S21157   0.016   6.902   8.087
  184SLPC  C21621158  -0.065   6.679   8.051
  184SLPC  H16R21159  -0.112   6.688   7.962
  184SLPC  H16S21160  -0.146   6.625   8.084
  184SLPC  C21721161   0.047   6.567   7.983
  184SLPC  H17R21162   0.129   6.597   7.910
  184SLPC  H17S21163   0.008   6.551   7.895
  184SLPC  C21821164   0.140   6.459   8.059
  184SLPC  H18R21165   0.208   6.484   8.135
  184SLPC  H18S21166   0.231   6.436   8.008
  184SLPC  H18T21167   0.076   6.412   8.133
  184SLPC   C3321168   0.132   7.310   9.466
  184SLPC   H3X21169   0.068   7.255   9.394
  184SLPC   H3Y21170   0.207   7.231   9.474
  184SLPC   C3421171   0.182   7.425   9.390
  184SLPC   H4X21172   0.281   7.457   9.429
  184SLPC   H4Y21173   0.120   7.516   9.385
  184SLPC   C3521174   0.184   7.369   9.249
  184SLPC   H5X21175   0.105   7.389   9.176
  184SLPC   H5Y21176   0.229   7.265   9.226
  184SLPC   C3621177   0.238   7.463   9.178
  184SLPC   H6X21178   0.322   7.404   9.251
  184SLPC   H6Y21179   0.252   7.571   9.207
  184SLPC   C3721180   0.251   7.435   9.019
  184SLPC   H7X21181   0.329   7.496   8.962
  184SLPC   H7Y21182   0.228   7.517   8.948
  184SLPC   C3821183   0.301   7.285   8.999
  184SLPC   H8X21184   0.273   7.278   8.893
  184SLPC   H8Y21185   0.220   7.232   9.024
  184SLPC   C3921186   0.436   7.197   9.062
  184SLPC   H9X21187   0.420   7.161   9.161
  184SLPC   H9Y21188   0.512   7.274   9.055
  184SLPC  C31021189   0.533   7.083   8.991
  184SLPC  H10X21190   0.630   7.062   8.967
  184SLPC  H10Y21191   0.598   7.168   8.960
  184SLPC  C31121192   0.510   7.004   8.864
  184SLPC  H11X21193   0.502   7.049   8.768
  184SLPC  H11Y21194   0.414   6.987   8.904
  184SLPC  C31221195   0.609   6.924   8.793
  184SLPC  H12X21196   0.622   6.858   8.872
  184SLPC  H12Y21197   0.698   6.959   8.735
  184SLPC  C31321198   0.555   6.846   8.696
  184SLPC  H13X21199   0.538   6.756   8.758
  184SLPC  H13Y21200   0.637   6.795   8.647
  184SLPC  C31421201   0.438   6.917   8.619
  184SLPC  H14X21202   0.497   6.993   8.566
  184SLPC  H14Y21203   0.359   6.956   8.686
  184SLPC  C31521204   0.356   6.870   8.510
  184SLPC  H15X21205   0.264   6.911   8.474
  184SLPC  H15Y21206   0.298   6.789   8.529
  184SLPC  C31621207   0.438   6.812   8.425
  184SLPC  H16X21208   0.385   6.744   8.368
  184SLPC  H16Y21209   0.526   6.765   8.460
  184SLPC  C31721210   0.461   6.886   8.339
  184SLPC  H17X21211   0.510   6.804   8.286
  184SLPC  H17Y21212   0.524   6.965   8.374
  184SLPC  C31821213   0.355   6.925   8.263
  184SLPC  H18X21214   0.251   6.934   8.261
  184SLPC  H18Y21215   0.370   6.850   8.184
  184SLPC  H18Z21216   0.387   6.937   8.179
  185SLPC     N21217   3.701   2.530   6.159
  185SLPC   C1321218   3.827   2.597   6.175
  185SLPC  H13A21219   3.821   2.683   6.108
  185SLPC  H13B21220   3.836   2.641   6.275
  185SLPC  H13C21221   3.915   2.561   6.128
  185SLPC   C1421222   3.696   2.483   6.019
  185SLPC  H14A21223   3.675   2.559   5.944
  185SLPC  H14B21224   3.787   2.431   6.001
  185SLPC  H14C21225   3.612   2.415   6.013
  185SLPC   C1521226   3.576   2.607   6.187
  185SLPC  H15A21227   3.568   2.702   6.136
  185SLPC  H15B21228   3.490   2.545   6.169
  185SLPC  H15C21229   3.570   2.635   6.294
  185SLPC   C1221230   3.716   2.424   6.264
  185SLPC  H12A21231   3.707   2.467   6.364
  185SLPC  H12B21232   3.817   2.386   6.258
  185SLPC   C1121233   3.619   2.310   6.252
  185SLPC  H11A21234   3.663   2.221   6.303
  185SLPC  H11B21235   3.602   2.286   6.147
  185SLPC     P21236   3.478   2.315   6.454
  185SLPC   O1321237   3.570   2.367   6.554
  185SLPC   O1421238   3.350   2.374   6.465
  185SLPC   O1221239   3.498   2.351   6.305
  185SLPC   O1121240   3.500   2.160   6.449
  185SLPC    C121241   3.415   2.075   6.385
  185SLPC    HA21242   3.336   2.095   6.456
  185SLPC    HB21243   3.386   2.104   6.282
  185SLPC    C221244   3.459   1.929   6.382
  185SLPC    HS21245   3.386   1.854   6.347
  185SLPC   O2121246   3.487   1.909   6.516
  185SLPC   C2121247   3.386   1.892   6.597
  185SLPC   O2221248   3.278   1.839   6.585
  185SLPC   C2221249   3.438   1.887   6.714
  185SLPC   H2R21250   3.512   1.813   6.695
  185SLPC   H2S21251   3.482   1.984   6.746
  185SLPC    C321252   3.580   1.919   6.286
  185SLPC    HX21253   3.541   1.961   6.193
  185SLPC    HY21254   3.616   1.821   6.253
  185SLPC   O3121255   3.684   2.010   6.325
  185SLPC   C3121256   3.748   1.958   6.425
  185SLPC   O3221257   3.738   1.842   6.453
  185SLPC   C3221258   3.836   2.065   6.491
  185SLPC   H2X21259   3.777   2.159   6.489
  185SLPC   H2Y21260   3.938   2.070   6.448
  185SLPC   C2321261   3.336   1.803   6.797
  185SLPC   H3R21262   3.348   1.695   6.807
  185SLPC   H3S21263   3.232   1.855   6.794
  185SLPC   C2421264   3.343   1.816   6.943
  185SLPC   H4R21265   3.298   1.748   7.010
  185SLPC   H4S21266   3.336   1.927   6.902
  185SLPC   C2521267   3.495   1.796   7.040
  185SLPC   H5R21268   3.691   2.036   6.908
  185SLPC   H5S21269   3.497   1.688   6.969
  185SLPC   C2621270   3.487   1.797   7.217
  185SLPC   H6R21271   3.405   1.727   7.274
  185SLPC   H6S21272   3.414   1.736   7.335
  185SLPC   C2721273   3.746   1.822   7.286
  185SLPC   H7R21274   3.828   1.737   7.262
  185SLPC   H7S21275   3.764   1.755   7.369
  185SLPC   C2821276   3.815   1.899   7.343
  185SLPC   H8R21277   3.856   1.975   7.234
  185SLPC   H8S21278   3.929   1.880   7.312
  185SLPC   C2921279   3.670   1.962   7.492
  185SLPC   H9R21280   3.604   2.082   7.477
  185SLPC  C21021281   3.670   1.969   7.613
  185SLPC  H10R21282   3.636   2.072   7.640
  185SLPC  C21121283   3.802   1.915   7.613
  185SLPC  H11R21284   3.844   1.843   7.536
  185SLPC  H11S21285   3.769   1.837   7.678
  185SLPC  C21221286   3.910   2.007   7.658
  185SLPC  H12R21287   3.995   2.007   7.593
  185SLPC  C21321288   3.926   2.056   7.776
  185SLPC  H13R21289   4.021   2.102   7.803
  185SLPC  C21421290   3.829   2.022   7.880
  185SLPC  H14R21291   3.879   2.011   7.977
  185SLPC  H14S21292   3.772   1.924   7.867
  185SLPC  C21521293   3.728   2.127   7.855
  185SLPC  H15R21294   3.653   2.059   7.890
  185SLPC  H15S21295   3.640   2.130   7.796
  185SLPC  C21621296   3.757   2.266   7.907
  185SLPC  H16R21297   3.811   2.308   7.820
  185SLPC  H16S21298   3.828   2.266   7.993
  185SLPC  C21721299   3.629   2.344   7.951
  185SLPC  H17R21300   3.670   2.428   8.014
  185SLPC  H17S21301   3.567   2.309   8.032
  185SLPC  C21821302   3.536   2.389   7.836
  185SLPC  H18R21303   3.600   2.430   7.755
  185SLPC  H18S21304   3.471   2.474   7.870
  185SLPC  H18T21305   3.494   2.316   7.767
  185SLPC   C3321306   3.858   2.044   6.637
  185SLPC   H3X21307   3.940   1.972   6.646
  185SLPC   H3Y21308   3.754   2.014   6.663
  185SLPC   C3421309   3.919   2.150   6.719
  185SLPC   H4X21310   4.001   2.195   6.662
  185SLPC   H4Y21311   3.967   2.105   6.811
  185SLPC   C3521312   3.823   2.264   6.751
  185SLPC   H5X21313   3.762   2.299   6.667
  185SLPC   H5Y21314   3.874   2.341   6.812
  185SLPC   C3621315   3.707   2.253   6.807
  185SLPC   H6X21316   3.827   2.206   6.884
  185SLPC   H6Y21317   3.644   2.139   6.797
  185SLPC   C3721318   3.620   2.315   6.917
  185SLPC   H7X21319   3.530   2.324   6.855
  185SLPC   H7Y21320   3.678   2.392   6.957
  185SLPC   C3821321   3.539   2.297   7.046
  185SLPC   H8X21322   3.625   2.300   7.122
  185SLPC   H8Y21323   3.477   2.212   7.014
  185SLPC   C3921324   3.440   2.352   7.124
  185SLPC   H9X21325   3.361   2.345   7.046
  185SLPC   H9Y21326   3.471   2.454   7.118
  185SLPC  C31021327   3.409   2.302   7.277
  185SLPC  H10X21328   3.332   2.380   7.297
  185SLPC  H10Y21329   3.490   2.323   7.345
  185SLPC  C31121330   3.356   2.149   7.317
  185SLPC  H11X21331   3.386   2.107   7.234
  185SLPC  H11Y21332   3.287   2.085   7.255
  185SLPC  C31221333   3.314   2.082   7.447
  185SLPC  H12X21334   3.257   2.135   7.515
  185SLPC  H12Y21335   3.383   2.113   7.522
  185SLPC  C31321336   3.206   1.970   7.451
  185SLPC  H13X21337   3.138   1.952   7.366
  185SLPC  H13Y21338   3.128   1.975   7.528
  185SLPC  C31421339   3.281   1.857   7.502
  185SLPC  H14X21340   3.360   1.853   7.432
  185SLPC  H14Y21341   3.218   1.768   7.494
  185SLPC  C31521342   3.328   1.877   7.646
  185SLPC  H15X21343   3.241   1.906   7.710
  185SLPC  H15Y21344   3.401   1.960   7.653
  185SLPC  C31621345   3.391   1.749   7.701
  185SLPC  H16X21346   3.449   1.705   7.616
  185SLPC  H16Y21347   3.310   1.678   7.730
  185SLPC  C31721348   3.477   1.772   7.825
  185SLPC  H17X21349   3.567   1.833   7.799
  185SLPC  H17Y21350   3.516   1.676   7.863
  185SLPC  C31821351   3.404   1.841   7.940
  185SLPC  H18X21352   3.362   1.939   7.908
  185SLPC  H18Y21353   3.478   1.856   8.021
  185SLPC  H18Z21354   3.320   1.781   7.981
  186SLPC     N21355   3.539   5.118   6.341
  186SLPC   C1321356   3.588   5.145   6.204
  186SLPC  H13A21357   3.538   5.232   6.160
  186SLPC  H13B21358   3.695   5.156   6.206
  186SLPC  H13C21359   3.555   5.061   6.145
  186SLPC   C1421360   3.625   5.018   6.405
  186SLPC  H14A21361   3.723   5.059   6.426
  186SLPC  H14B21362   3.578   4.986   6.497
  186SLPC  H14C21363   3.636   4.935   6.339
  186SLPC   C1521364   3.401   5.061   6.326
  186SLPC  H15A21365   3.401   4.972   6.265
  186SLPC  H15B21366   3.357   5.048   6.423
  186SLPC  H15C21367   3.339   5.135   6.274
  186SLPC   C1221368   3.538   5.239   6.432
  186SLPC  H12A21369   3.641   5.268   6.447
  186SLPC  H12B21370   3.497   5.208   6.528
  186SLPC   C1121371   3.466   5.364   6.383
  186SLPC  H11A21372   3.526   5.402   6.297
  186SLPC  H11B21373   3.467   5.439   6.465
  186SLPC     P21374   3.261   5.410   6.235
  186SLPC   O1321375   3.290   5.552   6.259
  186SLPC   O1421376   3.307   5.349   6.108
  186SLPC   O1221377   3.331   5.330   6.351
  186SLPC   O1121378   3.107   5.379   6.257
  186SLPC    C121379   3.055   5.275   6.340
  186SLPC    HA21380   2.996   5.204   6.278
  186SLPC    HB21381   3.133   5.214   6.393
  186SLPC    C221382   2.967   5.335   6.451
  186SLPC    HS21383   2.886   5.391   6.396
  186SLPC   O2121384   3.049   5.423   6.528
  186SLPC   C2121385   3.009   5.480   6.639
  186SLPC   O2221386   2.906   5.458   6.700
  186SLPC   C2221387   3.115   5.586   6.677
  186SLPC   H2R21388   3.215   5.540   6.680
  186SLPC   H2S21389   3.111   5.662   6.596
  186SLPC    C321390   2.909   5.221   6.538
  186SLPC    HX21391   2.861   5.161   6.464
  186SLPC    HY21392   2.834   5.253   6.613
  186SLPC   O3121393   3.012   5.138   6.592
  186SLPC   C3121394   3.000   5.063   6.698
  186SLPC   O3221395   2.912   5.043   6.777
  186SLPC   C3221396   3.126   5.003   6.730
  186SLPC   H2X21397   3.175   4.954   6.644
  186SLPC   H2Y21398   3.093   4.931   6.806
  186SLPC   C2321399   3.095   5.666   6.807
  186SLPC   H3R21400   2.987   5.682   6.828
  186SLPC   H3S21401   3.133   5.769   6.786
  186SLPC   C2421402   3.168   5.605   6.929
  186SLPC   H4R21403   3.171   5.671   7.015
  186SLPC   H4S21404   3.276   5.587   6.913
  186SLPC   C2521405   3.108   5.475   6.980
  186SLPC   H5R21406   3.181   5.429   7.050
  186SLPC   H5S21407   3.103   5.410   6.891
  186SLPC   C2621408   2.964   5.482   7.035
  186SLPC   H6R21409   2.921   5.381   7.033
  186SLPC   H6S21410   2.903   5.551   6.972
  186SLPC   C2721411   2.946   5.529   7.179
  186SLPC   H7R21412   2.840   5.530   7.212
  186SLPC   H7S21413   2.972   5.627   7.160
  186SLPC   C2821414   3.040   5.482   7.287
  186SLPC   H8R21415   3.010   5.528   7.384
  186SLPC   H8S21416   3.141   5.524   7.268
  186SLPC   C2921417   3.034   5.332   7.287
  186SLPC   H9R21418   3.059   5.284   7.191
  186SLPC  C21021419   2.998   5.256   7.393
  186SLPC  H10R21420   2.988   5.147   7.378
  186SLPC  C21121421   2.959   5.309   7.529
  186SLPC  H11R21422   2.900   5.402   7.516
  186SLPC  H11S21423   3.050   5.335   7.587
  186SLPC  C21221424   2.872   5.216   7.610
  186SLPC  H12R21425   2.787   5.170   7.559
  186SLPC  C21321426   2.884   5.184   7.739
  186SLPC  H13R21427   2.816   5.109   7.779
  186SLPC  C21421428   2.985   5.228   7.837
  186SLPC  H14R21429   3.038   5.321   7.813
  186SLPC  H14S21430   3.060   5.153   7.841
  186SLPC  C21521431   2.931   5.251   7.972
  186SLPC  H15R21432   3.021   5.251   8.034
  186SLPC  H15S21433   2.860   5.182   8.018
  186SLPC  C21621434   2.868   5.385   7.968
  186SLPC  H16R21435   2.770   5.370   7.925
  186SLPC  H16S21436   2.938   5.460   7.920
  186SLPC  C21721437   2.803   5.435   8.094
  186SLPC  H17R21438   2.903   5.455   8.106
  186SLPC  H17S21439   2.778   5.366   8.174
  186SLPC  C21821440   2.723   5.563   8.115
  186SLPC  H18R21441   2.691   5.557   8.210
  186SLPC  H18S21442   2.634   5.572   8.063
  186SLPC  H18T21443   2.771   5.665   8.100
  186SLPC   C3321444   3.199   5.113   6.803
  186SLPC   H3X21445   3.135   5.166   6.877
  186SLPC   H3Y21446   3.232   5.193   6.733
  186SLPC   C3421447   3.320   5.058   6.875
  186SLPC   H4X21448   3.401   5.075   6.802
  186SLPC   H4Y21449   3.311   4.948   6.891
  186SLPC   C3521450   3.353   5.136   7.002
  186SLPC   H5X21451   3.276   5.118   7.079
  186SLPC   H5Y21452   3.353   5.245   6.977
  186SLPC   C3621453   3.491   5.101   7.060
  186SLPC   H6X21454   3.567   5.120   6.980
  186SLPC   H6Y21455   3.494   4.993   7.085
  186SLPC   C3721456   3.531   5.183   7.184
  186SLPC   H7X21457   3.522   5.288   7.149
  186SLPC   H7Y21458   3.638   5.167   7.209
  186SLPC   C3821459   3.445   5.162   7.311
  186SLPC   H8X21460   3.461   5.064   7.359
  186SLPC   H8Y21461   3.336   5.168   7.293
  186SLPC   C3921462   3.475   5.266   7.416
  186SLPC   H9X21463   3.582   5.279   7.446
  186SLPC   H9Y21464   3.414   5.241   7.506
  186SLPC  C31021465   3.416   5.396   7.371
  186SLPC  H10X21466   3.319   5.396   7.324
  186SLPC  H10Y21467   3.488   5.429   7.291
  186SLPC  C31121468   3.401   5.473   7.499
  186SLPC  H11X21469   3.352   5.578   7.503
  186SLPC  H11Y21470   3.513   5.473   7.513
  186SLPC  C31221471   3.295   5.479   7.598
  186SLPC  H12X21472   3.325   5.383   7.637
  186SLPC  H12Y21473   3.205   5.484   7.531
  186SLPC  C31321474   3.297   5.601   7.695
  186SLPC  H13X21475   3.271   5.700   7.647
  186SLPC  H13Y21476   3.393   5.619   7.747
  186SLPC  C31421477   3.212   5.567   7.807
  186SLPC  H14X21478   3.129   5.500   7.787
  186SLPC  H14Y21479   3.158   5.664   7.823
  186SLPC  C31521480   3.301   5.517   7.923
  186SLPC  H15X21481   3.241   5.487   8.003
  186SLPC  H15Y21482   3.369   5.602   7.942
  186SLPC  C31621483   3.401   5.411   7.934
  186SLPC  H16X21484   3.502   5.463   7.936
  186SLPC  H16Y21485   3.358   5.315   7.897
  186SLPC  C31721486   3.414   5.321   8.042
  186SLPC  H17X21487   3.330   5.273   8.095
  186SLPC  H17Y21488   3.430   5.408   8.103
  186SLPC  C31821489   3.521   5.236   7.976
  186SLPC  H18X21490   3.623   5.240   7.944
  186SLPC  H18Y21491   3.556   5.138   7.937
  186SLPC  H18Z21492   3.517   5.216   8.083
  187SLPC     N21493   3.466   1.406   6.131
  187SLPC   C1321494   3.357   1.308   6.155
  187SLPC  H13A21495   3.313   1.330   6.252
  187SLPC  H13B21496   3.283   1.315   6.077
  187SLPC  H13C21497   3.392   1.206   6.155
  187SLPC   C1421498   3.503   1.406   5.988
  187SLPC  H14A21499   3.561   1.316   5.968
  187SLPC  H14B21500   3.412   1.413   5.931
  187SLPC  H14C21501   3.568   1.491   5.964
  187SLPC   C1521502   3.590   1.374   6.211
  187SLPC  H15A21503   3.567   1.366   6.318
  187SLPC  H15B21504   3.644   1.287   6.177
  187SLPC  H15C21505   3.660   1.458   6.206
  187SLPC   C1221506   3.415   1.546   6.161
  187SLPC  H12A21507   3.343   1.579   6.087
  187SLPC  H12B21508   3.499   1.615   6.157
  187SLPC   C1121509   3.342   1.570   6.293
  187SLPC  H11A21510   3.239   1.533   6.296
  187SLPC  H11B21511   3.336   1.679   6.300
  187SLPC     P21512   3.526   1.589   6.464
  187SLPC   O1321513   3.617   1.637   6.359
  187SLPC   O1421514   3.471   1.665   6.567
  187SLPC   O1221515   3.410   1.513   6.401
  187SLPC   O1121516   3.588   1.487   6.549
  187SLPC    C121517   3.723   1.481   6.548
  187SLPC    HA21518   3.775   1.502   6.449
  187SLPC    HB21519   3.762   1.538   6.631
  187SLPC    C221520   3.751   1.354   6.608
  187SLPC    HS21521   3.706   1.273   6.543
  187SLPC   O2121522   3.725   1.348   6.747
  187SLPC   C2121523   3.684   1.238   6.797
  187SLPC   O2221524   3.640   1.141   6.740
  187SLPC   C2221525   3.690   1.250   6.947
  187SLPC   H2R21526   3.794   1.249   6.981
  187SLPC   H2S21527   3.640   1.341   6.980
  187SLPC    C321528   3.891   1.355   6.588
  187SLPC    HX21529   3.911   1.365   6.480
  187SLPC    HY21530   3.906   1.261   6.624
  187SLPC   O3121531   3.967   1.436   6.675
  187SLPC   C3121532   4.036   1.378   6.772
  187SLPC   O3221533   4.050   1.259   6.795
  187SLPC   C3221534   4.089   1.487   6.860
  187SLPC   H2X21535   4.013   1.566   6.845
  187SLPC   H2Y21536   4.188   1.525   6.826
  187SLPC   C2321537   3.613   1.138   7.005
  187SLPC   H3R21538   3.549   1.084   6.932
  187SLPC   H3S21539   3.567   1.151   7.104
  187SLPC   C2421540   3.707   1.041   7.044
  187SLPC   H4R21541   3.718   0.979   6.959
  187SLPC   H4S21542   3.648   0.956   7.079
  187SLPC   C2521543   3.829   1.081   7.134
  187SLPC   H5R21544   3.916   1.142   7.112
  187SLPC   H5S21545   3.899   1.017   7.081
  187SLPC   C2621546   3.788   1.055   7.285
  187SLPC   H6R21547   3.729   0.960   7.299
  187SLPC   H6S21548   3.714   1.135   7.296
  187SLPC   C2721549   3.898   1.051   7.399
  187SLPC   H7R21550   3.964   0.960   7.416
  187SLPC   H7S21551   3.855   1.049   7.501
  187SLPC   C2821552   4.005   1.152   7.372
  187SLPC   H8R21553   4.063   1.129   7.280
  187SLPC   H8S21554   4.067   1.137   7.461
  187SLPC   C2921555   3.944   1.287   7.365
  187SLPC   H9R21556   3.927   1.323   7.264
  187SLPC  C21021557   3.918   1.369   7.466
  187SLPC  H10R21558   3.873   1.466   7.444
  187SLPC  C21121559   3.942   1.353   7.611
  187SLPC  H11R21560   4.039   1.399   7.633
  187SLPC  H11S21561   3.968   1.257   7.637
  187SLPC  C21221562   3.829   1.400   7.696
  187SLPC  H12R21563   3.734   1.397   7.644
  187SLPC  C21321564   3.837   1.443   7.821
  187SLPC  H13R21565   3.744   1.487   7.861
  187SLPC  C21421566   3.965   1.449   7.904
  187SLPC  H14R21567   4.014   1.544   7.920
  187SLPC  H14S21568   4.047   1.407   7.847
  187SLPC  C21521569   3.978   1.392   8.044
  187SLPC  H15R21570   3.937   1.451   8.128
  187SLPC  H15S21571   4.059   1.429   8.088
  187SLPC  C21621572   3.937   1.250   8.042
  187SLPC  H16R21573   4.002   1.211   7.966
  187SLPC  H16S21574   3.834   1.231   8.003
  187SLPC  C21721575   3.962   1.181   8.170
  187SLPC  H17R21576   4.045   1.203   8.239
  187SLPC  H17S21577   3.959   1.076   8.136
  187SLPC  C21821578   3.859   1.191   8.270
  187SLPC  H18R21579   3.863   1.090   8.308
  187SLPC  H18S21580   3.779   1.171   8.215
  187SLPC  H18T21581   3.810   1.278   8.317
  187SLPC   C3321582   4.074   1.447   7.007
  187SLPC   H3X21583   4.142   1.378   7.052
  187SLPC   H3Y21584   3.976   1.401   7.023
  187SLPC   C3421585   4.100   1.553   7.107
  187SLPC   H4X21586   4.203   1.576   7.092
  187SLPC   H4Y21587   4.089   1.530   7.211
  187SLPC   C3521588   4.011   1.661   7.083
  187SLPC   H5X21589   4.056   1.686   6.989
  187SLPC   H5Y21590   3.994   1.754   7.144
  187SLPC   C3621591   3.887   1.623   7.066
  187SLPC   H6X21592   3.867   1.565   7.162
  187SLPC   H6Y21593   3.866   1.553   6.979
  187SLPC   C3721594   3.843   1.763   7.021
  187SLPC   H7X21595   3.797   1.853   7.073
  187SLPC   H7Y21596   3.875   1.860   7.066
  187SLPC   C3821597   3.732   1.675   7.024
  187SLPC   H8X21598   3.675   1.615   6.938
  187SLPC   H8Y21599   3.714   1.683   6.952
  187SLPC   C3921600   3.676   1.649   7.148
  187SLPC   H9X21601   3.611   1.619   7.096
  187SLPC   H9Y21602   3.630   1.685   7.249
  187SLPC  C31021603   3.642   1.558   7.238
  187SLPC  H10X21604   3.719   1.574   7.317
  187SLPC  H10Y21605   3.639   1.473   7.180
  187SLPC  C31121606   3.528   1.554   7.346
  187SLPC  H11X21607   3.434   1.521   7.300
  187SLPC  H11Y21608   3.523   1.641   7.417
  187SLPC  C31221609   3.553   1.464   7.461
  187SLPC  H12X21610   3.484   1.481   7.547
  187SLPC  H12Y21611   3.654   1.484   7.498
  187SLPC  C31321612   3.522   1.321   7.425
  187SLPC  H13X21613   3.568   1.294   7.328
  187SLPC  H13Y21614   3.411   1.310   7.418
  187SLPC  C31421615   3.572   1.229   7.534
  187SLPC  H14X21616   3.545   1.272   7.632
  187SLPC  H14Y21617   3.682   1.217   7.523
  187SLPC  C31521618   3.512   1.092   7.520
  187SLPC  H15X21619   3.527   1.061   7.415
  187SLPC  H15Y21620   3.405   1.090   7.544
  187SLPC  C31621621   3.566   0.979   7.603
  187SLPC  H16X21622   3.661   0.951   7.556
  187SLPC  H16Y21623   3.498   0.892   7.588
  187SLPC  C31721624   3.593   1.021   7.745
  187SLPC  H17X21625   3.659   1.113   7.749
  187SLPC  H17Y21626   3.643   0.943   7.803
  187SLPC  C31821627   3.466   1.048   7.816
  187SLPC  H18X21628   3.424   1.133   7.760
  187SLPC  H18Y21629   3.489   1.074   7.921
  187SLPC  H18Z21630   3.377   0.986   7.818
  188SLPC     N21631   5.746   3.368   6.411
  188SLPC   C1321632   5.667   3.366   6.297
  188SLPC  H13A21633   5.687   3.304   6.208
  188SLPC  H13B21634   5.559   3.378   6.304
  188SLPC  H13C21635   5.683   3.462   6.250
  188SLPC   C1421636   5.705   3.473   6.507
  188SLPC  H14A21637   5.729   3.573   6.469
  188SLPC  H14B21638   5.595   3.480   6.503
  188SLPC  H14C21639   5.755   3.471   6.600
  188SLPC   C1521640   5.889   3.391   6.373
  188SLPC  H15A21641   5.942   3.410   6.464
  188SLPC  H15B21642   5.931   3.302   6.328
  188SLPC  H15C21643   5.908   3.474   6.305
  188SLPC   C1221644   5.702   3.237   6.464
  188SLPC  H12A21645   5.593   3.231   6.456
  188SLPC  H12B21646   5.729   3.243   6.566
  188SLPC   C1121647   5.758   3.111   6.402
  188SLPC  H11A21648   5.699   3.025   6.443
  188SLPC  H11B21649   5.861   3.101   6.442
  188SLPC     P21650   5.829   3.001   6.185
  188SLPC   O1321651   5.762   2.970   6.056
  188SLPC   O1421652   5.976   3.018   6.182
  188SLPC   O1221653   5.754   3.116   6.258
  188SLPC   O1121654   5.801   2.894   6.297
  188SLPC    C121655   5.828   2.764   6.262
  188SLPC    HA21656   5.789   2.759   6.158
  188SLPC    HB21657   5.935   2.736   6.246
  188SLPC    C221658   5.764   2.667   6.364
  188SLPC    HS21659   5.732   2.581   6.323
  188SLPC   O2121660   5.650   2.708   6.437
  188SLPC   C2121661   5.541   2.719   6.360
  188SLPC   O2221662   5.530   2.734   6.241
  188SLPC   C2221663   5.426   2.728   6.453
  188SLPC   H2R21664   5.330   2.716   6.398
  188SLPC   H2S21665   5.437   2.648   6.528
  188SLPC    C321666   5.865   2.614   6.465
  188SLPC    HX21667   5.956   2.580   6.408
  188SLPC    HY21668   5.828   2.525   6.520
  188SLPC   O3121669   5.883   2.710   6.561
  188SLPC   C3121670   5.987   2.783   6.552
  188SLPC   O3221671   6.066   2.778   6.461
  188SLPC   C3221672   5.990   2.879   6.674
  188SLPC   H2X21673   6.026   2.822   6.764
  188SLPC   H2Y21674   5.887   2.911   6.688
  188SLPC   C2321675   5.441   2.867   6.514
  188SLPC   H3R21676   5.348   2.919   6.486
  188SLPC   H3S21677   5.525   2.931   6.481
  188SLPC   C2421678   5.454   2.873   6.663
  188SLPC   H4R21679   5.358   2.842   6.687
  188SLPC   H4S21680   5.422   2.963   6.714
  188SLPC   C2521681   5.569   2.801   6.733
  188SLPC   H5R21682   5.659   2.838   6.683
  188SLPC   H5S21683   5.566   2.690   6.721
  188SLPC   C2621684   5.583   2.850   6.878
  188SLPC   H6R21685   5.518   2.808   6.944
  188SLPC   H6S21686   5.561   2.955   6.890
  188SLPC   C2721687   5.691   2.805   6.967
  188SLPC   H7R21688   5.772   2.844   6.904
  188SLPC   H7S21689   5.683   2.691   6.971
  188SLPC   C2821690   5.704   2.866   7.102
  188SLPC   H8R21691   5.608   2.846   7.150
  188SLPC   H8S21692   5.719   2.968   7.071
  188SLPC   C2921693   5.812   2.866   7.203
  188SLPC   H9R21694   5.913   2.856   7.159
  188SLPC  C21021695   5.800   2.801   7.319
  188SLPC  H10R21696   5.892   2.779   7.371
  188SLPC  C21121697   5.687   2.717   7.364
  188SLPC  H11R21698   5.687   2.662   7.270
  188SLPC  H11S21699   5.619   2.782   7.403
  188SLPC  C21221700   5.649   2.591   7.423
  188SLPC  H12R21701   5.703   2.511   7.382
  188SLPC  C21321702   5.581   2.558   7.525
  188SLPC  H13R21703   5.614   2.494   7.596
  188SLPC  C21421704   5.521   2.632   7.617
  188SLPC  H14R21705   5.447   2.556   7.630
  188SLPC  H14S21706   5.523   2.714   7.560
  188SLPC  C21521707   5.539   2.731   7.726
  188SLPC  H15R21708   5.643   2.756   7.727
  188SLPC  H15S21709   5.512   2.679   7.820
  188SLPC  C21621710   5.425   2.795   7.784
  188SLPC  H16R21711   5.344   2.719   7.788
  188SLPC  H16S21712   5.399   2.869   7.711
  188SLPC  C21721713   5.456   2.870   7.907
  188SLPC  H17R21714   5.359   2.917   7.911
  188SLPC  H17S21715   5.548   2.925   7.880
  188SLPC  C21821716   5.505   2.812   8.033
  188SLPC  H18R21717   5.457   2.746   8.110
  188SLPC  H18S21718   5.512   2.866   8.126
  188SLPC  H18T21719   5.575   2.740   7.988
  188SLPC   C3321720   6.091   2.990   6.659
  188SLPC   H3X21721   6.113   3.000   6.550
  188SLPC   H3Y21722   6.176   2.950   6.722
  188SLPC   C3421723   6.093   3.123   6.723
  188SLPC   H4X21724   6.018   3.182   6.670
  188SLPC   H4Y21725   6.196   3.161   6.702
  188SLPC   C3521726   6.079   3.112   6.873
  188SLPC   H5X21727   6.133   3.198   6.920
  188SLPC   H5Y21728   6.128   3.018   6.904
  188SLPC   C3621729   5.932   3.109   6.913
  188SLPC   H6X21730   5.924   3.072   7.017
  188SLPC   H6Y21731   5.878   3.037   6.848
  188SLPC   C3721732   5.862   3.242   6.890
  188SLPC   H7X21733   5.754   3.233   6.914
  188SLPC   H7Y21734   5.871   3.268   6.782
  188SLPC   C3821735   5.920   3.360   6.966
  188SLPC   H8X21736   5.855   3.448   6.950
  188SLPC   H8Y21737   6.021   3.386   6.927
  188SLPC   C3921738   5.913   3.340   7.117
  188SLPC   H9X21739   5.937   3.439   7.161
  188SLPC   H9Y21740   5.991   3.267   7.147
  188SLPC  C31021741   5.771   3.310   7.171
  188SLPC  H10X21742   5.737   3.209   7.143
  188SLPC  H10Y21743   5.700   3.382   7.125
  188SLPC  C31121744   5.762   3.328   7.324
  188SLPC  H11X21745   5.795   3.432   7.349
  188SLPC  H11Y21746   5.837   3.260   7.370
  188SLPC  C31221747   5.623   3.307   7.387
  188SLPC  H12X21748   5.548   3.376   7.342
  188SLPC  H12Y21749   5.629   3.334   7.495
  188SLPC  C31321750   5.565   3.165   7.384
  188SLPC  H13X21751   5.542   3.141   7.278
  188SLPC  H13Y21752   5.467   3.164   7.436
  188SLPC  C31421753   5.655   3.056   7.445
  188SLPC  H14X21754   5.734   3.040   7.369
  188SLPC  H14Y21755   5.594   2.963   7.451
  188SLPC  C31521756   5.724   3.083   7.581
  188SLPC  H15X21757   5.655   3.129   7.655
  188SLPC  H15Y21758   5.804   3.158   7.568
  188SLPC  C31621759   5.789   2.960   7.650
  188SLPC  H16X21760   5.780   2.864   7.595
  188SLPC  H16Y21761   5.735   2.947   7.746
  188SLPC  C31721762   5.936   2.983   7.688
  188SLPC  H17X21763   5.942   3.075   7.751
  188SLPC  H17Y21764   5.994   3.004   7.595
  188SLPC  C31821765   5.994   2.863   7.762
  188SLPC  H18X21766   6.078   2.895   7.821
  188SLPC  H18Y21767   6.024   2.780   7.695
  188SLPC  H18Z21768   5.928   2.823   7.841
  189SLPC     N21769   6.634   3.547   6.166
  189SLPC   C1321770   6.552   3.666   6.125
  189SLPC  H13A21771   6.498   3.646   6.033
  189SLPC  H13B21772   6.478   3.692   6.202
  189SLPC  H13C21773   6.613   3.753   6.109
  189SLPC   C1421774   6.690   3.577   6.300
  189SLPC  H14A21775   6.611   3.598   6.372
  189SLPC  H14B21776   6.754   3.495   6.330
  189SLPC  H14C21777   6.751   3.666   6.294
  189SLPC   C1521778   6.748   3.526   6.074
  189SLPC  H15A21779   6.809   3.616   6.077
  189SLPC  H15B21780   6.805   3.437   6.095
  189SLPC  H15C21781   6.712   3.523   5.972
  189SLPC   C1221782   6.549   3.424   6.163
  189SLPC  H12A21783   6.591   3.348   6.228
  189SLPC  H12B21784   6.555   3.384   6.063
  189SLPC   C1121785   6.401   3.438   6.203
  189SLPC  H11A21786   6.360   3.335   6.192
  189SLPC  H11B21787   6.340   3.503   6.137
  189SLPC     P21788   6.375   3.393   6.459
  189SLPC   O1321789   6.409   3.462   6.585
  189SLPC   O1421790   6.247   3.320   6.447
  189SLPC   O1221791   6.394   3.488   6.336
  189SLPC   O1121792   6.492   3.299   6.428
  189SLPC    C121793   6.479   3.180   6.359
  189SLPC    HA21794   6.394   3.112   6.387
  189SLPC    HB21795   6.499   3.182   6.251
  189SLPC    C221796   6.606   3.129   6.396
  189SLPC    HS21797   6.609   3.029   6.335
  189SLPC   O2121798   6.622   3.118   6.546
  189SLPC   C2121799   6.547   3.021   6.576
  189SLPC   O2221800   6.500   2.955   6.491
  189SLPC   C2221801   6.595   2.974   6.704
  189SLPC   H2R21802   6.561   3.049   6.772
  189SLPC   H2S21803   6.540   2.913   6.750
  189SLPC    C321804   6.728   3.224   6.341
  189SLPC    HX21805   6.734   3.227   6.233
  189SLPC    HY21806   6.824   3.186   6.295
  189SLPC   O3121807   6.792   3.308   6.438
  189SLPC   C3121808   6.884   3.285   6.533
  189SLPC   O3221809   6.949   3.186   6.556
  189SLPC   C3221810   6.912   3.419   6.595
  189SLPC   H2X21811   6.825   3.484   6.590
  189SLPC   H2Y21812   6.988   3.463   6.528
  189SLPC   C2321813   6.725   2.899   6.719
  189SLPC   H3R21814   6.788   2.988   6.709
  189SLPC   H3S21815   6.768   2.792   6.714
  189SLPC   C2421816   6.749   2.907   6.834
  189SLPC   H4R21817   6.665   2.865   6.897
  189SLPC   H4S21818   6.706   3.017   6.868
  189SLPC   C2521819   6.923   2.854   6.877
  189SLPC   H5R21820   6.920   2.948   6.825
  189SLPC   H5S21821   7.020   2.847   6.895
  189SLPC   C2621822   7.002   2.864   7.094
  189SLPC   H6R21823   7.103   2.881   7.099
  189SLPC   H6S21824   6.960   2.772   7.127
  189SLPC   C2721825   6.939   3.031   7.222
  189SLPC   H7R21826   6.983   2.970   7.283
  189SLPC   H7S21827   6.820   3.063   7.260
  189SLPC   C2821828   6.897   3.179   7.192
  189SLPC   H8R21829   6.824   3.238   7.242
  189SLPC   H8S21830   6.825   3.177   7.100
  189SLPC   C2921831   7.041   3.226   7.194
  189SLPC   H9R21832   7.115   3.203   7.120
  189SLPC  C21021833   7.102   3.294   7.276
  189SLPC  H10R21834   7.204   3.320   7.247
  189SLPC  C21121835   7.022   3.337   7.388
  189SLPC  H11R21836   7.095   3.312   7.464
  189SLPC  H11S21837   6.931   3.274   7.405
  189SLPC  C21221838   6.991   3.482   7.367
  189SLPC  H12R21839   7.081   3.542   7.350
  189SLPC  C21321840   6.872   3.544   7.374
  189SLPC  H13R21841   6.868   3.651   7.353
  189SLPC  C21421842   6.739   3.480   7.406
  189SLPC  H14R21843   6.740   3.371   7.383
  189SLPC  H14S21844   6.659   3.526   7.344
  189SLPC  C21521845   6.697   3.501   7.552
  189SLPC  H15R21846   6.593   3.465   7.571
  189SLPC  H15S21847   6.687   3.610   7.563
  189SLPC  C21621848   6.791   3.437   7.657
  189SLPC  H16R21849   6.883   3.498   7.670
  189SLPC  H16S21850   6.828   3.340   7.620
  189SLPC  C21721851   6.723   3.418   7.793
  189SLPC  H17R21852   6.624   3.373   7.771
  189SLPC  H17S21853   6.703   3.516   7.841
  189SLPC  C21821854   6.792   3.319   7.888
  189SLPC  H18R21855   6.861   3.365   7.961
  189SLPC  H18S21856   6.852   3.245   7.832
  189SLPC  H18T21857   6.715   3.264   7.947
  189SLPC   C3321858   6.960   3.420   6.740
  189SLPC   H3X21859   7.021   3.510   6.759
  189SLPC   H3Y21860   7.025   3.342   6.757
  189SLPC   C3421861   6.861   3.374   6.846
  189SLPC   H4X21862   6.909   3.340   6.940
  189SLPC   H4Y21863   6.800   3.291   6.806
  189SLPC   C3521864   6.774   3.486   6.886
  189SLPC   H5X21865   6.719   3.528   6.800
  189SLPC   H5Y21866   6.848   3.563   6.914
  189SLPC   C3621867   6.674   3.449   6.995
  189SLPC   H6X21868   6.621   3.543   7.017
  189SLPC   H6Y21869   6.728   3.414   7.087
  189SLPC   C3721870   6.575   3.338   6.952
  189SLPC   H7X21871   6.616   3.243   6.992
  189SLPC   H7Y21872   6.569   3.327   6.840
  189SLPC   C3821873   6.431   3.355   7.002
  189SLPC   H8X21874   6.374   3.270   6.958
  189SLPC   H8Y21875   6.389   3.452   6.966
  189SLPC   C3921876   6.413   3.348   7.154
  189SLPC   H9X21877   6.443   3.445   7.199
  189SLPC   H9Y21878   6.484   3.270   7.189
  189SLPC  C31021879   6.265   3.318   7.194
  189SLPC  H10X21880   6.221   3.242   7.126
  189SLPC  H10Y21881   6.206   3.411   7.177
  189SLPC  C31121882   6.239   3.271   7.338
  189SLPC  H11X21883   6.285   3.171   7.346
  189SLPC  H11Y21884   6.128   3.261   7.354
  189SLPC  C31221885   6.293   3.362   7.448
  189SLPC  H12X21886   6.231   3.456   7.449
  189SLPC  H12Y21887   6.396   3.394   7.424
  189SLPC  C31321888   6.301   3.290   7.585
  189SLPC  H13X21889   6.197   3.273   7.621
  189SLPC  H13Y21890   6.351   3.354   7.661
  189SLPC  C31421891   6.372   3.152   7.584
  189SLPC  H14X21892   6.316   3.080   7.521
  189SLPC  H14Y21893   6.368   3.119   7.689
  189SLPC  C31521894   6.518   3.146   7.540
  189SLPC  H15X21895   6.585   3.208   7.603
  189SLPC  H15Y21896   6.519   3.182   7.435
  189SLPC  C31621897   6.583   3.008   7.535
  189SLPC  H16X21898   6.682   3.032   7.495
  189SLPC  H16Y21899   6.528   2.935   7.477
  189SLPC  C31721900   6.623   2.942   7.663
  189SLPC  H17X21901   6.534   2.898   7.688
  189SLPC  H17Y21902   6.652   3.017   7.737
  189SLPC  C31821903   6.697   2.811   7.667
  189SLPC  H18X21904   6.712   2.754   7.756
  189SLPC  H18Y21905   6.797   2.847   7.668
  189SLPC  H18Z21906   6.665   2.735   7.594
  190SLPC     N21907   6.845   2.885   6.435
  190SLPC   C1321908   6.936   2.910   6.541
  190SLPC  H13A21909   6.969   2.817   6.570
  190SLPC  H13B21910   7.003   2.990   6.517
  190SLPC  H13C21911   6.887   2.972   6.616
  190SLPC   C1421912   6.835   3.005   6.407
  190SLPC  H14A21913   6.921   3.069   6.390
  190SLPC  H14B21914   6.770   3.021   6.318
  190SLPC  H14C21915   6.782   3.073   6.481
  190SLPC   C1521916   6.727   2.846   6.465
  190SLPC  H15A21917   6.710   2.766   6.535
  190SLPC  H15B21918   6.703   2.925   6.535
  190SLPC  H15C21919   6.636   2.864   6.405
  190SLPC   C1221920   6.862   2.816   6.316
  190SLPC  H12A21921   6.795   2.861   6.240
  190SLPC  H12B21922   6.824   2.719   6.344
  190SLPC   C1121923   6.999   2.824   6.269
  190SLPC  H11A21924   6.981   2.767   6.177
  190SLPC  H11B21925   7.070   2.770   6.335
  190SLPC     P21926   7.156   2.995   6.159
  190SLPC   O1321927   7.113   2.967   6.021
  190SLPC   O1421928   7.195   3.135   6.190
  190SLPC   O1221929   7.032   2.961   6.247
  190SLPC   O1121930   7.259   2.887   6.208
  190SLPC    C121931   7.334   2.918   6.324
  190SLPC    HA21932   7.402   3.005   6.308
  190SLPC    HB21933   7.268   2.941   6.411
  190SLPC    C221934   7.413   2.798   6.370
  190SLPC    HS21935   7.475   2.765   6.281
  190SLPC   O2121936   7.329   2.696   6.419
  190SLPC   C2121937   7.312   2.595   6.344
  190SLPC   O2221938   7.372   2.564   6.244
  190SLPC   C2221939   7.216   2.504   6.413
  190SLPC   H2R21940   7.136   2.473   6.344
  190SLPC   H2S21941   7.276   2.414   6.443
  190SLPC    C321942   7.498   2.833   6.486
  190SLPC    HX21943   7.576   2.907   6.456
  190SLPC    HY21944   7.535   2.728   6.509
  190SLPC   O3121945   7.423   2.877   6.599
  190SLPC   C3121946   7.402   3.010   6.606
  190SLPC   O3221947   7.449   3.089   6.527
  190SLPC   C3221948   7.359   3.033   6.766
  190SLPC   H2X21949   7.405   2.973   6.847
  190SLPC   H2Y21950   7.297   2.955   6.789
  190SLPC   C2321951   7.141   2.576   6.528
  190SLPC   H3R21952   7.065   2.645   6.494
  190SLPC   H3S21953   7.212   2.622   6.601
  190SLPC   C2421954   7.061   2.479   6.602
  190SLPC   H4R21955   7.155   2.420   6.603
  190SLPC   H4S21956   6.991   2.415   6.550
  190SLPC   C2521957   6.989   2.540   6.723
  190SLPC   H5R21958   6.933   2.468   6.784
  190SLPC   H5S21959   6.895   2.588   6.691
  190SLPC   C2621960   7.070   2.638   6.809
  190SLPC   H6R21961   6.997   2.658   6.891
  190SLPC   H6S21962   7.095   2.728   6.748
  190SLPC   C2721963   7.195   2.601   6.887
  190SLPC   H7R21964   7.267   2.552   6.821
  190SLPC   H7S21965   7.166   2.542   6.974
  190SLPC   C2821966   7.260   2.710   6.969
  190SLPC   H8R21967   7.184   2.739   7.039
  190SLPC   H8S21968   7.286   2.789   6.899
  190SLPC   C2921969   7.375   2.657   7.047
  190SLPC   H9R21970   7.447   2.596   6.991
  190SLPC  C21021971   7.400   2.682   7.176
  190SLPC  H10R21972   7.493   2.639   7.213
  190SLPC  C21121973   7.323   2.767   7.277
  190SLPC  H11R21974   7.367   2.747   7.376
  190SLPC  H11S21975   7.215   2.735   7.286
  190SLPC  C21221976   7.336   2.915   7.245
  190SLPC  H12R21977   7.332   2.937   7.138
  190SLPC  C21321978   7.339   3.020   7.330
  190SLPC  H13R21979   7.345   3.124   7.292
  190SLPC  C21421980   7.328   3.007   7.478
  190SLPC  H14R21981   7.386   2.922   7.520
  190SLPC  H14S21982   7.221   2.986   7.497
  190SLPC  C21521983   7.370   3.135   7.552
  190SLPC  H15R21984   7.334   3.227   7.499
  190SLPC  H15S21985   7.481   3.142   7.552
  190SLPC  C21621986   7.313   3.134   7.695
  190SLPC  H16R21987   7.211   3.095   7.694
  190SLPC  H16S21988   7.322   3.234   7.745
  190SLPC  C21721989   7.370   3.033   7.788
  190SLPC  H17R21990   7.465   3.046   7.739
  190SLPC  H17S21991   7.370   2.925   7.775
  190SLPC  C21821992   7.342   3.055   7.937
  190SLPC  H18R21993   7.392   2.977   7.996
  190SLPC  H18S21994   7.236   3.049   7.950
  190SLPC  H18T21995   7.365   3.150   7.985
  190SLPC   C3321996   7.399   3.170   6.845
  190SLPC   H3X21997   7.498   3.201   6.877
  190SLPC   H3Y21998   7.399   3.157   6.952
  190SLPC   C3421999   7.343   3.283   6.774
  190SLPC   H4X22000   7.387   3.308   6.674
  190SLPC   H4Y22001   7.342   3.372   6.839
  190SLPC   C3522002   7.213   3.221   6.755
  190SLPC   H5X22003   7.191   3.134   6.689
  190SLPC   H5Y22004   7.170   3.287   6.685
  190SLPC   C3622005   7.155   3.202   6.892
  190SLPC   H6X22006   7.095   3.287   6.928
  190SLPC   H6Y22007   7.220   3.169   6.975
  190SLPC   C3722008   7.071   3.085   6.874
  190SLPC   H7X22009   7.132   2.992   6.869
  190SLPC   H7Y22010   6.996   3.112   6.797
  190SLPC   C3822011   6.974   3.068   6.986
  190SLPC   H8X22012   6.958   3.167   6.983
  190SLPC   H8Y22013   7.069   3.053   7.050
  190SLPC   C3922014   6.801   2.955   7.052
  190SLPC   H9X22015   6.808   2.828   7.031
  190SLPC   H9Y22016   6.812   3.032   6.994
  190SLPC  C31022017   6.732   2.891   7.165
  190SLPC  H10X22018   6.654   2.837   7.122
  190SLPC  H10Y22019   6.692   2.988   7.139
  190SLPC  C31122020   6.775   2.870   7.320
  190SLPC  H11X22021   6.696   2.913   7.366
  190SLPC  H11Y22022   6.830   2.947   7.392
  190SLPC  C31222023   6.870   2.766   7.344
  190SLPC  H12X22024   6.969   2.762   7.300
  190SLPC  H12Y22025   6.817   2.695   7.291
  190SLPC  C31322026   6.950   2.772   7.465
  190SLPC  H13X22027   6.878   2.799   7.530
  190SLPC  H13Y22028   7.025   2.854   7.460
  190SLPC  C31422029   7.006   2.636   7.484
  190SLPC  H14X22030   7.069   2.611   7.395
  190SLPC  H14Y22031   6.921   2.564   7.483
  190SLPC  C31522032   7.086   2.632   7.612
  190SLPC  H15X22033   7.173   2.700   7.602
  190SLPC  H15Y22034   7.119   2.526   7.618
  190SLPC  C31622035   7.014   2.672   7.741
  190SLPC  H16X22036   6.911   2.631   7.748
  190SLPC  H16Y22037   7.013   2.783   7.753
  190SLPC  C31722038   7.085   2.616   7.863
  190SLPC  H17X22039   7.097   2.507   7.846
  190SLPC  H17Y22040   7.018   2.636   7.950
  190SLPC  C31822041   7.224   2.673   7.883
  190SLPC  H18X22042   7.248   2.655   7.987
  190SLPC  H18Y22043   7.232   2.782   7.875
  190SLPC  H18Z22044   7.299   2.626   7.814
  191SLPC     N22045   0.517   6.561   6.151
  191SLPC   C1322046   0.388   6.618   6.191
  191SLPC  H13A22047   0.327   6.642   6.103
  191SLPC  H13B22048   0.332   6.546   6.249
  191SLPC  H13C22049   0.400   6.709   6.248
  191SLPC   C1422050   0.591   6.678   6.087
  191SLPC  H14A22051   0.542   6.712   5.995
  191SLPC  H14B22052   0.590   6.761   6.157
  191SLPC  H14C22053   0.695   6.661   6.062
  191SLPC   C1522054   0.497   6.456   6.049
  191SLPC  H15A22055   0.584   6.392   6.044
  191SLPC  H15B22056   0.410   6.397   6.072
  191SLPC  H15C22057   0.485   6.503   5.952
  191SLPC   C1222058   0.581   6.494   6.272
  191SLPC  H12A22059   0.670   6.444   6.236
  191SLPC  H12B22060   0.515   6.416   6.308
  191SLPC   C1122061   0.622   6.577   6.394
  191SLPC  H11A22062   0.671   6.508   6.467
  191SLPC  H11B22063   0.538   6.626   6.447
  191SLPC     P22064   0.806   6.759   6.442
  191SLPC   O1322065   0.798   6.724   6.585
  191SLPC   O1422066   0.930   6.758   6.367
  191SLPC   O1222067   0.711   6.675   6.349
  191SLPC   O1122068   0.748   6.898   6.420
  191SLPC    C122069   0.614   6.922   6.419
  191SLPC    HA22070   0.565   6.951   6.327
  191SLPC    HB22071   0.553   6.834   6.417
  191SLPC    C222072   0.598   7.015   6.530
  191SLPC    HS22073   0.586   7.112   6.505
  191SLPC   O2122074   0.677   7.013   6.647
  191SLPC   C2122075   0.667   7.117   6.728
  191SLPC   O2222076   0.593   7.213   6.721
  191SLPC   C2222077   0.756   7.095   6.838
  191SLPC   H2R22078   0.719   7.004   6.887
  191SLPC   H2S22079   0.856   7.074   6.797
  191SLPC    C322080   0.470   6.991   6.558
  191SLPC    HX22081   0.409   7.038   6.470
  191SLPC    HY22082   0.467   7.044   6.650
  191SLPC   O3122083   0.448   6.859   6.594
  191SLPC   C3122084   0.411   6.824   6.713
  191SLPC   O3222085   0.426   6.875   6.822
  191SLPC   C3222086   0.338   6.700   6.689
  191SLPC   H2X22087   0.376   6.649   6.602
  191SLPC   H2Y22088   0.233   6.711   6.662
  191SLPC   C2322089   0.752   7.206   6.940
  191SLPC   H3R22090   0.656   7.219   6.992
  191SLPC   H3S22091   0.763   7.304   6.888
  191SLPC   C2422092   0.851   7.173   7.051
  191SLPC   H4R22093   0.835   7.250   7.132
  191SLPC   H4S22094   0.952   7.174   7.000
  191SLPC   C2522095   0.854   7.043   7.122
  191SLPC   H5R22096   0.885   6.973   7.042
  191SLPC   H5S22097   0.753   7.029   7.162
  191SLPC   C2622098   0.944   7.031   7.247
  191SLPC   H6R22099   0.960   6.922   7.261
  191SLPC   H6S22100   0.909   7.078   7.338
  191SLPC   C2722101   1.072   7.103   7.237
  191SLPC   H7R22102   1.082   7.208   7.206
  191SLPC   H7S22103   1.073   7.048   7.141
  191SLPC   C2822104   1.191   7.072   7.328
  191SLPC   H8R22105   1.290   7.098   7.285
  191SLPC   H8S22106   1.195   6.968   7.352
  191SLPC   C2922107   1.206   7.108   7.458
  191SLPC   H9R22108   1.236   7.206   7.455
  191SLPC  C21022109   1.178   7.042   7.564
  191SLPC  H10R22110   1.187   7.093   7.655
  191SLPC  C21122111   1.119   6.907   7.577
  191SLPC  H11R22112   1.058   6.869   7.497
  191SLPC  H11S22113   1.038   6.855   7.629
  191SLPC  C21222114   1.220   6.875   7.673
  191SLPC  H12R22115   1.304   6.851   7.600
  191SLPC  C21322116   1.201   6.807   7.798
  191SLPC  H13R22117   1.292   6.810   7.857
  191SLPC  C21422118   1.091   6.740   7.886
  191SLPC  H14R22119   1.067   6.631   7.893
  191SLPC  H14S22120   0.991   6.752   7.851
  191SLPC  C21522121   1.130   6.806   8.011
  191SLPC  H15R22122   1.197   6.755   8.068
  191SLPC  H15S22123   1.035   6.783   8.063
  191SLPC  C21622124   1.218   6.941   8.013
  191SLPC  H16R22125   1.316   6.947   7.973
  191SLPC  H16S22126   1.262   6.935   8.112
  191SLPC  C21722127   1.144   7.070   7.979
  191SLPC  H17R22128   1.045   7.029   8.003
  191SLPC  H17S22129   1.130   7.120   7.887
  191SLPC  C21822130   1.165   7.206   7.979
  191SLPC  H18R22131   1.100   7.284   7.927
  191SLPC  H18S22132   1.273   7.206   7.949
  191SLPC  H18T22133   1.152   7.236   8.080
  191SLPC   C3322134   0.357   6.632   6.816
  191SLPC   H3X22135   0.309   6.534   6.791
  191SLPC   H3Y22136   0.311   6.690   6.903
  191SLPC   C3422137   0.484   6.571   6.837
  191SLPC   H4X22138   0.551   6.657   6.827
  191SLPC   H4Y22139   0.489   6.502   6.750
  191SLPC   C3522140   0.496   6.503   6.972
  191SLPC   H5X22141   0.451   6.402   6.973
  191SLPC   H5Y22142   0.452   6.565   7.053
  191SLPC   C3622143   0.643   6.479   6.999
  191SLPC   H6X22144   0.681   6.425   6.909
  191SLPC   H6Y22145   0.649   6.412   7.087
  191SLPC   C3722146   0.724   6.608   7.024
  191SLPC   H7X22147   0.707   6.681   6.942
  191SLPC   H7Y22148   0.831   6.580   7.018
  191SLPC   C3822149   0.694   6.685   7.155
  191SLPC   H8X22150   0.599   6.741   7.144
  191SLPC   H8Y22151   0.768   6.767   7.170
  191SLPC   C3922152   0.689   6.595   7.280
  191SLPC   H9X22153   0.764   6.513   7.269
  191SLPC   H9Y22154   0.587   6.551   7.285
  191SLPC  C31022155   0.715   6.666   7.413
  191SLPC  H10X22156   0.819   6.709   7.414
  191SLPC  H10Y22157   0.705   6.587   7.491
  191SLPC  C31122158   0.611   6.776   7.438
  191SLPC  H11X22159   0.512   6.730   7.458
  191SLPC  H11Y22160   0.601   6.833   7.344
  191SLPC  C31222161   0.655   6.875   7.545
  191SLPC  H12X22162   0.622   6.980   7.525
  191SLPC  H12Y22163   0.766   6.873   7.552
  191SLPC  C31322164   0.616   6.830   7.681
  191SLPC  H13X22165   0.662   6.902   7.750
  191SLPC  H13Y22166   0.670   6.743   7.715
  191SLPC  C31422167   0.470   6.798   7.705
  191SLPC  H14X22168   0.405   6.754   7.628
  191SLPC  H14Y22169   0.436   6.896   7.725
  191SLPC  C31522170   0.428   6.721   7.822
  191SLPC  H15X22171   0.464   6.621   7.821
  191SLPC  H15Y22172   0.320   6.711   7.816
  191SLPC  C31622173   0.492   6.768   7.944
  191SLPC  H16X22174   0.588   6.783   7.896
  191SLPC  H16Y22175   0.476   6.708   8.035
  191SLPC  C31722176   0.486   6.908   7.994
  191SLPC  H17X22177   0.394   6.871   8.011
  191SLPC  H17Y22178   0.456   6.950   7.904
  191SLPC  C31822179   0.560   7.020   8.118
  191SLPC  H18X22180   0.657   7.050   8.085
  191SLPC  H18Y22181   0.572   7.007   8.212
  191SLPC  H18Z22182   0.506   7.104   8.166
  192SLPC     N22183   7.456   6.448   6.287
  192SLPC   C1322184   7.438   6.571   6.209
  192SLPC  H13A22185   7.526   6.631   6.216
  192SLPC  H13B22186   7.422   6.545   6.105
  192SLPC  H13C22187   7.356   6.631   6.250
  192SLPC   C1422188   7.500   6.488   6.423
  192SLPC  H14A22189   7.604   6.515   6.426
  192SLPC  H14B22190   7.438   6.572   6.457
  192SLPC  H14C22191   7.484   6.406   6.493
  192SLPC   C1522192   7.556   6.366   6.214
  192SLPC  H15A22193   7.562   6.270   6.262
  192SLPC  H15B22194   7.526   6.351   6.111
  192SLPC  H15C22195   7.652   6.413   6.213
  192SLPC   C1222196   7.325   6.370   6.296
  192SLPC  H12A22197   7.337   6.274   6.346
  192SLPC  H12B22198   7.292   6.346   6.195
  192SLPC   C1122199   7.206   6.439   6.360
  192SLPC  H11A22200   7.219   6.483   6.460
  192SLPC  H11B22201   7.139   6.351   6.374
  192SLPC     P22202   7.064   6.650   6.277
  192SLPC   O1322203   7.038   6.742   6.166
  192SLPC   O1422204   6.974   6.558   6.291
  192SLPC   O1222205   7.171   6.539   6.263
  192SLPC   O1122206   7.065   6.706   6.425
  192SLPC    C122207   7.177   6.786   6.430
  192SLPC    HA22208   7.263   6.759   6.363
  192SLPC    HB22209   7.137   6.881   6.387
  192SLPC    C222210   7.234   6.786   6.574
  192SLPC    HS22211   7.308   6.869   6.596
  192SLPC   O2122212   7.288   6.663   6.604
  192SLPC   C2122213   7.348   6.673   6.715
  192SLPC   O2222214   7.399   6.771   6.766
  192SLPC   C2222215   7.363   6.531   6.757
  192SLPC   H2R22216   7.270   6.490   6.792
  192SLPC   H2S22217   7.401   6.474   6.669
  192SLPC    C322218   7.138   6.822   6.677
  192SLPC    HX22219   7.083   6.897   6.636
  192SLPC    HY22220   7.184   6.892   6.746
  192SLPC   O3122221   7.051   6.718   6.718
  192SLPC   C3122222   6.974   6.757   6.814
  192SLPC   O3222223   6.958   6.868   6.851
  192SLPC   C3222224   6.943   6.647   6.899
  192SLPC   H2X22225   7.034   6.587   6.888
  192SLPC   H2Y22226   6.852   6.608   6.851
  192SLPC   C2322227   7.446   6.517   6.882
  192SLPC   H3R22228   7.498   6.603   6.860
  192SLPC   H3S22229   7.505   6.424   6.876
  192SLPC   C2422230   7.427   6.585   7.016
  192SLPC   H4R22231   7.394   6.691   7.006
  192SLPC   H4S22232   7.523   6.588   7.075
  192SLPC   C2522233   7.315   6.515   7.078
  192SLPC   H5R22234   7.232   6.505   7.005
  192SLPC   H5S22235   7.279   6.574   7.163
  192SLPC   C2622236   7.359   6.383   7.128
  192SLPC   H6R22237   7.440   6.402   7.203
  192SLPC   H6S22238   7.405   6.318   7.050
  192SLPC   C2722239   7.240   6.325   7.199
  192SLPC   H7R22240   7.173   6.260   7.138
  192SLPC   H7S22241   7.178   6.393   7.260
  192SLPC   C2822242   7.308   6.253   7.301
  192SLPC   H8R22243   7.385   6.296   7.364
  192SLPC   H8S22244   7.368   6.186   7.233
  192SLPC   C2922245   7.204   6.200   7.386
  192SLPC   H9R22246   7.119   6.147   7.340
  192SLPC  C21022247   7.234   6.185   7.511
  192SLPC  H10R22248   7.220   6.074   7.526
  192SLPC  C21122249   7.347   6.211   7.605
  192SLPC  H11R22250   7.446   6.212   7.563
  192SLPC  H11S22251   7.359   6.154   7.694
  192SLPC  C21222252   7.317   6.343   7.649
  192SLPC  H12R22253   7.326   6.401   7.559
  192SLPC  C21322254   7.286   6.398   7.766
  192SLPC  H13R22255   7.246   6.497   7.758
  192SLPC  C21422256   7.264   6.354   7.917
  192SLPC  H14R22257   7.316   6.361   7.994
  192SLPC  H14S22258   7.327   6.259   7.936
  192SLPC  C21522259   7.116   6.365   7.982
  192SLPC  H15R22260   7.077   6.463   7.997
  192SLPC  H15S22261   7.101   6.281   8.056
  192SLPC  C21622262   6.990   6.361   7.893
  192SLPC  H16R22263   6.979   6.261   7.873
  192SLPC  H16S22264   6.997   6.362   7.780
  192SLPC  C21722265   6.886   6.270   7.941
  192SLPC  H17R22266   6.913   6.238   8.031
  192SLPC  H17S22267   6.819   6.245   7.999
  192SLPC  C21822268   6.739   6.279   7.937
  192SLPC  H18R22269   6.645   6.251   7.961
  192SLPC  H18S22270   6.730   6.229   7.833
  192SLPC  H18T22271   6.723   6.387   7.967
  192SLPC   C3322272   6.928   6.688   7.045
  192SLPC   H3X22273   6.852   6.762   7.063
  192SLPC   H3Y22274   7.012   6.734   7.094
  192SLPC   C3422275   6.914   6.565   7.125
  192SLPC   H4X22276   7.003   6.498   7.118
  192SLPC   H4Y22277   6.825   6.512   7.086
  192SLPC   C3522278   6.895   6.595   7.267
  192SLPC   H5X22279   6.817   6.667   7.291
  192SLPC   H5Y22280   6.985   6.632   7.321
  192SLPC   C3622281   6.848   6.471   7.321
  192SLPC   H6X22282   6.920   6.383   7.309
  192SLPC   H6Y22283   6.748   6.435   7.292
  192SLPC   C3722284   6.851   6.528   7.457
  192SLPC   H7X22285   6.947   6.520   7.509
  192SLPC   H7Y22286   6.841   6.424   7.460
  192SLPC   C3822287   6.745   6.626   7.531
  192SLPC   H8X22288   6.640   6.633   7.496
  192SLPC   H8Y22289   6.799   6.717   7.517
  192SLPC   C3922290   6.713   6.658   7.680
  192SLPC   H9X22291   6.621   6.592   7.709
  192SLPC   H9Y22292   6.617   6.696   7.706
  192SLPC  C31022293   6.839   6.666   7.786
  192SLPC  H10X22294   6.920   6.586   7.779
  192SLPC  H10Y22295   6.804   6.650   7.893
  192SLPC  C31122296   6.935   6.768   7.765
  192SLPC  H11X22297   6.883   6.851   7.812
  192SLPC  H11Y22298   6.951   6.774   7.656
  192SLPC  C31222299   7.069   6.740   7.823
  192SLPC  H12X22300   7.117   6.648   7.787
  192SLPC  H12Y22301   7.055   6.705   7.925
  192SLPC  C31322302   7.149   6.869   7.806
  192SLPC  H13X22303   7.074   6.943   7.842
  192SLPC  H13Y22304   7.193   6.884   7.709
  192SLPC  C31422305   7.277   6.903   7.880
  192SLPC  H14X22306   7.221   6.871   7.961
  192SLPC  H14Y22307   7.301   7.000   7.917
  192SLPC  C31522308   7.401   6.812   7.869
  192SLPC  H15X22309   7.453   6.826   7.778
  192SLPC  H15Y22310   7.354   6.726   7.828
  192SLPC  C31622311   7.514   6.797   7.988
  192SLPC  H16X22312   7.517   6.851   8.078
  192SLPC  H16Y22313   7.602   6.778   7.958
  192SLPC  C31722314   7.535   6.723   8.113
  192SLPC  H17X22315   7.561   6.651   8.064
  192SLPC  H17Y22316   7.459   6.688   8.150
  192SLPC  C31822317   7.599   6.677   8.220
  192SLPC  H18X22318   7.566   6.752   8.294
  192SLPC  H18Y22319   7.696   6.663   8.177
  192SLPC  H18Z22320   7.576   6.593   8.280
  193SOD    SOD22321   4.003   4.135  13.463
  194SOD    SOD22322   5.443   6.862   0.690
  195SOD    SOD22323   2.758   0.005  10.519
  196SOD    SOD22324   5.453   1.774  15.026
  197SOD    SOD22325   5.730   3.924   3.539
  198SOD    SOD22326   2.084   5.343  11.947
  199SOD    SOD22327   5.886   4.280   5.393
  200SOD    SOD22328   0.851   3.606   0.717
  201SOD    SOD22329   7.291   1.305   1.140
  202SOD    SOD22330   5.055   0.156   5.388
  203SOD    SOD22331   2.461   5.184  11.144
  204SOD    SOD22332   1.370   6.788   1.787
  205SOD    SOD22333   1.309   4.245   4.656
  206SOD    SOD22334   0.371   0.913   3.524
  207SOD    SOD22335   4.300   5.953   1.808
  208SOD    SOD22336   5.714   6.360  11.907
  209SOD    SOD22337   6.654   6.037   3.394
  210SOD    SOD22338   3.113   3.415  15.918
  211SOD    SOD22339   0.476   2.883   1.939
  212SOD    SOD22340   4.557   0.013   1.985
  213SOD    SOD22341   1.153   5.127   0.957
  214SOD    SOD22342   5.176   0.329  12.200
  215SOD    SOD22343   6.604   1.481   1.205
  216SOD    SOD22344   3.907   5.121   3.214
  217SOD    SOD22345   6.122   4.868  12.049
  218SOD    SOD22346   0.296   6.472  15.658
  219SOD    SOD22347   5.920   5.722  13.032
  220SOD    SOD22348   6.155   7.054   2.250
  221SOD    SOD22349   5.772   7.221   1.985
  222SOD    SOD22350   2.935   0.660  10.306
  223SOD    SOD22351   4.343   5.504   3.320
  224SOD    SOD22352   6.373   3.020  12.790
  225SOD    SOD22353   5.904   0.690   2.387
  226SOD    SOD22354   1.869   1.656   3.430
  227SOD    SOD22355   3.043   4.392   3.350
  228SOD    SOD22356   2.262   2.444  12.297
  229SOD    SOD22357   4.987   6.587  14.252
  230SOD    SOD22358   4.395   4.224   4.942
  231SOD    SOD22359   4.340   0.472  15.021
  232SOD    SOD22360   0.129   3.957   1.081
  233SOD    SOD22361   3.821   5.643   4.627
  234SOD    SOD22362   0.390   0.525  15.661
  235SOD    SOD22363   4.543   4.449   3.307
  236SOD    SOD22364   3.584   3.502   0.630
  237SOD    SOD22365   0.945   5.867  11.157
  238SOD    SOD22366   2.711   3.618   3.805
  239SOD    SOD22367   3.155   1.933  12.942
  240SOD    SOD22368   4.503   2.744  10.977
  241SOD    SOD22369   4.398   0.832   4.158
  242SOD    SOD22370   5.053   6.921  12.604
  243SOD    SOD22371   4.246   1.951   3.451
  244SOD    SOD22372   5.725   7.141  15.942
  245SOD    SOD22373   3.778   5.862  11.013
  246SOD    SOD22374   4.793   7.379   2.113
  247SOD    SOD22375   2.183   3.550   3.662
  248SOD    SOD22376   0.122   0.756   3.783
  249SOD    SOD22377   1.295   3.797  11.022
  250SOD    SOD22378   0.232   0.817   1.514
  251SOD    SOD22379   3.853   7.077  12.389
  252SOD    SOD22380   3.044   4.939  14.555
  253SOD    SOD22381   3.176   4.028  11.628
  254SOD    SOD22382   5.857   4.243  10.787
  255SOD    SOD22383   4.682   0.715  11.134
  256SOD    SOD22384   7.310   6.897   5.406
  257SOD    SOD22385   4.269   3.864  12.709
  258SOD    SOD22386   6.752   5.588   3.677
  259SOD    SOD22387   1.649   3.623  11.874
  260SOD    SOD22388   5.887   0.462  11.141
  261SOD    SOD22389   4.610   5.657  12.460
  262SOD    SOD22390   5.142   6.315  13.491
  263SOD    SOD22391   5.976   4.260  13.926
  264SOD    SOD22392   2.271   3.576  15.346
  265SOD    SOD22393   3.566   0.141  14.891
  266CLA    CLA22394   6.226   1.427   0.422
  267CLA    CLA22395   1.271   6.858   3.591
  268CLA    CLA22396   2.090   4.614  14.257
  269CLA    CLA22397   5.605   5.260   2.499
  270CLA    CLA22398   4.565   7.304  15.820
  271CLA    CLA22399   0.538   5.821   0.823
  272CLA    CLA22400   4.391   4.208  10.626
  273CLA    CLA22401   0.235   4.416   5.443
  274CLA    CLA22402   5.203   5.844   0.675
  275CLA    CLA22403   0.723   0.153   3.986
  276CLA    CLA22404   0.350   6.341   0.457
  277CLA    CLA22405   0.169   1.138   2.686
  278CLA    CLA22406   6.297   5.905  13.615
  279CLA    CLA22407   4.806   6.478   3.749
  280CLA    CLA22408   4.520   3.957  12.067
  281CLA    CLA22409   3.722   5.729  12.983
  282CLA    CLA22410   6.735   4.213  12.548
  283CLA    CLA22411   0.484   3.051   5.320
  284CLA    CLA22412   2.240   6.600  15.969
  285CLA    CLA22413   6.247   7.055   3.649
  286CLA    CLA22414   4.308   3.708  14.174
  287CLA    CLA22415   3.050   5.756  12.164
  288CLA    CLA22416   2.265   4.574  11.921
  289CLA    CLA22417   7.104   0.461   5.480
  290CLA    CLA22418   5.943   2.938   2.440
  291CLA    CLA22419   3.694   3.252   0.436
  292CLA    CLA22420   5.901   3.037  11.280
  293CLA    CLA22421   0.664   0.188  12.715
  294CLA    CLA22422   2.057   0.525  13.065
  295CLA    CLA22423   3.998   3.101   3.058
  296CLA    CLA22424   2.154   2.638  15.329
  297CLA    CLA22425   5.152   2.053   3.339
  298CLA    CLA22426   4.110   4.907   2.541
  299CLA    CLA22427   1.270   6.348   1.659
  300CLA    CLA22428   4.781   1.517   0.870
  301CLA    CLA22429   3.661   4.617   0.987
  302CLA    CLA22430   0.019   5.128   2.516
  303CLA    CLA22431   3.258   3.583   2.855
  304CLA    CLA22432   4.231   4.228   1.971
  305CLA    CLA22433   5.354   4.052   0.025
  306CLA    CLA22434   3.815   6.166  10.603
  307CLA    CLA22435   6.659   4.916  14.338
  308CLA    CLA22436   5.608   0.807   1.855
  309CLA    CLA22437   3.627   4.823  11.430
  310CLA    CLA22438   3.672   4.395   4.503
  311CLA    CLA22439   2.224   3.449   5.604
  312CLA    CLA22440   6.545   5.837   3.092
  313CLA    CLA22441   3.749   4.939  10.868
  314CLA    CLA22442   6.890   6.889  10.984
  315CLA    CLA22443   7.096   1.980  14.864
  316CLA    CLA22444   1.645   6.959  14.301
  317CLA    CLA22445   0.746   7.189  11.485
  318CLA    CLA22446   4.287   1.262  15.360
  319TIP3   OH222447   3.569   4.517   9.997
  319TIP3    H122448   3.526   4.467  10.067
  319TIP3    H222449   3.623   4.580  10.046
  320TIP3   OH222450   3.920   4.520  10.092
  320TIP3    H122451   3.865   4.600  10.096
  320TIP3    H222452   3.884   4.471  10.016
  321TIP3   OH222453   2.980   4.174  10.007
  321TIP3    H122454   2.976   4.088  10.048
  321TIP3    H222455   2.926   4.232  10.061
  322TIP3   OH222456   4.561   4.829   9.958
  322TIP3    H122457   4.624   4.837  10.030
  322TIP3    H222458   4.476   4.848   9.997
  323TIP3   OH222459   5.072   4.181   9.994
  323TIP3    H122460   5.077   4.277   9.975
  323TIP3    H222461   4.982   4.175  10.029
  324TIP3   OH222462   5.293   3.718  10.000
  324TIP3    H122463   5.381   3.754   9.998
  324TIP3    H222464   5.237   3.793   9.976
  325TIP3   OH222465   2.496   4.297  10.057
  325TIP3    H122466   2.512   4.390  10.078
  325TIP3    H222467   2.425   4.301   9.990
  326TIP3   OH222468   2.212   4.186  10.176
  326TIP3    H122469   2.235   4.247  10.245
  326TIP3    H222470   2.269   4.212  10.103
  327TIP3   OH222471   2.224   4.496  10.064
  327TIP3    H122472   2.133   4.517  10.037
  327TIP3    H222473   2.234   4.550  10.143
  328TIP3   OH222474   4.705   2.414   9.983
  328TIP3    H122475   4.636   2.400   9.918
  328TIP3    H222476   4.696   2.502  10.020
  329TIP3   OH222477   4.261   2.241  10.101
  329TIP3    H122478   4.314   2.250  10.021
  329TIP3    H222479   4.183   2.291  10.081
  330TIP3   OH222480   4.459   2.593   9.896
  330TIP3    H122481   4.516   2.636   9.959
  330TIP3    H222482   4.434   2.664   9.837
  331TIP3   OH222483   4.203   5.510   9.933
  331TIP3    H122484   4.282   5.551   9.897
  331TIP3    H222485   4.195   5.425   9.886
  332TIP3   OH222486   5.449   4.514  10.112
  332TIP3    H122487   5.514   4.448  10.133
  332TIP3    H222488   5.441   4.509  10.015
  333TIP3   OH222489   5.185   4.409   9.994
  333TIP3    H122490   5.197   4.357  10.075
  333TIP3    H222491   5.196   4.342   9.926
  334TIP3   OH222492   5.495   4.312   9.883
  334TIP3    H122493   5.582   4.285   9.915
  334TIP3    H222494   5.435   4.245   9.914
  335TIP3   OH222495   4.398   1.606   9.997
  335TIP3    H122496   4.342   1.540   9.957
  335TIP3    H222497   4.407   1.675   9.932
  336TIP3   OH222498   4.124   1.834   9.971
  336TIP3    H122499   4.187   1.893  10.014
  336TIP3    H222500   4.108   1.765  10.036
  337TIP3   OH222501   1.372   3.281   9.966
  337TIP3    H122502   1.315   3.354   9.936
  337TIP3    H222503   1.309   3.210   9.953
  338TIP3   OH222504   1.256   3.715   9.941
  338TIP3    H122505   1.222   3.758  10.019
  338TIP3    H222506   1.350   3.744   9.939
  339TIP3   OH222507   2.321   5.946  10.084
  339TIP3    H122508   2.283   6.026  10.123
  339TIP3    H222509   2.414   5.971  10.070
  340TIP3   OH222510   2.253   5.500   9.910
  340TIP3    H122511   2.329   5.539   9.953
  340TIP3    H222512   2.204   5.578   9.879
  341TIP3   OH222513   2.204   5.711  10.182
  341TIP3    H122514   2.272   5.776  10.158
  341TIP3    H222515   2.149   5.707  10.104
  342TIP3   OH222516   6.089   2.220   9.987
  342TIP3    H122517   6.141   2.223  10.069
  342TIP3    H222518   6.115   2.133   9.954
  343TIP3   OH222519   5.828   2.644   9.967
  343TIP3    H122520   5.897   2.578   9.946
  343TIP3    H222521   5.776   2.634   9.887
  344TIP3   OH222522   6.345   3.090  10.119
  344TIP3    H122523   6.299   3.174  10.136
  344TIP3    H222524   6.291   3.041  10.059
  345TIP3   OH222525   5.997   3.315   9.931
  345TIP3    H122526   6.077   3.282   9.887
  345TIP3    H222527   5.960   3.237   9.973
  346TIP3   OH222528   6.165   3.325  10.150
  346TIP3    H122529   6.155   3.324  10.054
  346TIP3    H222530   6.116   3.405  10.173
  347TIP3   OH222531   6.543   4.185  10.146
  347TIP3    H122532   6.507   4.206  10.058
  347TIP3    H222533   6.469   4.192  10.206
  348TIP3   OH222534   6.459   3.901   9.897
  348TIP3    H122535   6.381   3.892   9.952
  348TIP3    H222536   6.510   3.822   9.911
  349TIP3   OH222537   6.410   4.369   9.908
  349TIP3    H122538   6.454   4.454   9.893
  349TIP3    H222539   6.379   4.347   9.820
  350TIP3   OH222540   6.739   4.426   9.922
  350TIP3    H122541   6.735   4.329   9.920
  350TIP3    H222542   6.813   4.446   9.977
  351TIP3   OH222543   4.596   0.697  10.091
  351TIP3    H122544   4.693   0.701  10.087
  351TIP3    H222545   4.571   0.747  10.011
  352TIP3   OH222546   4.749   1.004  10.060
  352TIP3    H122547   4.736   1.087  10.108
  352TIP3    H222548   4.843   0.984  10.074
  353TIP3   OH222549   0.555   4.208  10.023
  353TIP3    H122550   0.547   4.301  10.037
  353TIP3    H222551   0.484   4.169  10.074
  354TIP3   OH222552   1.670   1.485  10.024
  354TIP3    H122553   1.719   1.423   9.970
  354TIP3    H222554   1.649   1.438  10.104
  355TIP3   OH222555   1.611   1.137   9.996
  355TIP3    H122556   1.613   1.055   9.941
  355TIP3    H222557   1.656   1.196   9.938
  356TIP3   OH222558   2.070   1.219   9.960
  356TIP3    H122559   2.126   1.277  10.010
  356TIP3    H222560   2.134   1.166   9.910
  357TIP3   OH222561   2.964   0.486  10.122
  357TIP3    H122562   2.982   0.530  10.039
  357TIP3    H222563   2.868   0.470  10.120
  358TIP3   OH222564   3.299   0.630  10.002
  358TIP3    H122565   3.323   0.537  10.012
  358TIP3    H222566   3.368   0.673  10.054
  359TIP3   OH222567   1.136   5.507  10.014
  359TIP3    H122568   1.047   5.540  10.034
  359TIP3    H222569   1.144   5.436  10.080
  360TIP3   OH222570   1.455   5.852   9.903
  360TIP3    H122571   1.538   5.818   9.935
  360TIP3    H222572   1.414   5.769   9.869
  361TIP3   OH222573   6.997   3.475  10.082
  361TIP3    H122574   7.076   3.518  10.117
  361TIP3    H222575   6.939   3.477  10.159
  362TIP3   OH222576   6.848   3.076  10.047
  362TIP3    H122577   6.897   3.132   9.986
  362TIP3    H222578   6.890   3.090  10.132
  363TIP3   OH222579   1.597   6.575  10.087
  363TIP3    H122580   1.630   6.540  10.002
  363TIP3    H222581   1.606   6.501  10.147
  364TIP3   OH222582   0.438   4.722  10.026
  364TIP3    H122583   0.523   4.751  10.059
  364TIP3    H222584   0.411   4.656  10.091
  365TIP3   OH222585   0.035   4.912   9.998
  365TIP3    H122586   0.101   4.909   9.928
  365TIP3    H222587  -0.016   4.830   9.984
  366TIP3   OH222588   2.469   0.016   9.965
  366TIP3    H122589   2.495   0.046  10.051
  366TIP3    H222590   2.372  -0.003   9.985
  367TIP3   OH222591   2.863   7.042   9.926
  367TIP3    H122592   2.905   7.078  10.003
  367TIP3    H222593   2.835   7.121   9.877
  368TIP3   OH222594   2.853   0.105  10.014
  368TIP3    H122595   2.930   0.067  10.066
  368TIP3    H222596   2.859   0.054   9.933
  369TIP3   OH222597   2.778   0.028  10.246
  369TIP3    H122598   2.699   0.068  10.206
  369TIP3    H222599   2.780  -0.064  10.219
  370TIP3   OH222600   6.160   6.729  10.141
  370TIP3    H122601   6.234   6.737  10.203
  370TIP3    H222602   6.151   6.817  10.109
  371TIP3   OH222603   0.467   0.481   9.922
  371TIP3    H122604   0.428   0.398   9.896
  371TIP3    H222605   0.560   0.479   9.896
  372TIP3   OH222606   0.963   0.444  10.014
  372TIP3    H122607   0.999   0.531  10.035
  372TIP3    H222608   0.970   0.394  10.095
  373TIP3   OH222609   0.907   0.708   9.876
  373TIP3    H122610   0.970   0.784   9.875
  373TIP3    H222611   0.891   0.704   9.780
  374TIP3   OH222612   4.263   4.798   5.975
  374TIP3    H122613   4.187   4.776   6.033
  374TIP3    H222614   4.250   4.744   5.897
  375TIP3   OH222615   4.077   4.444   6.065
  375TIP3    H122616   3.986   4.419   6.077
  375TIP3    H222617   4.077   4.538   6.051
  376TIP3   OH222618   3.788   4.869   6.039
  376TIP3    H122619   3.790   4.949   5.987
  376TIP3    H222620   3.705   4.873   6.087
  377TIP3   OH222621   4.262   2.905   6.031
  377TIP3    H122622   4.269   2.813   6.058
  377TIP3    H222623   4.312   2.948   6.103
  378TIP3   OH222624   2.490   3.663   6.002
  378TIP3    H122625   2.506   3.754   6.035
  378TIP3    H222626   2.552   3.654   5.929
  379TIP3   OH222627   5.100   3.139   6.031
  379TIP3    H122628   5.009   3.165   6.046
  379TIP3    H222629   5.108   3.059   6.086
  380TIP3   OH222630   2.869   4.934   5.944
  380TIP3    H122631   2.816   4.999   5.896
  380TIP3    H222632   2.813   4.927   6.024
  381TIP3   OH222633   2.651   5.101   5.840
  381TIP3    H122634   2.581   5.088   5.773
  381TIP3    H222635   2.619   5.176   5.890
  382TIP3   OH222636   2.841   5.217   6.078
  382TIP3    H122637   2.828   5.125   6.105
  382TIP3    H222638   2.753   5.255   6.073
  383TIP3   OH222639   1.517   4.211   6.003
  383TIP3    H122640   1.533   4.124   6.043
  383TIP3    H222641   1.557   4.271   6.066
  384TIP3   OH222642   1.877   4.252   6.030
  384TIP3    H122643   1.852   4.332   5.984
  384TIP3    H222644   1.855   4.185   5.966
  385TIP3   OH222645   4.789   6.006   6.037
  385TIP3    H122646   4.698   5.975   6.026
  385TIP3    H222647   4.833   5.931   6.080
  386TIP3   OH222648   5.230   5.770   5.974
  386TIP3    H122649   5.309   5.763   6.028
  386TIP3    H222650   5.264   5.767   5.884
  387TIP3   OH222651   2.411   1.414   6.083
  387TIP3    H122652   2.317   1.400   6.080
  387TIP3    H222653   2.448   1.353   6.014
  388TIP3   OH222654   2.837   1.354   5.867
  388TIP3    H122655   2.930   1.340   5.879
  388TIP3    H222656   2.801   1.343   5.957
  389TIP3   OH222657   2.486   1.230   5.905
  389TIP3    H122658   2.523   1.140   5.910
  389TIP3    H222659   2.410   1.217   5.847
  390TIP3   OH222660   2.107   5.716   5.903
  390TIP3    H122661   2.076   5.679   5.988
  390TIP3    H222662   2.033   5.704   5.844
  391TIP3   OH222663   4.763   1.439   5.926
  391TIP3    H122664   4.673   1.457   5.896
  391TIP3    H222665   4.816   1.455   5.848
  392TIP3   OH222666   4.659   1.024   6.073
  392TIP3    H122667   4.744   0.986   6.051
  392TIP3    H222668   4.682   1.111   6.109
  393TIP3   OH222669   4.209   6.599   5.936
  393TIP3    H122670   4.229   6.548   5.856
  393TIP3    H222671   4.169   6.679   5.904
  394TIP3   OH222672   6.506   2.530   5.930
  394TIP3    H122673   6.476   2.584   6.004
  394TIP3    H222674   6.454   2.562   5.857
  395TIP3   OH222675   6.258   2.941   6.089
  395TIP3    H122676   6.198   2.990   6.147
  395TIP3    H222677   6.194   2.915   6.022
  396TIP3   OH222678   6.023   5.999   5.978
  396TIP3    H122679   5.955   5.985   6.045
  396TIP3    H222680   6.030   6.095   5.973
  397TIP3   OH222681   5.644   6.059   5.870
  397TIP3    H122682   5.620   6.054   5.964
  397TIP3    H222683   5.690   6.143   5.866
  398TIP3   OH222684   5.794   5.767   6.000
  398TIP3    H122685   5.801   5.791   5.906
  398TIP3    H222686   5.767   5.674   6.001
  399TIP3   OH222687   3.496   6.840   6.085
  399TIP3    H122688   3.449   6.758   6.101
  399TIP3    H222689   3.585   6.823   6.123
  400TIP3   OH222690   3.839   6.548   5.980
  400TIP3    H122691   3.823   6.625   6.036
  400TIP3    H222692   3.752   6.524   5.949
  401TIP3   OH222693   6.394   1.840   5.856
  401TIP3    H122694   6.348   1.907   5.806
  401TIP3    H222695   6.373   1.858   5.948
  402TIP3   OH222696   6.256   1.486   6.059
  402TIP3    H122697   6.311   1.459   5.985
  402TIP3    H222698   6.258   1.583   6.054
  403TIP3   OH222699   6.120   1.971   6.007
  403TIP3    H122700   6.048   2.027   6.038
  403TIP3    H222701   6.147   2.012   5.924
  404TIP3   OH222702   5.011   6.776   6.090
  404TIP3    H122703   5.037   6.843   6.154
  404TIP3    H222704   5.017   6.695   6.141
  405TIP3   OH222705   5.141   6.451   5.833
  405TIP3    H122706   5.185   6.368   5.856
  405TIP3    H222707   5.059   6.453   5.878
  406TIP3   OH222708   0.979   2.264   6.051
  406TIP3    H122709   0.935   2.183   6.082
  406TIP3    H222710   1.020   2.234   5.970
  407TIP3   OH222711   0.604   2.172   6.049
  407TIP3    H122712   0.681   2.115   6.068
  407TIP3    H222713   0.571   2.192   6.137
  408TIP3   OH222714   0.837   1.949   5.800
  408TIP3    H122715   0.778   1.924   5.728
  408TIP3    H222716   0.796   1.914   5.878
  409TIP3   OH222717   4.773   0.692   5.918
  409TIP3    H122718   4.760   0.631   5.992
  409TIP3    H222719   4.730   0.648   5.845
  410TIP3   OH222720   4.918   0.380   5.998
  410TIP3    H122721   4.934   0.412   5.909
  410TIP3    H222722   4.854   0.441   6.036
  411TIP3   OH222723   0.406   5.302   5.921
  411TIP3    H122724   0.318   5.323   5.950
  411TIP3    H222725   0.453   5.275   6.001
  412TIP3   OH222726   2.078   7.042   6.071
  412TIP3    H122727   2.040   6.985   6.001
  412TIP3    H222728   2.151   7.087   6.025
  413TIP3   OH222729   2.532   6.977   5.833
  413TIP3    H122730   2.442   7.015   5.839
  413TIP3    H222731   2.541   6.930   5.916
  414TIP3   OH222732   2.296   7.121   5.884
  414TIP3    H122733   2.261   7.208   5.863
  414TIP3    H222734   2.354   7.141   5.961
  415TIP3   OH222735   2.319  -0.005   6.199
  415TIP3    H122736   2.308   0.077   6.149
  415TIP3    H222737   2.313   0.026   6.290
  416TIP3   OH222738   5.680   0.741   6.833
  416TIP3    H122739   5.681   0.841   6.830
  416TIP3    H222740   5.775   0.747   6.844
  417TIP3   OH222741   5.844   1.239   6.465
  417TIP3    H122742   5.808   1.311   6.512
  417TIP3    H222743   5.763   1.181   6.456
  418TIP3   OH222744   6.386   0.893   6.002
  418TIP3    H122745   6.419   0.802   5.990
  418TIP3    H222746   6.447   0.927   6.068
  419TIP3   OH222747   6.152   0.946   5.820
  419TIP3    H122748   6.187   0.865   5.783
  419TIP3    H222749   6.165   0.930   5.915
  420TIP3   OH222750   5.580   0.876   6.654
  420TIP3    H122751   5.639   0.957   6.675
  420TIP3    H222752   5.618   0.891   6.569
  421TIP3   OH222753   6.038   0.703   6.011
  421TIP3    H122754   6.087   0.660   6.079
  421TIP3    H222755   5.949   0.665   6.016
  422TIP3   OH222756   5.675   6.811   6.072
  422TIP3    H122757   5.773   6.810   6.072
  422TIP3    H222758   5.651   6.866   5.998
  423TIP3   OH222759   7.166   1.889   6.126
  423TIP3    H122760   7.133   1.940   6.201
  423TIP3    H222761   7.261   1.889   6.132
  424TIP3   OH222762   0.175   1.944   5.975
  424TIP3    H122763   0.263   1.915   5.950
  424TIP3    H222764   0.190   2.030   6.013
  425TIP3   OH222765   0.284   1.522   5.999
  425TIP3    H122766   0.372   1.543   6.028
  425TIP3    H222767   0.228   1.590   6.040
  426TIP3   OH222768   5.841   0.055   6.125
  426TIP3    H122769   5.869   0.139   6.094
  426TIP3    H222770   5.777   0.025   6.060
  427TIP3   OH222771   6.901   7.140   5.932
  427TIP3    H122772   6.887   7.233   5.941
  427TIP3    H222773   6.864   7.101   6.013
  428TIP3   OH222774   6.478   6.994   6.008
  428TIP3    H122775   6.497   6.914   5.958
  428TIP3    H222776   6.394   7.024   5.972
  429TIP3   OH222777   1.180   1.011  10.674
  429TIP3    H122778   1.182   1.109  10.667
  429TIP3    H222779   1.110   0.988  10.611
  430TIP3   OH222780   1.067   0.938  11.022
  430TIP3    H122781   1.066   0.872  11.092
  430TIP3    H222782   1.035   0.889  10.945
  431TIP3   OH222783   0.306   0.903  11.176
  431TIP3    H122784   0.312   0.836  11.248
  431TIP3    H222785   0.378   0.962  11.199
  432TIP3   OH222786   1.438   1.232  10.850
  432TIP3    H122787   1.395   1.161  10.898
  432TIP3    H222788   1.438   1.304  10.916
  433TIP3   OH222789   0.394   1.349  11.030
  433TIP3    H122790   0.362   1.263  10.996
  433TIP3    H222791   0.490   1.330  11.034
  434TIP3   OH222792   0.079   0.707  10.560
  434TIP3    H122793   0.025   0.788  10.574
  434TIP3    H222794   0.009   0.654  10.525
  435TIP3   OH222795   0.130   0.927  10.788
  435TIP3    H122796   0.154   0.847  10.837
  435TIP3    H222797   0.202   0.936  10.725
  436TIP3   OH222798   1.149   1.747  10.873
  436TIP3    H122799   1.213   1.677  10.845
  436TIP3    H222800   1.129   1.717  10.961
  437TIP3   OH222801   0.905   1.179  11.066
  437TIP3    H122802   0.939   1.114  11.002
  437TIP3    H222803   0.984   1.193  11.121
  438TIP3   OH222804   1.769   0.341  11.143
  438TIP3    H122805   1.782   0.404  11.218
  438TIP3    H222806   1.820   0.387  11.075
  439TIP3   OH222807   1.222   0.624  11.099
  439TIP3    H122808   1.237   0.527  11.098
  439TIP3    H222809   1.212   0.639  11.003
  440TIP3   OH222810   0.536   0.435  10.822
  440TIP3    H122811   0.544   0.519  10.774
  440TIP3    H222812   0.493   0.377  10.755
  441TIP3   OH222813   1.308   0.441  10.658
  441TIP3    H122814   1.374   0.412  10.726
  441TIP3    H222815   1.362   0.498  10.602
  442TIP3   OH222816   0.199   0.672  10.890
  442TIP3    H122817   0.265   0.619  10.939
  442TIP3    H222818   0.208   0.641  10.800
  443TIP3   OH222819   0.712   0.829  10.825
  443TIP3    H122820   0.778   0.771  10.868
  443TIP3    H222821   0.659   0.763  10.777
  444TIP3   OH222822   1.811   0.485  11.369
  444TIP3    H122823   1.747   0.558  11.360
  444TIP3    H222824   1.814   0.473  11.464
  445TIP3   OH222825   0.423   0.325  11.227
  445TIP3    H122826   0.396   0.379  11.150
  445TIP3    H222827   0.353   0.347  11.293
  446TIP3   OH222828   1.155   1.272  10.580
  446TIP3    H122829   1.123   1.241  10.496
  446TIP3    H222830   1.123   1.364  10.587
  447TIP3   OH222831   0.677   1.088  11.252
  447TIP3    H122832   0.604   1.151  11.270
  447TIP3    H222833   0.747   1.148  11.222
  448TIP3   OH222834   1.488   0.375  10.857
  448TIP3    H122835   1.465   0.299  10.912
  448TIP3    H222836   1.554   0.419  10.912
  449TIP3   OH222837   0.378   0.508  11.026
  449TIP3    H122838   0.440   0.576  11.061
  449TIP3    H222839   0.434   0.466  10.956
  450TIP3   OH222840   0.519   1.286  11.332
  450TIP3    H122841   0.514   1.378  11.298
  450TIP3    H222842   0.430   1.279  11.376
  451TIP3   OH222843   0.128   1.254  10.410
  451TIP3    H122844   0.102   1.280  10.321
  451TIP3    H222845   0.134   1.337  10.461
  452TIP3   OH222846   1.490   1.416  11.086
  452TIP3    H122847   1.393   1.426  11.099
  452TIP3    H222848   1.517   1.508  11.068
  453TIP3   OH222849   1.523   0.245  11.230
  453TIP3    H122850   1.449   0.306  11.218
  453TIP3    H222851   1.592   0.285  11.173
  454TIP3   OH222852   0.847   0.072  10.969
  454TIP3    H122853   0.828  -0.022  10.969
  454TIP3    H222854   0.755   0.095  10.995
  455TIP3   OH222855   1.315   1.594  10.748
  455TIP3    H122856   1.360   1.523  10.698
  455TIP3    H222857   1.354   1.674  10.707
  456TIP3   OH222858   1.434   1.387  10.595
  456TIP3    H122859   1.407   1.314  10.538
  456TIP3    H222860   1.440   1.340  10.681
  457TIP3   OH222861   1.599   1.245  11.447
  457TIP3    H122862   1.614   1.181  11.373
  457TIP3    H222863   1.618   1.331  11.406
  458TIP3   OH222864   1.047   0.935  10.424
  458TIP3    H122865   0.976   0.990  10.387
  458TIP3    H222866   1.117   0.941  10.356
  459TIP3   OH222867   1.054   0.787  10.129
  459TIP3    H122868   1.127   0.785  10.192
  459TIP3    H222869   1.084   0.722  10.065
  460TIP3   OH222870   1.787   0.876  11.252
  460TIP3    H122871   1.720   0.948  11.258
  460TIP3    H222872   1.834   0.899  11.171
  461TIP3   OH222873   1.393   0.959  10.519
  461TIP3    H122874   1.317   0.981  10.577
  461TIP3    H222875   1.437   0.888  10.567
  462TIP3   OH222876   1.384   0.773  11.427
  462TIP3    H122877   1.386   0.854  11.481
  462TIP3    H222878   1.321   0.803  11.358
  463TIP3   OH222879   0.555   1.024  10.706
  463TIP3    H122880   0.519   0.983  10.623
  463TIP3    H222881   0.614   0.953  10.741
  464TIP3   OH222882   0.687   1.363  10.975
  464TIP3    H122883   0.683   1.308  10.896
  464TIP3    H222884   0.764   1.326  11.022
  465TIP3   OH222885   0.588   0.897  11.072
  465TIP3    H122886   0.644   0.909  10.993
  465TIP3    H222887   0.624   0.964  11.135
  466TIP3   OH222888   1.225   1.453  11.143
  466TIP3    H122889   1.198   1.517  11.210
  466TIP3    H222890   1.202   1.368  11.186
  467TIP3   OH222891   0.681   1.339  11.542
  467TIP3    H122892   0.643   1.416  11.590
  467TIP3    H222893   0.613   1.321  11.473
  468TIP3   OH222894   1.276   0.878  10.286
  468TIP3    H122895   1.336   0.894  10.362
  468TIP3    H222896   1.319   0.924  10.213
  469TIP3   OH222897   0.376   0.957  11.463
  469TIP3    H122898   0.379   1.026  11.533
  469TIP3    H222899   0.283   0.967  11.434
  470TIP3   OH222900   1.052   1.549  10.626
  470TIP3    H122901   1.095   1.579  10.708
  470TIP3    H222902   0.994   1.624  10.609
  471TIP3   OH222903   0.506   1.544  11.618
  471TIP3    H122904   0.499   1.533  11.521
  471TIP3    H222905   0.412   1.532  11.644
  472TIP3   OH222906   1.655   0.060  10.269
  472TIP3    H122907   1.560   0.060  10.296
  472TIP3    H222908   1.667   0.139  10.222
  473TIP3   OH222909   0.452   0.926  10.468
  473TIP3    H122910   0.424   1.004  10.416
  473TIP3    H222911   0.384   0.861  10.446
  474TIP3   OH222912   0.098   1.159  11.336
  474TIP3    H122913   0.024   1.163  11.271
  474TIP3    H222914   0.070   1.075  11.377
  475TIP3   OH222915   0.047   1.452  11.024
  475TIP3    H122916   0.138   1.427  11.036
  475TIP3    H222917   0.030   1.519  11.091
  476TIP3   OH222918   1.859   1.511  11.604
  476TIP3    H122919   1.849   1.415  11.602
  476TIP3    H222920   1.772   1.536  11.644
  477TIP3   OH222921   0.955   1.466  11.491
  477TIP3    H122922   0.962   1.550  11.541
  477TIP3    H222923   0.868   1.431  11.516
  478TIP3   OH222924   0.998   1.839  10.471
  478TIP3    H122925   0.988   1.835  10.374
  478TIP3    H222926   0.999   1.936  10.487
  479TIP3   OH222927   0.363   1.727  10.651
  479TIP3    H122928   0.377   1.686  10.739
  479TIP3    H222929   0.278   1.686  10.627
  480TIP3   OH222930   1.272   1.750  10.445
  480TIP3    H122931   1.178   1.764  10.468
  480TIP3    H222932   1.300   1.682  10.507
  481TIP3   OH222933   1.573   0.659  11.653
  481TIP3    H122934   1.528   0.705  11.580
  481TIP3    H222935   1.574   0.568  11.621
  482TIP3   OH222936   0.288   1.302  11.453
  482TIP3    H122937   0.306   1.262  11.540
  482TIP3    H222938   0.202   1.261  11.429
  483TIP3   OH222939   0.549   0.160  11.052
  483TIP3    H122940   0.462   0.141  11.011
  483TIP3    H222941   0.538   0.240  11.100
  484TIP3   OH222942   1.018   0.115  11.387
  484TIP3    H122943   1.057   0.074  11.464
  484TIP3    H222944   0.922   0.101  11.401
  485TIP3   OH222945   1.349   0.494  11.474
  485TIP3    H122946   1.293   0.478  11.553
  485TIP3    H222947   1.332   0.587  11.450
  486TIP3   OH222948   0.564   0.642  11.168
  486TIP3    H122949   0.492   0.641  11.235
  486TIP3    H222950   0.560   0.735  11.136
  487TIP3   OH222951   0.563   0.657  10.659
  487TIP3    H122952   0.469   0.631  10.644
  487TIP3    H222953   0.600   0.626  10.574
  488TIP3   OH222954   1.111   0.703  10.534
  488TIP3    H122955   1.073   0.788  10.504
  488TIP3    H222956   1.183   0.693  10.472
  489TIP3   OH222957   1.021   0.726  11.681
  489TIP3    H122958   0.966   0.650  11.712
  489TIP3    H222959   1.104   0.712  11.728
  490TIP3   OH222960   1.216   0.653  10.819
  490TIP3    H122961   1.190   0.710  10.744
  490TIP3    H222962   1.228   0.569  10.772
  491TIP3   OH222963   0.332   0.670  11.343
  491TIP3    H122964   0.332   0.711  11.431
  491TIP3    H222965   0.283   0.587  11.359
  492TIP3   OH222966   0.010   0.394  10.727
  492TIP3    H122967   0.062   0.377  10.808
  492TIP3    H222968   0.046   0.340  10.658
  493TIP3   OH222969   0.141   0.447  10.314
  493TIP3    H122970   0.176   0.494  10.235
  493TIP3    H222971   0.060   0.499  10.311
  494TIP3   OH222972   1.138   0.814  11.278
  494TIP3    H122973   1.174   0.746  11.218
  494TIP3    H222974   1.092   0.760  11.345
  495TIP3   OH222975   0.817   0.408  10.759
  495TIP3    H122976   0.723   0.409  10.790
  495TIP3    H222977   0.866   0.398  10.842
  496TIP3   OH222978   0.304   0.565  10.645
  496TIP3    H122979   0.214   0.582  10.608
  496TIP3    H222980   0.328   0.481  10.604
  497TIP3   OH222981   0.663   0.571  10.409
  497TIP3    H122982   0.758   0.582  10.424
  497TIP3    H222983   0.638   0.637  10.341
  498TIP3   OH222984   1.258   0.332  11.084
  498TIP3    H122985   1.189   0.341  11.153
  498TIP3    H222986   1.207   0.311  11.005
  499TIP3   OH222987   0.537   0.696  10.166
  499TIP3    H122988   0.477   0.648  10.103
  499TIP3    H222989   0.617   0.706  10.117
  500TIP3   OH222990   1.580   1.898  11.716
  500TIP3    H122991   1.605   1.938  11.631
  500TIP3    H222992   1.651   1.931  11.773
  501TIP3   OH222993   0.347   1.144  11.672
  501TIP3    H122994   0.418   1.170  11.733
  501TIP3    H222995   0.269   1.160  11.731
  502TIP3   OH222996   0.946   0.685  10.949
  502TIP3    H122997   1.005   0.630  10.895
  502TIP3    H222998   0.932   0.632  11.028
  503TIP3   OH222999   0.449   0.302  10.595
  503TIP3    H123000   0.414   0.211  10.591
  503TIP3    H223001   0.525   0.297  10.535
  504TIP3   OH223002   0.810   0.520  11.190
  504TIP3    H123003   0.727   0.570  11.200
  504TIP3    H223004   0.865   0.553  11.264
  505TIP3   OH223005   0.867   1.145  10.360
  505TIP3    H123006   0.789   1.094  10.327
  505TIP3    H223007   0.848   1.151  10.455
  506TIP3   OH223008   1.585   1.060  11.240
  506TIP3    H123009   1.643   1.108  11.179
  506TIP3    H223010   1.499   1.068  11.193
  507TIP3   OH223011   1.017   1.166  11.484
  507TIP3    H123012   0.983   1.125  11.564
  507TIP3    H223013   0.994   1.259  11.493
  508TIP3   OH223014   0.380   1.080  10.939
  508TIP3    H123015   0.449   1.073  10.872
  508TIP3    H223016   0.385   0.994  10.984
  509TIP3   OH223017   0.101   0.901  11.443
  509TIP3    H123018   0.108   0.878  11.538
  509TIP3    H223019   0.017   0.859  11.421
  510TIP3   OH223020   0.780   0.877  11.686
  510TIP3    H123021   0.749   0.850  11.598
  510TIP3    H223022   0.873   0.847  11.685
  511TIP3   OH223023   1.246   1.410  11.478
  511TIP3    H123024   1.154   1.429  11.455
  511TIP3    H223025   1.245   1.439  11.571
  512TIP3   OH223026   1.813   1.215  11.600
  512TIP3    H123027   1.725   1.237  11.562
  512TIP3    H223028   1.869   1.211  11.520
  513TIP3   OH223029   1.647   1.511  10.361
  513TIP3    H123030   1.608   1.429  10.393
  513TIP3    H223031   1.673   1.496  10.269
  514TIP3   OH223032   1.364   0.994  11.067
  514TIP3    H123033   1.269   0.971  11.059
  514TIP3    H223034   1.407   0.916  11.027
  515TIP3   OH223035   0.617   1.426  10.679
  515TIP3    H123036   0.667   1.506  10.657
  515TIP3    H223037   0.528   1.449  10.648
  516TIP3   OH223038   0.200   0.920  10.159
  516TIP3    H123039   0.263   0.988  10.178
  516TIP3    H223040   0.111   0.948  10.171
  517TIP3   OH223041   0.759   1.193  10.630
  517TIP3    H123042   0.729   1.286  10.639
  517TIP3    H223043   0.686   1.145  10.674
  518TIP3   OH223044   0.805   1.610  11.269
  518TIP3    H123045   0.848   1.693  11.242
  518TIP3    H223046   0.864   1.578  11.339
  519TIP3   OH223047   0.628   1.690  10.590
  519TIP3    H123048   0.532   1.705  10.598
  519TIP3    H223049   0.662   1.777  10.619
  520TIP3   OH223050   1.159   1.213  11.234
  520TIP3    H123051   1.122   1.193  11.322
  520TIP3    H223052   1.221   1.141  11.217
  521TIP3   OH223053   1.435   1.670  11.483
  521TIP3    H123054   1.368   1.619  11.433
  521TIP3    H223055   1.456   1.739  11.417
  522TIP3   OH223056   1.840   1.757  10.172
  522TIP3    H123057   1.908   1.820  10.147
  522TIP3    H223058   1.763   1.814  10.191
  523TIP3   OH223059   0.243   0.394  11.421
  523TIP3    H123060   0.153   0.429  11.420
  523TIP3    H223061   0.230   0.308  11.466
  524TIP3   OH223062   1.466   1.181  10.366
  524TIP3    H123063   1.443   1.103  10.420
  524TIP3    H223064   1.561   1.186  10.384
  525TIP3   OH223065   0.209   1.577  11.262
  525TIP3    H123066   0.230   1.482  11.264
  525TIP3    H223067   0.230   1.602  11.353
  526TIP3   OH223068   0.684   1.380  10.233
  526TIP3    H123069   0.705   1.325  10.309
  526TIP3    H223070   0.688   1.470  10.267
  527TIP3   OH223071   0.332   1.103  10.286
  527TIP3    H123072   0.263   1.142  10.344
  527TIP3    H223073   0.385   1.180  10.261
  528TIP3   OH223074   1.116   0.370  11.315
  528TIP3    H123075   1.187   0.377  11.381
  528TIP3    H223076   1.078   0.281  11.333
  529TIP3   OH223077   1.198   0.331  10.421
  529TIP3    H123078   1.214   0.384  10.341
  529TIP3    H223079   1.248   0.376  10.490
  530TIP3   OH223080   0.913   0.503  10.506
  530TIP3    H123081   0.993   0.560  10.510
  530TIP3    H223082   0.888   0.493  10.600
  531TIP3   OH223083   0.969   0.606  11.425
  531TIP3    H123084   0.977   0.663  11.504
  531TIP3    H223085   1.034   0.536  11.437
  532TIP3   OH223086   1.002   0.212  10.599
  532TIP3    H123087   0.967   0.277  10.663
  532TIP3    H223088   1.067   0.267  10.551
  533TIP3   OH223089   0.569   0.317  10.268
  533TIP3    H123090   0.559   0.409  10.302
  533TIP3    H223091   0.662   0.300  10.291
  534TIP3   OH223092   1.588   0.393  11.511
  534TIP3    H123093   1.495   0.424  11.498
  534TIP3    H223094   1.619   0.393  11.418
  535TIP3   OH223095   1.448   0.773  10.915
  535TIP3    H123096   1.366   0.729  10.885
  535TIP3    H223097   1.495   0.703  10.966
  536TIP3   OH223098   0.389   1.365  10.172
  536TIP3    H123099   0.454   1.429  10.203
  536TIP3    H223100   0.441   1.321  10.102
  537TIP3   OH223101   0.308   0.574  10.124
  537TIP3    H123102   0.274   0.671  10.121
  537TIP3    H223103   0.221   0.568  10.070
  538TIP3   OH223104   1.555   1.697  11.080
  538TIP3    H123105   1.544   1.766  11.011
  538TIP3    H223106   1.651   1.704  11.098
  539TIP3   OH223107   0.287   0.125  10.959
  539TIP3    H123108   0.285   0.114  10.861
  539TIP3    H223109   0.268   0.033  10.985
  540TIP3   OH223110   0.203   1.502  10.576
  540TIP3    H123111   0.117   1.546  10.571
  540TIP3    H223112   0.250   1.552  10.507
  541TIP3   OH223113   0.135   1.768  11.701
  541TIP3    H123114   0.185   1.743  11.781
  541TIP3    H223115   0.081   1.687  11.686
  542TIP3   OH223116   0.589   1.658  11.864
  542TIP3    H123117   0.665   1.609  11.897
  542TIP3    H223118   0.585   1.632  11.770
  543TIP3   OH223119   1.241   1.497  11.738
  543TIP3    H123120   1.209   1.409  11.764
  543TIP3    H223121   1.317   1.509  11.798
  544TIP3   OH223122   0.126   1.145  11.798
  544TIP3    H123123   0.131   1.052  11.772
  544TIP3    H223124   0.042   1.174  11.756
  545TIP3   OH223125   0.784   1.144  11.741
  545TIP3    H123126   0.750   1.173  11.654
  545TIP3    H223127   0.794   1.046  11.731
  546TIP3   OH223128   1.354   1.131  11.480
  546TIP3    H123129   1.432   1.191  11.471
  546TIP3    H223130   1.282   1.195  11.484
  547TIP3   OH223131   0.198   0.866  11.739
  547TIP3    H123132   0.245   0.781  11.731
  547TIP3    H223133   0.181   0.868  11.834
  548TIP3   OH223134   0.672   0.978  10.247
  548TIP3    H123135   0.616   0.929  10.308
  548TIP3    H223136   0.692   0.913  10.178
  549TIP3   OH223137   0.594   0.763  11.477
  549TIP3    H123138   0.533   0.834  11.503
  549TIP3    H223139   0.632   0.799  11.395
  550TIP3   OH223140   1.100   1.018  11.808
  550TIP3    H123141   1.196   1.020  11.800
  550TIP3    H223142   1.083   0.942  11.866
  551TIP3   OH223143   0.634   0.500  11.584
  551TIP3    H123144   0.646   0.428  11.520
  551TIP3    H223145   0.628   0.581  11.528
  552TIP3   OH223146   0.671   0.345  11.337
  552TIP3    H123147   0.726   0.386  11.266
  552TIP3    H223148   0.585   0.327  11.294
  553TIP3   OH223149   0.829   0.885  11.361
  553TIP3    H123150   0.904   0.869  11.303
  553TIP3    H223151   0.793   0.970  11.329
  554TIP3   OH223152   1.269   0.663  11.859
  554TIP3    H123153   1.291   0.570  11.849
  554TIP3    H223154   1.356   0.707  11.861
  555TIP3   OH223155   1.401   0.941  11.672
  555TIP3    H123156   1.376   1.014  11.612
  555TIP3    H223157   1.497   0.938  11.654
  556TIP3   OH223158   0.477   0.626  11.774
  556TIP3    H123159   0.401   0.567  11.756
  556TIP3    H223160   0.545   0.589  11.714
  557TIP3   OH223161   0.753   0.105  11.379
  557TIP3    H123162   0.734   0.199  11.365
  557TIP3    H223163   0.681   0.055  11.335
  558TIP3   OH223164   0.880   0.516  11.737
  558TIP3    H123165   0.851   0.490  11.826
  558TIP3    H223166   0.800   0.495  11.684
  559TIP3   OH223167   1.151   0.433  11.646
  559TIP3    H123168   1.055   0.433  11.658
  559TIP3    H223169   1.179   0.366  11.712
  560TIP3   OH223170   1.313   0.297  11.840
  560TIP3    H123171   1.304   0.198  11.839
  560TIP3    H223172   1.283   0.320  11.929
  561TIP3   OH223173   0.294   0.416  11.748
  561TIP3    H123174   0.316   0.342  11.688
  561TIP3    H223175   0.284   0.370  11.833
  562TIP3   OH223176   0.789   7.391  11.657
  562TIP3    H123177   0.831   7.302  11.655
  562TIP3    H223178   0.762   7.384  11.563
  563TIP3   OH223179   0.812   0.190  11.860
  563TIP3    H123180   0.799   0.135  11.778
  563TIP3    H223181   0.749   0.261  11.844
  564TIP3   OH223182   0.120   1.331  10.123
  564TIP3    H123183   0.215   1.342  10.143
  564TIP3    H223184   0.121   1.270  10.049
  565TIP3   OH223185   7.355   1.878  10.609
  565TIP3    H123186   7.270   1.845  10.574
  565TIP3    H223187   7.370   1.812  10.682
  566TIP3   OH223188   0.069   1.686  10.802
  566TIP3    H123189   0.040   1.595  10.825
  566TIP3    H223190   0.098   1.715  10.891
  567TIP3   OH223191   1.827   1.763  11.100
  567TIP3    H123192   1.829   1.780  11.196
  567TIP3    H223193   1.897   1.820  11.069
  568TIP3   OH223194   1.784   1.722  11.394
  568TIP3    H123195   1.737   1.645  11.357
  568TIP3    H223196   1.836   1.678  11.464
  569TIP3   OH223197   1.629   1.296  11.860
  569TIP3    H123198   1.539   1.290  11.898
  569TIP3    H223199   1.666   1.375  11.903
  570TIP3   OH223200   1.758   1.124  10.406
  570TIP3    H123201   1.844   1.166  10.424
  570TIP3    H223202   1.760   1.052  10.473
  571TIP3   OH223203   1.799   0.931  10.590
  571TIP3    H123204   1.723   0.884  10.631
  571TIP3    H223205   1.856   0.950  10.667
  572TIP3   OH223206   1.773   1.205  11.090
  572TIP3    H123207   1.855   1.168  11.055
  572TIP3    H223208   1.787   1.301  11.075
  573TIP3   OH223209   1.627   1.495  11.318
  573TIP3    H123210   1.558   1.529  11.378
  573TIP3    H223211   1.572   1.454  11.248
  574TIP3   OH223212   1.827   0.919  10.232
  574TIP3    H123213   1.773   0.956  10.161
  574TIP3    H223214   1.822   0.989  10.298
  575TIP3   OH223215   1.580   0.781  10.648
  575TIP3    H123216   1.562   0.686  10.648
  575TIP3    H223217   1.544   0.807  10.735
  576TIP3   OH223218   0.078   0.990  11.052
  576TIP3    H123219   0.097   0.984  10.956
  576TIP3    H223220   0.166   0.976  11.091
  577TIP3   OH223221   1.663   0.979  11.616
  577TIP3    H123222   1.724   0.904  11.632
  577TIP3    H223223   1.723   1.057  11.618
  578TIP3   OH223224   1.814   0.769  11.683
  578TIP3    H123225   1.726   0.728  11.666
  578TIP3    H223226   1.872   0.691  11.675
  579TIP3   OH223227   1.545   0.540  10.490
  579TIP3    H123228   1.574   0.448  10.508
  579TIP3    H223229   1.624   0.585  10.463
  580TIP3   OH223230   1.609   0.597  11.038
  580TIP3    H123231   1.705   0.619  11.037
  580TIP3    H223232   1.589   0.608  11.133
  581TIP3   OH223233   1.615   0.669  11.317
  581TIP3    H123234   1.527   0.697  11.351
  581TIP3    H223235   1.658   0.755  11.295
  582TIP3   OH223236   0.057   0.513  11.668
  582TIP3    H123237   0.147   0.492  11.694
  582TIP3    H223238   0.000   0.440  11.702
  583TIP3   OH223239   1.846   0.070  11.853
  583TIP3    H123240   1.875   0.005  11.789
  583TIP3    H223241   1.852   0.154  11.804
  584TIP3   OH223242   1.613   0.268  10.497
  584TIP3    H123243   1.629   0.222  10.584
  584TIP3    H223244   1.549   0.204  10.457
  585TIP3   OH223245   0.157   0.351  10.954
  585TIP3    H123246   0.207   0.271  10.981
  585TIP3    H223247   0.213   0.418  10.996
  586TIP3   OH223248   0.063   0.694  11.097
  586TIP3    H123249   0.059   0.658  11.005
  586TIP3    H223250   0.034   0.782  11.078
  587TIP3   OH223251   1.797   0.280  11.686
  587TIP3    H123252   1.703   0.307  11.682
  587TIP3    H223253   1.801   0.225  11.607
  588TIP3   OH223254   0.061   0.260  10.445
  588TIP3    H123255  -0.032   0.292  10.444
  588TIP3    H223256   0.089   0.331  10.384
  589TIP3   OH223257   1.499   1.769  10.663
  589TIP3    H123258   1.566   1.740  10.599
  589TIP3    H223259   1.552   1.822  10.725
  590TIP3   OH223260   7.375   0.142  11.308
  590TIP3    H123261   7.301   0.119  11.364
  590TIP3    H223262   7.324   0.198  11.247
  591TIP3   OH223263   0.244   1.464  11.715
  591TIP3    H123264   0.161   1.482  11.669
  591TIP3    H223265   0.215   1.454  11.806
  592TIP3   OH223266   0.535   1.562  11.341
  592TIP3    H123267   0.496   1.646  11.312
  592TIP3    H223268   0.627   1.572  11.309
  593TIP3   OH223269   0.966   1.704  11.632
  593TIP3    H123270   0.982   1.669  11.723
  593TIP3    H223271   1.055   1.734  11.605
  594TIP3   OH223272   1.196   1.831  11.561
  594TIP3    H123273   1.269   1.771  11.537
  594TIP3    H223274   1.234   1.873  11.641
  595TIP3   OH223275   1.698   0.094  11.469
  595TIP3    H123276   1.614   0.125  11.431
  595TIP3    H223277   1.715   0.013  11.418
  596TIP3   OH223278   0.278   1.887  11.343
  596TIP3    H123279   0.203   1.933  11.301
  596TIP3    H223280   0.241   1.865  11.430
  597TIP3   OH223281   0.524   1.845  11.248
  597TIP3    H123282   0.435   1.857  11.288
  597TIP3    H223283   0.518   1.903  11.169
  598TIP3   OH223284   0.994   1.835  11.165
  598TIP3    H123285   0.948   1.890  11.100
  598TIP3    H223286   1.008   1.898  11.238
  599TIP3   OH223287   1.225   1.718  11.264
  599TIP3    H123288   1.137   1.743  11.231
  599TIP3    H223289   1.270   1.804  11.255
  600TIP3   OH223290   1.483   1.875  11.290
  600TIP3    H123291   1.473   1.971  11.267
  600TIP3    H223292   1.503   1.838  11.202
  601TIP3   OH223293   0.218   1.751  11.033
  601TIP3    H123294   0.216   1.707  11.121
  601TIP3    H223295   0.300   1.714  10.995
  602TIP3   OH223296   0.430   1.622  10.901
  602TIP3    H123297   0.412   1.528  10.922
  602TIP3    H223298   0.516   1.636  10.946
  603TIP3   OH223299   0.688   1.670  10.987
  603TIP3    H123300   0.706   1.578  10.959
  603TIP3    H223301   0.694   1.664  11.083
  604TIP3   OH223302   1.034   0.241  10.899
  604TIP3    H123303   0.970   0.172  10.928
  604TIP3    H223304   1.093   0.187  10.845
  605TIP3   OH223305   1.549   0.044  10.912
  605TIP3    H123306   1.610   0.098  10.857
  605TIP3    H223307   1.462   0.076  10.886
  606TIP3   OH223308   1.718   0.164  10.737
  606TIP3    H123309   1.786   0.107  10.697
  606TIP3    H223310   1.766   0.248  10.749
  607TIP3   OH223311   0.279   0.104  10.672
  607TIP3    H123312   0.193   0.075  10.637
  607TIP3    H223313   0.317   0.016  10.687
  608TIP3   OH223314   0.160   0.117  10.206
  608TIP3    H123315   0.225   0.183  10.192
  608TIP3    H223316   0.108   0.139  10.289
  609TIP3   OH223317   0.748   0.129  10.695
  609TIP3    H123318   0.842   0.131  10.671
  609TIP3    H223319   0.732   0.066  10.766
  610TIP3   OH223320   1.273   0.114  10.833
  610TIP3    H123321   1.287   0.111  10.737
  610TIP3    H223322   1.259   0.016  10.845
  611TIP3   OH223323   1.417   0.098  10.401
  611TIP3    H123324   1.344   0.157  10.374
  611TIP3    H223325   1.374   0.012  10.409
  612TIP3   OH223326   0.171   1.655  10.369
  612TIP3    H123327   0.092   1.643  10.309
  612TIP3    H223328   0.155   1.748  10.391
  613TIP3   OH223329   0.337   0.268  10.105
  613TIP3    H123330   0.389   0.209  10.055
  613TIP3    H223331   0.400   0.303  10.171
  614TIP3   OH223332   0.832   0.293  10.353
  614TIP3    H123333   0.864   0.235  10.423
  614TIP3    H223334   0.840   0.380  10.399
  615TIP3   OH223335   1.033   1.787  10.195
  615TIP3    H123336   1.116   1.832  10.174
  615TIP3    H223337   1.005   1.754  10.110
  616TIP3   OH223338   1.700   1.752  10.463
  616TIP3    H123339   1.679   1.674  10.406
  616TIP3    H223340   1.690   1.824  10.399
  617TIP3   OH223341   0.254   0.156  11.632
  617TIP3    H123342   0.224   0.074  11.674
  617TIP3    H223343   0.349   0.151  11.662
  618TIP3   OH223344   0.444   0.105  11.783
  618TIP3    H123345   0.538   0.076  11.773
  618TIP3    H223346   0.425   0.020  11.829
  619TIP3   OH223347   1.299   7.384  11.806
  619TIP3    H123348   1.306   7.323  11.883
  619TIP3    H223349   1.387   7.363  11.771
  620TIP3   OH223350   1.623   1.623  11.674
  620TIP3    H123351   1.542   1.609  11.621
  620TIP3    H223352   1.612   1.718  11.696
  621TIP3   OH223353   3.066   1.011  10.672
  621TIP3    H123354   3.069   1.109  10.668
  621TIP3    H223355   2.995   0.989  10.612
  622TIP3   OH223356   2.954   0.938  11.021
  622TIP3    H123357   2.951   0.873  11.092
  622TIP3    H223358   2.920   0.889  10.945
  623TIP3   OH223359   2.190   0.903  11.177
  623TIP3    H123360   2.197   0.837  11.248
  623TIP3    H223361   2.263   0.962  11.199
  624TIP3   OH223362   3.323   1.232  10.849
  624TIP3    H123363   3.281   1.161  10.898
  624TIP3    H223364   3.324   1.304  10.916
  625TIP3   OH223365   2.282   1.349  11.030
  625TIP3    H123366   2.249   1.263  10.995
  625TIP3    H223367   2.377   1.330  11.034
  626TIP3   OH223368   1.947   0.707  10.573
  626TIP3    H123369   1.903   0.795  10.572
  626TIP3    H223370   1.886   0.653  10.524
  627TIP3   OH223371   2.015   0.926  10.786
  627TIP3    H123372   2.041   0.848  10.837
  627TIP3    H223373   2.089   0.938  10.724
  628TIP3   OH223374   3.035   1.747  10.872
  628TIP3    H123375   3.099   1.677  10.845
  628TIP3    H223376   3.014   1.717  10.961
  629TIP3   OH223377   2.791   1.179  11.066
  629TIP3    H123378   2.825   1.114  11.002
  629TIP3    H223379   2.870   1.193  11.121
  630TIP3   OH223380   3.655   0.341  11.143
  630TIP3    H123381   3.667   0.404  11.218
  630TIP3    H223382   3.706   0.386  11.075
  631TIP3   OH223383   3.108   0.624  11.099
  631TIP3    H123384   3.123   0.527  11.098
  631TIP3    H223385   3.097   0.639  11.003
  632TIP3   OH223386   2.420   0.434  10.821
  632TIP3    H123387   2.429   0.519  10.775
  632TIP3    H223388   2.377   0.377  10.755
  633TIP3   OH223389   3.192   0.445  10.663
  633TIP3    H123390   3.260   0.410  10.726
  633TIP3    H223391   3.247   0.496  10.602
  634TIP3   OH223392   2.083   0.675  10.896
  634TIP3    H123393   2.149   0.618  10.942
  634TIP3    H223394   2.091   0.643  10.805
  635TIP3   OH223395   2.598   0.829  10.824
  635TIP3    H123396   2.664   0.773  10.868
  635TIP3    H223397   2.545   0.762  10.777
  636TIP3   OH223398   3.696   0.485  11.369
  636TIP3    H123399   3.632   0.558  11.360
  636TIP3    H223400   3.700   0.473  11.464
  637TIP3   OH223401   2.309   0.326  11.227
  637TIP3    H123402   2.280   0.379  11.151
  637TIP3    H223403   2.239   0.346  11.293
  638TIP3   OH223404   3.039   1.270  10.583
  638TIP3    H123405   3.013   1.244  10.493
  638TIP3    H223406   3.009   1.364  10.588
  639TIP3   OH223407   2.562   1.088  11.252
  639TIP3    H123408   2.490   1.152  11.270
  639TIP3    H223409   2.632   1.147  11.222
  640TIP3   OH223410   3.373   0.375  10.857
  640TIP3    H123411   3.351   0.299  10.912
  640TIP3    H223412   3.440   0.419  10.912
  641TIP3   OH223413   2.264   0.511  11.025
  641TIP3    H123414   2.328   0.577  11.061
  641TIP3    H223415   2.318   0.466  10.957
  642TIP3   OH223416   2.405   1.287  11.333
  642TIP3    H123417   2.401   1.378  11.298
  642TIP3    H223418   2.317   1.280  11.377
  643TIP3   OH223419   2.014   1.250  10.412
  643TIP3    H123420   1.985   1.280  10.324
  643TIP3    H223421   2.020   1.335  10.461
  644TIP3   OH223422   3.376   1.416  11.086
  644TIP3    H123423   3.279   1.426  11.099
  644TIP3    H223424   3.403   1.508  11.068
  645TIP3   OH223425   3.408   0.245  11.230
  645TIP3    H123426   3.334   0.306  11.218
  645TIP3    H223427   3.477   0.285  11.173
  646TIP3   OH223428   2.732   0.071  10.968
  646TIP3    H123429   2.713  -0.023  10.968
  646TIP3    H223430   2.641   0.096  10.995
  647TIP3   OH223431   3.203   1.594  10.748
  647TIP3    H123432   3.244   1.522  10.695
  647TIP3    H223433   3.239   1.673  10.705
  648TIP3   OH223434   3.322   1.386  10.597
  648TIP3    H123435   3.292   1.317  10.536
  648TIP3    H223436   3.324   1.339  10.682
  649TIP3   OH223437   3.485   1.245  11.447
  649TIP3    H123438   3.499   1.181  11.373
  649TIP3    H223439   3.503   1.331  11.405
  650TIP3   OH223440   2.930   0.931  10.420
  650TIP3    H123441   2.864   0.993  10.388
  650TIP3    H223442   3.005   0.947  10.358
  651TIP3   OH223443   2.940   0.788  10.125
  651TIP3    H123444   3.018   0.797  10.181
  651TIP3    H223445   2.970   0.725  10.056
  652TIP3   OH223446   3.672   0.876  11.252
  652TIP3    H123447   3.606   0.948  11.258
  652TIP3    H223448   3.720   0.899  11.171
  653TIP3   OH223449   3.273   0.953  10.513
  653TIP3    H123450   3.204   0.983  10.576
  653TIP3    H223451   3.325   0.891  10.567
  654TIP3   OH223452   3.270   0.773  11.427
  654TIP3    H123453   3.271   0.854  11.481
  654TIP3    H223454   3.206   0.803  11.358
  655TIP3   OH223455   2.438   1.023  10.707
  655TIP3    H123456   2.406   0.983  10.625
  655TIP3    H223457   2.501   0.955  10.742
  656TIP3   OH223458   2.572   1.363  10.976
  656TIP3    H123459   2.569   1.308  10.897
  656TIP3    H223460   2.650   1.326  11.022
  657TIP3   OH223461   2.473   0.897  11.072
  657TIP3    H123462   2.531   0.909  10.995
  657TIP3    H223463   2.510   0.964  11.135
  658TIP3   OH223464   3.111   1.453  11.143
  658TIP3    H123465   3.084   1.517  11.210
  658TIP3    H223466   3.087   1.368  11.186
  659TIP3   OH223467   2.567   1.339  11.542
  659TIP3    H123468   2.528   1.416  11.590
  659TIP3    H223469   2.499   1.321  11.473
  660TIP3   OH223470   3.161   0.873  10.284
  660TIP3    H123471   3.219   0.893  10.362
  660TIP3    H223472   3.205   0.925  10.213
  661TIP3   OH223473   2.260   0.956  11.460
  661TIP3    H123474   2.264   1.023  11.532
  661TIP3    H223475   2.167   0.967  11.435
  662TIP3   OH223476   2.933   1.548  10.630
  662TIP3    H123477   2.982   1.579  10.708
  662TIP3    H223478   2.879   1.624  10.606
  663TIP3   OH223479   2.391   1.545  11.618
  663TIP3    H123480   2.387   1.533  11.522
  663TIP3    H223481   2.297   1.532  11.644
  664TIP3   OH223482   1.946   1.168  11.355
  664TIP3    H123483   1.899   1.160  11.270
  664TIP3    H223484   1.951   1.073  11.379
  665TIP3   OH223485   1.922   1.441  11.036
  665TIP3    H123486   2.017   1.429  11.034
  665TIP3    H223487   1.913   1.522  11.088
  666TIP3   OH223488   3.745   1.511  11.604
  666TIP3    H123489   3.734   1.415  11.602
  666TIP3    H223490   3.658   1.536  11.644
  667TIP3   OH223491   2.841   1.466  11.491
  667TIP3    H123492   2.848   1.550  11.541
  667TIP3    H223493   2.753   1.431  11.516
  668TIP3   OH223494   2.883   1.842  10.472
  668TIP3    H123495   2.870   1.832  10.378
  668TIP3    H223496   2.883   1.938  10.488
  669TIP3   OH223497   2.247   1.728  10.653
  669TIP3    H123498   2.262   1.686  10.740
  669TIP3    H223499   2.163   1.687  10.627
  670TIP3   OH223500   3.160   1.759  10.454
  670TIP3    H123501   3.064   1.757  10.466
  670TIP3    H223502   3.186   1.678  10.501
  671TIP3   OH223503   3.459   0.659  11.653
  671TIP3    H123504   3.414   0.705  11.580
  671TIP3    H223505   3.460   0.568  11.621
  672TIP3   OH223506   2.173   1.299  11.452
  672TIP3    H123507   2.195   1.262  11.540
  672TIP3    H223508   2.086   1.259  11.430
  673TIP3   OH223509   2.435   0.158  11.055
  673TIP3    H123510   2.348   0.141  11.012
  673TIP3    H223511   2.423   0.241  11.099
  674TIP3   OH223512   2.903   0.114  11.386
  674TIP3    H123513   2.944   0.075  11.464
  674TIP3    H223514   2.807   0.102  11.401
  675TIP3   OH223515   3.234   0.494  11.474
  675TIP3    H123516   3.179   0.478  11.553
  675TIP3    H223517   3.218   0.587  11.450
  676TIP3   OH223518   3.308   0.976  10.055
  676TIP3    H123519   3.311   0.959   9.960
  676TIP3    H223520   3.393   1.017  10.069
  677TIP3   OH223521   2.450   0.642  11.169
  677TIP3    H123522   2.378   0.641  11.235
  677TIP3    H223523   2.447   0.735  11.136
  678TIP3   OH223524   2.445   0.660  10.655
  678TIP3    H123525   2.352   0.630  10.647
  678TIP3    H223526   2.489   0.626  10.577
  679TIP3   OH223527   2.993   0.701  10.525
  679TIP3    H123528   2.961   0.793  10.508
  679TIP3    H223529   3.077   0.692  10.477
  680TIP3   OH223530   2.906   0.726  11.681
  680TIP3    H123531   2.852   0.650  11.712
  680TIP3    H223532   2.990   0.712  11.728
  681TIP3   OH223533   3.100   0.653  10.818
  681TIP3    H123534   3.076   0.711  10.745
  681TIP3    H223535   3.114   0.568  10.772
  682TIP3   OH223536   2.215   0.671  11.343
  682TIP3    H123537   2.219   0.711  11.431
  682TIP3    H223538   2.170   0.587  11.360
  683TIP3   OH223539   2.554   0.411  10.033
  683TIP3    H123540   2.509   0.361  10.099
  683TIP3    H223541   2.487   0.448   9.973
  684TIP3   OH223542   1.881   0.385  10.735
  684TIP3    H123543   1.946   0.378  10.808
  684TIP3    H223544   1.925   0.341  10.661
  685TIP3   OH223545   3.023   0.814  11.278
  685TIP3    H123546   3.059   0.746  11.218
  685TIP3    H223547   2.978   0.760  11.345
  686TIP3   OH223548   2.703   0.406  10.757
  686TIP3    H123549   2.611   0.410  10.790
  686TIP3    H223550   2.752   0.400  10.841
  687TIP3   OH223551   2.186   0.567  10.641
  687TIP3    H123552   2.093   0.579  10.611
  687TIP3    H223553   2.212   0.478  10.610
  688TIP3   OH223554   3.144   0.332  11.084
  688TIP3    H123555   3.074   0.341  11.153
  688TIP3    H223556   3.093   0.311  11.004
  689TIP3   OH223557   3.465   1.898  11.716
  689TIP3    H123558   3.491   1.938  11.631
  689TIP3    H223559   3.536   1.931  11.773
  690TIP3   OH223560   2.232   1.144  11.673
  690TIP3    H123561   2.303   1.170  11.733
  690TIP3    H223562   2.153   1.158  11.731
  691TIP3   OH223563   2.833   0.686  10.950
  691TIP3    H123564   2.891   0.630  10.897
  691TIP3    H223565   2.817   0.632  11.028
  692TIP3   OH223566   2.332   0.303  10.586
  692TIP3    H123567   2.299   0.211  10.592
  692TIP3    H223568   2.414   0.294  10.537
  693TIP3   OH223569   2.695   0.520  11.190
  693TIP3    H123570   2.612   0.570  11.200
  693TIP3    H223571   2.750   0.553  11.264
  694TIP3   OH223572   3.470   1.060  11.240
  694TIP3    H123573   3.529   1.108  11.179
  694TIP3    H223574   3.385   1.068  11.193
  695TIP3   OH223575   2.903   1.166  11.484
  695TIP3    H123576   2.869   1.125  11.564
  695TIP3    H223577   2.880   1.259  11.493
  696TIP3   OH223578   3.211   0.616  10.347
  696TIP3    H123579   3.301   0.600  10.380
  696TIP3    H223580   3.222   0.695  10.291
  697TIP3   OH223581   2.264   1.079  10.939
  697TIP3    H123582   2.336   1.073  10.873
  697TIP3    H223583   2.271   0.993  10.985
  698TIP3   OH223584   2.963   1.287  10.266
  698TIP3    H123585   2.934   1.375  10.298
  698TIP3    H223586   2.890   1.231  10.284
  699TIP3   OH223587   1.964   0.922  11.467
  699TIP3    H123588   1.983   0.877  11.551
  699TIP3    H223589   1.902   0.859  11.424
  700TIP3   OH223590   2.665   0.877  11.686
  700TIP3    H123591   2.635   0.850  11.598
  700TIP3    H223592   2.758   0.847  11.685
  701TIP3   OH223593   3.132   1.410  11.478
  701TIP3    H123594   3.039   1.429  11.455
  701TIP3    H223595   3.130   1.439  11.571
  702TIP3   OH223596   3.699   1.215  11.600
  702TIP3    H123597   3.610   1.237  11.562
  702TIP3    H223598   3.755   1.211  11.520
  703TIP3   OH223599   3.249   0.994  11.067
  703TIP3    H123600   3.155   0.971  11.059
  703TIP3    H223601   3.293   0.916  11.027
  704TIP3   OH223602   2.502   1.425  10.676
  704TIP3    H123603   2.552   1.506  10.657
  704TIP3    H223604   2.414   1.451  10.646
  705TIP3   OH223605   2.645   1.192  10.634
  705TIP3    H123606   2.615   1.285  10.639
  705TIP3    H223607   2.570   1.146  10.675
  706TIP3   OH223608   2.690   1.610  11.269
  706TIP3    H123609   2.734   1.692  11.242
  706TIP3    H223610   2.750   1.578  11.339
  707TIP3   OH223611   2.513   1.690  10.591
  707TIP3    H123612   2.416   1.707  10.594
  707TIP3    H223613   2.547   1.777  10.617
  708TIP3   OH223614   3.044   1.213  11.234
  708TIP3    H123615   3.008   1.193  11.322
  708TIP3    H223616   3.106   1.141  11.217
  709TIP3   OH223617   3.320   1.670  11.483
  709TIP3    H123618   3.254   1.619  11.433
  709TIP3    H223619   3.342   1.739  11.417
  710TIP3   OH223620   3.721   1.760  10.169
  710TIP3    H123621   3.795   1.815  10.145
  710TIP3    H223622   3.646   1.815  10.194
  711TIP3   OH223623   2.129   0.394  11.423
  711TIP3    H123624   2.038   0.429  11.418
  711TIP3    H223625   2.116   0.307  11.465
  712TIP3   OH223626   3.356   1.176  10.363
  712TIP3    H123627   3.328   1.103  10.423
  712TIP3    H223628   3.448   1.187  10.388
  713TIP3   OH223629   2.091   1.575  11.265
  713TIP3    H123630   2.118   1.482  11.265
  713TIP3    H223631   2.117   1.602  11.353
  714TIP3   OH223632   2.219   1.104  10.281
  714TIP3    H123633   2.150   1.138  10.341
  714TIP3    H223634   2.269   1.182  10.260
  715TIP3   OH223635   3.002   0.370  11.315
  715TIP3    H123636   3.074   0.378  11.380
  715TIP3    H223637   2.965   0.281  11.333
  716TIP3   OH223638   3.074   0.339  10.427
  716TIP3    H123639   3.101   0.378  10.342
  716TIP3    H223640   3.136   0.376  10.490
  717TIP3   OH223641   2.849   1.549  10.313
  717TIP3    H123642   2.764   1.595  10.310
  717TIP3    H223643   2.897   1.592  10.241
  718TIP3   OH223644   2.797   0.508  10.506
  718TIP3    H123645   2.880   0.558  10.516
  718TIP3    H223646   2.773   0.492  10.600
  719TIP3   OH223647   2.854   0.606  11.425
  719TIP3    H123648   2.863   0.663  11.504
  719TIP3    H223649   2.920   0.537  11.436
  720TIP3   OH223650   2.882   0.209  10.600
  720TIP3    H123651   2.854   0.279  10.664
  720TIP3    H223652   2.952   0.263  10.552
  721TIP3   OH223653   3.473   0.393  11.511
  721TIP3    H123654   3.381   0.424  11.498
  721TIP3    H223655   3.504   0.393  11.418
  722TIP3   OH223656   3.333   0.773  10.914
  722TIP3    H123657   3.252   0.729  10.885
  722TIP3    H223658   3.381   0.703  10.965
  723TIP3   OH223659   3.441   1.697  11.080
  723TIP3    H123660   3.430   1.766  11.011
  723TIP3    H223661   3.537   1.704  11.098
  724TIP3   OH223662   2.172   0.124  10.961
  724TIP3    H123663   2.170   0.115  10.863
  724TIP3    H223664   2.154   0.032  10.984
  725TIP3   OH223665   2.085   1.503  10.572
  725TIP3    H123666   2.001   1.551  10.571
  725TIP3    H223667   2.136   1.552  10.506
  726TIP3   OH223668   2.008   1.767  11.703
  726TIP3    H123669   2.067   1.746  11.778
  726TIP3    H223670   1.965   1.682  11.684
  727TIP3   OH223671   2.473   1.659  11.864
  727TIP3    H123672   2.550   1.610  11.897
  727TIP3    H223673   2.471   1.632  11.770
  728TIP3   OH223674   3.127   1.497  11.738
  728TIP3    H123675   3.094   1.409  11.764
  728TIP3    H223676   3.202   1.509  11.798
  729TIP3   OH223677   2.000   1.146  11.801
  729TIP3    H123678   2.016   1.055  11.771
  729TIP3    H223679   1.924   1.172  11.746
  730TIP3   OH223680   2.669   1.144  11.741
  730TIP3    H123681   2.635   1.173  11.654
  730TIP3    H223682   2.679   1.046  11.731
  731TIP3   OH223683   3.240   1.131  11.480
  731TIP3    H123684   3.317   1.191  11.471
  731TIP3    H223685   3.168   1.195  11.484
  732TIP3   OH223686   2.089   0.868  11.740
  732TIP3    H123687   2.129   0.781  11.730
  732TIP3    H223688   2.064   0.868  11.834
  733TIP3   OH223689   2.480   0.763  11.477
  733TIP3    H123690   2.419   0.835  11.503
  733TIP3    H223691   2.517   0.799  11.395
  734TIP3   OH223692   2.986   1.018  11.808
  734TIP3    H123693   3.082   1.020  11.800
  734TIP3    H223694   2.969   0.942  11.866
  735TIP3   OH223695   2.519   0.501  11.584
  735TIP3    H123696   2.531   0.429  11.520
  735TIP3    H223697   2.515   0.581  11.528
  736TIP3   OH223698   2.559   0.339  11.336
  736TIP3    H123699   2.611   0.386  11.267
  736TIP3    H223700   2.470   0.328  11.294
  737TIP3   OH223701   2.714   0.885  11.361
  737TIP3    H123702   2.790   0.869  11.303
  737TIP3    H223703   2.679   0.970  11.329
  738TIP3   OH223704   3.154   0.663  11.859
  738TIP3    H123705   3.177   0.570  11.849
  738TIP3    H223706   3.241   0.707  11.861
  739TIP3   OH223707   3.287   0.941  11.672
  739TIP3    H123708   3.262   1.014  11.612
  739TIP3    H223709   3.383   0.938  11.654
  740TIP3   OH223710   2.365   0.625  11.775
  740TIP3    H123711   2.288   0.567  11.756
  740TIP3    H223712   2.432   0.589  11.713
  741TIP3   OH223713   2.630   0.095  11.394
  741TIP3    H123714   2.623   0.190  11.368
  741TIP3    H223715   2.565   0.054  11.333
  742TIP3   OH223716   2.765   0.515  11.737
  742TIP3    H123717   2.736   0.490  11.826
  742TIP3    H223718   2.686   0.495  11.684
  743TIP3   OH223719   3.037   0.433  11.646
  743TIP3    H123720   2.940   0.433  11.658
  743TIP3    H223721   3.065   0.366  11.712
  744TIP3   OH223722   3.199   0.296  11.840
  744TIP3    H123723   3.189   0.198  11.839
  744TIP3    H223724   3.168   0.320  11.929
  745TIP3   OH223725   2.175   0.416  11.748
  745TIP3    H123726   2.201   0.343  11.689
  745TIP3    H223727   2.168   0.371  11.834
  746TIP3   OH223728   2.659   7.358  11.645
  746TIP3    H123729   2.728   7.292  11.649
  746TIP3    H223730   2.651   7.384  11.551
  747TIP3   OH223731   2.697   0.186  11.852
  747TIP3    H123732   2.682   0.132  11.772
  747TIP3    H223733   2.636   0.260  11.845
  748TIP3   OH223734   2.649   1.879  10.178
  748TIP3    H123735   2.744   1.882  10.178
  748TIP3    H223736   2.623   1.935  10.103
  749TIP3   OH223737   1.875   1.871  10.620
  749TIP3    H123738   1.805   1.823  10.570
  749TIP3    H223739   1.905   1.805  10.684
  750TIP3   OH223740   1.959   1.683  10.805
  750TIP3    H123741   1.924   1.595  10.824
  750TIP3    H223742   1.981   1.716  10.893
  751TIP3   OH223743   3.712   1.763  11.100
  751TIP3    H123744   3.714   1.780  11.196
  751TIP3    H223745   3.783   1.820  11.069
  752TIP3   OH223746   3.670   1.722  11.394
  752TIP3    H123747   3.622   1.645  11.357
  752TIP3    H223748   3.721   1.678  11.464
  753TIP3   OH223749   3.514   1.296  11.860
  753TIP3    H123750   3.425   1.290  11.898
  753TIP3    H223751   3.552   1.375  11.903
  754TIP3   OH223752   3.684   0.930  10.591
  754TIP3    H123753   3.608   0.884  10.632
  754TIP3    H223754   3.742   0.951  10.666
  755TIP3   OH223755   3.658   1.205  11.090
  755TIP3    H123756   3.741   1.168  11.055
  755TIP3    H223757   3.672   1.301  11.074
  756TIP3   OH223758   3.513   1.495  11.319
  756TIP3    H123759   3.444   1.529  11.378
  756TIP3    H223760   3.458   1.454  11.248
  757TIP3   OH223761   3.463   0.782  10.650
  757TIP3    H123762   3.448   0.686  10.647
  757TIP3    H223763   3.430   0.806  10.737
  758TIP3   OH223764   1.965   0.990  11.053
  758TIP3    H123765   1.984   0.982  10.957
  758TIP3    H223766   2.054   0.975  11.091
  759TIP3   OH223767   3.549   0.979  11.616
  759TIP3    H123768   3.610   0.904  11.632
  759TIP3    H223769   3.608   1.057  11.618
  760TIP3   OH223770   3.700   0.769  11.683
  760TIP3    H123771   3.612   0.728  11.666
  760TIP3    H223772   3.758   0.691  11.675
  761TIP3   OH223773   3.470   0.385   9.997
  761TIP3    H123774   3.528   0.348  10.064
  761TIP3    H223775   3.386   0.340  10.017
  762TIP3   OH223776   3.430   0.541  10.494
  762TIP3    H123777   3.459   0.448  10.507
  762TIP3    H223778   3.509   0.583  10.459
  763TIP3   OH223779   3.494   0.597  11.038
  763TIP3    H123780   3.590   0.619  11.037
  763TIP3    H223781   3.475   0.608  11.133
  764TIP3   OH223782   3.501   0.669  11.317
  764TIP3    H123783   3.413   0.697  11.351
  764TIP3    H223784   3.544   0.754  11.295
  765TIP3   OH223785   1.925   0.522  11.668
  765TIP3    H123786   2.019   0.500  11.689
  765TIP3    H223787   1.881   0.440  11.699
  766TIP3   OH223788   3.732   0.070  11.853
  766TIP3    H123789   3.761   0.005  11.789
  766TIP3    H223790   3.737   0.154  11.804
  767TIP3   OH223791   3.497   0.267  10.497
  767TIP3    H123792   3.515   0.223  10.584
  767TIP3    H223793   3.434   0.204  10.455
  768TIP3   OH223794   2.044   0.351  10.953
  768TIP3    H123795   2.091   0.270  10.982
  768TIP3    H223796   2.099   0.418  10.995
  769TIP3   OH223797   1.875   0.649  11.060
  769TIP3    H123798   1.930   0.625  10.982
  769TIP3    H223799   1.919   0.731  11.086
  770TIP3   OH223800   3.682   0.280  11.686
  770TIP3    H123801   3.588   0.307  11.682
  770TIP3    H223802   3.686   0.225  11.607
  771TIP3   OH223803   1.913   0.277  10.466
  771TIP3    H123804   1.817   0.292  10.456
  771TIP3    H223805   1.955   0.322  10.394
  772TIP3   OH223806   3.385   1.775  10.659
  772TIP3    H123807   3.453   1.738  10.601
  772TIP3    H223808   3.437   1.821  10.726
  773TIP3   OH223809   1.907   0.145  11.298
  773TIP3    H123810   1.840   0.124  11.364
  773TIP3    H223811   1.860   0.209  11.240
  774TIP3   OH223812   2.129   1.462  11.713
  774TIP3    H123813   2.045   1.483  11.668
  774TIP3    H223814   2.102   1.455  11.805
  775TIP3   OH223815   2.420   1.561  11.340
  775TIP3    H123816   2.384   1.646  11.312
  775TIP3    H223817   2.512   1.571  11.309
  776TIP3   OH223818   2.852   1.704  11.632
  776TIP3    H123819   2.868   1.669  11.723
  776TIP3    H223820   2.941   1.734  11.605
  777TIP3   OH223821   3.082   1.831  11.561
  777TIP3    H123822   3.154   1.771  11.537
  777TIP3    H223823   3.119   1.873  11.641
  778TIP3   OH223824   3.583   0.094  11.469
  778TIP3    H123825   3.499   0.125  11.432
  778TIP3    H223826   3.601   0.013  11.418
  779TIP3   OH223827   2.162   1.886  11.341
  779TIP3    H123828   2.089   1.934  11.300
  779TIP3    H223829   2.129   1.865  11.430
  780TIP3   OH223830   2.410   1.844  11.248
  780TIP3    H123831   2.320   1.857  11.287
  780TIP3    H223832   2.403   1.903  11.170
  781TIP3   OH223833   2.880   1.835  11.165
  781TIP3    H123834   2.833   1.890  11.099
  781TIP3    H223835   2.894   1.898  11.238
  782TIP3   OH223836   3.110   1.718  11.264
  782TIP3    H123837   3.023   1.743  11.231
  782TIP3    H223838   3.156   1.804  11.256
  783TIP3   OH223839   3.369   1.875  11.290
  783TIP3    H123840   3.359   1.971  11.267
  783TIP3    H223841   3.389   1.838  11.202
  784TIP3   OH223842   2.106   1.751  11.034
  784TIP3    H123843   2.100   1.706  11.121
  784TIP3    H223844   2.188   1.715  10.995
  785TIP3   OH223845   2.315   1.622  10.901
  785TIP3    H123846   2.298   1.528  10.921
  785TIP3    H223847   2.401   1.636  10.946
  786TIP3   OH223848   2.574   1.670  10.987
  786TIP3    H123849   2.592   1.579  10.959
  786TIP3    H223850   2.579   1.663  11.084
  787TIP3   OH223851   2.918   0.241  10.896
  787TIP3    H123852   2.856   0.173  10.929
  787TIP3    H223853   2.981   0.187  10.847
  788TIP3   OH223854   3.434   0.043  10.911
  788TIP3    H123855   3.496   0.098  10.858
  788TIP3    H223856   3.347   0.076  10.886
  789TIP3   OH223857   3.604   0.164  10.735
  789TIP3    H123858   3.672   0.107  10.696
  789TIP3    H223859   3.651   0.249  10.749
  790TIP3   OH223860   2.163   0.103  10.673
  790TIP3    H123861   2.077   0.075  10.637
  790TIP3    H223862   2.202   0.016  10.689
  791TIP3   OH223863   2.060   0.113  10.295
  791TIP3    H123864   2.084   0.145  10.206
  791TIP3    H223865   1.969   0.138  10.314
  792TIP3   OH223866   2.635   0.123  10.691
  792TIP3    H123867   2.729   0.143  10.682
  792TIP3    H223868   2.616   0.070  10.771
  793TIP3   OH223869   3.157   0.114  10.832
  793TIP3    H123870   3.174   0.112  10.738
  793TIP3    H223871   3.147   0.015  10.844
  794TIP3   OH223872   2.024   1.667  10.358
  794TIP3    H123873   1.960   1.669  10.285
  794TIP3    H223874   2.029   1.763  10.376
  795TIP3   OH223875   2.220   0.269  10.111
  795TIP3    H123876   2.270   0.208  10.052
  795TIP3    H223877   2.289   0.297  10.171
  796TIP3   OH223878   2.708   0.294  10.356
  796TIP3    H123879   2.750   0.238  10.422
  796TIP3    H223880   2.726   0.382  10.395
  797TIP3   OH223881   3.586   1.750  10.459
  797TIP3    H123882   3.562   1.673  10.404
  797TIP3    H223883   3.576   1.825  10.401
  798TIP3   OH223884   2.142   0.151  11.627
  798TIP3    H123885   2.110   0.074  11.674
  798TIP3    H223886   2.235   0.150  11.664
  799TIP3   OH223887   2.330   0.104  11.783
  799TIP3    H123888   2.424   0.076  11.774
  799TIP3    H223889   2.311   0.020  11.830
  800TIP3   OH223890   3.185   7.384  11.806
  800TIP3    H123891   3.192   7.323  11.883
  800TIP3    H223892   3.272   7.363  11.771
  801TIP3   OH223893   3.509   1.623  11.674
  801TIP3    H123894   3.428   1.609  11.621
  801TIP3    H223895   3.497   1.718  11.696
  802TIP3   OH223896   4.951   1.012  10.676
  802TIP3    H123897   4.954   1.109  10.667
  802TIP3    H223898   4.882   0.987  10.613
  803TIP3   OH223899   4.835   0.938  11.022
  803TIP3    H123900   4.843   0.875  11.094
  803TIP3    H223901   4.809   0.890  10.942
  804TIP3   OH223902   4.075   0.903  11.177
  804TIP3    H123903   4.083   0.837  11.249
  804TIP3    H223904   4.148   0.963  11.199
  805TIP3   OH223905   5.210   1.232  10.850
  805TIP3    H123906   5.166   1.161  10.898
  805TIP3    H223907   5.210   1.304  10.916
  806TIP3   OH223908   4.167   1.349  11.030
  806TIP3    H123909   4.135   1.263  10.995
  806TIP3    H223910   4.263   1.330  11.034
  807TIP3   OH223911   3.832   0.706  10.574
  807TIP3    H123912   3.789   0.795  10.570
  807TIP3    H223913   3.773   0.654  10.521
  808TIP3   OH223914   3.901   0.928  10.786
  808TIP3    H123915   3.927   0.847  10.835
  808TIP3    H223916   3.973   0.939  10.723
  809TIP3   OH223917   4.920   1.747  10.872
  809TIP3    H123918   4.985   1.677  10.846
  809TIP3    H223919   4.900   1.718  10.961
  810TIP3   OH223920   4.676   1.176  11.068
  810TIP3    H123921   4.712   1.116  11.001
  810TIP3    H223922   4.756   1.195  11.120
  811TIP3   OH223923   5.544   0.340  11.144
  811TIP3    H123924   5.551   0.404  11.219
  811TIP3    H223925   5.587   0.388  11.073
  812TIP3   OH223926   4.986   0.623  11.099
  812TIP3    H123927   5.010   0.527  11.099
  812TIP3    H223928   4.987   0.639  11.002
  813TIP3   OH223929   4.307   0.436  10.823
  813TIP3    H123930   4.314   0.519  10.773
  813TIP3    H223931   4.265   0.377  10.756
  814TIP3   OH223932   5.079   0.442  10.660
  814TIP3    H123933   5.146   0.411  10.725
  814TIP3    H223934   5.133   0.497  10.600
  815TIP3   OH223935   3.968   0.674  10.897
  815TIP3    H123936   4.035   0.618  10.940
  815TIP3    H223937   3.976   0.643  10.805
  816TIP3   OH223938   4.483   0.829  10.827
  816TIP3    H123939   4.550   0.770  10.863
  816TIP3    H223940   4.430   0.764  10.775
  817TIP3   OH223941   5.585   0.487  11.368
  817TIP3    H123942   5.518   0.558  11.360
  817TIP3    H223943   5.585   0.473  11.464
  818TIP3   OH223944   4.195   0.325  11.227
  818TIP3    H123945   4.166   0.379  11.151
  818TIP3    H223946   4.124   0.346  11.293
  819TIP3   OH223947   4.925   1.270  10.581
  819TIP3    H123948   4.896   1.244  10.492
  819TIP3    H223949   4.895   1.363  10.587
  820TIP3   OH223950   4.448   1.087  11.251
  820TIP3    H123951   4.376   1.151  11.270
  820TIP3    H223952   4.517   1.148  11.223
  821TIP3   OH223953   5.259   0.375  10.857
  821TIP3    H123954   5.236   0.299  10.912
  821TIP3    H223955   5.326   0.419  10.912
  822TIP3   OH223956   4.152   0.511  11.026
  822TIP3    H123957   4.215   0.577  11.060
  822TIP3    H223958   4.204   0.466  10.956
  823TIP3   OH223959   4.291   1.286  11.333
  823TIP3    H123960   4.287   1.378  11.298
  823TIP3    H223961   4.202   1.280  11.377
  824TIP3   OH223962   3.896   1.253  10.416
  824TIP3    H123963   3.877   1.275  10.324
  824TIP3    H223964   3.907   1.338  10.461
  825TIP3   OH223965   5.261   1.416  11.086
  825TIP3    H123966   5.165   1.426  11.100
  825TIP3    H223967   5.288   1.508  11.068
  826TIP3   OH223968   5.294   0.245  11.231
  826TIP3    H123969   5.220   0.306  11.218
  826TIP3    H223970   5.362   0.285  11.173
  827TIP3   OH223971   4.618   0.072  10.971
  827TIP3    H123972   4.599  -0.023  10.967
  827TIP3    H223973   4.526   0.096  10.994
  828TIP3   OH223974   5.085   1.594  10.745
  828TIP3    H123975   5.131   1.522  10.697
  828TIP3    H223976   5.127   1.674  10.707
  829TIP3   OH223977   5.205   1.387  10.597
  829TIP3    H123978   5.180   1.315  10.537
  829TIP3    H223979   5.210   1.339  10.681
  830TIP3   OH223980   5.370   1.245  11.447
  830TIP3    H123981   5.385   1.181  11.373
  830TIP3    H223982   5.389   1.331  11.406
  831TIP3   OH223983   4.819   0.937  10.423
  831TIP3    H123984   4.748   0.991  10.387
  831TIP3    H223985   4.890   0.942  10.356
  832TIP3   OH223986   5.558   0.875  11.252
  832TIP3    H123987   5.493   0.948  11.258
  832TIP3    H223988   5.605   0.901  11.170
  833TIP3   OH223989   5.162   0.958  10.517
  833TIP3    H123990   5.088   0.980  10.578
  833TIP3    H223991   5.210   0.889  10.566
  834TIP3   OH223992   5.154   0.773  11.427
  834TIP3    H123993   5.157   0.854  11.481
  834TIP3    H223994   5.093   0.804  11.358
  835TIP3   OH223995   4.324   1.024  10.707
  835TIP3    H123996   4.292   0.984  10.622
  835TIP3    H223997   4.385   0.954  10.740
  836TIP3   OH223998   4.458   1.363  10.975
  836TIP3    H123999   4.455   1.308  10.896
  836TIP3    H224000   4.535   1.326  11.022
  837TIP3   OH224001   4.364   0.894  11.074
  837TIP3    H124002   4.413   0.912  10.992
  837TIP3    H224003   4.394   0.965  11.134
  838TIP3   OH224004   4.997   1.453  11.143
  838TIP3    H124005   4.970   1.516  11.210
  838TIP3    H224006   4.973   1.367  11.186
  839TIP3   OH224007   4.452   1.339  11.542
  839TIP3    H124008   4.414   1.416  11.590
  839TIP3    H224009   4.385   1.321  11.473
  840TIP3   OH224010   5.045   0.880  10.284
  840TIP3    H124011   5.106   0.891  10.362
  840TIP3    H224012   5.094   0.924  10.214
  841TIP3   OH224013   4.146   0.956  11.460
  841TIP3    H124014   4.150   1.023  11.532
  841TIP3    H224015   4.053   0.967  11.435
  842TIP3   OH224016   4.825   1.552  10.624
  842TIP3    H124017   4.866   1.578  10.709
  842TIP3    H224018   4.762   1.622  10.609
  843TIP3   OH224019   4.276   1.545  11.618
  843TIP3    H124020   4.272   1.533  11.522
  843TIP3    H224021   4.183   1.532  11.644
  844TIP3   OH224022   4.224   0.927  10.466
  844TIP3    H124023   4.192   1.006  10.419
  844TIP3    H224024   4.155   0.863  10.447
  845TIP3   OH224025   5.534   1.486  10.106
  845TIP3    H124026   5.546   1.582  10.121
  845TIP3    H224027   5.627   1.460  10.100
  846TIP3   OH224028   3.832   1.168  11.355
  846TIP3    H124029   3.785   1.160  11.270
  846TIP3    H224030   3.836   1.073  11.379
  847TIP3   OH224031   3.807   1.443  11.034
  847TIP3    H124032   3.903   1.429  11.034
  847TIP3    H224033   3.798   1.523  11.088
  848TIP3   OH224034   5.631   1.511  11.604
  848TIP3    H124035   5.620   1.415  11.602
  848TIP3    H224036   5.544   1.536  11.644
  849TIP3   OH224037   4.726   1.466  11.491
  849TIP3    H124038   4.733   1.550  11.541
  849TIP3    H224039   4.639   1.431  11.517
  850TIP3   OH224040   4.133   1.729  10.653
  850TIP3    H124041   4.148   1.686  10.740
  850TIP3    H224042   4.049   1.685  10.628
  851TIP3   OH224043   5.344   0.660  11.652
  851TIP3    H124044   5.299   0.705  11.580
  851TIP3    H224045   5.345   0.568  11.621
  852TIP3   OH224046   4.059   1.299  11.452
  852TIP3    H124047   4.081   1.262  11.540
  852TIP3    H224048   3.972   1.259  11.431
  853TIP3   OH224049   4.320   0.158  11.054
  853TIP3    H124050   4.234   0.140  11.011
  853TIP3    H224051   4.308   0.241  11.099
  854TIP3   OH224052   4.789   0.114  11.386
  854TIP3    H124053   4.829   0.075  11.464
  854TIP3    H224054   4.693   0.102  11.401
  855TIP3   OH224055   5.119   0.494  11.473
  855TIP3    H124056   5.064   0.478  11.553
  855TIP3    H224057   5.104   0.587  11.450
  856TIP3   OH224058   4.338   0.643  11.170
  856TIP3    H124059   4.263   0.639  11.234
  856TIP3    H224060   4.329   0.735  11.135
  857TIP3   OH224061   4.333   0.658  10.659
  857TIP3    H124062   4.240   0.630  10.645
  857TIP3    H224063   4.373   0.626  10.575
  858TIP3   OH224064   4.886   0.706  10.535
  858TIP3    H124065   4.844   0.789  10.502
  858TIP3    H224066   4.954   0.689  10.468
  859TIP3   OH224067   4.792   0.725  11.678
  859TIP3    H124068   4.737   0.650  11.713
  859TIP3    H224069   4.875   0.713  11.728
  860TIP3   OH224070   4.984   0.653  10.820
  860TIP3    H124071   4.963   0.710  10.743
  860TIP3    H224072   5.001   0.569  10.771
  861TIP3   OH224073   4.101   0.671  11.343
  861TIP3    H124074   4.104   0.711  11.431
  861TIP3    H224075   4.055   0.587  11.360
  862TIP3   OH224076   3.766   0.385  10.736
  862TIP3    H124077   3.831   0.379  10.808
  862TIP3    H224078   3.810   0.342  10.661
  863TIP3   OH224079   4.900   0.812  11.273
  863TIP3    H124080   4.949   0.746  11.220
  863TIP3    H224081   4.867   0.760  11.349
  864TIP3   OH224082   4.588   0.411  10.760
  864TIP3    H124083   4.494   0.408  10.789
  864TIP3    H224084   4.637   0.395  10.841
  865TIP3   OH224085   4.070   0.565  10.644
  865TIP3    H124086   3.980   0.581  10.607
  865TIP3    H224087   4.100   0.481  10.608
  866TIP3   OH224088   4.431   0.571  10.409
  866TIP3    H124089   4.527   0.579  10.425
  866TIP3    H224090   4.414   0.637  10.340
  867TIP3   OH224091   5.029   0.336  11.084
  867TIP3    H124092   4.960   0.339  11.153
  867TIP3    H224093   4.980   0.310  11.004
  868TIP3   OH224094   4.305   0.687  10.166
  868TIP3    H124095   4.250   0.653  10.096
  868TIP3    H224096   4.389   0.706  10.122
  869TIP3   OH224097   5.351   1.898  11.716
  869TIP3    H124098   5.377   1.938  11.631
  869TIP3    H224099   5.422   1.931  11.773
  870TIP3   OH224100   4.117   1.145  11.673
  870TIP3    H124101   4.189   1.170  11.733
  870TIP3    H224102   4.039   1.158  11.731
  871TIP3   OH224103   4.720   0.674  10.921
  871TIP3    H124104   4.789   0.623  10.875
  871TIP3    H224105   4.708   0.612  10.991
  872TIP3   OH224106   4.217   0.303  10.589
  872TIP3    H124107   4.187   0.210  10.592
  872TIP3    H224108   4.298   0.296  10.537
  873TIP3   OH224109   4.583   0.526  11.188
  873TIP3    H124110   4.493   0.566  11.203
  873TIP3    H224111   4.633   0.546  11.270
  874TIP3   OH224112   4.639   1.143  10.359
  874TIP3    H124113   4.559   1.095  10.326
  874TIP3    H224114   4.619   1.152  10.454
  875TIP3   OH224115   5.356   1.060  11.240
  875TIP3    H124116   5.414   1.108  11.179
  875TIP3    H224117   5.271   1.068  11.193
  876TIP3   OH224118   4.788   1.165  11.483
  876TIP3    H124119   4.754   1.125  11.564
  876TIP3    H224120   4.765   1.258  11.493
  877TIP3   OH224121   5.099   0.611  10.346
  877TIP3    H124122   5.190   0.601  10.379
  877TIP3    H224123   5.103   0.692  10.291
  878TIP3   OH224124   4.150   1.079  10.939
  878TIP3    H124125   4.221   1.073  10.872
  878TIP3    H224126   4.157   0.993  10.985
  879TIP3   OH224127   4.851   1.282  10.272
  879TIP3    H124128   4.815   1.369  10.294
  879TIP3    H224129   4.773   1.227  10.283
  880TIP3   OH224130   3.849   0.922  11.467
  880TIP3    H124131   3.869   0.877  11.551
  880TIP3    H224132   3.788   0.859  11.424
  881TIP3   OH224133   4.551   0.877  11.686
  881TIP3    H124134   4.519   0.850  11.599
  881TIP3    H224135   4.644   0.847  11.686
  882TIP3   OH224136   5.018   1.410  11.478
  882TIP3    H124137   4.925   1.429  11.455
  882TIP3    H224138   5.016   1.439  11.571
  883TIP3   OH224139   5.585   1.215  11.600
  883TIP3    H124140   5.496   1.237  11.562
  883TIP3    H224141   5.640   1.211  11.520
  884TIP3   OH224142   5.414   1.513  10.358
  884TIP3    H124143   5.379   1.429  10.392
  884TIP3    H224144   5.445   1.491  10.268
  885TIP3   OH224145   5.134   0.993  11.068
  885TIP3    H124146   5.041   0.972  11.058
  885TIP3    H224147   5.179   0.917  11.026
  886TIP3   OH224148   4.388   1.425  10.677
  886TIP3    H124149   4.437   1.506  10.657
  886TIP3    H224150   4.299   1.449  10.646
  887TIP3   OH224151   4.531   1.193  10.630
  887TIP3    H124152   4.500   1.285  10.639
  887TIP3    H224153   4.457   1.145  10.674
  888TIP3   OH224154   4.575   1.610  11.269
  888TIP3    H124155   4.619   1.692  11.242
  888TIP3    H224156   4.635   1.578  11.339
  889TIP3   OH224157   4.399   1.691  10.591
  889TIP3    H124158   4.302   1.705  10.597
  889TIP3    H224159   4.432   1.777  10.622
  890TIP3   OH224160   4.928   1.212  11.233
  890TIP3    H124161   4.894   1.194  11.323
  890TIP3    H224162   4.994   1.143  11.218
  891TIP3   OH224163   5.159   1.311  10.143
  891TIP3    H124164   5.188   1.269  10.226
  891TIP3    H224165   5.062   1.301  10.149
  892TIP3   OH224166   5.206   1.670  11.483
  892TIP3    H124167   5.140   1.619  11.433
  892TIP3    H224168   5.227   1.739  11.417
  893TIP3   OH224169   5.607   1.755  10.166
  893TIP3    H124170   5.677   1.818  10.145
  893TIP3    H224171   5.536   1.816  10.196
  894TIP3   OH224172   4.014   0.394  11.423
  894TIP3    H124173   3.924   0.429  11.418
  894TIP3    H224174   4.002   0.307  11.465
  895TIP3   OH224175   5.239   1.179  10.367
  895TIP3    H124176   5.215   1.102  10.420
  895TIP3    H224177   5.334   1.186  10.386
  896TIP3   OH224178   3.977   1.575  11.264
  896TIP3    H124179   4.004   1.481  11.265
  896TIP3    H224180   4.002   1.602  11.353
  897TIP3   OH224181   4.452   1.377  10.235
  897TIP3    H124182   4.474   1.328  10.313
  897TIP3    H224183   4.457   1.472  10.261
  898TIP3   OH224184   4.886   0.372  11.316
  898TIP3    H124185   4.959   0.377  11.380
  898TIP3    H224186   4.851   0.282  11.333
  899TIP3   OH224187   4.970   0.329  10.422
  899TIP3    H124188   4.982   0.385  10.343
  899TIP3    H224189   5.020   0.377  10.490
  900TIP3   OH224190   4.684   0.503  10.504
  900TIP3    H124191   4.764   0.559  10.509
  900TIP3    H224192   4.659   0.491  10.597
  901TIP3   OH224193   4.742   0.609  11.421
  901TIP3    H124194   4.748   0.662  11.504
  901TIP3    H224195   4.805   0.536  11.437
  902TIP3   OH224196   4.772   0.211  10.599
  902TIP3    H124197   4.739   0.278  10.661
  902TIP3    H224198   4.838   0.265  10.549
  903TIP3   OH224199   4.468   1.652  10.312
  903TIP3    H124200   4.483   1.731  10.255
  903TIP3    H224201   4.444   1.686  10.399
  904TIP3   OH224202   5.359   0.393  11.510
  904TIP3    H124203   5.266   0.425  11.498
  904TIP3    H224204   5.389   0.393  11.418
  905TIP3   OH224205   5.217   0.773  10.916
  905TIP3    H124206   5.138   0.728  10.883
  905TIP3    H224207   5.266   0.703  10.965
  906TIP3   OH224208   4.162   1.367  10.174
  906TIP3    H124209   4.227   1.432  10.201
  906TIP3    H224210   4.211   1.321  10.103
  907TIP3   OH224211   5.326   1.697  11.080
  907TIP3    H124212   5.315   1.766  11.011
  907TIP3    H224213   5.422   1.704  11.098
  908TIP3   OH224214   4.057   0.125  10.961
  908TIP3    H124215   4.056   0.115  10.863
  908TIP3    H224216   4.040   0.032  10.984
  909TIP3   OH224217   3.972   1.505  10.574
  909TIP3    H124218   3.886   1.550  10.571
  909TIP3    H224219   4.022   1.551  10.506
  910TIP3   OH224220   3.894   1.767  11.703
  910TIP3    H124221   3.953   1.746  11.778
  910TIP3    H224222   3.851   1.682  11.684
  911TIP3   OH224223   4.359   1.659  11.865
  911TIP3    H124224   4.435   1.610  11.897
  911TIP3    H224225   4.357   1.633  11.770
  912TIP3   OH224226   5.012   1.497  11.738
  912TIP3    H124227   4.980   1.409  11.765
  912TIP3    H224228   5.088   1.509  11.798
  913TIP3   OH224229   3.886   1.146  11.801
  913TIP3    H124230   3.901   1.054  11.771
  913TIP3    H224231   3.810   1.172  11.746
  914TIP3   OH224232   4.316   1.176  10.005
  914TIP3    H124233   4.332   1.103  10.066
  914TIP3    H224234   4.389   1.168   9.944
  915TIP3   OH224235   4.555   1.144  11.741
  915TIP3    H124236   4.521   1.173  11.654
  915TIP3    H224237   4.565   1.046  11.731
  916TIP3   OH224238   5.125   1.131  11.480
  916TIP3    H124239   5.203   1.191  11.471
  916TIP3    H224240   5.054   1.195  11.484
  917TIP3   OH224241   3.974   0.868  11.740
  917TIP3    H124242   4.015   0.781  11.730
  917TIP3    H224243   3.949   0.868  11.834
  918TIP3   OH224244   4.442   0.979  10.244
  918TIP3    H124245   4.390   0.930  10.310
  918TIP3    H224246   4.466   0.911  10.180
  919TIP3   OH224247   4.366   0.764  11.477
  919TIP3    H124248   4.305   0.834  11.504
  919TIP3    H224249   4.402   0.801  11.395
  920TIP3   OH224250   4.871   1.018  11.808
  920TIP3    H124251   4.967   1.020  11.800
  920TIP3    H224252   4.854   0.942  11.866
  921TIP3   OH224253   4.405   0.501  11.584
  921TIP3    H124254   4.416   0.428  11.521
  921TIP3    H224255   4.400   0.581  11.528
  922TIP3   OH224256   4.445   0.341  11.335
  922TIP3    H124257   4.497   0.385  11.265
  922TIP3    H224258   4.356   0.327  11.295
  923TIP3   OH224259   4.598   0.881  11.355
  923TIP3    H124260   4.679   0.875  11.307
  923TIP3    H224261   4.564   0.970  11.331
  924TIP3   OH224262   5.040   0.663  11.861
  924TIP3    H124263   5.063   0.570  11.846
  924TIP3    H224264   5.126   0.708  11.859
  925TIP3   OH224265   5.173   0.941  11.673
  925TIP3    H124266   5.148   1.014  11.612
  925TIP3    H224267   5.269   0.938  11.654
  926TIP3   OH224268   4.251   0.625  11.775
  926TIP3    H124269   4.174   0.567  11.756
  926TIP3    H224270   4.317   0.589  11.713
  927TIP3   OH224271   4.515   0.095  11.394
  927TIP3    H124272   4.509   0.190  11.368
  927TIP3    H224273   4.451   0.054  11.333
  928TIP3   OH224274   4.651   0.515  11.737
  928TIP3    H124275   4.622   0.490  11.826
  928TIP3    H224276   4.572   0.495  11.684
  929TIP3   OH224277   4.922   0.433  11.646
  929TIP3    H124278   4.826   0.433  11.658
  929TIP3    H224279   4.950   0.366  11.711
  930TIP3   OH224280   5.088   0.296  11.843
  930TIP3    H124281   5.074   0.198  11.838
  930TIP3    H224282   5.050   0.320  11.928
  931TIP3   OH224283   4.060   0.416  11.748
  931TIP3    H124284   4.087   0.343  11.689
  931TIP3    H224285   4.054   0.371  11.834
  932TIP3   OH224286   4.545   7.358  11.646
  932TIP3    H124287   4.614   7.292  11.649
  932TIP3    H224288   4.536   7.383  11.551
  933TIP3   OH224289   4.583   0.186  11.852
  933TIP3    H124290   4.567   0.132  11.772
  933TIP3    H224291   4.521   0.260  11.845
  934TIP3   OH224292   4.535   1.870  10.171
  934TIP3    H124293   4.628   1.887  10.180
  934TIP3    H224294   4.509   1.937  10.107
  935TIP3   OH224295   3.762   1.872  10.617
  935TIP3    H124296   3.690   1.821  10.574
  935TIP3    H224297   3.792   1.807  10.685
  936TIP3   OH224298   3.843   1.684  10.804
  936TIP3    H124299   3.810   1.595  10.824
  936TIP3    H224300   3.867   1.716  10.893
  937TIP3   OH224301   5.598   1.763  11.100
  937TIP3    H124302   5.600   1.780  11.196
  937TIP3    H224303   5.668   1.820  11.069
  938TIP3   OH224304   5.556   1.722  11.394
  938TIP3    H124305   5.508   1.645  11.357
  938TIP3    H224306   5.607   1.678  11.464
  939TIP3   OH224307   5.400   1.295  11.860
  939TIP3    H124308   5.311   1.290  11.898
  939TIP3    H224309   5.438   1.375  11.903
  940TIP3   OH224310   5.530   1.129  10.407
  940TIP3    H124311   5.617   1.167  10.426
  940TIP3    H224312   5.531   1.052  10.468
  941TIP3   OH224313   5.569   0.932  10.590
  941TIP3    H124314   5.494   0.884  10.631
  941TIP3    H224315   5.627   0.949  10.666
  942TIP3   OH224316   5.544   1.205  11.090
  942TIP3    H124317   5.627   1.168  11.055
  942TIP3    H224318   5.558   1.301  11.074
  943TIP3   OH224319   5.398   1.495  11.318
  943TIP3    H124320   5.329   1.529  11.378
  943TIP3    H224321   5.343   1.454  11.248
  944TIP3   OH224322   5.351   0.781  10.648
  944TIP3    H124323   5.333   0.686  10.647
  944TIP3    H224324   5.315   0.806  10.735
  945TIP3   OH224325   3.850   0.990  11.053
  945TIP3    H124326   3.869   0.983  10.957
  945TIP3    H224327   3.939   0.975  11.091
  946TIP3   OH224328   5.434   0.979  11.616
  946TIP3    H124329   5.495   0.904  11.632
  946TIP3    H224330   5.494   1.056  11.618
  947TIP3   OH224331   5.585   0.768  11.683
  947TIP3    H124332   5.497   0.728  11.666
  947TIP3    H224333   5.643   0.691  11.674
  948TIP3   OH224334   5.318   0.541  10.493
  948TIP3    H124335   5.347   0.449  10.508
  948TIP3    H224336   5.395   0.584  10.455
  949TIP3   OH224337   5.381   0.596  11.038
  949TIP3    H124338   5.476   0.620  11.037
  949TIP3    H224339   5.359   0.609  11.132
  950TIP3   OH224340   5.386   0.669  11.317
  950TIP3    H124341   5.299   0.697  11.351
  950TIP3    H224342   5.429   0.755  11.295
  951TIP3   OH224343   3.811   0.522  11.668
  951TIP3    H124344   3.905   0.500  11.689
  951TIP3    H224345   3.766   0.440  11.699
  952TIP3   OH224346   5.617   0.070  11.853
  952TIP3    H124347   5.646   0.005  11.789
  952TIP3    H224348   5.623   0.154  11.804
  953TIP3   OH224349   5.383   0.267  10.498
  953TIP3    H124350   5.400   0.222  10.584
  953TIP3    H224351   5.319   0.204  10.455
  954TIP3   OH224352   3.930   0.351  10.953
  954TIP3    H124353   3.977   0.270  10.982
  954TIP3    H224354   3.984   0.419  10.995
  955TIP3   OH224355   3.761   0.649  11.060
  955TIP3    H124356   3.816   0.626  10.982
  955TIP3    H224357   3.805   0.731  11.086
  956TIP3   OH224358   5.568   0.280  11.686
  956TIP3    H124359   5.475   0.307  11.681
  956TIP3    H224360   5.572   0.224  11.606
  957TIP3   OH224361   3.798   0.273  10.464
  957TIP3    H124362   3.703   0.293  10.456
  957TIP3    H224363   3.839   0.324  10.395
  958TIP3   OH224364   5.269   1.773  10.658
  958TIP3    H124365   5.341   1.738  10.601
  958TIP3    H224366   5.322   1.820  10.725
  959TIP3   OH224367   3.792   0.145  11.298
  959TIP3    H124368   3.726   0.124  11.364
  959TIP3    H224369   3.746   0.209  11.240
  960TIP3   OH224370   4.014   1.462  11.713
  960TIP3    H124371   3.930   1.483  11.668
  960TIP3    H224372   3.987   1.455  11.805
  961TIP3   OH224373   4.305   1.561  11.340
  961TIP3    H124374   4.270   1.646  11.312
  961TIP3    H224375   4.398   1.571  11.309
  962TIP3   OH224376   4.737   1.704  11.632
  962TIP3    H124377   4.754   1.669  11.723
  962TIP3    H224378   4.827   1.734  11.605
  963TIP3   OH224379   4.967   1.831  11.561
  963TIP3    H124380   5.040   1.771  11.537
  963TIP3    H224381   5.005   1.873  11.641
  964TIP3   OH224382   5.469   0.094  11.469
  964TIP3    H124383   5.385   0.125  11.432
  964TIP3    H224384   5.486   0.013  11.418
  965TIP3   OH224385   4.048   1.886  11.341
  965TIP3    H124386   3.975   1.934  11.300
  965TIP3    H224387   4.014   1.865  11.430
  966TIP3   OH224388   4.295   1.844  11.248
  966TIP3    H124389   4.206   1.857  11.287
  966TIP3    H224390   4.288   1.903  11.170
  967TIP3   OH224391   4.765   1.835  11.164
  967TIP3    H124392   4.719   1.890  11.099
  967TIP3    H224393   4.780   1.898  11.238
  968TIP3   OH224394   4.996   1.718  11.264
  968TIP3    H124395   4.908   1.743  11.231
  968TIP3    H224396   5.041   1.804  11.256
  969TIP3   OH224397   5.254   1.875  11.290
  969TIP3    H124398   5.244   1.971  11.267
  969TIP3    H224399   5.275   1.838  11.202
  970TIP3   OH224400   3.991   1.751  11.034
  970TIP3    H124401   3.986   1.706  11.121
  970TIP3    H224402   4.073   1.715  10.995
  971TIP3   OH224403   4.201   1.622  10.899
  971TIP3    H124404   4.183   1.529  10.921
  971TIP3    H224405   4.286   1.636  10.946
  972TIP3   OH224406   4.460   1.670  10.987
  972TIP3    H124407   4.478   1.578  10.960
  972TIP3    H224408   4.464   1.663  11.083
  973TIP3   OH224409   4.805   0.242  10.900
  973TIP3    H124410   4.741   0.172  10.927
  973TIP3    H224411   4.864   0.188  10.846
  974TIP3   OH224412   5.320   0.043  10.911
  974TIP3    H124413   5.382   0.098  10.858
  974TIP3    H224414   5.233   0.076  10.885
  975TIP3   OH224415   5.489   0.164  10.735
  975TIP3    H124416   5.558   0.108  10.696
  975TIP3    H224417   5.536   0.249  10.747
  976TIP3   OH224418   4.047   0.103  10.672
  976TIP3    H124419   3.962   0.074  10.637
  976TIP3    H224420   4.088   0.016  10.687
  977TIP3   OH224421   3.891   0.131  10.209
  977TIP3    H124422   3.986   0.150  10.197
  977TIP3    H224423   3.869   0.138  10.302
  978TIP3   OH224424   4.520   0.131  10.697
  978TIP3    H124425   4.613   0.130  10.670
  978TIP3    H224426   4.503   0.065  10.765
  979TIP3   OH224427   5.044   0.114  10.833
  979TIP3    H124428   5.058   0.111  10.738
  979TIP3    H224429   5.032   0.016  10.844
  980TIP3   OH224430   5.190   0.097  10.398
  980TIP3    H124431   5.117   0.157  10.376
  980TIP3    H224432   5.144   0.012  10.409
  981TIP3   OH224433   3.915   1.673  10.354
  981TIP3    H124434   3.846   1.666  10.286
  981TIP3    H224435   3.914   1.764  10.381
  982TIP3   OH224436   4.596   0.293  10.356
  982TIP3    H124437   4.636   0.236  10.422
  982TIP3    H224438   4.613   0.380  10.397
  983TIP3   OH224439   5.467   1.752  10.464
  983TIP3    H124440   5.451   1.673  10.407
  983TIP3    H224441   5.465   1.825  10.398
  984TIP3   OH224442   4.028   0.151  11.627
  984TIP3    H124443   3.996   0.074  11.674
  984TIP3    H224444   4.120   0.150  11.664
  985TIP3   OH224445   4.215   0.104  11.783
  985TIP3    H124446   4.309   0.076  11.774
  985TIP3    H224447   4.196   0.020  11.830
  986TIP3   OH224448   5.071   7.385  11.808
  986TIP3    H124449   5.077   7.322  11.882
  986TIP3    H224450   5.157   7.363  11.770
  987TIP3   OH224451   5.394   1.623  11.674
  987TIP3    H124452   5.314   1.609  11.621
  987TIP3    H224453   5.383   1.718  11.696
  988TIP3   OH224454   6.838   1.011  10.674
  988TIP3    H124455   6.839   1.109  10.667
  988TIP3    H224456   6.765   0.988  10.614
  989TIP3   OH224457   6.725   0.938  11.021
  989TIP3    H124458   6.722   0.873  11.092
  989TIP3    H224459   6.692   0.889  10.945
  990TIP3   OH224460   5.961   0.901  11.176
  990TIP3    H124461   5.969   0.838  11.250
  990TIP3    H224462   6.033   0.963  11.198
  991TIP3   OH224463   7.094   1.231  10.850
  991TIP3    H124464   7.053   1.160  10.899
  991TIP3    H224465   7.098   1.302  10.917
  992TIP3   OH224466   6.053   1.349  11.030
  992TIP3    H124467   6.020   1.263  10.995
  992TIP3    H224468   6.148   1.330  11.034
  993TIP3   OH224469   5.719   0.708  10.570
  993TIP3    H124470   5.672   0.794  10.572
  993TIP3    H224471   5.658   0.653  10.521
  994TIP3   OH224472   5.786   0.926  10.785
  994TIP3    H124473   5.813   0.848  10.835
  994TIP3    H224474   5.861   0.938  10.725
  995TIP3   OH224475   6.808   1.747  10.872
  995TIP3    H124476   6.871   1.676  10.845
  995TIP3    H224477   6.786   1.717  10.961
  996TIP3   OH224478   6.562   1.179  11.066
  996TIP3    H124479   6.596   1.114  11.002
  996TIP3    H224480   6.641   1.193  11.121
  997TIP3   OH224481   6.878   0.624  11.098
  997TIP3    H124482   6.895   0.527  11.097
  997TIP3    H224483   6.868   0.639  11.002
  998TIP3   OH224484   6.194   0.433  10.820
  998TIP3    H124485   6.201   0.518  10.773
  998TIP3    H224486   6.151   0.376  10.752
  999TIP3   OH224487   6.965   0.443  10.659
  999TIP3    H124488   7.032   0.411  10.726
  999TIP3    H224489   7.020   0.498  10.601
 1000TIP3   OH224490   5.850   0.669  10.898
 1000TIP3    H124491   5.926   0.622  10.935
 1000TIP3    H224492   5.862   0.646  10.804
 1001TIP3   OH224493   6.370   0.830  10.825
 1001TIP3    H124494   6.435   0.772  10.867
 1001TIP3    H224495   6.316   0.764  10.777
 1002TIP3   OH224496   6.078   0.325  11.227
 1002TIP3    H124497   6.060   0.377  11.149
 1002TIP3    H224498   6.012   0.344  11.298
 1003TIP3   OH224499   6.811   1.270  10.583
 1003TIP3    H124500   6.783   1.244  10.495
 1003TIP3    H224501   6.781   1.364  10.589
 1004TIP3   OH224502   6.333   1.088  11.252
 1004TIP3    H124503   6.261   1.152  11.270
 1004TIP3    H224504   6.403   1.147  11.223
 1005TIP3   OH224505   7.128   0.375  10.864
 1005TIP3    H124506   7.120   0.295  10.915
 1005TIP3    H224507   7.203   0.419  10.909
 1006TIP3   OH224508   6.047   0.524  11.008
 1006TIP3    H124509   6.114   0.580  11.056
 1006TIP3    H224510   6.104   0.467  10.949
 1007TIP3   OH224511   6.176   1.286  11.332
 1007TIP3    H124512   6.172   1.378  11.298
 1007TIP3    H224513   6.088   1.280  11.377
 1008TIP3   OH224514   5.782   1.254  10.414
 1008TIP3    H124515   5.761   1.283  10.326
 1008TIP3    H224516   5.791   1.338  10.463
 1009TIP3   OH224517   7.139   1.412  11.091
 1009TIP3    H124518   7.044   1.425  11.101
 1009TIP3    H224519   7.172   1.502  11.070
 1010TIP3   OH224520   7.169   0.255  11.221
 1010TIP3    H124521   7.096   0.316  11.216
 1010TIP3    H224522   7.241   0.293  11.170
 1011TIP3   OH224523   6.504   0.071  10.972
 1011TIP3    H124524   6.485  -0.023  10.967
 1011TIP3    H224525   6.412   0.096  10.994
 1012TIP3   OH224526   6.969   1.592  10.746
 1012TIP3    H124527   7.016   1.522  10.698
 1012TIP3    H224528   7.011   1.672  10.708
 1013TIP3   OH224529   7.091   1.386  10.597
 1013TIP3    H124530   7.064   1.315  10.537
 1013TIP3    H224531   7.096   1.337  10.682
 1014TIP3   OH224532   7.236   1.254  11.453
 1014TIP3    H124533   7.267   1.188  11.388
 1014TIP3    H224534   7.275   1.333  11.412
 1015TIP3   OH224535   6.704   0.937  10.422
 1015TIP3    H124536   6.631   0.989  10.387
 1015TIP3    H224537   6.775   0.948  10.357
 1016TIP3   OH224538   7.046   0.958  10.512
 1016TIP3    H124539   6.975   0.982  10.576
 1016TIP3    H224540   7.093   0.891  10.567
 1017TIP3   OH224541   7.037   0.771  11.426
 1017TIP3    H124542   7.042   0.852  11.480
 1017TIP3    H224543   6.977   0.804  11.356
 1018TIP3   OH224544   6.210   1.024  10.709
 1018TIP3    H124545   6.178   0.986  10.623
 1018TIP3    H224546   6.272   0.954  10.740
 1019TIP3   OH224547   6.343   1.363  10.976
 1019TIP3    H124548   6.340   1.308  10.897
 1019TIP3    H224549   6.421   1.326  11.022
 1020TIP3   OH224550   6.244   0.896  11.073
 1020TIP3    H124551   6.300   0.908  10.993
 1020TIP3    H224552   6.280   0.963  11.134
 1021TIP3   OH224553   6.880   1.453  11.143
 1021TIP3    H124554   6.856   1.516  11.211
 1021TIP3    H224555   6.859   1.367  11.186
 1022TIP3   OH224556   6.338   1.339  11.542
 1022TIP3    H124557   6.300   1.416  11.590
 1022TIP3    H224558   6.270   1.321  11.473
 1023TIP3   OH224559   6.031   0.956  11.460
 1023TIP3    H124560   6.036   1.023  11.532
 1023TIP3    H224561   5.938   0.967  11.436
 1024TIP3   OH224562   6.707   1.549  10.626
 1024TIP3    H124563   6.752   1.576  10.708
 1024TIP3    H224564   6.649   1.623  10.611
 1025TIP3   OH224565   6.162   1.545  11.618
 1025TIP3    H124566   6.158   1.533  11.522
 1025TIP3    H224567   6.068   1.532  11.644
 1026TIP3   OH224568   7.273   0.051  10.251
 1026TIP3    H124569   7.196   0.069  10.304
 1026TIP3    H224570   7.319   0.133  10.225
 1027TIP3   OH224571   6.104   0.928  10.481
 1027TIP3    H124572   6.086   1.003  10.422
 1027TIP3    H224573   6.043   0.860  10.451
 1028TIP3   OH224574   5.717   1.168  11.355
 1028TIP3    H124575   5.671   1.160  11.270
 1028TIP3    H224576   5.722   1.073  11.379
 1029TIP3   OH224577   5.693   1.441  11.036
 1029TIP3    H124578   5.788   1.429  11.034
 1029TIP3    H224579   5.684   1.522  11.088
 1030TIP3   OH224580   6.612   1.466  11.491
 1030TIP3    H124581   6.619   1.550  11.541
 1030TIP3    H224582   6.524   1.431  11.516
 1031TIP3   OH224583   6.020   1.727  10.652
 1031TIP3    H124584   6.033   1.686  10.740
 1031TIP3    H224585   5.934   1.688  10.628
 1032TIP3   OH224586   6.930   1.758  10.451
 1032TIP3    H124587   6.836   1.761  10.465
 1032TIP3    H224588   6.958   1.681  10.502
 1033TIP3   OH224589   7.203   0.668  11.657
 1033TIP3    H124590   7.184   0.708  11.572
 1033TIP3    H224591   7.236   0.579  11.628
 1034TIP3   OH224592   5.944   1.299  11.452
 1034TIP3    H124593   5.967   1.262  11.540
 1034TIP3    H224594   5.857   1.259  11.431
 1035TIP3   OH224595   6.205   0.158  11.055
 1035TIP3    H124596   6.120   0.139  11.011
 1035TIP3    H224597   6.196   0.241  11.098
 1036TIP3   OH224598   6.673   0.114  11.386
 1036TIP3    H124599   6.715   0.075  11.463
 1036TIP3    H224600   6.578   0.102  11.401
 1037TIP3   OH224601   7.004   0.494  11.474
 1037TIP3    H124602   6.950   0.479  11.554
 1037TIP3    H224603   6.989   0.587  11.451
 1038TIP3   OH224604   6.218   0.641  11.169
 1038TIP3    H124605   6.151   0.644  11.238
 1038TIP3    H224606   6.220   0.735  11.136
 1039TIP3   OH224607   6.217   0.657  10.657
 1039TIP3    H124608   6.125   0.629  10.644
 1039TIP3    H224609   6.258   0.628  10.573
 1040TIP3   OH224610   6.768   0.702  10.531
 1040TIP3    H124611   6.729   0.789  10.504
 1040TIP3    H224612   6.845   0.691  10.473
 1041TIP3   OH224613   6.677   0.726  11.681
 1041TIP3    H124614   6.624   0.650  11.712
 1041TIP3    H224615   6.761   0.713  11.728
 1042TIP3   OH224616   6.873   0.655  10.819
 1042TIP3    H124617   6.848   0.710  10.744
 1042TIP3    H224618   6.885   0.569  10.774
 1043TIP3   OH224619   5.985   0.668  11.341
 1043TIP3    H124620   5.991   0.712  11.429
 1043TIP3    H224621   5.940   0.587  11.365
 1044TIP3   OH224622   5.652   0.384  10.735
 1044TIP3    H124623   5.718   0.377  10.806
 1044TIP3    H224624   5.695   0.342  10.659
 1045TIP3   OH224625   5.780   0.462  10.283
 1045TIP3    H124626   5.823   0.514  10.213
 1045TIP3    H224627   5.704   0.514  10.306
 1046TIP3   OH224628   6.794   0.813  11.278
 1046TIP3    H124629   6.831   0.746  11.217
 1046TIP3    H224630   6.749   0.760  11.345
 1047TIP3   OH224631   6.475   0.408  10.758
 1047TIP3    H124632   6.382   0.409  10.789
 1047TIP3    H224633   6.523   0.398  10.842
 1048TIP3   OH224634   5.955   0.565  10.647
 1048TIP3    H124635   5.866   0.579  10.607
 1048TIP3    H224636   5.985   0.482  10.606
 1049TIP3   OH224637   6.319   0.569  10.410
 1049TIP3    H124638   6.414   0.582  10.428
 1049TIP3    H224639   6.299   0.636  10.344
 1050TIP3   OH224640   6.913   0.332  11.084
 1050TIP3    H124641   6.845   0.340  11.153
 1050TIP3    H224642   6.863   0.312  11.003
 1051TIP3   OH224643   7.233   1.899  11.717
 1051TIP3    H124644   7.263   1.936  11.632
 1051TIP3    H224645   7.306   1.929  11.773
 1052TIP3   OH224646   6.003   1.145  11.673
 1052TIP3    H124647   6.075   1.170  11.733
 1052TIP3    H224648   5.925   1.158  11.731
 1053TIP3   OH224649   6.604   0.685  10.949
 1053TIP3    H124650   6.663   0.630  10.896
 1053TIP3    H224651   6.589   0.632  11.028
 1054TIP3   OH224652   6.104   0.304  10.591
 1054TIP3    H124653   6.072   0.212  10.591
 1054TIP3    H224654   6.183   0.296  10.534
 1055TIP3   OH224655   6.465   0.519  11.190
 1055TIP3    H124656   6.384   0.572  11.201
 1055TIP3    H224657   6.521   0.553  11.263
 1056TIP3   OH224658   7.231   1.062  11.240
 1056TIP3    H124659   7.295   1.093  11.173
 1056TIP3    H224660   7.149   1.067  11.188
 1057TIP3   OH224661   6.674   1.166  11.483
 1057TIP3    H124662   6.640   1.125  11.564
 1057TIP3    H224663   6.652   1.259  11.493
 1058TIP3   OH224664   6.971   0.615  10.353
 1058TIP3    H124665   7.065   0.599  10.382
 1058TIP3    H224666   6.989   0.690  10.294
 1059TIP3   OH224667   6.035   1.079  10.939
 1059TIP3    H124668   6.107   1.073  10.872
 1059TIP3    H224669   6.043   0.994  10.985
 1060TIP3   OH224670   6.737   1.288  10.270
 1060TIP3    H124671   6.702   1.373  10.298
 1060TIP3    H224672   6.662   1.228  10.277
 1061TIP3   OH224673   5.735   0.921  11.466
 1061TIP3    H124674   5.754   0.877  11.551
 1061TIP3    H224675   5.672   0.860  11.424
 1062TIP3   OH224676   6.436   0.877  11.686
 1062TIP3    H124677   6.406   0.850  11.598
 1062TIP3    H224678   6.529   0.847  11.685
 1063TIP3   OH224679   6.901   1.409  11.477
 1063TIP3    H124680   6.809   1.429  11.455
 1063TIP3    H224681   6.902   1.438  11.570
 1064TIP3   OH224682   7.293   1.513  10.358
 1064TIP3    H124683   7.262   1.429  10.393
 1064TIP3    H224684   7.326   1.492  10.270
 1065TIP3   OH224685   7.016   0.992  11.068
 1065TIP3    H124686   6.922   0.970  11.057
 1065TIP3    H224687   7.063   0.917  11.027
 1066TIP3   OH224688   6.274   1.425  10.674
 1066TIP3    H124689   6.323   1.507  10.658
 1066TIP3    H224690   6.184   1.450  10.647
 1067TIP3   OH224691   6.417   1.193  10.633
 1067TIP3    H124692   6.386   1.285  10.639
 1067TIP3    H224693   6.342   1.144  10.672
 1068TIP3   OH224694   6.461   1.610  11.269
 1068TIP3    H124695   6.505   1.692  11.242
 1068TIP3    H224696   6.521   1.578  11.339
 1069TIP3   OH224697   6.284   1.693  10.583
 1069TIP3    H124698   6.187   1.704  10.597
 1069TIP3    H224699   6.316   1.777  10.622
 1070TIP3   OH224700   6.817   1.214  11.234
 1070TIP3    H124701   6.779   1.193  11.322
 1070TIP3    H224702   6.878   1.140  11.217
 1071TIP3   OH224703   7.041   1.312  10.145
 1071TIP3    H124704   7.074   1.273  10.227
 1071TIP3    H224705   6.945   1.305  10.152
 1072TIP3   OH224706   7.089   1.672  11.483
 1072TIP3    H124707   7.025   1.619  11.433
 1072TIP3    H224708   7.114   1.739  11.416
 1073TIP3   OH224709   5.898   0.394  11.417
 1073TIP3    H124710   5.808   0.429  11.423
 1073TIP3    H224711   5.888   0.309  11.467
 1074TIP3   OH224712   7.125   1.180  10.369
 1074TIP3    H124713   7.100   1.101  10.423
 1074TIP3    H224714   7.220   1.187  10.388
 1075TIP3   OH224715   5.862   1.575  11.265
 1075TIP3    H124716   5.889   1.482  11.265
 1075TIP3    H224717   5.888   1.602  11.353
 1076TIP3   OH224718   6.341   1.380  10.235
 1076TIP3    H124719   6.358   1.324  10.311
 1076TIP3    H224720   6.340   1.470  10.266
 1077TIP3   OH224721   6.772   0.370  11.316
 1077TIP3    H124722   6.845   0.378  11.379
 1077TIP3    H224723   6.736   0.281  11.333
 1078TIP3   OH224724   6.849   0.336  10.421
 1078TIP3    H124725   6.877   0.383  10.344
 1078TIP3    H224726   6.904   0.373  10.492
 1079TIP3   OH224727   6.570   0.506  10.505
 1079TIP3    H124728   6.651   0.560  10.513
 1079TIP3    H224729   6.544   0.491  10.599
 1080TIP3   OH224730   6.626   0.606  11.425
 1080TIP3    H124731   6.635   0.664  11.504
 1080TIP3    H224732   6.692   0.536  11.436
 1081TIP3   OH224733   6.657   0.210  10.601
 1081TIP3    H124734   6.624   0.278  10.663
 1081TIP3    H224735   6.722   0.264  10.551
 1082TIP3   OH224736   6.221   0.318  10.277
 1082TIP3    H124737   6.217   0.411  10.301
 1082TIP3    H224738   6.315   0.298  10.288
 1083TIP3   OH224739   7.242   0.387  11.504
 1083TIP3    H124740   7.151   0.424  11.498
 1083TIP3    H224741   7.275   0.395  11.415
 1084TIP3   OH224742   7.106   0.774  10.918
 1084TIP3    H124743   7.025   0.731  10.884
 1084TIP3    H224744   7.147   0.700  10.966
 1085TIP3   OH224745   7.215   1.697  11.080
 1085TIP3    H124746   7.199   1.767  11.013
 1085TIP3    H224747   7.308   1.707  11.100
 1086TIP3   OH224748   5.942   0.126  10.961
 1086TIP3    H124749   5.942   0.114  10.863
 1086TIP3    H224750   5.926   0.033  10.984
 1087TIP3   OH224751   5.856   1.502  10.571
 1087TIP3    H124752   5.773   1.550  10.572
 1087TIP3    H224753   5.907   1.552  10.506
 1088TIP3   OH224754   5.779   1.767  11.703
 1088TIP3    H124755   5.838   1.746  11.778
 1088TIP3    H224756   5.736   1.682  11.684
 1089TIP3   OH224757   6.244   1.659  11.864
 1089TIP3    H124758   6.321   1.610  11.897
 1089TIP3    H224759   6.242   1.633  11.770
 1090TIP3   OH224760   6.899   1.497  11.738
 1090TIP3    H124761   6.867   1.409  11.765
 1090TIP3    H224762   6.974   1.509  11.799
 1091TIP3   OH224763   5.771   1.146  11.801
 1091TIP3    H124764   5.787   1.054  11.771
 1091TIP3    H224765   5.695   1.172  11.746
 1092TIP3   OH224766   6.441   1.144  11.741
 1092TIP3    H124767   6.407   1.173  11.654
 1092TIP3    H224768   6.451   1.046  11.731
 1093TIP3   OH224769   7.010   1.129  11.477
 1093TIP3    H124770   7.087   1.190  11.470
 1093TIP3    H224771   6.940   1.195  11.484
 1094TIP3   OH224772   5.860   0.868  11.740
 1094TIP3    H124773   5.901   0.781  11.730
 1094TIP3    H224774   5.835   0.868  11.834
 1095TIP3   OH224775   6.249   0.762  11.475
 1095TIP3    H124776   6.191   0.835  11.504
 1095TIP3    H224777   6.290   0.800  11.395
 1096TIP3   OH224778   6.754   1.018  11.809
 1096TIP3    H124779   6.851   1.020  11.799
 1096TIP3    H224780   6.740   0.941  11.866
 1097TIP3   OH224781   6.291   0.501  11.585
 1097TIP3    H124782   6.304   0.428  11.521
 1097TIP3    H224783   6.288   0.581  11.529
 1098TIP3   OH224784   6.330   0.340  11.336
 1098TIP3    H124785   6.384   0.386  11.267
 1098TIP3    H224786   6.242   0.327  11.294
 1099TIP3   OH224787   6.485   0.885  11.361
 1099TIP3    H124788   6.561   0.869  11.303
 1099TIP3    H224789   6.450   0.970  11.329
 1100TIP3   OH224790   6.925   0.664  11.859
 1100TIP3    H124791   6.948   0.571  11.848
 1100TIP3    H224792   7.013   0.706  11.859
 1101TIP3   OH224793   7.055   0.942  11.671
 1101TIP3    H124794   7.033   1.016  11.611
 1101TIP3    H224795   7.152   0.938  11.655
 1102TIP3   OH224796   6.136   0.625  11.775
 1102TIP3    H124797   6.059   0.568  11.756
 1102TIP3    H224798   6.203   0.589  11.713
 1103TIP3   OH224799   6.401   0.095  11.394
 1103TIP3    H124800   6.394   0.190  11.369
 1103TIP3    H224801   6.337   0.054  11.333
 1104TIP3   OH224802   6.537   0.515  11.737
 1104TIP3    H124803   6.508   0.490  11.826
 1104TIP3    H224804   6.457   0.495  11.684
 1105TIP3   OH224805   6.807   0.433  11.647
 1105TIP3    H124806   6.710   0.432  11.658
 1105TIP3    H224807   6.837   0.367  11.712
 1106TIP3   OH224808   6.975   0.296  11.842
 1106TIP3    H124809   6.959   0.198  11.839
 1106TIP3    H224810   6.938   0.321  11.929
 1107TIP3   OH224811   5.946   0.416  11.748
 1107TIP3    H124812   5.973   0.343  11.690
 1107TIP3    H224813   5.939   0.371  11.834
 1108TIP3   OH224814   6.430   7.358  11.645
 1108TIP3    H124815   6.500   7.293  11.649
 1108TIP3    H224816   6.422   7.384  11.551
 1109TIP3   OH224817   6.468   0.186  11.852
 1109TIP3    H124818   6.453   0.132  11.772
 1109TIP3    H224819   6.407   0.260  11.845
 1110TIP3   OH224820   5.647   1.871  10.620
 1110TIP3    H124821   5.577   1.823  10.571
 1110TIP3    H224822   5.677   1.805  10.684
 1111TIP3   OH224823   5.730   1.683  10.805
 1111TIP3    H124824   5.695   1.595  10.824
 1111TIP3    H224825   5.753   1.716  10.893
 1112TIP3   OH224826   7.269   1.305  11.849
 1112TIP3    H124827   7.192   1.289  11.904
 1112TIP3    H224828   7.321   1.369  11.900
 1113TIP3   OH224829   7.282   1.489  11.322
 1113TIP3    H124830   7.215   1.531  11.379
 1113TIP3    H224831   7.228   1.453  11.248
 1114TIP3   OH224832   7.202   0.788  10.649
 1114TIP3    H124833   7.217   0.692  10.653
 1114TIP3    H224834   7.198   0.810  10.743
 1115TIP3   OH224835   5.736   0.988  11.054
 1115TIP3    H124836   5.755   0.984  10.957
 1115TIP3    H224837   5.826   0.976  11.091
 1116TIP3   OH224838  -0.031   0.983  11.643
 1116TIP3    H124839   0.028   0.906  11.640
 1116TIP3    H224840   0.028   1.055  11.615
 1117TIP3   OH224841   7.201   0.537  10.488
 1117TIP3    H124842   7.232   0.448  10.515
 1117TIP3    H224843   7.280   0.578  10.451
 1118TIP3   OH224844   7.227   0.548  11.029
 1118TIP3    H124845   7.323   0.563  11.019
 1118TIP3    H224846   7.231   0.596  11.115
 1119TIP3   OH224847   7.270   0.669  11.324
 1119TIP3    H124848   7.182   0.699  11.352
 1119TIP3    H224849   7.312   0.749  11.291
 1120TIP3   OH224850   5.697   0.521  11.665
 1120TIP3    H124851   5.790   0.500  11.690
 1120TIP3    H224852   5.652   0.440  11.698
 1121TIP3   OH224853   7.189   0.250  10.552
 1121TIP3    H124854   7.277   0.221  10.583
 1121TIP3    H224855   7.192   0.201  10.466
 1122TIP3   OH224856   5.812   0.348  10.956
 1122TIP3    H124857   5.862   0.265  10.978
 1122TIP3    H224858   5.871   0.418  10.974
 1123TIP3   OH224859   5.653   0.644  11.064
 1123TIP3    H124860   5.699   0.629  10.979
 1123TIP3    H224861   5.687   0.732  11.085
 1124TIP3   OH224862   5.683   0.274  10.468
 1124TIP3    H124863   5.589   0.295  10.454
 1124TIP3    H224864   5.725   0.323  10.395
 1125TIP3   OH224865   7.145   1.762  10.667
 1125TIP3    H124866   7.211   1.727  10.605
 1125TIP3    H224867   7.201   1.818  10.724
 1126TIP3   OH224868   5.680   0.149  11.298
 1126TIP3    H124869   5.613   0.123  11.363
 1126TIP3    H224870   5.630   0.209  11.240
 1127TIP3   OH224871   5.900   1.462  11.713
 1127TIP3    H124872   5.816   1.483  11.668
 1127TIP3    H224873   5.873   1.455  11.805
 1128TIP3   OH224874   6.191   1.561  11.340
 1128TIP3    H124875   6.155   1.646  11.312
 1128TIP3    H224876   6.283   1.571  11.309
 1129TIP3   OH224877   6.623   1.704  11.632
 1129TIP3    H124878   6.639   1.669  11.723
 1129TIP3    H224879   6.712   1.734  11.605
 1130TIP3   OH224880   6.855   1.831  11.561
 1130TIP3    H124881   6.927   1.771  11.538
 1130TIP3    H224882   6.891   1.873  11.642
 1131TIP3   OH224883   5.934   1.886  11.341
 1131TIP3    H124884   5.860   1.934  11.300
 1131TIP3    H224885   5.900   1.865  11.430
 1132TIP3   OH224886   6.181   1.844  11.248
 1132TIP3    H124887   6.091   1.857  11.287
 1132TIP3    H224888   6.174   1.903  11.170
 1133TIP3   OH224889   6.651   1.835  11.164
 1133TIP3    H124890   6.604   1.890  11.099
 1133TIP3    H224891   6.665   1.898  11.238
 1134TIP3   OH224892   6.883   1.718  11.263
 1134TIP3    H124893   6.794   1.742  11.231
 1134TIP3    H224894   6.926   1.805  11.256
 1135TIP3   OH224895   7.137   1.878  11.290
 1135TIP3    H124896   7.127   1.972  11.267
 1135TIP3    H224897   7.162   1.838  11.204
 1136TIP3   OH224898   5.877   1.751  11.034
 1136TIP3    H124899   5.871   1.706  11.121
 1136TIP3    H224900   5.959   1.715  10.995
 1137TIP3   OH224901   6.086   1.622  10.900
 1137TIP3    H124902   6.069   1.528  10.921
 1137TIP3    H224903   6.172   1.636  10.946
 1138TIP3   OH224904   6.343   1.670  10.987
 1138TIP3    H124905   6.363   1.579  10.959
 1138TIP3    H224906   6.351   1.664  11.083
 1139TIP3   OH224907   6.691   0.241  10.899
 1139TIP3    H124908   6.627   0.172  10.927
 1139TIP3    H224909   6.751   0.187  10.845
 1140TIP3   OH224910   7.199   0.051  10.921
 1140TIP3    H124911   7.263   0.095  10.862
 1140TIP3    H224912   7.114   0.077  10.885
 1141TIP3   OH224913   5.932   0.104  10.676
 1141TIP3    H124914   5.848   0.076  10.636
 1141TIP3    H224915   5.974   0.017  10.687
 1142TIP3   OH224916   6.405   0.129  10.696
 1142TIP3    H124917   6.499   0.131  10.671
 1142TIP3    H224918   6.389   0.065  10.767
 1143TIP3   OH224919   6.932   0.114  10.832
 1143TIP3    H124920   6.944   0.113  10.737
 1143TIP3    H224921   6.918   0.015  10.844
 1144TIP3   OH224922   7.068   0.094  10.393
 1144TIP3    H124923   6.996   0.155  10.377
 1144TIP3    H224924   7.028   0.008  10.408
 1145TIP3   OH224925   5.799   1.671  10.358
 1145TIP3    H124926   5.733   1.669  10.287
 1145TIP3    H224927   5.799   1.766  10.377
 1146TIP3   OH224928   6.488   0.296  10.353
 1146TIP3    H124929   6.519   0.234  10.421
 1146TIP3    H224930   6.495   0.381  10.400
 1147TIP3   OH224931   5.913   0.152  11.626
 1147TIP3    H124932   5.882   0.075  11.674
 1147TIP3    H224933   6.006   0.151  11.663
 1148TIP3   OH224934   6.101   0.104  11.783
 1148TIP3    H124935   6.195   0.076  11.774
 1148TIP3    H224936   6.082   0.020  11.830
 1149TIP3   OH224937   5.976   1.765  10.059
 1149TIP3    H124938   5.954   1.794  10.146
 1149TIP3    H224939   6.056   1.710  10.066
 1150TIP3   OH224940   6.957   7.385  11.805
 1150TIP3    H124941   6.963   7.324  11.882
 1150TIP3    H224942   7.044   7.363  11.769
 1151TIP3   OH224943   7.272   1.619  11.682
 1151TIP3    H124944   7.199   1.608  11.618
 1151TIP3    H224945   7.267   1.717  11.696
 1152TIP3   OH224946   1.180   2.897  10.675
 1152TIP3    H124947   1.182   2.995  10.667
 1152TIP3    H224948   1.111   2.874  10.611
 1153TIP3   OH224949   1.068   2.824  11.022
 1153TIP3    H124950   1.066   2.758  11.092
 1153TIP3    H224951   1.035   2.775  10.945
 1154TIP3   OH224952   0.306   2.788  11.176
 1154TIP3    H124953   0.312   2.722  11.248
 1154TIP3    H224954   0.378   2.848  11.199
 1155TIP3   OH224955   1.438   3.118  10.850
 1155TIP3    H124956   1.395   3.047  10.898
 1155TIP3    H224957   1.438   3.189  10.916
 1156TIP3   OH224958   0.394   3.234  11.030
 1156TIP3    H124959   0.361   3.149  10.996
 1156TIP3    H224960   0.490   3.215  11.034
 1157TIP3   OH224961   0.130   2.810  10.785
 1157TIP3    H124962   0.154   2.733  10.839
 1157TIP3    H224963   0.205   2.822  10.726
 1158TIP3   OH224964   1.158   3.639  10.879
 1158TIP3    H124965   1.211   3.562  10.843
 1158TIP3    H224966   1.123   3.597  10.959
 1159TIP3   OH224967   0.905   3.065  11.066
 1159TIP3    H124968   0.939   3.000  11.002
 1159TIP3    H224969   0.984   3.079  11.121
 1160TIP3   OH224970   1.768   2.228  11.143
 1160TIP3    H124971   1.782   2.289  11.219
 1160TIP3    H224972   1.821   2.272  11.075
 1161TIP3   OH224973   1.222   2.510  11.099
 1161TIP3    H124974   1.237   2.414  11.098
 1161TIP3    H224975   1.212   2.525  11.002
 1162TIP3   OH224976   0.533   2.319  10.824
 1162TIP3    H124977   0.545   2.401  10.774
 1162TIP3    H224978   0.494   2.260  10.755
 1163TIP3   OH224979   1.307   2.328  10.660
 1163TIP3    H124980   1.375   2.296  10.725
 1163TIP3    H224981   1.361   2.383  10.601
 1164TIP3   OH224982   0.200   2.559  10.890
 1164TIP3    H124983   0.265   2.505  10.940
 1164TIP3    H224984   0.209   2.526  10.802
 1165TIP3   OH224985   0.713   2.715  10.824
 1165TIP3    H124986   0.778   2.657  10.868
 1165TIP3    H224987   0.659   2.648  10.776
 1166TIP3   OH224988   1.811   2.371  11.369
 1166TIP3    H124989   1.747   2.445  11.359
 1166TIP3    H224990   1.814   2.359  11.464
 1167TIP3   OH224991   0.423   2.209  11.226
 1167TIP3    H124992   0.396   2.265  11.151
 1167TIP3    H224993   0.354   2.232  11.293
 1168TIP3   OH224994   1.153   3.158  10.582
 1168TIP3    H124995   1.125   3.129  10.494
 1168TIP3    H224996   1.123   3.251  10.586
 1169TIP3   OH224997   0.677   2.973  11.252
 1169TIP3    H124998   0.604   3.036  11.270
 1169TIP3    H224999   0.747   3.033  11.223
 1170TIP3   OH225000   1.486   2.261  10.859
 1170TIP3    H125001   1.466   2.184  10.912
 1170TIP3    H225002   1.554   2.305  10.913
 1171TIP3   OH225003   0.377   2.394  11.025
 1171TIP3    H125004   0.439   2.462  11.061
 1171TIP3    H225005   0.434   2.352  10.956
 1172TIP3   OH225006   0.519   3.172  11.332
 1172TIP3    H125007   0.514   3.263  11.298
 1172TIP3    H225008   0.430   3.165  11.376
 1173TIP3   OH225009   1.490   3.302  11.086
 1173TIP3    H125010   1.393   3.310  11.100
 1173TIP3    H225011   1.518   3.393  11.068
 1174TIP3   OH225012   1.522   2.130  11.226
 1174TIP3    H125013   1.448   2.193  11.219
 1174TIP3    H225014   1.592   2.172  11.173
 1175TIP3   OH225015   0.820   1.941  10.973
 1175TIP3    H125016   0.807   1.845  10.966
 1175TIP3    H225017   0.732   1.972  11.002
 1176TIP3   OH225018   1.316   3.481  10.750
 1176TIP3    H125019   1.357   3.408  10.697
 1176TIP3    H225020   1.354   3.558  10.704
 1177TIP3   OH225021   1.436   3.272  10.598
 1177TIP3    H125022   1.407   3.202  10.537
 1177TIP3    H225023   1.439   3.224  10.682
 1178TIP3   OH225024   1.599   3.130  11.447
 1178TIP3    H125025   1.614   3.067  11.373
 1178TIP3    H225026   1.618   3.216  11.405
 1179TIP3   OH225027   1.049   2.825  10.427
 1179TIP3    H125028   0.978   2.877  10.388
 1179TIP3    H225029   1.118   2.829  10.356
 1180TIP3   OH225030   1.053   2.669  10.129
 1180TIP3    H125031   1.125   2.674  10.193
 1180TIP3    H225032   1.085   2.606  10.065
 1181TIP3   OH225033   1.787   2.762  11.252
 1181TIP3    H125034   1.720   2.834  11.258
 1181TIP3    H225035   1.834   2.785  11.171
 1182TIP3   OH225036   1.392   2.844  10.517
 1182TIP3    H125037   1.317   2.866  10.576
 1182TIP3    H225038   1.438   2.774  10.567
 1183TIP3   OH225039   1.384   2.659  11.427
 1183TIP3    H125040   1.386   2.740  11.481
 1183TIP3    H225041   1.321   2.689  11.358
 1184TIP3   OH225042   0.552   2.909  10.708
 1184TIP3    H125043   0.522   2.869  10.624
 1184TIP3    H225044   0.615   2.840  10.741
 1185TIP3   OH225045   0.687   3.249  10.975
 1185TIP3    H125046   0.684   3.193  10.896
 1185TIP3    H225047   0.764   3.212  11.022
 1186TIP3   OH225048   0.588   2.783  11.072
 1186TIP3    H125049   0.644   2.795  10.993
 1186TIP3    H225050   0.624   2.850  11.135
 1187TIP3   OH225051   1.226   3.340  11.143
 1187TIP3    H125052   1.198   3.401  11.211
 1187TIP3    H225053   1.202   3.253  11.185
 1188TIP3   OH225054   0.681   3.225  11.542
 1188TIP3    H125055   0.643   3.301  11.590
 1188TIP3    H225056   0.613   3.207  11.473
 1189TIP3   OH225057   1.274   2.764  10.285
 1189TIP3    H125058   1.335   2.777  10.361
 1189TIP3    H225059   1.322   2.808  10.213
 1190TIP3   OH225060   0.376   2.843  11.463
 1190TIP3    H125061   0.379   2.911  11.532
 1190TIP3    H225062   0.283   2.852  11.434
 1191TIP3   OH225063   1.050   3.434  10.631
 1191TIP3    H125064   1.096   3.466  10.709
 1191TIP3    H225065   0.994   3.508  10.606
 1192TIP3   OH225066   0.506   3.429  11.618
 1192TIP3    H125067   0.499   3.419  11.521
 1192TIP3    H225068   0.412   3.418  11.644
 1193TIP3   OH225069   0.454   2.814  10.468
 1193TIP3    H125070   0.424   2.891  10.419
 1193TIP3    H225071   0.387   2.748  10.451
 1194TIP3   OH225072   0.098   3.044  11.335
 1194TIP3    H125073   0.024   3.049  11.271
 1194TIP3    H225074   0.070   2.960  11.377
 1195TIP3   OH225075   0.047   3.337  11.025
 1195TIP3    H125076   0.138   3.312  11.036
 1195TIP3    H225077   0.031   3.405  11.091
 1196TIP3   OH225078   1.859   3.398  11.606
 1196TIP3    H125079   1.850   3.301  11.601
 1196TIP3    H225080   1.771   3.419  11.642
 1197TIP3   OH225081   0.955   3.351  11.491
 1197TIP3    H125082   0.962   3.436  11.541
 1197TIP3    H225083   0.868   3.317  11.516
 1198TIP3   OH225084   0.999   3.727  10.472
 1198TIP3    H125085   0.989   3.718  10.376
 1198TIP3    H225086   1.001   3.824  10.487
 1199TIP3   OH225087   0.363   3.612  10.650
 1199TIP3    H125088   0.377   3.573  10.739
 1199TIP3    H225089   0.278   3.572  10.626
 1200TIP3   OH225090   1.273   3.642  10.448
 1200TIP3    H125091   1.177   3.646  10.465
 1200TIP3    H225092   1.299   3.566  10.501
 1201TIP3   OH225093   1.573   2.544  11.652
 1201TIP3    H125094   1.528   2.590  11.580
 1201TIP3    H225095   1.574   2.453  11.621
 1202TIP3   OH225096   0.288   3.188  11.453
 1202TIP3    H125097   0.306   3.148  11.540
 1202TIP3    H225098   0.202   3.146  11.429
 1203TIP3   OH225099   0.555   2.032  11.048
 1203TIP3    H125100   0.465   2.021  11.011
 1203TIP3    H225101   0.544   2.116  11.095
 1204TIP3   OH225102   1.019   2.000  11.385
 1204TIP3    H125103   1.059   1.958  11.463
 1204TIP3    H225104   0.922   1.986  11.399
 1205TIP3   OH225105   1.349   2.382  11.474
 1205TIP3    H125106   1.294   2.363  11.553
 1205TIP3    H225107   1.331   2.474  11.450
 1206TIP3   OH225108   0.564   2.527  11.168
 1206TIP3    H125109   0.492   2.526  11.235
 1206TIP3    H225110   0.560   2.621  11.136
 1207TIP3   OH225111   0.559   2.546  10.657
 1207TIP3    H125112   0.468   2.515  10.644
 1207TIP3    H225113   0.603   2.511  10.576
 1208TIP3   OH225114   1.112   2.590  10.535
 1208TIP3    H125115   1.073   2.674  10.502
 1208TIP3    H225116   1.184   2.576  10.471
 1209TIP3   OH225117   1.021   2.611  11.681
 1209TIP3    H125118   0.966   2.535  11.712
 1209TIP3    H225119   1.104   2.598  11.728
 1210TIP3   OH225120   1.215   2.539  10.819
 1210TIP3    H125121   1.190   2.595  10.744
 1210TIP3    H225122   1.228   2.454  10.771
 1211TIP3   OH225123   0.332   2.555  11.343
 1211TIP3    H125124   0.332   2.597  11.431
 1211TIP3    H225125   0.283   2.473  11.359
 1212TIP3   OH225126   0.009   2.282  10.728
 1212TIP3    H125127   0.060   2.261  10.808
 1212TIP3    H225128   0.043   2.222  10.659
 1213TIP3   OH225129   1.138   2.699  11.278
 1213TIP3    H125130   1.174   2.632  11.218
 1213TIP3    H225131   1.092   2.646  11.345
 1214TIP3   OH225132   0.818   2.297  10.763
 1214TIP3    H125133   0.723   2.296  10.788
 1214TIP3    H225134   0.866   2.282  10.844
 1215TIP3   OH225135   0.300   2.456  10.642
 1215TIP3    H125136   0.210   2.461  10.609
 1215TIP3    H225137   0.329   2.369  10.609
 1216TIP3   OH225138   0.659   2.465  10.416
 1216TIP3    H125139   0.756   2.460  10.424
 1216TIP3    H225140   0.645   2.520  10.339
 1217TIP3   OH225141   1.258   2.219  11.084
 1217TIP3    H125142   1.189   2.226  11.154
 1217TIP3    H225143   1.207   2.196  11.005
 1218TIP3   OH225144   1.584   3.780  11.718
 1218TIP3    H125145   1.603   3.823  11.631
 1218TIP3    H225146   1.652   3.826  11.770
 1219TIP3   OH225147   0.347   3.030  11.672
 1219TIP3    H125148   0.418   3.056  11.733
 1219TIP3    H225149   0.269   3.045  11.731
 1220TIP3   OH225150   0.945   2.571  10.949
 1220TIP3    H125151   1.005   2.517  10.895
 1220TIP3    H225152   0.932   2.517  11.028
 1221TIP3   OH225153   0.445   2.189  10.591
 1221TIP3    H125154   0.417   2.096  10.588
 1221TIP3    H225155   0.526   2.183  10.535
 1222TIP3   OH225156   0.810   2.405  11.190
 1222TIP3    H125157   0.727   2.456  11.200
 1222TIP3    H225158   0.864   2.439  11.264
 1223TIP3   OH225159   0.867   3.028  10.359
 1223TIP3    H125160   0.788   2.980  10.327
 1223TIP3    H225161   0.849   3.039  10.454
 1224TIP3   OH225162   1.585   2.946  11.240
 1224TIP3    H125163   1.643   2.993  11.179
 1224TIP3    H225164   1.499   2.953  11.193
 1225TIP3   OH225165   1.017   3.052  11.484
 1225TIP3    H125166   0.983   3.011  11.564
 1225TIP3    H225167   0.994   3.145  11.493
 1226TIP3   OH225168   1.324   2.497  10.345
 1226TIP3    H125169   1.416   2.485  10.378
 1226TIP3    H225170   1.334   2.577  10.290
 1227TIP3   OH225171   0.381   2.966  10.940
 1227TIP3    H125172   0.449   2.958  10.872
 1227TIP3    H225173   0.386   2.880  10.985
 1228TIP3   OH225174   1.078   3.176  10.263
 1228TIP3    H125175   1.045   3.260  10.300
 1228TIP3    H225176   1.006   3.114  10.283
 1229TIP3   OH225177   0.101   2.787  11.444
 1229TIP3    H125178   0.108   2.764  11.538
 1229TIP3    H225179   0.017   2.745  11.421
 1230TIP3   OH225180   0.780   2.762  11.686
 1230TIP3    H125181   0.749   2.736  11.598
 1230TIP3    H225182   0.873   2.732  11.685
 1231TIP3   OH225183   1.246   3.296  11.477
 1231TIP3    H125184   1.154   3.314  11.454
 1231TIP3    H225185   1.244   3.323  11.571
 1232TIP3   OH225186   1.813   3.101  11.600
 1232TIP3    H125187   1.725   3.121  11.561
 1232TIP3    H225188   1.869   3.097  11.520
 1233TIP3   OH225189   1.647   3.398  10.359
 1233TIP3    H125190   1.607   3.316  10.391
 1233TIP3    H225191   1.672   3.377  10.268
 1234TIP3   OH225192   1.364   2.879  11.067
 1234TIP3    H125193   1.269   2.857  11.059
 1234TIP3    H225194   1.407   2.802  11.027
 1235TIP3   OH225195   0.615   3.310  10.676
 1235TIP3    H125196   0.666   3.391  10.657
 1235TIP3    H225197   0.527   3.336  10.647
 1236TIP3   OH225198   0.759   3.077  10.631
 1236TIP3    H125199   0.731   3.170  10.640
 1236TIP3    H225200   0.685   3.031  10.675
 1237TIP3   OH225201   0.804   3.495  11.269
 1237TIP3    H125202   0.846   3.578  11.243
 1237TIP3    H225203   0.864   3.463  11.339
 1238TIP3   OH225204   0.627   3.575  10.592
 1238TIP3    H125205   0.530   3.591  10.595
 1238TIP3    H225206   0.662   3.662  10.620
 1239TIP3   OH225207   1.159   3.099  11.234
 1239TIP3    H125208   1.122   3.078  11.322
 1239TIP3    H225209   1.221   3.027  11.217
 1240TIP3   OH225210   1.435   3.557  11.484
 1240TIP3    H125211   1.369   3.504  11.434
 1240TIP3    H225212   1.456   3.625  11.417
 1241TIP3   OH225213   0.243   2.280  11.418
 1241TIP3    H125214   0.153   2.316  11.420
 1241TIP3    H225215   0.231   2.196  11.466
 1242TIP3   OH225216   1.467   3.064  10.368
 1242TIP3    H125217   1.443   2.987  10.421
 1242TIP3    H225218   1.563   3.072  10.384
 1243TIP3   OH225219   0.209   3.463  11.262
 1243TIP3    H125220   0.230   3.368  11.264
 1243TIP3    H225221   0.230   3.487  11.353
 1244TIP3   OH225222   0.799   3.305   9.991
 1244TIP3    H125223   0.817   3.231   9.934
 1244TIP3    H225224   0.762   3.269  10.071
 1245TIP3   OH225225   1.116   2.257  11.315
 1245TIP3    H125226   1.187   2.263  11.380
 1245TIP3    H225227   1.078   2.169  11.334
 1246TIP3   OH225228   1.194   2.217  10.420
 1246TIP3    H125229   1.214   2.269  10.342
 1246TIP3    H225230   1.248   2.259  10.489
 1247TIP3   OH225231   0.959   3.430  10.308
 1247TIP3    H125232   0.877   3.483  10.312
 1247TIP3    H225233   1.013   3.480  10.246
 1248TIP3   OH225234   0.913   2.394  10.506
 1248TIP3    H125235   0.994   2.447  10.511
 1248TIP3    H225236   0.887   2.376  10.598
 1249TIP3   OH225237   0.969   2.492  11.426
 1249TIP3    H125238   0.977   2.549  11.504
 1249TIP3    H225239   1.035   2.423  11.436
 1250TIP3   OH225240   1.006   2.097  10.605
 1250TIP3    H125241   0.965   2.165  10.661
 1250TIP3    H225242   1.067   2.153  10.551
 1251TIP3   OH225243   0.701   3.538  10.311
 1251TIP3    H125244   0.707   3.616  10.254
 1251TIP3    H225245   0.671   3.571  10.397
 1252TIP3   OH225246   1.588   2.280  11.511
 1252TIP3    H125247   1.495   2.310  11.498
 1252TIP3    H225248   1.618   2.280  11.418
 1253TIP3   OH225249   1.448   2.658  10.914
 1253TIP3    H125250   1.366   2.614  10.885
 1253TIP3    H225251   1.495   2.589  10.965
 1254TIP3   OH225252   1.553   3.587  11.081
 1254TIP3    H125253   1.548   3.652  11.009
 1254TIP3    H225254   1.650   3.588  11.098
 1255TIP3   OH225255   0.304   1.996  10.957
 1255TIP3    H125256   0.284   1.999  10.860
 1255TIP3    H225257   0.261   1.913  10.984
 1256TIP3   OH225258   0.202   3.389  10.573
 1256TIP3    H125259   0.115   3.433  10.570
 1256TIP3    H225260   0.250   3.440  10.506
 1257TIP3   OH225261   0.135   3.654  11.701
 1257TIP3    H125262   0.185   3.629  11.781
 1257TIP3    H225263   0.081   3.572  11.686
 1258TIP3   OH225264   0.589   3.544  11.864
 1258TIP3    H125265   0.665   3.495  11.897
 1258TIP3    H225266   0.585   3.517  11.770
 1259TIP3   OH225267   1.242   3.383  11.738
 1259TIP3    H125268   1.208   3.295  11.764
 1259TIP3    H225269   1.316   3.393  11.799
 1260TIP3   OH225270   0.126   3.031  11.798
 1260TIP3    H125271   0.131   2.938  11.772
 1260TIP3    H225272   0.042   3.059  11.756
 1261TIP3   OH225273   0.784   3.029  11.741
 1261TIP3    H125274   0.750   3.059  11.654
 1261TIP3    H225275   0.794   2.932  11.731
 1262TIP3   OH225276   1.086   3.168   9.982
 1262TIP3    H125277   1.063   3.189  10.075
 1262TIP3    H225278   1.067   3.075   9.974
 1263TIP3   OH225279   1.354   3.016  11.480
 1263TIP3    H125280   1.432   3.076  11.471
 1263TIP3    H225281   1.282   3.081  11.484
 1264TIP3   OH225282   0.198   2.752  11.739
 1264TIP3    H125283   0.245   2.667  11.731
 1264TIP3    H225284   0.181   2.754  11.834
 1265TIP3   OH225285   0.667   2.864  10.245
 1265TIP3    H125286   0.621   2.810  10.310
 1265TIP3    H225287   0.696   2.798  10.180
 1266TIP3   OH225288   0.594   2.649  11.477
 1266TIP3    H125289   0.533   2.720  11.504
 1266TIP3    H225290   0.632   2.685  11.395
 1267TIP3   OH225291   1.100   2.903  11.808
 1267TIP3    H125292   1.196   2.905  11.800
 1267TIP3    H225293   1.083   2.828  11.866
 1268TIP3   OH225294   0.634   2.386  11.584
 1268TIP3    H125295   0.645   2.314  11.519
 1268TIP3    H225296   0.628   2.467  11.528
 1269TIP3   OH225297   0.674   2.224  11.337
 1269TIP3    H125298   0.725   2.270  11.267
 1269TIP3    H225299   0.585   2.215  11.295
 1270TIP3   OH225300   0.829   2.771  11.361
 1270TIP3    H125301   0.904   2.755  11.303
 1270TIP3    H225302   0.793   2.855  11.329
 1271TIP3   OH225303   1.269   2.549  11.859
 1271TIP3    H125304   1.291   2.455  11.849
 1271TIP3    H225305   1.356   2.592  11.861
 1272TIP3   OH225306   1.401   2.827  11.672
 1272TIP3    H125307   1.376   2.900  11.612
 1272TIP3    H225308   1.497   2.824  11.654
 1273TIP3   OH225309   0.477   2.512  11.774
 1273TIP3    H125310   0.401   2.452  11.756
 1273TIP3    H225311   0.545   2.475  11.714
 1274TIP3   OH225312   0.753   1.968  11.377
 1274TIP3    H125313   0.738   2.065  11.367
 1274TIP3    H225314   0.678   1.932  11.327
 1275TIP3   OH225315   0.880   2.401  11.737
 1275TIP3    H125316   0.850   2.378  11.827
 1275TIP3    H225317   0.801   2.381  11.684
 1276TIP3   OH225318   1.152   2.314  11.645
 1276TIP3    H125319   1.055   2.319  11.657
 1276TIP3    H225320   1.180   2.251  11.713
 1277TIP3   OH225321   1.312   2.177  11.839
 1277TIP3    H125322   1.305   2.080  11.841
 1277TIP3    H225323   1.284   2.206  11.928
 1278TIP3   OH225324   0.295   2.303  11.748
 1278TIP3    H125325   0.315   2.229  11.688
 1278TIP3    H225326   0.282   2.257  11.834
 1279TIP3   OH225327   0.774   1.905  11.647
 1279TIP3    H125328   0.844   1.836  11.643
 1279TIP3    H225329   0.764   1.923  11.551
 1280TIP3   OH225330   0.811   2.068  11.855
 1280TIP3    H125331   0.794   2.018  11.771
 1280TIP3    H225332   0.750   2.144  11.846
 1281TIP3   OH225333   7.354   3.764  10.614
 1281TIP3    H125334   7.272   3.732  10.574
 1281TIP3    H225335   7.369   3.695  10.683
 1282TIP3   OH225336   0.070   3.570  10.800
 1282TIP3    H125337   0.039   3.480  10.824
 1282TIP3    H225338   0.097   3.601  10.889
 1283TIP3   OH225339   1.824   3.650  11.100
 1283TIP3    H125340   1.830   3.665  11.196
 1283TIP3    H225341   1.897   3.706  11.069
 1284TIP3   OH225342   1.783   3.607  11.397
 1284TIP3    H125343   1.737   3.531  11.355
 1284TIP3    H225344   1.838   3.562  11.463
 1285TIP3   OH225345   1.629   3.182  11.858
 1285TIP3    H125346   1.540   3.174  11.898
 1285TIP3    H225347   1.667   3.259  11.904
 1286TIP3   OH225348   1.756   3.014  10.412
 1286TIP3    H125349   1.846   3.051  10.421
 1286TIP3    H225350   1.762   2.936  10.470
 1287TIP3   OH225351   1.798   2.817  10.592
 1287TIP3    H125352   1.722   2.769  10.631
 1287TIP3    H225353   1.856   2.835  10.668
 1288TIP3   OH225354   1.773   3.091  11.091
 1288TIP3    H125355   1.855   3.054  11.055
 1288TIP3    H225356   1.787   3.187  11.074
 1289TIP3   OH225357   1.627   3.381  11.319
 1289TIP3    H125358   1.558   3.413  11.378
 1289TIP3    H225359   1.573   3.338  11.249
 1290TIP3   OH225360   1.580   2.667  10.649
 1290TIP3    H125361   1.562   2.572  10.647
 1290TIP3    H225362   1.543   2.692  10.736
 1291TIP3   OH225363   0.078   2.875  11.052
 1291TIP3    H125364   0.097   2.870  10.956
 1291TIP3    H225365   0.166   2.861  11.091
 1292TIP3   OH225366   1.663   2.865  11.616
 1292TIP3    H125367   1.724   2.789  11.631
 1292TIP3    H225368   1.723   2.942  11.618
 1293TIP3   OH225369   1.814   2.654  11.683
 1293TIP3    H125370   1.726   2.614  11.666
 1293TIP3    H225371   1.872   2.577  11.674
 1294TIP3   OH225372   1.546   2.426  10.497
 1294TIP3    H125373   1.575   2.332  10.506
 1294TIP3    H225374   1.623   2.467  10.455
 1295TIP3   OH225375   1.609   2.481  11.039
 1295TIP3    H125376   1.705   2.504  11.037
 1295TIP3    H225377   1.589   2.495  11.133
 1296TIP3   OH225378   1.616   2.553  11.318
 1296TIP3    H125379   1.528   2.583  11.351
 1296TIP3    H225380   1.658   2.640  11.295
 1297TIP3   OH225381   0.058   2.398  11.669
 1297TIP3    H125382   0.148   2.379  11.695
 1297TIP3    H225383   0.000   2.326  11.704
 1298TIP3   OH225384   1.842   1.957  11.852
 1298TIP3    H125385   1.877   1.891  11.789
 1298TIP3    H225386   1.855   2.040  11.802
 1299TIP3   OH225387   1.611   2.154  10.501
 1299TIP3    H125388   1.631   2.107  10.583
 1299TIP3    H225389   1.551   2.092  10.453
 1300TIP3   OH225390   0.157   2.231  10.957
 1300TIP3    H125391   0.210   2.153  10.983
 1300TIP3    H225392   0.210   2.303  10.995
 1301TIP3   OH225393   0.063   2.579  11.097
 1301TIP3    H125394   0.058   2.544  11.005
 1301TIP3    H225395   0.034   2.668  11.078
 1302TIP3   OH225396   1.795   2.168  11.688
 1302TIP3    H125397   1.701   2.195  11.681
 1302TIP3    H225398   1.800   2.114  11.607
 1303TIP3   OH225399   1.796   2.159  10.153
 1303TIP3    H125400   1.836   2.085  10.107
 1303TIP3    H225401   1.864   2.227  10.160
 1304TIP3   OH225402   0.028   2.202  10.483
 1304TIP3    H125403  -0.062   2.177  10.459
 1304TIP3    H225404   0.077   2.211  10.401
 1305TIP3   OH225405   1.500   3.658  10.662
 1305TIP3    H125406   1.567   3.624  10.599
 1305TIP3    H225407   1.555   3.706  10.724
 1306TIP3   OH225408   7.378   2.026  11.307
 1306TIP3    H125409   7.302   2.005  11.364
 1306TIP3    H225410   7.325   2.084  11.248
 1307TIP3   OH225411   0.244   3.350  11.715
 1307TIP3    H125412   0.161   3.368  11.669
 1307TIP3    H225413   0.215   3.339  11.806
 1308TIP3   OH225414   0.535   3.448  11.341
 1308TIP3    H125415   0.496   3.532  11.312
 1308TIP3    H225416   0.627   3.458  11.309
 1309TIP3   OH225417   0.966   3.589  11.632
 1309TIP3    H125418   0.982   3.554  11.723
 1309TIP3    H225419   1.055   3.620  11.605
 1310TIP3   OH225420   1.197   3.717  11.559
 1310TIP3    H125421   1.269   3.655  11.538
 1310TIP3    H225422   1.232   3.759  11.640
 1311TIP3   OH225423   1.696   1.978  11.471
 1311TIP3    H125424   1.613   2.007  11.430
 1311TIP3    H225425   1.714   1.897  11.418
 1312TIP3   OH225426   0.278   3.772  11.343
 1312TIP3    H125427   0.203   3.818  11.301
 1312TIP3    H225428   0.241   3.750  11.430
 1313TIP3   OH225429   0.524   3.730  11.248
 1313TIP3    H125430   0.435   3.743  11.288
 1313TIP3    H225431   0.518   3.789  11.170
 1314TIP3   OH225432   1.000   3.723  11.161
 1314TIP3    H125433   0.945   3.775  11.101
 1314TIP3    H225434   1.006   3.783  11.239
 1315TIP3   OH225435   1.226   3.604  11.258
 1315TIP3    H125436   1.135   3.628  11.234
 1315TIP3    H225437   1.270   3.690  11.262
 1316TIP3   OH225438   1.478   3.761  11.288
 1316TIP3    H125439   1.476   3.858  11.269
 1316TIP3    H225440   1.508   3.722  11.203
 1317TIP3   OH225441   0.219   3.636  11.033
 1317TIP3    H125442   0.216   3.593  11.121
 1317TIP3    H225443   0.300   3.600  10.995
 1318TIP3   OH225444   0.431   3.507  10.898
 1318TIP3    H125445   0.411   3.414  10.922
 1318TIP3    H225446   0.515   3.522  10.946
 1319TIP3   OH225447   0.688   3.556  10.987
 1319TIP3    H125448   0.706   3.464  10.960
 1319TIP3    H225449   0.694   3.550  11.083
 1320TIP3   OH225450   1.036   2.121  10.902
 1320TIP3    H125451   0.968   2.057  10.926
 1320TIP3    H225452   1.091   2.069  10.841
 1321TIP3   OH225453   1.549   1.927  10.910
 1321TIP3    H125454   1.611   1.985  10.859
 1321TIP3    H225455   1.462   1.962  10.885
 1322TIP3   OH225456   1.717   2.048  10.739
 1322TIP3    H125457   1.786   1.993  10.694
 1322TIP3    H225458   1.765   2.133  10.747
 1323TIP3   OH225459   0.267   1.982  10.691
 1323TIP3    H125460   0.193   1.961  10.631
 1323TIP3    H225461   0.323   1.903  10.678
 1324TIP3   OH225462   0.224   1.999  10.355
 1324TIP3    H125463   0.228   2.026  10.263
 1324TIP3    H225464   0.130   1.999  10.327
 1325TIP3   OH225465   0.722   1.975  10.666
 1325TIP3    H125466   0.811   2.013  10.657
 1325TIP3    H225467   0.717   1.954  10.759
 1326TIP3   OH225468   1.288   1.978  10.828
 1326TIP3    H125469   1.287   1.988  10.732
 1326TIP3    H225470   1.253   1.887  10.840
 1327TIP3   OH225471   1.418   1.984  10.404
 1327TIP3    H125472   1.345   2.041  10.375
 1327TIP3    H225473   1.376   1.896  10.410
 1328TIP3   OH225474   0.152   3.562  10.353
 1328TIP3    H125475   0.077   3.555  10.292
 1328TIP3    H225476   0.142   3.655  10.376
 1329TIP3   OH225477   1.026   3.680  10.192
 1329TIP3    H125478   1.115   3.712  10.175
 1329TIP3    H225479   1.003   3.636  10.109
 1330TIP3   OH225480   1.696   3.638  10.465
 1330TIP3    H125481   1.679   3.558  10.408
 1330TIP3    H225482   1.697   3.709  10.400
 1331TIP3   OH225483   0.258   2.040  11.636
 1331TIP3    H125484   0.225   1.957  11.674
 1331TIP3    H225485   0.352   2.035  11.666
 1332TIP3   OH225486   0.462   1.975  11.793
 1332TIP3    H125487   0.551   1.941  11.772
 1332TIP3    H225488   0.423   1.895  11.835
 1333TIP3   OH225489   1.302   1.905  11.809
 1333TIP3    H125490   1.312   1.858  11.894
 1333TIP3    H225491   1.394   1.902  11.774
 1334TIP3   OH225492   1.620   3.509  11.676
 1334TIP3    H125493   1.542   3.491  11.617
 1334TIP3    H225494   1.610   3.605  11.680
 1335TIP3   OH225495   3.067   2.898  10.673
 1335TIP3    H125496   3.070   2.994  10.670
 1335TIP3    H225497   2.995   2.875  10.615
 1336TIP3   OH225498   2.954   2.824  11.019
 1336TIP3    H125499   2.952   2.760  11.091
 1336TIP3    H225500   2.919   2.774  10.944
 1337TIP3   OH225501   2.189   2.789  11.177
 1337TIP3    H125502   2.197   2.722  11.248
 1337TIP3    H225503   2.263   2.848  11.199
 1338TIP3   OH225504   3.321   3.118  10.848
 1338TIP3    H125505   3.282   3.046  10.899
 1338TIP3    H225506   3.325   3.189  10.916
 1339TIP3   OH225507   2.282   3.234  11.030
 1339TIP3    H125508   2.249   3.149  10.995
 1339TIP3    H225509   2.377   3.215  11.034
 1340TIP3   OH225510   1.947   2.592  10.572
 1340TIP3    H125511   1.902   2.680  10.570
 1340TIP3    H225512   1.887   2.539  10.519
 1341TIP3   OH225513   2.015   2.813  10.786
 1341TIP3    H125514   2.041   2.733  10.835
 1341TIP3    H225515   2.089   2.824  10.724
 1342TIP3   OH225516   3.034   3.632  10.873
 1342TIP3    H125517   3.099   3.562  10.844
 1342TIP3    H225518   3.014   3.603  10.962
 1343TIP3   OH225519   2.792   3.065  11.065
 1343TIP3    H125520   2.825   3.000  11.001
 1343TIP3    H225521   2.870   3.079  11.121
 1344TIP3   OH225522   3.653   2.228  11.143
 1344TIP3    H125523   3.667   2.289  11.219
 1344TIP3    H225524   3.706   2.272  11.075
 1345TIP3   OH225525   3.107   2.510  11.097
 1345TIP3    H125526   3.123   2.414  11.098
 1345TIP3    H225527   3.098   2.525  11.001
 1346TIP3   OH225528   2.420   2.318  10.822
 1346TIP3    H125529   2.429   2.403  10.775
 1346TIP3    H225530   2.379   2.262  10.754
 1347TIP3   OH225531   3.191   2.329  10.661
 1347TIP3    H125532   3.260   2.296  10.725
 1347TIP3    H225533   3.247   2.380  10.600
 1348TIP3   OH225534   2.082   2.559  10.896
 1348TIP3    H125535   2.150   2.504  10.940
 1348TIP3    H225536   2.091   2.529  10.805
 1349TIP3   OH225537   2.601   2.715  10.822
 1349TIP3    H125538   2.663   2.657  10.869
 1349TIP3    H225539   2.544   2.649  10.778
 1350TIP3   OH225540   3.697   2.371  11.369
 1350TIP3    H125541   3.632   2.445  11.359
 1350TIP3    H225542   3.699   2.359  11.464
 1351TIP3   OH225543   2.308   2.208  11.227
 1351TIP3    H125544   2.281   2.265  11.151
 1351TIP3    H225545   2.240   2.232  11.294
 1352TIP3   OH225546   2.562   2.973  11.252
 1352TIP3    H125547   2.490   3.037  11.270
 1352TIP3    H225548   2.632   3.033  11.223
 1353TIP3   OH225549   3.372   2.260  10.858
 1353TIP3    H125550   3.352   2.184  10.912
 1353TIP3    H225551   3.439   2.306  10.912
 1354TIP3   OH225552   2.264   2.395  11.027
 1354TIP3    H125553   2.328   2.463  11.060
 1354TIP3    H225554   2.317   2.352  10.955
 1355TIP3   OH225555   2.405   3.172  11.333
 1355TIP3    H125556   2.401   3.263  11.298
 1355TIP3    H225557   2.317   3.165  11.377
 1356TIP3   OH225558   2.010   3.140  10.413
 1356TIP3    H125559   1.989   3.162  10.322
 1356TIP3    H225560   2.020   3.224  10.459
 1357TIP3   OH225561   3.376   3.301  11.086
 1357TIP3    H125562   3.279   3.312  11.100
 1357TIP3    H225563   3.403   3.393  11.068
 1358TIP3   OH225564   3.407   2.130  11.226
 1358TIP3    H125565   3.334   2.193  11.219
 1358TIP3    H225566   3.477   2.172  11.173
 1359TIP3   OH225567   2.706   1.941  10.974
 1359TIP3    H125568   2.692   1.845  10.966
 1359TIP3    H225569   2.617   1.972  11.002
 1360TIP3   OH225570   3.202   3.479  10.749
 1360TIP3    H125571   3.245   3.409  10.697
 1360TIP3    H225572   3.239   3.559  10.706
 1361TIP3   OH225573   3.321   3.273  10.597
 1361TIP3    H125574   3.294   3.203  10.538
 1361TIP3    H225575   3.326   3.225  10.682
 1362TIP3   OH225576   3.485   3.130  11.447
 1362TIP3    H125577   3.499   3.067  11.373
 1362TIP3    H225578   3.504   3.216  11.405
 1363TIP3   OH225579   3.672   2.762  11.252
 1363TIP3    H125580   3.606   2.834  11.258
 1363TIP3    H225581   3.720   2.785  11.171
 1364TIP3   OH225582   3.270   2.659  11.427
 1364TIP3    H125583   3.271   2.740  11.481
 1364TIP3    H225584   3.206   2.689  11.358
 1365TIP3   OH225585   2.441   2.910  10.708
 1365TIP3    H125586   2.405   2.871  10.623
 1365TIP3    H225587   2.499   2.839  10.742
 1366TIP3   OH225588   2.571   3.249  10.977
 1366TIP3    H125589   2.568   3.194  10.897
 1366TIP3    H225590   2.649   3.212  11.022
 1367TIP3   OH225591   2.473   2.783  11.072
 1367TIP3    H125592   2.530   2.795  10.993
 1367TIP3    H225593   2.510   2.849  11.134
 1368TIP3   OH225594   3.111   3.339  11.142
 1368TIP3    H125595   3.084   3.402  11.209
 1368TIP3    H225596   3.087   3.253  11.186
 1369TIP3   OH225597   2.567   3.225  11.542
 1369TIP3    H125598   2.528   3.301  11.590
 1369TIP3    H225599   2.499   3.207  11.473
 1370TIP3   OH225600   2.260   2.842  11.460
 1370TIP3    H125601   2.264   2.909  11.531
 1370TIP3    H225602   2.167   2.852  11.435
 1371TIP3   OH225603   2.936   3.435  10.630
 1371TIP3    H125604   2.981   3.464  10.709
 1371TIP3    H225605   2.879   3.509  10.608
 1372TIP3   OH225606   2.391   3.430  11.618
 1372TIP3    H125607   2.387   3.419  11.521
 1372TIP3    H225608   2.297   3.418  11.644
 1373TIP3   OH225609   2.326   2.816  10.488
 1373TIP3    H125610   2.311   2.888  10.423
 1373TIP3    H225611   2.271   2.747  10.451
 1374TIP3   OH225612   1.946   3.053  11.355
 1374TIP3    H125613   1.899   3.045  11.270
 1374TIP3    H225614   1.951   2.958  11.379
 1375TIP3   OH225615   1.921   3.327  11.036
 1375TIP3    H125616   2.017   3.315  11.033
 1375TIP3    H225617   1.913   3.408  11.088
 1376TIP3   OH225618   3.745   3.397  11.604
 1376TIP3    H125619   3.734   3.301  11.602
 1376TIP3    H225620   3.658   3.421  11.644
 1377TIP3   OH225621   2.841   3.352  11.491
 1377TIP3    H125622   2.847   3.436  11.541
 1377TIP3    H225623   2.753   3.317  11.516
 1378TIP3   OH225624   2.883   3.728  10.487
 1378TIP3    H125625   2.882   3.713  10.394
 1378TIP3    H225626   2.888   3.825  10.495
 1379TIP3   OH225627   2.249   3.612  10.653
 1379TIP3    H125628   2.263   3.571  10.741
 1379TIP3    H225629   2.163   3.574  10.628
 1380TIP3   OH225630   3.157   3.640  10.447
 1380TIP3    H125631   3.063   3.646  10.467
 1380TIP3    H225632   3.185   3.567  10.503
 1381TIP3   OH225633   3.459   2.544  11.652
 1381TIP3    H125634   3.414   2.590  11.580
 1381TIP3    H225635   3.459   2.453  11.621
 1382TIP3   OH225636   2.173   3.185  11.452
 1382TIP3    H125637   2.195   3.148  11.540
 1382TIP3    H225638   2.086   3.145  11.430
 1383TIP3   OH225639   2.440   2.031  11.048
 1383TIP3    H125640   2.350   2.020  11.011
 1383TIP3    H225641   2.429   2.115  11.095
 1384TIP3   OH225642   2.904   2.000  11.385
 1384TIP3    H125643   2.944   1.958  11.463
 1384TIP3    H225644   2.807   1.986  11.399
 1385TIP3   OH225645   3.235   2.382  11.474
 1385TIP3    H125646   3.179   2.363  11.553
 1385TIP3    H225647   3.217   2.474  11.450
 1386TIP3   OH225648   2.450   2.528  11.169
 1386TIP3    H125649   2.378   2.526  11.235
 1386TIP3    H225650   2.447   2.620  11.136
 1387TIP3   OH225651   2.446   2.542  10.659
 1387TIP3    H125652   2.353   2.515  10.646
 1387TIP3    H225653   2.486   2.511  10.576
 1388TIP3   OH225654   2.906   2.611  11.680
 1388TIP3    H125655   2.852   2.535  11.712
 1388TIP3    H225656   2.990   2.598  11.728
 1389TIP3   OH225657   3.099   2.538  10.818
 1389TIP3    H125658   3.079   2.596  10.744
 1389TIP3    H225659   3.115   2.452  10.772
 1390TIP3   OH225660   2.215   2.557  11.343
 1390TIP3    H125661   2.219   2.597  11.431
 1390TIP3    H225662   2.169   2.473  11.360
 1391TIP3   OH225663   1.879   2.268  10.737
 1391TIP3    H125664   1.946   2.263  10.808
 1391TIP3    H225665   1.925   2.227  10.661
 1392TIP3   OH225666   2.004   2.341  10.276
 1392TIP3    H125667   2.055   2.402  10.218
 1392TIP3    H225668   1.934   2.402  10.304
 1393TIP3   OH225669   3.023   2.699  11.278
 1393TIP3    H125670   3.059   2.632  11.217
 1393TIP3    H225671   2.978   2.646  11.345
 1394TIP3   OH225672   2.703   2.295  10.761
 1394TIP3    H125673   2.609   2.297  10.790
 1394TIP3    H225674   2.751   2.282  10.843
 1395TIP3   OH225675   2.185   2.453  10.644
 1395TIP3    H125676   2.094   2.465  10.609
 1395TIP3    H225677   2.213   2.367  10.607
 1396TIP3   OH225678   2.547   2.458  10.414
 1396TIP3    H125679   2.644   2.461  10.426
 1396TIP3    H225680   2.529   2.521  10.344
 1397TIP3   OH225681   3.144   2.218  11.085
 1397TIP3    H125682   3.074   2.226  11.154
 1397TIP3    H225683   3.093   2.197  11.006
 1398TIP3   OH225684   3.463   3.787  11.716
 1398TIP3    H125685   3.494   3.821  11.630
 1398TIP3    H225686   3.537   3.815  11.773
 1399TIP3   OH225687   2.232   3.031  11.673
 1399TIP3    H125688   2.303   3.056  11.733
 1399TIP3    H225689   2.153   3.043  11.731
 1400TIP3   OH225690   2.832   2.572  10.948
 1400TIP3    H125691   2.891   2.516  10.896
 1400TIP3    H225692   2.817   2.518  11.027
 1401TIP3   OH225693   2.333   2.188  10.590
 1401TIP3    H125694   2.302   2.095  10.589
 1401TIP3    H225695   2.412   2.181  10.536
 1402TIP3   OH225696   2.696   2.405  11.190
 1402TIP3    H125697   2.612   2.456  11.200
 1402TIP3    H225698   2.750   2.439  11.264
 1403TIP3   OH225699   3.470   2.946  11.240
 1403TIP3    H125700   3.529   2.993  11.179
 1403TIP3    H225701   3.385   2.953  11.192
 1404TIP3   OH225702   2.903   3.052  11.484
 1404TIP3    H125703   2.869   3.011  11.564
 1404TIP3    H225704   2.880   3.145  11.493
 1405TIP3   OH225705   3.209   2.501  10.347
 1405TIP3    H125706   3.300   2.483  10.379
 1405TIP3    H225707   3.220   2.575  10.289
 1406TIP3   OH225708   2.265   2.965  10.939
 1406TIP3    H125709   2.335   2.959  10.872
 1406TIP3    H225710   2.271   2.879  10.985
 1407TIP3   OH225711   1.964   2.807  11.467
 1407TIP3    H125712   1.983   2.763  11.552
 1407TIP3    H225713   1.902   2.745  11.424
 1408TIP3   OH225714   2.665   2.762  11.686
 1408TIP3    H125715   2.635   2.736  11.598
 1408TIP3    H225716   2.758   2.732  11.685
 1409TIP3   OH225717   3.132   3.296  11.478
 1409TIP3    H125718   3.039   3.314  11.455
 1409TIP3    H225719   3.130   3.324  11.571
 1410TIP3   OH225720   3.700   2.519  10.319
 1410TIP3    H125721   3.646   2.481  10.247
 1410TIP3    H225722   3.710   2.611  10.287
 1411TIP3   OH225723   3.699   3.101  11.600
 1411TIP3    H125724   3.610   3.123  11.562
 1411TIP3    H225725   3.755   3.097  11.520
 1412TIP3   OH225726   3.532   3.398  10.359
 1412TIP3    H125727   3.493   3.317  10.394
 1412TIP3    H225728   3.554   3.376  10.268
 1413TIP3   OH225729   3.249   2.880  11.065
 1413TIP3    H125730   3.155   2.856  11.060
 1413TIP3    H225731   3.292   2.802  11.027
 1414TIP3   OH225732   2.499   3.311  10.680
 1414TIP3    H125733   2.553   3.389  10.657
 1414TIP3    H225734   2.413   3.335  10.646
 1415TIP3   OH225735   2.645   3.078  10.635
 1415TIP3    H125736   2.615   3.171  10.640
 1415TIP3    H225737   2.569   3.031  10.675
 1416TIP3   OH225738   2.690   3.496  11.269
 1416TIP3    H125739   2.733   3.578  11.242
 1416TIP3    H225740   2.750   3.463  11.339
 1417TIP3   OH225741   2.513   3.581  10.581
 1417TIP3    H125742   2.417   3.591  10.598
 1417TIP3    H225743   2.547   3.661  10.624
 1418TIP3   OH225744   3.044   3.099  11.234
 1418TIP3    H125745   3.008   3.078  11.322
 1418TIP3    H225746   3.106   3.027  11.217
 1419TIP3   OH225747   3.319   3.558  11.484
 1419TIP3    H125748   3.255   3.504  11.433
 1419TIP3    H225749   3.342   3.624  11.416
 1420TIP3   OH225750   2.129   2.281  11.423
 1420TIP3    H125751   2.038   2.315  11.418
 1420TIP3    H225752   2.117   2.195  11.466
 1421TIP3   OH225753   2.091   3.460  11.265
 1421TIP3    H125754   2.118   3.367  11.265
 1421TIP3    H225755   2.117   3.488  11.353
 1422TIP3   OH225756   2.567   3.264  10.237
 1422TIP3    H125757   2.586   3.212  10.315
 1422TIP3    H225758   2.573   3.357  10.265
 1423TIP3   OH225759   3.001   2.257  11.315
 1423TIP3    H125760   3.072   2.263  11.380
 1423TIP3    H225761   2.963   2.169  11.334
 1424TIP3   OH225762   2.849   3.437  10.316
 1424TIP3    H125763   2.762   3.478  10.312
 1424TIP3    H225764   2.898   3.476  10.243
 1425TIP3   OH225765   2.797   2.397  10.508
 1425TIP3    H125766   2.881   2.443  10.509
 1425TIP3    H225767   2.773   2.376  10.601
 1426TIP3   OH225768   2.854   2.492  11.426
 1426TIP3    H125769   2.863   2.549  11.504
 1426TIP3    H225770   2.920   2.423  11.436
 1427TIP3   OH225771   2.889   2.098  10.599
 1427TIP3    H125772   2.851   2.163  10.661
 1427TIP3    H225773   2.954   2.154  10.554
 1428TIP3   OH225774   2.560   3.533  10.313
 1428TIP3    H125775   2.592   3.606  10.260
 1428TIP3    H225776   2.556   3.566  10.405
 1429TIP3   OH225777   2.449   2.208  10.269
 1429TIP3    H125778   2.447   2.297  10.306
 1429TIP3    H225779   2.540   2.182  10.290
 1430TIP3   OH225780   3.474   2.280  11.511
 1430TIP3    H125781   3.380   2.310  11.498
 1430TIP3    H225782   3.504   2.280  11.418
 1431TIP3   OH225783   3.333   2.658  10.916
 1431TIP3    H125784   3.253   2.614  10.884
 1431TIP3    H225785   3.381   2.588  10.966
 1432TIP3   OH225786   2.108   2.515  10.087
 1432TIP3    H125787   2.106   2.611  10.101
 1432TIP3    H225788   2.019   2.496  10.055
 1433TIP3   OH225789   3.441   3.583  11.080
 1433TIP3    H125790   3.430   3.652  11.011
 1433TIP3    H225791   3.537   3.590  11.098
 1434TIP3   OH225792   2.191   1.996  10.958
 1434TIP3    H125793   2.169   1.999  10.862
 1434TIP3    H225794   2.147   1.913  10.985
 1435TIP3   OH225795   2.085   3.388  10.571
 1435TIP3    H125796   2.000   3.435  10.572
 1435TIP3    H225797   2.135   3.439  10.506
 1436TIP3   OH225798   2.005   3.653  11.705
 1436TIP3    H125799   2.069   3.631  11.776
 1436TIP3    H225800   1.968   3.565  11.682
 1437TIP3   OH225801   2.473   3.545  11.865
 1437TIP3    H125802   2.550   3.496  11.897
 1437TIP3    H225803   2.471   3.518  11.771
 1438TIP3   OH225804   3.127   3.383  11.738
 1438TIP3    H125805   3.094   3.294  11.764
 1438TIP3    H225806   3.202   3.395  11.798
 1439TIP3   OH225807   2.000   3.031  11.802
 1439TIP3    H125808   2.016   2.940  11.771
 1439TIP3    H225809   1.924   3.058  11.746
 1440TIP3   OH225810   2.670   3.030  11.741
 1440TIP3    H125811   2.635   3.059  11.654
 1440TIP3    H225812   2.679   2.932  11.731
 1441TIP3   OH225813   3.240   3.016  11.480
 1441TIP3    H125814   3.317   3.076  11.471
 1441TIP3    H225815   3.168   3.081  11.484
 1442TIP3   OH225816   2.089   2.753  11.740
 1442TIP3    H125817   2.130   2.667  11.730
 1442TIP3    H225818   2.063   2.754  11.833
 1443TIP3   OH225819   2.480   2.649  11.477
 1443TIP3    H125820   2.419   2.720  11.503
 1443TIP3    H225821   2.517   2.685  11.395
 1444TIP3   OH225822   2.986   2.903  11.808
 1444TIP3    H125823   3.082   2.905  11.800
 1444TIP3    H225824   2.969   2.828  11.866
 1445TIP3   OH225825   2.519   2.386  11.584
 1445TIP3    H125826   2.531   2.314  11.519
 1445TIP3    H225827   2.515   2.467  11.528
 1446TIP3   OH225828   2.559   2.224  11.337
 1446TIP3    H125829   2.611   2.270  11.267
 1446TIP3    H225830   2.471   2.215  11.295
 1447TIP3   OH225831   2.714   2.771  11.361
 1447TIP3    H125832   2.790   2.755  11.303
 1447TIP3    H225833   2.679   2.855  11.329
 1448TIP3   OH225834   3.154   2.549  11.859
 1448TIP3    H125835   3.177   2.455  11.849
 1448TIP3    H225836   3.241   2.592  11.861
 1449TIP3   OH225837   3.287   2.827  11.672
 1449TIP3    H125838   3.262   2.900  11.612
 1449TIP3    H225839   3.383   2.824  11.654
 1450TIP3   OH225840   2.365   2.509  11.778
 1450TIP3    H125841   2.288   2.453  11.755
 1450TIP3    H225842   2.431   2.475  11.714
 1451TIP3   OH225843   2.639   1.968  11.377
 1451TIP3    H125844   2.623   2.065  11.367
 1451TIP3    H225845   2.563   1.932  11.327
 1452TIP3   OH225846   2.766   2.401  11.737
 1452TIP3    H125847   2.736   2.378  11.827
 1452TIP3    H225848   2.686   2.381  11.684
 1453TIP3   OH225849   3.037   2.314  11.645
 1453TIP3    H125850   2.941   2.319  11.657
 1453TIP3    H225851   3.065   2.251  11.713
 1454TIP3   OH225852   3.197   2.177  11.839
 1454TIP3    H125853   3.190   2.080  11.841
 1454TIP3    H225854   3.169   2.206  11.928
 1455TIP3   OH225855   2.176   2.304  11.749
 1455TIP3    H125856   2.200   2.231  11.689
 1455TIP3    H225857   2.166   2.257  11.834
 1456TIP3   OH225858   2.660   1.905  11.647
 1456TIP3    H125859   2.729   1.836  11.643
 1456TIP3    H225860   2.649   1.923  11.551
 1457TIP3   OH225861   2.696   2.068  11.855
 1457TIP3    H125862   2.680   2.018  11.771
 1457TIP3    H225863   2.636   2.144  11.846
 1458TIP3   OH225864   1.875   3.758  10.621
 1458TIP3    H125865   1.806   3.709  10.571
 1458TIP3    H225866   1.906   3.691  10.684
 1459TIP3   OH225867   1.960   3.567  10.805
 1459TIP3    H125868   1.924   3.480  10.825
 1459TIP3    H225869   1.981   3.601  10.894
 1460TIP3   OH225870   3.712   3.648  11.100
 1460TIP3    H125871   3.714   3.666  11.196
 1460TIP3    H225872   3.783   3.706  11.069
 1461TIP3   OH225873   3.670   3.608  11.394
 1461TIP3    H125874   3.622   3.531  11.357
 1461TIP3    H225875   3.721   3.564  11.464
 1462TIP3   OH225876   3.514   3.181  11.860
 1462TIP3    H125877   3.425   3.176  11.898
 1462TIP3    H225878   3.552   3.261  11.903
 1463TIP3   OH225879   3.647   3.009  10.405
 1463TIP3    H125880   3.731   3.051  10.426
 1463TIP3    H225881   3.646   2.938  10.474
 1464TIP3   OH225882   3.682   2.820  10.590
 1464TIP3    H125883   3.609   2.768  10.631
 1464TIP3    H225884   3.742   2.834  10.666
 1465TIP3   OH225885   3.658   3.091  11.090
 1465TIP3    H125886   3.741   3.054  11.055
 1465TIP3    H225887   3.672   3.187  11.074
 1466TIP3   OH225888   3.513   3.381  11.318
 1466TIP3    H125889   3.444   3.414  11.378
 1466TIP3    H225890   3.458   3.339  11.248
 1467TIP3   OH225891   3.713   2.805  10.229
 1467TIP3    H125892   3.655   2.839  10.161
 1467TIP3    H225893   3.706   2.874  10.298
 1468TIP3   OH225894   3.466   2.668  10.648
 1468TIP3    H125895   3.448   2.573  10.645
 1468TIP3    H225896   3.429   2.692  10.735
 1469TIP3   OH225897   1.965   2.876  11.053
 1469TIP3    H125898   1.985   2.868  10.957
 1469TIP3    H225899   2.054   2.860  11.091
 1470TIP3   OH225900   3.549   2.865  11.616
 1470TIP3    H125901   3.610   2.789  11.632
 1470TIP3    H225902   3.609   2.942  11.618
 1471TIP3   OH225903   3.700   2.654  11.683
 1471TIP3    H125904   3.612   2.614  11.666
 1471TIP3    H225905   3.758   2.577  11.675
 1472TIP3   OH225906   3.432   2.425  10.495
 1472TIP3    H125907   3.464   2.332  10.507
 1472TIP3    H225908   3.511   2.467  10.456
 1473TIP3   OH225909   3.494   2.480  11.039
 1473TIP3    H125910   3.590   2.504  11.037
 1473TIP3    H225911   3.474   2.495  11.133
 1474TIP3   OH225912   3.501   2.553  11.318
 1474TIP3    H125913   3.413   2.582  11.351
 1474TIP3    H225914   3.544   2.640  11.295
 1475TIP3   OH225915   1.925   2.406  11.668
 1475TIP3    H125916   2.019   2.387  11.689
 1475TIP3    H225917   1.881   2.324  11.700
 1476TIP3   OH225918   3.727   1.957  11.853
 1476TIP3    H125919   3.763   1.892  11.790
 1476TIP3    H225920   3.740   2.040  11.802
 1477TIP3   OH225921   3.496   2.151  10.502
 1477TIP3    H125922   3.517   2.109  10.587
 1477TIP3    H225923   3.434   2.093  10.457
 1478TIP3   OH225924   2.046   2.235  10.954
 1478TIP3    H125925   2.093   2.153  10.982
 1478TIP3    H225926   2.099   2.305  10.995
 1479TIP3   OH225927   1.875   2.534  11.060
 1479TIP3    H125928   1.930   2.511  10.982
 1479TIP3    H225929   1.919   2.616  11.086
 1480TIP3   OH225930   3.680   2.168  11.688
 1480TIP3    H125931   3.586   2.195  11.682
 1480TIP3    H225932   3.686   2.114  11.607
 1481TIP3   OH225933   1.911   2.162  10.467
 1481TIP3    H125934   1.816   2.180  10.451
 1481TIP3    H225935   1.954   2.209  10.394
 1482TIP3   OH225936   3.386   3.657  10.660
 1482TIP3    H125937   3.453   3.624  10.599
 1482TIP3    H225938   3.438   3.707  10.725
 1483TIP3   OH225939   1.907   2.029  11.297
 1483TIP3    H125940   1.839   2.008  11.364
 1483TIP3    H225941   1.861   2.095  11.242
 1484TIP3   OH225942   2.128   3.349  11.713
 1484TIP3    H125943   2.045   3.368  11.668
 1484TIP3    H225944   2.102   3.340  11.805
 1485TIP3   OH225945   2.420   3.447  11.341
 1485TIP3    H125946   2.384   3.532  11.312
 1485TIP3    H225947   2.512   3.457  11.309
 1486TIP3   OH225948   2.852   3.591  11.633
 1486TIP3    H125949   2.867   3.553  11.723
 1486TIP3    H225950   2.941   3.618  11.605
 1487TIP3   OH225951   3.084   3.722  11.559
 1487TIP3    H125952   3.153   3.655  11.537
 1487TIP3    H225953   3.119   3.754  11.644
 1488TIP3   OH225954   3.582   1.978  11.471
 1488TIP3    H125955   3.499   2.007  11.430
 1488TIP3    H225956   3.600   1.897  11.418
 1489TIP3   OH225957   2.163   3.771  11.341
 1489TIP3    H125958   2.090   3.820  11.300
 1489TIP3    H225959   2.129   3.751  11.430
 1490TIP3   OH225960   2.410   3.730  11.248
 1490TIP3    H125961   2.320   3.742  11.287
 1490TIP3    H225962   2.403   3.788  11.170
 1491TIP3   OH225963   2.879   3.720  11.164
 1491TIP3    H125964   2.833   3.776  11.099
 1491TIP3    H225965   2.893   3.784  11.237
 1492TIP3   OH225966   3.110   3.605  11.266
 1492TIP3    H125967   3.023   3.628  11.230
 1492TIP3    H225968   3.156   3.689  11.254
 1493TIP3   OH225969   3.367   3.761  11.290
 1493TIP3    H125970   3.359   3.856  11.265
 1493TIP3    H225971   3.389   3.723  11.203
 1494TIP3   OH225972   2.105   3.636  11.034
 1494TIP3    H125973   2.101   3.591  11.121
 1494TIP3    H225974   2.187   3.600  10.995
 1495TIP3   OH225975   2.315   3.508  10.900
 1495TIP3    H125976   2.298   3.414  10.921
 1495TIP3    H225977   2.401   3.522  10.946
 1496TIP3   OH225978   2.574   3.556  10.986
 1496TIP3    H125979   2.592   3.464  10.960
 1496TIP3    H225980   2.579   3.550  11.083
 1497TIP3   OH225981   2.921   2.122  10.898
 1497TIP3    H125982   2.854   2.057  10.927
 1497TIP3    H225983   2.977   2.068  10.842
 1498TIP3   OH225984   3.435   1.927  10.910
 1498TIP3    H125985   3.496   1.986  10.859
 1498TIP3    H225986   3.347   1.962  10.886
 1499TIP3   OH225987   3.603   2.048  10.738
 1499TIP3    H125988   3.671   1.992  10.695
 1499TIP3    H225989   3.649   2.134  10.748
 1500TIP3   OH225990   2.157   1.984  10.686
 1500TIP3    H125991   2.079   1.962  10.632
 1500TIP3    H225992   2.205   1.900  10.681
 1501TIP3   OH225993   2.036   1.961  10.261
 1501TIP3    H125994   2.086   2.023  10.205
 1501TIP3    H225995   1.975   2.017  10.312
 1502TIP3   OH225996   2.610   1.975  10.663
 1502TIP3    H125997   2.698   2.015  10.660
 1502TIP3    H225998   2.601   1.955  10.756
 1503TIP3   OH225999   3.174   1.978  10.828
 1503TIP3    H126000   3.172   1.988  10.732
 1503TIP3    H226001   3.139   1.887  10.841
 1504TIP3   OH226002   2.022   3.557  10.368
 1504TIP3    H126003   1.962   3.554  10.291
 1504TIP3    H226004   2.026   3.652  10.380
 1505TIP3   OH226005   2.219   2.155  10.109
 1505TIP3    H126006   2.272   2.091  10.058
 1505TIP3    H226007   2.288   2.182  10.173
 1506TIP3   OH226008   3.590   3.638  10.460
 1506TIP3    H126009   3.561   3.559  10.408
 1506TIP3    H226010   3.574   3.712  10.401
 1507TIP3   OH226011   2.147   2.037  11.631
 1507TIP3    H126012   2.111   1.958  11.675
 1507TIP3    H226013   2.240   2.035  11.667
 1508TIP3   OH226014   2.348   1.975  11.792
 1508TIP3    H126015   2.437   1.941  11.772
 1508TIP3    H226016   2.310   1.895  11.835
 1509TIP3   OH226017   3.188   1.905  11.809
 1509TIP3    H126018   3.198   1.858  11.894
 1509TIP3    H226019   3.279   1.902  11.774
 1510TIP3   OH226020   3.509   3.509  11.674
 1510TIP3    H126021   3.428   3.494  11.621
 1510TIP3    H226022   3.498   3.603  11.696
 1511TIP3   OH226023   4.951   2.897  10.674
 1511TIP3    H126024   4.953   2.995  10.668
 1511TIP3    H226025   4.880   2.874  10.614
 1512TIP3   OH226026   4.833   2.825  11.021
 1512TIP3    H126027   4.840   2.759  11.092
 1512TIP3    H226028   4.810   2.773  10.943
 1513TIP3   OH226029   4.075   2.788  11.176
 1513TIP3    H126030   4.080   2.723  11.249
 1513TIP3    H226031   4.147   2.848  11.200
 1514TIP3   OH226032   5.208   3.118  10.849
 1514TIP3    H126033   5.167   3.046  10.898
 1514TIP3    H226034   5.210   3.189  10.916
 1515TIP3   OH226035   4.167   3.234  11.030
 1515TIP3    H126036   4.133   3.150  10.996
 1515TIP3    H226037   4.263   3.217  11.034
 1516TIP3   OH226038   3.832   2.593  10.577
 1516TIP3    H126039   3.787   2.680  10.571
 1516TIP3    H226040   3.775   2.538  10.520
 1517TIP3   OH226041   3.903   2.814  10.789
 1517TIP3    H126042   3.926   2.732  10.836
 1517TIP3    H226043   3.973   2.823  10.723
 1518TIP3   OH226044   4.920   3.633  10.873
 1518TIP3    H126045   4.984   3.563  10.845
 1518TIP3    H226046   4.900   3.603  10.961
 1519TIP3   OH226047   4.675   3.060  11.067
 1519TIP3    H126048   4.714   3.002  11.001
 1519TIP3    H226049   4.754   3.080  11.120
 1520TIP3   OH226050   5.539   2.228  11.143
 1520TIP3    H126051   5.553   2.289  11.219
 1520TIP3    H226052   5.592   2.272  11.075
 1521TIP3   OH226053   4.991   2.510  11.098
 1521TIP3    H126054   5.008   2.414  11.098
 1521TIP3    H226055   4.984   2.524  11.002
 1522TIP3   OH226056   4.306   2.319  10.823
 1522TIP3    H126057   4.314   2.402  10.773
 1522TIP3    H226058   4.265   2.261  10.754
 1523TIP3   OH226059   5.080   2.328  10.659
 1523TIP3    H126060   5.146   2.296  10.725
 1523TIP3    H226061   5.135   2.383  10.600
 1524TIP3   OH226062   3.970   2.562  10.896
 1524TIP3    H126063   4.034   2.502  10.940
 1524TIP3    H226064   3.975   2.529  10.805
 1525TIP3   OH226065   4.508   2.695  10.772
 1525TIP3    H126066   4.556   2.648  10.841
 1525TIP3    H226067   4.426   2.640  10.763
 1526TIP3   OH226068   5.582   2.371  11.369
 1526TIP3    H126069   5.518   2.446  11.359
 1526TIP3    H226070   5.585   2.359  11.465
 1527TIP3   OH226071   4.194   2.208  11.226
 1527TIP3    H126072   4.167   2.265  11.151
 1527TIP3    H226073   4.125   2.232  11.294
 1528TIP3   OH226074   4.929   3.159  10.580
 1528TIP3    H126075   4.894   3.129  10.496
 1528TIP3    H226076   4.893   3.251  10.587
 1529TIP3   OH226077   4.448   2.974  11.248
 1529TIP3    H126078   4.376   3.038  11.272
 1529TIP3    H226079   4.518   3.036  11.224
 1530TIP3   OH226080   5.258   2.261  10.858
 1530TIP3    H126081   5.237   2.184  10.912
 1530TIP3    H226082   5.325   2.305  10.913
 1531TIP3   OH226083   4.150   2.396  11.026
 1531TIP3    H126084   4.214   2.462  11.061
 1531TIP3    H226085   4.203   2.351  10.955
 1532TIP3   OH226086   4.291   3.171  11.332
 1532TIP3    H126087   4.287   3.263  11.298
 1532TIP3    H226088   4.203   3.165  11.377
 1533TIP3   OH226089   3.896   3.136  10.411
 1533TIP3    H126090   3.874   3.166  10.322
 1533TIP3    H226091   3.907   3.221  10.460
 1534TIP3   OH226092   5.261   3.301  11.086
 1534TIP3    H126093   5.165   3.311  11.099
 1534TIP3    H226094   5.289   3.393  11.069
 1535TIP3   OH226095   5.293   2.130  11.226
 1535TIP3    H126096   5.220   2.193  11.219
 1535TIP3    H226097   5.363   2.172  11.173
 1536TIP3   OH226098   4.591   1.941  10.971
 1536TIP3    H126099   4.578   1.845  10.967
 1536TIP3    H226100   4.504   1.972  11.001
 1537TIP3   OH226101   5.087   3.480  10.748
 1537TIP3    H126102   5.131   3.409  10.697
 1537TIP3    H226103   5.125   3.559  10.706
 1538TIP3   OH226104   5.211   3.271  10.595
 1538TIP3    H126105   5.176   3.200  10.541
 1538TIP3    H226106   5.211   3.226  10.683
 1539TIP3   OH226107   5.365   3.131  11.447
 1539TIP3    H126108   5.388   3.067  11.375
 1539TIP3    H226109   5.391   3.215  11.406
 1540TIP3   OH226110   5.554   2.758  11.249
 1540TIP3    H126111   5.495   2.836  11.259
 1540TIP3    H226112   5.606   2.786  11.172
 1541TIP3   OH226113   5.163   2.844  10.515
 1541TIP3    H126114   5.090   2.867  10.577
 1541TIP3    H226115   5.209   2.775  10.567
 1542TIP3   OH226116   5.155   2.659  11.427
 1542TIP3    H126117   5.158   2.740  11.480
 1542TIP3    H226118   5.092   2.689  11.358
 1543TIP3   OH226119   4.326   2.907  10.710
 1543TIP3    H126120   4.291   2.872  10.623
 1543TIP3    H226121   4.387   2.837  10.734
 1544TIP3   OH226122   4.456   3.246  10.978
 1544TIP3    H126123   4.455   3.195  10.896
 1544TIP3    H226124   4.536   3.213  11.022
 1545TIP3   OH226125   4.338   2.794  11.099
 1545TIP3    H126126   4.372   2.831  11.019
 1545TIP3    H226127   4.387   2.856  11.159
 1546TIP3   OH226128   4.997   3.339  11.143
 1546TIP3    H126129   4.969   3.402  11.210
 1546TIP3    H226130   4.973   3.253  11.186
 1547TIP3   OH226131   4.452   3.225  11.542
 1547TIP3    H126132   4.414   3.301  11.590
 1547TIP3    H226133   4.384   3.207  11.473
 1548TIP3   OH226134   5.053   2.758  10.284
 1548TIP3    H126135   5.107   2.775  10.364
 1548TIP3    H226136   5.093   2.808  10.211
 1549TIP3   OH226137   4.146   2.842  11.461
 1549TIP3    H126138   4.150   2.909  11.532
 1549TIP3    H226139   4.053   2.852  11.435
 1550TIP3   OH226140   4.821   3.433  10.630
 1550TIP3    H126141   4.866   3.464  10.709
 1550TIP3    H226142   4.766   3.509  10.607
 1551TIP3   OH226143   4.276   3.429  11.617
 1551TIP3    H126144   4.272   3.418  11.520
 1551TIP3    H226145   4.182   3.418  11.643
 1552TIP3   OH226146   5.421   1.933  10.267
 1552TIP3    H126147   5.329   1.951  10.297
 1552TIP3    H226148   5.441   2.020  10.229
 1553TIP3   OH226149   4.223   2.813  10.471
 1553TIP3    H126150   4.194   2.889  10.416
 1553TIP3    H226151   4.157   2.747  10.449
 1554TIP3   OH226152   3.831   3.053  11.355
 1554TIP3    H126153   3.785   3.045  11.270
 1554TIP3    H226154   3.837   2.958  11.378
 1555TIP3   OH226155   3.807   3.327  11.035
 1555TIP3    H126156   3.903   3.315  11.034
 1555TIP3    H226157   3.798   3.408  11.088
 1556TIP3   OH226158   5.630   3.398  11.605
 1556TIP3    H126159   5.621   3.301  11.601
 1556TIP3    H226160   5.543   3.421  11.644
 1557TIP3   OH226161   4.726   3.352  11.491
 1557TIP3    H126162   4.733   3.436  11.542
 1557TIP3    H226163   4.638   3.317  11.516
 1558TIP3   OH226164   4.767   3.726  10.472
 1558TIP3    H126165   4.762   3.719  10.375
 1558TIP3    H226166   4.771   3.823  10.487
 1559TIP3   OH226167   4.133   3.614  10.653
 1559TIP3    H126168   4.149   3.572  10.740
 1559TIP3    H226169   4.049   3.572  10.628
 1560TIP3   OH226170   5.071   3.641  10.171
 1560TIP3    H126171   5.118   3.571  10.125
 1560TIP3    H226172   5.078   3.620  10.265
 1561TIP3   OH226173   5.044   3.639  10.446
 1561TIP3    H126174   4.948   3.648  10.465
 1561TIP3    H226175   5.070   3.567  10.505
 1562TIP3   OH226176   5.344   2.545  11.652
 1562TIP3    H126177   5.300   2.591  11.579
 1562TIP3    H226178   5.345   2.453  11.621
 1563TIP3   OH226179   4.058   3.186  11.453
 1563TIP3    H126180   4.081   3.148  11.540
 1563TIP3    H226181   3.972   3.145  11.431
 1564TIP3   OH226182   4.325   2.031  11.049
 1564TIP3    H126183   4.235   2.021  11.011
 1564TIP3    H226184   4.315   2.116  11.095
 1565TIP3   OH226185   4.790   2.000  11.385
 1565TIP3    H126186   4.830   1.958  11.463
 1565TIP3    H226187   4.693   1.986  11.399
 1566TIP3   OH226188   5.120   2.382  11.474
 1566TIP3    H126189   5.065   2.363  11.553
 1566TIP3    H226190   5.102   2.474  11.450
 1567TIP3   OH226191   5.197   2.861  10.057
 1567TIP3    H126192   5.196   2.845   9.961
 1567TIP3    H226193   5.280   2.904  10.060
 1568TIP3   OH226194   4.336   2.529  11.167
 1568TIP3    H126195   4.265   2.524  11.234
 1568TIP3    H226196   4.327   2.622  11.140
 1569TIP3   OH226197   4.329   2.541  10.660
 1569TIP3    H126198   4.237   2.514  10.643
 1569TIP3    H226199   4.371   2.511  10.575
 1570TIP3   OH226200   4.882   2.589  10.532
 1570TIP3    H126201   4.844   2.672  10.502
 1570TIP3    H226202   4.955   2.575  10.469
 1571TIP3   OH226203   4.792   2.611  11.680
 1571TIP3    H126204   4.737   2.535  11.712
 1571TIP3    H226205   4.875   2.598  11.728
 1572TIP3   OH226206   4.984   2.539  10.819
 1572TIP3    H126207   4.964   2.595  10.743
 1572TIP3    H226208   4.999   2.454  10.773
 1573TIP3   OH226209   4.102   2.556  11.342
 1573TIP3    H126210   4.105   2.597  11.430
 1573TIP3    H226211   4.055   2.473  11.360
 1574TIP3   OH226212   3.765   2.265  10.736
 1574TIP3    H126213   3.831   2.264  10.808
 1574TIP3    H226214   3.812   2.229  10.661
 1575TIP3   OH226215   4.903   2.699  11.275
 1575TIP3    H126216   4.945   2.632  11.218
 1575TIP3    H226217   4.865   2.645  11.347
 1576TIP3   OH226218   4.588   2.296  10.760
 1576TIP3    H126219   4.494   2.294  10.788
 1576TIP3    H226220   4.637   2.281  10.842
 1577TIP3   OH226221   4.069   2.452  10.646
 1577TIP3    H126222   3.981   2.467  10.608
 1577TIP3    H226223   4.100   2.370  10.606
 1578TIP3   OH226224   4.431   2.460  10.415
 1578TIP3    H126225   4.528   2.463  10.426
 1578TIP3    H226226   4.411   2.521  10.342
 1579TIP3   OH226227   5.029   2.219  11.084
 1579TIP3    H126228   4.960   2.226  11.154
 1579TIP3    H226229   4.978   2.196  11.005
 1580TIP3   OH226230   4.301   2.582  10.164
 1580TIP3    H126231   4.250   2.533  10.100
 1580TIP3    H226232   4.386   2.591  10.121
 1581TIP3   OH226233   5.351   3.784  11.716
 1581TIP3    H126234   5.377   3.824  11.631
 1581TIP3    H226235   5.422   3.817  11.773
 1582TIP3   OH226236   4.117   3.030  11.673
 1582TIP3    H126237   4.189   3.056  11.733
 1582TIP3    H226238   4.039   3.043  11.731
 1583TIP3   OH226239   4.712   2.573  10.948
 1583TIP3    H126240   4.776   2.519  10.896
 1583TIP3    H226241   4.706   2.517  11.027
 1584TIP3   OH226242   4.217   2.186  10.592
 1584TIP3    H126243   4.189   2.093  10.589
 1584TIP3    H226244   4.298   2.183  10.537
 1585TIP3   OH226245   4.582   2.409  11.187
 1585TIP3    H126246   4.497   2.454  11.203
 1585TIP3    H226247   4.636   2.437  11.265
 1586TIP3   OH226248   5.353   2.944  11.239
 1586TIP3    H126249   5.415   2.993  11.182
 1586TIP3    H226250   5.269   2.954  11.191
 1587TIP3   OH226251   4.788   3.052  11.484
 1587TIP3    H126252   4.754   3.011  11.564
 1587TIP3    H226253   4.765   3.145  11.493
 1588TIP3   OH226254   5.097   2.499  10.349
 1588TIP3    H126255   5.188   2.484  10.379
 1588TIP3    H226256   5.104   2.576  10.290
 1589TIP3   OH226257   4.152   2.965  10.940
 1589TIP3    H126258   4.219   2.960  10.869
 1589TIP3    H226259   4.153   2.879  10.985
 1590TIP3   OH226260   3.849   2.807  11.467
 1590TIP3    H126261   3.869   2.763  11.551
 1590TIP3    H226262   3.788   2.745  11.424
 1591TIP3   OH226263   4.551   2.762  11.686
 1591TIP3    H126264   4.520   2.735  11.598
 1591TIP3    H226265   4.644   2.732  11.685
 1592TIP3   OH226266   5.018   3.296  11.478
 1592TIP3    H126267   4.925   3.314  11.455
 1592TIP3    H226268   5.016   3.324  11.571
 1593TIP3   OH226269   5.585   2.516  10.318
 1593TIP3    H126270   5.531   2.478  10.246
 1593TIP3    H226271   5.596   2.607  10.288
 1594TIP3   OH226272   5.585   3.104  11.603
 1594TIP3    H126273   5.497   3.122  11.562
 1594TIP3    H226274   5.638   3.094  11.520
 1595TIP3   OH226275   5.417   3.396  10.356
 1595TIP3    H126276   5.379   3.317  10.395
 1595TIP3    H226277   5.444   3.377  10.266
 1596TIP3   OH226278   5.134   2.879  11.066
 1596TIP3    H126279   5.041   2.857  11.059
 1596TIP3    H226280   5.178   2.802  11.027
 1597TIP3   OH226281   4.386   3.311  10.678
 1597TIP3    H126282   4.438   3.391  10.658
 1597TIP3    H226283   4.299   3.335  10.644
 1598TIP3   OH226284   4.532   3.077  10.637
 1598TIP3    H126285   4.502   3.171  10.638
 1598TIP3    H226286   4.454   3.032  10.672
 1599TIP3   OH226287   4.575   3.496  11.269
 1599TIP3    H126288   4.619   3.578  11.242
 1599TIP3    H226289   4.635   3.463  11.339
 1600TIP3   OH226290   4.399   3.577  10.591
 1600TIP3    H126291   4.302   3.590  10.596
 1600TIP3    H226292   4.433   3.663  10.622
 1601TIP3   OH226293   4.930   3.099  11.234
 1601TIP3    H126294   4.893   3.078  11.322
 1601TIP3    H226295   4.992   3.027  11.217
 1602TIP3   OH226296   5.155   3.194  10.146
 1602TIP3    H126297   5.180   3.158  10.228
 1602TIP3    H226298   5.060   3.192  10.148
 1603TIP3   OH226299   5.206   3.556  11.483
 1603TIP3    H126300   5.140   3.505  11.433
 1603TIP3    H226301   5.227   3.625  11.417
 1604TIP3   OH226302   4.014   2.281  11.421
 1604TIP3    H126303   3.923   2.315  11.418
 1604TIP3    H226304   4.003   2.196  11.467
 1605TIP3   OH226305   3.977   3.460  11.265
 1605TIP3    H126306   4.004   3.367  11.265
 1605TIP3    H226307   4.002   3.488  11.353
 1606TIP3   OH226308   4.463   3.257  10.243
 1606TIP3    H126309   4.471   3.210  10.324
 1606TIP3    H226310   4.453   3.352  10.266
 1607TIP3   OH226311   4.107   2.987  10.290
 1607TIP3    H126312   4.034   3.028  10.340
 1607TIP3    H226313   4.154   3.065  10.257
 1608TIP3   OH226314   4.887   2.257  11.315
 1608TIP3    H126315   4.958   2.263  11.380
 1608TIP3    H226316   4.849   2.169  11.334
 1609TIP3   OH226317   4.970   2.213  10.421
 1609TIP3    H126318   4.985   2.270  10.345
 1609TIP3    H226319   5.019   2.261  10.489
 1610TIP3   OH226320   4.735   3.434  10.311
 1610TIP3    H126321   4.649   3.482  10.315
 1610TIP3    H226322   4.784   3.483  10.245
 1611TIP3   OH226323   4.683   2.394  10.505
 1611TIP3    H126324   4.766   2.445  10.511
 1611TIP3    H226325   4.658   2.376  10.598
 1612TIP3   OH226326   4.740   2.493  11.424
 1612TIP3    H126327   4.748   2.549  11.504
 1612TIP3    H226328   4.805   2.423  11.436
 1613TIP3   OH226329   4.772   2.098  10.601
 1613TIP3    H126330   4.737   2.164  10.663
 1613TIP3    H226331   4.838   2.153  10.552
 1614TIP3   OH226332   4.473   3.537  10.312
 1614TIP3    H126333   4.479   3.616  10.257
 1614TIP3    H226334   4.442   3.570  10.398
 1615TIP3   OH226335   5.359   2.280  11.511
 1615TIP3    H126336   5.266   2.310  11.498
 1615TIP3    H226337   5.390   2.280  11.418
 1616TIP3   OH226338   5.219   2.658  10.915
 1616TIP3    H126339   5.138   2.614  10.885
 1616TIP3    H226340   5.266   2.588  10.965
 1617TIP3   OH226341   5.326   3.583  11.080
 1617TIP3    H126342   5.315   3.652  11.011
 1617TIP3    H226343   5.422   3.590  11.098
 1618TIP3   OH226344   4.075   1.997  10.957
 1618TIP3    H126345   4.054   1.999  10.861
 1618TIP3    H226346   4.033   1.913  10.984
 1619TIP3   OH226347   3.970   3.389  10.574
 1619TIP3    H126348   3.885   3.435  10.571
 1619TIP3    H226349   4.021   3.436  10.506
 1620TIP3   OH226350   3.894   3.653  11.703
 1620TIP3    H126351   3.953   3.631  11.778
 1620TIP3    H226352   3.851   3.568  11.684
 1621TIP3   OH226353   4.356   3.542  11.864
 1621TIP3    H126354   4.436   3.499  11.898
 1621TIP3    H226355   4.358   3.519  11.769
 1622TIP3   OH226356   5.012   3.383  11.738
 1622TIP3    H126357   4.980   3.294  11.764
 1622TIP3    H226358   5.088   3.395  11.798
 1623TIP3   OH226359   3.886   3.031  11.801
 1623TIP3    H126360   3.901   2.940  11.771
 1623TIP3    H226361   3.810   3.058  11.746
 1624TIP3   OH226362   4.555   3.029  11.741
 1624TIP3    H126363   4.521   3.059  11.655
 1624TIP3    H226364   4.565   2.932  11.731
 1625TIP3   OH226365   5.124   3.016  11.480
 1625TIP3    H126366   5.203   3.075  11.471
 1625TIP3    H226367   5.054   3.082  11.484
 1626TIP3   OH226368   3.974   2.753  11.740
 1626TIP3    H126369   4.015   2.667  11.730
 1626TIP3    H226370   3.949   2.753  11.834
 1627TIP3   OH226371   4.365   2.649  11.476
 1627TIP3    H126372   4.305   2.720  11.504
 1627TIP3    H226373   4.403   2.686  11.396
 1628TIP3   OH226374   4.871   2.903  11.808
 1628TIP3    H126375   4.967   2.905  11.800
 1628TIP3    H226376   4.854   2.828  11.866
 1629TIP3   OH226377   4.405   2.386  11.584
 1629TIP3    H126378   4.417   2.314  11.519
 1629TIP3    H226379   4.401   2.467  11.527
 1630TIP3   OH226380   4.445   2.224  11.337
 1630TIP3    H126381   4.497   2.269  11.267
 1630TIP3    H226382   4.356   2.215  11.295
 1631TIP3   OH226383   4.597   2.769  11.357
 1631TIP3    H126384   4.677   2.755  11.305
 1631TIP3    H226385   4.566   2.857  11.332
 1632TIP3   OH226386   5.040   2.549  11.859
 1632TIP3    H126387   5.063   2.456  11.849
 1632TIP3    H226388   5.127   2.593  11.861
 1633TIP3   OH226389   5.172   2.827  11.673
 1633TIP3    H126390   5.148   2.900  11.611
 1633TIP3    H226391   5.268   2.824  11.654
 1634TIP3   OH226392   4.251   2.510  11.775
 1634TIP3    H126393   4.174   2.453  11.756
 1634TIP3    H226394   4.317   2.474  11.714
 1635TIP3   OH226395   4.524   1.968  11.377
 1635TIP3    H126396   4.509   2.065  11.367
 1635TIP3    H226397   4.449   1.932  11.327
 1636TIP3   OH226398   4.651   2.401  11.737
 1636TIP3    H126399   4.622   2.378  11.827
 1636TIP3    H226400   4.572   2.381  11.684
 1637TIP3   OH226401   4.923   2.314  11.645
 1637TIP3    H126402   4.827   2.319  11.657
 1637TIP3    H226403   4.951   2.251  11.713
 1638TIP3   OH226404   5.083   2.177  11.839
 1638TIP3    H126405   5.076   2.080  11.841
 1638TIP3    H226406   5.055   2.206  11.928
 1639TIP3   OH226407   4.061   2.303  11.748
 1639TIP3    H126408   4.086   2.230  11.688
 1639TIP3    H226409   4.053   2.258  11.834
 1640TIP3   OH226410   4.545   1.904  11.647
 1640TIP3    H126411   4.615   1.836  11.643
 1640TIP3    H226412   4.535   1.923  11.551
 1641TIP3   OH226413   4.582   2.068  11.855
 1641TIP3    H126414   4.566   2.018  11.771
 1641TIP3    H226415   4.521   2.144  11.846
 1642TIP3   OH226416   3.762   3.756  10.618
 1642TIP3    H126417   3.690   3.708  10.574
 1642TIP3    H226418   3.791   3.691  10.686
 1643TIP3   OH226419   3.844   3.568  10.805
 1643TIP3    H126420   3.810   3.480  10.824
 1643TIP3    H226421   3.867   3.602  10.893
 1644TIP3   OH226422   5.598   3.648  11.100
 1644TIP3    H126423   5.600   3.666  11.196
 1644TIP3    H226424   5.669   3.706  11.069
 1645TIP3   OH226425   5.556   3.607  11.393
 1645TIP3    H126426   5.507   3.531  11.357
 1645TIP3    H226427   5.607   3.564  11.464
 1646TIP3   OH226428   5.400   3.181  11.861
 1646TIP3    H126429   5.310   3.176  11.898
 1646TIP3    H226430   5.438   3.261  11.903
 1647TIP3   OH226431   5.568   2.819  10.589
 1647TIP3    H126432   5.495   2.769  10.631
 1647TIP3    H226433   5.627   2.836  10.665
 1648TIP3   OH226434   5.541   3.092  11.085
 1648TIP3    H126435   5.627   3.054  11.058
 1648TIP3    H226436   5.559   3.187  11.075
 1649TIP3   OH226437   5.399   3.381  11.318
 1649TIP3    H126438   5.330   3.414  11.378
 1649TIP3    H226439   5.344   3.339  11.249
 1650TIP3   OH226440   5.348   2.668  10.647
 1650TIP3    H126441   5.333   2.572  10.646
 1650TIP3    H226442   5.316   2.691  10.736
 1651TIP3   OH226443   3.849   2.876  11.054
 1651TIP3    H126444   3.870   2.868  10.958
 1651TIP3    H226445   3.938   2.860  11.091
 1652TIP3   OH226446   5.434   2.864  11.619
 1652TIP3    H126447   5.497   2.790  11.630
 1652TIP3    H226448   5.494   2.942  11.616
 1653TIP3   OH226449   5.586   2.654  11.683
 1653TIP3    H126450   5.497   2.614  11.666
 1653TIP3    H226451   5.643   2.576  11.674
 1654TIP3   OH226452   5.318   2.425  10.498
 1654TIP3    H126453   5.347   2.332  10.506
 1654TIP3    H226454   5.395   2.465  10.455
 1655TIP3   OH226455   5.380   2.481  11.039
 1655TIP3    H126456   5.476   2.504  11.037
 1655TIP3    H226457   5.360   2.495  11.133
 1656TIP3   OH226458   5.386   2.553  11.317
 1656TIP3    H126459   5.299   2.583  11.351
 1656TIP3    H226460   5.430   2.639  11.295
 1657TIP3   OH226461   3.811   2.406  11.668
 1657TIP3    H126462   3.905   2.387  11.689
 1657TIP3    H226463   3.766   2.324  11.700
 1658TIP3   OH226464   5.613   1.957  11.853
 1658TIP3    H126465   5.648   1.892  11.790
 1658TIP3    H226466   5.626   2.040  11.802
 1659TIP3   OH226467   5.383   2.154  10.500
 1659TIP3    H126468   5.403   2.108  10.585
 1659TIP3    H226469   5.321   2.092  10.454
 1660TIP3   OH226470   3.932   2.235  10.954
 1660TIP3    H126471   3.978   2.153  10.983
 1660TIP3    H226472   3.985   2.305  10.996
 1661TIP3   OH226473   3.761   2.534  11.060
 1661TIP3    H126474   3.816   2.511  10.982
 1661TIP3    H226475   3.805   2.616  11.086
 1662TIP3   OH226476   5.566   2.168  11.688
 1662TIP3    H126477   5.472   2.195  11.682
 1662TIP3    H226478   5.572   2.114  11.607
 1663TIP3   OH226479   5.271   3.656  10.660
 1663TIP3    H126480   5.338   3.624  10.599
 1663TIP3    H226481   5.323   3.706  10.725
 1664TIP3   OH226482   3.793   2.029  11.297
 1664TIP3    H126483   3.725   2.008  11.364
 1664TIP3    H226484   3.746   2.095  11.242
 1665TIP3   OH226485   4.014   3.348  11.713
 1665TIP3    H126486   3.930   3.369  11.668
 1665TIP3    H226487   3.987   3.341  11.805
 1666TIP3   OH226488   4.305   3.446  11.340
 1666TIP3    H126489   4.270   3.532  11.312
 1666TIP3    H226490   4.398   3.457  11.309
 1667TIP3   OH226491   4.738   3.589  11.632
 1667TIP3    H126492   4.753   3.556  11.724
 1667TIP3    H226493   4.827   3.620  11.606
 1668TIP3   OH226494   4.967   3.716  11.561
 1668TIP3    H126495   5.040   3.656  11.537
 1668TIP3    H226496   5.005   3.759  11.641
 1669TIP3   OH226497   5.467   1.978  11.471
 1669TIP3    H126498   5.384   2.007  11.430
 1669TIP3    H226499   5.485   1.897  11.418
 1670TIP3   OH226500   4.048   3.771  11.341
 1670TIP3    H126501   3.975   3.820  11.300
 1670TIP3    H226502   4.014   3.751  11.430
 1671TIP3   OH226503   4.295   3.728  11.249
 1671TIP3    H126504   4.206   3.742  11.288
 1671TIP3    H226505   4.289   3.787  11.171
 1672TIP3   OH226506   4.765   3.721  11.165
 1672TIP3    H126507   4.719   3.776  11.099
 1672TIP3    H226508   4.780   3.784  11.238
 1673TIP3   OH226509   4.996   3.604  11.264
 1673TIP3    H126510   4.908   3.629  11.231
 1673TIP3    H226511   5.041   3.690  11.255
 1674TIP3   OH226512   5.254   3.761  11.290
 1674TIP3    H126513   5.244   3.856  11.267
 1674TIP3    H226514   5.275   3.723  11.202
 1675TIP3   OH226515   3.991   3.636  11.034
 1675TIP3    H126516   3.986   3.591  11.121
 1675TIP3    H226517   4.073   3.600  10.995
 1676TIP3   OH226518   4.201   3.508  10.899
 1676TIP3    H126519   4.183   3.414  10.921
 1676TIP3    H226520   4.286   3.522  10.946
 1677TIP3   OH226521   4.460   3.556  10.987
 1677TIP3    H126522   4.477   3.464  10.960
 1677TIP3    H226523   4.465   3.549  11.083
 1678TIP3   OH226524   4.807   2.122  10.901
 1678TIP3    H126525   4.740   2.057  10.927
 1678TIP3    H226526   4.863   2.070  10.842
 1679TIP3   OH226527   5.320   1.926  10.908
 1679TIP3    H126528   5.383   1.986  10.859
 1679TIP3    H226529   5.233   1.963  10.886
 1680TIP3   OH226530   5.488   2.049  10.737
 1680TIP3    H126531   5.557   1.993  10.694
 1680TIP3    H226532   5.536   2.134  10.748
 1681TIP3   OH226533   4.043   1.985  10.684
 1681TIP3    H126534   3.963   1.960  10.635
 1681TIP3    H226535   4.092   1.900  10.681
 1682TIP3   OH226536   4.494   1.974  10.663
 1682TIP3    H126537   4.582   2.015  10.659
 1682TIP3    H226538   4.487   1.954  10.757
 1683TIP3   OH226539   5.060   1.978  10.827
 1683TIP3    H126540   5.059   1.989  10.732
 1683TIP3    H226541   5.025   1.887  10.841
 1684TIP3   OH226542   5.190   1.984  10.395
 1684TIP3    H126543   5.117   2.046  10.377
 1684TIP3    H226544   5.153   1.900  10.418
 1685TIP3   OH226545   3.911   3.556  10.358
 1685TIP3    H126546   3.849   3.548  10.285
 1685TIP3    H226547   3.916   3.649  10.380
 1686TIP3   OH226548   4.611   2.181  10.349
 1686TIP3    H126549   4.629   2.121  10.422
 1686TIP3    H226550   4.609   2.266  10.397
 1687TIP3   OH226551   4.802   3.677  10.193
 1687TIP3    H126552   4.890   3.714  10.174
 1687TIP3    H226553   4.778   3.640  10.108
 1688TIP3   OH226554   5.473   3.637  10.462
 1688TIP3    H126555   5.448   3.558  10.407
 1688TIP3    H226556   5.460   3.711  10.403
 1689TIP3   OH226557   4.033   2.037  11.631
 1689TIP3    H126558   3.996   1.958  11.675
 1689TIP3    H226559   4.125   2.035  11.667
 1690TIP3   OH226560   4.233   1.975  11.792
 1690TIP3    H126561   4.323   1.941  11.772
 1690TIP3    H226562   4.196   1.895  11.835
 1691TIP3   OH226563   5.074   1.905  11.809
 1691TIP3    H126564   5.083   1.858  11.894
 1691TIP3    H226565   5.165   1.902  11.774
 1692TIP3   OH226566   5.394   3.509  11.674
 1692TIP3    H126567   5.313   3.495  11.621
 1692TIP3    H226568   5.383   3.604  11.696
 1693TIP3   OH226569   6.837   2.897  10.674
 1693TIP3    H126570   6.840   2.994  10.667
 1693TIP3    H226571   6.767   2.874  10.613
 1694TIP3   OH226572   6.725   2.824  11.022
 1694TIP3    H126573   6.723   2.758  11.092
 1694TIP3    H226574   6.692   2.774  10.945
 1695TIP3   OH226575   5.970   2.775  11.167
 1695TIP3    H126576   5.967   2.723  11.250
 1695TIP3    H226577   6.026   2.850  11.199
 1696TIP3   OH226578   7.094   3.117  10.850
 1696TIP3    H126579   7.053   3.045  10.899
 1696TIP3    H226580   7.098   3.188  10.917
 1697TIP3   OH226581   6.055   3.237  11.024
 1697TIP3    H126582   6.019   3.149  10.999
 1697TIP3    H226583   6.149   3.214  11.035
 1698TIP3   OH226584   5.717   2.593  10.573
 1698TIP3    H126585   5.672   2.680  10.571
 1698TIP3    H226586   5.659   2.538  10.518
 1699TIP3   OH226587   5.786   2.812  10.785
 1699TIP3    H126588   5.813   2.734  10.837
 1699TIP3    H226589   5.860   2.823  10.724
 1700TIP3   OH226590   6.809   3.634  10.873
 1700TIP3    H126591   6.871   3.562  10.845
 1700TIP3    H226592   6.786   3.602  10.961
 1701TIP3   OH226593   6.562   3.065  11.066
 1701TIP3    H126594   6.596   3.000  11.002
 1701TIP3    H226595   6.641   3.079  11.121
 1702TIP3   OH226596   6.878   2.510  11.098
 1702TIP3    H126597   6.895   2.414  11.098
 1702TIP3    H226598   6.869   2.525  11.002
 1703TIP3   OH226599   6.191   2.318  10.822
 1703TIP3    H126600   6.199   2.403  10.775
 1703TIP3    H226601   6.150   2.262  10.753
 1704TIP3   OH226602   6.966   2.330  10.658
 1704TIP3    H126603   7.031   2.297  10.726
 1704TIP3    H226604   7.020   2.384  10.601
 1705TIP3   OH226605   5.853   2.559  10.896
 1705TIP3    H126606   5.921   2.504  10.940
 1705TIP3    H226607   5.862   2.529  10.804
 1706TIP3   OH226608   6.370   2.715  10.825
 1706TIP3    H126609   6.435   2.657  10.868
 1706TIP3    H226610   6.316   2.648  10.778
 1707TIP3   OH226611   6.079   2.208  11.227
 1707TIP3    H126612   6.053   2.265  11.151
 1707TIP3    H226613   6.011   2.232  11.294
 1708TIP3   OH226614   6.810   3.157  10.581
 1708TIP3    H126615   6.782   3.130  10.493
 1708TIP3    H226616   6.779   3.251  10.585
 1709TIP3   OH226617   6.334   2.973  11.253
 1709TIP3    H126618   6.260   3.036  11.270
 1709TIP3    H226619   6.403   3.034  11.222
 1710TIP3   OH226620   7.128   2.258  10.862
 1710TIP3    H126621   7.120   2.181  10.917
 1710TIP3    H226622   7.202   2.306  10.907
 1711TIP3   OH226623   6.036   2.395  11.027
 1711TIP3    H126624   6.099   2.463  11.060
 1711TIP3    H226625   6.089   2.352  10.956
 1712TIP3   OH226626   6.178   3.174  11.336
 1712TIP3    H126627   6.170   3.263  11.298
 1712TIP3    H226628   6.087   3.163  11.374
 1713TIP3   OH226629   5.786   3.138  10.412
 1713TIP3    H126630   5.759   3.166  10.324
 1713TIP3    H226631   5.792   3.222  10.462
 1714TIP3   OH226632   7.139   3.298  11.091
 1714TIP3    H126633   7.044   3.311  11.101
 1714TIP3    H226634   7.172   3.388  11.070
 1715TIP3   OH226635   7.170   2.137  11.216
 1715TIP3    H126636   7.097   2.200  11.219
 1715TIP3    H226637   7.241   2.182  11.169
 1716TIP3   OH226638   6.477   1.941  10.970
 1716TIP3    H126639   6.463   1.844  10.967
 1716TIP3    H226640   6.390   1.972  11.001
 1717TIP3   OH226641   6.971   3.477  10.749
 1717TIP3    H126642   7.016   3.407  10.698
 1717TIP3    H226643   7.010   3.557  10.708
 1718TIP3   OH226644   7.091   3.271  10.596
 1718TIP3    H126645   7.061   3.200  10.537
 1718TIP3    H226646   7.096   3.222  10.681
 1719TIP3   OH226647   7.236   3.139  11.453
 1719TIP3    H126648   7.267   3.073  11.388
 1719TIP3    H226649   7.275   3.219  11.412
 1720TIP3   OH226650   6.707   2.822  10.426
 1720TIP3    H126651   6.635   2.879  10.389
 1720TIP3    H226652   6.772   2.834  10.356
 1721TIP3   OH226653   7.047   2.842  10.516
 1721TIP3    H126654   6.974   2.867  10.576
 1721TIP3    H226655   7.094   2.774  10.568
 1722TIP3   OH226656   7.037   2.657  11.426
 1722TIP3    H126657   7.042   2.738  11.480
 1722TIP3    H226658   6.977   2.690  11.356
 1723TIP3   OH226659   6.210   2.908  10.708
 1723TIP3    H126660   6.178   2.869  10.623
 1723TIP3    H226661   6.271   2.839  10.741
 1724TIP3   OH226662   6.345   3.250  10.974
 1724TIP3    H126663   6.340   3.194  10.896
 1724TIP3    H226664   6.421   3.211  11.022
 1725TIP3   OH226665   6.247   2.781  11.072
 1725TIP3    H126666   6.301   2.796  10.993
 1725TIP3    H226667   6.279   2.849  11.134
 1726TIP3   OH226668   6.880   3.339  11.142
 1726TIP3    H126669   6.856   3.402  11.210
 1726TIP3    H226670   6.859   3.253  11.186
 1727TIP3   OH226671   6.340   3.226  11.543
 1727TIP3    H126672   6.299   3.301  11.590
 1727TIP3    H226673   6.271   3.207  11.473
 1728TIP3   OH226674   6.032   2.834  11.468
 1728TIP3    H126675   6.036   2.909  11.530
 1728TIP3    H226676   5.943   2.856  11.432
 1729TIP3   OH226677   6.707   3.435  10.629
 1729TIP3    H126678   6.752   3.466  10.709
 1729TIP3    H226679   6.650   3.509  10.607
 1730TIP3   OH226680   6.163   3.432  11.619
 1730TIP3    H126681   6.158   3.418  11.522
 1730TIP3    H226682   6.069   3.417  11.643
 1731TIP3   OH226683   6.109   2.811  10.469
 1731TIP3    H126684   6.080   2.889  10.417
 1731TIP3    H226685   6.042   2.746  10.447
 1732TIP3   OH226686   5.628   3.025  11.354
 1732TIP3    H126687   5.667   3.047  11.268
 1732TIP3    H226688   5.707   2.969  11.376
 1733TIP3   OH226689   5.692   3.329  11.033
 1733TIP3    H126690   5.787   3.312  11.036
 1733TIP3    H226691   5.684   3.407  11.089
 1734TIP3   OH226692   6.612   3.351  11.491
 1734TIP3    H126693   6.619   3.436  11.541
 1734TIP3    H226694   6.524   3.317  11.516
 1735TIP3   OH226695   6.653   3.726  10.473
 1735TIP3    H126696   6.648   3.719  10.376
 1735TIP3    H226697   6.660   3.822  10.486
 1736TIP3   OH226698   6.017   3.615  10.654
 1736TIP3    H126699   6.035   3.573  10.741
 1736TIP3    H226700   5.935   3.570  10.630
 1737TIP3   OH226701   6.931   3.639  10.447
 1737TIP3    H126702   6.835   3.648  10.465
 1737TIP3    H226703   6.957   3.567  10.504
 1738TIP3   OH226704   7.204   2.553  11.657
 1738TIP3    H126705   7.184   2.593  11.572
 1738TIP3    H226706   7.236   2.464  11.627
 1739TIP3   OH226707   5.947   3.222  11.488
 1739TIP3    H126708   5.974   3.148  11.546
 1739TIP3    H226709   5.878   3.171  11.441
 1740TIP3   OH226710   6.211   2.031  11.048
 1740TIP3    H126711   6.121   2.021  11.011
 1740TIP3    H226712   6.200   2.115  11.095
 1741TIP3   OH226713   6.675   2.000  11.385
 1741TIP3    H126714   6.715   1.958  11.463
 1741TIP3    H226715   6.578   1.986  11.399
 1742TIP3   OH226716   7.004   2.381  11.473
 1742TIP3    H126717   6.951   2.363  11.554
 1742TIP3    H226718   6.988   2.474  11.451
 1743TIP3   OH226719   7.081   2.860  10.052
 1743TIP3    H126720   7.084   2.841   9.958
 1743TIP3    H226721   7.163   2.906  10.067
 1744TIP3   OH226722   6.221   2.528  11.169
 1744TIP3    H126723   6.148   2.527  11.235
 1744TIP3    H226724   6.217   2.621  11.136
 1745TIP3   OH226725   6.217   2.544  10.658
 1745TIP3    H126726   6.124   2.516  10.644
 1745TIP3    H226727   6.257   2.511  10.575
 1746TIP3   OH226728   6.768   2.587  10.531
 1746TIP3    H126729   6.729   2.674  10.505
 1746TIP3    H226730   6.843   2.581  10.472
 1747TIP3   OH226731   6.677   2.612  11.681
 1747TIP3    H126732   6.624   2.535  11.712
 1747TIP3    H226733   6.761   2.598  11.728
 1748TIP3   OH226734   6.872   2.539  10.819
 1748TIP3    H126735   6.848   2.596  10.744
 1748TIP3    H226736   6.884   2.454  10.773
 1749TIP3   OH226737   5.988   2.554  11.343
 1749TIP3    H126738   5.990   2.598  11.430
 1749TIP3    H226739   5.939   2.473  11.361
 1750TIP3   OH226740   5.650   2.267  10.736
 1750TIP3    H126741   5.717   2.264  10.807
 1750TIP3    H226742   5.696   2.227  10.660
 1751TIP3   OH226743   5.780   2.341  10.277
 1751TIP3    H126744   5.825   2.401  10.218
 1751TIP3    H226745   5.707   2.400  10.306
 1752TIP3   OH226746   6.794   2.699  11.278
 1752TIP3    H126747   6.831   2.632  11.217
 1752TIP3    H226748   6.749   2.646  11.345
 1753TIP3   OH226749   6.474   2.294  10.760
 1753TIP3    H126750   6.380   2.296  10.789
 1753TIP3    H226751   6.522   2.283  10.843
 1754TIP3   OH226752   5.954   2.452  10.646
 1754TIP3    H126753   5.866   2.466  10.607
 1754TIP3    H226754   5.984   2.369  10.607
 1755TIP3   OH226755   6.318   2.456  10.411
 1755TIP3    H126756   6.413   2.466  10.425
 1755TIP3    H226757   6.295   2.522  10.344
 1756TIP3   OH226758   6.913   2.217  11.085
 1756TIP3    H126759   6.845   2.226  11.155
 1756TIP3    H226760   6.862   2.198  11.005
 1757TIP3   OH226761   6.191   2.573  10.166
 1757TIP3    H126762   6.134   2.538  10.097
 1757TIP3    H226763   6.273   2.592  10.121
 1758TIP3   OH226764   7.233   3.784  11.717
 1758TIP3    H126765   7.263   3.822  11.632
 1758TIP3    H226766   7.306   3.815  11.773
 1759TIP3   OH226767   6.004   3.029  11.675
 1759TIP3    H126768   6.075   3.057  11.734
 1759TIP3    H226769   5.924   3.044  11.731
 1760TIP3   OH226770   6.603   2.571  10.949
 1760TIP3    H126771   6.663   2.517  10.896
 1760TIP3    H226772   6.589   2.517  11.028
 1761TIP3   OH226773   6.103   2.187  10.593
 1761TIP3    H126774   6.072   2.095  10.591
 1761TIP3    H226775   6.182   2.182  10.536
 1762TIP3   OH226776   6.467   2.406  11.190
 1762TIP3    H126777   6.384   2.456  11.200
 1762TIP3    H226778   6.521   2.439  11.264
 1763TIP3   OH226779   6.527   3.025  10.360
 1763TIP3    H126780   6.446   2.984  10.326
 1763TIP3    H226781   6.505   3.042  10.453
 1764TIP3   OH226782   7.231   2.947  11.240
 1764TIP3    H126783   7.295   2.978  11.173
 1764TIP3    H226784   7.149   2.952  11.188
 1765TIP3   OH226785   6.674   3.052  11.483
 1765TIP3    H126786   6.640   3.011  11.564
 1765TIP3    H226787   6.652   3.145  11.493
 1766TIP3   OH226788   6.035   2.965  10.938
 1766TIP3    H126789   6.107   2.958  10.873
 1766TIP3    H226790   6.041   2.880  10.986
 1767TIP3   OH226791   5.735   2.805  11.468
 1767TIP3    H126792   5.755   2.762  11.553
 1767TIP3    H226793   5.673   2.746  11.423
 1768TIP3   OH226794   6.437   2.762  11.686
 1768TIP3    H126795   6.406   2.735  11.598
 1768TIP3    H226796   6.530   2.732  11.685
 1769TIP3   OH226797   6.901   3.294  11.477
 1769TIP3    H126798   6.809   3.314  11.455
 1769TIP3    H226799   6.902   3.324  11.570
 1770TIP3   OH226800   7.292   3.398  10.358
 1770TIP3    H126801   7.262   3.314  10.393
 1770TIP3    H226802   7.331   3.380  10.272
 1771TIP3   OH226803   7.016   2.877  11.068
 1771TIP3    H126804   6.922   2.855  11.057
 1771TIP3    H226805   7.063   2.802  11.027
 1772TIP3   OH226806   6.272   3.311  10.680
 1772TIP3    H126807   6.324   3.390  10.656
 1772TIP3    H226808   6.185   3.335  10.646
 1773TIP3   OH226809   6.417   3.077  10.635
 1773TIP3    H126810   6.387   3.170  10.638
 1773TIP3    H226811   6.341   3.031  10.674
 1774TIP3   OH226812   6.461   3.496  11.269
 1774TIP3    H126813   6.505   3.578  11.242
 1774TIP3    H226814   6.521   3.463  11.339
 1775TIP3   OH226815   6.284   3.578  10.588
 1775TIP3    H126816   6.188   3.591  10.598
 1775TIP3    H226817   6.319   3.662  10.620
 1776TIP3   OH226818   6.817   3.099  11.234
 1776TIP3    H126819   6.779   3.078  11.322
 1776TIP3    H226820   6.878   3.026  11.217
 1777TIP3   OH226821   7.089   3.558  11.483
 1777TIP3    H126822   7.025   3.504  11.433
 1777TIP3    H226823   7.114   3.625  11.416
 1778TIP3   OH226824   5.900   2.281  11.421
 1778TIP3    H126825   5.809   2.315  11.418
 1778TIP3    H226826   5.889   2.196  11.467
 1779TIP3   OH226827   7.126   3.064  10.365
 1779TIP3    H126828   7.098   2.988  10.421
 1779TIP3    H226829   7.219   3.072  10.388
 1780TIP3   OH226830   5.864   3.461  11.264
 1780TIP3    H126831   5.889   3.367  11.264
 1780TIP3    H226832   5.888   3.486  11.354
 1781TIP3   OH226833   5.992   2.988  10.286
 1781TIP3    H126834   5.919   3.024  10.340
 1781TIP3    H226835   6.041   3.066  10.259
 1782TIP3   OH226836   6.771   2.257  11.315
 1782TIP3    H126837   6.844   2.263  11.379
 1782TIP3    H226838   6.734   2.169  11.334
 1783TIP3   OH226839   6.619   3.432  10.306
 1783TIP3    H126840   6.534   3.480  10.313
 1783TIP3    H226841   6.670   3.485  10.244
 1784TIP3   OH226842   6.571   2.390  10.507
 1784TIP3    H126843   6.650   2.448  10.512
 1784TIP3    H226844   6.543   2.379  10.600
 1785TIP3   OH226845   6.625   2.491  11.425
 1785TIP3    H126846   6.635   2.549  11.504
 1785TIP3    H226847   6.692   2.422  11.436
 1786TIP3   OH226848   6.656   2.100  10.596
 1786TIP3    H126849   6.623   2.161  10.664
 1786TIP3    H226850   6.725   2.154  10.556
 1787TIP3   OH226851   6.351   3.537  10.309
 1787TIP3    H126852   6.367   3.618  10.256
 1787TIP3    H226853   6.330   3.568  10.399
 1788TIP3   OH226854   6.223   2.208  10.268
 1788TIP3    H126855   6.218   2.297  10.304
 1788TIP3    H226856   6.314   2.184  10.291
 1789TIP3   OH226857   7.242   2.275  11.504
 1789TIP3    H126858   7.150   2.311  11.498
 1789TIP3    H226859   7.275   2.283  11.415
 1790TIP3   OH226860   7.106   2.659  10.918
 1790TIP3    H126861   7.024   2.616  10.884
 1790TIP3    H226862   7.147   2.586  10.966
 1791TIP3   OH226863   7.215   3.583  11.079
 1791TIP3    H126864   7.199   3.653  11.013
 1791TIP3    H226865   7.308   3.593  11.100
 1792TIP3   OH226866   5.962   1.996  10.958
 1792TIP3    H126867   5.940   1.999  10.862
 1792TIP3    H226868   5.919   1.913  10.985
 1793TIP3   OH226869   5.853   3.388  10.567
 1793TIP3    H126870   5.770   3.437  10.573
 1793TIP3    H226871   5.911   3.438  10.509
 1794TIP3   OH226872   5.779   3.653  11.703
 1794TIP3    H126873   5.839   3.631  11.778
 1794TIP3    H226874   5.737   3.568  11.684
 1795TIP3   OH226875   6.245   3.545  11.865
 1795TIP3    H126876   6.321   3.495  11.897
 1795TIP3    H226877   6.242   3.518  11.771
 1796TIP3   OH226878   6.653   3.495  10.001
 1796TIP3    H126879   6.589   3.430  10.034
 1796TIP3    H226880   6.729   3.439   9.980
 1797TIP3   OH226881   6.899   3.383  11.738
 1797TIP3    H126882   6.867   3.294  11.765
 1797TIP3    H226883   6.974   3.395  11.799
 1798TIP3   OH226884   5.770   3.031  11.803
 1798TIP3    H126885   5.787   2.941  11.770
 1798TIP3    H226886   5.696   3.058  11.745
 1799TIP3   OH226887   6.441   3.029  11.741
 1799TIP3    H126888   6.407   3.059  11.655
 1799TIP3    H226889   6.451   2.932  11.731
 1800TIP3   OH226890   7.010   3.014  11.477
 1800TIP3    H126891   7.087   3.076  11.470
 1800TIP3    H226892   6.940   3.080  11.484
 1801TIP3   OH226893   5.860   2.753  11.742
 1801TIP3    H126894   5.900   2.666  11.730
 1801TIP3    H226895   5.835   2.753  11.835
 1802TIP3   OH226896   6.253   2.649  11.477
 1802TIP3    H126897   6.191   2.719  11.503
 1802TIP3    H226898   6.288   2.685  11.394
 1803TIP3   OH226899   6.754   2.904  11.809
 1803TIP3    H126900   6.851   2.906  11.799
 1803TIP3    H226901   6.740   2.827  11.866
 1804TIP3   OH226902   6.290   2.386  11.584
 1804TIP3    H126903   6.302   2.314  11.519
 1804TIP3    H226904   6.287   2.467  11.528
 1805TIP3   OH226905   6.330   2.224  11.337
 1805TIP3    H126906   6.382   2.270  11.267
 1805TIP3    H226907   6.242   2.215  11.295
 1806TIP3   OH226908   6.485   2.771  11.361
 1806TIP3    H126909   6.561   2.755  11.303
 1806TIP3    H226910   6.449   2.855  11.329
 1807TIP3   OH226911   6.925   2.550  11.859
 1807TIP3    H126912   6.949   2.457  11.848
 1807TIP3    H226913   7.013   2.592  11.859
 1808TIP3   OH226914   7.055   2.827  11.671
 1808TIP3    H126915   7.033   2.901  11.611
 1808TIP3    H226916   7.152   2.824  11.655
 1809TIP3   OH226917   6.136   2.510  11.775
 1809TIP3    H126918   6.059   2.453  11.756
 1809TIP3    H226919   6.203   2.474  11.713
 1810TIP3   OH226920   6.410   1.968  11.378
 1810TIP3    H126921   6.394   2.065  11.367
 1810TIP3    H226922   6.334   1.932  11.327
 1811TIP3   OH226923   6.537   2.401  11.737
 1811TIP3    H126924   6.507   2.378  11.827
 1811TIP3    H226925   6.458   2.381  11.684
 1812TIP3   OH226926   6.807   2.315  11.645
 1812TIP3    H126927   6.711   2.319  11.658
 1812TIP3    H226928   6.837   2.251  11.712
 1813TIP3   OH226929   6.973   2.177  11.841
 1813TIP3    H126930   6.960   2.080  11.841
 1813TIP3    H226931   6.940   2.207  11.928
 1814TIP3   OH226932   5.946   2.303  11.748
 1814TIP3    H126933   5.971   2.230  11.688
 1814TIP3    H226934   5.938   2.258  11.834
 1815TIP3   OH226935   6.431   1.904  11.647
 1815TIP3    H126936   6.501   1.836  11.643
 1815TIP3    H226937   6.421   1.923  11.551
 1816TIP3   OH226938   6.468   2.068  11.855
 1816TIP3    H126939   6.451   2.018  11.771
 1816TIP3    H226940   6.407   2.144  11.846
 1817TIP3   OH226941   6.421   3.756  10.169
 1817TIP3    H126942   6.516   3.770  10.183
 1817TIP3    H226943   6.395   3.825  10.107
 1818TIP3   OH226944   5.648   3.758  10.619
 1818TIP3    H126945   5.575   3.709  10.574
 1818TIP3    H226946   5.676   3.691  10.685
 1819TIP3   OH226947   5.730   3.569  10.804
 1819TIP3    H126948   5.695   3.481  10.824
 1819TIP3    H226949   5.753   3.601  10.893
 1820TIP3   OH226950   7.269   3.190  11.849
 1820TIP3    H126951   7.192   3.175  11.904
 1820TIP3    H226952   7.321   3.255  11.900
 1821TIP3   OH226953   7.282   3.375  11.322
 1821TIP3    H126954   7.215   3.416  11.379
 1821TIP3    H226955   7.229   3.339  11.248
 1822TIP3   OH226956   7.201   2.552   9.996
 1822TIP3    H126957   7.287   2.600  10.009
 1822TIP3    H226958   7.254   2.471  10.019
 1823TIP3   OH226959   7.233   2.667  10.646
 1823TIP3    H126960   7.219   2.572  10.652
 1823TIP3    H226961   7.201   2.695  10.734
 1824TIP3   OH226962   5.735   2.872  11.052
 1824TIP3    H126963   5.756   2.869  10.957
 1824TIP3    H226964   5.824   2.864  11.093
 1825TIP3   OH226965  -0.031   2.869  11.643
 1825TIP3    H126966   0.028   2.792  11.640
 1825TIP3    H226967   0.028   2.941  11.615
 1826TIP3   OH226968   7.230   2.254   9.997
 1826TIP3    H126969   7.301   2.232  10.058
 1826TIP3    H226970   7.146   2.219  10.021
 1827TIP3   OH226971   7.198   2.417  10.486
 1827TIP3    H126972   7.237   2.334  10.517
 1827TIP3    H226973   7.280   2.464  10.465
 1828TIP3   OH226974   7.228   2.432  11.029
 1828TIP3    H126975   7.323   2.448  11.018
 1828TIP3    H226976   7.231   2.481  11.114
 1829TIP3   OH226977   7.270   2.554  11.324
 1829TIP3    H126978   7.182   2.584  11.352
 1829TIP3    H226979   7.312   2.635  11.292
 1830TIP3   OH226980   5.697   2.406  11.668
 1830TIP3    H126981   5.791   2.387  11.689
 1830TIP3    H226982   5.652   2.325  11.700
 1831TIP3   OH226983   5.817   2.235  10.954
 1831TIP3    H126984   5.864   2.153  10.982
 1831TIP3    H226985   5.870   2.305  10.995
 1832TIP3   OH226986   5.647   2.534  11.060
 1832TIP3    H126987   5.702   2.512  10.982
 1832TIP3    H226988   5.690   2.617  11.087
 1833TIP3   OH226989   5.680   2.161  10.464
 1833TIP3    H126990   5.586   2.181  10.452
 1833TIP3    H226991   5.725   2.210  10.395
 1834TIP3   OH226992   7.144   3.646  10.665
 1834TIP3    H126993   7.210   3.614  10.603
 1834TIP3    H226994   7.200   3.702  10.723
 1835TIP3   OH226995   5.678   2.029  11.297
 1835TIP3    H126996   5.610   2.008  11.364
 1835TIP3    H226997   5.632   2.095  11.242
 1836TIP3   OH226998   5.900   3.352  11.718
 1836TIP3    H126999   5.817   3.367  11.668
 1836TIP3    H227000   5.871   3.341  11.808
 1837TIP3   OH227001   6.192   3.448  11.342
 1837TIP3    H127002   6.154   3.532  11.312
 1837TIP3    H227003   6.284   3.457  11.309
 1838TIP3   OH227004   6.623   3.589  11.632
 1838TIP3    H127005   6.639   3.554  11.723
 1838TIP3    H227006   6.712   3.620  11.605
 1839TIP3   OH227007   6.855   3.717  11.560
 1839TIP3    H127008   6.927   3.656  11.538
 1839TIP3    H227009   6.891   3.759  11.642
 1840TIP3   OH227010   5.934   3.772  11.341
 1840TIP3    H127011   5.860   3.820  11.300
 1840TIP3    H227012   5.900   3.751  11.430
 1841TIP3   OH227013   6.181   3.730  11.247
 1841TIP3    H127014   6.091   3.742  11.287
 1841TIP3    H227015   6.174   3.788  11.169
 1842TIP3   OH227016   6.651   3.721  11.165
 1842TIP3    H127017   6.604   3.775  11.099
 1842TIP3    H227018   6.665   3.784  11.238
 1843TIP3   OH227019   6.883   3.604  11.264
 1843TIP3    H127020   6.794   3.628  11.231
 1843TIP3    H227021   6.926   3.690  11.256
 1844TIP3   OH227022   7.138   3.764  11.291
 1844TIP3    H127023   7.127   3.858  11.267
 1844TIP3    H227024   7.162   3.724  11.205
 1845TIP3   OH227025   5.877   3.636  11.035
 1845TIP3    H127026   5.871   3.590  11.121
 1845TIP3    H227027   5.959   3.600  10.995
 1846TIP3   OH227028   6.086   3.507  10.899
 1846TIP3    H127029   6.069   3.414  10.921
 1846TIP3    H227030   6.172   3.521  10.946
 1847TIP3   OH227031   6.343   3.556  10.987
 1847TIP3    H127032   6.363   3.464  10.960
 1847TIP3    H227033   6.350   3.549  11.083
 1848TIP3   OH227034   6.693   2.120  10.900
 1848TIP3    H127035   6.625   2.056  10.928
 1848TIP3    H227036   6.749   2.069  10.842
 1849TIP3   OH227037   7.208   1.926  10.910
 1849TIP3    H127038   7.264   1.988  10.861
 1849TIP3    H227039   7.119   1.961  10.888
 1850TIP3   OH227040   5.927   1.984  10.687
 1850TIP3    H127041   5.849   1.962  10.633
 1850TIP3    H227042   5.976   1.900  10.681
 1851TIP3   OH227043   5.809   1.961  10.263
 1851TIP3    H127044   5.852   2.025  10.203
 1851TIP3    H227045   5.749   2.017  10.314
 1852TIP3   OH227046   6.383   1.971  10.662
 1852TIP3    H127047   6.469   2.016  10.660
 1852TIP3    H227048   6.372   1.956  10.756
 1853TIP3   OH227049   6.947   1.977  10.829
 1853TIP3    H127050   6.944   1.989  10.734
 1853TIP3    H227051   6.910   1.886  10.841
 1854TIP3   OH227052   6.495   2.180  10.352
 1854TIP3    H127053   6.516   2.121  10.426
 1854TIP3    H227054   6.495   2.267  10.396
 1855TIP3   OH227055   6.686   3.683  10.191
 1855TIP3    H127056   6.776   3.716  10.175
 1855TIP3    H227057   6.665   3.633  10.110
 1856TIP3   OH227058   5.919   2.037  11.632
 1856TIP3    H127059   5.882   1.958  11.675
 1856TIP3    H227060   6.011   2.035  11.667
 1857TIP3   OH227061   6.119   1.975  11.792
 1857TIP3    H127062   6.209   1.941  11.772
 1857TIP3    H227063   6.081   1.895  11.835
 1858TIP3   OH227064   6.959   1.906  11.808
 1858TIP3    H127065   6.968   1.859  11.893
 1858TIP3    H227066   7.050   1.902  11.772
 1859TIP3   OH227067   7.272   3.505  11.682
 1859TIP3    H127068   7.199   3.493  11.618
 1859TIP3    H227069   7.267   3.603  11.696
 1860TIP3   OH227070   1.180   4.783  10.675
 1860TIP3    H127071   1.183   4.881  10.666
 1860TIP3    H227072   1.110   4.761  10.614
 1861TIP3   OH227073   1.067   4.710  11.021
 1861TIP3    H127074   1.066   4.644  11.092
 1861TIP3    H227075   1.034   4.660  10.945
 1862TIP3   OH227076   0.306   4.674  11.176
 1862TIP3    H127077   0.312   4.607  11.248
 1862TIP3    H227078   0.378   4.734  11.199
 1863TIP3   OH227079   1.437   5.004  10.850
 1863TIP3    H127080   1.395   4.932  10.897
 1863TIP3    H227081   1.439   5.075  10.916
 1864TIP3   OH227082   0.394   5.120  11.030
 1864TIP3    H127083   0.362   5.035  10.996
 1864TIP3    H227084   0.490   5.101  11.034
 1865TIP3   OH227085   0.078   4.479  10.550
 1865TIP3    H127086   0.026   4.559  10.575
 1865TIP3    H227087   0.005   4.424  10.528
 1866TIP3   OH227088   0.130   4.697  10.787
 1866TIP3    H127089   0.154   4.618  10.838
 1866TIP3    H227090   0.203   4.708  10.725
 1867TIP3   OH227091   1.149   5.519  10.874
 1867TIP3    H127092   1.213   5.449  10.844
 1867TIP3    H227093   1.129   5.486  10.961
 1868TIP3   OH227094   0.905   4.950  11.066
 1868TIP3    H127095   0.939   4.886  11.002
 1868TIP3    H227096   0.984   4.964  11.121
 1869TIP3   OH227097   1.766   4.113  11.143
 1869TIP3    H127098   1.782   4.174  11.219
 1869TIP3    H227099   1.820   4.157  11.075
 1870TIP3   OH227100   1.222   4.396  11.098
 1870TIP3    H127101   1.237   4.300  11.098
 1870TIP3    H227102   1.212   4.411  11.002
 1871TIP3   OH227103   0.536   4.203  10.822
 1871TIP3    H127104   0.543   4.288  10.775
 1871TIP3    H227105   0.493   4.148  10.753
 1872TIP3   OH227106   1.308   4.212  10.659
 1872TIP3    H127107   1.374   4.183  10.726
 1872TIP3    H227108   1.362   4.269  10.602
 1873TIP3   OH227109   0.199   4.443  10.890
 1873TIP3    H127110   0.266   4.390  10.939
 1873TIP3    H227111   0.208   4.411  10.800
 1874TIP3   OH227112   0.714   4.601  10.822
 1874TIP3    H127113   0.778   4.543  10.868
 1874TIP3    H227114   0.659   4.534  10.777
 1875TIP3   OH227115   1.810   4.256  11.369
 1875TIP3    H127116   1.747   4.330  11.360
 1875TIP3    H227117   1.814   4.245  11.465
 1876TIP3   OH227118   0.423   4.094  11.226
 1876TIP3    H127119   0.396   4.150  11.151
 1876TIP3    H227120   0.354   4.117  11.293
 1877TIP3   OH227121   1.155   5.044  10.580
 1877TIP3    H127122   1.125   5.017  10.493
 1877TIP3    H227123   1.122   5.136  10.589
 1878TIP3   OH227124   0.677   4.859  11.252
 1878TIP3    H127125   0.604   4.922  11.270
 1878TIP3    H227126   0.747   4.919  11.222
 1879TIP3   OH227127   1.486   4.146  10.858
 1879TIP3    H127128   1.467   4.070  10.912
 1879TIP3    H227129   1.554   4.192  10.911
 1880TIP3   OH227130   0.379   4.278  11.027
 1880TIP3    H127131   0.440   4.348  11.061
 1880TIP3    H227132   0.433   4.238  10.955
 1881TIP3   OH227133   0.519   5.058  11.332
 1881TIP3    H127134   0.514   5.149  11.298
 1881TIP3    H227135   0.430   5.050  11.376
 1882TIP3   OH227136   0.131   5.026  10.411
 1882TIP3    H127137   0.100   5.048  10.322
 1882TIP3    H227138   0.133   5.109  10.461
 1883TIP3   OH227139   1.490   5.187  11.086
 1883TIP3    H127140   1.393   5.197  11.100
 1883TIP3    H227141   1.517   5.279  11.068
 1884TIP3   OH227142   1.519   4.015  11.222
 1884TIP3    H127143   1.449   4.081  11.221
 1884TIP3    H227144   1.593   4.059  11.174
 1885TIP3   OH227145   0.821   3.826  10.973
 1885TIP3    H127146   0.805   3.730  10.966
 1885TIP3    H227147   0.732   3.858  11.002
 1886TIP3   OH227148   1.315   5.365  10.747
 1886TIP3    H127149   1.360   5.294  10.697
 1886TIP3    H227150   1.354   5.445  10.706
 1887TIP3   OH227151   1.437   5.160  10.599
 1887TIP3    H127152   1.408   5.089  10.540
 1887TIP3    H227153   1.441   5.110  10.682
 1888TIP3   OH227154   1.599   5.016  11.447
 1888TIP3    H127155   1.613   4.953  11.373
 1888TIP3    H227156   1.618   5.102  11.406
 1889TIP3   OH227157   1.787   4.647  11.252
 1889TIP3    H127158   1.721   4.719  11.259
 1889TIP3    H227159   1.834   4.671  11.171
 1890TIP3   OH227160   1.391   4.727  10.516
 1890TIP3    H127161   1.318   4.753  10.575
 1890TIP3    H227162   1.439   4.660  10.567
 1891TIP3   OH227163   1.384   4.544  11.427
 1891TIP3    H127164   1.386   4.625  11.481
 1891TIP3    H227165   1.321   4.575  11.358
 1892TIP3   OH227166   0.556   4.795  10.707
 1892TIP3    H127167   0.519   4.754  10.626
 1892TIP3    H227168   0.614   4.724  10.741
 1893TIP3   OH227169   0.687   5.135  10.976
 1893TIP3    H127170   0.683   5.079  10.896
 1893TIP3    H227171   0.764   5.097  11.022
 1894TIP3   OH227172   0.588   4.669  11.072
 1894TIP3    H127173   0.644   4.680  10.993
 1894TIP3    H227174   0.624   4.735  11.134
 1895TIP3   OH227175   1.227   5.224  11.143
 1895TIP3    H127176   1.198   5.288  11.209
 1895TIP3    H227177   1.202   5.139  11.186
 1896TIP3   OH227178   0.681   5.111  11.542
 1896TIP3    H127179   0.643   5.187  11.590
 1896TIP3    H227180   0.613   5.092  11.473
 1897TIP3   OH227181   0.376   4.728  11.463
 1897TIP3    H127182   0.379   4.797  11.532
 1897TIP3    H227183   0.283   4.738  11.434
 1898TIP3   OH227184   1.052   5.320  10.631
 1898TIP3    H127185   1.096   5.351  10.711
 1898TIP3    H227186   0.994   5.394  10.609
 1899TIP3   OH227187   0.506   5.315  11.618
 1899TIP3    H127188   0.499   5.304  11.521
 1899TIP3    H227189   0.412   5.304  11.644
 1900TIP3   OH227190   0.456   4.699  10.467
 1900TIP3    H127191   0.423   4.776  10.416
 1900TIP3    H227192   0.385   4.635  10.452
 1901TIP3   OH227193   0.098   4.930  11.336
 1901TIP3    H127194   0.024   4.934  11.271
 1901TIP3    H227195   0.070   4.846  11.377
 1902TIP3   OH227196   0.047   5.223  11.024
 1902TIP3    H127197   0.138   5.198  11.036
 1902TIP3    H227198   0.030   5.290  11.091
 1903TIP3   OH227199   1.861   5.282  11.609
 1903TIP3    H127200   1.848   5.186  11.600
 1903TIP3    H227201   1.771   5.307  11.642
 1904TIP3   OH227202   0.955   5.237  11.491
 1904TIP3    H127203   0.962   5.321  11.541
 1904TIP3    H227204   0.868   5.202  11.516
 1905TIP3   OH227205   1.000   5.612  10.471
 1905TIP3    H127206   0.986   5.603  10.377
 1905TIP3    H227207   0.999   5.709  10.486
 1906TIP3   OH227208   0.360   5.502  10.654
 1906TIP3    H127209   0.377   5.457  10.740
 1906TIP3    H227210   0.280   5.455  10.626
 1907TIP3   OH227211   1.274   5.530  10.452
 1907TIP3    H127212   1.177   5.533  10.465
 1907TIP3    H227213   1.298   5.451  10.503
 1908TIP3   OH227214   1.573   4.430  11.652
 1908TIP3    H127215   1.529   4.476  11.580
 1908TIP3    H227216   1.575   4.338  11.621
 1909TIP3   OH227217   0.288   5.073  11.453
 1909TIP3    H127218   0.306   5.034  11.540
 1909TIP3    H227219   0.202   5.032  11.429
 1910TIP3   OH227220   0.555   3.917  11.048
 1910TIP3    H127221   0.465   3.907  11.011
 1910TIP3    H227222   0.544   4.001  11.095
 1911TIP3   OH227223   1.019   3.884  11.383
 1911TIP3    H127224   1.058   3.844  11.464
 1911TIP3    H227225   0.922   3.872  11.400
 1912TIP3   OH227226   1.349   4.267  11.474
 1912TIP3    H127227   1.293   4.249  11.553
 1912TIP3    H227228   1.331   4.360  11.450
 1913TIP3   OH227229   0.985   4.135  10.118
 1913TIP3    H127230   0.955   4.136  10.210
 1913TIP3    H227231   0.952   4.051  10.086
 1914TIP3   OH227232   0.564   4.413  11.168
 1914TIP3    H127233   0.492   4.412  11.235
 1914TIP3    H227234   0.560   4.506  11.136
 1915TIP3   OH227235   0.561   4.429  10.659
 1915TIP3    H127236   0.468   4.401  10.645
 1915TIP3    H227237   0.601   4.397  10.576
 1916TIP3   OH227238   1.110   4.475  10.534
 1916TIP3    H127239   1.073   4.558  10.503
 1916TIP3    H227240   1.184   4.459  10.471
 1917TIP3   OH227241   1.021   4.497  11.680
 1917TIP3    H127242   0.966   4.421  11.712
 1917TIP3    H227243   1.104   4.484  11.728
 1918TIP3   OH227244   1.215   4.425  10.818
 1918TIP3    H127245   1.191   4.482  10.743
 1918TIP3    H227246   1.228   4.339  10.772
 1919TIP3   OH227247   0.332   4.441  11.343
 1919TIP3    H127248   0.332   4.482  11.431
 1919TIP3    H227249   0.283   4.359  11.359
 1920TIP3   OH227250   0.011   4.167  10.726
 1920TIP3    H127251   0.061   4.148  10.808
 1920TIP3    H227252   0.045   4.108  10.659
 1921TIP3   OH227253   0.134   4.254  10.314
 1921TIP3    H127254   0.173   4.291  10.232
 1921TIP3    H227255   0.045   4.288  10.312
 1922TIP3   OH227256   1.137   4.585  11.278
 1922TIP3    H127257   1.174   4.518  11.217
 1922TIP3    H227258   1.092   4.531  11.345
 1923TIP3   OH227259   0.817   4.179  10.759
 1923TIP3    H127260   0.723   4.183  10.789
 1923TIP3    H227261   0.865   4.169  10.842
 1924TIP3   OH227262   0.303   4.338  10.644
 1924TIP3    H127263   0.212   4.352  10.609
 1924TIP3    H227264   0.327   4.252  10.606
 1925TIP3   OH227265   0.662   4.344  10.413
 1925TIP3    H127266   0.758   4.350  10.428
 1925TIP3    H227267   0.640   4.407  10.343
 1926TIP3   OH227268   1.257   4.094  11.085
 1926TIP3    H127269   1.189   4.114  11.154
 1926TIP3    H227270   1.205   4.087  11.004
 1927TIP3   OH227271   0.532   4.465  10.164
 1927TIP3    H127272   0.475   4.424  10.097
 1927TIP3    H227273   0.616   4.476  10.120
 1928TIP3   OH227274   1.579   5.669  11.716
 1928TIP3    H127275   1.605   5.709  11.631
 1928TIP3    H227276   1.650   5.703  11.773
 1929TIP3   OH227277   0.347   4.916  11.672
 1929TIP3    H127278   0.418   4.941  11.733
 1929TIP3    H227279   0.269   4.931  11.731
 1930TIP3   OH227280   0.946   4.457  10.948
 1930TIP3    H127281   1.005   4.402  10.896
 1930TIP3    H227282   0.932   4.404  11.027
 1931TIP3   OH227283   0.446   4.072  10.592
 1931TIP3    H127284   0.416   3.979  10.591
 1931TIP3    H227285   0.527   4.067  10.538
 1932TIP3   OH227286   0.810   4.292  11.190
 1932TIP3    H127287   0.727   4.342  11.200
 1932TIP3    H227288   0.864   4.325  11.264
 1933TIP3   OH227289   1.585   4.831  11.240
 1933TIP3    H127290   1.643   4.879  11.179
 1933TIP3    H227291   1.499   4.839  11.193
 1934TIP3   OH227292   1.017   4.937  11.484
 1934TIP3    H127293   0.983   4.897  11.564
 1934TIP3    H227294   0.994   5.030  11.493
 1935TIP3   OH227295   1.325   4.386  10.349
 1935TIP3    H127296   1.417   4.372  10.378
 1935TIP3    H227297   1.335   4.461  10.286
 1936TIP3   OH227298   0.380   4.851  10.938
 1936TIP3    H127299   0.450   4.844  10.871
 1936TIP3    H227300   0.386   4.766  10.985
 1937TIP3   OH227301   0.101   4.672  11.444
 1937TIP3    H127302   0.108   4.649  11.538
 1937TIP3    H227303   0.017   4.630  11.421
 1938TIP3   OH227304   0.780   4.648  11.686
 1938TIP3    H127305   0.749   4.621  11.598
 1938TIP3    H227306   0.873   4.618  11.685
 1939TIP3   OH227307   1.246   5.181  11.478
 1939TIP3    H127308   1.154   5.200  11.455
 1939TIP3    H227309   1.245   5.210  11.571
 1940TIP3   OH227310   1.814   4.988  11.601
 1940TIP3    H127311   1.725   5.008  11.563
 1940TIP3    H227312   1.869   4.981  11.519
 1941TIP3   OH227313   1.364   4.765  11.067
 1941TIP3    H127314   1.269   4.742  11.059
 1941TIP3    H227315   1.407   4.687  11.027
 1942TIP3   OH227316   0.616   5.198  10.678
 1942TIP3    H127317   0.667   5.277  10.656
 1942TIP3    H227318   0.528   5.221  10.645
 1943TIP3   OH227319   0.760   4.964  10.635
 1943TIP3    H127320   0.729   5.056  10.637
 1943TIP3    H227321   0.684   4.917  10.674
 1944TIP3   OH227322   0.805   5.382  11.269
 1944TIP3    H127323   0.848   5.463  11.243
 1944TIP3    H227324   0.864   5.348  11.339
 1945TIP3   OH227325   0.628   5.462  10.594
 1945TIP3    H127326   0.531   5.476  10.596
 1945TIP3    H227327   0.662   5.548  10.620
 1946TIP3   OH227328   1.159   4.985  11.234
 1946TIP3    H127329   1.122   4.964  11.322
 1946TIP3    H227330   1.221   4.912  11.217
 1947TIP3   OH227331   1.435   5.441  11.483
 1947TIP3    H127332   1.369   5.390  11.433
 1947TIP3    H227333   1.456   5.511  11.417
 1948TIP3   OH227334   1.837   5.533  10.166
 1948TIP3    H127335   1.909   5.591  10.148
 1948TIP3    H227336   1.764   5.590  10.198
 1949TIP3   OH227337   0.243   4.166  11.418
 1949TIP3    H127338   0.153   4.201  11.420
 1949TIP3    H227339   0.231   4.081  11.466
 1950TIP3   OH227340   0.209   5.348  11.262
 1950TIP3    H127341   0.230   5.254  11.264
 1950TIP3    H227342   0.230   5.373  11.353
 1951TIP3   OH227343   0.336   4.872  10.288
 1951TIP3    H127344   0.262   4.911  10.338
 1951TIP3    H227345   0.381   4.953  10.258
 1952TIP3   OH227346   1.118   4.141  11.312
 1952TIP3    H127347   1.186   4.150  11.381
 1952TIP3    H227348   1.077   4.056  11.335
 1953TIP3   OH227349   1.194   4.102  10.422
 1953TIP3    H127350   1.213   4.154  10.344
 1953TIP3    H227351   1.248   4.146  10.490
 1954TIP3   OH227352   0.913   4.279  10.505
 1954TIP3    H127353   0.995   4.332  10.511
 1954TIP3    H227354   0.888   4.262  10.598
 1955TIP3   OH227355   0.969   4.378  11.426
 1955TIP3    H127356   0.977   4.435  11.504
 1955TIP3    H227357   1.035   4.308  11.436
 1956TIP3   OH227358   1.002   3.983  10.601
 1956TIP3    H127359   0.965   4.049  10.662
 1956TIP3    H227360   1.067   4.038  10.551
 1957TIP3   OH227361   1.588   4.165  11.511
 1957TIP3    H127362   1.495   4.196  11.499
 1957TIP3    H227363   1.618   4.165  11.419
 1958TIP3   OH227364   1.448   4.544  10.916
 1958TIP3    H127365   1.367   4.500  10.884
 1958TIP3    H227366   1.495   4.474  10.965
 1959TIP3   OH227367   0.395   5.133  10.177
 1959TIP3    H127368   0.454   5.205  10.202
 1959TIP3    H227369   0.438   5.095  10.100
 1960TIP3   OH227370   0.227   4.413  10.089
 1960TIP3    H127371   0.222   4.506  10.105
 1960TIP3    H227372   0.139   4.399  10.053
 1961TIP3   OH227373   1.555   5.468  11.080
 1961TIP3    H127374   1.544   5.537  11.011
 1961TIP3    H227375   1.651   5.476  11.098
 1962TIP3   OH227376   0.303   3.882  10.957
 1962TIP3    H127377   0.284   3.884  10.861
 1962TIP3    H227378   0.261   3.798  10.985
 1963TIP3   OH227379   0.201   5.275  10.574
 1963TIP3    H127380   0.115   5.318  10.569
 1963TIP3    H227381   0.251   5.323  10.506
 1964TIP3   OH227382   0.135   5.539  11.701
 1964TIP3    H127383   0.185   5.514  11.781
 1964TIP3    H227384   0.081   5.458  11.686
 1965TIP3   OH227385   0.589   5.430  11.863
 1965TIP3    H127386   0.665   5.381  11.897
 1965TIP3    H227387   0.585   5.403  11.770
 1966TIP3   OH227388   1.241   5.268  11.738
 1966TIP3    H127389   1.209   5.180  11.765
 1966TIP3    H227390   1.317   5.280  11.798
 1967TIP3   OH227391   1.456   5.362  10.028
 1967TIP3    H127392   1.484   5.280  10.070
 1967TIP3    H227393   1.531   5.384   9.971
 1968TIP3   OH227394   0.126   4.917  11.798
 1968TIP3    H127395   0.131   4.823  11.772
 1968TIP3    H227396   0.042   4.945  11.756
 1969TIP3   OH227397   0.784   4.915  11.741
 1969TIP3    H127398   0.750   4.944  11.654
 1969TIP3    H227399   0.794   4.818  11.731
 1970TIP3   OH227400   1.354   4.902  11.480
 1970TIP3    H127401   1.432   4.962  11.471
 1970TIP3    H227402   1.282   4.967  11.484
 1971TIP3   OH227403   0.198   4.638  11.739
 1971TIP3    H127404   0.245   4.552  11.731
 1971TIP3    H227405   0.181   4.639  11.834
 1972TIP3   OH227406   0.594   4.535  11.477
 1972TIP3    H127407   0.533   4.605  11.503
 1972TIP3    H227408   0.632   4.571  11.395
 1973TIP3   OH227409   1.100   4.789  11.808
 1973TIP3    H127410   1.196   4.791  11.800
 1973TIP3    H227411   1.083   4.713  11.866
 1974TIP3   OH227412   0.634   4.272  11.584
 1974TIP3    H127413   0.645   4.200  11.519
 1974TIP3    H227414   0.628   4.352  11.528
 1975TIP3   OH227415   0.674   4.110  11.337
 1975TIP3    H127416   0.725   4.156  11.267
 1975TIP3    H227417   0.585   4.101  11.295
 1976TIP3   OH227418   0.829   4.656  11.361
 1976TIP3    H127419   0.904   4.640  11.303
 1976TIP3    H227420   0.793   4.741  11.329
 1977TIP3   OH227421   1.269   4.435  11.859
 1977TIP3    H127422   1.292   4.341  11.850
 1977TIP3    H227423   1.356   4.478  11.861
 1978TIP3   OH227424   1.402   4.712  11.672
 1978TIP3    H127425   1.377   4.786  11.612
 1978TIP3    H227426   1.498   4.709  11.654
 1979TIP3   OH227427   0.477   4.397  11.774
 1979TIP3    H127428   0.401   4.338  11.756
 1979TIP3    H227429   0.545   4.360  11.714
 1980TIP3   OH227430   0.753   3.854  11.377
 1980TIP3    H127431   0.738   3.950  11.367
 1980TIP3    H227432   0.678   3.818  11.328
 1981TIP3   OH227433   0.880   4.286  11.737
 1981TIP3    H127434   0.850   4.264  11.827
 1981TIP3    H227435   0.801   4.266  11.684
 1982TIP3   OH227436   1.152   4.200  11.645
 1982TIP3    H127437   1.055   4.205  11.657
 1982TIP3    H227438   1.180   4.137  11.713
 1983TIP3   OH227439   1.314   4.062  11.840
 1983TIP3    H127440   1.303   3.966  11.841
 1983TIP3    H227441   1.283   4.092  11.928
 1984TIP3   OH227442   0.295   4.188  11.748
 1984TIP3    H127443   0.315   4.115  11.688
 1984TIP3    H227444   0.282   4.142  11.834
 1985TIP3   OH227445   0.774   3.790  11.647
 1985TIP3    H127446   0.843   3.721  11.644
 1985TIP3    H227447   0.764   3.809  11.551
 1986TIP3   OH227448   0.811   3.954  11.855
 1986TIP3    H127449   0.794   3.904  11.771
 1986TIP3    H227450   0.750   4.030  11.846
 1987TIP3   OH227451   7.353   5.652  10.612
 1987TIP3    H127452   7.272   5.617  10.571
 1987TIP3    H227453   7.370   5.583  10.681
 1988TIP3   OH227454   0.068   5.457  10.802
 1988TIP3    H127455   0.040   5.366  10.824
 1988TIP3    H227456   0.097   5.486  10.890
 1989TIP3   OH227457   1.827   5.534  11.100
 1989TIP3    H127458   1.829   5.551  11.196
 1989TIP3    H227459   1.897   5.592  11.069
 1990TIP3   OH227460   1.784   5.494  11.394
 1990TIP3    H127461   1.737   5.417  11.356
 1990TIP3    H227462   1.835   5.450  11.463
 1991TIP3   OH227463   1.629   5.068  11.859
 1991TIP3    H127464   1.540   5.061  11.897
 1991TIP3    H227465   1.665   5.147  11.903
 1992TIP3   OH227466   1.798   4.704  10.591
 1992TIP3    H127467   1.723   4.654  10.630
 1992TIP3    H227468   1.857   4.720  10.667
 1993TIP3   OH227469   1.773   4.976  11.090
 1993TIP3    H127470   1.855   4.939  11.055
 1993TIP3    H227471   1.787   5.072  11.074
 1994TIP3   OH227472   1.627   5.266  11.318
 1994TIP3    H127473   1.558   5.300  11.378
 1994TIP3    H227474   1.572   5.225  11.248
 1995TIP3   OH227475   1.829   4.692  10.231
 1995TIP3    H127476   1.773   4.722  10.158
 1995TIP3    H227477   1.823   4.757  10.301
 1996TIP3   OH227478   1.578   4.552  10.647
 1996TIP3    H127479   1.562   4.458  10.647
 1996TIP3    H227480   1.544   4.579  10.735
 1997TIP3   OH227481   0.078   4.761  11.052
 1997TIP3    H127482   0.098   4.755  10.956
 1997TIP3    H227483   0.166   4.747  11.092
 1998TIP3   OH227484   1.664   4.750  11.617
 1998TIP3    H127485   1.724   4.675  11.632
 1998TIP3    H227486   1.723   4.828  11.618
 1999TIP3   OH227487   1.812   4.539  11.681
 1999TIP3    H127488   1.726   4.498  11.666
 1999TIP3    H227489   1.873   4.464  11.676
 2000TIP3   OH227490   1.546   4.307  10.496
 2000TIP3    H127491   1.579   4.218  10.509
 2000TIP3    H227492   1.622   4.355  10.456
 2001TIP3   OH227493   1.609   4.367  11.039
 2001TIP3    H127494   1.705   4.390  11.037
 2001TIP3    H227495   1.589   4.381  11.133
 2002TIP3   OH227496   1.616   4.439  11.318
 2002TIP3    H127497   1.528   4.468  11.351
 2002TIP3    H227498   1.658   4.525  11.295
 2003TIP3   OH227499   0.058   4.283  11.669
 2003TIP3    H127500   0.148   4.265  11.695
 2003TIP3    H227501   0.000   4.211  11.704
 2004TIP3   OH227502   1.836   3.838  11.849
 2004TIP3    H127503   1.882   3.779  11.788
 2004TIP3    H227504   1.855   3.924  11.804
 2005TIP3   OH227505   0.157   4.118  10.956
 2005TIP3    H127506   0.209   4.039  10.982
 2005TIP3    H227507   0.211   4.188  10.996
 2006TIP3   OH227508   0.063   4.465  11.097
 2006TIP3    H127509   0.059   4.430  11.005
 2006TIP3    H227510   0.034   4.553  11.078
 2007TIP3   OH227511   1.794   4.051  11.690
 2007TIP3    H127512   1.701   4.082  11.681
 2007TIP3    H227513   1.802   4.002  11.607
 2008TIP3   OH227514   0.062   4.046  10.441
 2008TIP3    H127515  -0.034   4.065  10.442
 2008TIP3    H227516   0.089   4.112  10.377
 2009TIP3   OH227517   1.499   5.543  10.662
 2009TIP3    H127518   1.567   5.510  10.600
 2009TIP3    H227519   1.552   5.592  10.726
 2010TIP3   OH227520   7.378   3.912  11.307
 2010TIP3    H127521   7.302   3.891  11.364
 2010TIP3    H227522   7.325   3.970  11.248
 2011TIP3   OH227523   0.244   5.235  11.715
 2011TIP3    H127524   0.161   5.253  11.669
 2011TIP3    H227525   0.215   5.225  11.806
 2012TIP3   OH227526   0.535   5.333  11.342
 2012TIP3    H127527   0.496   5.417  11.312
 2012TIP3    H227528   0.627   5.343  11.309
 2013TIP3   OH227529   0.966   5.475  11.632
 2013TIP3    H127530   0.982   5.440  11.723
 2013TIP3    H227531   1.056   5.504  11.606
 2014TIP3   OH227532   1.196   5.603  11.559
 2014TIP3    H127533   1.269   5.542  11.538
 2014TIP3    H227534   1.233   5.644  11.640
 2015TIP3   OH227535   1.694   3.861  11.475
 2015TIP3    H127536   1.614   3.894  11.430
 2015TIP3    H227537   1.716   3.784  11.418
 2016TIP3   OH227538   0.278   5.658  11.343
 2016TIP3    H127539   0.203   5.704  11.301
 2016TIP3    H227540   0.241   5.636  11.430
 2017TIP3   OH227541   0.526   5.618  11.248
 2017TIP3    H127542   0.436   5.628  11.288
 2017TIP3    H227543   0.516   5.674  11.169
 2018TIP3   OH227544   0.996   5.607  11.164
 2018TIP3    H127545   0.946   5.656  11.096
 2018TIP3    H227546   1.010   5.665  11.242
 2019TIP3   OH227547   1.224   5.490  11.264
 2019TIP3    H127548   1.137   5.513  11.231
 2019TIP3    H227549   1.271   5.575  11.256
 2020TIP3   OH227550   1.481   5.647  11.290
 2020TIP3    H127551   1.474   5.743  11.267
 2020TIP3    H227552   1.503   5.610  11.202
 2021TIP3   OH227553   0.218   5.522  11.033
 2021TIP3    H127554   0.216   5.479  11.121
 2021TIP3    H227555   0.300   5.485  10.995
 2022TIP3   OH227556   0.430   5.393  10.900
 2022TIP3    H127557   0.412   5.299  10.921
 2022TIP3    H227558   0.516   5.407  10.946
 2023TIP3   OH227559   0.690   5.443  10.988
 2023TIP3    H127560   0.706   5.351  10.959
 2023TIP3    H227561   0.693   5.433  11.084
 2024TIP3   OH227562   1.041   4.004  10.905
 2024TIP3    H127563   0.967   3.944  10.926
 2024TIP3    H227564   1.089   3.956  10.837
 2025TIP3   OH227565   1.545   3.814  10.913
 2025TIP3    H127566   1.612   3.868  10.861
 2025TIP3    H227567   1.464   3.852  10.878
 2026TIP3   OH227568   1.717   3.933  10.741
 2026TIP3    H127569   1.785   3.879  10.694
 2026TIP3    H227570   1.765   4.018  10.749
 2027TIP3   OH227571   0.269   3.868  10.689
 2027TIP3    H127572   0.193   3.846  10.631
 2027TIP3    H227573   0.322   3.786  10.680
 2028TIP3   OH227574   0.158   3.843  10.272
 2028TIP3    H127575   0.196   3.904  10.205
 2028TIP3    H227576   0.090   3.899  10.311
 2029TIP3   OH227577   0.722   3.861  10.664
 2029TIP3    H127578   0.812   3.899  10.659
 2029TIP3    H227579   0.716   3.840  10.757
 2030TIP3   OH227580   1.284   3.868  10.816
 2030TIP3    H127581   1.288   3.876  10.720
 2030TIP3    H227582   1.250   3.775  10.824
 2031TIP3   OH227583   0.153   5.448  10.348
 2031TIP3    H127584   0.074   5.440  10.292
 2031TIP3    H227585   0.142   5.537  10.380
 2032TIP3   OH227586   0.334   4.030  10.123
 2032TIP3    H127587   0.383   3.979  10.055
 2032TIP3    H227588   0.404   4.066  10.176
 2033TIP3   OH227589   0.841   4.065  10.350
 2033TIP3    H127590   0.859   4.005  10.423
 2033TIP3    H227591   0.838   4.150  10.398
 2034TIP3   OH227592   1.696   5.521  10.464
 2034TIP3    H127593   1.682   5.446  10.403
 2034TIP3    H227594   1.695   5.595  10.400
 2035TIP3   OH227595   0.258   3.926  11.636
 2035TIP3    H127596   0.225   3.843  11.674
 2035TIP3    H227597   0.352   3.921  11.666
 2036TIP3   OH227598   0.462   3.860  11.793
 2036TIP3    H127599   0.551   3.827  11.772
 2036TIP3    H227600   0.423   3.781  11.835
 2037TIP3   OH227601   1.302   3.790  11.809
 2037TIP3    H127602   1.310   3.745  11.895
 2037TIP3    H227603   1.393   3.790  11.774
 2038TIP3   OH227604   1.624   5.395  11.675
 2038TIP3    H127605   1.544   5.380  11.621
 2038TIP3    H227606   1.611   5.490  11.695
 2039TIP3   OH227607   2.954   4.710  11.019
 2039TIP3    H127608   2.952   4.645  11.091
 2039TIP3    H227609   2.918   4.659  10.944
 2040TIP3   OH227610   2.189   4.676  11.177
 2040TIP3    H127611   2.197   4.608  11.248
 2040TIP3    H227612   2.264   4.733  11.199
 2041TIP3   OH227613   3.318   5.005  10.848
 2041TIP3    H127614   3.284   4.931  10.900
 2041TIP3    H227615   3.326   5.075  10.916
 2042TIP3   OH227616   2.281   5.117  11.030
 2042TIP3    H127617   2.243   5.034  10.994
 2042TIP3    H227618   2.372   5.090  11.020
 2043TIP3   OH227619   1.945   4.478  10.576
 2043TIP3    H127620   1.899   4.566  10.571
 2043TIP3    H227621   1.889   4.423  10.521
 2044TIP3   OH227622   2.016   4.699  10.788
 2044TIP3    H127623   2.042   4.618  10.836
 2044TIP3    H227624   2.089   4.709  10.724
 2045TIP3   OH227625   3.037   5.520  10.874
 2045TIP3    H127626   3.097   5.446  10.845
 2045TIP3    H227627   3.014   5.488  10.961
 2046TIP3   OH227628   2.790   4.951  11.065
 2046TIP3    H127629   2.824   4.886  11.002
 2046TIP3    H227630   2.870   4.965  11.119
 2047TIP3   OH227631   3.653   4.114  11.143
 2047TIP3    H127632   3.667   4.175  11.219
 2047TIP3    H227633   3.706   4.158  11.075
 2048TIP3   OH227634   3.107   4.396  11.098
 2048TIP3    H127635   3.123   4.300  11.098
 2048TIP3    H227636   3.098   4.411  11.002
 2049TIP3   OH227637   2.420   4.204  10.822
 2049TIP3    H127638   2.429   4.288  10.775
 2049TIP3    H227639   2.379   4.147  10.754
 2050TIP3   OH227640   3.193   4.215  10.661
 2050TIP3    H127641   3.260   4.182  10.725
 2050TIP3    H227642   3.248   4.267  10.601
 2051TIP3   OH227643   2.082   4.445  10.896
 2051TIP3    H127644   2.150   4.389  10.940
 2051TIP3    H227645   2.091   4.415  10.805
 2052TIP3   OH227646   2.599   4.600  10.824
 2052TIP3    H127647   2.664   4.543  10.868
 2052TIP3    H227648   2.544   4.534  10.776
 2053TIP3   OH227649   3.695   4.255  11.370
 2053TIP3    H127650   3.634   4.331  11.359
 2053TIP3    H227651   3.701   4.246  11.465
 2054TIP3   OH227652   2.308   4.094  11.227
 2054TIP3    H127653   2.281   4.150  11.151
 2054TIP3    H227654   2.240   4.118  11.294
 2055TIP3   OH227655   2.561   4.860  11.251
 2055TIP3    H127656   2.489   4.921  11.272
 2055TIP3    H227657   2.634   4.917  11.224
 2056TIP3   OH227658   3.372   4.147  10.858
 2056TIP3    H127659   3.351   4.070  10.912
 2056TIP3    H227660   3.440   4.192  10.912
 2057TIP3   OH227661   2.265   4.281  11.027
 2057TIP3    H127662   2.328   4.348  11.060
 2057TIP3    H227663   2.318   4.238  10.956
 2058TIP3   OH227664   2.404   5.059  11.328
 2058TIP3    H127665   2.396   5.153  11.310
 2058TIP3    H227666   2.318   5.048  11.379
 2059TIP3   OH227667   2.013   5.021  10.413
 2059TIP3    H127668   1.984   5.054  10.326
 2059TIP3    H227669   2.021   5.107  10.459
 2060TIP3   OH227670   3.375   5.188  11.085
 2060TIP3    H127671   3.279   5.196  11.101
 2060TIP3    H227672   3.403   5.279  11.068
 2061TIP3   OH227673   3.407   4.017  11.229
 2061TIP3    H127674   3.334   4.079  11.217
 2061TIP3    H227675   3.477   4.057  11.173
 2062TIP3   OH227676   2.706   3.827  10.973
 2062TIP3    H127677   2.692   3.730  10.966
 2062TIP3    H227678   2.618   3.858  11.001
 2063TIP3   OH227679   3.199   5.364  10.744
 2063TIP3    H127680   3.248   5.293  10.698
 2063TIP3    H227681   3.239   5.445  10.707
 2064TIP3   OH227682   3.314   5.159  10.597
 2064TIP3    H127683   3.296   5.086  10.537
 2064TIP3    H227684   3.329   5.110  10.681
 2065TIP3   OH227685   3.453   5.040  11.438
 2065TIP3    H127686   3.494   4.964  11.388
 2065TIP3    H227687   3.509   5.110  11.404
 2066TIP3   OH227688   2.937   4.552  10.129
 2066TIP3    H127689   3.011   4.561  10.191
 2066TIP3    H227690   2.972   4.492  10.062
 2067TIP3   OH227691   3.665   4.630  11.231
 2067TIP3    H127692   3.615   4.713  11.261
 2067TIP3    H227693   3.723   4.674  11.167
 2068TIP3   OH227694   3.276   4.728  10.515
 2068TIP3    H127695   3.204   4.754  10.574
 2068TIP3    H227696   3.325   4.662  10.567
 2069TIP3   OH227697   3.267   4.541  11.429
 2069TIP3    H127698   3.273   4.624  11.480
 2069TIP3    H227699   3.208   4.575  11.358
 2070TIP3   OH227700   2.436   4.794  10.712
 2070TIP3    H127701   2.409   4.758  10.624
 2070TIP3    H227702   2.501   4.726  10.741
 2071TIP3   OH227703   2.577   5.132  10.971
 2071TIP3    H127704   2.572   5.077  10.890
 2071TIP3    H227705   2.656   5.094  11.014
 2072TIP3   OH227706   2.472   4.670  11.072
 2072TIP3    H127707   2.529   4.679  10.993
 2072TIP3    H227708   2.511   4.733  11.135
 2073TIP3   OH227709   3.108   5.226  11.142
 2073TIP3    H127710   3.083   5.288  11.210
 2073TIP3    H227711   3.088   5.139  11.184
 2074TIP3   OH227712   2.568   5.112  11.539
 2074TIP3    H127713   2.530   5.186  11.591
 2074TIP3    H227714   2.497   5.091  11.475
 2075TIP3   OH227715   3.166   4.644  10.284
 2075TIP3    H127716   3.220   4.665  10.364
 2075TIP3    H227717   3.205   4.700  10.215
 2076TIP3   OH227718   2.261   4.732  11.457
 2076TIP3    H127719   2.264   4.792  11.534
 2076TIP3    H227720   2.167   4.738  11.435
 2077TIP3   OH227721   2.390   5.316  11.617
 2077TIP3    H127722   2.387   5.304  11.522
 2077TIP3    H227723   2.297   5.303  11.643
 2078TIP3   OH227724   2.340   4.700  10.469
 2078TIP3    H127725   2.310   4.777  10.416
 2078TIP3    H227726   2.273   4.635  10.448
 2079TIP3   OH227727   1.946   4.939  11.355
 2079TIP3    H127728   1.899   4.931  11.269
 2079TIP3    H227729   1.951   4.844  11.379
 2080TIP3   OH227730   1.923   5.212  11.037
 2080TIP3    H127731   2.018   5.201  11.032
 2080TIP3    H227732   1.912   5.294  11.087
 2081TIP3   OH227733   3.746   5.284  11.607
 2081TIP3    H127734   3.735   5.187  11.602
 2081TIP3    H227735   3.657   5.306  11.644
 2082TIP3   OH227736   2.839   5.238  11.488
 2082TIP3    H127737   2.848   5.321  11.542
 2082TIP3    H227738   2.754   5.202  11.518
 2083TIP3   OH227739   2.247   5.500  10.653
 2083TIP3    H127740   2.263   5.457  10.740
 2083TIP3    H227741   2.163   5.458  10.627
 2084TIP3   OH227742   3.193   5.532  10.169
 2084TIP3    H127743   3.232   5.455  10.129
 2084TIP3    H227744   3.190   5.508  10.264
 2085TIP3   OH227745   3.158   5.520  10.445
 2085TIP3    H127746   3.066   5.536  10.467
 2085TIP3    H227747   3.186   5.454  10.509
 2086TIP3   OH227748   3.455   4.427  11.655
 2086TIP3    H127749   3.416   4.477  11.581
 2086TIP3    H227750   3.462   4.338  11.619
 2087TIP3   OH227751   2.174   5.072  11.452
 2087TIP3    H127752   2.195   5.032  11.539
 2087TIP3    H227753   2.087   5.031  11.431
 2088TIP3   OH227754   2.440   3.917  11.048
 2088TIP3    H127755   2.350   3.906  11.011
 2088TIP3    H227756   2.429   4.001  11.095
 2089TIP3   OH227757   2.905   3.889  11.388
 2089TIP3    H127758   2.943   3.841  11.463
 2089TIP3    H227759   2.808   3.871  11.398
 2090TIP3   OH227760   3.233   4.265  11.474
 2090TIP3    H127761   3.177   4.255  11.554
 2090TIP3    H227762   3.219   4.358  11.448
 2091TIP3   OH227763   2.450   4.414  11.169
 2091TIP3    H127764   2.378   4.412  11.235
 2091TIP3    H227765   2.447   4.506  11.136
 2092TIP3   OH227766   2.446   4.430  10.657
 2092TIP3    H127767   2.353   4.401  10.646
 2092TIP3    H227768   2.486   4.397  10.574
 2093TIP3   OH227769   2.998   4.476  10.535
 2093TIP3    H127770   2.956   4.557  10.503
 2093TIP3    H227771   3.068   4.461  10.469
 2094TIP3   OH227772   2.907   4.495  11.679
 2094TIP3    H127773   2.851   4.422  11.713
 2094TIP3    H227774   2.989   4.485  11.730
 2095TIP3   OH227775   3.101   4.425  10.818
 2095TIP3    H127776   3.075   4.480  10.743
 2095TIP3    H227777   3.114   4.339  10.772
 2096TIP3   OH227778   2.215   4.442  11.342
 2096TIP3    H127779   2.219   4.482  11.431
 2096TIP3    H227780   2.169   4.358  11.359
 2097TIP3   OH227781   1.879   4.153  10.735
 2097TIP3    H127782   1.945   4.148  10.808
 2097TIP3    H227783   1.926   4.113  10.660
 2098TIP3   OH227784   3.022   4.585  11.278
 2098TIP3    H127785   3.059   4.518  11.218
 2098TIP3    H227786   2.978   4.531  11.346
 2099TIP3   OH227787   2.702   4.180  10.760
 2099TIP3    H127788   2.609   4.183  10.790
 2099TIP3    H227789   2.752   4.167  10.842
 2100TIP3   OH227790   2.184   4.339  10.643
 2100TIP3    H127791   2.094   4.351  10.607
 2100TIP3    H227792   2.213   4.254  10.607
 2101TIP3   OH227793   2.546   4.343  10.409
 2101TIP3    H127794   2.642   4.350  10.426
 2101TIP3    H227795   2.529   4.410  10.343
 2102TIP3   OH227796   3.144   4.103  11.086
 2102TIP3    H127797   3.074   4.112  11.153
 2102TIP3    H227798   3.094   4.082  11.006
 2103TIP3   OH227799   3.465   5.669  11.716
 2103TIP3    H127800   3.491   5.709  11.631
 2103TIP3    H227801   3.537   5.702  11.773
 2104TIP3   OH227802   2.230   4.924  11.671
 2104TIP3    H127803   2.304   4.938  11.733
 2104TIP3    H227804   2.153   4.927  11.732
 2105TIP3   OH227805   2.833   4.457  10.948
 2105TIP3    H127806   2.891   4.401  10.895
 2105TIP3    H227807   2.817   4.403  11.027
 2106TIP3   OH227808   2.333   4.073  10.593
 2106TIP3    H127809   2.301   3.981  10.589
 2106TIP3    H227810   2.411   4.068  10.536
 2107TIP3   OH227811   2.696   4.291  11.190
 2107TIP3    H127812   2.613   4.342  11.200
 2107TIP3    H227813   2.750   4.325  11.264
 2108TIP3   OH227814   3.455   4.817  11.214
 2108TIP3    H127815   3.525   4.879  11.182
 2108TIP3    H227816   3.373   4.848  11.180
 2109TIP3   OH227817   2.902   4.936  11.483
 2109TIP3    H127818   2.869   4.896  11.564
 2109TIP3    H227819   2.883   5.029  11.494
 2110TIP3   OH227820   3.210   4.384  10.346
 2110TIP3    H127821   3.301   4.370  10.379
 2110TIP3    H227822   3.217   4.464  10.291
 2111TIP3   OH227823   2.267   4.853  10.941
 2111TIP3    H127824   2.334   4.843  10.870
 2111TIP3    H227825   2.270   4.764  10.984
 2112TIP3   OH227826   1.964   4.693  11.467
 2112TIP3    H127827   1.984   4.649  11.553
 2112TIP3    H227828   1.902   4.630  11.424
 2113TIP3   OH227829   2.666   4.650  11.685
 2113TIP3    H127830   2.633   4.620  11.599
 2113TIP3    H227831   2.758   4.617  11.685
 2114TIP3   OH227832   3.132   5.181  11.478
 2114TIP3    H127833   3.039   5.200  11.455
 2114TIP3    H227834   3.130   5.210  11.571
 2115TIP3   OH227835   3.697   4.405  10.318
 2115TIP3    H127836   3.647   4.366  10.246
 2115TIP3    H227837   3.710   4.498  10.289
 2116TIP3   OH227838   3.709   5.017  11.610
 2116TIP3    H127839   3.618   5.006  11.571
 2116TIP3    H227840   3.753   4.982  11.529
 2117TIP3   OH227841   3.244   4.767  11.060
 2117TIP3    H127842   3.151   4.739  11.059
 2117TIP3    H227843   3.294   4.689  11.029
 2118TIP3   OH227844   2.498   5.200  10.685
 2118TIP3    H127845   2.553   5.275  10.656
 2118TIP3    H227846   2.414   5.220  10.643
 2119TIP3   OH227847   2.689   5.379  11.268
 2119TIP3    H127848   2.733   5.463  11.243
 2119TIP3    H227849   2.750   5.350  11.339
 2120TIP3   OH227850   2.513   5.459  10.591
 2120TIP3    H127851   2.417   5.476  10.593
 2120TIP3    H227852   2.547   5.547  10.618
 2121TIP3   OH227853   3.044   4.984  11.232
 2121TIP3    H127854   3.008   4.965  11.321
 2121TIP3    H227855   3.108   4.912  11.218
 2122TIP3   OH227856   3.319   5.443  11.484
 2122TIP3    H127857   3.254   5.390  11.433
 2122TIP3    H227858   3.342   5.511  11.417
 2123TIP3   OH227859   3.721   5.531  10.173
 2123TIP3    H127860   3.794   5.589  10.141
 2123TIP3    H227861   3.650   5.589  10.194
 2124TIP3   OH227862   2.129   4.167  11.423
 2124TIP3    H127863   2.038   4.201  11.418
 2124TIP3    H227864   2.117   4.081  11.467
 2125TIP3   OH227865   2.096   5.346  11.262
 2125TIP3    H127866   2.115   5.251  11.266
 2125TIP3    H227867   2.115   5.374  11.352
 2126TIP3   OH227868   2.219   4.873  10.289
 2126TIP3    H127869   2.147   4.914  10.340
 2126TIP3    H227870   2.271   4.950  10.257
 2127TIP3   OH227871   3.001   4.143  11.316
 2127TIP3    H127872   3.074   4.150  11.378
 2127TIP3    H227873   2.962   4.055  11.332
 2128TIP3   OH227874   3.080   4.101  10.420
 2128TIP3    H127875   3.100   4.156  10.344
 2128TIP3    H227876   3.133   4.145  10.489
 2129TIP3   OH227877   2.799   4.277  10.507
 2129TIP3    H127878   2.879   4.332  10.510
 2129TIP3    H227879   2.773   4.263  10.599
 2130TIP3   OH227880   2.855   4.377  11.425
 2130TIP3    H127881   2.863   4.436  11.503
 2130TIP3    H227882   2.921   4.308  11.436
 2131TIP3   OH227883   2.886   3.983  10.595
 2131TIP3    H127884   2.852   4.047  10.661
 2131TIP3    H227885   2.954   4.039  10.552
 2132TIP3   OH227886   3.471   4.164  11.512
 2132TIP3    H127887   3.381   4.199  11.497
 2132TIP3    H227888   3.506   4.166  11.420
 2133TIP3   OH227889   3.332   4.543  10.915
 2133TIP3    H127890   3.251   4.498  10.885
 2133TIP3    H227891   3.381   4.474  10.965
 2134TIP3   OH227892   3.441   5.469  11.080
 2134TIP3    H127893   3.429   5.537  11.011
 2134TIP3    H227894   3.537   5.475  11.098
 2135TIP3   OH227895   2.190   3.882  10.957
 2135TIP3    H127896   2.169   3.885  10.862
 2135TIP3    H227897   2.147   3.798  10.984
 2136TIP3   OH227898   2.084   5.276  10.577
 2136TIP3    H127899   1.999   5.320  10.569
 2136TIP3    H227900   2.134   5.321  10.506
 2137TIP3   OH227901   2.007   5.538  11.704
 2137TIP3    H127902   2.069   5.520  11.775
 2137TIP3    H227903   1.965   5.453  11.681
 2138TIP3   OH227904   2.471   5.428  11.864
 2138TIP3    H127905   2.550   5.383  11.897
 2138TIP3    H227906   2.473   5.403  11.770
 2139TIP3   OH227907   3.127   5.268  11.737
 2139TIP3    H127908   3.094   5.180  11.765
 2139TIP3    H227909   3.202   5.281  11.798
 2140TIP3   OH227910   2.000   4.920  11.801
 2140TIP3    H127911   2.016   4.826  11.773
 2140TIP3    H227912   1.923   4.941  11.745
 2141TIP3   OH227913   2.672   4.915  11.741
 2141TIP3    H127914   2.635   4.944  11.655
 2141TIP3    H227915   2.678   4.817  11.732
 2142TIP3   OH227916   3.236   4.900  11.481
 2142TIP3    H127917   3.315   4.960  11.471
 2142TIP3    H227918   3.168   4.968  11.484
 2143TIP3   OH227919   2.068   4.638  11.729
 2143TIP3    H127920   2.129   4.561  11.731
 2143TIP3    H227921   2.068   4.642  11.828
 2144TIP3   OH227922   2.481   4.534  11.476
 2144TIP3    H127923   2.420   4.605  11.504
 2144TIP3    H227924   2.517   4.571  11.394
 2145TIP3   OH227925   2.657   4.570  10.066
 2145TIP3    H127926   2.645   4.558   9.973
 2145TIP3    H227927   2.754   4.583  10.076
 2146TIP3   OH227928   2.986   4.789  11.808
 2146TIP3    H127929   3.082   4.791  11.801
 2146TIP3    H227930   2.969   4.714  11.867
 2147TIP3   OH227931   2.521   4.270  11.582
 2147TIP3    H127932   2.531   4.199  11.517
 2147TIP3    H227933   2.515   4.352  11.528
 2148TIP3   OH227934   2.559   4.110  11.337
 2148TIP3    H127935   2.611   4.156  11.267
 2148TIP3    H227936   2.470   4.101  11.295
 2149TIP3   OH227937   2.715   4.656  11.361
 2149TIP3    H127938   2.790   4.640  11.303
 2149TIP3    H227939   2.680   4.741  11.330
 2150TIP3   OH227940   3.154   4.434  11.858
 2150TIP3    H127941   3.179   4.342  11.851
 2150TIP3    H227942   3.241   4.480  11.862
 2151TIP3   OH227943   3.285   4.712  11.672
 2151TIP3    H127944   3.263   4.786  11.611
 2151TIP3    H227945   3.382   4.709  11.657
 2152TIP3   OH227946   2.377   4.375  11.768
 2152TIP3    H127947   2.289   4.337  11.752
 2152TIP3    H227948   2.438   4.350  11.699
 2153TIP3   OH227949   2.639   3.854  11.377
 2153TIP3    H127950   2.624   3.950  11.367
 2153TIP3    H227951   2.563   3.818  11.327
 2154TIP3   OH227952   2.766   4.283  11.737
 2154TIP3    H127953   2.734   4.266  11.828
 2154TIP3    H227954   2.685   4.268  11.685
 2155TIP3   OH227955   3.035   4.198  11.645
 2155TIP3    H127956   2.937   4.210  11.656
 2155TIP3    H227957   3.055   4.147  11.723
 2156TIP3   OH227958   3.198   4.061  11.843
 2156TIP3    H127959   3.192   3.964  11.851
 2156TIP3    H227960   3.170   4.093  11.933
 2157TIP3   OH227961   2.173   4.187  11.747
 2157TIP3    H127962   2.201   4.115  11.688
 2157TIP3    H227963   2.168   4.144  11.835
 2158TIP3   OH227964   2.662   3.792  11.646
 2158TIP3    H127965   2.728   3.720  11.643
 2158TIP3    H227966   2.648   3.808  11.551
 2159TIP3   OH227967   2.700   3.954  11.853
 2159TIP3    H127968   2.679   3.903  11.771
 2159TIP3    H227969   2.636   4.028  11.847
 2160TIP3   OH227970   2.647   5.643  10.167
 2160TIP3    H127971   2.741   5.659  10.184
 2160TIP3    H227972   2.624   5.712  10.105
 2161TIP3   OH227973   1.874   5.643  10.622
 2161TIP3    H127974   1.807   5.594  10.570
 2161TIP3    H227975   1.906   5.575  10.683
 2162TIP3   OH227976   1.958   5.454  10.805
 2162TIP3    H127977   1.924   5.365  10.824
 2162TIP3    H227978   1.982   5.487  10.894
 2163TIP3   OH227979   3.710   5.537  11.101
 2163TIP3    H127980   3.714   5.549  11.197
 2163TIP3    H227981   3.786   5.587  11.070
 2164TIP3   OH227982   3.671   5.494  11.392
 2164TIP3    H127983   3.622   5.415  11.358
 2164TIP3    H227984   3.721   5.449  11.463
 2165TIP3   OH227985   3.515   5.066  11.861
 2165TIP3    H127986   3.425   5.061  11.897
 2165TIP3    H227987   3.552   5.146  11.902
 2166TIP3   OH227988   3.650   4.892  10.404
 2166TIP3    H127989   3.732   4.938  10.425
 2166TIP3    H227990   3.646   4.825  10.474
 2167TIP3   OH227991   3.684   4.700  10.591
 2167TIP3    H127992   3.609   4.656  10.634
 2167TIP3    H227993   3.741   4.723  10.668
 2168TIP3   OH227994   3.658   4.993  11.134
 2168TIP3    H127995   3.722   4.944  11.076
 2168TIP3    H227996   3.667   5.073  11.079
 2169TIP3   OH227997   3.513   5.270  11.317
 2169TIP3    H127998   3.443   5.298  11.379
 2169TIP3    H227999   3.460   5.222  11.249
 2170TIP3   OH228000   3.711   4.687  10.226
 2170TIP3    H128001   3.655   4.732  10.162
 2170TIP3    H228002   3.707   4.757  10.297
 2171TIP3   OH228003   3.462   4.552  10.647
 2171TIP3    H128004   3.448   4.457  10.647
 2171TIP3    H228005   3.431   4.578  10.735
 2172TIP3   OH228006   1.964   4.761  11.053
 2172TIP3    H128007   1.983   4.754  10.957
 2172TIP3    H228008   2.053   4.745  11.091
 2173TIP3   OH228009   3.544   4.739  11.669
 2173TIP3    H128010   3.606   4.672  11.632
 2173TIP3    H228011   3.590   4.814  11.621
 2174TIP3   OH228012   3.701   4.537  11.684
 2174TIP3    H128013   3.612   4.500  11.666
 2174TIP3    H228014   3.759   4.461  11.673
 2175TIP3   OH228015   3.432   4.311  10.494
 2175TIP3    H128016   3.463   4.219  10.506
 2175TIP3    H228017   3.511   4.353  10.457
 2176TIP3   OH228018   3.495   4.367  11.039
 2176TIP3    H128019   3.590   4.391  11.037
 2176TIP3    H228020   3.475   4.382  11.133
 2177TIP3   OH228021   3.501   4.439  11.317
 2177TIP3    H128022   3.415   4.472  11.350
 2177TIP3    H228023   3.545   4.525  11.295
 2178TIP3   OH228024   1.926   4.290  11.666
 2178TIP3    H128025   2.020   4.274  11.689
 2178TIP3    H228026   1.882   4.210  11.701
 2179TIP3   OH228027   3.727   3.843  11.853
 2179TIP3    H128028   3.763   3.777  11.790
 2179TIP3    H228029   3.740   3.925  11.802
 2180TIP3   OH228030   3.498   4.038  10.497
 2180TIP3    H128031   3.516   3.995  10.584
 2180TIP3    H228032   3.435   3.976  10.453
 2181TIP3   OH228033   2.046   4.121  10.955
 2181TIP3    H128034   2.093   4.039  10.982
 2181TIP3    H228035   2.099   4.191  10.995
 2182TIP3   OH228036   1.875   4.420  11.060
 2182TIP3    H128037   1.930   4.397  10.982
 2182TIP3    H228038   1.919   4.502  11.086
 2183TIP3   OH228039   3.680   4.053  11.688
 2183TIP3    H128040   3.587   4.081  11.681
 2183TIP3    H228041   3.687   3.999  11.607
 2184TIP3   OH228042   1.910   4.053  10.469
 2184TIP3    H128043   1.817   4.066  10.449
 2184TIP3    H228044   1.955   4.090  10.392
 2185TIP3   OH228045   3.387   5.542  10.660
 2185TIP3    H128046   3.456   5.509  10.600
 2185TIP3    H228047   3.438   5.592  10.725
 2186TIP3   OH228048   1.907   3.915  11.297
 2186TIP3    H128049   1.839   3.894  11.364
 2186TIP3    H228050   1.861   3.981  11.242
 2187TIP3   OH228051   2.128   5.240  11.716
 2187TIP3    H128052   2.045   5.251  11.665
 2187TIP3    H228053   2.099   5.214  11.802
 2188TIP3   OH228054   2.419   5.328  11.330
 2188TIP3    H128055   2.384   5.418  11.316
 2188TIP3    H228056   2.515   5.348  11.315
 2189TIP3   OH228057   2.852   5.475  11.632
 2189TIP3    H128058   2.869   5.441  11.724
 2189TIP3    H228059   2.941   5.505  11.605
 2190TIP3   OH228060   3.082   5.602  11.561
 2190TIP3    H128061   3.155   5.541  11.538
 2190TIP3    H228062   3.119   5.644  11.642
 2191TIP3   OH228063   3.579   3.863  11.473
 2191TIP3    H128064   3.499   3.893  11.428
 2191TIP3    H228065   3.601   3.783  11.418
 2192TIP3   OH228066   2.163   5.657  11.341
 2192TIP3    H128067   2.090   5.706  11.300
 2192TIP3    H228068   2.129   5.637  11.429
 2193TIP3   OH228069   2.409   5.612  11.246
 2193TIP3    H128070   2.320   5.629  11.288
 2193TIP3    H228071   2.403   5.676  11.171
 2194TIP3   OH228072   2.878   5.605  11.166
 2194TIP3    H128073   2.834   5.661  11.099
 2194TIP3    H228074   2.894   5.670  11.238
 2195TIP3   OH228075   3.110   5.491  11.265
 2195TIP3    H128076   3.022   5.514  11.231
 2195TIP3    H228077   3.156   5.576  11.255
 2196TIP3   OH228078   3.370   5.646  11.290
 2196TIP3    H128079   3.357   5.741  11.267
 2196TIP3    H228080   3.388   5.607  11.202
 2197TIP3   OH228081   2.106   5.521  11.034
 2197TIP3    H128082   2.099   5.477  11.122
 2197TIP3    H228083   2.188   5.487  10.994
 2198TIP3   OH228084   2.313   5.394  10.904
 2198TIP3    H128085   2.296   5.300  10.918
 2198TIP3    H228086   2.402   5.410  10.943
 2199TIP3   OH228087   2.567   5.437  10.989
 2199TIP3    H128088   2.597   5.351  10.956
 2199TIP3    H228089   2.584   5.437  11.084
 2200TIP3   OH228090   2.922   4.007  10.900
 2200TIP3    H128091   2.854   3.942  10.926
 2200TIP3    H228092   2.977   3.954  10.841
 2201TIP3   OH228093   3.435   3.813  10.910
 2201TIP3    H128094   3.497   3.871  10.859
 2201TIP3    H228095   3.347   3.848  10.885
 2202TIP3   OH228096   3.603   3.934  10.737
 2202TIP3    H128097   3.672   3.879  10.694
 2202TIP3    H228098   3.651   4.020  10.748
 2203TIP3   OH228099   2.158   3.871  10.685
 2203TIP3    H128100   2.079   3.848  10.632
 2203TIP3    H228101   2.206   3.786  10.680
 2204TIP3   OH228102   2.609   3.859  10.662
 2204TIP3    H128103   2.697   3.900  10.660
 2204TIP3    H228104   2.601   3.841  10.757
 2205TIP3   OH228105   3.174   3.864  10.828
 2205TIP3    H128106   3.172   3.874  10.732
 2205TIP3    H228107   3.139   3.772  10.840
 2206TIP3   OH228108   3.305   3.866  10.397
 2206TIP3    H128109   3.233   3.927  10.377
 2206TIP3    H228110   3.258   3.781  10.413
 2207TIP3   OH228111   2.026   5.443  10.361
 2207TIP3    H128112   1.962   5.436  10.285
 2207TIP3    H228113   2.029   5.537  10.375
 2208TIP3   OH228114   3.582   5.521  10.462
 2208TIP3    H128115   3.566   5.445  10.404
 2208TIP3    H228116   3.580   5.593  10.400
 2209TIP3   OH228117   2.148   3.923  11.631
 2209TIP3    H128118   2.112   3.844  11.674
 2209TIP3    H228119   2.240   3.921  11.667
 2210TIP3   OH228120   2.348   3.859  11.792
 2210TIP3    H128121   2.438   3.827  11.772
 2210TIP3    H228122   2.310   3.780  11.835
 2211TIP3   OH228123   3.189   3.795  11.807
 2211TIP3    H128124   3.196   3.744  11.892
 2211TIP3    H228125   3.281   3.785  11.776
 2212TIP3   OH228126   3.509   5.395  11.674
 2212TIP3    H128127   3.428   5.380  11.621
 2212TIP3    H228128   3.497   5.490  11.696
 2213TIP3   OH228129   4.951   4.783  10.675
 2213TIP3    H128130   4.954   4.881  10.667
 2213TIP3    H228131   4.882   4.759  10.611
 2214TIP3   OH228132   4.839   4.709  11.022
 2214TIP3    H128133   4.837   4.644  11.092
 2214TIP3    H228134   4.806   4.660  10.945
 2215TIP3   OH228135   4.082   4.670  11.174
 2215TIP3    H128136   4.081   4.609  11.250
 2215TIP3    H228137   4.148   4.735  11.200
 2216TIP3   OH228138   5.209   5.004  10.850
 2216TIP3    H128139   5.166   4.932  10.898
 2216TIP3    H228140   5.210   5.075  10.916
 2217TIP3   OH228141   4.168   5.121  11.030
 2217TIP3    H128142   4.133   5.036  10.996
 2217TIP3    H228143   4.263   5.100  11.034
 2218TIP3   OH228144   3.832   4.478  10.571
 2218TIP3    H128145   3.787   4.566  10.572
 2218TIP3    H228146   3.773   4.423  10.519
 2219TIP3   OH228147   3.902   4.691  10.782
 2219TIP3    H128148   3.929   4.618  10.839
 2219TIP3    H228149   3.976   4.709  10.724
 2220TIP3   OH228150   4.920   5.518  10.873
 2220TIP3    H128151   4.984   5.449  10.845
 2220TIP3    H228152   4.900   5.488  10.962
 2221TIP3   OH228153   4.677   4.950  11.066
 2221TIP3    H128154   4.711   4.885  11.002
 2221TIP3    H228155   4.756   4.964  11.121
 2222TIP3   OH228156   5.540   4.113  11.143
 2222TIP3    H128157   5.553   4.174  11.220
 2222TIP3    H228158   5.591   4.159  11.076
 2223TIP3   OH228159   4.993   4.396  11.099
 2223TIP3    H128160   5.009   4.299  11.098
 2223TIP3    H228161   4.983   4.411  11.002
 2224TIP3   OH228162   4.284   4.186  10.874
 2224TIP3    H128163   4.312   4.264  10.822
 2224TIP3    H228164   4.269   4.141  10.789
 2225TIP3   OH228165   5.078   4.214  10.661
 2225TIP3    H128166   5.145   4.181  10.725
 2225TIP3    H228167   5.134   4.268  10.603
 2226TIP3   OH228168   3.966   4.444  10.896
 2226TIP3    H128169   4.035   4.390  10.940
 2226TIP3    H228170   3.977   4.415  10.804
 2227TIP3   OH228171   4.484   4.601  10.825
 2227TIP3    H128172   4.549   4.542  10.867
 2227TIP3    H228173   4.430   4.535  10.775
 2228TIP3   OH228174   5.582   4.257  11.369
 2228TIP3    H128175   5.518   4.330  11.360
 2228TIP3    H228176   5.585   4.245  11.465
 2229TIP3   OH228177   4.194   4.094  11.227
 2229TIP3    H128178   4.167   4.150  11.151
 2229TIP3    H228179   4.125   4.118  11.294
 2230TIP3   OH228180   4.926   5.043  10.582
 2230TIP3    H128181   4.896   5.014  10.495
 2230TIP3    H228182   4.894   5.136  10.586
 2231TIP3   OH228183   4.447   4.859  11.252
 2231TIP3    H128184   4.375   4.923  11.270
 2231TIP3    H228185   4.517   4.919  11.223
 2232TIP3   OH228186   5.258   4.146  10.858
 2232TIP3    H128187   5.237   4.070  10.912
 2232TIP3    H228188   5.323   4.192  10.913
 2233TIP3   OH228189   4.137   4.294  11.040
 2233TIP3    H128190   4.213   4.351  11.064
 2233TIP3    H228191   4.185   4.245  10.967
 2234TIP3   OH228192   4.290   5.057  11.332
 2234TIP3    H128193   4.286   5.149  11.298
 2234TIP3    H228194   4.202   5.051  11.377
 2235TIP3   OH228195   3.902   5.023  10.410
 2235TIP3    H128196   3.870   5.051  10.323
 2235TIP3    H228197   3.906   5.106  10.462
 2236TIP3   OH228198   5.261   5.187  11.086
 2236TIP3    H128199   5.165   5.197  11.099
 2236TIP3    H228200   5.288   5.279  11.068
 2237TIP3   OH228201   5.293   4.016  11.226
 2237TIP3    H128202   5.219   4.079  11.219
 2237TIP3    H228203   5.363   4.058  11.173
 2238TIP3   OH228204   4.591   3.826  10.973
 2238TIP3    H128205   4.578   3.730  10.966
 2238TIP3    H228206   4.503   3.859  11.001
 2239TIP3   OH228207   5.086   5.365  10.747
 2239TIP3    H128208   5.130   5.294  10.696
 2239TIP3    H228209   5.126   5.445  10.707
 2240TIP3   OH228210   5.207   5.158  10.597
 2240TIP3    H128211   5.178   5.087  10.537
 2240TIP3    H228212   5.211   5.110  10.682
 2241TIP3   OH228213   5.370   5.016  11.447
 2241TIP3    H128214   5.385   4.953  11.373
 2241TIP3    H228215   5.389   5.102  11.406
 2242TIP3   OH228216   4.821   4.710  10.424
 2242TIP3    H128217   4.748   4.763  10.387
 2242TIP3    H228218   4.889   4.715  10.355
 2243TIP3   OH228219   4.825   4.557  10.130
 2243TIP3    H128220   4.898   4.558  10.192
 2243TIP3    H228221   4.854   4.492  10.065
 2244TIP3   OH228222   5.558   4.648  11.252
 2244TIP3    H128223   5.491   4.719  11.258
 2244TIP3    H228224   5.605   4.671  11.171
 2245TIP3   OH228225   5.163   4.729  10.516
 2245TIP3    H128226   5.088   4.752  10.576
 2245TIP3    H228227   5.209   4.660  10.567
 2246TIP3   OH228228   5.155   4.544  11.427
 2246TIP3    H128229   5.157   4.625  11.481
 2246TIP3    H228230   5.092   4.575  11.358
 2247TIP3   OH228231   4.325   4.795  10.708
 2247TIP3    H128232   4.292   4.755  10.623
 2247TIP3    H228233   4.384   4.724  10.740
 2248TIP3   OH228234   4.458   5.134  10.975
 2248TIP3    H128235   4.455   5.079  10.896
 2248TIP3    H228236   4.535   5.097  11.022
 2249TIP3   OH228237   4.359   4.668  11.072
 2249TIP3    H128238   4.415   4.680  10.992
 2249TIP3    H228239   4.395   4.735  11.134
 2250TIP3   OH228240   4.997   5.224  11.143
 2250TIP3    H128241   4.969   5.288  11.210
 2250TIP3    H228242   4.973   5.139  11.186
 2251TIP3   OH228243   4.452   5.111  11.542
 2251TIP3    H128244   4.414   5.187  11.590
 2251TIP3    H228245   4.385   5.092  11.473
 2252TIP3   OH228246   5.048   4.647  10.283
 2252TIP3    H128247   5.105   4.664  10.363
 2252TIP3    H228248   5.093   4.697  10.214
 2253TIP3   OH228249   4.147   4.728  11.460
 2253TIP3    H128250   4.149   4.795  11.531
 2253TIP3    H228251   4.052   4.737  11.436
 2254TIP3   OH228252   4.821   5.320  10.630
 2254TIP3    H128253   4.866   5.351  10.709
 2254TIP3    H228254   4.765   5.395  10.607
 2255TIP3   OH228255   4.276   5.316  11.618
 2255TIP3    H128256   4.272   5.304  11.522
 2255TIP3    H228257   4.183   5.303  11.644
 2256TIP3   OH228258   4.223   4.701  10.467
 2256TIP3    H128259   4.192   4.777  10.414
 2256TIP3    H228260   4.157   4.632  10.450
 2257TIP3   OH228261   3.861   4.940  11.338
 2257TIP3    H128262   3.787   4.935  11.273
 2257TIP3    H228263   3.835   4.853  11.377
 2258TIP3   OH228264   3.808   5.219  11.033
 2258TIP3    H128265   3.902   5.198  11.033
 2258TIP3    H228266   3.798   5.293  11.091
 2259TIP3   OH228267   5.631   5.282  11.604
 2259TIP3    H128268   5.620   5.186  11.602
 2259TIP3    H228269   5.544   5.307  11.644
 2260TIP3   OH228270   4.726   5.237  11.491
 2260TIP3    H128271   4.733   5.321  11.541
 2260TIP3    H228272   4.638   5.203  11.516
 2261TIP3   OH228273   4.770   5.612  10.471
 2261TIP3    H128274   4.760   5.602  10.375
 2261TIP3    H228275   4.769   5.708  10.488
 2262TIP3   OH228276   4.135   5.497  10.651
 2262TIP3    H128277   4.148   5.459  10.741
 2262TIP3    H228278   4.049   5.458  10.629
 2263TIP3   OH228279   5.071   5.529  10.170
 2263TIP3    H128280   5.121   5.458  10.128
 2263TIP3    H228281   5.078   5.505  10.265
 2264TIP3   OH228282   5.043   5.525  10.448
 2264TIP3    H128283   4.948   5.533  10.467
 2264TIP3    H228284   5.071   5.451  10.505
 2265TIP3   OH228285   5.345   4.430  11.652
 2265TIP3    H128286   5.299   4.476  11.580
 2265TIP3    H228287   5.345   4.338  11.621
 2266TIP3   OH228288   4.059   5.073  11.453
 2266TIP3    H128289   4.079   5.032  11.540
 2266TIP3    H228290   3.973   5.030  11.429
 2267TIP3   OH228291   4.325   3.914  11.052
 2267TIP3    H128292   4.236   3.907  11.010
 2267TIP3    H228293   4.316   4.002  11.092
 2268TIP3   OH228294   4.790   3.886  11.385
 2268TIP3    H128295   4.830   3.844  11.463
 2268TIP3    H228296   4.693   3.872  11.399
 2269TIP3   OH228297   5.120   4.267  11.474
 2269TIP3    H128298   5.065   4.248  11.553
 2269TIP3    H228299   5.102   4.360  11.450
 2270TIP3   OH228300   4.752   4.141  10.115
 2270TIP3    H128301   4.726   4.138  10.210
 2270TIP3    H228302   4.729   4.052  10.088
 2271TIP3   OH228303   4.338   4.414  11.171
 2271TIP3    H128304   4.263   4.412  11.235
 2271TIP3    H228305   4.332   4.505  11.135
 2272TIP3   OH228306   4.316   4.473  10.642
 2272TIP3    H128307   4.243   4.408  10.649
 2272TIP3    H228308   4.369   4.408  10.589
 2273TIP3   OH228309   4.886   4.475  10.534
 2273TIP3    H128310   4.843   4.558  10.503
 2273TIP3    H228311   4.955   4.461  10.468
 2274TIP3   OH228312   4.792   4.498  11.680
 2274TIP3    H128313   4.737   4.422  11.712
 2274TIP3    H228314   4.875   4.483  11.728
 2275TIP3   OH228315   4.987   4.424  10.819
 2275TIP3    H128316   4.962   4.481  10.744
 2275TIP3    H228317   4.999   4.340  10.772
 2276TIP3   OH228318   4.100   4.443  11.344
 2276TIP3    H128319   4.103   4.483  11.432
 2276TIP3    H228320   4.055   4.358  11.359
 2277TIP3   OH228321   3.765   4.153  10.735
 2277TIP3    H128322   3.831   4.149  10.807
 2277TIP3    H228323   3.812   4.114  10.660
 2278TIP3   OH228324   3.895   4.228  10.278
 2278TIP3    H128325   3.940   4.288  10.218
 2278TIP3    H228326   3.821   4.285  10.307
 2279TIP3   OH228327   4.909   4.585  11.278
 2279TIP3    H128328   4.945   4.518  11.217
 2279TIP3    H228329   4.863   4.531  11.345
 2280TIP3   OH228330   4.617   4.173  10.773
 2280TIP3    H128331   4.516   4.181  10.778
 2280TIP3    H228332   4.643   4.167  10.862
 2281TIP3   OH228333   4.067   4.338  10.648
 2281TIP3    H128334   3.980   4.350  10.604
 2281TIP3    H228335   4.102   4.256  10.607
 2282TIP3   OH228336   4.438   4.344  10.389
 2282TIP3    H128337   4.527   4.354  10.426
 2282TIP3    H228338   4.411   4.418  10.337
 2283TIP3   OH228339   5.029   4.104  11.085
 2283TIP3    H128340   4.960   4.111  11.154
 2283TIP3    H228341   4.978   4.082  11.005
 2284TIP3   OH228342   4.304   4.463  10.165
 2284TIP3    H128343   4.248   4.422  10.098
 2284TIP3    H228344   4.387   4.478  10.121
 2285TIP3   OH228345   5.351   5.669  11.716
 2285TIP3    H128346   5.377   5.709  11.631
 2285TIP3    H228347   5.422   5.702  11.773
 2286TIP3   OH228348   4.118   4.915  11.674
 2286TIP3    H128349   4.189   4.941  11.734
 2286TIP3    H228350   4.038   4.929  11.731
 2287TIP3   OH228351   4.718   4.458  10.951
 2287TIP3    H128352   4.775   4.403  10.895
 2287TIP3    H228353   4.703   4.402  11.028
 2288TIP3   OH228354   4.183   4.047  10.560
 2288TIP3    H128355   4.188   3.959  10.593
 2288TIP3    H228356   4.281   4.070  10.547
 2289TIP3   OH228357   4.582   4.291  11.191
 2289TIP3    H128358   4.498   4.341  11.200
 2289TIP3    H228359   4.636   4.325  11.265
 2290TIP3   OH228360   4.639   4.914  10.359
 2290TIP3    H128361   4.560   4.866  10.327
 2290TIP3    H228362   4.620   4.923  10.454
 2291TIP3   OH228363   5.356   4.831  11.240
 2291TIP3    H128364   5.414   4.879  11.179
 2291TIP3    H228365   5.271   4.839  11.193
 2292TIP3   OH228366   4.788   4.937  11.484
 2292TIP3    H128367   4.754   4.897  11.564
 2292TIP3    H228368   4.765   5.030  11.493
 2293TIP3   OH228369   5.098   4.382  10.342
 2293TIP3    H128370   5.187   4.371  10.379
 2293TIP3    H228371   5.103   4.465  10.291
 2294TIP3   OH228372   4.152   4.851  10.941
 2294TIP3    H128373   4.220   4.844  10.872
 2294TIP3    H228374   4.155   4.764  10.984
 2295TIP3   OH228375   4.851   5.062  10.262
 2295TIP3    H128376   4.815   5.145  10.299
 2295TIP3    H228377   4.778   5.000  10.282
 2296TIP3   OH228378   3.869   4.678  11.462
 2296TIP3    H128379   3.867   4.648  11.554
 2296TIP3    H228380   3.788   4.637  11.425
 2297TIP3   OH228381   4.551   4.648  11.686
 2297TIP3    H128382   4.520   4.621  11.598
 2297TIP3    H228383   4.644   4.618  11.685
 2298TIP3   OH228384   5.018   5.181  11.478
 2298TIP3    H128385   4.925   5.200  11.455
 2298TIP3    H228386   5.016   5.210  11.571
 2299TIP3   OH228387   5.585   4.986  11.600
 2299TIP3    H128388   5.496   5.008  11.562
 2299TIP3    H228389   5.640   4.982  11.520
 2300TIP3   OH228390   5.419   5.281  10.360
 2300TIP3    H128391   5.377   5.201  10.393
 2300TIP3    H228392   5.442   5.266  10.268
 2301TIP3   OH228393   5.135   4.765  11.067
 2301TIP3    H128394   5.041   4.743  11.059
 2301TIP3    H228395   5.178   4.688  11.027
 2302TIP3   OH228396   4.388   5.197  10.678
 2302TIP3    H128397   4.438   5.278  10.658
 2302TIP3    H228398   4.299   5.219  10.646
 2303TIP3   OH228399   4.530   4.964  10.631
 2303TIP3    H128400   4.501   5.056  10.640
 2303TIP3    H228401   4.456   4.916  10.674
 2304TIP3   OH228402   4.575   5.381  11.269
 2304TIP3    H128403   4.619   5.464  11.242
 2304TIP3    H228404   4.635   5.349  11.339
 2305TIP3   OH228405   4.398   5.463  10.587
 2305TIP3    H128406   4.301   5.476  10.598
 2305TIP3    H228407   4.433   5.546  10.623
 2306TIP3   OH228408   4.930   4.985  11.234
 2306TIP3    H128409   4.893   4.964  11.322
 2306TIP3    H228410   4.992   4.912  11.217
 2307TIP3   OH228411   5.206   5.441  11.483
 2307TIP3    H128412   5.140   5.390  11.433
 2307TIP3    H228413   5.227   5.511  11.417
 2308TIP3   OH228414   4.014   4.166  11.422
 2308TIP3    H128415   3.924   4.201  11.418
 2308TIP3    H228416   4.003   4.081  11.467
 2309TIP3   OH228417   5.238   4.954  10.368
 2309TIP3    H128418   5.214   4.875  10.421
 2309TIP3    H228419   5.334   4.956  10.385
 2310TIP3   OH228420   3.977   5.346  11.264
 2310TIP3    H128421   4.003   5.252  11.264
 2310TIP3    H228422   4.002   5.373  11.353
 2311TIP3   OH228423   4.568   5.194   9.986
 2311TIP3    H128424   4.587   5.118   9.932
 2311TIP3    H228425   4.536   5.156  10.070
 2312TIP3   OH228426   4.456   5.149  10.234
 2312TIP3    H128427   4.474   5.098  10.314
 2312TIP3    H228428   4.456   5.242  10.265
 2313TIP3   OH228429   4.104   4.875  10.284
 2313TIP3    H128430   4.032   4.913  10.339
 2313TIP3    H228431   4.154   4.954  10.259
 2314TIP3   OH228432   4.888   4.143  11.314
 2314TIP3    H128433   4.957   4.149  11.381
 2314TIP3    H228434   4.849   4.055  11.334
 2315TIP3   OH228435   4.965   4.103  10.422
 2315TIP3    H128436   4.985   4.154  10.343
 2315TIP3    H228437   5.022   4.145  10.488
 2316TIP3   OH228438   4.732   5.317  10.307
 2316TIP3    H128439   4.649   5.368  10.314
 2316TIP3    H228440   4.784   5.369  10.246
 2317TIP3   OH228441   4.688   4.276  10.504
 2317TIP3    H128442   4.765   4.333  10.512
 2317TIP3    H228443   4.656   4.263  10.596
 2318TIP3   OH228444   4.741   4.379  11.424
 2318TIP3    H128445   4.748   4.434  11.505
 2318TIP3    H228446   4.805   4.308  11.436
 2319TIP3   OH228447   4.773   3.982  10.599
 2319TIP3    H128448   4.736   4.048  10.662
 2319TIP3    H228449   4.839   4.038  10.552
 2320TIP3   OH228450   4.470   5.420  10.309
 2320TIP3    H128451   4.480   5.504  10.256
 2320TIP3    H228452   4.444   5.453  10.397
 2321TIP3   OH228453   5.359   4.166  11.510
 2321TIP3    H128454   5.266   4.196  11.498
 2321TIP3    H228455   5.389   4.165  11.418
 2322TIP3   OH228456   5.220   4.544  10.914
 2322TIP3    H128457   5.138   4.500  10.884
 2322TIP3    H228458   5.266   4.474  10.966
 2323TIP3   OH228459   4.164   5.133  10.175
 2323TIP3    H128460   4.224   5.204  10.201
 2323TIP3    H228461   4.212   5.095  10.101
 2324TIP3   OH228462   5.326   5.468  11.080
 2324TIP3    H128463   5.315   5.537  11.011
 2324TIP3    H228464   5.422   5.476  11.098
 2325TIP3   OH228465   4.075   3.881  10.959
 2325TIP3    H128466   4.055   3.885  10.862
 2325TIP3    H228467   4.032   3.797  10.984
 2326TIP3   OH228468   3.973   5.276  10.572
 2326TIP3    H128469   3.885   5.318  10.570
 2326TIP3    H228470   4.021   5.326  10.505
 2327TIP3   OH228471   3.893   5.538  11.703
 2327TIP3    H128472   3.952   5.516  11.777
 2327TIP3    H228473   3.851   5.453  11.684
 2328TIP3   OH228474   4.359   5.430  11.864
 2328TIP3    H128475   4.435   5.381  11.897
 2328TIP3    H228476   4.357   5.404  11.770
 2329TIP3   OH228477   5.012   5.268  11.738
 2329TIP3    H128478   4.980   5.180  11.764
 2329TIP3    H228479   5.088   5.280  11.798
 2330TIP3   OH228480   3.886   4.917  11.803
 2330TIP3    H128481   3.901   4.826  11.771
 2330TIP3    H228482   3.811   4.944  11.747
 2331TIP3   OH228483   4.555   4.915  11.741
 2331TIP3    H128484   4.521   4.944  11.654
 2331TIP3    H228485   4.565   4.818  11.731
 2332TIP3   OH228486   5.125   4.902  11.480
 2332TIP3    H128487   5.203   4.962  11.471
 2332TIP3    H228488   5.054   4.967  11.484
 2333TIP3   OH228489   3.976   4.639  11.741
 2333TIP3    H128490   4.015   4.552  11.730
 2333TIP3    H228491   3.948   4.639  11.834
 2334TIP3   OH228492   4.443   4.751  10.246
 2334TIP3    H128493   4.390   4.700  10.310
 2334TIP3    H228494   4.464   4.683  10.180
 2335TIP3   OH228495   4.366   4.535  11.477
 2335TIP3    H128496   4.305   4.605  11.503
 2335TIP3    H228497   4.403   4.571  11.394
 2336TIP3   OH228498   4.871   4.789  11.808
 2336TIP3    H128499   4.967   4.791  11.800
 2336TIP3    H228500   4.854   4.713  11.866
 2337TIP3   OH228501   4.404   4.273  11.583
 2337TIP3    H128502   4.417   4.200  11.519
 2337TIP3    H228503   4.401   4.353  11.527
 2338TIP3   OH228504   4.445   4.109  11.336
 2338TIP3    H128505   4.497   4.156  11.267
 2338TIP3    H228506   4.356   4.101  11.295
 2339TIP3   OH228507   4.600   4.656  11.361
 2339TIP3    H128508   4.675   4.640  11.303
 2339TIP3    H228509   4.565   4.741  11.329
 2340TIP3   OH228510   5.040   4.434  11.859
 2340TIP3    H128511   5.062   4.341  11.849
 2340TIP3    H228512   5.127   4.478  11.861
 2341TIP3   OH228513   5.173   4.713  11.673
 2341TIP3    H128514   5.148   4.786  11.612
 2341TIP3    H228515   5.269   4.709  11.654
 2342TIP3   OH228516   4.249   4.398  11.773
 2342TIP3    H128517   4.173   4.339  11.755
 2342TIP3    H228518   4.317   4.359  11.715
 2343TIP3   OH228519   4.524   3.853  11.378
 2343TIP3    H128520   4.509   3.950  11.367
 2343TIP3    H228521   4.449   3.818  11.327
 2344TIP3   OH228522   4.650   4.289  11.737
 2344TIP3    H128523   4.622   4.263  11.827
 2344TIP3    H228524   4.572   4.265  11.684
 2345TIP3   OH228525   4.922   4.200  11.645
 2345TIP3    H128526   4.826   4.203  11.658
 2345TIP3    H228527   4.950   4.136  11.713
 2346TIP3   OH228528   5.083   4.063  11.840
 2346TIP3    H128529   5.074   3.966  11.841
 2346TIP3    H228530   5.053   4.091  11.928
 2347TIP3   OH228531   4.061   4.188  11.749
 2347TIP3    H128532   4.087   4.115  11.689
 2347TIP3    H228533   4.054   4.143  11.835
 2348TIP3   OH228534   4.541   3.784  11.643
 2348TIP3    H128535   4.616   3.722  11.643
 2348TIP3    H228536   4.536   3.809  11.550
 2349TIP3   OH228537   4.603   3.976  11.802
 2349TIP3    H128538   4.560   3.897  11.762
 2349TIP3    H228539   4.528   4.021  11.847
 2350TIP3   OH228540   4.533   5.640  10.169
 2350TIP3    H128541   4.628   5.657  10.182
 2350TIP3    H228542   4.506   5.709  10.107
 2351TIP3   OH228543   3.893   5.105  10.118
 2351TIP3    H128544   3.987   5.113  10.144
 2351TIP3    H228545   3.891   5.038  10.050
 2352TIP3   OH228546   3.760   5.644  10.619
 2352TIP3    H128547   3.691   5.594  10.572
 2352TIP3    H228548   3.793   5.577  10.683
 2353TIP3   OH228549   3.842   5.456  10.805
 2353TIP3    H128550   3.811   5.365  10.823
 2353TIP3    H228551   3.868   5.484  10.894
 2354TIP3   OH228552   5.598   5.534  11.100
 2354TIP3    H128553   5.600   5.551  11.196
 2354TIP3    H228554   5.668   5.592  11.069
 2355TIP3   OH228555   5.556   5.493  11.394
 2355TIP3    H128556   5.508   5.416  11.357
 2355TIP3    H228557   5.607   5.449  11.464
 2356TIP3   OH228558   5.400   5.067  11.860
 2356TIP3    H128559   5.311   5.062  11.898
 2356TIP3    H228560   5.438   5.146  11.903
 2357TIP3   OH228561   5.530   4.899  10.406
 2357TIP3    H128562   5.617   4.936  10.425
 2357TIP3    H228563   5.531   4.824  10.470
 2358TIP3   OH228564   5.571   4.701  10.590
 2358TIP3    H128565   5.493   4.657  10.630
 2358TIP3    H228566   5.626   4.722  10.668
 2359TIP3   OH228567   5.544   4.976  11.090
 2359TIP3    H128568   5.627   4.940  11.055
 2359TIP3    H228569   5.558   5.072  11.074
 2360TIP3   OH228570   5.398   5.266  11.318
 2360TIP3    H128571   5.329   5.300  11.378
 2360TIP3    H228572   5.343   5.225  11.248
 2361TIP3   OH228573   5.350   4.554  10.649
 2361TIP3    H128574   5.332   4.459  10.646
 2361TIP3    H228575   5.315   4.578  10.736
 2362TIP3   OH228576   3.853   4.738  11.062
 2362TIP3    H128577   3.863   4.758  10.965
 2362TIP3    H228578   3.944   4.747  11.093
 2363TIP3   OH228579   5.435   4.750  11.616
 2363TIP3    H128580   5.496   4.675  11.632
 2363TIP3    H228581   5.494   4.828  11.618
 2364TIP3   OH228582   5.586   4.540  11.683
 2364TIP3    H128583   5.497   4.500  11.666
 2364TIP3    H228584   5.643   4.462  11.674
 2365TIP3   OH228585   5.316   4.311  10.494
 2365TIP3    H128586   5.345   4.218  10.506
 2365TIP3    H228587   5.394   4.353  10.456
 2366TIP3   OH228588   5.381   4.366  11.038
 2366TIP3    H128589   5.476   4.391  11.038
 2366TIP3    H228590   5.360   4.380  11.132
 2367TIP3   OH228591   5.387   4.439  11.318
 2367TIP3    H128592   5.299   4.468  11.351
 2367TIP3    H228593   5.430   4.525  11.295
 2368TIP3   OH228594   3.811   4.291  11.668
 2368TIP3    H128595   3.905   4.273  11.689
 2368TIP3    H228596   3.766   4.210  11.700
 2369TIP3   OH228597   5.613   3.843  11.853
 2369TIP3    H128598   5.648   3.777  11.790
 2369TIP3    H228599   5.626   3.925  11.802
 2370TIP3   OH228600   5.383   4.040  10.498
 2370TIP3    H128601   5.401   3.995  10.583
 2370TIP3    H228602   5.321   3.977  10.454
 2371TIP3   OH228603   3.931   4.120  10.956
 2371TIP3    H128604   3.980   4.039  10.981
 2371TIP3    H228605   3.984   4.191  10.995
 2372TIP3   OH228606   3.762   4.417  11.060
 2372TIP3    H128607   3.817   4.399  10.982
 2372TIP3    H228608   3.802   4.503  11.086
 2373TIP3   OH228609   5.566   4.054  11.688
 2373TIP3    H128610   5.472   4.080  11.682
 2373TIP3    H228611   5.572   3.999  11.607
 2374TIP3   OH228612   3.796   4.046  10.465
 2374TIP3    H128613   3.702   4.066  10.453
 2374TIP3    H228614   3.840   4.094  10.394
 2375TIP3   OH228615   5.271   5.542  10.661
 2375TIP3    H128616   5.338   5.511  10.598
 2375TIP3    H228617   5.323   5.593  10.725
 2376TIP3   OH228618   3.792   3.914  11.297
 2376TIP3    H128619   3.725   3.894  11.364
 2376TIP3    H228620   3.746   3.981  11.242
 2377TIP3   OH228621   4.014   5.234  11.713
 2377TIP3    H128622   3.930   5.253  11.668
 2377TIP3    H228623   3.987   5.226  11.805
 2378TIP3   OH228624   4.306   5.333  11.341
 2378TIP3    H128625   4.270   5.418  11.312
 2378TIP3    H228626   4.398   5.343  11.309
 2379TIP3   OH228627   4.737   5.475  11.632
 2379TIP3    H128628   4.754   5.440  11.723
 2379TIP3    H228629   4.827   5.505  11.605
 2380TIP3   OH228630   4.967   5.602  11.561
 2380TIP3    H128631   5.040   5.542  11.537
 2380TIP3    H228632   5.005   5.644  11.641
 2381TIP3   OH228633   5.467   3.863  11.471
 2381TIP3    H128634   5.384   3.893  11.430
 2381TIP3    H228635   5.485   3.783  11.418
 2382TIP3   OH228636   4.048   5.657  11.341
 2382TIP3    H128637   3.974   5.705  11.301
 2382TIP3    H228638   4.016   5.636  11.430
 2383TIP3   OH228639   4.296   5.614  11.249
 2383TIP3    H128640   4.206   5.627  11.288
 2383TIP3    H228641   4.290   5.673  11.171
 2384TIP3   OH228642   4.765   5.606  11.164
 2384TIP3    H128643   4.719   5.661  11.099
 2384TIP3    H228644   4.779   5.670  11.238
 2385TIP3   OH228645   4.996   5.490  11.264
 2385TIP3    H128646   4.908   5.514  11.231
 2385TIP3    H228647   5.041   5.575  11.255
 2386TIP3   OH228648   5.255   5.646  11.290
 2386TIP3    H128649   5.244   5.742  11.267
 2386TIP3    H228650   5.274   5.609  11.202
 2387TIP3   OH228651   3.992   5.523  11.036
 2387TIP3    H128652   3.986   5.474  11.122
 2387TIP3    H228653   4.073   5.485  10.995
 2388TIP3   OH228654   4.200   5.392  10.900
 2388TIP3    H128655   4.183   5.298  10.921
 2388TIP3    H228656   4.286   5.407  10.946
 2389TIP3   OH228657   4.460   5.441  10.987
 2389TIP3    H128658   4.477   5.349  10.960
 2389TIP3    H228659   4.465   5.435  11.083
 2390TIP3   OH228660   4.810   4.005  10.904
 2390TIP3    H128661   4.739   3.943  10.926
 2390TIP3    H228662   4.862   3.955  10.840
 2391TIP3   OH228663   5.320   3.812  10.910
 2391TIP3    H128664   5.382   3.871  10.860
 2391TIP3    H228665   5.232   3.848  10.885
 2392TIP3   OH228666   5.490   3.935  10.740
 2392TIP3    H128667   5.556   3.878  10.694
 2392TIP3    H228668   5.535   4.020  10.750
 2393TIP3   OH228669   4.040   3.866  10.690
 2393TIP3    H128670   3.963   3.848  10.633
 2393TIP3    H228671   4.092   3.785  10.681
 2394TIP3   OH228672   4.494   3.857  10.663
 2394TIP3    H128673   4.582   3.900  10.659
 2394TIP3    H228674   4.486   3.843  10.757
 2395TIP3   OH228675   5.060   3.864  10.828
 2395TIP3    H128676   5.058   3.874  10.733
 2395TIP3    H228677   5.023   3.773  10.841
 2396TIP3   OH228678   5.190   3.867  10.398
 2396TIP3    H128679   5.116   3.926  10.377
 2396TIP3    H228680   5.144   3.782  10.413
 2397TIP3   OH228681   3.912   5.442  10.358
 2397TIP3    H128682   3.847   5.440  10.285
 2397TIP3    H228683   3.915   5.536  10.378
 2398TIP3   OH228684   4.610   4.065  10.349
 2398TIP3    H128685   4.629   4.006  10.423
 2398TIP3    H228686   4.607   4.151  10.399
 2399TIP3   OH228687   4.797   5.570  10.190
 2399TIP3    H128688   4.891   5.594  10.175
 2399TIP3    H228689   4.776   5.520  10.111
 2400TIP3   OH228690   5.471   5.523  10.463
 2400TIP3    H128691   5.450   5.445  10.405
 2400TIP3    H228692   5.465   5.595  10.399
 2401TIP3   OH228693   4.033   3.923  11.631
 2401TIP3    H128694   3.997   3.843  11.675
 2401TIP3    H228695   4.125   3.920  11.667
 2402TIP3   OH228696   4.232   3.859  11.790
 2402TIP3    H128697   4.323   3.828  11.772
 2402TIP3    H228698   4.197   3.781  11.836
 2403TIP3   OH228699   5.073   3.791  11.809
 2403TIP3    H128700   5.083   3.744  11.894
 2403TIP3    H228701   5.164   3.789  11.774
 2404TIP3   OH228702   5.394   5.395  11.674
 2404TIP3    H128703   5.314   5.380  11.621
 2404TIP3    H228704   5.383   5.490  11.696
 2405TIP3   OH228705   6.837   4.783  10.675
 2405TIP3    H128706   6.840   4.881  10.667
 2405TIP3    H228707   6.767   4.760  10.613
 2406TIP3   OH228708   6.724   4.710  11.021
 2406TIP3    H128709   6.722   4.644  11.092
 2406TIP3    H228710   6.692   4.660  10.945
 2407TIP3   OH228711   5.961   4.673  11.175
 2407TIP3    H128712   5.968   4.609  11.249
 2407TIP3    H228713   6.034   4.733  11.198
 2408TIP3   OH228714   7.094   5.002  10.850
 2408TIP3    H128715   7.052   4.931  10.899
 2408TIP3    H228716   7.098   5.073  10.917
 2409TIP3   OH228717   6.053   5.120  11.030
 2409TIP3    H128718   6.021   5.035  10.995
 2409TIP3    H228719   6.149   5.101  11.034
 2410TIP3   OH228720   5.720   4.477  10.571
 2410TIP3    H128721   5.673   4.565  10.572
 2410TIP3    H228722   5.656   4.426  10.521
 2411TIP3   OH228723   5.785   4.696  10.784
 2411TIP3    H128724   5.813   4.621  10.838
 2411TIP3    H228725   5.861   4.713  10.725
 2412TIP3   OH228726   6.808   5.519  10.873
 2412TIP3    H128727   6.871   5.448  10.845
 2412TIP3    H228728   6.786   5.488  10.961
 2413TIP3   OH228729   6.562   4.950  11.066
 2413TIP3    H128730   6.596   4.885  11.002
 2413TIP3    H228731   6.641   4.965  11.121
 2414TIP3   OH228732   6.877   4.395  11.098
 2414TIP3    H128733   6.895   4.300  11.098
 2414TIP3    H228734   6.868   4.410  11.002
 2415TIP3   OH228735   6.185   4.204  10.823
 2415TIP3    H128736   6.205   4.287  10.776
 2415TIP3    H228737   6.155   4.145  10.751
 2416TIP3   OH228738   6.964   4.218  10.664
 2416TIP3    H128739   7.032   4.182  10.726
 2416TIP3    H228740   7.018   4.268  10.601
 2417TIP3   OH228741   5.851   4.442  10.897
 2417TIP3    H128742   5.924   4.395  10.945
 2417TIP3    H228743   5.865   4.429  10.804
 2418TIP3   OH228744   6.370   4.601  10.824
 2418TIP3    H128745   6.435   4.544  10.868
 2418TIP3    H228746   6.317   4.533  10.778
 2419TIP3   OH228747   6.079   4.094  11.226
 2419TIP3    H128748   6.053   4.151  11.152
 2419TIP3    H228749   6.012   4.117  11.295
 2420TIP3   OH228750   6.809   5.042  10.581
 2420TIP3    H128751   6.784   5.016  10.492
 2420TIP3    H228752   6.780   5.136  10.586
 2421TIP3   OH228753   6.333   4.859  11.252
 2421TIP3    H128754   6.261   4.923  11.270
 2421TIP3    H228755   6.403   4.919  11.223
 2422TIP3   OH228756   7.129   4.145  10.864
 2422TIP3    H128757   7.120   4.066  10.916
 2422TIP3    H228758   7.203   4.192  10.909
 2423TIP3   OH228759   6.033   4.284  11.021
 2423TIP3    H128760   6.098   4.347  11.061
 2423TIP3    H228761   6.093   4.236  10.958
 2424TIP3   OH228762   6.176   5.057  11.332
 2424TIP3    H128763   6.172   5.149  11.298
 2424TIP3    H228764   6.088   5.051  11.377
 2425TIP3   OH228765   5.781   5.024  10.415
 2425TIP3    H128766   5.755   5.049  10.327
 2425TIP3    H228767   5.792   5.109  10.463
 2426TIP3   OH228768   7.139   5.184  11.091
 2426TIP3    H128769   7.044   5.196  11.101
 2426TIP3    H228770   7.172   5.274  11.069
 2427TIP3   OH228771   7.170   4.022  11.216
 2427TIP3    H128772   7.097   4.086  11.219
 2427TIP3    H228773   7.241   4.068  11.170
 2428TIP3   OH228774   6.477   3.827  10.973
 2428TIP3    H128775   6.463   3.730  10.966
 2428TIP3    H228776   6.389   3.858  11.002
 2429TIP3   OH228777   6.970   5.363  10.748
 2429TIP3    H128778   7.016   5.293  10.697
 2429TIP3    H228779   7.011   5.443  10.708
 2430TIP3   OH228780   7.091   5.157  10.597
 2430TIP3    H128781   7.063   5.086  10.537
 2430TIP3    H228782   7.096   5.108  10.681
 2431TIP3   OH228783   7.236   5.025  11.453
 2431TIP3    H128784   7.267   4.959  11.388
 2431TIP3    H228785   7.275   5.104  11.412
 2432TIP3   OH228786   6.704   4.707  10.421
 2432TIP3    H128787   6.634   4.766  10.387
 2432TIP3    H228788   6.775   4.723  10.358
 2433TIP3   OH228789   7.044   4.728  10.514
 2433TIP3    H128790   6.975   4.754  10.578
 2433TIP3    H228791   7.095   4.662  10.567
 2434TIP3   OH228792   7.037   4.543  11.426
 2434TIP3    H128793   7.042   4.623  11.480
 2434TIP3    H228794   6.977   4.575  11.356
 2435TIP3   OH228795   6.210   4.794  10.706
 2435TIP3    H128796   6.179   4.756  10.623
 2435TIP3    H228797   6.272   4.725  10.742
 2436TIP3   OH228798   6.343   5.134  10.975
 2436TIP3    H128799   6.340   5.079  10.896
 2436TIP3    H228800   6.421   5.097  11.022
 2437TIP3   OH228801   6.244   4.669  11.072
 2437TIP3    H128802   6.302   4.680  10.995
 2437TIP3    H228803   6.281   4.735  11.135
 2438TIP3   OH228804   6.880   5.225  11.142
 2438TIP3    H128805   6.856   5.288  11.210
 2438TIP3    H228806   6.859   5.139  11.186
 2439TIP3   OH228807   6.337   5.110  11.544
 2439TIP3    H128808   6.300   5.189  11.589
 2439TIP3    H228809   6.270   5.092  11.473
 2440TIP3   OH228810   6.031   4.727  11.460
 2440TIP3    H128811   6.035   4.794  11.530
 2440TIP3    H228812   5.938   4.738  11.435
 2441TIP3   OH228813   6.707   5.319  10.631
 2441TIP3    H128814   6.752   5.350  10.710
 2441TIP3    H228815   6.651   5.394  10.608
 2442TIP3   OH228816   6.162   5.316  11.618
 2442TIP3    H128817   6.158   5.304  11.521
 2442TIP3    H228818   6.068   5.304  11.642
 2443TIP3   OH228819   5.717   4.939  11.355
 2443TIP3    H128820   5.670   4.931  11.269
 2443TIP3    H228821   5.722   4.844  11.379
 2444TIP3   OH228822   5.693   5.212  11.037
 2444TIP3    H128823   5.789   5.201  11.034
 2444TIP3    H228824   5.684   5.294  11.088
 2445TIP3   OH228825   6.612   5.237  11.491
 2445TIP3    H128826   6.619   5.321  11.541
 2445TIP3    H228827   6.524   5.202  11.516
 2446TIP3   OH228828   6.653   5.611  10.471
 2446TIP3    H128829   6.646   5.604  10.374
 2446TIP3    H228830   6.657   5.707  10.486
 2447TIP3   OH228831   6.019   5.499  10.653
 2447TIP3    H128832   6.034   5.457  10.740
 2447TIP3    H228833   5.934   5.459  10.629
 2448TIP3   OH228834   6.959   5.527  10.171
 2448TIP3    H128835   7.004   5.455  10.126
 2448TIP3    H228836   6.965   5.503  10.265
 2449TIP3   OH228837   6.930   5.526  10.447
 2449TIP3    H128838   6.834   5.534  10.465
 2449TIP3    H228839   6.955   5.452  10.504
 2450TIP3   OH228840   7.204   4.439  11.657
 2450TIP3    H128841   7.184   4.479  11.572
 2450TIP3    H228842   7.236   4.349  11.627
 2451TIP3   OH228843   5.944   5.071  11.452
 2451TIP3    H128844   5.966   5.033  11.539
 2451TIP3    H228845   5.858   5.030  11.430
 2452TIP3   OH228846   6.211   3.917  11.047
 2452TIP3    H128847   6.120   3.905  11.012
 2452TIP3    H228848   6.201   4.001  11.096
 2453TIP3   OH228849   6.675   3.886  11.385
 2453TIP3    H128850   6.715   3.844  11.463
 2453TIP3    H228851   6.578   3.871  11.399
 2454TIP3   OH228852   7.004   4.267  11.472
 2454TIP3    H128853   6.951   4.249  11.553
 2454TIP3    H228854   6.988   4.360  11.451
 2455TIP3   OH228855   6.218   4.412  11.166
 2455TIP3    H128856   6.150   4.412  11.236
 2455TIP3    H228857   6.219   4.506  11.137
 2456TIP3   OH228858   6.216   4.434  10.653
 2456TIP3    H128859   6.126   4.399  10.646
 2456TIP3    H228860   6.261   4.394  10.575
 2457TIP3   OH228861   6.770   4.475  10.533
 2457TIP3    H128862   6.729   4.559  10.503
 2457TIP3    H228863   6.843   4.458  10.472
 2458TIP3   OH228864   6.677   4.497  11.681
 2458TIP3    H128865   6.624   4.421  11.712
 2458TIP3    H228866   6.761   4.484  11.728
 2459TIP3   OH228867   6.873   4.426  10.819
 2459TIP3    H128868   6.848   4.481  10.743
 2459TIP3    H228869   6.884   4.339  10.773
 2460TIP3   OH228870   5.986   4.442  11.343
 2460TIP3    H128871   5.990   4.483  11.431
 2460TIP3    H228872   5.941   4.358  11.361
 2461TIP3   OH228873   5.657   4.158  10.732
 2461TIP3    H128874   5.706   4.137  10.813
 2461TIP3    H228875   5.693   4.107  10.659
 2462TIP3   OH228876   5.784   4.238  10.290
 2462TIP3    H128877   5.823   4.282  10.212
 2462TIP3    H228878   5.703   4.285  10.305
 2463TIP3   OH228879   6.794   4.585  11.278
 2463TIP3    H128880   6.831   4.517  11.217
 2463TIP3    H228881   6.749   4.531  11.345
 2464TIP3   OH228882   6.474   4.181  10.760
 2464TIP3    H128883   6.382   4.182  10.790
 2464TIP3    H228884   6.523   4.167  10.842
 2465TIP3   OH228885   5.961   4.345  10.629
 2465TIP3    H128886   5.867   4.354  10.599
 2465TIP3    H228887   5.990   4.255  10.600
 2466TIP3   OH228888   6.316   4.347  10.413
 2466TIP3    H128889   6.414   4.348  10.427
 2466TIP3    H228890   6.302   4.406  10.339
 2467TIP3   OH228891   6.913   4.102  11.084
 2467TIP3    H128892   6.845   4.111  11.153
 2467TIP3    H228893   6.862   4.083  11.004
 2468TIP3   OH228894   7.233   5.670  11.717
 2468TIP3    H128895   7.263   5.707  11.632
 2468TIP3    H228896   7.306   5.700  11.773
 2469TIP3   OH228897   6.003   4.913  11.675
 2469TIP3    H128898   6.076   4.944  11.731
 2469TIP3    H228899   5.923   4.930  11.730
 2470TIP3   OH228900   6.602   4.457  10.949
 2470TIP3    H128901   6.663   4.403  10.895
 2470TIP3    H228902   6.589   4.403  11.028
 2471TIP3   OH228903   6.102   4.075  10.592
 2471TIP3    H128904   6.075   3.980  10.589
 2471TIP3    H228905   6.182   4.067  10.537
 2472TIP3   OH228906   6.467   4.291  11.190
 2472TIP3    H128907   6.384   4.342  11.200
 2472TIP3    H228908   6.521   4.325  11.264
 2473TIP3   OH228909   6.525   4.911  10.360
 2473TIP3    H128910   6.445   4.867  10.327
 2473TIP3    H228911   6.506   4.925  10.455
 2474TIP3   OH228912   7.231   4.833  11.240
 2474TIP3    H128913   7.295   4.864  11.173
 2474TIP3    H228914   7.149   4.838  11.188
 2475TIP3   OH228915   6.674   4.937  11.484
 2475TIP3    H128916   6.640   4.897  11.564
 2475TIP3    H228917   6.652   5.030  11.494
 2476TIP3   OH228918   6.978   4.389  10.346
 2476TIP3    H128919   7.068   4.369  10.379
 2476TIP3    H228920   6.995   4.462  10.288
 2477TIP3   OH228921   6.035   4.850  10.939
 2477TIP3    H128922   6.107   4.845  10.873
 2477TIP3    H228923   6.043   4.765  10.986
 2478TIP3   OH228924   6.738   5.061  10.268
 2478TIP3    H128925   6.702   5.145  10.300
 2478TIP3    H228926   6.661   5.000  10.279
 2479TIP3   OH228927   5.735   4.693  11.466
 2479TIP3    H128928   5.754   4.649  11.551
 2479TIP3    H228929   5.673   4.630  11.423
 2480TIP3   OH228930   6.435   4.649  11.687
 2480TIP3    H128931   6.406   4.621  11.598
 2480TIP3    H228932   6.529   4.618  11.686
 2481TIP3   OH228933   6.901   5.180  11.477
 2481TIP3    H128934   6.809   5.200  11.455
 2481TIP3    H228935   6.902   5.210  11.570
 2482TIP3   OH228936   7.295   5.283  10.360
 2482TIP3    H128937   7.262   5.199  10.393
 2482TIP3    H228938   7.328   5.263  10.272
 2483TIP3   OH228939   7.016   4.763  11.068
 2483TIP3    H128940   6.922   4.741  11.057
 2483TIP3    H228941   7.063   4.688  11.027
 2484TIP3   OH228942   6.273   5.195  10.676
 2484TIP3    H128943   6.323   5.277  10.658
 2484TIP3    H228944   6.185   5.222  10.646
 2485TIP3   OH228945   6.416   4.963  10.631
 2485TIP3    H128946   6.387   5.056  10.640
 2485TIP3    H228947   6.342   4.917  10.675
 2486TIP3   OH228948   6.461   5.381  11.269
 2486TIP3    H128949   6.505   5.464  11.242
 2486TIP3    H228950   6.521   5.349  11.339
 2487TIP3   OH228951   6.283   5.461  10.589
 2487TIP3    H128952   6.187   5.477  10.597
 2487TIP3    H228953   6.318   5.547  10.619
 2488TIP3   OH228954   6.816   4.985  11.234
 2488TIP3    H128955   6.779   4.964  11.322
 2488TIP3    H228956   6.878   4.912  11.217
 2489TIP3   OH228957   7.089   5.444  11.483
 2489TIP3    H128958   7.025   5.390  11.433
 2489TIP3    H228959   7.114   5.511  11.416
 2490TIP3   OH228960   5.900   4.166  11.421
 2490TIP3    H128961   5.809   4.201  11.418
 2490TIP3    H228962   5.889   4.081  11.467
 2491TIP3   OH228963   7.123   4.956  10.373
 2491TIP3    H128964   7.101   4.872  10.418
 2491TIP3    H228965   7.219   4.957  10.384
 2492TIP3   OH228966   5.862   5.346  11.264
 2492TIP3    H128967   5.889   5.253  11.265
 2492TIP3    H228968   5.888   5.374  11.353
 2493TIP3   OH228969   6.339   5.154  10.235
 2493TIP3    H128970   6.359   5.097  10.310
 2493TIP3    H228971   6.342   5.242  10.271
 2494TIP3   OH228972   6.771   4.143  11.315
 2494TIP3    H128973   6.844   4.149  11.379
 2494TIP3    H228974   6.734   4.054  11.334
 2495TIP3   OH228975   6.847   4.107  10.423
 2495TIP3    H128976   6.872   4.152  10.341
 2495TIP3    H228977   6.906   4.143  10.489
 2496TIP3   OH228978   6.616   5.316  10.304
 2496TIP3    H128979   6.538   5.371  10.316
 2496TIP3    H228980   6.671   5.370  10.246
 2497TIP3   OH228981   6.566   4.284  10.505
 2497TIP3    H128982   6.651   4.330  10.512
 2497TIP3    H228983   6.545   4.261  10.597
 2498TIP3   OH228984   6.625   4.377  11.425
 2498TIP3    H128985   6.635   4.435  11.504
 2498TIP3    H228986   6.692   4.308  11.436
 2499TIP3   OH228987   6.657   3.983  10.602
 2499TIP3    H128988   6.623   4.050  10.662
 2499TIP3    H228989   6.723   4.036  10.550
 2500TIP3   OH228990   6.225   4.093  10.271
 2500TIP3    H128991   6.217   4.183  10.304
 2500TIP3    H228992   6.314   4.066  10.294
 2501TIP3   OH228993   7.242   4.161  11.504
 2501TIP3    H128994   7.150   4.196  11.498
 2501TIP3    H228995   7.275   4.169  11.415
 2502TIP3   OH228996   7.106   4.545  10.918
 2502TIP3    H128997   7.024   4.502  10.884
 2502TIP3    H228998   7.147   4.471  10.965
 2503TIP3   OH228999   7.215   5.468  11.080
 2503TIP3    H129000   7.198   5.538  11.014
 2503TIP3    H229001   7.309   5.478  11.099
 2504TIP3   OH229002   5.958   3.885  10.956
 2504TIP3    H129003   5.941   3.881  10.860
 2504TIP3    H229004   5.920   3.799  10.985
 2505TIP3   OH229005   5.855   5.273  10.570
 2505TIP3    H129006   5.772   5.322  10.571
 2505TIP3    H229007   5.907   5.324  10.507
 2506TIP3   OH229008   5.780   5.538  11.703
 2506TIP3    H129009   5.838   5.516  11.778
 2506TIP3    H229010   5.736   5.453  11.684
 2507TIP3   OH229011   6.244   5.429  11.865
 2507TIP3    H129012   6.322   5.382  11.897
 2507TIP3    H229013   6.243   5.403  11.770
 2508TIP3   OH229014   6.653   5.378  10.005
 2508TIP3    H129015   6.591   5.311  10.036
 2508TIP3    H229016   6.728   5.324   9.979
 2509TIP3   OH229017   6.899   5.268  11.738
 2509TIP3    H129018   6.867   5.180  11.765
 2509TIP3    H229019   6.974   5.280  11.799
 2510TIP3   OH229020   5.773   4.917  11.802
 2510TIP3    H129021   5.786   4.825  11.770
 2510TIP3    H229022   5.696   4.943  11.747
 2511TIP3   OH229023   6.438   4.915  11.742
 2511TIP3    H129024   6.408   4.945  11.654
 2511TIP3    H229025   6.452   4.818  11.730
 2512TIP3   OH229026   7.010   4.900  11.477
 2512TIP3    H129027   7.087   4.961  11.470
 2512TIP3    H229028   6.940   4.966  11.484
 2513TIP3   OH229029   5.863   4.640  11.742
 2513TIP3    H129030   5.900   4.552  11.729
 2513TIP3    H229031   5.833   4.637  11.834
 2514TIP3   OH229032   6.251   4.535  11.477
 2514TIP3    H129033   6.191   4.606  11.504
 2514TIP3    H229034   6.289   4.571  11.395
 2515TIP3   OH229035   6.754   4.789  11.809
 2515TIP3    H129036   6.851   4.791  11.799
 2515TIP3    H229037   6.740   4.713  11.866
 2516TIP3   OH229038   6.290   4.272  11.584
 2516TIP3    H129039   6.302   4.200  11.519
 2516TIP3    H229040   6.287   4.352  11.528
 2517TIP3   OH229041   6.330   4.110  11.337
 2517TIP3    H129042   6.382   4.156  11.267
 2517TIP3    H229043   6.242   4.101  11.295
 2518TIP3   OH229044   6.485   4.656  11.361
 2518TIP3    H129045   6.561   4.640  11.303
 2518TIP3    H229046   6.450   4.741  11.329
 2519TIP3   OH229047   6.925   4.436  11.859
 2519TIP3    H129048   6.949   4.342  11.848
 2519TIP3    H229049   7.013   4.478  11.859
 2520TIP3   OH229050   7.055   4.713  11.671
 2520TIP3    H129051   7.033   4.787  11.611
 2520TIP3    H229052   7.152   4.709  11.655
 2521TIP3   OH229053   6.136   4.397  11.776
 2521TIP3    H129054   6.060   4.339  11.757
 2521TIP3    H229055   6.202   4.361  11.714
 2522TIP3   OH229056   6.410   3.853  11.378
 2522TIP3    H129057   6.395   3.950  11.368
 2522TIP3    H229058   6.334   3.818  11.327
 2523TIP3   OH229059   6.537   4.287  11.737
 2523TIP3    H129060   6.507   4.264  11.827
 2523TIP3    H229061   6.458   4.266  11.684
 2524TIP3   OH229062   6.807   4.200  11.645
 2524TIP3    H129063   6.711   4.205  11.658
 2524TIP3    H229064   6.837   4.137  11.713
 2525TIP3   OH229065   6.974   4.062  11.841
 2525TIP3    H129066   6.960   3.966  11.841
 2525TIP3    H229067   6.940   4.093  11.927
 2526TIP3   OH229068   5.946   4.189  11.748
 2526TIP3    H129069   5.972   4.116  11.689
 2526TIP3    H229070   5.938   4.143  11.834
 2527TIP3   OH229071   6.431   3.790  11.647
 2527TIP3    H129072   6.501   3.721  11.643
 2527TIP3    H229073   6.421   3.809  11.551
 2528TIP3   OH229074   6.468   3.954  11.855
 2528TIP3    H129075   6.451   3.904  11.771
 2528TIP3    H229076   6.407   4.030  11.846
 2529TIP3   OH229077   5.647   5.643  10.622
 2529TIP3    H129078   5.578   5.595  10.572
 2529TIP3    H229079   5.677   5.576  10.685
 2530TIP3   OH229080   5.730   5.454  10.805
 2530TIP3    H129081   5.695   5.366  10.824
 2530TIP3    H229082   5.753   5.487  10.893
 2531TIP3   OH229083   7.269   5.076  11.849
 2531TIP3    H129084   7.192   5.061  11.904
 2531TIP3    H229085   7.321   5.141  11.900
 2532TIP3   OH229086   7.282   5.261  11.322
 2532TIP3    H129087   7.215   5.302  11.379
 2532TIP3    H229088   7.228   5.224  11.248
 2533TIP3   OH229089   7.204   4.559  10.651
 2533TIP3    H129090   7.216   4.463  10.653
 2533TIP3    H229091   7.198   4.581  10.746
 2534TIP3   OH229092   5.736   4.760  11.053
 2534TIP3    H129093   5.756   4.755  10.957
 2534TIP3    H229094   5.825   4.747  11.091
 2535TIP3   OH229095  -0.031   4.754  11.643
 2535TIP3    H129096   0.028   4.678  11.640
 2535TIP3    H229097   0.028   4.826  11.615
 2536TIP3   OH229098   7.201   4.309  10.488
 2536TIP3    H129099   7.230   4.220  10.514
 2536TIP3    H229100   7.280   4.349  10.454
 2537TIP3   OH229101   7.228   4.318  11.030
 2537TIP3    H129102   7.323   4.334  11.019
 2537TIP3    H229103   7.231   4.367  11.115
 2538TIP3   OH229104   7.270   4.440  11.323
 2538TIP3    H129105   7.182   4.470  11.352
 2538TIP3    H229106   7.312   4.521  11.291
 2539TIP3   OH229107   5.697   4.292  11.668
 2539TIP3    H129108   5.791   4.273  11.688
 2539TIP3    H229109   5.652   4.210  11.700
 2540TIP3   OH229110   7.187   4.011  10.546
 2540TIP3    H129111   7.277   3.993  10.582
 2540TIP3    H229112   7.198   3.971  10.459
 2541TIP3   OH229113   5.820   4.120  10.956
 2541TIP3    H129114   5.863   4.036  10.986
 2541TIP3    H229115   5.870   4.188  11.006
 2542TIP3   OH229116   5.647   4.419  11.060
 2542TIP3    H129117   5.702   4.399  10.982
 2542TIP3    H229118   5.689   4.502  11.088
 2543TIP3   OH229119   7.145   5.531  10.666
 2543TIP3    H129120   7.211   5.499  10.604
 2543TIP3    H229121   7.201   5.588  10.724
 2544TIP3   OH229122   5.678   3.914  11.298
 2544TIP3    H129123   5.610   3.894  11.364
 2544TIP3    H229124   5.631   3.980  11.243
 2545TIP3   OH229125   5.900   5.230  11.715
 2545TIP3    H129126   5.818   5.254  11.669
 2545TIP3    H229127   5.871   5.228  11.806
 2546TIP3   OH229128   6.191   5.332  11.340
 2546TIP3    H129129   6.155   5.418  11.312
 2546TIP3    H229130   6.283   5.342  11.309
 2547TIP3   OH229131   6.623   5.475  11.632
 2547TIP3    H129132   6.639   5.440  11.723
 2547TIP3    H229133   6.712   5.505  11.605
 2548TIP3   OH229134   6.855   5.602  11.561
 2548TIP3    H129135   6.927   5.542  11.538
 2548TIP3    H229136   6.891   5.644  11.642
 2549TIP3   OH229137   5.934   5.657  11.341
 2549TIP3    H129138   5.860   5.705  11.300
 2549TIP3    H229139   5.900   5.636  11.430
 2550TIP3   OH229140   6.181   5.615  11.248
 2550TIP3    H129141   6.091   5.628  11.287
 2550TIP3    H229142   6.174   5.674  11.170
 2551TIP3   OH229143   6.651   5.606  11.164
 2551TIP3    H129144   6.604   5.661  11.099
 2551TIP3    H229145   6.665   5.670  11.238
 2552TIP3   OH229146   6.883   5.489  11.263
 2552TIP3    H129147   6.794   5.514  11.231
 2552TIP3    H229148   6.926   5.576  11.256
 2553TIP3   OH229149   7.138   5.649  11.291
 2553TIP3    H129150   7.127   5.743  11.267
 2553TIP3    H229151   7.162   5.609  11.205
 2554TIP3   OH229152   5.877   5.522  11.034
 2554TIP3    H129153   5.871   5.477  11.121
 2554TIP3    H229154   5.959   5.486  10.995
 2555TIP3   OH229155   6.086   5.393  10.900
 2555TIP3    H129156   6.069   5.299  10.921
 2555TIP3    H229157   6.172   5.407  10.945
 2556TIP3   OH229158   6.343   5.441  10.987
 2556TIP3    H129159   6.363   5.350  10.959
 2556TIP3    H229160   6.351   5.435  11.083
 2557TIP3   OH229161   6.693   4.007  10.900
 2557TIP3    H129162   6.625   3.943  10.926
 2557TIP3    H229163   6.749   3.955  10.841
 2558TIP3   OH229164   7.208   3.812  10.911
 2558TIP3    H129165   7.264   3.874  10.862
 2558TIP3    H229166   7.119   3.846  10.887
 2559TIP3   OH229167   5.928   3.871  10.685
 2559TIP3    H129168   5.849   3.846  10.634
 2559TIP3    H229169   5.977   3.786  10.681
 2560TIP3   OH229170   6.378   3.861  10.664
 2560TIP3    H129171   6.468   3.899  10.657
 2560TIP3    H229172   6.373   3.840  10.757
 2561TIP3   OH229173   6.948   3.863  10.827
 2561TIP3    H129174   6.944   3.874  10.731
 2561TIP3    H229175   6.910   3.772  10.839
 2562TIP3   OH229176   5.799   5.441  10.355
 2562TIP3    H129177   5.731   5.443  10.286
 2562TIP3    H229178   5.799   5.536  10.377
 2563TIP3   OH229179   6.684   5.566  10.194
 2563TIP3    H129180   6.774   5.599  10.175
 2563TIP3    H229181   6.665   5.522  10.109
 2564TIP3   OH229182   5.919   3.923  11.631
 2564TIP3    H129183   5.882   3.844  11.675
 2564TIP3    H229184   6.011   3.920  11.667
 2565TIP3   OH229185   6.119   3.860  11.792
 2565TIP3    H129186   6.209   3.827  11.772
 2565TIP3    H229187   6.081   3.780  11.835
 2566TIP3   OH229188   6.959   3.791  11.807
 2566TIP3    H129189   6.968   3.745  11.893
 2566TIP3    H229190   7.050   3.788  11.772
 2567TIP3   OH229191   7.272   5.391  11.682
 2567TIP3    H129192   7.199   5.379  11.618
 2567TIP3    H229193   7.267   5.489  11.696
 2568TIP3   OH229194   1.179   6.666  10.674
 2568TIP3    H129195   1.182   6.765  10.667
 2568TIP3    H229196   1.109   6.644  10.611
 2569TIP3   OH229197   1.069   6.595  11.021
 2569TIP3    H129198   1.066   6.530  11.093
 2569TIP3    H229199   1.034   6.545  10.945
 2570TIP3   OH229200   0.306   6.560  11.176
 2570TIP3    H129201   0.312   6.493  11.248
 2570TIP3    H229202   0.378   6.619  11.199
 2571TIP3   OH229203   1.438   6.889  10.850
 2571TIP3    H129204   1.394   6.818  10.898
 2571TIP3    H229205   1.439   6.960  10.916
 2572TIP3   OH229206   0.397   7.005  11.031
 2572TIP3    H129207   0.363   6.920  10.997
 2572TIP3    H229208   0.492   6.985  11.036
 2573TIP3   OH229209   0.076   6.370  10.572
 2573TIP3    H129210   0.022   6.452  10.578
 2573TIP3    H229211   0.009   6.315  10.535
 2574TIP3   OH229212   0.130   6.582  10.786
 2574TIP3    H129213   0.154   6.504  10.839
 2574TIP3    H229214   0.204   6.594  10.726
 2575TIP3   OH229215   0.905   6.834  11.066
 2575TIP3    H129216   0.940   6.770  11.002
 2575TIP3    H229217   0.983   6.851  11.121
 2576TIP3   OH229218   1.768   5.999  11.143
 2576TIP3    H129219   1.782   6.060  11.219
 2576TIP3    H229220   1.821   6.043  11.075
 2577TIP3   OH229221   1.218   6.280  11.098
 2577TIP3    H129222   1.239   6.185  11.097
 2577TIP3    H229223   1.212   6.297  11.002
 2578TIP3   OH229224   0.538   6.088  10.824
 2578TIP3    H129225   0.544   6.173  10.778
 2578TIP3    H229226   0.495   6.032  10.756
 2579TIP3   OH229227   1.307   6.100  10.658
 2579TIP3    H129228   1.373   6.068  10.725
 2579TIP3    H229229   1.363   6.155  10.601
 2580TIP3   OH229230   0.198   6.328  10.890
 2580TIP3    H129231   0.265   6.276  10.938
 2580TIP3    H229232   0.209   6.297  10.800
 2581TIP3   OH229233   0.714   6.485  10.823
 2581TIP3    H129234   0.778   6.428  10.868
 2581TIP3    H229235   0.658   6.419  10.777
 2582TIP3   OH229236   1.811   6.142  11.369
 2582TIP3    H129237   1.747   6.216  11.359
 2582TIP3    H229238   1.814   6.130  11.464
 2583TIP3   OH229239   0.425   5.980  11.226
 2583TIP3    H129240   0.396   6.036  11.151
 2583TIP3    H229241   0.355   6.002  11.293
 2584TIP3   OH229242   1.156   6.928  10.579
 2584TIP3    H129243   1.124   6.901  10.493
 2584TIP3    H229244   1.123   7.020  10.586
 2585TIP3   OH229245   0.676   6.743  11.251
 2585TIP3    H129246   0.604   6.807  11.271
 2585TIP3    H229247   0.746   6.805  11.224
 2586TIP3   OH229248   1.485   6.034  10.858
 2586TIP3    H129249   1.467   5.955  10.911
 2586TIP3    H229250   1.554   6.077  10.912
 2587TIP3   OH229251   0.378   6.164  11.027
 2587TIP3    H129252   0.440   6.233  11.061
 2587TIP3    H229253   0.434   6.124  10.955
 2588TIP3   OH229254   0.519   6.942  11.330
 2588TIP3    H129255   0.516   7.035  11.299
 2588TIP3    H229256   0.431   6.937  11.375
 2589TIP3   OH229257   0.132   6.910  10.411
 2589TIP3    H129258   0.103   6.937  10.323
 2589TIP3    H229259   0.135   6.994  10.462
 2590TIP3   OH229260   1.491   7.074  11.089
 2590TIP3    H129261   1.393   7.080  11.100
 2590TIP3    H229262   1.517   7.165  11.067
 2591TIP3   OH229263   1.520   5.901  11.226
 2591TIP3    H129264   1.449   5.965  11.219
 2591TIP3    H229265   1.591   5.943  11.174
 2592TIP3   OH229266   0.822   5.714  10.980
 2592TIP3    H129267   0.807   5.618  10.964
 2592TIP3    H229268   0.729   5.742  10.999
 2593TIP3   OH229269   1.316   7.233  10.740
 2593TIP3    H129270   1.366   7.169  10.688
 2593TIP3    H229271   1.352   7.317  10.706
 2594TIP3   OH229272   1.435   7.042  10.598
 2594TIP3    H129273   1.408   6.972  10.537
 2594TIP3    H229274   1.439   6.995  10.683
 2595TIP3   OH229275   1.599   6.902  11.447
 2595TIP3    H129276   1.613   6.838  11.374
 2595TIP3    H229277   1.620   6.987  11.405
 2596TIP3   OH229278   1.047   6.596  10.425
 2596TIP3    H129279   0.977   6.652  10.388
 2596TIP3    H229280   1.119   6.601  10.358
 2597TIP3   OH229281   1.786   6.533  11.252
 2597TIP3    H129282   1.720   6.605  11.258
 2597TIP3    H229283   1.834   6.556  11.171
 2598TIP3   OH229284   1.391   6.614  10.515
 2598TIP3    H129285   1.318   6.638  10.577
 2598TIP3    H229286   1.438   6.546  10.567
 2599TIP3   OH229287   1.384   6.430  11.427
 2599TIP3    H129288   1.386   6.511  11.481
 2599TIP3    H229289   1.321   6.460  11.358
 2600TIP3   OH229290   0.555   6.681  10.707
 2600TIP3    H129291   0.521   6.641  10.624
 2600TIP3    H229292   0.614   6.610  10.742
 2601TIP3   OH229293   0.689   7.019  10.974
 2601TIP3    H129294   0.685   6.963  10.896
 2601TIP3    H229295   0.764   6.983  11.024
 2602TIP3   OH229296   0.588   6.554  11.072
 2602TIP3    H129297   0.644   6.566  10.993
 2602TIP3    H229298   0.624   6.621  11.134
 2603TIP3   OH229299   1.227   7.110  11.143
 2603TIP3    H129300   1.195   7.173  11.207
 2603TIP3    H229301   1.200   7.024  11.186
 2604TIP3   OH229302   0.646   6.952  11.565
 2604TIP3    H129303   0.652   7.050  11.587
 2604TIP3    H229304   0.614   6.971  11.473
 2605TIP3   OH229305   1.275   6.532  10.284
 2605TIP3    H129306   1.332   6.549  10.363
 2605TIP3    H229307   1.321   6.581  10.215
 2606TIP3   OH229308   0.376   6.614  11.463
 2606TIP3    H129309   0.379   6.682  11.532
 2606TIP3    H229310   0.283   6.623  11.434
 2607TIP3   OH229311   1.049   7.204  10.632
 2607TIP3    H129312   1.097   7.236  10.708
 2607TIP3    H229313   0.995   7.280  10.605
 2608TIP3   OH229314   0.494   7.208  11.621
 2608TIP3    H129315   0.503   7.188  11.525
 2608TIP3    H229316   0.402   7.186  11.643
 2609TIP3   OH229317   1.649   5.707  10.270
 2609TIP3    H129318   1.555   5.721  10.297
 2609TIP3    H229319   1.670   5.793  10.228
 2610TIP3   OH229320   0.454   6.584  10.469
 2610TIP3    H129321   0.423   6.661  10.416
 2610TIP3    H229322   0.386   6.520  10.449
 2611TIP3   OH229323   0.097   6.816  11.336
 2611TIP3    H129324   0.024   6.820  11.271
 2611TIP3    H229325   0.069   6.732  11.377
 2612TIP3   OH229326   0.049   7.110  11.023
 2612TIP3    H129327   0.141   7.084  11.038
 2612TIP3    H229328   0.031   7.176  11.091
 2613TIP3   OH229329   1.857   7.167  11.606
 2613TIP3    H129330   1.848   7.071  11.600
 2613TIP3    H229331   1.770   7.194  11.644
 2614TIP3   OH229332   0.999   7.106  11.503
 2614TIP3    H129333   0.973   7.196  11.532
 2614TIP3    H229334   0.902   7.082  11.510
 2615TIP3   OH229335   1.573   6.316  11.652
 2615TIP3    H129336   1.528   6.362  11.580
 2615TIP3    H229337   1.574   6.224  11.621
 2616TIP3   OH229338   0.286   6.959  11.453
 2616TIP3    H129339   0.308   6.920  11.540
 2616TIP3    H229340   0.201   6.917  11.429
 2617TIP3   OH229341   0.557   5.804  11.048
 2617TIP3    H129342   0.466   5.792  11.011
 2617TIP3    H229343   0.542   5.887  11.095
 2618TIP3   OH229344   1.017   5.772  11.381
 2618TIP3    H129345   1.059   5.731  11.461
 2618TIP3    H229346   0.921   5.755  11.403
 2619TIP3   OH229347   1.347   6.151  11.471
 2619TIP3    H129348   1.295   6.134  11.554
 2619TIP3    H229349   1.331   6.245  11.450
 2620TIP3   OH229350   0.565   6.298  11.169
 2620TIP3    H129351   0.493   6.297  11.235
 2620TIP3    H229352   0.561   6.391  11.136
 2621TIP3   OH229353   0.562   6.316  10.656
 2621TIP3    H129354   0.469   6.287  10.645
 2621TIP3    H229355   0.603   6.283  10.576
 2622TIP3   OH229356   1.021   6.383  11.680
 2622TIP3    H129357   0.966   6.307  11.712
 2622TIP3    H229358   1.104   6.369  11.728
 2623TIP3   OH229359   1.214   6.310  10.818
 2623TIP3    H129360   1.191   6.368  10.744
 2623TIP3    H229361   1.229   6.225  10.771
 2624TIP3   OH229362   0.332   6.326  11.343
 2624TIP3    H129363   0.332   6.368  11.431
 2624TIP3    H229364   0.283   6.244  11.359
 2625TIP3   OH229365   0.012   6.053  10.725
 2625TIP3    H129366   0.059   6.033  10.808
 2625TIP3    H229367   0.044   5.992  10.661
 2626TIP3   OH229368   1.138   6.471  11.278
 2626TIP3    H129369   1.174   6.404  11.217
 2626TIP3    H229370   1.092   6.417  11.345
 2627TIP3   OH229371   0.816   6.063  10.759
 2627TIP3    H129372   0.722   6.069  10.789
 2627TIP3    H229373   0.866   6.056  10.841
 2628TIP3   OH229374   0.303   6.224  10.642
 2628TIP3    H129375   0.212   6.238  10.611
 2628TIP3    H229376   0.328   6.138  10.608
 2629TIP3   OH229377   1.257   5.987  11.084
 2629TIP3    H129378   1.190   6.000  11.155
 2629TIP3    H229379   1.208   5.970  11.002
 2630TIP3   OH229380   0.532   6.346  10.167
 2630TIP3    H129381   0.476   6.309  10.096
 2630TIP3    H229382   0.611   6.366  10.117
 2631TIP3   OH229383   0.346   6.799  11.672
 2631TIP3    H129384   0.418   6.827  11.731
 2631TIP3    H229385   0.269   6.818  11.731
 2632TIP3   OH229386   0.946   6.342  10.949
 2632TIP3    H129387   1.006   6.289  10.895
 2632TIP3    H229388   0.932   6.289  11.029
 2633TIP3   OH229389   0.447   5.958  10.589
 2633TIP3    H129390   0.417   5.865  10.590
 2633TIP3    H229391   0.529   5.950  10.537
 2634TIP3   OH229392   0.810   6.174  11.192
 2634TIP3    H129393   0.728   6.228  11.199
 2634TIP3    H229394   0.864   6.213  11.265
 2635TIP3   OH229395   0.869   6.799  10.359
 2635TIP3    H129396   0.789   6.753  10.327
 2635TIP3    H229397   0.848   6.811  10.454
 2636TIP3   OH229398   1.585   6.716  11.240
 2636TIP3    H129399   1.643   6.765  11.179
 2636TIP3    H229400   1.499   6.725  11.193
 2637TIP3   OH229401   1.018   6.823  11.484
 2637TIP3    H129402   0.982   6.783  11.563
 2637TIP3    H229403   0.996   6.917  11.493
 2638TIP3   OH229404   1.329   6.265  10.340
 2638TIP3    H129405   1.417   6.257  10.381
 2638TIP3    H229406   1.332   6.350  10.292
 2639TIP3   OH229407   0.380   6.737  10.939
 2639TIP3    H129408   0.450   6.730  10.872
 2639TIP3    H229409   0.385   6.651  10.984
 2640TIP3   OH229410   0.101   6.558  11.443
 2640TIP3    H129411   0.108   6.535  11.538
 2640TIP3    H229412   0.017   6.516  11.421
 2641TIP3   OH229413   0.780   6.533  11.686
 2641TIP3    H129414   0.749   6.507  11.598
 2641TIP3    H229415   0.873   6.503  11.685
 2642TIP3   OH229416   1.249   7.071  11.475
 2642TIP3    H129417   1.153   7.083  11.457
 2642TIP3    H229418   1.244   7.094  11.570
 2643TIP3   OH229419   1.815   6.289  10.316
 2643TIP3    H129420   1.757   6.252  10.249
 2643TIP3    H229421   1.822   6.382  10.291
 2644TIP3   OH229422   1.814   6.869  11.599
 2644TIP3    H129423   1.725   6.894  11.562
 2644TIP3    H229424   1.870   6.868  11.519
 2645TIP3   OH229425   1.647   7.161  10.365
 2645TIP3    H129426   1.608   7.079  10.391
 2645TIP3    H229427   1.672   7.149  10.272
 2646TIP3   OH229428   1.364   6.650  11.067
 2646TIP3    H129429   1.269   6.628  11.058
 2646TIP3    H229430   1.407   6.573  11.027
 2647TIP3   OH229431   0.617   7.081  10.679
 2647TIP3    H129432   0.666   7.161  10.656
 2647TIP3    H229433   0.529   7.104  10.647
 2648TIP3   OH229434   0.760   6.849  10.632
 2648TIP3    H129435   0.730   6.942  10.639
 2648TIP3    H229436   0.685   6.803  10.675
 2649TIP3   OH229437   0.837   7.255  11.228
 2649TIP3    H129438   0.845   7.350  11.241
 2649TIP3    H229439   0.852   7.231  11.324
 2650TIP3   OH229440   0.596  -0.004  10.555
 2650TIP3    H129441   0.513   0.015  10.596
 2650TIP3    H229442   0.645   0.070  10.601
 2651TIP3   OH229443   1.159   6.870  11.235
 2651TIP3    H129444   1.121   6.849  11.323
 2651TIP3    H229445   1.220   6.797  11.217
 2652TIP3   OH229446   1.432   7.322  11.483
 2652TIP3    H129447   1.365   7.273  11.434
 2652TIP3    H229448   1.453   7.395  11.422
 2653TIP3   OH229449   0.244   6.050  11.418
 2653TIP3    H129450   0.154   6.087  11.420
 2653TIP3    H229451   0.232   5.967  11.466
 2654TIP3   OH229452   1.467   6.837  10.367
 2654TIP3    H129453   1.444   6.761  10.423
 2654TIP3    H229454   1.563   6.844  10.383
 2655TIP3   OH229455   0.209   7.231  11.263
 2655TIP3    H129456   0.232   7.137  11.264
 2655TIP3    H229457   0.228   7.260  11.353
 2656TIP3   OH229458   0.680   7.038  10.234
 2656TIP3    H129459   0.703   6.985  10.311
 2656TIP3    H229460   0.690   7.129  10.266
 2657TIP3   OH229461   0.333   6.758  10.283
 2657TIP3    H129462   0.262   6.795  10.339
 2657TIP3    H229463   0.383   6.837  10.259
 2658TIP3   OH229464   1.114   6.024  11.312
 2658TIP3    H129465   1.186   6.037  11.378
 2658TIP3    H229466   1.080   5.939  11.341
 2659TIP3   OH229467   1.192   5.990  10.424
 2659TIP3    H129468   1.216   6.039  10.344
 2659TIP3    H229469   1.249   6.031  10.490
 2660TIP3   OH229470   0.961   7.205  10.307
 2660TIP3    H129471   0.877   7.252  10.312
 2660TIP3    H229472   1.013   7.254  10.242
 2661TIP3   OH229473   0.968   6.262  11.425
 2661TIP3    H129474   0.977   6.321  11.503
 2661TIP3    H229475   1.036   6.195  11.438
 2662TIP3   OH229476   1.000   5.871  10.600
 2662TIP3    H129477   0.966   5.936  10.663
 2662TIP3    H229478   1.069   5.923  10.553
 2663TIP3   OH229479   0.698  -0.031  10.305
 2663TIP3    H129480   0.712   0.053  10.259
 2663TIP3    H229481   0.671  -0.004  10.396
 2664TIP3   OH229482   1.588   6.051  11.510
 2664TIP3    H129483   1.495   6.081  11.498
 2664TIP3    H229484   1.618   6.051  11.418
 2665TIP3   OH229485   1.448   6.429  10.914
 2665TIP3    H129486   1.366   6.385  10.884
 2665TIP3    H229487   1.495   6.360  10.966
 2666TIP3   OH229488   0.391   7.019  10.173
 2666TIP3    H129489   0.455   7.086  10.203
 2666TIP3    H229490   0.442   6.974  10.102
 2667TIP3   OH229491   0.303   5.769  10.956
 2667TIP3    H129492   0.284   5.770  10.860
 2667TIP3    H229493   0.261   5.684  10.984
 2668TIP3   OH229494   0.206   7.156  10.581
 2668TIP3    H129495   0.119   7.200  10.570
 2668TIP3    H229496   0.248   7.208  10.510
 2669TIP3   OH229497   0.600   7.289  11.876
 2669TIP3    H129498   0.687   7.257  11.899
 2669TIP3    H229499   0.594   7.278  11.778
 2670TIP3   OH229500   1.246   7.139  11.731
 2670TIP3    H129501   1.206   7.059  11.768
 2670TIP3    H229502   1.314   7.162  11.796
 2671TIP3   OH229503   0.125   6.801  11.799
 2671TIP3    H129504   0.131   6.708  11.771
 2671TIP3    H229505   0.042   6.832  11.757
 2672TIP3   OH229506   0.553   6.840  10.011
 2672TIP3    H129507   0.558   6.759  10.064
 2672TIP3    H229508   0.616   6.823   9.941
 2673TIP3   OH229509   0.786   6.798  11.743
 2673TIP3    H129510   0.748   6.831  11.657
 2673TIP3    H229511   0.794   6.702  11.730
 2674TIP3   OH229512   1.354   6.787  11.480
 2674TIP3    H129513   1.432   6.847  11.471
 2674TIP3    H229514   1.282   6.852  11.484
 2675TIP3   OH229515   0.198   6.523  11.738
 2675TIP3    H129516   0.245   6.438  11.731
 2675TIP3    H229517   0.181   6.525  11.834
 2676TIP3   OH229518   0.674   6.635  10.244
 2676TIP3    H129519   0.617   6.588  10.308
 2676TIP3    H229520   0.690   6.569  10.176
 2677TIP3   OH229521   0.594   6.420  11.477
 2677TIP3    H129522   0.533   6.491  11.503
 2677TIP3    H229523   0.632   6.456  11.395
 2678TIP3   OH229524   1.100   6.674  11.808
 2678TIP3    H129525   1.196   6.677  11.800
 2678TIP3    H229526   1.083   6.599  11.866
 2679TIP3   OH229527   0.634   6.158  11.584
 2679TIP3    H129528   0.644   6.086  11.520
 2679TIP3    H229529   0.628   6.238  11.528
 2680TIP3   OH229530   0.676   5.991  11.333
 2680TIP3    H129531   0.723   6.046  11.267
 2680TIP3    H229532   0.584   5.987  11.296
 2681TIP3   OH229533   0.829   6.543  11.361
 2681TIP3    H129534   0.904   6.526  11.303
 2681TIP3    H229535   0.793   6.628  11.330
 2682TIP3   OH229536   1.269   6.320  11.859
 2682TIP3    H129537   1.292   6.227  11.850
 2682TIP3    H229538   1.356   6.364  11.861
 2683TIP3   OH229539   1.401   6.598  11.672
 2683TIP3    H129540   1.376   6.672  11.612
 2683TIP3    H229541   1.497   6.595  11.654
 2684TIP3   OH229542   0.477   6.283  11.774
 2684TIP3    H129543   0.401   6.224  11.756
 2684TIP3    H229544   0.545   6.246  11.714
 2685TIP3   OH229545   0.756   5.741  11.372
 2685TIP3    H129546   0.734   5.837  11.370
 2685TIP3    H229547   0.676   5.702  11.330
 2686TIP3   OH229548   0.880   6.172  11.737
 2686TIP3    H129549   0.850   6.149  11.827
 2686TIP3    H229550   0.801   6.152  11.684
 2687TIP3   OH229551   1.151   6.084  11.642
 2687TIP3    H129552   1.055   6.091  11.658
 2687TIP3    H229553   1.180   6.022  11.712
 2688TIP3   OH229554   1.312   5.949  11.839
 2688TIP3    H129555   1.305   5.851  11.841
 2688TIP3    H229556   1.284   5.977  11.928
 2689TIP3   OH229557   0.295   6.074  11.748
 2689TIP3    H129558   0.315   6.000  11.688
 2689TIP3    H229559   0.282   6.028  11.834
 2690TIP3   OH229560   0.775   5.677  11.646
 2690TIP3    H129561   0.843   5.606  11.644
 2690TIP3    H229562   0.763   5.693  11.551
 2691TIP3   OH229563   0.811   5.839  11.855
 2691TIP3    H129564   0.794   5.790  11.771
 2691TIP3    H229565   0.750   5.915  11.846
 2692TIP3   OH229566   0.118   6.991  10.118
 2692TIP3    H129567   0.213   6.999  10.145
 2692TIP3    H229568   0.123   6.924  10.051
 2693TIP3   OH229569   0.078   7.336  10.801
 2693TIP3    H129570   0.036   7.251  10.822
 2693TIP3    H229571   0.093   7.371  10.890
 2694TIP3   OH229572   1.629   6.951  11.860
 2694TIP3    H129573   1.539   6.947  11.898
 2694TIP3    H229574   1.667   7.032  11.902
 2695TIP3   OH229575   1.758   6.781  10.406
 2695TIP3    H129576   1.845   6.822  10.422
 2695TIP3    H229577   1.761   6.709  10.472
 2696TIP3   OH229578   1.798   6.588  10.591
 2696TIP3    H129579   1.723   6.541  10.631
 2696TIP3    H229580   1.856   6.606  10.668
 2697TIP3   OH229581   1.773   6.862  11.092
 2697TIP3    H129582   1.855   6.826  11.055
 2697TIP3    H229583   1.786   6.958  11.074
 2698TIP3   OH229584   1.624   7.154  11.320
 2698TIP3    H129585   1.557   7.187  11.381
 2698TIP3    H229586   1.571   7.110  11.250
 2699TIP3   OH229587   1.578   6.438  10.649
 2699TIP3    H129588   1.562   6.343  10.647
 2699TIP3    H229589   1.544   6.463  10.737
 2700TIP3   OH229590   0.078   6.644  11.052
 2700TIP3    H129591   0.097   6.641  10.956
 2700TIP3    H229592   0.167   6.632  11.091
 2701TIP3   OH229593   1.663   6.636  11.616
 2701TIP3    H129594   1.724   6.561  11.632
 2701TIP3    H229595   1.723   6.713  11.618
 2702TIP3   OH229596   1.814   6.425  11.683
 2702TIP3    H129597   1.726   6.385  11.666
 2702TIP3    H229598   1.872   6.348  11.675
 2703TIP3   OH229599   1.546   6.196  10.495
 2703TIP3    H129600   1.576   6.103  10.508
 2703TIP3    H229601   1.625   6.237  10.459
 2704TIP3   OH229602   1.609   6.252  11.039
 2704TIP3    H129603   1.705   6.276  11.037
 2704TIP3    H229604   1.589   6.266  11.133
 2705TIP3   OH229605   1.616   6.325  11.318
 2705TIP3    H129606   1.528   6.354  11.351
 2705TIP3    H229607   1.659   6.411  11.295
 2706TIP3   OH229608   0.058   6.169  11.669
 2706TIP3    H129609   0.148   6.151  11.695
 2706TIP3    H229610   0.000   6.097  11.704
 2707TIP3   OH229611   1.844   5.728  11.853
 2707TIP3    H129612   1.876   5.664  11.788
 2707TIP3    H229613   1.854   5.811  11.803
 2708TIP3   OH229614   1.611   5.925  10.498
 2708TIP3    H129615   1.632   5.880  10.583
 2708TIP3    H229616   1.549   5.863  10.454
 2709TIP3   OH229617   0.157   6.003  10.956
 2709TIP3    H129618   0.209   5.924  10.983
 2709TIP3    H229619   0.211   6.074  10.996
 2710TIP3   OH229620   0.062   6.350  11.097
 2710TIP3    H129621   0.059   6.315  11.005
 2710TIP3    H229622   0.034   6.439  11.078
 2711TIP3   OH229623   1.795   5.939  11.688
 2711TIP3    H129624   1.701   5.966  11.682
 2711TIP3    H229625   1.800   5.885  11.607
 2712TIP3   OH229626   1.794   5.929  10.152
 2712TIP3    H129627   1.838   5.858  10.105
 2712TIP3    H229628   1.865   5.995  10.160
 2713TIP3   OH229629   7.377   5.798  11.307
 2713TIP3    H129630   7.302   5.777  11.364
 2713TIP3    H229631   7.325   5.855  11.248
 2714TIP3   OH229632   0.242   7.123  11.716
 2714TIP3    H129633   0.158   7.138  11.669
 2714TIP3    H229634   0.214   7.112  11.807
 2715TIP3   OH229635   0.522   7.215  11.322
 2715TIP3    H129636   0.491   7.304  11.309
 2715TIP3    H229637   0.621   7.222  11.315
 2716TIP3   OH229638   1.696   5.749  11.471
 2716TIP3    H129639   1.613   5.779  11.430
 2716TIP3    H229640   1.714   5.668  11.418
 2717TIP3   OH229641   0.430   7.267  10.884
 2717TIP3    H129642   0.410   7.180  10.921
 2717TIP3    H229643   0.506   7.290  10.944
 2718TIP3   OH229644   0.647   7.277  11.001
 2718TIP3    H129645   0.709   7.218  10.960
 2718TIP3    H229646   0.689   7.313  11.081
 2719TIP3   OH229647   1.036   5.889  10.909
 2719TIP3    H129648   0.966   5.824  10.919
 2719TIP3    H229649   1.091   5.844  10.841
 2720TIP3   OH229650   1.550   5.698  10.910
 2720TIP3    H129651   1.611   5.757  10.858
 2720TIP3    H229652   1.462   5.733  10.885
 2721TIP3   OH229653   1.717   5.820  10.737
 2721TIP3    H129654   1.785   5.764  10.693
 2721TIP3    H229655   1.765   5.906  10.747
 2722TIP3   OH229656   0.270   5.756  10.684
 2722TIP3    H129657   0.192   5.729  10.632
 2722TIP3    H229658   0.322   5.673  10.680
 2723TIP3   OH229659   0.721   5.749  10.664
 2723TIP3    H129660   0.812   5.783  10.659
 2723TIP3    H229661   0.715   5.724  10.756
 2724TIP3   OH229662   1.285   5.750  10.828
 2724TIP3    H129663   1.289   5.759  10.732
 2724TIP3    H229664   1.255   5.657  10.839
 2725TIP3   OH229665   1.418   5.754  10.396
 2725TIP3    H129666   1.344   5.812  10.376
 2725TIP3    H229667   1.373   5.667  10.413
 2726TIP3   OH229668   0.145  -0.030  10.397
 2726TIP3    H129669   0.090  -0.032  10.313
 2726TIP3    H229670   0.151   0.064  10.394
 2727TIP3   OH229671   0.841   5.954  10.350
 2727TIP3    H129672   0.859   5.891  10.422
 2727TIP3    H229673   0.836   6.036  10.399
 2728TIP3   OH229674   0.258   5.812  11.636
 2728TIP3    H129675   0.225   5.729  11.674
 2728TIP3    H229676   0.352   5.806  11.666
 2729TIP3   OH229677   0.462   5.746  11.793
 2729TIP3    H129678   0.551   5.713  11.772
 2729TIP3    H229679   0.423   5.666  11.835
 2730TIP3   OH229680   1.302   5.676  11.809
 2730TIP3    H129681   1.312   5.629  11.894
 2730TIP3    H229682   1.394   5.674  11.774
 2731TIP3   OH229683   1.615   7.274  11.684
 2731TIP3    H129684   1.543   7.265  11.619
 2731TIP3    H229685   1.620   7.371  11.694
 2732TIP3   OH229686   3.066   6.667  10.672
 2732TIP3    H129687   3.068   6.766  10.669
 2732TIP3    H229688   2.993   6.646  10.616
 2733TIP3   OH229689   2.953   6.595  11.021
 2733TIP3    H129690   2.951   6.530  11.092
 2733TIP3    H229691   2.920   6.545  10.945
 2734TIP3   OH229692   2.189   6.560  11.177
 2734TIP3    H129693   2.197   6.493  11.249
 2734TIP3    H229694   2.263   6.619  11.199
 2735TIP3   OH229695   3.324   6.889  10.849
 2735TIP3    H129696   3.280   6.818  10.897
 2735TIP3    H229697   3.325   6.960  10.915
 2736TIP3   OH229698   2.284   7.005  11.030
 2736TIP3    H129699   2.250   6.920  10.996
 2736TIP3    H229700   2.378   6.985  11.035
 2737TIP3   OH229701   1.948   6.365  10.570
 2737TIP3    H129702   1.900   6.451  10.571
 2737TIP3    H229703   1.888   6.309  10.519
 2738TIP3   OH229704   2.016   6.585  10.787
 2738TIP3    H129705   2.041   6.504  10.835
 2738TIP3    H229706   2.089   6.595  10.724
 2739TIP3   OH229707   2.790   6.834  11.067
 2739TIP3    H129708   2.825   6.771  11.002
 2739TIP3    H229709   2.869   6.851  11.120
 2740TIP3   OH229710   3.658   5.999  11.144
 2740TIP3    H129711   3.666   6.061  11.221
 2740TIP3    H229712   3.700   6.054  11.077
 2741TIP3   OH229713   3.107   6.281  11.099
 2741TIP3    H129714   3.123   6.185  11.098
 2741TIP3    H229715   3.097   6.296  11.002
 2742TIP3   OH229716   2.420   6.089  10.822
 2742TIP3    H129717   2.429   6.174  10.775
 2742TIP3    H229718   2.379   6.033  10.753
 2743TIP3   OH229719   3.195   6.101  10.660
 2743TIP3    H129720   3.261   6.067  10.725
 2743TIP3    H229721   3.251   6.154  10.602
 2744TIP3   OH229722   2.082   6.330  10.896
 2744TIP3    H129723   2.149   6.275  10.940
 2744TIP3    H229724   2.091   6.300  10.805
 2745TIP3   OH229725   2.599   6.486  10.824
 2745TIP3    H129726   2.663   6.428  10.868
 2745TIP3    H229727   2.544   6.419  10.778
 2746TIP3   OH229728   3.697   6.142  11.368
 2746TIP3    H129729   3.633   6.217  11.360
 2746TIP3    H229730   3.700   6.131  11.464
 2747TIP3   OH229731   2.308   5.980  11.227
 2747TIP3    H129732   2.281   6.036  11.151
 2747TIP3    H229733   2.240   6.003  11.294
 2748TIP3   OH229734   3.036   6.927  10.582
 2748TIP3    H129735   3.013   6.902  10.492
 2748TIP3    H229736   3.013   7.021  10.585
 2749TIP3   OH229737   2.562   6.744  11.253
 2749TIP3    H129738   2.490   6.808  11.270
 2749TIP3    H229739   2.632   6.804  11.223
 2750TIP3   OH229740   3.374   6.030  10.857
 2750TIP3    H129741   3.350   5.955  10.912
 2750TIP3    H229742   3.438   6.077  10.913
 2751TIP3   OH229743   2.265   6.167  11.027
 2751TIP3    H129744   2.328   6.234  11.060
 2751TIP3    H229745   2.318   6.123  10.955
 2752TIP3   OH229746   2.405   6.943  11.333
 2752TIP3    H129747   2.401   7.033  11.297
 2752TIP3    H229748   2.316   6.937  11.376
 2753TIP3   OH229749   2.011   6.910  10.414
 2753TIP3    H129750   1.984   6.935  10.324
 2753TIP3    H229751   2.021   6.995  10.461
 2754TIP3   OH229752   3.377   7.075  11.089
 2754TIP3    H129753   3.279   7.080  11.099
 2754TIP3    H229754   3.403   7.165  11.067
 2755TIP3   OH229755   3.407   5.901  11.227
 2755TIP3    H129756   3.333   5.963  11.220
 2755TIP3    H229757   3.475   5.945  11.174
 2756TIP3   OH229758   2.706   5.714  10.972
 2756TIP3    H129759   2.694   5.617  10.965
 2756TIP3    H229760   2.618   5.744  11.000
 2757TIP3   OH229761   3.198   7.233  10.738
 2757TIP3    H129762   3.252   7.169  10.689
 2757TIP3    H229763   3.238   7.316  10.708
 2758TIP3   OH229764   3.323   7.043  10.596
 2758TIP3    H129765   3.292   6.973  10.537
 2758TIP3    H229766   3.325   6.996  10.681
 2759TIP3   OH229767   3.484   6.902  11.447
 2759TIP3    H129768   3.499   6.838  11.374
 2759TIP3    H229769   3.505   6.987  11.405
 2760TIP3   OH229770   3.672   6.533  11.252
 2760TIP3    H129771   3.606   6.605  11.258
 2760TIP3    H229772   3.719   6.557  11.171
 2761TIP3   OH229773   3.280   6.621  10.524
 2761TIP3    H129774   3.202   6.638  10.582
 2761TIP3    H229775   3.325   6.546  10.568
 2762TIP3   OH229776   3.270   6.430  11.427
 2762TIP3    H129777   3.271   6.511  11.481
 2762TIP3    H229778   3.206   6.460  11.358
 2763TIP3   OH229779   2.440   6.680  10.707
 2763TIP3    H129780   2.406   6.641  10.623
 2763TIP3    H229781   2.499   6.610  10.741
 2764TIP3   OH229782   2.575   7.021  10.973
 2764TIP3    H129783   2.569   6.962  10.897
 2764TIP3    H229784   2.650   6.983  11.022
 2765TIP3   OH229785   2.473   6.554  11.072
 2765TIP3    H129786   2.529   6.566  10.993
 2765TIP3    H229787   2.509   6.620  11.134
 2766TIP3   OH229788   3.111   7.110  11.143
 2766TIP3    H129789   3.082   7.173  11.207
 2766TIP3    H229790   3.086   7.024  11.186
 2767TIP3   OH229791   2.567   6.998  11.542
 2767TIP3    H129792   2.527   7.073  11.591
 2767TIP3    H229793   2.499   6.978  11.473
 2768TIP3   OH229794   2.260   6.613  11.460
 2768TIP3    H129795   2.264   6.680  11.532
 2768TIP3    H229796   2.167   6.624  11.435
 2769TIP3   OH229797   2.932   7.204  10.630
 2769TIP3    H129798   2.987   7.231  10.706
 2769TIP3    H229799   2.889   7.284  10.612
 2770TIP3   OH229800   2.389   7.204  11.616
 2770TIP3    H129801   2.386   7.188  11.520
 2770TIP3    H229802   2.296   7.189  11.643
 2771TIP3   OH229803   2.338   6.583  10.465
 2771TIP3    H129804   2.308   6.663  10.420
 2771TIP3    H229805   2.268   6.518  10.451
 2772TIP3   OH229806   1.946   6.825  11.355
 2772TIP3    H129807   1.899   6.817  11.269
 2772TIP3    H229808   1.951   6.730  11.379
 2773TIP3   OH229809   1.924   7.101  11.033
 2773TIP3    H129810   2.019   7.087  11.034
 2773TIP3    H229811   1.913   7.179  11.090
 2774TIP3   OH229812   3.743   7.167  11.606
 2774TIP3    H129813   3.733   7.071  11.600
 2774TIP3    H229814   3.656   7.194  11.644
 2775TIP3   OH229815   2.838   7.126  11.487
 2775TIP3    H129816   2.850   7.204  11.541
 2775TIP3    H229817   2.754   7.087  11.518
 2776TIP3   OH229818   3.459   6.316  11.652
 2776TIP3    H129819   3.414   6.362  11.580
 2776TIP3    H229820   3.459   6.224  11.621
 2777TIP3   OH229821   2.173   6.957  11.453
 2777TIP3    H129822   2.195   6.918  11.540
 2777TIP3    H229823   2.087   6.916  11.430
 2778TIP3   OH229824   2.440   5.802  11.049
 2778TIP3    H129825   2.350   5.792  11.011
 2778TIP3    H229826   2.429   5.887  11.095
 2779TIP3   OH229827   2.904   5.772  11.385
 2779TIP3    H129828   2.944   5.729  11.463
 2779TIP3    H229829   2.807   5.757  11.399
 2780TIP3   OH229830   3.235   6.153  11.473
 2780TIP3    H129831   3.180   6.134  11.553
 2780TIP3    H229832   3.217   6.245  11.450
 2781TIP3   OH229833   2.450   6.299  11.169
 2781TIP3    H129834   2.378   6.297  11.235
 2781TIP3    H229835   2.447   6.392  11.136
 2782TIP3   OH229836   2.446   6.315  10.659
 2782TIP3    H129837   2.353   6.286  10.645
 2782TIP3    H229838   2.486   6.283  10.575
 2783TIP3   OH229839   2.997   6.363  10.531
 2783TIP3    H129840   2.956   6.444  10.503
 2783TIP3    H229841   3.071   6.345  10.471
 2784TIP3   OH229842   2.906   6.383  11.680
 2784TIP3    H129843   2.852   6.307  11.712
 2784TIP3    H229844   2.990   6.369  11.728
 2785TIP3   OH229845   3.101   6.310  10.819
 2785TIP3    H129846   3.076   6.367  10.744
 2785TIP3    H229847   3.114   6.224  10.773
 2786TIP3   OH229848   2.215   6.328  11.343
 2786TIP3    H129849   2.219   6.368  11.431
 2786TIP3    H229850   2.169   6.244  11.360
 2787TIP3   OH229851   1.879   6.039  10.736
 2787TIP3    H129852   1.946   6.035  10.807
 2787TIP3    H229853   1.925   5.999  10.660
 2788TIP3   OH229854   2.003   6.112  10.273
 2788TIP3    H129855   2.057   6.172  10.219
 2788TIP3    H229856   1.935   6.172  10.310
 2789TIP3   OH229857   3.023   6.471  11.278
 2789TIP3    H129858   3.059   6.403  11.218
 2789TIP3    H229859   2.978   6.417  11.345
 2790TIP3   OH229860   2.702   6.065  10.760
 2790TIP3    H129861   2.609   6.068  10.789
 2790TIP3    H229862   2.751   6.053  10.842
 2791TIP3   OH229863   2.184   6.225  10.646
 2791TIP3    H129864   2.094   6.236  10.609
 2791TIP3    H229865   2.213   6.140  10.608
 2792TIP3   OH229866   2.547   6.233  10.416
 2792TIP3    H129867   2.644   6.234  10.424
 2792TIP3    H229868   2.529   6.290  10.339
 2793TIP3   OH229869   3.143   5.990  11.085
 2793TIP3    H129870   3.074   5.997  11.154
 2793TIP3    H229871   3.093   5.968  11.005
 2794TIP3   OH229872   2.232   6.802  11.673
 2794TIP3    H129873   2.304   6.826  11.734
 2794TIP3    H229874   2.153   6.815  11.731
 2795TIP3   OH229875   2.832   6.343  10.948
 2795TIP3    H129876   2.891   6.288  10.896
 2795TIP3    H229877   2.817   6.289  11.027
 2796TIP3   OH229878   2.332   5.958  10.591
 2796TIP3    H129879   2.302   5.866  10.589
 2796TIP3    H229880   2.412   5.952  10.536
 2797TIP3   OH229881   2.696   6.177  11.190
 2797TIP3    H129882   2.612   6.227  11.200
 2797TIP3    H229883   2.750   6.210  11.264
 2798TIP3   OH229884   2.752   6.798  10.358
 2798TIP3    H129885   2.674   6.750  10.328
 2798TIP3    H229886   2.733   6.807  10.454
 2799TIP3   OH229887   3.470   6.717  11.240
 2799TIP3    H129888   3.529   6.765  11.179
 2799TIP3    H229889   3.385   6.725  11.193
 2800TIP3   OH229890   2.902   6.825  11.484
 2800TIP3    H129891   2.869   6.782  11.563
 2800TIP3    H229892   2.880   6.918  11.494
 2801TIP3   OH229893   3.209   6.274  10.346
 2801TIP3    H129894   3.301   6.258  10.380
 2801TIP3    H229895   3.222   6.348  10.287
 2802TIP3   OH229896   2.265   6.736  10.939
 2802TIP3    H129897   2.335   6.730  10.872
 2802TIP3    H229898   2.271   6.650  10.985
 2803TIP3   OH229899   2.966   6.942  10.270
 2803TIP3    H129900   2.935   7.029  10.297
 2803TIP3    H229901   2.888   6.884  10.280
 2804TIP3   OH229902   1.964   6.578  11.467
 2804TIP3    H129903   1.983   6.534  11.551
 2804TIP3    H229904   1.902   6.516  11.424
 2805TIP3   OH229905   2.665   6.533  11.686
 2805TIP3    H129906   2.635   6.507  11.598
 2805TIP3    H229907   2.758   6.503  11.685
 2806TIP3   OH229908   3.132   7.072  11.475
 2806TIP3    H129909   3.038   7.084  11.455
 2806TIP3    H229910   3.129   7.094  11.571
 2807TIP3   OH229911   3.691   6.291  10.321
 2807TIP3    H129912   3.648   6.258  10.241
 2807TIP3    H229913   3.715   6.380  10.287
 2808TIP3   OH229914   3.700   6.869  11.599
 2808TIP3    H129915   3.611   6.894  11.562
 2808TIP3    H229916   3.755   6.868  11.519
 2809TIP3   OH229917   3.533   7.169  10.361
 2809TIP3    H129918   3.493   7.087  10.391
 2809TIP3    H229919   3.559   7.150  10.271
 2810TIP3   OH229920   3.249   6.651  11.067
 2810TIP3    H129921   3.155   6.628  11.058
 2810TIP3    H229922   3.293   6.573  11.027
 2811TIP3   OH229923   2.506   7.080  10.672
 2811TIP3    H129924   2.549   7.164  10.657
 2811TIP3    H229925   2.414   7.102  10.650
 2812TIP3   OH229926   2.646   6.850  10.630
 2812TIP3    H129927   2.614   6.942  10.640
 2812TIP3    H229928   2.572   6.803  10.674
 2813TIP3   OH229929   2.704   7.247  11.251
 2813TIP3    H129930   2.729   7.340  11.241
 2813TIP3    H229931   2.749   7.230  11.336
 2814TIP3   OH229932   2.484  -0.003  10.554
 2814TIP3    H129933   2.398   0.012  10.594
 2814TIP3    H229934   2.526   0.072  10.602
 2815TIP3   OH229935   3.045   6.871  11.235
 2815TIP3    H129936   3.007   6.848  11.322
 2815TIP3    H229937   3.106   6.797  11.217
 2816TIP3   OH229938   3.270   6.963  10.145
 2816TIP3    H129939   3.302   6.926  10.227
 2816TIP3    H229940   3.174   6.962  10.152
 2817TIP3   OH229941   3.318   7.322  11.483
 2817TIP3    H129942   3.251   7.273  11.434
 2817TIP3    H229943   3.339   7.396  11.422
 2818TIP3   OH229944   2.129   6.052  11.421
 2818TIP3    H129945   2.038   6.087  11.418
 2818TIP3    H229946   2.117   5.967  11.467
 2819TIP3   OH229947   3.355   6.835  10.369
 2819TIP3    H129948   3.331   6.760  10.426
 2819TIP3    H229949   3.451   6.845  10.387
 2820TIP3   OH229950   2.091   7.229  11.265
 2820TIP3    H129951   2.118   7.137  11.265
 2820TIP3    H229952   2.114   7.261  11.353
 2821TIP3   OH229953   2.570   7.038  10.235
 2821TIP3    H129954   2.585   6.982  10.312
 2821TIP3    H229955   2.573   7.127  10.266
 2822TIP3   OH229956   3.001   6.029  11.315
 2822TIP3    H129957   3.072   6.034  11.380
 2822TIP3    H229958   2.963   5.940  11.334
 2823TIP3   OH229959   3.081   5.991  10.423
 2823TIP3    H129960   3.098   6.039  10.342
 2823TIP3    H229961   3.136   6.032  10.491
 2824TIP3   OH229962   2.797   6.166  10.509
 2824TIP3    H129963   2.881   6.215  10.511
 2824TIP3    H229964   2.773   6.148  10.602
 2825TIP3   OH229965   2.854   6.263  11.426
 2825TIP3    H129966   2.863   6.320  11.504
 2825TIP3    H229967   2.920   6.194  11.436
 2826TIP3   OH229968   2.889   5.868  10.602
 2826TIP3    H129969   2.852   5.934  10.662
 2826TIP3    H229970   2.953   5.921  10.550
 2827TIP3   OH229971   3.474   6.051  11.511
 2827TIP3    H129972   3.380   6.081  11.498
 2827TIP3    H229973   3.503   6.052  11.419
 2828TIP3   OH229974   3.334   6.429  10.915
 2828TIP3    H129975   3.252   6.385  10.885
 2828TIP3    H229976   3.382   6.359  10.965
 2829TIP3   OH229977   2.277   7.017  10.178
 2829TIP3    H129978   2.336   7.090  10.199
 2829TIP3    H229979   2.324   6.982  10.102
 2830TIP3   OH229980   2.109   6.289  10.083
 2830TIP3    H129981   2.106   6.382  10.106
 2830TIP3    H229982   2.021   6.265  10.054
 2831TIP3   OH229983   2.190   5.768  10.958
 2831TIP3    H129984   2.169   5.770  10.862
 2831TIP3    H229985   2.148   5.684  10.984
 2832TIP3   OH229986   2.087   7.159  10.570
 2832TIP3    H129987   2.002   7.205  10.572
 2832TIP3    H229988   2.138   7.211  10.508
 2833TIP3   OH229989   2.487   7.289  11.875
 2833TIP3    H129990   2.573   7.257  11.900
 2833TIP3    H229991   2.481   7.279  11.778
 2834TIP3   OH229992   3.130   7.139  11.730
 2834TIP3    H129993   3.092   7.059  11.769
 2834TIP3    H229994   3.199   7.163  11.795
 2835TIP3   OH229995   3.367   7.168   9.987
 2835TIP3    H129996   3.366   7.158  10.082
 2835TIP3    H229997   3.405   7.261   9.977
 2836TIP3   OH229998   2.000   6.803  11.802
 2836TIP3    H129999   2.015   6.712  11.771
 2836TIP3    H230000   1.925   6.831  11.746
 2837TIP3   OH230001   2.670   6.800  11.741
 2837TIP3    H130002   2.635   6.829  11.655
 2837TIP3    H230003   2.680   6.702  11.731
 2838TIP3   OH230004   3.240   6.787  11.480
 2838TIP3    H130005   3.317   6.847  11.471
 2838TIP3    H230006   3.168   6.852  11.484
 2839TIP3   OH230007   2.089   6.525  11.740
 2839TIP3    H130008   2.129   6.438  11.730
 2839TIP3    H230009   2.064   6.524  11.834
 2840TIP3   OH230010   2.480   6.420  11.477
 2840TIP3    H130011   2.419   6.491  11.503
 2840TIP3    H230012   2.518   6.456  11.395
 2841TIP3   OH230013   2.985   6.674  11.808
 2841TIP3    H130014   3.082   6.677  11.800
 2841TIP3    H230015   2.969   6.599  11.866
 2842TIP3   OH230016   3.600   6.693  10.011
 2842TIP3    H130017   3.568   6.653   9.930
 2842TIP3    H230018   3.602   6.788   9.989
 2843TIP3   OH230019   2.519   6.158  11.584
 2843TIP3    H130020   2.531   6.086  11.519
 2843TIP3    H230021   2.515   6.238  11.527
 2844TIP3   OH230022   2.559   5.995  11.337
 2844TIP3    H130023   2.611   6.041  11.267
 2844TIP3    H230024   2.470   5.987  11.295
 2845TIP3   OH230025   2.714   6.542  11.361
 2845TIP3    H130026   2.790   6.526  11.303
 2845TIP3    H230027   2.679   6.626  11.329
 2846TIP3   OH230028   3.154   6.320  11.859
 2846TIP3    H130029   3.176   6.226  11.850
 2846TIP3    H230030   3.241   6.364  11.861
 2847TIP3   OH230031   3.287   6.598  11.673
 2847TIP3    H130032   3.262   6.671  11.612
 2847TIP3    H230033   3.383   6.595  11.654
 2848TIP3   OH230034   2.365   6.282  11.775
 2848TIP3    H130035   2.288   6.224  11.756
 2848TIP3    H230036   2.431   6.246  11.714
 2849TIP3   OH230037   2.638   5.739  11.379
 2849TIP3    H130038   2.624   5.836  11.367
 2849TIP3    H230039   2.563   5.705  11.328
 2850TIP3   OH230040   2.766   6.172  11.737
 2850TIP3    H130041   2.736   6.149  11.828
 2850TIP3    H230042   2.686   6.152  11.684
 2851TIP3   OH230043   3.038   6.085  11.645
 2851TIP3    H130044   2.941   6.090  11.657
 2851TIP3    H230045   3.065   6.022  11.713
 2852TIP3   OH230046   3.198   5.949  11.838
 2852TIP3    H130047   3.190   5.851  11.843
 2852TIP3    H230048   3.169   5.976  11.929
 2853TIP3   OH230049   2.175   6.074  11.748
 2853TIP3    H130050   2.200   6.001  11.688
 2853TIP3    H230051   2.167   6.029  11.834
 2854TIP3   OH230052   2.660   5.675  11.647
 2854TIP3    H130053   2.729   5.607  11.644
 2854TIP3    H230054   2.650   5.694  11.552
 2855TIP3   OH230055   2.695   5.839  11.855
 2855TIP3    H130056   2.680   5.789  11.771
 2855TIP3    H230057   2.636   5.916  11.846
 2856TIP3   OH230058   1.951   7.338  10.806
 2856TIP3    H130059   1.921   7.249  10.826
 2856TIP3    H230060   1.979   7.373  10.892
 2857TIP3   OH230061   3.515   6.951  11.860
 2857TIP3    H130062   3.425   6.947  11.898
 2857TIP3    H230063   3.552   7.032  11.901
 2858TIP3   OH230064   3.645   6.781  10.406
 2858TIP3    H130065   3.731   6.824  10.423
 2858TIP3    H230066   3.647   6.707  10.471
 2859TIP3   OH230067   3.674   6.601  10.598
 2859TIP3    H130068   3.608   6.538  10.631
 2859TIP3    H230069   3.744   6.604  10.667
 2860TIP3   OH230070   3.658   6.863  11.092
 2860TIP3    H130071   3.741   6.826  11.055
 2860TIP3    H230072   3.672   6.958  11.074
 2861TIP3   OH230073   3.510   7.154  11.320
 2861TIP3    H130074   3.444   7.188  11.381
 2861TIP3    H230075   3.457   7.110  11.250
 2862TIP3   OH230076   3.707   6.572  10.235
 2862TIP3    H130077   3.661   6.612  10.158
 2862TIP3    H230078   3.708   6.645  10.298
 2863TIP3   OH230079   3.538   6.297  10.087
 2863TIP3    H130080   3.559   6.366  10.021
 2863TIP3    H230081   3.535   6.218  10.033
 2864TIP3   OH230082   3.459   6.440  10.647
 2864TIP3    H130083   3.451   6.343  10.646
 2864TIP3    H230084   3.430   6.464  10.737
 2865TIP3   OH230085   1.965   6.648  11.054
 2865TIP3    H130086   1.984   6.639  10.958
 2865TIP3    H230087   2.054   6.631  11.091
 2866TIP3   OH230088   3.549   6.636  11.616
 2866TIP3    H130089   3.610   6.561  11.632
 2866TIP3    H230090   3.609   6.713  11.618
 2867TIP3   OH230091   3.700   6.425  11.683
 2867TIP3    H130092   3.612   6.385  11.666
 2867TIP3    H230093   3.758   6.348  11.675
 2868TIP3   OH230094   3.430   6.194  10.488
 2868TIP3    H130095   3.467   6.108  10.511
 2868TIP3    H230096   3.512   6.240  10.458
 2869TIP3   OH230097   3.495   6.251  11.040
 2869TIP3    H130098   3.590   6.277  11.036
 2869TIP3    H230099   3.474   6.267  11.133
 2870TIP3   OH230100   3.501   6.325  11.318
 2870TIP3    H130101   3.413   6.354  11.351
 2870TIP3    H230102   3.544   6.411  11.295
 2871TIP3   OH230103   1.925   6.177  11.668
 2871TIP3    H130104   2.019   6.158  11.689
 2871TIP3    H230105   1.881   6.096  11.700
 2872TIP3   OH230106   3.728   5.729  11.852
 2872TIP3    H130107   3.763   5.663  11.790
 2872TIP3    H230108   3.740   5.811  11.802
 2873TIP3   OH230109   2.046   6.006  10.954
 2873TIP3    H130110   2.093   5.925  10.982
 2873TIP3    H230111   2.099   6.076  10.995
 2874TIP3   OH230112   1.875   6.305  11.060
 2874TIP3    H130113   1.931   6.282  10.982
 2874TIP3    H230114   1.919   6.387  11.086
 2875TIP3   OH230115   3.680   5.939  11.688
 2875TIP3    H130116   3.586   5.966  11.682
 2875TIP3    H230117   3.686   5.885  11.608
 2876TIP3   OH230118   1.910   5.936  10.470
 2876TIP3    H130119   1.816   5.951  10.452
 2876TIP3    H230120   1.954   5.978  10.394
 2877TIP3   OH230121   1.907   5.800  11.297
 2877TIP3    H130122   1.839   5.779  11.364
 2877TIP3    H230123   1.861   5.867  11.242
 2878TIP3   OH230124   2.127   7.123  11.713
 2878TIP3    H130125   2.043   7.139  11.667
 2878TIP3    H230126   2.102   7.111  11.805
 2879TIP3   OH230127   2.423   7.219  11.345
 2879TIP3    H130128   2.378   7.297  11.310
 2879TIP3    H230129   2.512   7.224  11.306
 2880TIP3   OH230130   3.583   5.750  11.469
 2880TIP3    H130131   3.498   5.778  11.431
 2880TIP3    H230132   3.599   5.667  11.419
 2881TIP3   OH230133   2.315   7.268  10.882
 2881TIP3    H130134   2.296   7.181  10.921
 2881TIP3    H230135   2.391   7.291  10.943
 2882TIP3   OH230136   2.532   7.277  11.001
 2882TIP3    H130137   2.594   7.217  10.960
 2882TIP3    H230138   2.573   7.314  11.081
 2883TIP3   OH230139   2.922   5.894  10.901
 2883TIP3    H130140   2.854   5.828  10.927
 2883TIP3    H230141   2.977   5.841  10.841
 2884TIP3   OH230142   3.434   5.700  10.913
 2884TIP3    H130143   3.494   5.756  10.857
 2884TIP3    H230144   3.346   5.732  10.885
 2885TIP3   OH230145   3.595   5.807  10.739
 2885TIP3    H130146   3.669   5.763  10.693
 2885TIP3    H230147   3.640   5.896  10.747
 2886TIP3   OH230148   2.156   5.755  10.687
 2886TIP3    H130149   2.078   5.733  10.633
 2886TIP3    H230150   2.205   5.671  10.680
 2887TIP3   OH230151   2.607   5.748  10.664
 2887TIP3    H130152   2.697   5.784  10.658
 2887TIP3    H230153   2.602   5.724  10.756
 2888TIP3   OH230154   3.175   5.749  10.829
 2888TIP3    H130155   3.172   5.759  10.733
 2888TIP3    H230156   3.138   5.658  10.841
 2889TIP3   OH230157   2.723   5.951  10.351
 2889TIP3    H130158   2.747   5.891  10.422
 2889TIP3    H230159   2.725   6.037  10.396
 2890TIP3   OH230160   2.148   5.809  11.632
 2890TIP3    H130161   2.111   5.730  11.674
 2890TIP3    H230162   2.240   5.807  11.666
 2891TIP3   OH230163   2.348   5.745  11.792
 2891TIP3    H130164   2.438   5.714  11.771
 2891TIP3    H230165   2.311   5.666  11.835
 2892TIP3   OH230166   3.188   5.675  11.807
 2892TIP3    H130167   3.196   5.631  11.895
 2892TIP3    H230168   3.280   5.674  11.776
 2893TIP3   OH230169   3.501   7.275  11.685
 2893TIP3    H130170   3.429   7.265  11.619
 2893TIP3    H230171   3.506   7.371  11.694
 2894TIP3   OH230172   4.951   6.666  10.675
 2894TIP3    H130173   4.955   6.764  10.666
 2894TIP3    H230174   4.881   6.644  10.612
 2895TIP3   OH230175   4.838   6.595  11.022
 2895TIP3    H130176   4.837   6.529  11.092
 2895TIP3    H230177   4.806   6.546  10.945
 2896TIP3   OH230178   4.075   6.560  11.177
 2896TIP3    H130179   4.083   6.493  11.249
 2896TIP3    H230180   4.149   6.619  11.199
 2897TIP3   OH230181   5.209   6.889  10.848
 2897TIP3    H130182   5.166   6.818  10.897
 2897TIP3    H230183   5.210   6.960  10.915
 2898TIP3   OH230184   4.169   7.005  11.031
 2898TIP3    H130185   4.135   6.920  10.996
 2898TIP3    H230186   4.264   6.985  11.035
 2899TIP3   OH230187   3.845   6.425  10.529
 2899TIP3    H130188   3.773   6.468  10.573
 2899TIP3    H230189   3.801   6.335  10.522
 2900TIP3   OH230190   3.902   6.587  10.790
 2900TIP3    H130191   3.926   6.503  10.834
 2900TIP3    H230192   3.972   6.593  10.722
 2901TIP3   OH230193   4.676   6.834  11.067
 2901TIP3    H130194   4.710   6.771  11.001
 2901TIP3    H230195   4.755   6.851  11.120
 2902TIP3   OH230196   5.539   5.999  11.143
 2902TIP3    H130197   5.553   6.060  11.219
 2902TIP3    H230198   5.592   6.043  11.075
 2903TIP3   OH230199   4.993   6.282  11.098
 2903TIP3    H130200   5.009   6.185  11.098
 2903TIP3    H230201   4.984   6.297  11.002
 2904TIP3   OH230202   5.078   6.101  10.660
 2904TIP3    H130203   5.145   6.068  10.725
 2904TIP3    H230204   5.135   6.153  10.602
 2905TIP3   OH230205   3.969   6.330  10.896
 2905TIP3    H130206   4.036   6.275  10.939
 2905TIP3    H230207   3.974   6.300  10.803
 2906TIP3   OH230208   4.483   6.485  10.824
 2906TIP3    H130209   4.551   6.430  10.867
 2906TIP3    H230210   4.432   6.420  10.778
 2907TIP3   OH230211   5.583   6.143  11.369
 2907TIP3    H130212   5.518   6.216  11.359
 2907TIP3    H230213   5.584   6.129  11.464
 2908TIP3   OH230214   4.192   5.978  11.226
 2908TIP3    H130215   4.168   6.037  11.153
 2908TIP3    H230216   4.126   6.004  11.295
 2909TIP3   OH230217   4.929   6.929  10.579
 2909TIP3    H130218   4.892   6.900  10.495
 2909TIP3    H230219   4.893   7.020  10.585
 2910TIP3   OH230220   4.447   6.744  11.252
 2910TIP3    H130221   4.375   6.808  11.270
 2910TIP3    H230222   4.517   6.804  11.223
 2911TIP3   OH230223   5.257   6.032  10.858
 2911TIP3    H130224   5.237   5.955  10.912
 2911TIP3    H230225   5.324   6.077  10.910
 2912TIP3   OH230226   4.151   6.166  11.026
 2912TIP3    H130227   4.213   6.234  11.061
 2912TIP3    H230228   4.202   6.122  10.958
 2913TIP3   OH230229   4.291   6.943  11.333
 2913TIP3    H130230   4.287   7.033  11.297
 2913TIP3    H230231   4.202   6.937  11.376
 2914TIP3   OH230232   3.893   6.908  10.415
 2914TIP3    H130233   3.875   6.934  10.324
 2914TIP3    H230234   3.909   6.992  10.460
 2915TIP3   OH230235   5.262   7.075  11.089
 2915TIP3    H130236   5.165   7.080  11.099
 2915TIP3    H230237   5.289   7.165  11.067
 2916TIP3   OH230238   5.293   5.902  11.226
 2916TIP3    H130239   5.220   5.964  11.219
 2916TIP3    H230240   5.363   5.944  11.173
 2917TIP3   OH230241   4.592   5.713  10.975
 2917TIP3    H130242   4.577   5.617  10.964
 2917TIP3    H230243   4.503   5.743  11.001
 2918TIP3   OH230244   5.087   7.233  10.740
 2918TIP3    H130245   5.137   7.169  10.689
 2918TIP3    H230246   5.123   7.317  10.707
 2919TIP3   OH230247   5.212   7.042  10.596
 2919TIP3    H130248   5.176   6.973  10.539
 2919TIP3    H230249   5.211   6.996  10.683
 2920TIP3   OH230250   5.370   6.902  11.447
 2920TIP3    H130251   5.384   6.838  11.374
 2920TIP3    H230252   5.391   6.987  11.405
 2921TIP3   OH230253   4.822   6.592  10.423
 2921TIP3    H130254   4.749   6.648  10.389
 2921TIP3    H230255   4.887   6.607  10.355
 2922TIP3   OH230256   4.825   6.439  10.128
 2922TIP3    H130257   4.894   6.442  10.194
 2922TIP3    H230258   4.853   6.374  10.062
 2923TIP3   OH230259   5.558   6.533  11.253
 2923TIP3    H130260   5.491   6.605  11.257
 2923TIP3    H230261   5.605   6.556  11.171
 2924TIP3   OH230262   5.155   6.430  11.427
 2924TIP3    H130263   5.157   6.511  11.480
 2924TIP3    H230264   5.092   6.460  11.358
 2925TIP3   OH230265   4.324   6.679  10.708
 2925TIP3    H130266   4.293   6.643  10.621
 2925TIP3    H230267   4.387   6.611  10.740
 2926TIP3   OH230268   4.459   7.019  10.976
 2926TIP3    H130269   4.455   6.964  10.897
 2926TIP3    H230270   4.536   6.983  11.022
 2927TIP3   OH230271   4.360   6.553  11.072
 2927TIP3    H130272   4.416   6.568  10.994
 2927TIP3    H230273   4.395   6.620  11.135
 2928TIP3   OH230274   4.996   7.110  11.143
 2928TIP3    H130275   4.968   7.173  11.207
 2928TIP3    H230276   4.972   7.024  11.186
 2929TIP3   OH230277   4.453   6.998  11.542
 2929TIP3    H130278   4.413   7.073  11.591
 2929TIP3    H230279   4.385   6.978  11.473
 2930TIP3   OH230280   4.146   6.613  11.460
 2930TIP3    H130281   4.150   6.680  11.532
 2930TIP3    H230282   4.053   6.624  11.435
 2931TIP3   OH230283   4.819   7.204  10.631
 2931TIP3    H130284   4.868   7.235  10.707
 2931TIP3    H230285   4.766   7.281  10.605
 2932TIP3   OH230286   4.275   7.204  11.616
 2932TIP3    H130287   4.272   7.188  11.520
 2932TIP3    H230288   4.181   7.189  11.643
 2933TIP3   OH230289   4.222   6.587  10.470
 2933TIP3    H130290   4.195   6.663  10.416
 2933TIP3    H230291   4.157   6.519  10.447
 2934TIP3   OH230292   3.831   6.825  11.355
 2934TIP3    H130293   3.785   6.817  11.269
 2934TIP3    H230294   3.836   6.730  11.379
 2935TIP3   OH230295   3.810   7.101  11.033
 2935TIP3    H130296   3.905   7.087  11.033
 2935TIP3    H230297   3.799   7.179  11.090
 2936TIP3   OH230298   5.628   7.167  11.606
 2936TIP3    H130299   5.619   7.071  11.600
 2936TIP3    H230300   5.542   7.194  11.644
 2937TIP3   OH230301   4.724   7.126  11.488
 2937TIP3    H130302   4.735   7.205  11.541
 2937TIP3    H230303   4.640   7.087  11.518
 2938TIP3   OH230304   5.347   6.316  11.652
 2938TIP3    H130305   5.300   6.362  11.580
 2938TIP3    H230306   5.344   6.224  11.620
 2939TIP3   OH230307   4.059   6.957  11.453
 2939TIP3    H130308   4.081   6.918  11.540
 2939TIP3    H230309   3.973   6.916  11.430
 2940TIP3   OH230310   4.324   5.803  11.049
 2940TIP3    H130311   4.235   5.791  11.011
 2940TIP3    H230312   4.316   5.887  11.096
 2941TIP3   OH230313   4.790   5.772  11.385
 2941TIP3    H130314   4.830   5.729  11.463
 2941TIP3    H230315   4.693   5.757  11.399
 2942TIP3   OH230316   5.120   6.153  11.474
 2942TIP3    H130317   5.065   6.134  11.553
 2942TIP3    H230318   5.102   6.245  11.450
 2943TIP3   OH230319   4.334   6.298  11.167
 2943TIP3    H130320   4.264   6.297  11.235
 2943TIP3    H230321   4.333   6.392  11.137
 2944TIP3   OH230322   4.880   6.357  10.531
 2944TIP3    H130323   4.842   6.444  10.507
 2944TIP3    H230324   4.955   6.350  10.472
 2945TIP3   OH230325   4.792   6.383  11.680
 2945TIP3    H130326   4.737   6.307  11.712
 2945TIP3    H230327   4.875   6.369  11.728
 2946TIP3   OH230328   4.986   6.310  10.819
 2946TIP3    H130329   4.962   6.368  10.745
 2946TIP3    H230330   4.999   6.225  10.772
 2947TIP3   OH230331   4.101   6.328  11.342
 2947TIP3    H130332   4.105   6.368  11.431
 2947TIP3    H230333   4.055   6.244  11.361
 2948TIP3   OH230334   3.770   5.971  10.778
 2948TIP3    H130335   3.829   6.041  10.809
 2948TIP3    H230336   3.793   5.998  10.683
 2949TIP3   OH230337   4.909   6.471  11.278
 2949TIP3    H130338   4.945   6.403  11.217
 2949TIP3    H230339   4.863   6.417  11.345
 2950TIP3   OH230340   4.587   6.069  10.761
 2950TIP3    H130341   4.496   6.067  10.789
 2950TIP3    H230342   4.637   6.052  10.842
 2951TIP3   OH230343   5.029   5.990  11.085
 2951TIP3    H130344   4.960   5.997  11.155
 2951TIP3    H230345   4.978   5.968  11.006
 2952TIP3   OH230346   4.117   6.802  11.674
 2952TIP3    H130347   4.189   6.826  11.734
 2952TIP3    H230348   4.039   6.815  11.732
 2953TIP3   OH230349   4.715   6.342  10.948
 2953TIP3    H130350   4.777   6.289  10.895
 2953TIP3    H230351   4.705   6.289  11.029
 2954TIP3   OH230352   4.581   6.177  11.190
 2954TIP3    H130353   4.498   6.227  11.202
 2954TIP3    H230354   4.636   6.210  11.264
 2955TIP3   OH230355   5.356   6.717  11.240
 2955TIP3    H130356   5.414   6.765  11.179
 2955TIP3    H230357   5.271   6.725  11.193
 2956TIP3   OH230358   4.788   6.825  11.484
 2956TIP3    H130359   4.754   6.782  11.563
 2956TIP3    H230360   4.766   6.918  11.494
 2957TIP3   OH230361   4.151   6.736  10.939
 2957TIP3    H130362   4.221   6.730  10.871
 2957TIP3    H230363   4.157   6.650  10.985
 2958TIP3   OH230364   3.849   6.578  11.467
 2958TIP3    H130365   3.869   6.534  11.551
 2958TIP3    H230366   3.788   6.516  11.423
 2959TIP3   OH230367   4.551   6.533  11.686
 2959TIP3    H130368   4.520   6.507  11.598
 2959TIP3    H230369   4.644   6.504  11.685
 2960TIP3   OH230370   5.017   7.072  11.475
 2960TIP3    H130371   4.923   7.084  11.455
 2960TIP3    H230372   5.015   7.094  11.571
 2961TIP3   OH230373   5.584   6.290  10.317
 2961TIP3    H130374   5.532   6.248  10.245
 2961TIP3    H230375   5.596   6.382  10.289
 2962TIP3   OH230376   5.585   6.870  11.599
 2962TIP3    H130377   5.496   6.894  11.562
 2962TIP3    H230378   5.640   6.868  11.519
 2963TIP3   OH230379   5.417   7.171  10.359
 2963TIP3    H130380   5.381   7.087  10.393
 2963TIP3    H230381   5.445   7.148  10.271
 2964TIP3   OH230382   5.135   6.650  11.068
 2964TIP3    H130383   5.041   6.628  11.058
 2964TIP3    H230384   5.178   6.573  11.027
 2965TIP3   OH230385   4.386   7.083  10.682
 2965TIP3    H130386   4.438   7.159  10.653
 2965TIP3    H230387   4.300   7.104  10.645
 2966TIP3   OH230388   4.531   6.848  10.638
 2966TIP3    H130389   4.502   6.940  10.637
 2966TIP3    H230390   4.454   6.803  10.675
 2967TIP3   OH230391   4.590   7.247  11.251
 2967TIP3    H130392   4.615   7.340  11.240
 2967TIP3    H230393   4.635   7.230  11.336
 2968TIP3   OH230394   4.366  -0.002  10.558
 2968TIP3    H130395   4.282   0.015  10.597
 2968TIP3    H230396   4.416   0.071  10.602
 2969TIP3   OH230397   4.931   6.871  11.235
 2969TIP3    H130398   4.893   6.848  11.322
 2969TIP3    H230399   4.992   6.797  11.217
 2970TIP3   OH230400   5.203   7.322  11.483
 2970TIP3    H130401   5.136   7.273  11.434
 2970TIP3    H230402   5.224   7.396  11.422
 2971TIP3   OH230403   4.013   6.051  11.419
 2971TIP3    H130404   3.923   6.088  11.420
 2971TIP3    H230405   4.004   5.967  11.468
 2972TIP3   OH230406   3.977   7.229  11.265
 2972TIP3    H130407   4.003   7.137  11.265
 2972TIP3    H230408   3.999   7.261  11.353
 2973TIP3   OH230409   4.887   6.029  11.315
 2973TIP3    H130410   4.958   6.034  11.380
 2973TIP3    H230411   4.849   5.940  11.334
 2974TIP3   OH230412   4.735   7.211  10.311
 2974TIP3    H130413   4.647   7.251  10.311
 2974TIP3    H230414   4.784   7.253  10.241
 2975TIP3   OH230415   4.692   6.158  10.505
 2975TIP3    H130416   4.764   6.222  10.513
 2975TIP3    H230417   4.658   6.151  10.596
 2976TIP3   OH230418   4.740   6.263  11.426
 2976TIP3    H130419   4.749   6.320  11.504
 2976TIP3    H230420   4.806   6.194  11.436
 2977TIP3   OH230421   4.774   5.870  10.592
 2977TIP3    H130422   4.737   5.928  10.662
 2977TIP3    H230423   4.841   5.927  10.555
 2978TIP3   OH230424   4.471  -0.028  10.304
 2978TIP3    H130425   4.487   0.054  10.259
 2978TIP3    H230426   4.444  -0.004  10.395
 2979TIP3   OH230427   5.359   6.051  11.511
 2979TIP3    H130428   5.266   6.081  11.498
 2979TIP3    H230429   5.389   6.051  11.419
 2980TIP3   OH230430   5.219   6.430  10.917
 2980TIP3    H130431   5.138   6.386  10.883
 2980TIP3    H230432   5.266   6.359  10.966
 2981TIP3   OH230433   4.177   7.004  10.188
 2981TIP3    H130434   4.219   7.090  10.199
 2981TIP3    H230435   4.210   6.980  10.101
 2982TIP3   OH230436   4.068   5.771  10.957
 2982TIP3    H130437   4.057   5.769  10.860
 2982TIP3    H230438   4.036   5.681  10.983
 2983TIP3   OH230439   3.975   7.158  10.581
 2983TIP3    H130440   3.888   7.202  10.569
 2983TIP3    H230441   4.019   7.205  10.509
 2984TIP3   OH230442   4.372   7.289  11.875
 2984TIP3    H130443   4.458   7.257  11.900
 2984TIP3    H230444   4.366   7.279  11.778
 2985TIP3   OH230445   5.015   7.140  11.730
 2985TIP3    H130446   4.978   7.059  11.768
 2985TIP3    H230447   5.085   7.163  11.795
 2986TIP3   OH230448   5.234   7.249  10.028
 2986TIP3    H130449   5.256   7.166  10.070
 2986TIP3    H230450   5.304   7.265   9.966
 2987TIP3   OH230451   3.885   6.803  11.802
 2987TIP3    H130452   3.901   6.712  11.771
 2987TIP3    H230453   3.810   6.831  11.746
 2988TIP3   OH230454   4.313   6.832  10.001
 2988TIP3    H130455   4.329   6.761  10.065
 2988TIP3    H230456   4.391   6.829   9.945
 2989TIP3   OH230457   4.556   6.800  11.741
 2989TIP3    H130458   4.521   6.829  11.655
 2989TIP3    H230459   4.565   6.702  11.731
 2990TIP3   OH230460   5.125   6.787  11.480
 2990TIP3    H130461   5.203   6.847  11.471
 2990TIP3    H230462   5.053   6.852  11.484
 2991TIP3   OH230463   3.974   6.525  11.740
 2991TIP3    H130464   4.015   6.438  11.730
 2991TIP3    H230465   3.950   6.525  11.834
 2992TIP3   OH230466   4.366   6.420  11.477
 2992TIP3    H130467   4.305   6.492  11.504
 2992TIP3    H230468   4.403   6.456  11.395
 2993TIP3   OH230469   4.871   6.675  11.808
 2993TIP3    H130470   4.967   6.676  11.800
 2993TIP3    H230471   4.854   6.599  11.866
 2994TIP3   OH230472   4.405   6.158  11.584
 2994TIP3    H130473   4.417   6.085  11.519
 2994TIP3    H230474   4.401   6.238  11.528
 2995TIP3   OH230475   4.444   5.995  11.335
 2995TIP3    H130476   4.497   6.042  11.267
 2995TIP3    H230477   4.355   5.987  11.294
 2996TIP3   OH230478   4.600   6.542  11.361
 2996TIP3    H130479   4.675   6.526  11.303
 2996TIP3    H230480   4.565   6.626  11.329
 2997TIP3   OH230481   5.040   6.320  11.859
 2997TIP3    H130482   5.063   6.227  11.849
 2997TIP3    H230483   5.126   6.364  11.859
 2998TIP3   OH230484   5.173   6.598  11.672
 2998TIP3    H130485   5.147   6.671  11.612
 2998TIP3    H230486   5.269   6.595  11.654
 2999TIP3   OH230487   4.251   6.282  11.775
 2999TIP3    H130488   4.174   6.224  11.756
 2999TIP3    H230489   4.317   6.246  11.713
 3000TIP3   OH230490   4.524   5.739  11.378
 3000TIP3    H130491   4.509   5.836  11.367
 3000TIP3    H230492   4.449   5.703  11.327
 3001TIP3   OH230493   4.651   6.172  11.737
 3001TIP3    H130494   4.622   6.149  11.827
 3001TIP3    H230495   4.572   6.152  11.684
 3002TIP3   OH230496   4.923   6.086  11.645
 3002TIP3    H130497   4.827   6.090  11.657
 3002TIP3    H230498   4.951   6.022  11.713
 3003TIP3   OH230499   5.083   5.949  11.839
 3003TIP3    H130500   5.076   5.851  11.841
 3003TIP3    H230501   5.055   5.977  11.928
 3004TIP3   OH230502   4.061   6.074  11.748
 3004TIP3    H130503   4.086   6.001  11.688
 3004TIP3    H230504   4.053   6.029  11.834
 3005TIP3   OH230505   4.545   5.676  11.647
 3005TIP3    H130506   4.615   5.607  11.643
 3005TIP3    H230507   4.535   5.694  11.551
 3006TIP3   OH230508   4.582   5.839  11.855
 3006TIP3    H130509   4.566   5.790  11.771
 3006TIP3    H230510   4.521   5.915  11.846
 3007TIP3   OH230511   3.836   7.338  10.806
 3007TIP3    H130512   3.807   7.249  10.826
 3007TIP3    H230513   3.865   7.372  10.892
 3008TIP3   OH230514   5.401   6.951  11.861
 3008TIP3    H130515   5.311   6.947  11.898
 3008TIP3    H230516   5.439   7.032  11.902
 3009TIP3   OH230517   5.570   6.588  10.590
 3009TIP3    H130518   5.495   6.542  10.632
 3009TIP3    H230519   5.628   6.607  10.667
 3010TIP3   OH230520   5.544   6.863  11.091
 3010TIP3    H130521   5.626   6.826  11.055
 3010TIP3    H230522   5.558   6.958  11.074
 3011TIP3   OH230523   5.395   7.154  11.320
 3011TIP3    H130524   5.329   7.188  11.381
 3011TIP3    H230525   5.342   7.110  11.250
 3012TIP3   OH230526   5.353   6.438  10.648
 3012TIP3    H130527   5.333   6.344  10.647
 3012TIP3    H230528   5.314   6.464  10.734
 3013TIP3   OH230529   3.850   6.647  11.053
 3013TIP3    H130530   3.870   6.638  10.957
 3013TIP3    H230531   3.939   6.632  11.091
 3014TIP3   OH230532   5.434   6.636  11.618
 3014TIP3    H130533   5.495   6.561  11.630
 3014TIP3    H230534   5.493   6.714  11.617
 3015TIP3   OH230535   5.586   6.423  11.690
 3015TIP3    H130536   5.497   6.387  11.665
 3015TIP3    H230537   5.642   6.347  11.667
 3016TIP3   OH230538   5.314   6.195  10.494
 3016TIP3    H130539   5.348   6.103  10.508
 3016TIP3    H230540   5.393   6.237  10.458
 3017TIP3   OH230541   5.380   6.251  11.039
 3017TIP3    H130542   5.476   6.276  11.037
 3017TIP3    H230543   5.360   6.266  11.133
 3018TIP3   OH230544   5.387   6.325  11.318
 3018TIP3    H130545   5.299   6.354  11.351
 3018TIP3    H230546   5.430   6.411  11.295
 3019TIP3   OH230547   3.811   6.177  11.668
 3019TIP3    H130548   3.905   6.158  11.689
 3019TIP3    H230549   3.766   6.096  11.700
 3020TIP3   OH230550   5.613   5.728  11.853
 3020TIP3    H130551   5.648   5.663  11.790
 3020TIP3    H230552   5.626   5.810  11.801
 3021TIP3   OH230553   5.381   5.926  10.501
 3021TIP3    H130554   5.403   5.880  10.584
 3021TIP3    H230555   5.323   5.862  10.453
 3022TIP3   OH230556   3.936   6.007  10.966
 3022TIP3    H130557   3.992   5.928  10.979
 3022TIP3    H230558   3.989   6.081  10.995
 3023TIP3   OH230559   3.762   6.303  11.061
 3023TIP3    H130560   3.816   6.284  10.980
 3023TIP3    H230561   3.804   6.388  11.086
 3024TIP3   OH230562   5.566   5.942  11.687
 3024TIP3    H130563   5.471   5.964  11.681
 3024TIP3    H230564   5.572   5.885  11.608
 3025TIP3   OH230565   3.791   5.799  11.294
 3025TIP3    H130566   3.727   5.778  11.366
 3025TIP3    H230567   3.743   5.870  11.249
 3026TIP3   OH230568   4.013   7.123  11.713
 3026TIP3    H130569   3.928   7.139  11.667
 3026TIP3    H230570   3.988   7.111  11.805
 3027TIP3   OH230571   4.309   7.219  11.345
 3027TIP3    H130572   4.264   7.297  11.310
 3027TIP3    H230573   4.398   7.224  11.306
 3028TIP3   OH230574   5.467   5.749  11.471
 3028TIP3    H130575   5.384   5.779  11.430
 3028TIP3    H230576   5.485   5.668  11.418
 3029TIP3   OH230577   4.199   7.268  10.884
 3029TIP3    H130578   4.182   7.180  10.921
 3029TIP3    H230579   4.277   7.290  10.942
 3030TIP3   OH230580   4.417   7.276  11.002
 3030TIP3    H130581   4.480   7.218  10.959
 3030TIP3    H230582   4.460   7.314  11.080
 3031TIP3   OH230583   4.807   5.892  10.901
 3031TIP3    H130584   4.739   5.827  10.927
 3031TIP3    H230585   4.863   5.840  10.842
 3032TIP3   OH230586   5.321   5.698  10.910
 3032TIP3    H130587   5.382   5.757  10.858
 3032TIP3    H230588   5.233   5.733  10.885
 3033TIP3   OH230589   5.489   5.820  10.739
 3033TIP3    H130590   5.557   5.764  10.694
 3033TIP3    H230591   5.536   5.906  10.747
 3034TIP3   OH230592   5.059   5.749  10.829
 3034TIP3    H130593   5.059   5.759  10.733
 3034TIP3    H230594   5.024   5.658  10.842
 3035TIP3   OH230595   5.189   5.755  10.404
 3035TIP3    H130596   5.120   5.812  10.373
 3035TIP3    H230597   5.147   5.667  10.413
 3036TIP3   OH230598   3.892  -0.035  10.393
 3036TIP3    H130599   3.857  -0.035  10.302
 3036TIP3    H230600   3.921   0.055  10.395
 3037TIP3   OH230601   4.622   5.951  10.350
 3037TIP3    H130602   4.628   5.891  10.425
 3037TIP3    H230603   4.607   6.037  10.396
 3038TIP3   OH230604   4.033   5.810  11.632
 3038TIP3    H130605   3.997   5.730  11.674
 3038TIP3    H230606   4.125   5.806  11.667
 3039TIP3   OH230607   4.233   5.746  11.792
 3039TIP3    H130608   4.323   5.713  11.772
 3039TIP3    H230609   4.196   5.666  11.835
 3040TIP3   OH230610   5.073   5.677  11.809
 3040TIP3    H130611   5.083   5.629  11.894
 3040TIP3    H230612   5.165   5.674  11.774
 3041TIP3   OH230613   5.387   7.274  11.684
 3041TIP3    H130614   5.315   7.265  11.619
 3041TIP3    H230615   5.391   7.371  11.694
 3042TIP3   OH230616   6.836   6.666  10.676
 3042TIP3    H130617   6.841   6.765  10.668
 3042TIP3    H230618   6.767   6.647  10.613
 3043TIP3   OH230619   6.722   6.593  11.021
 3043TIP3    H130620   6.723   6.529  11.092
 3043TIP3    H230621   6.692   6.545  10.943
 3044TIP3   OH230622   5.960   6.560  11.177
 3044TIP3    H130623   5.968   6.493  11.249
 3044TIP3    H230624   6.034   6.619  11.199
 3045TIP3   OH230625   7.123   6.882  10.839
 3045TIP3    H130626   7.057   6.826  10.887
 3045TIP3    H230627   7.100   6.953  10.904
 3046TIP3   OH230628   6.055   7.005  11.030
 3046TIP3    H130629   6.021   6.920  10.996
 3046TIP3    H230630   6.150   6.985  11.035
 3047TIP3   OH230631   5.720   6.365  10.571
 3047TIP3    H130632   5.672   6.451  10.572
 3047TIP3    H230633   5.661   6.309  10.520
 3048TIP3   OH230634   5.787   6.585  10.787
 3048TIP3    H130635   5.813   6.504  10.835
 3048TIP3    H230636   5.860   6.595  10.724
 3049TIP3   OH230637   6.560   6.832  11.068
 3049TIP3    H130638   6.599   6.773  11.002
 3049TIP3    H230639   6.642   6.852  11.117
 3050TIP3   OH230640   6.877   6.280  11.098
 3050TIP3    H130641   6.895   6.185  11.098
 3050TIP3    H230642   6.869   6.296  11.001
 3051TIP3   OH230643   6.191   6.090  10.822
 3051TIP3    H130644   6.200   6.174  10.775
 3051TIP3    H230645   6.150   6.033  10.754
 3052TIP3   OH230646   6.965   6.098  10.658
 3052TIP3    H130647   7.031   6.069  10.727
 3052TIP3    H230648   7.019   6.156  10.602
 3053TIP3   OH230649   5.853   6.330  10.896
 3053TIP3    H130650   5.921   6.275  10.940
 3053TIP3    H230651   5.862   6.300  10.804
 3054TIP3   OH230652   6.371   6.486  10.824
 3054TIP3    H130653   6.435   6.428  10.868
 3054TIP3    H230654   6.315   6.420  10.778
 3055TIP3   OH230655   6.079   5.980  11.227
 3055TIP3    H130656   6.053   6.036  11.151
 3055TIP3    H230657   6.011   6.003  11.294
 3056TIP3   OH230658   6.811   6.927  10.584
 3056TIP3    H130659   6.784   6.902  10.494
 3056TIP3    H230660   6.782   7.020  10.586
 3057TIP3   OH230661   6.333   6.744  11.252
 3057TIP3    H130662   6.261   6.808  11.270
 3057TIP3    H230663   6.404   6.803  11.222
 3058TIP3   OH230664   7.130   6.029  10.862
 3058TIP3    H130665   7.120   5.952  10.917
 3058TIP3    H230666   7.202   6.078  10.909
 3059TIP3   OH230667   6.036   6.167  11.027
 3059TIP3    H130668   6.099   6.234  11.060
 3059TIP3    H230669   6.089   6.123  10.956
 3060TIP3   OH230670   6.177   6.943  11.333
 3060TIP3    H130671   6.172   7.033  11.297
 3060TIP3    H230672   6.087   6.937  11.376
 3061TIP3   OH230673   5.782   6.911  10.414
 3061TIP3    H130674   5.761   6.935  10.323
 3061TIP3    H230675   5.795   6.994  10.462
 3062TIP3   OH230676   7.144   7.075  11.099
 3062TIP3    H130677   7.046   7.075  11.097
 3062TIP3    H230678   7.171   7.162  11.067
 3063TIP3   OH230679   7.170   5.908  11.216
 3063TIP3    H130680   7.097   5.971  11.219
 3063TIP3    H230681   7.241   5.953  11.170
 3064TIP3   OH230682   6.477   5.713  10.972
 3064TIP3    H130683   6.464   5.616  10.966
 3064TIP3    H230684   6.389   5.744  11.002
 3065TIP3   OH230685   6.974   7.235  10.738
 3065TIP3    H130686   7.024   7.167  10.689
 3065TIP3    H230687   7.011   7.317  10.706
 3066TIP3   OH230688   7.095   7.042  10.599
 3066TIP3    H130689   7.063   6.974  10.537
 3066TIP3    H230690   7.097   6.993  10.684
 3067TIP3   OH230691   7.236   6.911  11.454
 3067TIP3    H130692   7.265   6.844  11.388
 3067TIP3    H230693   7.276   6.989  11.411
 3068TIP3   OH230694   7.048   6.615  10.516
 3068TIP3    H130695   6.974   6.640  10.576
 3068TIP3    H230696   7.094   6.547  10.570
 3069TIP3   OH230697   7.037   6.428  11.426
 3069TIP3    H130698   7.042   6.509  11.480
 3069TIP3    H230699   6.977   6.462  11.355
 3070TIP3   OH230700   6.212   6.680  10.707
 3070TIP3    H130701   6.178   6.641  10.623
 3070TIP3    H230702   6.271   6.610  10.742
 3071TIP3   OH230703   6.343   7.019  10.975
 3071TIP3    H130704   6.342   6.964  10.896
 3071TIP3    H230705   6.422   6.983  11.022
 3072TIP3   OH230706   6.244   6.554  11.072
 3072TIP3    H130707   6.301   6.566  10.993
 3072TIP3    H230708   6.281   6.620  11.134
 3073TIP3   OH230709   6.881   7.126  11.153
 3073TIP3    H130710   6.848   7.178  11.222
 3073TIP3    H230711   6.861   7.031  11.179
 3074TIP3   OH230712   6.338   6.998  11.543
 3074TIP3    H130713   6.299   7.073  11.591
 3074TIP3    H230714   6.271   6.978  11.473
 3075TIP3   OH230715   6.940   6.528  10.286
 3075TIP3    H130716   6.989   6.553  10.365
 3075TIP3    H230717   6.972   6.582  10.214
 3076TIP3   OH230718   6.032   6.613  11.460
 3076TIP3    H130719   6.036   6.681  11.530
 3076TIP3    H230720   5.939   6.624  11.434
 3077TIP3   OH230721   6.704   7.205  10.631
 3077TIP3    H130722   6.755   7.235  10.707
 3077TIP3    H230723   6.651   7.281  10.605
 3078TIP3   OH230724   6.160   7.205  11.616
 3078TIP3    H130725   6.158   7.188  11.520
 3078TIP3    H230726   6.067   7.189  11.643
 3079TIP3   OH230727   7.304   5.709  10.269
 3079TIP3    H130728   7.210   5.720  10.295
 3079TIP3    H230729   7.325   5.791  10.225
 3080TIP3   OH230730   6.108   6.584  10.469
 3080TIP3    H130731   6.079   6.661  10.418
 3080TIP3    H230732   6.041   6.517  10.448
 3081TIP3   OH230733   5.717   6.824  11.355
 3081TIP3    H130734   5.671   6.817  11.269
 3081TIP3    H230735   5.722   6.730  11.379
 3082TIP3   OH230736   5.695   7.101  11.033
 3082TIP3    H130737   5.790   7.087  11.034
 3082TIP3    H230738   5.685   7.179  11.090
 3083TIP3   OH230739   6.610   7.126  11.488
 3083TIP3    H130740   6.621   7.205  11.541
 3083TIP3    H230741   6.525   7.087  11.518
 3084TIP3   OH230742   7.204   6.325  11.656
 3084TIP3    H130743   7.184   6.365  11.572
 3084TIP3    H230744   7.235   6.235  11.627
 3085TIP3   OH230745   5.945   6.957  11.453
 3085TIP3    H130746   5.967   6.918  11.540
 3085TIP3    H230747   5.859   6.916  11.430
 3086TIP3   OH230748   6.211   5.802  11.049
 3086TIP3    H130749   6.121   5.792  11.011
 3086TIP3    H230750   6.200   5.887  11.095
 3087TIP3   OH230751   6.675   5.771  11.385
 3087TIP3    H130752   6.715   5.729  11.463
 3087TIP3    H230753   6.578   5.757  11.399
 3088TIP3   OH230754   7.004   6.152  11.473
 3088TIP3    H130755   6.951   6.135  11.554
 3088TIP3    H230756   6.988   6.245  11.451
 3089TIP3   OH230757   6.221   6.299  11.169
 3089TIP3    H130758   6.149   6.297  11.235
 3089TIP3    H230759   6.218   6.392  11.136
 3090TIP3   OH230760   6.217   6.315  10.658
 3090TIP3    H130761   6.124   6.287  10.645
 3090TIP3    H230762   6.257   6.282  10.575
 3091TIP3   OH230763   6.770   6.361  10.533
 3091TIP3    H130764   6.729   6.443  10.500
 3091TIP3    H230765   6.841   6.350  10.468
 3092TIP3   OH230766   6.677   6.383  11.680
 3092TIP3    H130767   6.624   6.307  11.712
 3092TIP3    H230768   6.761   6.370  11.728
 3093TIP3   OH230769   6.873   6.311  10.819
 3093TIP3    H130770   6.849   6.368  10.744
 3093TIP3    H230771   6.885   6.225  10.774
 3094TIP3   OH230772   5.986   6.328  11.342
 3094TIP3    H130773   5.991   6.369  11.430
 3094TIP3    H230774   5.941   6.244  11.361
 3095TIP3   OH230775   6.324   6.066  10.027
 3095TIP3    H130776   6.280   6.021  10.101
 3095TIP3    H230777   6.252   6.103   9.975
 3096TIP3   OH230778   5.650   6.039  10.736
 3096TIP3    H130779   5.717   6.035  10.807
 3096TIP3    H230780   5.696   5.999  10.660
 3097TIP3   OH230781   5.778   6.114  10.278
 3097TIP3    H130782   5.826   6.171  10.217
 3097TIP3    H230783   5.706   6.171  10.307
 3098TIP3   OH230784   6.794   6.469  11.279
 3098TIP3    H130785   6.831   6.404  11.216
 3098TIP3    H230786   6.749   6.415  11.346
 3099TIP3   OH230787   6.474   6.067  10.759
 3099TIP3    H130788   6.380   6.068  10.790
 3099TIP3    H230789   6.523   6.053  10.842
 3100TIP3   OH230790   5.955   6.223  10.647
 3100TIP3    H130791   5.866   6.237  10.607
 3100TIP3    H230792   5.984   6.140  10.606
 3101TIP3   OH230793   6.320   6.225  10.407
 3101TIP3    H130794   6.414   6.239  10.429
 3101TIP3    H230795   6.297   6.295  10.343
 3102TIP3   OH230796   6.913   5.988  11.084
 3102TIP3    H130797   6.845   5.997  11.154
 3102TIP3    H230798   6.861   5.969  11.005
 3103TIP3   OH230799   6.190   6.343  10.167
 3103TIP3    H130800   6.132   6.309  10.098
 3103TIP3    H230801   6.271   6.367  10.120
 3104TIP3   OH230802   6.002   6.800  11.674
 3104TIP3    H130803   6.075   6.826  11.733
 3104TIP3    H230804   5.925   6.818  11.731
 3105TIP3   OH230805   6.603   6.343  10.948
 3105TIP3    H130806   6.663   6.287  10.897
 3105TIP3    H230807   6.589   6.289  11.027
 3106TIP3   OH230808   6.104   5.958  10.592
 3106TIP3    H130809   6.072   5.866  10.590
 3106TIP3    H230810   6.183   5.951  10.537
 3107TIP3   OH230811   6.467   6.177  11.190
 3107TIP3    H130812   6.384   6.227  11.200
 3107TIP3    H230813   6.521   6.210  11.264
 3108TIP3   OH230814   6.520   6.805  10.361
 3108TIP3    H130815   6.449   6.749  10.328
 3108TIP3    H230816   6.506   6.808  10.456
 3109TIP3   OH230817   7.231   6.717  11.240
 3109TIP3    H130818   7.294   6.750  11.173
 3109TIP3    H230819   7.148   6.724  11.188
 3110TIP3   OH230820   6.672   6.824  11.486
 3110TIP3    H130821   6.639   6.782  11.565
 3110TIP3    H230822   6.653   6.917  11.493
 3111TIP3   OH230823   6.982   6.264  10.340
 3111TIP3    H130824   7.068   6.260  10.380
 3111TIP3    H230825   6.985   6.350  10.292
 3112TIP3   OH230826   6.036   6.736  10.939
 3112TIP3    H130827   6.106   6.730  10.872
 3112TIP3    H230828   6.042   6.650  10.985
 3113TIP3   OH230829   5.735   6.578  11.468
 3113TIP3    H130830   5.755   6.534  11.551
 3113TIP3    H230831   5.674   6.516  11.423
 3114TIP3   OH230832   6.436   6.533  11.686
 3114TIP3    H130833   6.406   6.507  11.598
 3114TIP3    H230834   6.530   6.504  11.685
 3115TIP3   OH230835   6.903   7.073  11.475
 3115TIP3    H130836   6.810   7.083  11.453
 3115TIP3    H230837   6.900   7.094  11.571
 3116TIP3   OH230838   7.293   7.156  10.363
 3116TIP3    H130839   7.256   7.075  10.391
 3116TIP3    H230840   7.322   7.148  10.271
 3117TIP3   OH230841   7.020   6.636  11.079
 3117TIP3    H130842   6.925   6.631  11.055
 3117TIP3    H230843   7.063   6.571  11.023
 3118TIP3   OH230844   6.275   7.080  10.676
 3118TIP3    H130845   6.322   7.161  10.654
 3118TIP3    H230846   6.185   7.105  10.648
 3119TIP3   OH230847   5.847   6.563  10.142
 3119TIP3    H130848   5.909   6.633  10.168
 3119TIP3    H230849   5.764   6.605  10.161
 3120TIP3   OH230850   6.416   6.849  10.633
 3120TIP3    H130851   6.387   6.942  10.639
 3120TIP3    H230852   6.341   6.803  10.675
 3121TIP3   OH230853   6.475   7.247  11.251
 3121TIP3    H130854   6.501   7.340  11.240
 3121TIP3    H230855   6.520   7.230  11.336
 3122TIP3   OH230856   6.253  -0.005  10.557
 3122TIP3    H130857   6.169   0.016  10.597
 3122TIP3    H230858   6.301   0.070  10.600
 3123TIP3   OH230859   6.814   6.875  11.255
 3123TIP3    H130860   6.773   6.840  11.333
 3123TIP3    H230861   6.872   6.804  11.215
 3124TIP3   OH230862   7.088   7.326  11.484
 3124TIP3    H130863   7.024   7.274  11.434
 3124TIP3    H230864   7.112   7.397  11.421
 3125TIP3   OH230865   5.900   6.054  11.426
 3125TIP3    H130866   5.809   6.086  11.416
 3125TIP3    H230867   5.888   5.966  11.466
 3126TIP3   OH230868   7.126   6.831  10.364
 3126TIP3    H130869   7.099   6.757  10.422
 3126TIP3    H230870   7.219   6.846  10.388
 3127TIP3   OH230871   5.863   7.230  11.266
 3127TIP3    H130872   5.889   7.137  11.265
 3127TIP3    H230873   5.885   7.260  11.354
 3128TIP3   OH230874   6.334   7.034  10.235
 3128TIP3    H130875   6.361   6.985  10.313
 3128TIP3    H230876   6.345   7.128  10.263
 3129TIP3   OH230877   6.771   6.028  11.315
 3129TIP3    H130878   6.844   6.035  11.379
 3129TIP3    H230879   6.734   5.940  11.334
 3130TIP3   OH230880   6.850   5.989  10.420
 3130TIP3    H130881   6.874   6.038  10.341
 3130TIP3    H230882   6.905   6.031  10.488
 3131TIP3   OH230883   6.571   6.163  10.507
 3131TIP3    H130884   6.651   6.219  10.513
 3131TIP3    H230885   6.544   6.150  10.600
 3132TIP3   OH230886   6.625   6.262  11.426
 3132TIP3    H130887   6.635   6.320  11.504
 3132TIP3    H230888   6.692   6.193  11.436
 3133TIP3   OH230889   6.657   5.870  10.598
 3133TIP3    H130890   6.624   5.934  10.664
 3133TIP3    H230891   6.726   5.923  10.552
 3134TIP3   OH230892   6.348  -0.034  10.303
 3134TIP3    H130893   6.371   0.047  10.256
 3134TIP3    H230894   6.331  -0.004  10.394
 3135TIP3   OH230895   6.224   5.979  10.266
 3135TIP3    H130896   6.216   6.068  10.306
 3135TIP3    H230897   6.314   5.953  10.293
 3136TIP3   OH230898   7.242   6.046  11.504
 3136TIP3    H130899   7.150   6.082  11.498
 3136TIP3    H230900   7.275   6.055  11.415
 3137TIP3   OH230901   7.108   6.429  10.915
 3137TIP3    H130902   7.024   6.388  10.886
 3137TIP3    H230903   7.147   6.357  10.966
 3138TIP3   OH230904   6.050   7.025  10.174
 3138TIP3    H130905   6.115   7.090  10.201
 3138TIP3    H230906   6.093   6.981  10.102
 3139TIP3   OH230907   5.883   6.290  10.088
 3139TIP3    H130908   5.878   6.386  10.103
 3139TIP3    H230909   5.797   6.265  10.053
 3140TIP3   OH230910   5.962   5.767  10.958
 3140TIP3    H130911   5.940   5.770  10.862
 3140TIP3    H230912   5.919   5.684  10.984
 3141TIP3   OH230913   5.858   7.159  10.572
 3141TIP3    H130914   5.773   7.204  10.571
 3141TIP3    H230915   5.907   7.211  10.506
 3142TIP3   OH230916   6.258   7.289  11.875
 3142TIP3    H130917   6.344   7.257  11.900
 3142TIP3    H230918   6.252   7.279  11.778
 3143TIP3   OH230919   6.902   7.139  11.731
 3143TIP3    H130920   6.864   7.058  11.769
 3143TIP3    H230921   6.970   7.162  11.796
 3144TIP3   OH230922   5.770   6.801  11.803
 3144TIP3    H130923   5.787   6.712  11.769
 3144TIP3    H230924   5.696   6.832  11.746
 3145TIP3   OH230925   6.441   6.800  11.741
 3145TIP3    H130926   6.406   6.829  11.655
 3145TIP3    H230927   6.451   6.702  11.731
 3146TIP3   OH230928   7.010   6.785  11.482
 3146TIP3    H130929   7.087   6.847  11.468
 3146TIP3    H230930   6.940   6.851  11.482
 3147TIP3   OH230931   5.852   6.521  11.740
 3147TIP3    H130932   5.905   6.440  11.728
 3147TIP3    H230933   5.840   6.531  11.835
 3148TIP3   OH230934   6.251   6.420  11.477
 3148TIP3    H130935   6.191   6.492  11.502
 3148TIP3    H230936   6.289   6.456  11.394
 3149TIP3   OH230937   6.754   6.674  11.810
 3149TIP3    H130938   6.850   6.677  11.799
 3149TIP3    H230939   6.740   6.597  11.867
 3150TIP3   OH230940   6.290   6.157  11.584
 3150TIP3    H130941   6.302   6.086  11.519
 3150TIP3    H230942   6.286   6.238  11.528
 3151TIP3   OH230943   6.330   5.995  11.337
 3151TIP3    H130944   6.382   6.042  11.267
 3151TIP3    H230945   6.242   5.986  11.295
 3152TIP3   OH230946   6.486   6.542  11.361
 3152TIP3    H130947   6.561   6.527  11.303
 3152TIP3    H230948   6.450   6.626  11.329
 3153TIP3   OH230949   6.925   6.321  11.859
 3153TIP3    H130950   6.949   6.228  11.848
 3153TIP3    H230951   7.013   6.363  11.859
 3154TIP3   OH230952   7.055   6.599  11.672
 3154TIP3    H130953   7.033   6.672  11.612
 3154TIP3    H230954   7.152   6.595  11.654
 3155TIP3   OH230955   6.134   6.283  11.774
 3155TIP3    H130956   6.061   6.222  11.755
 3155TIP3    H230957   6.203   6.247  11.714
 3156TIP3   OH230958   6.409   5.739  11.378
 3156TIP3    H130959   6.394   5.836  11.367
 3156TIP3    H230960   6.334   5.703  11.327
 3157TIP3   OH230961   6.537   6.172  11.737
 3157TIP3    H130962   6.507   6.149  11.827
 3157TIP3    H230963   6.458   6.152  11.684
 3158TIP3   OH230964   6.807   6.086  11.645
 3158TIP3    H130965   6.711   6.090  11.658
 3158TIP3    H230966   6.837   6.022  11.712
 3159TIP3   OH230967   6.973   5.948  11.841
 3159TIP3    H130968   6.960   5.851  11.841
 3159TIP3    H230969   6.940   5.978  11.928
 3160TIP3   OH230970   5.944   6.075  11.749
 3160TIP3    H130971   5.972   6.002  11.688
 3160TIP3    H230972   5.940   6.027  11.834
 3161TIP3   OH230973   6.431   5.676  11.647
 3161TIP3    H130974   6.501   5.607  11.643
 3161TIP3    H230975   6.421   5.694  11.551
 3162TIP3   OH230976   6.468   5.839  11.855
 3162TIP3    H130977   6.451   5.790  11.771
 3162TIP3    H230978   6.407   5.915  11.846
 3163TIP3   OH230979   5.722   7.339  10.806
 3163TIP3    H130980   5.692   7.249  10.825
 3163TIP3    H230981   5.750   7.372  10.891
 3164TIP3   OH230982   7.269   6.962  11.848
 3164TIP3    H130983   7.192   6.945  11.903
 3164TIP3    H230984   7.321   7.024  11.901
 3165TIP3   OH230985   7.279   7.150  11.324
 3165TIP3    H130986   7.212   7.187  11.382
 3165TIP3    H230987   7.228   7.109  11.250
 3166TIP3   OH230988   7.229   6.308  10.062
 3166TIP3    H130989   7.306   6.362  10.031
 3166TIP3    H230990   7.285   6.228  10.046
 3167TIP3   OH230991   7.196   6.446  10.650
 3167TIP3    H130992   7.214   6.351  10.653
 3167TIP3    H230993   7.197   6.467  10.746
 3168TIP3   OH230994   5.736   6.648  11.053
 3168TIP3    H130995   5.755   6.639  10.957
 3168TIP3    H230996   5.825   6.631  11.091
 3169TIP3   OH230997  -0.031   6.640  11.643
 3169TIP3    H130998   0.028   6.563  11.641
 3169TIP3    H230999   0.028   6.712  11.615
 3170TIP3   OH231000   7.234   6.022  10.018
 3170TIP3    H131001   7.302   5.986  10.072
 3170TIP3    H231002   7.144   5.986  10.025
 3171TIP3   OH231003   7.188   6.202  10.520
 3171TIP3    H131004   7.219   6.108  10.522
 3171TIP3    H231005   7.262   6.241  10.472
 3172TIP3   OH231006   7.228   6.203  11.029
 3172TIP3    H131007   7.323   6.220  11.019
 3172TIP3    H231008   7.231   6.253  11.114
 3173TIP3   OH231009   7.270   6.326  11.324
 3173TIP3    H131010   7.182   6.356  11.352
 3173TIP3    H231011   7.312   6.407  11.292
 3174TIP3   OH231012   5.698   6.180  11.677
 3174TIP3    H131013   5.792   6.154  11.685
 3174TIP3    H231014   5.652   6.095  11.698
 3175TIP3   OH231015   7.266   5.927  10.497
 3175TIP3    H131016   7.284   5.878  10.579
 3175TIP3    H231017   7.207   5.861  10.456
 3176TIP3   OH231018   5.817   6.006  10.955
 3176TIP3    H131019   5.864   5.925  10.982
 3176TIP3    H231020   5.870   6.076  10.995
 3177TIP3   OH231021   5.646   6.305  11.060
 3177TIP3    H131022   5.702   6.282  10.982
 3177TIP3    H231023   5.690   6.387  11.086
 3178TIP3   OH231024   5.684   5.935  10.470
 3178TIP3    H131025   5.589   5.950  10.452
 3178TIP3    H231026   5.726   5.979  10.394
 3179TIP3   OH231027   5.678   5.800  11.298
 3179TIP3    H131028   5.610   5.779  11.364
 3179TIP3    H231029   5.632   5.866  11.242
 3180TIP3   OH231030   5.898   7.121  11.713
 3180TIP3    H131031   5.814   7.139  11.667
 3180TIP3    H231032   5.873   7.111  11.806
 3181TIP3   OH231033   6.194   7.218  11.346
 3181TIP3    H131034   6.150   7.296  11.310
 3181TIP3    H231035   6.283   7.224  11.306
 3182TIP3   OH231036   6.084   7.269  10.885
 3182TIP3    H131037   6.068   7.180  10.921
 3182TIP3    H231038   6.163   7.290  10.943
 3183TIP3   OH231039   6.303   7.276  11.003
 3183TIP3    H131040   6.365   7.219  10.959
 3183TIP3    H231041   6.346   7.314  11.080
 3184TIP3   OH231042   6.693   5.892  10.901
 3184TIP3    H131043   6.625   5.828  10.928
 3184TIP3    H231044   6.748   5.840  10.842
 3185TIP3   OH231045   7.208   5.698  10.910
 3185TIP3    H131046   7.265   5.759  10.862
 3185TIP3    H231047   7.119   5.732  10.888
 3186TIP3   OH231048   5.928   5.756  10.686
 3186TIP3    H131049   5.850   5.734  10.632
 3186TIP3    H231050   5.977   5.671  10.681
 3187TIP3   OH231051   5.812   5.731  10.265
 3187TIP3    H131052   5.851   5.795  10.202
 3187TIP3    H231053   5.747   5.787  10.310
 3188TIP3   OH231054   6.379   5.747  10.665
 3188TIP3    H131055   6.469   5.784  10.659
 3188TIP3    H231056   6.372   5.726  10.758
 3189TIP3   OH231057   6.947   5.748  10.828
 3189TIP3    H131058   6.944   5.760  10.732
 3189TIP3    H231059   6.910   5.658  10.840
 3190TIP3   OH231060   7.074   5.754  10.400
 3190TIP3    H131061   7.000   5.812  10.376
 3190TIP3    H231062   7.029   5.668  10.413
 3191TIP3   OH231063   5.826   0.006  10.388
 3191TIP3    H131064   5.764  -0.001  10.314
 3191TIP3    H231065   5.804   0.097  10.397
 3192TIP3   OH231066   5.992   5.922  10.109
 3192TIP3    H131067   6.043   5.863  10.055
 3192TIP3    H231068   6.057   5.954  10.173
 3193TIP3   OH231069   6.495   5.952  10.348
 3193TIP3    H131070   6.517   5.891  10.421
 3193TIP3    H231071   6.495   6.035  10.399
 3194TIP3   OH231072   5.919   5.808  11.632
 3194TIP3    H131073   5.882   5.728  11.674
 3194TIP3    H231074   6.011   5.806  11.667
 3195TIP3   OH231075   6.118   5.746  11.793
 3195TIP3    H131076   6.208   5.713  11.772
 3195TIP3    H231077   6.081   5.666  11.835
 3196TIP3   OH231078   6.959   5.677  11.808
 3196TIP3    H131079   6.968   5.630  11.893
 3196TIP3    H231080   7.050   5.674  11.772
 3197TIP3   OH231081   7.278   7.280  11.685
 3197TIP3    H131082   7.205   7.263  11.622
 3197TIP3    H231083   7.274   7.376  11.693
 3198TIP3   OH231084   1.181   1.012  12.559
 3198TIP3    H131085   1.182   1.110  12.552
 3198TIP3    H231086   1.110   0.988  12.497
 3199TIP3   OH231087   1.068   0.938  12.907
 3199TIP3    H131088   1.066   0.873  12.978
 3199TIP3    H231089   1.035   0.889  12.831
 3200TIP3   OH231090   0.306   0.903  13.061
 3200TIP3    H131091   0.312   0.836  13.133
 3200TIP3    H231092   0.378   0.962  13.085
 3201TIP3   OH231093   1.438   1.232  12.735
 3201TIP3    H131094   1.395   1.161  12.783
 3201TIP3    H231095   1.438   1.304  12.802
 3202TIP3   OH231096   0.394   1.349  12.916
 3202TIP3    H131097   0.362   1.263  12.881
 3202TIP3    H231098   0.490   1.330  12.920
 3203TIP3   OH231099   0.079   0.708  12.439
 3203TIP3    H131100   0.025   0.788  12.461
 3203TIP3    H231101   0.007   0.653  12.414
 3204TIP3   OH231102   0.129   0.926  12.671
 3204TIP3    H131103   0.154   0.848  12.724
 3204TIP3    H231104   0.203   0.936  12.611
 3205TIP3   OH231105   1.149   1.747  12.759
 3205TIP3    H131106   1.213   1.677  12.731
 3205TIP3    H231107   1.129   1.717  12.847
 3206TIP3   OH231108   0.905   1.179  12.951
 3206TIP3    H131109   0.939   1.114  12.888
 3206TIP3    H231110   0.984   1.193  13.006
 3207TIP3   OH231111   1.766   0.342  13.028
 3207TIP3    H131112   1.784   0.404  13.103
 3207TIP3    H231113   1.822   0.387  12.962
 3208TIP3   OH231114   1.222   0.624  12.984
 3208TIP3    H131115   1.237   0.527  12.984
 3208TIP3    H231116   1.211   0.639  12.888
 3209TIP3   OH231117   0.526   0.444  12.709
 3209TIP3    H131118   0.544   0.521  12.656
 3209TIP3    H231119   0.497   0.375  12.644
 3210TIP3   OH231120   1.307   0.441  12.544
 3210TIP3    H131121   1.374   0.411  12.611
 3210TIP3    H231122   1.362   0.498  12.488
 3211TIP3   OH231123   0.199   0.672  12.776
 3211TIP3    H131124   0.266   0.619  12.824
 3211TIP3    H231125   0.208   0.640  12.686
 3212TIP3   OH231126   0.713   0.829  12.710
 3212TIP3    H131127   0.778   0.771  12.753
 3212TIP3    H231128   0.659   0.761  12.663
 3213TIP3   OH231129   1.805   0.482  13.256
 3213TIP3    H131130   1.747   0.560  13.245
 3213TIP3    H231131   1.816   0.474  13.351
 3214TIP3   OH231132   0.423   0.329  13.115
 3214TIP3    H131133   0.396   0.378  13.035
 3214TIP3    H231134   0.351   0.348  13.179
 3215TIP3   OH231135   1.154   1.272  12.467
 3215TIP3    H131136   1.126   1.242  12.379
 3215TIP3    H231137   1.122   1.365  12.472
 3216TIP3   OH231138   0.677   1.088  13.138
 3216TIP3    H131139   0.604   1.151  13.156
 3216TIP3    H231140   0.747   1.148  13.108
 3217TIP3   OH231141   1.488   0.375  12.743
 3217TIP3    H131142   1.465   0.299  12.798
 3217TIP3    H231143   1.555   0.419  12.798
 3218TIP3   OH231144   0.377   0.510  12.913
 3218TIP3    H131145   0.441   0.576  12.947
 3218TIP3    H231146   0.433   0.466  12.843
 3219TIP3   OH231147   0.519   1.286  13.217
 3219TIP3    H131148   0.514   1.378  13.184
 3219TIP3    H231149   0.430   1.279  13.261
 3220TIP3   OH231150   0.128   1.254  12.295
 3220TIP3    H131151   0.103   1.282  12.206
 3220TIP3    H231152   0.134   1.336  12.347
 3221TIP3   OH231153   1.490   1.416  12.972
 3221TIP3    H131154   1.393   1.426  12.985
 3221TIP3    H231155   1.517   1.508  12.954
 3222TIP3   OH231156   1.524   0.245  13.115
 3222TIP3    H131157   1.449   0.306  13.103
 3222TIP3    H231158   1.593   0.286  13.059
 3223TIP3   OH231159   0.858   0.057  12.884
 3223TIP3    H131160   0.827  -0.028  12.853
 3223TIP3    H231161   0.766   0.095  12.877
 3224TIP3   OH231162   1.315   1.594  12.633
 3224TIP3    H131163   1.359   1.523  12.582
 3224TIP3    H231164   1.354   1.674  12.591
 3225TIP3   OH231165   1.435   1.387  12.483
 3225TIP3    H131166   1.406   1.316  12.423
 3225TIP3    H231167   1.439   1.338  12.568
 3226TIP3   OH231168   1.599   1.245  13.333
 3226TIP3    H131169   1.614   1.181  13.259
 3226TIP3    H231170   1.618   1.330  13.291
 3227TIP3   OH231171   1.048   0.936  12.310
 3227TIP3    H131172   0.978   0.992  12.273
 3227TIP3    H231173   1.118   0.944  12.243
 3228TIP3   OH231174   1.054   0.789  12.011
 3228TIP3    H131175   1.125   0.788  12.077
 3228TIP3    H231176   1.086   0.720  11.951
 3229TIP3   OH231177   1.786   0.878  13.139
 3229TIP3    H131178   1.720   0.949  13.143
 3229TIP3    H231179   1.834   0.898  13.057
 3230TIP3   OH231180   1.392   0.957  12.401
 3230TIP3    H131181   1.317   0.981  12.461
 3230TIP3    H231182   1.437   0.888  12.452
 3231TIP3   OH231183   1.384   0.773  13.313
 3231TIP3    H131184   1.386   0.854  13.366
 3231TIP3    H231185   1.321   0.803  13.244
 3232TIP3   OH231186   0.555   1.025  12.592
 3232TIP3    H131187   0.520   0.984  12.510
 3232TIP3    H231188   0.614   0.954  12.626
 3233TIP3   OH231189   0.687   1.363  12.861
 3233TIP3    H131190   0.684   1.308  12.782
 3233TIP3    H231191   0.764   1.326  12.907
 3234TIP3   OH231192   0.588   0.898  12.958
 3234TIP3    H131193   0.644   0.909  12.878
 3234TIP3    H231194   0.624   0.964  13.020
 3235TIP3   OH231195   1.226   1.453  13.028
 3235TIP3    H131196   1.198   1.517  13.095
 3235TIP3    H231197   1.202   1.368  13.072
 3236TIP3   OH231198   0.681   1.339  13.428
 3236TIP3    H131199   0.643   1.416  13.476
 3236TIP3    H231200   0.613   1.321  13.358
 3237TIP3   OH231201   1.278   0.876  12.169
 3237TIP3    H131202   1.335   0.892  12.248
 3237TIP3    H231203   1.322   0.925  12.097
 3238TIP3   OH231204   0.376   0.957  13.349
 3238TIP3    H131205   0.379   1.026  13.418
 3238TIP3    H231206   0.283   0.967  13.320
 3239TIP3   OH231207   1.050   1.548  12.515
 3239TIP3    H131208   1.095   1.579  12.595
 3239TIP3    H231209   0.994   1.623  12.492
 3240TIP3   OH231210   0.506   1.544  13.503
 3240TIP3    H131211   0.499   1.533  13.407
 3240TIP3    H231212   0.412   1.532  13.530
 3241TIP3   OH231213   1.650   0.057  12.149
 3241TIP3    H131214   1.559   0.064  12.182
 3241TIP3    H231215   1.672   0.142  12.112
 3242TIP3   OH231216   0.452   0.925  12.354
 3242TIP3    H131217   0.423   1.004  12.303
 3242TIP3    H231218   0.385   0.860  12.333
 3243TIP3   OH231219   1.763   1.485  11.992
 3243TIP3    H131220   1.778   1.580  12.009
 3243TIP3    H231221   1.856   1.455  11.990
 3244TIP3   OH231222   0.098   1.159  13.221
 3244TIP3    H131223   0.024   1.163  13.157
 3244TIP3    H231224   0.070   1.075  13.263
 3245TIP3   OH231225   0.047   1.452  12.909
 3245TIP3    H131226   0.138   1.427  12.922
 3245TIP3    H231227   0.030   1.519  12.976
 3246TIP3   OH231228   1.859   1.511  13.490
 3246TIP3    H131229   1.849   1.415  13.487
 3246TIP3    H231230   1.772   1.536  13.529
 3247TIP3   OH231231   0.955   1.466  13.376
 3247TIP3    H131232   0.962   1.550  13.427
 3247TIP3    H231233   0.868   1.431  13.402
 3248TIP3   OH231234   0.999   1.841  12.357
 3248TIP3    H131235   0.988   1.832  12.261
 3248TIP3    H231236   0.999   1.937  12.371
 3249TIP3   OH231237   0.363   1.727  12.536
 3249TIP3    H131238   0.377   1.686  12.624
 3249TIP3    H231239   0.279   1.686  12.512
 3250TIP3   OH231240   1.305   1.761  12.055
 3250TIP3    H131241   1.348   1.685  12.011
 3250TIP3    H231242   1.308   1.734  12.149
 3251TIP3   OH231243   1.274   1.754  12.332
 3251TIP3    H131244   1.178   1.762  12.350
 3251TIP3    H231245   1.299   1.681  12.390
 3252TIP3   OH231246   1.573   0.659  13.538
 3252TIP3    H131247   1.528   0.705  13.465
 3252TIP3    H231248   1.574   0.568  13.507
 3253TIP3   OH231249   0.288   1.302  13.338
 3253TIP3    H131250   0.306   1.262  13.426
 3253TIP3    H231251   0.202   1.261  13.314
 3254TIP3   OH231252   0.530   0.144  12.972
 3254TIP3    H131253   0.467   0.140  12.895
 3254TIP3    H231254   0.543   0.239  12.977
 3255TIP3   OH231255   1.017   0.115  13.272
 3255TIP3    H131256   1.058   0.075  13.349
 3255TIP3    H231257   0.922   0.102  13.287
 3256TIP3   OH231258   1.349   0.494  13.359
 3256TIP3    H131259   1.293   0.478  13.439
 3256TIP3    H231260   1.332   0.587  13.335
 3257TIP3   OH231261   1.424   0.979  11.944
 3257TIP3    H131262   1.425   0.959  11.847
 3257TIP3    H231263   1.510   1.022  11.954
 3258TIP3   OH231264   0.985   0.370  12.001
 3258TIP3    H131265   0.954   0.365  12.093
 3258TIP3    H231266   0.953   0.282  11.971
 3259TIP3   OH231267   0.564   0.643  13.055
 3259TIP3    H131268   0.492   0.641  13.121
 3259TIP3    H231269   0.559   0.736  13.022
 3260TIP3   OH231270   0.561   0.659  12.542
 3260TIP3    H131271   0.468   0.630  12.531
 3260TIP3    H231272   0.601   0.625  12.460
 3261TIP3   OH231273   1.113   0.705  12.422
 3261TIP3    H131274   1.073   0.788  12.387
 3261TIP3    H231275   1.183   0.690  12.356
 3262TIP3   OH231276   1.021   0.726  13.566
 3262TIP3    H131277   0.966   0.650  13.598
 3262TIP3    H231278   1.104   0.712  13.614
 3263TIP3   OH231279   1.216   0.653  12.705
 3263TIP3    H131280   1.190   0.710  12.630
 3263TIP3    H231281   1.228   0.569  12.658
 3264TIP3   OH231282   0.332   0.670  13.229
 3264TIP3    H131283   0.332   0.711  13.317
 3264TIP3    H231284   0.284   0.587  13.244
 3265TIP3   OH231285   0.667   0.413  11.913
 3265TIP3    H131286   0.623   0.365  11.987
 3265TIP3    H231287   0.594   0.450  11.862
 3266TIP3   OH231288   0.011   0.396  12.612
 3266TIP3    H131289   0.062   0.378  12.693
 3266TIP3    H231290   0.045   0.338  12.544
 3267TIP3   OH231291   0.119   0.460  12.160
 3267TIP3    H131292   0.172   0.518  12.101
 3267TIP3    H231293   0.049   0.517  12.189
 3268TIP3   OH231294   1.138   0.814  13.164
 3268TIP3    H131295   1.174   0.746  13.103
 3268TIP3    H231296   1.092   0.760  13.231
 3269TIP3   OH231297   0.821   0.424  12.644
 3269TIP3    H131298   0.728   0.404  12.673
 3269TIP3    H231299   0.865   0.395  12.726
 3270TIP3   OH231300   0.303   0.567  12.528
 3270TIP3    H131301   0.212   0.582  12.494
 3270TIP3    H231302   0.328   0.481  12.491
 3271TIP3   OH231303   0.663   0.569  12.294
 3271TIP3    H131304   0.758   0.582  12.313
 3271TIP3    H231305   0.640   0.638  12.229
 3272TIP3   OH231306   1.258   0.332  12.969
 3272TIP3    H131307   1.189   0.341  13.039
 3272TIP3    H231308   1.207   0.311  12.890
 3273TIP3   OH231309   0.533   0.688  12.052
 3273TIP3    H131310   0.479   0.651  11.981
 3273TIP3    H231311   0.616   0.708  12.006
 3274TIP3   OH231312   1.580   1.898  13.602
 3274TIP3    H131313   1.605   1.938  13.517
 3274TIP3    H231314   1.651   1.931  13.659
 3275TIP3   OH231315   0.347   1.144  13.557
 3275TIP3    H131316   0.418   1.170  13.618
 3275TIP3    H231317   0.269   1.160  13.616
 3276TIP3   OH231318   0.947   0.686  12.835
 3276TIP3    H131319   1.003   0.629  12.781
 3276TIP3    H231320   0.931   0.631  12.913
 3277TIP3   OH231321   0.446   0.305  12.473
 3277TIP3    H131322   0.416   0.212  12.478
 3277TIP3    H231323   0.527   0.296  12.423
 3278TIP3   OH231324   0.811   0.521  13.076
 3278TIP3    H131325   0.726   0.570  13.085
 3278TIP3    H231326   0.865   0.553  13.150
 3279TIP3   OH231327   0.869   1.143  12.245
 3279TIP3    H131328   0.789   1.094  12.212
 3279TIP3    H231329   0.848   1.152  12.340
 3280TIP3   OH231330   1.585   1.060  13.126
 3280TIP3    H131331   1.643   1.108  13.064
 3280TIP3    H231332   1.499   1.068  13.078
 3281TIP3   OH231333   1.252   0.426  12.063
 3281TIP3    H131334   1.157   0.438  12.049
 3281TIP3    H231335   1.285   0.511  12.098
 3282TIP3   OH231336   1.017   1.166  13.369
 3282TIP3    H131337   0.983   1.125  13.449
 3282TIP3    H231338   0.994   1.259  13.379
 3283TIP3   OH231339   1.325   0.614  12.228
 3283TIP3    H131340   1.415   0.601  12.265
 3283TIP3    H231341   1.334   0.695  12.175
 3284TIP3   OH231342   0.380   1.079  12.824
 3284TIP3    H131343   0.450   1.073  12.757
 3284TIP3    H231344   0.386   0.993  12.870
 3285TIP3   OH231345   1.079   1.289  12.148
 3285TIP3    H131346   1.045   1.373  12.185
 3285TIP3    H231347   1.005   1.228  12.169
 3286TIP3   OH231348   0.101   0.901  13.329
 3286TIP3    H131349   0.108   0.878  13.423
 3286TIP3    H231350   0.017   0.859  13.307
 3287TIP3   OH231351   0.780   0.877  13.572
 3287TIP3    H131352   0.749   0.850  13.484
 3287TIP3    H231353   0.873   0.847  13.571
 3288TIP3   OH231354   1.246   1.410  13.363
 3288TIP3    H131355   1.154   1.429  13.340
 3288TIP3    H231356   1.245   1.439  13.457
 3289TIP3   OH231357   1.815   0.631  12.204
 3289TIP3    H131358   1.759   0.599  12.131
 3289TIP3    H231359   1.824   0.725  12.175
 3290TIP3   OH231360   1.813   1.215  13.485
 3290TIP3    H131361   1.725   1.237  13.448
 3290TIP3    H231362   1.869   1.211  13.405
 3291TIP3   OH231363   1.642   1.512  12.244
 3291TIP3    H131364   1.607   1.429  12.278
 3291TIP3    H231365   1.675   1.492  12.155
 3292TIP3   OH231366   1.363   0.994  12.953
 3292TIP3    H131367   1.269   0.971  12.944
 3292TIP3    H231368   1.407   0.917  12.913
 3293TIP3   OH231369   0.616   1.426  12.564
 3293TIP3    H131370   0.667   1.506  12.543
 3293TIP3    H231371   0.528   1.450  12.531
 3294TIP3   OH231372   0.187   0.910  12.025
 3294TIP3    H131373   0.252   0.976  12.060
 3294TIP3    H231374   0.103   0.945  12.051
 3295TIP3   OH231375   0.759   1.192  12.516
 3295TIP3    H131376   0.729   1.285  12.525
 3295TIP3    H231377   0.685   1.145  12.560
 3296TIP3   OH231378   0.805   1.610  13.155
 3296TIP3    H131379   0.848   1.692  13.128
 3296TIP3    H231380   0.864   1.578  13.225
 3297TIP3   OH231381   0.626   1.693  12.470
 3297TIP3    H131382   0.529   1.706  12.481
 3297TIP3    H231383   0.662   1.777  12.505
 3298TIP3   OH231384   1.159   1.213  13.120
 3298TIP3    H131385   1.122   1.193  13.208
 3298TIP3    H231386   1.221   1.141  13.102
 3299TIP3   OH231387   1.388   1.316  12.027
 3299TIP3    H131388   1.418   1.271  12.109
 3299TIP3    H231389   1.292   1.300  12.037
 3300TIP3   OH231390   1.435   1.670  13.369
 3300TIP3    H131391   1.368   1.619  13.319
 3300TIP3    H231392   1.456   1.739  13.303
 3301TIP3   OH231393   1.835   1.754  12.052
 3301TIP3    H131394   1.906   1.819  12.033
 3301TIP3    H231395   1.764   1.816  12.082
 3302TIP3   OH231396   0.243   0.394  13.307
 3302TIP3    H131397   0.153   0.429  13.305
 3302TIP3    H231398   0.231   0.308  13.352
 3303TIP3   OH231399   1.467   1.181  12.251
 3303TIP3    H131400   1.443   1.104  12.306
 3303TIP3    H231401   1.562   1.187  12.271
 3304TIP3   OH231402   0.209   1.577  13.148
 3304TIP3    H131403   0.230   1.482  13.150
 3304TIP3    H231404   0.230   1.602  13.238
 3305TIP3   OH231405   0.799   1.425  11.875
 3305TIP3    H131406   0.814   1.348  11.818
 3305TIP3    H231407   0.761   1.382  11.955
 3306TIP3   OH231408   0.682   1.378  12.121
 3306TIP3    H131409   0.704   1.327  12.199
 3306TIP3    H231410   0.686   1.471  12.153
 3307TIP3   OH231411   0.331   1.102  12.169
 3307TIP3    H131412   0.263   1.141  12.227
 3307TIP3    H231413   0.384   1.180  12.143
 3308TIP3   OH231414   1.116   0.370  13.201
 3308TIP3    H131415   1.188   0.378  13.266
 3308TIP3    H231416   1.079   0.281  13.218
 3309TIP3   OH231417   1.194   0.329  12.311
 3309TIP3    H131418   1.214   0.380  12.229
 3309TIP3    H231419   1.248   0.376  12.376
 3310TIP3   OH231420   0.960   1.545  12.193
 3310TIP3    H131421   0.878   1.598  12.199
 3310TIP3    H231422   1.013   1.599  12.132
 3311TIP3   OH231423   0.913   0.503  12.392
 3311TIP3    H131424   0.993   0.560  12.398
 3311TIP3    H231425   0.888   0.491  12.486
 3312TIP3   OH231426   0.969   0.606  13.311
 3312TIP3    H131427   0.977   0.663  13.390
 3312TIP3    H231428   1.035   0.537  13.322
 3313TIP3   OH231429   1.008   0.215  12.487
 3313TIP3    H131430   0.968   0.278  12.548
 3313TIP3    H231431   1.069   0.269  12.436
 3314TIP3   OH231432   0.698   1.649  12.194
 3314TIP3    H131433   0.709   1.732  12.140
 3314TIP3    H231434   0.673   1.685  12.282
 3315TIP3   OH231435   0.566   0.320  12.152
 3315TIP3    H131436   0.560   0.410  12.190
 3315TIP3    H231437   0.658   0.298  12.177
 3316TIP3   OH231438   1.587   0.393  13.396
 3316TIP3    H131439   1.495   0.425  13.384
 3316TIP3    H231440   1.620   0.394  13.304
 3317TIP3   OH231441   1.448   0.773  12.799
 3317TIP3    H131442   1.366   0.729  12.770
 3317TIP3    H231443   1.495   0.703  12.851
 3318TIP3   OH231444   0.389   1.364  12.059
 3318TIP3    H131445   0.454   1.430  12.087
 3318TIP3    H231446   0.441   1.319  11.989
 3319TIP3   OH231447   0.228   0.632  11.968
 3319TIP3    H131448   0.224   0.726  11.992
 3319TIP3    H231449   0.137   0.611  11.944
 3320TIP3   OH231450   1.555   1.697  12.965
 3320TIP3    H131451   1.544   1.766  12.897
 3320TIP3    H231452   1.651   1.704  12.983
 3321TIP3   OH231453   0.285   0.124  12.844
 3321TIP3    H131454   0.288   0.114  12.747
 3321TIP3    H231455   0.269   0.032  12.870
 3322TIP3   OH231456   0.202   1.503  12.459
 3322TIP3    H131457   0.117   1.547  12.456
 3322TIP3    H231458   0.250   1.553  12.392
 3323TIP3   OH231459   0.135   1.768  13.587
 3323TIP3    H131460   0.185   1.743  13.666
 3323TIP3    H231461   0.081   1.687  13.572
 3324TIP3   OH231462   0.589   1.658  13.750
 3324TIP3    H131463   0.665   1.609  13.783
 3324TIP3    H231464   0.585   1.632  13.656
 3325TIP3   OH231465   1.000   1.611  11.889
 3325TIP3    H131466   0.932   1.545  11.915
 3325TIP3    H231467   1.073   1.552  11.865
 3326TIP3   OH231468   1.241   1.497  13.623
 3326TIP3    H131469   1.209   1.409  13.650
 3326TIP3    H231470   1.317   1.509  13.684
 3327TIP3   OH231471   1.457   1.587  11.909
 3327TIP3    H131472   1.487   1.508  11.958
 3327TIP3    H231473   1.533   1.610  11.853
 3328TIP3   OH231474   0.126   1.145  13.683
 3328TIP3    H131475   0.131   1.052  13.657
 3328TIP3    H231476   0.042   1.174  13.642
 3329TIP3   OH231477   0.547   1.180  11.892
 3329TIP3    H131478   0.560   1.102  11.949
 3329TIP3    H231479   0.620   1.168  11.828
 3330TIP3   OH231480   0.784   1.144  13.627
 3330TIP3    H131481   0.750   1.173  13.540
 3330TIP3    H231482   0.794   1.046  13.617
 3331TIP3   OH231483   1.089   1.289  11.868
 3331TIP3    H131484   1.061   1.300  11.961
 3331TIP3    H231485   1.069   1.193  11.855
 3332TIP3   OH231486   1.354   1.131  13.365
 3332TIP3    H131487   1.432   1.191  13.357
 3332TIP3    H231488   1.282   1.195  13.370
 3333TIP3   OH231489   0.198   0.866  13.624
 3333TIP3    H131490   0.245   0.781  13.616
 3333TIP3    H231491   0.181   0.868  13.720
 3334TIP3   OH231492   0.667   0.981  12.131
 3334TIP3    H131493   0.618   0.928  12.196
 3334TIP3    H231494   0.695   0.912  12.065
 3335TIP3   OH231495   0.594   0.764  13.363
 3335TIP3    H131496   0.533   0.834  13.389
 3335TIP3    H231497   0.632   0.799  13.280
 3336TIP3   OH231498   0.774   0.803  11.953
 3336TIP3    H131499   0.758   0.792  11.857
 3336TIP3    H231500   0.871   0.810  11.959
 3337TIP3   OH231501   1.100   1.018  13.694
 3337TIP3    H131502   1.196   1.020  13.685
 3337TIP3    H231503   1.083   0.942  13.752
 3338TIP3   OH231504   1.710   1.036  11.896
 3338TIP3    H131505   1.687   0.997  11.811
 3338TIP3    H231506   1.717   1.132  11.875
 3339TIP3   OH231507   0.634   0.500  13.470
 3339TIP3    H131508   0.645   0.429  13.406
 3339TIP3    H231509   0.628   0.581  13.414
 3340TIP3   OH231510   0.674   0.340  13.221
 3340TIP3    H131511   0.726   0.385  13.150
 3340TIP3    H231512   0.585   0.327  13.178
 3341TIP3   OH231513   0.829   0.885  13.247
 3341TIP3    H131514   0.904   0.869  13.189
 3341TIP3    H231515   0.793   0.970  13.215
 3342TIP3   OH231516   1.269   0.663  13.745
 3342TIP3    H131517   1.291   0.570  13.735
 3342TIP3    H231518   1.356   0.707  13.746
 3343TIP3   OH231519   1.401   0.941  13.558
 3343TIP3    H131520   1.376   1.014  13.497
 3343TIP3    H231521   1.497   0.938  13.540
 3344TIP3   OH231522   0.477   0.626  13.660
 3344TIP3    H131523   0.401   0.567  13.642
 3344TIP3    H231524   0.545   0.590  13.599
 3345TIP3   OH231525   0.743   0.095  13.280
 3345TIP3    H131526   0.737   0.190  13.253
 3345TIP3    H231527   0.681   0.055  13.217
 3346TIP3   OH231528   0.880   0.515  13.622
 3346TIP3    H131529   0.851   0.490  13.712
 3346TIP3    H231530   0.800   0.495  13.570
 3347TIP3   OH231531   1.151   0.433  13.532
 3347TIP3    H131532   1.055   0.433  13.543
 3347TIP3    H231533   1.179   0.366  13.598
 3348TIP3   OH231534   1.313   0.297  13.726
 3348TIP3    H131535   1.304   0.198  13.725
 3348TIP3    H231536   1.283   0.320  13.815
 3349TIP3   OH231537   0.295   0.416  13.633
 3349TIP3    H131538   0.316   0.342  13.574
 3349TIP3    H231539   0.284   0.370  13.719
 3350TIP3   OH231540   0.773   7.358  13.531
 3350TIP3    H131541   0.843   7.292  13.535
 3350TIP3    H231542   0.765   7.383  13.436
 3351TIP3   OH231543   0.811   0.186  13.738
 3351TIP3    H131544   0.796   0.132  13.657
 3351TIP3    H231545   0.750   0.260  13.730
 3352TIP3   OH231546   0.760   1.872  12.059
 3352TIP3    H131547   0.856   1.885  12.067
 3352TIP3    H231548   0.741   1.936  11.989
 3353TIP3   OH231549   0.122   1.336  12.013
 3353TIP3    H131550   0.219   1.343  12.028
 3353TIP3    H231551   0.121   1.270  11.939
 3354TIP3   OH231552   7.353   1.879  12.498
 3354TIP3    H131553   7.271   1.846  12.457
 3354TIP3    H231554   7.370   1.811  12.567
 3355TIP3   OH231555   0.069   1.686  12.686
 3355TIP3    H131556   0.040   1.595  12.709
 3355TIP3    H231557   0.097   1.716  12.775
 3356TIP3   OH231558   1.827   1.763  12.986
 3356TIP3    H131559   1.829   1.780  13.081
 3356TIP3    H231560   1.897   1.820  12.955
 3357TIP3   OH231561   1.784   1.722  13.280
 3357TIP3    H131562   1.737   1.645  13.242
 3357TIP3    H231563   1.836   1.678  13.350
 3358TIP3   OH231564   1.629   1.296  13.745
 3358TIP3    H131565   1.539   1.290  13.783
 3358TIP3    H231566   1.666   1.375  13.788
 3359TIP3   OH231567   1.760   1.127  12.291
 3359TIP3    H131568   1.846   1.166  12.308
 3359TIP3    H231569   1.759   1.053  12.357
 3360TIP3   OH231570   1.797   0.934  12.477
 3360TIP3    H131571   1.723   0.883  12.518
 3360TIP3    H231572   1.857   0.949  12.553
 3361TIP3   OH231573   1.773   1.205  12.976
 3361TIP3    H131574   1.855   1.168  12.940
 3361TIP3    H231575   1.787   1.301  12.959
 3362TIP3   OH231576   1.627   1.495  13.204
 3362TIP3    H131577   1.558   1.529  13.264
 3362TIP3    H231578   1.572   1.454  13.134
 3363TIP3   OH231579   1.827   0.917  12.117
 3363TIP3    H131580   1.771   0.953  12.045
 3363TIP3    H231581   1.819   0.988  12.184
 3364TIP3   OH231582   1.663   0.642  11.970
 3364TIP3    H131583   1.671   0.709  11.901
 3364TIP3    H231584   1.645   0.559  11.920
 3365TIP3   OH231585   1.578   0.782  12.534
 3365TIP3    H131586   1.563   0.687  12.532
 3365TIP3    H231587   1.544   0.806  12.622
 3366TIP3   OH231588   0.078   0.990  12.938
 3366TIP3    H131589   0.097   0.984  12.842
 3366TIP3    H231590   0.166   0.976  12.977
 3367TIP3   OH231591   1.663   0.979  13.502
 3367TIP3    H131592   1.724   0.904  13.517
 3367TIP3    H231593   1.723   1.057  13.504
 3368TIP3   OH231594   1.814   0.768  13.568
 3368TIP3    H131595   1.726   0.728  13.552
 3368TIP3    H231596   1.872   0.691  13.559
 3369TIP3   OH231597   1.586   0.389  11.884
 3369TIP3    H131598   1.647   0.346  11.946
 3369TIP3    H231599   1.502   0.343  11.900
 3370TIP3   OH231600   1.544   0.541  12.378
 3370TIP3    H131601   1.576   0.450  12.392
 3370TIP3    H231602   1.626   0.582  12.345
 3371TIP3   OH231603   1.606   0.596  12.924
 3371TIP3    H131604   1.703   0.619  12.922
 3371TIP3    H231605   1.590   0.608  13.019
 3372TIP3   OH231606   1.614   0.669  13.204
 3372TIP3    H131607   1.527   0.698  13.236
 3372TIP3    H231608   1.659   0.753  13.180
 3373TIP3   OH231609   0.057   0.513  13.554
 3373TIP3    H131610   0.147   0.492  13.580
 3373TIP3    H231611   0.000   0.440  13.588
 3374TIP3   OH231612   1.846   0.070  13.739
 3374TIP3    H131613   1.875   0.004  13.675
 3374TIP3    H231614   1.852   0.153  13.690
 3375TIP3   OH231615   1.611   0.268  12.385
 3375TIP3    H131616   1.630   0.222  12.469
 3375TIP3    H231617   1.552   0.204  12.339
 3376TIP3   OH231618   0.156   0.351  12.840
 3376TIP3    H131619   0.208   0.271  12.866
 3376TIP3    H231620   0.214   0.417  12.881
 3377TIP3   OH231621   0.062   0.694  12.983
 3377TIP3    H131622   0.059   0.658  12.891
 3377TIP3    H231623   0.034   0.783  12.963
 3378TIP3   OH231624   1.797   0.280  13.571
 3378TIP3    H131625   1.703   0.307  13.568
 3378TIP3    H231626   1.801   0.225  13.492
 3379TIP3   OH231627   1.795   0.276  12.038
 3379TIP3    H131628   1.837   0.200  11.990
 3379TIP3    H231629   1.867   0.339  12.044
 3380TIP3   OH231630   0.065   0.271  12.326
 3380TIP3    H131631  -0.031   0.294  12.328
 3380TIP3    H231632   0.089   0.339  12.262
 3381TIP3   OH231633   1.500   1.771  12.547
 3381TIP3    H131634   1.568   1.739  12.485
 3381TIP3    H231635   1.552   1.821  12.611
 3382TIP3   OH231636   7.375   0.142  13.193
 3382TIP3    H131637   7.301   0.119  13.249
 3382TIP3    H231638   7.325   0.198  13.132
 3383TIP3   OH231639   0.244   1.464  13.601
 3383TIP3    H131640   0.161   1.482  13.555
 3383TIP3    H231641   0.215   1.454  13.692
 3384TIP3   OH231642   0.535   1.562  13.227
 3384TIP3    H131643   0.496   1.646  13.198
 3384TIP3    H231644   0.627   1.572  13.194
 3385TIP3   OH231645   0.966   1.704  13.518
 3385TIP3    H131646   0.982   1.669  13.608
 3385TIP3    H231647   1.055   1.734  13.491
 3386TIP3   OH231648   1.196   1.831  13.446
 3386TIP3    H131649   1.269   1.771  13.423
 3386TIP3    H231650   1.234   1.873  13.527
 3387TIP3   OH231651   1.698   0.095  13.354
 3387TIP3    H131652   1.614   0.125  13.317
 3387TIP3    H231653   1.715   0.013  13.303
 3388TIP3   OH231654   0.278   1.887  13.229
 3388TIP3    H131655   0.203   1.933  13.187
 3388TIP3    H231656   0.241   1.865  13.316
 3389TIP3   OH231657   0.524   1.845  13.133
 3389TIP3    H131658   0.435   1.858  13.173
 3389TIP3    H231659   0.518   1.903  13.055
 3390TIP3   OH231660   0.994   1.835  13.050
 3390TIP3    H131661   0.948   1.890  12.985
 3390TIP3    H231662   1.008   1.898  13.124
 3391TIP3   OH231663   1.225   1.718  13.149
 3391TIP3    H131664   1.137   1.743  13.117
 3391TIP3    H231665   1.270   1.804  13.141
 3392TIP3   OH231666   1.483   1.875  13.176
 3392TIP3    H131667   1.473   1.971  13.152
 3392TIP3    H231668   1.503   1.838  13.088
 3393TIP3   OH231669   0.218   1.751  12.919
 3393TIP3    H131670   0.216   1.707  13.007
 3393TIP3    H231671   0.300   1.714  12.880
 3394TIP3   OH231672   0.430   1.622  12.785
 3394TIP3    H131673   0.412   1.528  12.807
 3394TIP3    H231674   0.515   1.636  12.832
 3395TIP3   OH231675   0.688   1.670  12.872
 3395TIP3    H131676   0.706   1.578  12.845
 3395TIP3    H231677   0.694   1.664  12.969
 3396TIP3   OH231678   1.035   0.240  12.786
 3396TIP3    H131679   0.968   0.172  12.813
 3396TIP3    H231680   1.093   0.187  12.730
 3397TIP3   OH231681   1.549   0.044  12.797
 3397TIP3    H131682   1.610   0.098  12.743
 3397TIP3    H231683   1.462   0.076  12.771
 3398TIP3   OH231684   1.719   0.165  12.622
 3398TIP3    H131685   1.786   0.108  12.580
 3398TIP3    H231686   1.767   0.250  12.632
 3399TIP3   OH231687   0.278   0.104  12.557
 3399TIP3    H131688   0.192   0.074  12.521
 3399TIP3    H231689   0.318   0.017  12.574
 3400TIP3   OH231690   0.158   0.118  12.091
 3400TIP3    H131691   0.227   0.181  12.078
 3400TIP3    H231692   0.112   0.140  12.176
 3401TIP3   OH231693   0.810   0.056  12.524
 3401TIP3    H131694   0.827   0.147  12.553
 3401TIP3    H231695   0.741   0.045  12.594
 3402TIP3   OH231696   1.274   0.114  12.718
 3402TIP3    H131697   1.287   0.111  12.623
 3402TIP3    H231698   1.261   0.015  12.730
 3403TIP3   OH231699   1.417   0.095  12.284
 3403TIP3    H131700   1.345   0.157  12.263
 3403TIP3    H231701   1.373   0.010  12.297
 3404TIP3   OH231702   0.154   1.676  12.236
 3404TIP3    H131703   0.076   1.669  12.177
 3404TIP3    H231704   0.142   1.767  12.265
 3405TIP3   OH231705   0.336   0.273  11.990
 3405TIP3    H131706   0.387   0.207  11.939
 3405TIP3    H231707   0.400   0.300  12.058
 3406TIP3   OH231708   0.832   0.294  12.237
 3406TIP3    H131709   0.862   0.234  12.309
 3406TIP3    H231710   0.839   0.380  12.285
 3407TIP3   OH231711   1.028   1.797  12.080
 3407TIP3    H131712   1.119   1.825  12.058
 3407TIP3    H231713   1.006   1.748  11.998
 3408TIP3   OH231714   1.700   1.750  12.350
 3408TIP3    H131715   1.679   1.672  12.292
 3408TIP3    H231716   1.693   1.824  12.287
 3409TIP3   OH231717   0.254   0.155  13.516
 3409TIP3    H131718   0.224   0.074  13.560
 3409TIP3    H231719   0.348   0.152  13.548
 3410TIP3   OH231720   0.444   0.104  13.668
 3410TIP3    H131721   0.538   0.076  13.659
 3410TIP3    H231722   0.424   0.021  13.715
 3411TIP3   OH231723   0.321   1.765  11.939
 3411TIP3    H131724   0.296   1.793  12.029
 3411TIP3    H231725   0.400   1.711  11.957
 3412TIP3   OH231726   1.298   7.384  13.690
 3412TIP3    H131727   1.306   7.324  13.768
 3412TIP3    H231728   1.386   7.363  13.656
 3413TIP3   OH231729   1.623   1.623  13.560
 3413TIP3    H131730   1.542   1.609  13.506
 3413TIP3    H231731   1.612   1.718  13.581
 3414TIP3   OH231732   3.066   1.011  12.559
 3414TIP3    H131733   3.068   1.109  12.552
 3414TIP3    H231734   2.995   0.987  12.497
 3415TIP3   OH231735   2.953   0.938  12.907
 3415TIP3    H131736   2.951   0.873  12.978
 3415TIP3    H231737   2.920   0.889  12.831
 3416TIP3   OH231738   2.188   0.906  13.064
 3416TIP3    H131739   2.196   0.835  13.132
 3416TIP3    H231740   2.264   0.961  13.085
 3417TIP3   OH231741   3.323   1.232  12.735
 3417TIP3    H131742   3.280   1.161  12.783
 3417TIP3    H231743   3.324   1.304  12.802
 3418TIP3   OH231744   2.282   1.349  12.915
 3418TIP3    H131745   2.249   1.263  12.881
 3418TIP3    H231746   2.377   1.330  12.920
 3419TIP3   OH231747   1.946   0.707  12.461
 3419TIP3    H131748   1.901   0.794  12.456
 3419TIP3    H231749   1.889   0.652  12.405
 3420TIP3   OH231750   2.016   0.929  12.673
 3420TIP3    H131751   2.041   0.847  12.722
 3420TIP3    H231752   2.088   0.937  12.610
 3421TIP3   OH231753   3.040   1.751  12.764
 3421TIP3    H131754   3.097   1.677  12.729
 3421TIP3    H231755   3.010   1.711  12.845
 3422TIP3   OH231756   2.791   1.179  12.951
 3422TIP3    H131757   2.825   1.114  12.888
 3422TIP3    H231758   2.870   1.193  13.006
 3423TIP3   OH231759   3.655   0.341  13.029
 3423TIP3    H131760   3.667   0.404  13.104
 3423TIP3    H231761   3.706   0.386  12.960
 3424TIP3   OH231762   3.108   0.624  12.984
 3424TIP3    H131763   3.123   0.527  12.984
 3424TIP3    H231764   3.097   0.639  12.888
 3425TIP3   OH231765   2.430   0.432  12.701
 3425TIP3    H131766   2.427   0.520  12.660
 3425TIP3    H231767   2.376   0.377  12.641
 3426TIP3   OH231768   3.193   0.441  12.544
 3426TIP3    H131769   3.259   0.411  12.611
 3426TIP3    H231770   3.248   0.498  12.488
 3427TIP3   OH231771   2.085   0.677  12.779
 3427TIP3    H131772   2.146   0.618  12.829
 3427TIP3    H231773   2.091   0.641  12.690
 3428TIP3   OH231774   2.599   0.829  12.710
 3428TIP3    H131775   2.664   0.772  12.753
 3428TIP3    H231776   2.545   0.763  12.663
 3429TIP3   OH231777   3.696   0.485  13.254
 3429TIP3    H131778   3.632   0.558  13.245
 3429TIP3    H231779   3.700   0.473  13.350
 3430TIP3   OH231780   2.310   0.325  13.113
 3430TIP3    H131781   2.278   0.379  13.038
 3430TIP3    H231782   2.238   0.348  13.176
 3431TIP3   OH231783   3.040   1.272  12.467
 3431TIP3    H131784   3.012   1.242  12.379
 3431TIP3    H231785   3.008   1.365  12.472
 3432TIP3   OH231786   2.562   1.088  13.138
 3432TIP3    H131787   2.490   1.152  13.156
 3432TIP3    H231788   2.632   1.147  13.108
 3433TIP3   OH231789   3.374   0.374  12.743
 3433TIP3    H131790   3.351   0.299  12.798
 3433TIP3    H231791   3.440   0.419  12.798
 3434TIP3   OH231792   2.280   0.512  12.892
 3434TIP3    H131793   2.335   0.575  12.944
 3434TIP3    H231794   2.336   0.461  12.832
 3435TIP3   OH231795   2.405   1.287  13.219
 3435TIP3    H131796   2.401   1.378  13.183
 3435TIP3    H231797   2.317   1.280  13.263
 3436TIP3   OH231798   2.014   1.250  12.298
 3436TIP3    H131799   1.988   1.281  12.209
 3436TIP3    H231800   2.021   1.335  12.347
 3437TIP3   OH231801   3.376   1.416  12.972
 3437TIP3    H131802   3.279   1.425  12.985
 3437TIP3    H231803   3.403   1.508  12.954
 3438TIP3   OH231804   3.408   0.245  13.116
 3438TIP3    H131805   3.334   0.306  13.103
 3438TIP3    H231806   3.477   0.285  13.059
 3439TIP3   OH231807   2.732   0.071  12.857
 3439TIP3    H131808   2.713  -0.023  12.853
 3439TIP3    H231809   2.640   0.096  12.879
 3440TIP3   OH231810   3.201   1.595  12.634
 3440TIP3    H131811   3.243   1.523  12.582
 3440TIP3    H231812   3.241   1.673  12.590
 3441TIP3   OH231813   3.321   1.387  12.483
 3441TIP3    H131814   3.292   1.317  12.423
 3441TIP3    H231815   3.325   1.338  12.568
 3442TIP3   OH231816   3.485   1.245  13.333
 3442TIP3    H131817   3.499   1.181  13.259
 3442TIP3    H231818   3.504   1.331  13.291
 3443TIP3   OH231819   2.934   0.936  12.310
 3443TIP3    H131820   2.863   0.992  12.273
 3443TIP3    H231821   3.004   0.944  12.243
 3444TIP3   OH231822   2.940   0.789  12.011
 3444TIP3    H131823   3.011   0.788  12.077
 3444TIP3    H231824   2.971   0.720  11.951
 3445TIP3   OH231825   3.672   0.876  13.138
 3445TIP3    H131826   3.606   0.948  13.143
 3445TIP3    H231827   3.720   0.899  13.056
 3446TIP3   OH231828   3.277   0.957  12.401
 3446TIP3    H131829   3.202   0.981  12.461
 3446TIP3    H231830   3.323   0.888  12.452
 3447TIP3   OH231831   3.270   0.773  13.313
 3447TIP3    H131832   3.271   0.854  13.367
 3447TIP3    H231833   3.206   0.803  13.244
 3448TIP3   OH231834   2.439   1.023  12.593
 3448TIP3    H131835   2.407   0.984  12.508
 3448TIP3    H231836   2.500   0.953  12.626
 3449TIP3   OH231837   2.572   1.363  12.861
 3449TIP3    H131838   2.569   1.308  12.782
 3449TIP3    H231839   2.649   1.326  12.907
 3450TIP3   OH231840   2.474   0.899  12.957
 3450TIP3    H131841   2.531   0.910  12.879
 3450TIP3    H231842   2.510   0.964  13.020
 3451TIP3   OH231843   3.111   1.454  13.029
 3451TIP3    H131844   3.083   1.515  13.097
 3451TIP3    H231845   3.088   1.368  13.071
 3452TIP3   OH231846   2.567   1.339  13.428
 3452TIP3    H131847   2.528   1.416  13.476
 3452TIP3    H231848   2.499   1.321  13.358
 3453TIP3   OH231849   3.164   0.876  12.169
 3453TIP3    H131850   3.221   0.892  12.248
 3453TIP3    H231851   3.208   0.925  12.097
 3454TIP3   OH231852   2.261   0.958  13.347
 3454TIP3    H131853   2.264   1.024  13.418
 3454TIP3    H231854   2.168   0.966  13.321
 3455TIP3   OH231855   2.936   1.548  12.514
 3455TIP3    H131856   2.980   1.578  12.594
 3455TIP3    H231857   2.880   1.623  12.492
 3456TIP3   OH231858   2.391   1.545  13.504
 3456TIP3    H131859   2.387   1.533  13.407
 3456TIP3    H231860   2.297   1.532  13.529
 3457TIP3   OH231861   3.538   0.056  12.152
 3457TIP3    H131862   3.445   0.064  12.181
 3457TIP3    H231863   3.558   0.141  12.111
 3458TIP3   OH231864   2.337   0.926  12.354
 3458TIP3    H131865   2.308   1.004  12.303
 3458TIP3    H231866   2.271   0.860  12.332
 3459TIP3   OH231867   3.649   1.485  11.992
 3459TIP3    H131868   3.663   1.580  12.009
 3459TIP3    H231869   3.742   1.455  11.990
 3460TIP3   OH231870   1.946   1.168  13.241
 3460TIP3    H131871   1.899   1.160  13.155
 3460TIP3    H231872   1.951   1.073  13.264
 3461TIP3   OH231873   1.921   1.442  12.921
 3461TIP3    H131874   2.017   1.429  12.920
 3461TIP3    H231875   1.913   1.522  12.973
 3462TIP3   OH231876   3.745   1.511  13.490
 3462TIP3    H131877   3.734   1.415  13.487
 3462TIP3    H231878   3.658   1.536  13.529
 3463TIP3   OH231879   2.841   1.466  13.376
 3463TIP3    H131880   2.847   1.550  13.427
 3463TIP3    H231881   2.753   1.431  13.402
 3464TIP3   OH231882   2.884   1.841  12.357
 3464TIP3    H131883   2.874   1.832  12.260
 3464TIP3    H231884   2.885   1.937  12.371
 3465TIP3   OH231885   2.248   1.727  12.537
 3465TIP3    H131886   2.262   1.686  12.626
 3465TIP3    H231887   2.163   1.687  12.513
 3466TIP3   OH231888   3.191   1.761  12.055
 3466TIP3    H131889   3.233   1.685  12.011
 3466TIP3    H231890   3.193   1.734  12.149
 3467TIP3   OH231891   3.160   1.754  12.332
 3467TIP3    H131892   3.064   1.762  12.350
 3467TIP3    H231893   3.184   1.681  12.390
 3468TIP3   OH231894   3.459   0.659  13.538
 3468TIP3    H131895   3.414   0.705  13.465
 3468TIP3    H231896   3.460   0.568  13.507
 3469TIP3   OH231897   2.173   1.299  13.337
 3469TIP3    H131898   2.195   1.262  13.425
 3469TIP3    H231899   2.086   1.259  13.316
 3470TIP3   OH231900   2.435   0.158  12.940
 3470TIP3    H131901   2.348   0.142  12.898
 3470TIP3    H231902   2.422   0.241  12.984
 3471TIP3   OH231903   2.903   0.114  13.272
 3471TIP3    H131904   2.944   0.075  13.349
 3471TIP3    H231905   2.807   0.102  13.287
 3472TIP3   OH231906   3.234   0.494  13.359
 3472TIP3    H131907   3.179   0.478  13.439
 3472TIP3    H231908   3.218   0.587  13.335
 3473TIP3   OH231909   3.309   0.979  11.944
 3473TIP3    H131910   3.311   0.959  11.847
 3473TIP3    H231911   3.396   1.022  11.954
 3474TIP3   OH231912   2.871   0.370  12.001
 3474TIP3    H131913   2.839   0.365  12.093
 3474TIP3    H231914   2.839   0.282  11.972
 3475TIP3   OH231915   2.452   0.643  13.056
 3475TIP3    H131916   2.376   0.639  13.119
 3475TIP3    H231917   2.444   0.734  13.021
 3476TIP3   OH231918   2.446   0.659  12.543
 3476TIP3    H131919   2.353   0.630  12.531
 3476TIP3    H231920   2.486   0.626  12.460
 3477TIP3   OH231921   2.999   0.705  12.422
 3477TIP3    H131922   2.958   0.788  12.387
 3477TIP3    H231923   3.069   0.690  12.356
 3478TIP3   OH231924   2.906   0.726  13.566
 3478TIP3    H131925   2.852   0.650  13.598
 3478TIP3    H231926   2.990   0.712  13.614
 3479TIP3   OH231927   3.101   0.653  12.705
 3479TIP3    H131928   3.076   0.710  12.630
 3479TIP3    H231929   3.114   0.569  12.658
 3480TIP3   OH231930   2.230   0.674  13.238
 3480TIP3    H131931   2.216   0.712  13.324
 3480TIP3    H231932   2.171   0.594  13.237
 3481TIP3   OH231933   2.552   0.412  11.913
 3481TIP3    H131934   2.508   0.365  11.987
 3481TIP3    H231935   2.480   0.450  11.862
 3482TIP3   OH231936   1.879   0.383  12.620
 3482TIP3    H131937   1.946   0.380  12.693
 3482TIP3    H231938   1.925   0.342  12.546
 3483TIP3   OH231939   2.008   0.456  12.164
 3483TIP3    H131940   2.056   0.516  12.103
 3483TIP3    H231941   1.936   0.515  12.194
 3484TIP3   OH231942   3.024   0.814  13.164
 3484TIP3    H131943   3.059   0.746  13.103
 3484TIP3    H231944   2.978   0.760  13.231
 3485TIP3   OH231945   2.703   0.408  12.644
 3485TIP3    H131946   2.609   0.409  12.675
 3485TIP3    H231947   2.752   0.398  12.727
 3486TIP3   OH231948   2.186   0.566  12.528
 3486TIP3    H131949   2.095   0.580  12.495
 3486TIP3    H231950   2.213   0.480  12.493
 3487TIP3   OH231951   2.549   0.568  12.294
 3487TIP3    H131952   2.644   0.583  12.312
 3487TIP3    H231953   2.525   0.638  12.230
 3488TIP3   OH231954   3.144   0.332  12.970
 3488TIP3    H131955   3.074   0.341  13.038
 3488TIP3    H231956   3.093   0.311  12.890
 3489TIP3   OH231957   2.418   0.688  12.053
 3489TIP3    H131958   2.365   0.650  11.981
 3489TIP3    H231959   2.501   0.708  12.006
 3490TIP3   OH231960   3.465   1.898  13.601
 3490TIP3    H131961   3.491   1.938  13.517
 3490TIP3    H231962   3.536   1.931  13.659
 3491TIP3   OH231963   2.232   1.145  13.559
 3491TIP3    H131964   2.304   1.170  13.619
 3491TIP3    H231965   2.153   1.158  13.617
 3492TIP3   OH231966   2.833   0.686  12.834
 3492TIP3    H131967   2.891   0.630  12.781
 3492TIP3    H231968   2.817   0.632  12.913
 3493TIP3   OH231969   2.332   0.303  12.476
 3493TIP3    H131970   2.300   0.211  12.477
 3493TIP3    H231971   2.411   0.296  12.422
 3494TIP3   OH231972   2.695   0.520  13.075
 3494TIP3    H131973   2.611   0.570  13.086
 3494TIP3    H231974   2.750   0.553  13.149
 3495TIP3   OH231975   2.754   1.143  12.245
 3495TIP3    H131976   2.675   1.094  12.212
 3495TIP3    H231977   2.734   1.152  12.340
 3496TIP3   OH231978   3.470   1.060  13.126
 3496TIP3    H131979   3.529   1.108  13.064
 3496TIP3    H231980   3.385   1.068  13.078
 3497TIP3   OH231981   3.138   0.426  12.063
 3497TIP3    H131982   3.042   0.438  12.049
 3497TIP3    H231983   3.171   0.511  12.098
 3498TIP3   OH231984   2.903   1.166  13.369
 3498TIP3    H131985   2.869   1.125  13.449
 3498TIP3    H231986   2.880   1.259  13.379
 3499TIP3   OH231987   3.211   0.614  12.228
 3499TIP3    H131988   3.300   0.601  12.265
 3499TIP3    H231989   3.220   0.695  12.175
 3500TIP3   OH231990   2.264   1.078  12.825
 3500TIP3    H131991   2.335   1.073  12.758
 3500TIP3    H231992   2.270   0.992  12.871
 3501TIP3   OH231993   2.965   1.289  12.148
 3501TIP3    H131994   2.931   1.373  12.185
 3501TIP3    H231995   2.891   1.228  12.169
 3502TIP3   OH231996   1.962   0.923  13.354
 3502TIP3    H131997   1.984   0.876  13.436
 3502TIP3    H231998   1.904   0.859  13.308
 3503TIP3   OH231999   2.666   0.877  13.572
 3503TIP3    H132000   2.635   0.850  13.484
 3503TIP3    H232001   2.759   0.847  13.571
 3504TIP3   OH232002   3.132   1.410  13.363
 3504TIP3    H132003   3.039   1.429  13.340
 3504TIP3    H232004   3.130   1.438  13.457
 3505TIP3   OH232005   3.701   0.631  12.204
 3505TIP3    H132006   3.644   0.599  12.131
 3505TIP3    H232007   3.709   0.725  12.175
 3506TIP3   OH232008   3.699   1.215  13.485
 3506TIP3    H132009   3.610   1.237  13.448
 3506TIP3    H232010   3.755   1.211  13.405
 3507TIP3   OH232011   3.528   1.512  12.244
 3507TIP3    H132012   3.493   1.429  12.278
 3507TIP3    H232013   3.560   1.492  12.155
 3508TIP3   OH232014   3.249   0.994  12.953
 3508TIP3    H132015   3.155   0.971  12.944
 3508TIP3    H232016   3.293   0.916  12.912
 3509TIP3   OH232017   2.502   1.426  12.563
 3509TIP3    H132018   2.552   1.506  12.543
 3509TIP3    H232019   2.414   1.450  12.531
 3510TIP3   OH232020   2.078   0.911  12.021
 3510TIP3    H132021   2.137   0.976  12.061
 3510TIP3    H232022   1.990   0.943  12.047
 3511TIP3   OH232023   2.644   1.192  12.516
 3511TIP3    H132024   2.615   1.285  12.525
 3511TIP3    H232025   2.571   1.145  12.560
 3512TIP3   OH232026   2.690   1.610  13.155
 3512TIP3    H132027   2.732   1.693  13.128
 3512TIP3    H232028   2.750   1.578  13.224
 3513TIP3   OH232029   2.513   1.693  12.471
 3513TIP3    H132030   2.416   1.706  12.481
 3513TIP3    H232031   2.547   1.777  12.506
 3514TIP3   OH232032   3.044   1.214  13.120
 3514TIP3    H132033   3.008   1.193  13.208
 3514TIP3    H232034   3.106   1.141  13.102
 3515TIP3   OH232035   3.273   1.316  12.027
 3515TIP3    H132036   3.304   1.271  12.109
 3515TIP3    H232037   3.177   1.300  12.037
 3516TIP3   OH232038   3.320   1.671  13.369
 3516TIP3    H132039   3.254   1.618  13.319
 3516TIP3    H232040   3.343   1.739  13.303
 3517TIP3   OH232041   3.721   1.754  12.052
 3517TIP3    H132042   3.792   1.820  12.033
 3517TIP3    H232043   3.650   1.816  12.082
 3518TIP3   OH232044   2.132   0.393  13.320
 3518TIP3    H132045   2.043   0.430  13.297
 3518TIP3    H232046   2.115   0.304  13.351
 3519TIP3   OH232047   3.353   1.181  12.251
 3519TIP3    H132048   3.329   1.104  12.306
 3519TIP3    H232049   3.448   1.187  12.271
 3520TIP3   OH232050   2.091   1.575  13.150
 3520TIP3    H132051   2.118   1.481  13.150
 3520TIP3    H232052   2.117   1.602  13.239
 3521TIP3   OH232053   2.685   1.425  11.875
 3521TIP3    H132054   2.699   1.348  11.818
 3521TIP3    H232055   2.647   1.382  11.955
 3522TIP3   OH232056   2.568   1.378  12.121
 3522TIP3    H132057   2.590   1.327  12.199
 3522TIP3    H232058   2.573   1.471  12.153
 3523TIP3   OH232059   2.218   1.103  12.170
 3523TIP3    H132060   2.148   1.142  12.226
 3523TIP3    H232061   2.270   1.181  12.143
 3524TIP3   OH232062   3.002   0.370  13.201
 3524TIP3    H132063   3.074   0.378  13.266
 3524TIP3    H232064   2.965   0.282  13.218
 3525TIP3   OH232065   3.080   0.329  12.310
 3525TIP3    H132066   3.100   0.380  12.229
 3525TIP3    H232067   3.133   0.377  12.376
 3526TIP3   OH232068   2.846   1.545  12.193
 3526TIP3    H132069   2.764   1.598  12.199
 3526TIP3    H232070   2.899   1.599  12.132
 3527TIP3   OH232071   2.800   0.502  12.393
 3527TIP3    H132072   2.878   0.560  12.397
 3527TIP3    H232073   2.774   0.493  12.486
 3528TIP3   OH232074   2.854   0.606  13.311
 3528TIP3    H132075   2.863   0.663  13.390
 3528TIP3    H232076   2.920   0.537  13.322
 3529TIP3   OH232077   2.887   0.211  12.486
 3529TIP3    H132078   2.853   0.278  12.548
 3529TIP3    H232079   2.952   0.265  12.437
 3530TIP3   OH232080   2.584   1.649  12.194
 3530TIP3    H132081   2.595   1.731  12.140
 3530TIP3    H232082   2.559   1.684  12.282
 3531TIP3   OH232083   2.450   0.320  12.152
 3531TIP3    H132084   2.445   0.410  12.189
 3531TIP3    H232085   2.543   0.299  12.177
 3532TIP3   OH232086   3.473   0.393  13.396
 3532TIP3    H132087   3.381   0.424  13.384
 3532TIP3    H232088   3.504   0.393  13.304
 3533TIP3   OH232089   3.334   0.773  12.799
 3533TIP3    H132090   3.252   0.729  12.770
 3533TIP3    H232091   3.381   0.703  12.851
 3534TIP3   OH232092   2.275   1.365  12.058
 3534TIP3    H132093   2.339   1.431  12.088
 3534TIP3    H232094   2.326   1.320  11.988
 3535TIP3   OH232095   2.109   0.632  11.971
 3535TIP3    H132096   2.109   0.728  11.991
 3535TIP3    H232097   2.020   0.612  11.942
 3536TIP3   OH232098   3.439   1.701  12.967
 3536TIP3    H132099   3.433   1.766  12.895
 3536TIP3    H232100   3.536   1.703  12.983
 3537TIP3   OH232101   2.173   0.123  12.846
 3537TIP3    H132102   2.170   0.116  12.748
 3537TIP3    H232103   2.154   0.032  12.870
 3538TIP3   OH232104   2.086   1.502  12.458
 3538TIP3    H132105   2.001   1.549  12.456
 3538TIP3    H232106   2.135   1.552  12.392
 3539TIP3   OH232107   2.008   1.767  13.588
 3539TIP3    H132108   2.067   1.746  13.663
 3539TIP3    H232109   1.965   1.682  13.570
 3540TIP3   OH232110   2.473   1.659  13.750
 3540TIP3    H132111   2.550   1.610  13.783
 3540TIP3    H232112   2.471   1.633  13.656
 3541TIP3   OH232113   2.886   1.611  11.889
 3541TIP3    H132114   2.818   1.545  11.915
 3541TIP3    H232115   2.959   1.552  11.865
 3542TIP3   OH232116   3.127   1.497  13.623
 3542TIP3    H132117   3.094   1.409  13.650
 3542TIP3    H232118   3.202   1.509  13.684
 3543TIP3   OH232119   3.343   1.587  11.909
 3543TIP3    H132120   3.372   1.508  11.958
 3543TIP3    H232121   3.419   1.610  11.853
 3544TIP3   OH232122   2.000   1.146  13.687
 3544TIP3    H132123   2.015   1.054  13.656
 3544TIP3    H232124   1.924   1.172  13.632
 3545TIP3   OH232125   2.433   1.180  11.892
 3545TIP3    H132126   2.446   1.102  11.949
 3545TIP3    H232127   2.506   1.168  11.828
 3546TIP3   OH232128   2.669   1.144  13.627
 3546TIP3    H132129   2.635   1.173  13.540
 3546TIP3    H232130   2.680   1.046  13.617
 3547TIP3   OH232131   2.974   1.289  11.868
 3547TIP3    H132132   2.947   1.300  11.961
 3547TIP3    H232133   2.954   1.193  11.855
 3548TIP3   OH232134   3.240   1.131  13.365
 3548TIP3    H132135   3.317   1.191  13.357
 3548TIP3    H232136   3.168   1.195  13.370
 3549TIP3   OH232137   2.088   0.867  13.625
 3549TIP3    H132138   2.130   0.781  13.616
 3549TIP3    H232139   2.064   0.868  13.719
 3550TIP3   OH232140   2.552   0.981  12.131
 3550TIP3    H132141   2.504   0.928  12.196
 3550TIP3    H232142   2.581   0.912  12.065
 3551TIP3   OH232143   2.483   0.765  13.365
 3551TIP3    H132144   2.419   0.834  13.389
 3551TIP3    H232145   2.516   0.798  13.279
 3552TIP3   OH232146   2.660   0.803  11.953
 3552TIP3    H132147   2.643   0.792  11.857
 3552TIP3    H232148   2.757   0.810  11.959
 3553TIP3   OH232149   2.986   1.018  13.694
 3553TIP3    H132150   3.082   1.020  13.685
 3553TIP3    H232151   2.969   0.942  13.752
 3554TIP3   OH232152   3.595   1.036  11.896
 3554TIP3    H132153   3.573   0.996  11.811
 3554TIP3    H232154   3.602   1.132  11.875
 3555TIP3   OH232155   2.518   0.501  13.470
 3555TIP3    H132156   2.530   0.429  13.405
 3555TIP3    H232157   2.514   0.581  13.413
 3556TIP3   OH232158   2.560   0.338  13.221
 3556TIP3    H132159   2.610   0.387  13.152
 3556TIP3    H232160   2.470   0.329  13.180
 3557TIP3   OH232161   2.714   0.885  13.247
 3557TIP3    H132162   2.789   0.869  13.189
 3557TIP3    H232163   2.679   0.970  13.215
 3558TIP3   OH232164   3.154   0.663  13.745
 3558TIP3    H132165   3.177   0.570  13.735
 3558TIP3    H232166   3.241   0.707  13.746
 3559TIP3   OH232167   3.287   0.941  13.558
 3559TIP3    H132168   3.262   1.014  13.497
 3559TIP3    H232169   3.383   0.938  13.540
 3560TIP3   OH232170   2.365   0.625  13.661
 3560TIP3    H132171   2.288   0.567  13.642
 3560TIP3    H232172   2.431   0.589  13.599
 3561TIP3   OH232173   2.630   0.095  13.279
 3561TIP3    H132174   2.623   0.190  13.254
 3561TIP3    H232175   2.566   0.054  13.219
 3562TIP3   OH232176   2.765   0.515  13.622
 3562TIP3    H132177   2.736   0.490  13.712
 3562TIP3    H232178   2.685   0.495  13.569
 3563TIP3   OH232179   3.037   0.433  13.532
 3563TIP3    H132180   2.940   0.433  13.543
 3563TIP3    H232181   3.065   0.366  13.598
 3564TIP3   OH232182   3.199   0.296  13.726
 3564TIP3    H132183   3.189   0.198  13.725
 3564TIP3    H232184   3.168   0.320  13.815
 3565TIP3   OH232185   2.175   0.416  13.635
 3565TIP3    H132186   2.201   0.344  13.573
 3565TIP3    H232187   2.168   0.370  13.720
 3566TIP3   OH232188   2.659   7.358  13.531
 3566TIP3    H132189   2.728   7.292  13.535
 3566TIP3    H232190   2.651   7.384  13.437
 3567TIP3   OH232191   2.697   0.186  13.738
 3567TIP3    H132192   2.682   0.132  13.657
 3567TIP3    H232193   2.636   0.260  13.730
 3568TIP3   OH232194   2.644   1.872  12.059
 3568TIP3    H132195   2.741   1.884  12.067
 3568TIP3    H232196   2.627   1.936  11.988
 3569TIP3   OH232197   2.001   1.333  12.006
 3569TIP3    H132198   2.097   1.341  12.027
 3569TIP3    H232199   2.006   1.266  11.933
 3570TIP3   OH232200   1.876   1.872  12.505
 3570TIP3    H132201   1.805   1.823  12.457
 3570TIP3    H232202   1.905   1.805  12.570
 3571TIP3   OH232203   1.959   1.683  12.690
 3571TIP3    H132204   1.924   1.595  12.710
 3571TIP3    H232205   1.981   1.716  12.779
 3572TIP3   OH232206   3.710   1.764  12.986
 3572TIP3    H132207   3.715   1.780  13.081
 3572TIP3    H232208   3.782   1.820  12.954
 3573TIP3   OH232209   3.670   1.722  13.280
 3573TIP3    H132210   3.622   1.645  13.242
 3573TIP3    H232211   3.722   1.677  13.350
 3574TIP3   OH232212   3.514   1.296  13.745
 3574TIP3    H132213   3.425   1.290  13.783
 3574TIP3    H232214   3.552   1.375  13.788
 3575TIP3   OH232215   3.645   1.127  12.291
 3575TIP3    H132216   3.732   1.166  12.308
 3575TIP3    H232217   3.645   1.053  12.357
 3576TIP3   OH232218   3.683   0.934  12.478
 3576TIP3    H132219   3.608   0.883  12.518
 3576TIP3    H232220   3.742   0.949  12.553
 3577TIP3   OH232221   3.658   1.205  12.976
 3577TIP3    H132222   3.741   1.168  12.940
 3577TIP3    H232223   3.672   1.301  12.959
 3578TIP3   OH232224   3.513   1.495  13.204
 3578TIP3    H132225   3.444   1.528  13.264
 3578TIP3    H232226   3.458   1.453  13.134
 3579TIP3   OH232227   3.712   0.917  12.117
 3579TIP3    H132228   3.657   0.953  12.045
 3579TIP3    H232229   3.704   0.988  12.184
 3580TIP3   OH232230   3.549   0.641  11.970
 3580TIP3    H132231   3.556   0.709  11.901
 3580TIP3    H232232   3.531   0.559  11.920
 3581TIP3   OH232233   3.464   0.782  12.534
 3581TIP3    H132234   3.449   0.687  12.532
 3581TIP3    H232235   3.429   0.806  12.622
 3582TIP3   OH232236   1.965   0.994  12.939
 3582TIP3    H132237   1.984   0.981  12.844
 3582TIP3    H232238   2.053   0.972  12.977
 3583TIP3   OH232239   3.549   0.979  13.502
 3583TIP3    H132240   3.610   0.904  13.517
 3583TIP3    H232241   3.608   1.057  13.504
 3584TIP3   OH232242   3.700   0.769  13.568
 3584TIP3    H132243   3.612   0.728  13.552
 3584TIP3    H232244   3.758   0.691  13.560
 3585TIP3   OH232245   3.472   0.389  11.884
 3585TIP3    H132246   3.533   0.346  11.946
 3585TIP3    H232247   3.387   0.343  11.900
 3586TIP3   OH232248   3.430   0.541  12.378
 3586TIP3    H132249   3.462   0.450  12.392
 3586TIP3    H232250   3.511   0.582  12.345
 3587TIP3   OH232251   3.494   0.597  12.924
 3587TIP3    H132252   3.590   0.619  12.923
 3587TIP3    H232253   3.475   0.608  13.018
 3588TIP3   OH232254   3.501   0.669  13.203
 3588TIP3    H132255   3.413   0.697  13.236
 3588TIP3    H232256   3.544   0.754  13.181
 3589TIP3   OH232257   1.925   0.523  13.557
 3589TIP3    H132258   2.019   0.500  13.573
 3589TIP3    H232259   1.881   0.439  13.583
 3590TIP3   OH232260   3.732   0.070  13.739
 3590TIP3    H132261   3.761   0.005  13.674
 3590TIP3    H232262   3.737   0.154  13.690
 3591TIP3   OH232263   3.497   0.268  12.385
 3591TIP3    H132264   3.516   0.222  12.469
 3591TIP3    H232265   3.438   0.204  12.339
 3592TIP3   OH232266   2.048   0.347  12.829
 3592TIP3    H132267   2.092   0.270  12.870
 3592TIP3    H232268   2.091   0.417  12.883
 3593TIP3   OH232269   1.857   0.668  12.924
 3593TIP3    H132270   1.928   0.623  12.874
 3593TIP3    H232271   1.918   0.725  12.974
 3594TIP3   OH232272   3.682   0.280  13.571
 3594TIP3    H132273   3.588   0.307  13.568
 3594TIP3    H232274   3.686   0.225  13.492
 3595TIP3   OH232275   3.681   0.276  12.038
 3595TIP3    H132276   3.723   0.200  11.990
 3595TIP3    H232277   3.753   0.339  12.044
 3596TIP3   OH232278   1.914   0.273  12.352
 3596TIP3    H132279   1.819   0.293  12.338
 3596TIP3    H232280   1.954   0.324  12.281
 3597TIP3   OH232281   3.385   1.771  12.548
 3597TIP3    H132282   3.452   1.739  12.485
 3597TIP3    H232283   3.440   1.821  12.610
 3598TIP3   OH232284   1.905   0.144  13.182
 3598TIP3    H132285   1.839   0.126  13.250
 3598TIP3    H232286   1.862   0.211  13.126
 3599TIP3   OH232287   2.129   1.462  13.599
 3599TIP3    H132288   2.045   1.483  13.554
 3599TIP3    H232289   2.102   1.455  13.691
 3600TIP3   OH232290   2.420   1.561  13.226
 3600TIP3    H132291   2.384   1.646  13.198
 3600TIP3    H232292   2.512   1.571  13.195
 3601TIP3   OH232293   2.852   1.704  13.518
 3601TIP3    H132294   2.868   1.669  13.609
 3601TIP3    H232295   2.941   1.734  13.491
 3602TIP3   OH232296   3.083   1.832  13.444
 3602TIP3    H132297   3.155   1.770  13.425
 3602TIP3    H232298   3.118   1.873  13.527
 3603TIP3   OH232299   3.583   0.094  13.354
 3603TIP3    H132300   3.499   0.125  13.317
 3603TIP3    H232301   3.601   0.013  13.303
 3604TIP3   OH232302   2.163   1.886  13.227
 3604TIP3    H132303   2.089   1.934  13.186
 3604TIP3    H232304   2.129   1.865  13.315
 3605TIP3   OH232305   2.410   1.844  13.133
 3605TIP3    H132306   2.320   1.857  13.173
 3605TIP3    H232307   2.403   1.903  13.055
 3606TIP3   OH232308   2.887   1.839  13.046
 3606TIP3    H132309   2.830   1.889  12.986
 3606TIP3    H232310   2.890   1.897  13.125
 3607TIP3   OH232311   3.112   1.719  13.143
 3607TIP3    H132312   3.020   1.742  13.120
 3607TIP3    H232313   3.156   1.804  13.149
 3608TIP3   OH232314   3.362   1.876  13.172
 3608TIP3    H132315   3.363   1.973  13.154
 3608TIP3    H232316   3.394   1.837  13.088
 3609TIP3   OH232317   2.106   1.751  12.920
 3609TIP3    H132318   2.100   1.706  13.007
 3609TIP3    H232319   2.188   1.715  12.880
 3610TIP3   OH232320   2.315   1.622  12.785
 3610TIP3    H132321   2.298   1.529  12.807
 3610TIP3    H232322   2.401   1.636  12.832
 3611TIP3   OH232323   2.574   1.670  12.872
 3611TIP3    H132324   2.592   1.578  12.845
 3611TIP3    H232325   2.579   1.664  12.968
 3612TIP3   OH232326   2.920   0.241  12.785
 3612TIP3    H132327   2.856   0.172  12.813
 3612TIP3    H232328   2.979   0.187  12.731
 3613TIP3   OH232329   3.434   0.044  12.797
 3613TIP3    H132330   3.496   0.098  12.743
 3613TIP3    H232331   3.347   0.076  12.771
 3614TIP3   OH232332   3.605   0.164  12.621
 3614TIP3    H132333   3.673   0.108  12.580
 3614TIP3    H232334   3.652   0.249  12.632
 3615TIP3   OH232335   2.161   0.103  12.560
 3615TIP3    H132336   2.076   0.075  12.521
 3615TIP3    H232337   2.203   0.016  12.574
 3616TIP3   OH232338   2.012   0.118  12.092
 3616TIP3    H132339   2.098   0.161  12.083
 3616TIP3    H232340   1.980   0.141  12.181
 3617TIP3   OH232341   2.634   0.129  12.581
 3617TIP3    H132342   2.728   0.131  12.557
 3617TIP3    H232343   2.617   0.065  12.652
 3618TIP3   OH232344   3.159   0.114  12.718
 3618TIP3    H132345   3.173   0.112  12.623
 3618TIP3    H232346   3.146   0.016  12.730
 3619TIP3   OH232347   3.302   0.095  12.284
 3619TIP3    H132348   3.231   0.158  12.263
 3619TIP3    H232349   3.259   0.010  12.297
 3620TIP3   OH232350   2.028   1.669  12.243
 3620TIP3    H132351   1.960   1.668  12.173
 3620TIP3    H232352   2.027   1.764  12.264
 3621TIP3   OH232353   2.220   0.270  11.993
 3621TIP3    H132354   2.273   0.208  11.939
 3621TIP3    H232355   2.285   0.300  12.058
 3622TIP3   OH232356   2.717   0.293  12.238
 3622TIP3    H132357   2.748   0.235  12.309
 3622TIP3    H232358   2.725   0.380  12.284
 3623TIP3   OH232359   2.914   1.797  12.080
 3623TIP3    H132360   3.004   1.825  12.058
 3623TIP3    H232361   2.892   1.748  11.998
 3624TIP3   OH232362   3.584   1.750  12.351
 3624TIP3    H132363   3.565   1.673  12.293
 3624TIP3    H232364   3.579   1.824  12.287
 3625TIP3   OH232365   2.142   0.151  13.514
 3625TIP3    H132366   2.110   0.074  13.560
 3625TIP3    H232367   2.235   0.150  13.549
 3626TIP3   OH232368   2.330   0.104  13.669
 3626TIP3    H132369   2.424   0.076  13.659
 3626TIP3    H232370   2.311   0.020  13.715
 3627TIP3   OH232371   2.207   1.766  11.940
 3627TIP3    H132372   2.182   1.793  12.030
 3627TIP3    H232373   2.286   1.710  11.956
 3628TIP3   OH232374   3.184   7.384  13.691
 3628TIP3    H132375   3.192   7.323  13.768
 3628TIP3    H232376   3.272   7.363  13.656
 3629TIP3   OH232377   3.509   1.624  13.560
 3629TIP3    H132378   3.428   1.609  13.506
 3629TIP3    H232379   3.497   1.718  13.581
 3630TIP3   OH232380   4.952   1.011  12.559
 3630TIP3    H132381   4.953   1.109  12.552
 3630TIP3    H232382   4.881   0.988  12.497
 3631TIP3   OH232383   4.839   0.938  12.907
 3631TIP3    H132384   4.837   0.873  12.978
 3631TIP3    H232385   4.806   0.889  12.831
 3632TIP3   OH232386   4.075   0.904  13.063
 3632TIP3    H132387   4.083   0.837  13.134
 3632TIP3    H232388   4.149   0.962  13.084
 3633TIP3   OH232389   5.209   1.232  12.735
 3633TIP3    H132390   5.166   1.161  12.783
 3633TIP3    H232391   5.210   1.304  12.802
 3634TIP3   OH232392   4.167   1.349  12.915
 3634TIP3    H132393   4.135   1.263  12.881
 3634TIP3    H232394   4.263   1.330  12.920
 3635TIP3   OH232395   3.832   0.707  12.461
 3635TIP3    H132396   3.787   0.794  12.455
 3635TIP3    H232397   3.774   0.652  12.405
 3636TIP3   OH232398   3.901   0.928  12.674
 3636TIP3    H132399   3.927   0.847  12.722
 3636TIP3    H232400   3.973   0.937  12.610
 3637TIP3   OH232401   4.920   1.747  12.759
 3637TIP3    H132402   4.984   1.677  12.731
 3637TIP3    H232403   4.900   1.717  12.847
 3638TIP3   OH232404   4.677   1.179  12.951
 3638TIP3    H132405   4.711   1.114  12.888
 3638TIP3    H232406   4.756   1.193  13.006
 3639TIP3   OH232407   5.540   0.341  13.029
 3639TIP3    H132408   5.553   0.404  13.104
 3639TIP3    H232409   5.591   0.386  12.960
 3640TIP3   OH232410   4.993   0.624  12.984
 3640TIP3    H132411   5.008   0.527  12.984
 3640TIP3    H232412   4.983   0.639  12.888
 3641TIP3   OH232413   4.306   0.435  12.708
 3641TIP3    H132414   4.315   0.519  12.659
 3641TIP3    H232415   4.264   0.377  12.641
 3642TIP3   OH232416   5.081   0.438  12.540
 3642TIP3    H132417   5.144   0.412  12.612
 3642TIP3    H232418   5.135   0.501  12.491
 3643TIP3   OH232419   3.968   0.674  12.782
 3643TIP3    H132420   4.035   0.618  12.826
 3643TIP3    H232421   3.976   0.643  12.690
 3644TIP3   OH232422   4.484   0.829  12.710
 3644TIP3    H132423   4.549   0.772  12.753
 3644TIP3    H232424   4.430   0.763  12.663
 3645TIP3   OH232425   5.582   0.485  13.254
 3645TIP3    H132426   5.518   0.558  13.245
 3645TIP3    H232427   5.585   0.473  13.350
 3646TIP3   OH232428   4.195   0.326  13.113
 3646TIP3    H132429   4.166   0.379  13.036
 3646TIP3    H232430   4.124   0.346  13.179
 3647TIP3   OH232431   4.926   1.272  12.467
 3647TIP3    H132432   4.897   1.243  12.379
 3647TIP3    H232433   4.894   1.365  12.472
 3648TIP3   OH232434   4.447   1.088  13.138
 3648TIP3    H132435   4.375   1.152  13.156
 3648TIP3    H232436   4.518   1.147  13.108
 3649TIP3   OH232437   5.259   0.375  12.741
 3649TIP3    H132438   5.236   0.299  12.797
 3649TIP3    H232439   5.325   0.419  12.797
 3650TIP3   OH232440   4.150   0.510  12.912
 3650TIP3    H132441   4.214   0.577  12.946
 3650TIP3    H232442   4.204   0.466  12.842
 3651TIP3   OH232443   4.291   1.287  13.219
 3651TIP3    H132444   4.287   1.378  13.184
 3651TIP3    H232445   4.202   1.280  13.263
 3652TIP3   OH232446   3.900   1.250  12.298
 3652TIP3    H132447   3.874   1.281  12.209
 3652TIP3    H232448   3.906   1.335  12.347
 3653TIP3   OH232449   5.261   1.416  12.972
 3653TIP3    H132450   5.165   1.426  12.985
 3653TIP3    H232451   5.288   1.508  12.954
 3654TIP3   OH232452   5.294   0.245  13.116
 3654TIP3    H132453   5.220   0.306  13.103
 3654TIP3    H232454   5.363   0.285  13.059
 3655TIP3   OH232455   4.618   0.071  12.857
 3655TIP3    H132456   4.599  -0.023  12.853
 3655TIP3    H232457   4.526   0.096  12.879
 3656TIP3   OH232458   5.086   1.594  12.633
 3656TIP3    H132459   5.130   1.523  12.582
 3656TIP3    H232460   5.126   1.674  12.591
 3657TIP3   OH232461   5.206   1.387  12.483
 3657TIP3    H132462   5.177   1.316  12.423
 3657TIP3    H232463   5.211   1.338  12.568
 3658TIP3   OH232464   5.370   1.245  13.333
 3658TIP3    H132465   5.385   1.181  13.259
 3658TIP3    H232466   5.389   1.331  13.291
 3659TIP3   OH232467   4.819   0.935  12.310
 3659TIP3    H132468   4.749   0.992  12.273
 3659TIP3    H232469   4.889   0.944  12.243
 3660TIP3   OH232470   4.825   0.789  12.011
 3660TIP3    H132471   4.896   0.789  12.076
 3660TIP3    H232472   4.857   0.721  11.950
 3661TIP3   OH232473   5.558   0.876  13.138
 3661TIP3    H132474   5.491   0.948  13.143
 3661TIP3    H232475   5.605   0.899  13.056
 3662TIP3   OH232476   5.162   0.957  12.402
 3662TIP3    H132477   5.088   0.981  12.462
 3662TIP3    H232478   5.209   0.888  12.452
 3663TIP3   OH232479   5.155   0.773  13.312
 3663TIP3    H132480   5.157   0.854  13.367
 3663TIP3    H232481   5.092   0.803  13.244
 3664TIP3   OH232482   4.325   1.024  12.593
 3664TIP3    H132483   4.292   0.984  12.508
 3664TIP3    H232484   4.385   0.953  12.626
 3665TIP3   OH232485   4.458   1.363  12.861
 3665TIP3    H132486   4.455   1.308  12.782
 3665TIP3    H232487   4.535   1.326  12.907
 3666TIP3   OH232488   4.359   0.897  12.958
 3666TIP3    H132489   4.415   0.909  12.879
 3666TIP3    H232490   4.395   0.963  13.020
 3667TIP3   OH232491   4.997   1.453  13.028
 3667TIP3    H132492   4.969   1.517  13.095
 3667TIP3    H232493   4.973   1.368  13.072
 3668TIP3   OH232494   4.452   1.339  13.428
 3668TIP3    H132495   4.414   1.416  13.476
 3668TIP3    H232496   4.385   1.321  13.358
 3669TIP3   OH232497   5.051   0.872  12.169
 3669TIP3    H132498   5.106   0.894  12.248
 3669TIP3    H232499   5.093   0.924  12.097
 3670TIP3   OH232500   4.146   0.956  13.346
 3670TIP3    H132501   4.150   1.023  13.417
 3670TIP3    H232502   4.053   0.967  13.321
 3671TIP3   OH232503   4.822   1.548  12.515
 3671TIP3    H132504   4.866   1.579  12.595
 3671TIP3    H232505   4.765   1.623  12.492
 3672TIP3   OH232506   4.276   1.545  13.504
 3672TIP3    H132507   4.272   1.533  13.407
 3672TIP3    H232508   4.183   1.532  13.529
 3673TIP3   OH232509   5.421   0.058  12.150
 3673TIP3    H132510   5.330   0.061  12.182
 3673TIP3    H232511   5.445   0.141  12.110
 3674TIP3   OH232512   4.222   0.926  12.354
 3674TIP3    H132513   4.193   1.004  12.303
 3674TIP3    H232514   4.156   0.860  12.332
 3675TIP3   OH232515   5.534   1.485  11.992
 3675TIP3    H132516   5.549   1.580  12.009
 3675TIP3    H232517   5.627   1.455  11.990
 3676TIP3   OH232518   3.832   1.168  13.240
 3676TIP3    H132519   3.785   1.160  13.155
 3676TIP3    H232520   3.836   1.073  13.264
 3677TIP3   OH232521   3.807   1.442  12.921
 3677TIP3    H132522   3.902   1.429  12.920
 3677TIP3    H232523   3.798   1.523  12.973
 3678TIP3   OH232524   5.631   1.511  13.490
 3678TIP3    H132525   5.620   1.415  13.487
 3678TIP3    H232526   5.544   1.536  13.529
 3679TIP3   OH232527   4.726   1.466  13.376
 3679TIP3    H132528   4.733   1.550  13.427
 3679TIP3    H232529   4.639   1.431  13.402
 3680TIP3   OH232530   4.770   1.841  12.357
 3680TIP3    H132531   4.759   1.832  12.261
 3680TIP3    H232532   4.771   1.937  12.371
 3681TIP3   OH232533   4.134   1.727  12.537
 3681TIP3    H132534   4.148   1.686  12.625
 3681TIP3    H232535   4.049   1.687  12.513
 3682TIP3   OH232536   5.076   1.761  12.055
 3682TIP3    H132537   5.119   1.685  12.011
 3682TIP3    H232538   5.079   1.734  12.149
 3683TIP3   OH232539   5.045   1.754  12.332
 3683TIP3    H132540   4.950   1.762  12.350
 3683TIP3    H232541   5.070   1.681  12.390
 3684TIP3   OH232542   5.345   0.659  13.538
 3684TIP3    H132543   5.299   0.705  13.465
 3684TIP3    H232544   5.345   0.568  13.507
 3685TIP3   OH232545   4.059   1.299  13.337
 3685TIP3    H132546   4.081   1.262  13.425
 3685TIP3    H232547   3.972   1.259  13.316
 3686TIP3   OH232548   4.320   0.158  12.940
 3686TIP3    H132549   4.234   0.141  12.897
 3686TIP3    H232550   4.309   0.241  12.984
 3687TIP3   OH232551   4.789   0.114  13.272
 3687TIP3    H132552   4.829   0.075  13.350
 3687TIP3    H232553   4.693   0.102  13.287
 3688TIP3   OH232554   5.120   0.494  13.359
 3688TIP3    H132555   5.064   0.478  13.439
 3688TIP3    H232556   5.103   0.587  13.335
 3689TIP3   OH232557   5.195   0.980  11.944
 3689TIP3    H132558   5.197   0.959  11.847
 3689TIP3    H232559   5.281   1.022  11.954
 3690TIP3   OH232560   4.760   0.368  12.003
 3690TIP3    H132561   4.723   0.365  12.093
 3690TIP3    H232562   4.724   0.282  11.971
 3691TIP3   OH232563   4.335   0.642  13.054
 3691TIP3    H132564   4.264   0.641  13.120
 3691TIP3    H232565   4.332   0.735  13.021
 3692TIP3   OH232566   4.332   0.658  12.543
 3692TIP3    H132567   4.239   0.630  12.531
 3692TIP3    H232568   4.372   0.626  12.460
 3693TIP3   OH232569   4.884   0.704  12.421
 3693TIP3    H132570   4.843   0.788  12.388
 3693TIP3    H232571   4.955   0.692  12.356
 3694TIP3   OH232572   4.792   0.726  13.566
 3694TIP3    H132573   4.737   0.650  13.598
 3694TIP3    H232574   4.875   0.712  13.614
 3695TIP3   OH232575   4.987   0.654  12.705
 3695TIP3    H132576   4.961   0.710  12.630
 3695TIP3    H232577   4.999   0.569  12.659
 3696TIP3   OH232578   4.101   0.671  13.228
 3696TIP3    H132579   4.104   0.711  13.317
 3696TIP3    H232580   4.055   0.587  13.245
 3697TIP3   OH232581   4.438   0.412  11.913
 3697TIP3    H132582   4.394   0.365  11.987
 3697TIP3    H232583   4.366   0.450  11.862
 3698TIP3   OH232584   3.765   0.385  12.621
 3698TIP3    H132585   3.832   0.378  12.692
 3698TIP3    H232586   3.809   0.343  12.546
 3699TIP3   OH232587   3.894   0.456  12.164
 3699TIP3    H132588   3.942   0.516  12.103
 3699TIP3    H232589   3.822   0.515  12.194
 3700TIP3   OH232590   4.909   0.814  13.164
 3700TIP3    H132591   4.945   0.746  13.103
 3700TIP3    H232592   4.863   0.760  13.231
 3701TIP3   OH232593   4.588   0.408  12.644
 3701TIP3    H132594   4.495   0.409  12.676
 3701TIP3    H232595   4.637   0.398  12.727
 3702TIP3   OH232596   4.070   0.566  12.531
 3702TIP3    H132597   3.981   0.580  12.493
 3702TIP3    H232598   4.100   0.482  12.493
 3703TIP3   OH232599   4.435   0.568  12.293
 3703TIP3    H132600   4.530   0.583  12.312
 3703TIP3    H232601   4.411   0.638  12.230
 3704TIP3   OH232602   5.030   0.332  12.969
 3704TIP3    H132603   4.960   0.341  13.038
 3704TIP3    H232604   4.979   0.311  12.890
 3705TIP3   OH232605   4.304   0.688  12.053
 3705TIP3    H132606   4.250   0.650  11.981
 3705TIP3    H232607   4.386   0.708  12.006
 3706TIP3   OH232608   5.351   1.898  13.602
 3706TIP3    H132609   5.377   1.938  13.517
 3706TIP3    H232610   5.422   1.931  13.659
 3707TIP3   OH232611   4.117   1.145  13.559
 3707TIP3    H132612   4.189   1.170  13.619
 3707TIP3    H232613   4.039   1.158  13.617
 3708TIP3   OH232614   4.718   0.685  12.834
 3708TIP3    H132615   4.776   0.630  12.781
 3708TIP3    H232616   4.703   0.632  12.913
 3709TIP3   OH232617   4.218   0.304  12.476
 3709TIP3    H132618   4.186   0.212  12.477
 3709TIP3    H232619   4.297   0.296  12.422
 3710TIP3   OH232620   4.581   0.520  13.075
 3710TIP3    H132621   4.498   0.570  13.086
 3710TIP3    H232622   4.636   0.553  13.149
 3711TIP3   OH232623   4.640   1.143  12.245
 3711TIP3    H132624   4.560   1.095  12.212
 3711TIP3    H232625   4.619   1.152  12.340
 3712TIP3   OH232626   5.356   1.060  13.126
 3712TIP3    H132627   5.414   1.108  13.064
 3712TIP3    H232628   5.271   1.068  13.078
 3713TIP3   OH232629   5.022   0.426  12.066
 3713TIP3    H132630   4.927   0.439  12.046
 3713TIP3    H232631   5.052   0.516  12.093
 3714TIP3   OH232632   4.788   1.166  13.369
 3714TIP3    H132633   4.754   1.125  13.449
 3714TIP3    H232634   4.765   1.259  13.379
 3715TIP3   OH232635   5.100   0.609  12.224
 3715TIP3    H132636   5.187   0.606  12.267
 3715TIP3    H232637   5.104   0.695  12.177
 3716TIP3   OH232638   4.150   1.079  12.825
 3716TIP3    H132639   4.221   1.073  12.758
 3716TIP3    H232640   4.157   0.993  12.871
 3717TIP3   OH232641   4.850   1.289  12.148
 3717TIP3    H132642   4.817   1.373  12.185
 3717TIP3    H232643   4.777   1.228  12.169
 3718TIP3   OH232644   3.849   0.922  13.352
 3718TIP3    H132645   3.869   0.877  13.437
 3718TIP3    H232646   3.788   0.859  13.309
 3719TIP3   OH232647   4.551   0.877  13.572
 3719TIP3    H132648   4.520   0.850  13.484
 3719TIP3    H232649   4.644   0.847  13.571
 3720TIP3   OH232650   5.018   1.410  13.363
 3720TIP3    H132651   4.925   1.429  13.340
 3720TIP3    H232652   5.016   1.439  13.457
 3721TIP3   OH232653   5.585   0.631  12.204
 3721TIP3    H132654   5.531   0.599  12.129
 3721TIP3    H232655   5.596   0.725  12.176
 3722TIP3   OH232656   5.585   1.215  13.485
 3722TIP3    H132657   5.496   1.237  13.448
 3722TIP3    H232658   5.640   1.211  13.405
 3723TIP3   OH232659   5.413   1.512  12.244
 3723TIP3    H132660   5.379   1.429  12.278
 3723TIP3    H232661   5.446   1.492  12.155
 3724TIP3   OH232662   5.135   0.994  12.953
 3724TIP3    H132663   5.041   0.971  12.944
 3724TIP3    H232664   5.178   0.916  12.912
 3725TIP3   OH232665   4.387   1.426  12.564
 3725TIP3    H132666   4.438   1.506  12.543
 3725TIP3    H232667   4.299   1.450  12.531
 3726TIP3   OH232668   3.964   0.911  12.021
 3726TIP3    H132669   4.023   0.976  12.061
 3726TIP3    H232670   3.875   0.943  12.047
 3727TIP3   OH232671   4.530   1.192  12.516
 3727TIP3    H132672   4.500   1.285  12.525
 3727TIP3    H232673   4.456   1.145  12.560
 3728TIP3   OH232674   4.575   1.610  13.155
 3728TIP3    H132675   4.619   1.692  13.128
 3728TIP3    H232676   4.635   1.578  13.225
 3729TIP3   OH232677   4.397   1.693  12.470
 3729TIP3    H132678   4.301   1.706  12.481
 3729TIP3    H232679   4.433   1.777  12.505
 3730TIP3   OH232680   4.930   1.213  13.120
 3730TIP3    H132681   4.893   1.193  13.208
 3730TIP3    H232682   4.992   1.141  13.102
 3731TIP3   OH232683   5.159   1.316  12.027
 3731TIP3    H132684   5.189   1.271  12.109
 3731TIP3    H232685   5.063   1.300  12.037
 3732TIP3   OH232686   5.206   1.670  13.369
 3732TIP3    H132687   5.140   1.619  13.319
 3732TIP3    H232688   5.227   1.739  13.303
 3733TIP3   OH232689   5.607   1.754  12.052
 3733TIP3    H132690   5.677   1.820  12.033
 3733TIP3    H232691   5.536   1.816  12.082
 3734TIP3   OH232692   4.015   0.394  13.309
 3734TIP3    H132693   3.924   0.429  13.304
 3734TIP3    H232694   4.002   0.307  13.351
 3735TIP3   OH232695   5.239   1.181  12.251
 3735TIP3    H132696   5.215   1.104  12.306
 3735TIP3    H232697   5.333   1.187  12.271
 3736TIP3   OH232698   3.977   1.575  13.150
 3736TIP3    H132699   4.004   1.481  13.150
 3736TIP3    H232700   4.002   1.602  13.239
 3737TIP3   OH232701   4.571   1.425  11.875
 3737TIP3    H132702   4.585   1.348  11.818
 3737TIP3    H232703   4.532   1.382  11.955
 3738TIP3   OH232704   4.453   1.378  12.121
 3738TIP3    H132705   4.476   1.327  12.199
 3738TIP3    H232706   4.459   1.471  12.153
 3739TIP3   OH232707   4.104   1.103  12.170
 3739TIP3    H132708   4.034   1.142  12.226
 3739TIP3    H232709   4.156   1.181  12.143
 3740TIP3   OH232710   4.888   0.370  13.201
 3740TIP3    H132711   4.959   0.378  13.266
 3740TIP3    H232712   4.850   0.282  13.218
 3741TIP3   OH232713   4.975   0.326  12.308
 3741TIP3    H132714   4.974   0.386  12.231
 3741TIP3    H232715   5.013   0.380  12.381
 3742TIP3   OH232716   4.732   1.545  12.193
 3742TIP3    H132717   4.650   1.598  12.199
 3742TIP3    H232718   4.785   1.599  12.132
 3743TIP3   OH232719   4.687   0.501  12.392
 3743TIP3    H132720   4.763   0.562  12.397
 3743TIP3    H232721   4.660   0.492  12.486
 3744TIP3   OH232722   4.740   0.606  13.311
 3744TIP3    H132723   4.749   0.663  13.390
 3744TIP3    H232724   4.806   0.537  13.322
 3745TIP3   OH232725   4.773   0.211  12.486
 3745TIP3    H132726   4.737   0.277  12.548
 3745TIP3    H232727   4.837   0.266  12.438
 3746TIP3   OH232728   4.469   1.649  12.194
 3746TIP3    H132729   4.481   1.731  12.140
 3746TIP3    H232730   4.444   1.684  12.282
 3747TIP3   OH232731   4.336   0.319  12.153
 3747TIP3    H132732   4.331   0.410  12.189
 3747TIP3    H232733   4.428   0.299  12.177
 3748TIP3   OH232734   5.359   0.393  13.396
 3748TIP3    H132735   5.266   0.424  13.384
 3748TIP3    H232736   5.390   0.393  13.304
 3749TIP3   OH232737   5.219   0.773  12.799
 3749TIP3    H132738   5.137   0.729  12.770
 3749TIP3    H232739   5.266   0.703  12.851
 3750TIP3   OH232740   4.160   1.365  12.058
 3750TIP3    H132741   4.225   1.431  12.088
 3750TIP3    H232742   4.212   1.320  11.988
 3751TIP3   OH232743   3.995   0.632  11.971
 3751TIP3    H132744   3.994   0.728  11.991
 3751TIP3    H232745   3.906   0.612  11.942
 3752TIP3   OH232746   5.326   1.697  12.965
 3752TIP3    H132747   5.315   1.766  12.897
 3752TIP3    H232748   5.422   1.704  12.983
 3753TIP3   OH232749   4.058   0.125  12.847
 3753TIP3    H132750   4.056   0.116  12.749
 3753TIP3    H232751   4.040   0.033  12.870
 3754TIP3   OH232752   3.971   1.502  12.458
 3754TIP3    H132753   3.886   1.549  12.456
 3754TIP3    H232754   4.021   1.552  12.392
 3755TIP3   OH232755   3.894   1.767  13.588
 3755TIP3    H132756   3.953   1.746  13.663
 3755TIP3    H232757   3.851   1.682  13.570
 3756TIP3   OH232758   4.359   1.659  13.750
 3756TIP3    H132759   4.435   1.610  13.783
 3756TIP3    H232760   4.357   1.633  13.656
 3757TIP3   OH232761   4.771   1.611  11.889
 3757TIP3    H132762   4.704   1.545  11.915
 3757TIP3    H232763   4.844   1.552  11.865
 3758TIP3   OH232764   5.012   1.497  13.623
 3758TIP3    H132765   4.980   1.409  13.650
 3758TIP3    H232766   5.088   1.509  13.684
 3759TIP3   OH232767   5.228   1.587  11.909
 3759TIP3    H132768   5.258   1.508  11.958
 3759TIP3    H232769   5.304   1.610  11.853
 3760TIP3   OH232770   3.886   1.146  13.687
 3760TIP3    H132771   3.901   1.055  13.656
 3760TIP3    H232772   3.810   1.172  13.632
 3761TIP3   OH232773   4.319   1.180  11.892
 3761TIP3    H132774   4.331   1.102  11.949
 3761TIP3    H232775   4.391   1.168  11.828
 3762TIP3   OH232776   4.555   1.144  13.627
 3762TIP3    H132777   4.521   1.173  13.540
 3762TIP3    H232778   4.565   1.046  13.617
 3763TIP3   OH232779   4.860   1.289  11.868
 3763TIP3    H132780   4.833   1.300  11.961
 3763TIP3    H232781   4.840   1.193  11.855
 3764TIP3   OH232782   5.125   1.131  13.365
 3764TIP3    H132783   5.203   1.191  13.357
 3764TIP3    H232784   5.054   1.195  13.370
 3765TIP3   OH232785   3.974   0.868  13.626
 3765TIP3    H132786   4.015   0.781  13.616
 3765TIP3    H232787   3.949   0.868  13.720
 3766TIP3   OH232788   4.438   0.980  12.131
 3766TIP3    H132789   4.390   0.928  12.196
 3766TIP3    H232790   4.466   0.912  12.065
 3767TIP3   OH232791   4.366   0.763  13.362
 3767TIP3    H132792   4.305   0.835  13.389
 3767TIP3    H232793   4.403   0.799  13.280
 3768TIP3   OH232794   4.545   0.803  11.953
 3768TIP3    H132795   4.529   0.792  11.857
 3768TIP3    H232796   4.643   0.810  11.959
 3769TIP3   OH232797   4.871   1.018  13.694
 3769TIP3    H132798   4.967   1.020  13.685
 3769TIP3    H232799   4.854   0.942  13.752
 3770TIP3   OH232800   5.481   1.036  11.896
 3770TIP3    H132801   5.458   0.997  11.811
 3770TIP3    H232802   5.488   1.132  11.875
 3771TIP3   OH232803   4.405   0.501  13.470
 3771TIP3    H132804   4.417   0.429  13.406
 3771TIP3    H232805   4.401   0.581  13.413
 3772TIP3   OH232806   4.445   0.339  13.221
 3772TIP3    H132807   4.497   0.386  13.152
 3772TIP3    H232808   4.356   0.328  13.180
 3773TIP3   OH232809   4.600   0.885  13.247
 3773TIP3    H132810   4.675   0.869  13.189
 3773TIP3    H232811   4.565   0.970  13.215
 3774TIP3   OH232812   5.040   0.663  13.745
 3774TIP3    H132813   5.062   0.570  13.735
 3774TIP3    H232814   5.127   0.707  13.746
 3775TIP3   OH232815   5.173   0.941  13.558
 3775TIP3    H132816   5.148   1.014  13.497
 3775TIP3    H232817   5.269   0.938  13.540
 3776TIP3   OH232818   4.251   0.625  13.661
 3776TIP3    H132819   4.174   0.567  13.642
 3776TIP3    H232820   4.317   0.589  13.599
 3777TIP3   OH232821   4.515   0.095  13.279
 3777TIP3    H132822   4.509   0.190  13.254
 3777TIP3    H232823   4.451   0.054  13.219
 3778TIP3   OH232824   4.651   0.515  13.622
 3778TIP3    H132825   4.622   0.490  13.712
 3778TIP3    H232826   4.572   0.495  13.570
 3779TIP3   OH232827   4.923   0.433  13.532
 3779TIP3    H132828   4.826   0.433  13.543
 3779TIP3    H232829   4.951   0.366  13.598
 3780TIP3   OH232830   5.084   0.296  13.726
 3780TIP3    H132831   5.075   0.198  13.725
 3780TIP3    H232832   5.054   0.320  13.815
 3781TIP3   OH232833   4.060   0.416  13.633
 3781TIP3    H132834   4.087   0.343  13.574
 3781TIP3    H232835   4.054   0.371  13.720
 3782TIP3   OH232836   4.544   7.358  13.531
 3782TIP3    H132837   4.614   7.292  13.535
 3782TIP3    H232838   4.536   7.384  13.437
 3783TIP3   OH232839   4.583   0.186  13.738
 3783TIP3    H132840   4.567   0.132  13.657
 3783TIP3    H232841   4.521   0.260  13.731
 3784TIP3   OH232842   4.530   1.872  12.059
 3784TIP3    H132843   4.627   1.884  12.067
 3784TIP3    H232844   4.513   1.936  11.988
 3785TIP3   OH232845   3.886   1.333  12.006
 3785TIP3    H132846   3.983   1.341  12.027
 3785TIP3    H232847   3.891   1.266  11.933
 3786TIP3   OH232848   3.761   1.871  12.505
 3786TIP3    H132849   3.691   1.823  12.457
 3786TIP3    H232850   3.791   1.805  12.570
 3787TIP3   OH232851   3.844   1.683  12.690
 3787TIP3    H132852   3.810   1.595  12.710
 3787TIP3    H232853   3.867   1.716  12.779
 3788TIP3   OH232854   5.598   1.763  12.986
 3788TIP3    H132855   5.600   1.780  13.081
 3788TIP3    H232856   5.668   1.820  12.954
 3789TIP3   OH232857   5.556   1.722  13.280
 3789TIP3    H132858   5.508   1.645  13.242
 3789TIP3    H232859   5.607   1.678  13.350
 3790TIP3   OH232860   5.400   1.296  13.745
 3790TIP3    H132861   5.311   1.290  13.783
 3790TIP3    H232862   5.438   1.375  13.788
 3791TIP3   OH232863   5.531   1.127  12.291
 3791TIP3    H132864   5.617   1.166  12.309
 3791TIP3    H232865   5.531   1.053  12.357
 3792TIP3   OH232866   5.568   0.933  12.478
 3792TIP3    H132867   5.494   0.883  12.518
 3792TIP3    H232868   5.628   0.949  12.553
 3793TIP3   OH232869   5.544   1.205  12.976
 3793TIP3    H132870   5.627   1.168  12.940
 3793TIP3    H232871   5.558   1.301  12.959
 3794TIP3   OH232872   5.398   1.495  13.204
 3794TIP3    H132873   5.329   1.529  13.264
 3794TIP3    H232874   5.343   1.454  13.134
 3795TIP3   OH232875   5.598   0.917  12.117
 3795TIP3    H132876   5.542   0.954  12.045
 3795TIP3    H232877   5.590   0.988  12.184
 3796TIP3   OH232878   5.433   0.641  11.970
 3796TIP3    H132879   5.443   0.709  11.902
 3796TIP3    H232880   5.418   0.559  11.919
 3797TIP3   OH232881   5.348   0.781  12.533
 3797TIP3    H132882   5.335   0.686  12.533
 3797TIP3    H232883   5.315   0.806  12.621
 3798TIP3   OH232884   3.850   0.990  12.939
 3798TIP3    H132885   3.869   0.982  12.843
 3798TIP3    H232886   3.939   0.975  12.976
 3799TIP3   OH232887   5.434   0.979  13.502
 3799TIP3    H132888   5.495   0.904  13.517
 3799TIP3    H232889   5.494   1.057  13.504
 3800TIP3   OH232890   5.585   0.769  13.568
 3800TIP3    H132891   5.497   0.728  13.552
 3800TIP3    H232892   5.643   0.691  13.560
 3801TIP3   OH232893   5.356   0.391  11.888
 3801TIP3    H132894   5.421   0.345  11.944
 3801TIP3    H232895   5.273   0.341  11.896
 3802TIP3   OH232896   5.314   0.538  12.373
 3802TIP3    H132897   5.351   0.450  12.396
 3802TIP3    H232898   5.396   0.583  12.346
 3803TIP3   OH232899   5.380   0.597  12.924
 3803TIP3    H132900   5.476   0.619  12.923
 3803TIP3    H232901   5.360   0.609  13.018
 3804TIP3   OH232902   5.386   0.669  13.203
 3804TIP3    H132903   5.298   0.697  13.236
 3804TIP3    H232904   5.430   0.754  13.181
 3805TIP3   OH232905   3.811   0.522  13.554
 3805TIP3    H132906   3.904   0.500  13.574
 3805TIP3    H232907   3.766   0.440  13.584
 3806TIP3   OH232908   5.617   0.070  13.739
 3806TIP3    H132909   5.647   0.005  13.674
 3806TIP3    H232910   5.623   0.154  13.690
 3807TIP3   OH232911   5.377   0.269  12.384
 3807TIP3    H132912   5.403   0.224  12.468
 3807TIP3    H232913   5.326   0.198  12.341
 3808TIP3   OH232914   3.930   0.351  12.839
 3808TIP3    H132915   3.977   0.269  12.867
 3808TIP3    H232916   3.984   0.418  12.881
 3809TIP3   OH232917   3.761   0.649  12.945
 3809TIP3    H132918   3.816   0.626  12.868
 3809TIP3    H232919   3.805   0.731  12.972
 3810TIP3   OH232920   5.568   0.280  13.571
 3810TIP3    H132921   5.474   0.307  13.568
 3810TIP3    H232922   5.572   0.225  13.492
 3811TIP3   OH232923   5.565   0.276  12.038
 3811TIP3    H132924   5.609   0.200  11.990
 3811TIP3    H232925   5.638   0.339  12.044
 3812TIP3   OH232926   3.799   0.270  12.351
 3812TIP3    H132927   3.705   0.294  12.339
 3812TIP3    H232928   3.840   0.324  12.281
 3813TIP3   OH232929   5.271   1.771  12.547
 3813TIP3    H132930   5.339   1.739  12.485
 3813TIP3    H232931   5.323   1.821  12.611
 3814TIP3   OH232932   3.792   0.145  13.183
 3814TIP3    H132933   3.726   0.124  13.250
 3814TIP3    H232934   3.746   0.209  13.126
 3815TIP3   OH232935   4.014   1.462  13.599
 3815TIP3    H132936   3.930   1.483  13.554
 3815TIP3    H232937   3.987   1.455  13.691
 3816TIP3   OH232938   4.305   1.561  13.226
 3816TIP3    H132939   4.270   1.646  13.198
 3816TIP3    H232940   4.398   1.571  13.195
 3817TIP3   OH232941   4.737   1.704  13.518
 3817TIP3    H132942   4.754   1.669  13.609
 3817TIP3    H232943   4.827   1.734  13.491
 3818TIP3   OH232944   4.967   1.831  13.446
 3818TIP3    H132945   5.040   1.771  13.423
 3818TIP3    H232946   5.005   1.873  13.527
 3819TIP3   OH232947   5.469   0.094  13.354
 3819TIP3    H132948   5.385   0.125  13.317
 3819TIP3    H232949   5.486   0.013  13.303
 3820TIP3   OH232950   4.048   1.886  13.227
 3820TIP3    H132951   3.975   1.935  13.186
 3820TIP3    H232952   4.014   1.865  13.315
 3821TIP3   OH232953   4.295   1.844  13.133
 3821TIP3    H132954   4.206   1.857  13.173
 3821TIP3    H232955   4.288   1.903  13.055
 3822TIP3   OH232956   4.765   1.835  13.050
 3822TIP3    H132957   4.719   1.890  12.985
 3822TIP3    H232958   4.780   1.898  13.124
 3823TIP3   OH232959   4.996   1.718  13.149
 3823TIP3    H132960   4.908   1.743  13.117
 3823TIP3    H232961   5.041   1.804  13.141
 3824TIP3   OH232962   5.254   1.875  13.176
 3824TIP3    H132963   5.244   1.971  13.152
 3824TIP3    H232964   5.275   1.838  13.088
 3825TIP3   OH232965   3.991   1.751  12.920
 3825TIP3    H132966   3.986   1.706  13.007
 3825TIP3    H232967   4.073   1.715  12.880
 3826TIP3   OH232968   4.201   1.622  12.785
 3826TIP3    H132969   4.183   1.529  12.807
 3826TIP3    H232970   4.286   1.636  12.832
 3827TIP3   OH232971   4.460   1.670  12.872
 3827TIP3    H132972   4.478   1.578  12.845
 3827TIP3    H232973   4.465   1.664  12.969
 3828TIP3   OH232974   4.806   0.241  12.784
 3828TIP3    H132975   4.741   0.172  12.813
 3828TIP3    H232976   4.865   0.187  12.731
 3829TIP3   OH232977   5.320   0.042  12.796
 3829TIP3    H132978   5.381   0.097  12.743
 3829TIP3    H232979   5.233   0.077  12.772
 3830TIP3   OH232980   5.489   0.165  12.619
 3830TIP3    H132981   5.558   0.107  12.582
 3830TIP3    H232982   5.538   0.249  12.633
 3831TIP3   OH232983   4.048   0.106  12.562
 3831TIP3    H132984   3.963   0.077  12.523
 3831TIP3    H232985   4.087   0.017  12.573
 3832TIP3   OH232986   3.900   0.113  12.096
 3832TIP3    H132987   3.982   0.162  12.082
 3832TIP3    H232988   3.865   0.145  12.181
 3833TIP3   OH232989   4.520   0.130  12.581
 3833TIP3    H132990   4.614   0.130  12.557
 3833TIP3    H232991   4.502   0.065  12.651
 3834TIP3   OH232992   5.046   0.113  12.716
 3834TIP3    H132993   5.058   0.112  12.622
 3834TIP3    H232994   5.031   0.016  12.730
 3835TIP3   OH232995   5.187   0.100  12.281
 3835TIP3    H132996   5.107   0.151  12.267
 3835TIP3    H232997   5.149   0.011  12.297
 3836TIP3   OH232998   3.913   1.669  12.243
 3836TIP3    H132999   3.846   1.668  12.173
 3836TIP3    H233000   3.912   1.764  12.264
 3837TIP3   OH233001   4.105   0.270  11.993
 3837TIP3    H133002   4.158   0.208  11.939
 3837TIP3    H233003   4.171   0.300  12.058
 3838TIP3   OH233004   4.606   0.294  12.237
 3838TIP3    H133005   4.632   0.235  12.309
 3838TIP3    H233006   4.609   0.380  12.284
 3839TIP3   OH233007   4.799   1.797  12.080
 3839TIP3    H133008   4.890   1.825  12.058
 3839TIP3    H233009   4.777   1.748  11.998
 3840TIP3   OH233010   5.471   1.750  12.350
 3840TIP3    H133011   5.451   1.672  12.292
 3840TIP3    H233012   5.464   1.824  12.287
 3841TIP3   OH233013   4.028   0.151  13.513
 3841TIP3    H133014   3.996   0.074  13.560
 3841TIP3    H233015   4.120   0.150  13.549
 3842TIP3   OH233016   4.215   0.104  13.669
 3842TIP3    H133017   4.310   0.076  13.659
 3842TIP3    H233018   4.196   0.020  13.715
 3843TIP3   OH233019   4.093   1.766  11.940
 3843TIP3    H133020   4.067   1.793  12.030
 3843TIP3    H233021   4.171   1.710  11.956
 3844TIP3   OH233022   5.070   7.384  13.692
 3844TIP3    H133023   5.077   7.323  13.768
 3844TIP3    H233024   5.158   7.363  13.656
 3845TIP3   OH233025   5.394   1.623  13.560
 3845TIP3    H133026   5.314   1.609  13.506
 3845TIP3    H233027   5.383   1.718  13.581
 3846TIP3   OH233028   6.837   1.011  12.559
 3846TIP3    H133029   6.840   1.109  12.552
 3846TIP3    H233030   6.767   0.987  12.497
 3847TIP3   OH233031   6.725   0.938  12.907
 3847TIP3    H133032   6.722   0.873  12.978
 3847TIP3    H233033   6.692   0.889  12.831
 3848TIP3   OH233034   5.960   0.904  13.063
 3848TIP3    H133035   5.968   0.837  13.134
 3848TIP3    H233036   6.034   0.962  13.084
 3849TIP3   OH233037   7.094   1.231  12.736
 3849TIP3    H133038   7.052   1.160  12.785
 3849TIP3    H233039   7.098   1.302  12.803
 3850TIP3   OH233040   6.053   1.349  12.915
 3850TIP3    H133041   6.020   1.263  12.881
 3850TIP3    H233042   6.149   1.330  12.920
 3851TIP3   OH233043   5.717   0.707  12.461
 3851TIP3    H133044   5.672   0.794  12.455
 3851TIP3    H233045   5.660   0.652  12.405
 3852TIP3   OH233046   5.787   0.928  12.674
 3852TIP3    H133047   5.813   0.847  12.722
 3852TIP3    H233048   5.859   0.937  12.610
 3853TIP3   OH233049   6.808   1.748  12.758
 3853TIP3    H133050   6.871   1.677  12.731
 3853TIP3    H233051   6.786   1.717  12.846
 3854TIP3   OH233052   6.562   1.179  12.951
 3854TIP3    H133053   6.596   1.114  12.888
 3854TIP3    H233054   6.641   1.193  13.006
 3855TIP3   OH233055   6.878   0.624  12.984
 3855TIP3    H133056   6.895   0.527  12.983
 3855TIP3    H233057   6.868   0.639  12.888
 3856TIP3   OH233058   6.192   0.435  12.708
 3856TIP3    H133059   6.200   0.519  12.659
 3856TIP3    H233060   6.150   0.377  12.641
 3857TIP3   OH233061   6.965   0.443  12.545
 3857TIP3    H133062   7.032   0.411  12.611
 3857TIP3    H233063   7.020   0.498  12.487
 3858TIP3   OH233064   5.853   0.674  12.782
 3858TIP3    H133065   5.921   0.618  12.826
 3858TIP3    H233066   5.862   0.643  12.690
 3859TIP3   OH233067   6.370   0.829  12.710
 3859TIP3    H133068   6.435   0.772  12.753
 3859TIP3    H233069   6.316   0.763  12.663
 3860TIP3   OH233070   6.080   0.326  13.113
 3860TIP3    H133071   6.051   0.379  13.036
 3860TIP3    H233072   6.010   0.346  13.179
 3861TIP3   OH233073   6.810   1.271  12.467
 3861TIP3    H133074   6.783   1.243  12.379
 3861TIP3    H233075   6.779   1.364  12.472
 3862TIP3   OH233076   6.333   1.088  13.138
 3862TIP3    H133077   6.261   1.152  13.156
 3862TIP3    H233078   6.403   1.147  13.108
 3863TIP3   OH233079   7.128   0.374  12.749
 3863TIP3    H133080   7.120   0.295  12.801
 3863TIP3    H233081   7.203   0.419  12.795
 3864TIP3   OH233082   6.035   0.510  12.912
 3864TIP3    H133083   6.100   0.577  12.946
 3864TIP3    H233084   6.089   0.466  12.842
 3865TIP3   OH233085   6.176   1.287  13.219
 3865TIP3    H133086   6.172   1.378  13.184
 3865TIP3    H233087   6.088   1.280  13.263
 3866TIP3   OH233088   5.785   1.250  12.298
 3866TIP3    H133089   5.759   1.281  12.209
 3866TIP3    H233090   5.792   1.335  12.347
 3867TIP3   OH233091   7.139   1.412  12.977
 3867TIP3    H133092   7.044   1.425  12.986
 3867TIP3    H233093   7.172   1.502  12.955
 3868TIP3   OH233094   7.169   0.255  13.107
 3868TIP3    H133095   7.096   0.317  13.102
 3868TIP3    H233096   7.240   0.293  13.055
 3869TIP3   OH233097   6.504   0.071  12.857
 3869TIP3    H133098   6.484  -0.023  12.853
 3869TIP3    H233099   6.411   0.096  12.879
 3870TIP3   OH233100   6.969   1.592  12.633
 3870TIP3    H133101   7.016   1.522  12.582
 3870TIP3    H233102   7.011   1.672  12.593
 3871TIP3   OH233103   7.091   1.385  12.481
 3871TIP3    H133104   7.063   1.314  12.422
 3871TIP3    H233105   7.097   1.338  12.567
 3872TIP3   OH233106   7.236   1.254  13.339
 3872TIP3    H133107   7.267   1.188  13.273
 3872TIP3    H233108   7.275   1.333  13.297
 3873TIP3   OH233109   6.705   0.936  12.310
 3873TIP3    H133110   6.635   0.992  12.273
 3873TIP3    H233111   6.775   0.944  12.243
 3874TIP3   OH233112   6.711   0.789  12.011
 3874TIP3    H133113   6.782   0.788  12.077
 3874TIP3    H233114   6.743   0.720  11.951
 3875TIP3   OH233115   7.048   0.959  12.400
 3875TIP3    H133116   6.974   0.982  12.462
 3875TIP3    H233117   7.094   0.890  12.453
 3876TIP3   OH233118   7.037   0.771  13.312
 3876TIP3    H133119   7.042   0.852  13.365
 3876TIP3    H233120   6.977   0.804  13.242
 3877TIP3   OH233121   6.210   1.023  12.593
 3877TIP3    H133122   6.178   0.984  12.508
 3877TIP3    H233123   6.271   0.953  12.626
 3878TIP3   OH233124   6.343   1.363  12.861
 3878TIP3    H133125   6.340   1.308  12.782
 3878TIP3    H233126   6.421   1.326  12.907
 3879TIP3   OH233127   6.244   0.897  12.958
 3879TIP3    H133128   6.301   0.909  12.879
 3879TIP3    H233129   6.281   0.963  13.020
 3880TIP3   OH233130   6.880   1.453  13.028
 3880TIP3    H133131   6.856   1.517  13.096
 3880TIP3    H233132   6.859   1.367  13.072
 3881TIP3   OH233133   6.338   1.339  13.428
 3881TIP3    H133134   6.300   1.416  13.476
 3881TIP3    H233135   6.270   1.321  13.358
 3882TIP3   OH233136   6.936   0.875  12.168
 3882TIP3    H133137   6.991   0.893  12.248
 3882TIP3    H233138   6.978   0.925  12.095
 3883TIP3   OH233139   6.031   0.956  13.346
 3883TIP3    H133140   6.036   1.023  13.417
 3883TIP3    H233141   5.938   0.967  13.321
 3884TIP3   OH233142   6.707   1.548  12.515
 3884TIP3    H133143   6.751   1.579  12.595
 3884TIP3    H233144   6.651   1.623  12.492
 3885TIP3   OH233145   6.162   1.545  13.504
 3885TIP3    H133146   6.158   1.533  13.407
 3885TIP3    H233147   6.068   1.532  13.529
 3886TIP3   OH233148   7.271   0.052  12.128
 3886TIP3    H133149   7.199   0.069  12.192
 3886TIP3    H233150   7.320   0.132  12.111
 3887TIP3   OH233151   6.108   0.926  12.354
 3887TIP3    H133152   6.079   1.004  12.303
 3887TIP3    H233153   6.042   0.860  12.332
 3888TIP3   OH233154   5.717   1.168  13.240
 3888TIP3    H133155   5.671   1.160  13.155
 3888TIP3    H233156   5.722   1.073  13.264
 3889TIP3   OH233157   5.693   1.441  12.921
 3889TIP3    H133158   5.788   1.429  12.920
 3889TIP3    H233159   5.684   1.522  12.973
 3890TIP3   OH233160   6.612   1.466  13.376
 3890TIP3    H133161   6.619   1.550  13.427
 3890TIP3    H233162   6.524   1.431  13.402
 3891TIP3   OH233163   6.656   1.841  12.357
 3891TIP3    H133164   6.645   1.832  12.261
 3891TIP3    H233165   6.657   1.938  12.371
 3892TIP3   OH233166   6.019   1.727  12.537
 3892TIP3    H133167   6.034   1.686  12.625
 3892TIP3    H233168   5.934   1.687  12.513
 3893TIP3   OH233169   6.964   1.762  12.055
 3893TIP3    H133170   7.004   1.684  12.010
 3893TIP3    H233171   6.964   1.734  12.149
 3894TIP3   OH233172   6.931   1.754  12.332
 3894TIP3    H133173   6.835   1.762  12.350
 3894TIP3    H233174   6.956   1.681  12.390
 3895TIP3   OH233175   7.203   0.668  13.543
 3895TIP3    H133176   7.184   0.708  13.458
 3895TIP3    H233177   7.236   0.579  13.513
 3896TIP3   OH233178   5.944   1.299  13.337
 3896TIP3    H133179   5.967   1.262  13.425
 3896TIP3    H233180   5.857   1.259  13.316
 3897TIP3   OH233181   6.206   0.158  12.940
 3897TIP3    H133182   6.119   0.141  12.897
 3897TIP3    H233183   6.194   0.241  12.984
 3898TIP3   OH233184   6.673   0.114  13.272
 3898TIP3    H133185   6.715   0.075  13.349
 3898TIP3    H233186   6.578   0.102  13.287
 3899TIP3   OH233187   7.004   0.494  13.359
 3899TIP3    H133188   6.950   0.479  13.439
 3899TIP3    H233189   6.989   0.587  13.336
 3900TIP3   OH233190   7.081   0.976  11.943
 3900TIP3    H133191   7.083   0.957  11.846
 3900TIP3    H233192   7.164   1.022  11.952
 3901TIP3   OH233193   6.642   0.370  12.001
 3901TIP3    H133194   6.611   0.365  12.093
 3901TIP3    H233195   6.610   0.282  11.972
 3902TIP3   OH233196   6.221   0.642  13.054
 3902TIP3    H133197   6.149   0.641  13.120
 3902TIP3    H233198   6.218   0.735  13.021
 3903TIP3   OH233199   6.218   0.658  12.543
 3903TIP3    H133200   6.125   0.630  12.531
 3903TIP3    H233201   6.257   0.626  12.460
 3904TIP3   OH233202   6.771   0.705  12.422
 3904TIP3    H133203   6.730   0.788  12.387
 3904TIP3    H233204   6.841   0.690  12.356
 3905TIP3   OH233205   6.677   0.726  13.566
 3905TIP3    H133206   6.624   0.650  13.598
 3905TIP3    H233207   6.761   0.713  13.614
 3906TIP3   OH233208   6.873   0.655  12.706
 3906TIP3    H133209   6.848   0.710  12.630
 3906TIP3    H233210   6.885   0.569  12.659
 3907TIP3   OH233211   5.986   0.671  13.228
 3907TIP3    H133212   5.990   0.711  13.317
 3907TIP3    H233213   5.941   0.587  13.245
 3908TIP3   OH233214   6.324   0.412  11.913
 3908TIP3    H133215   6.279   0.365  11.987
 3908TIP3    H233216   6.252   0.450  11.862
 3909TIP3   OH233217   5.651   0.384  12.621
 3909TIP3    H133218   5.718   0.379  12.693
 3909TIP3    H233219   5.696   0.342  12.546
 3910TIP3   OH233220   5.780   0.456  12.164
 3910TIP3    H133221   5.827   0.515  12.103
 3910TIP3    H233222   5.708   0.515  12.194
 3911TIP3   OH233223   6.794   0.813  13.163
 3911TIP3    H133224   6.831   0.746  13.103
 3911TIP3    H233225   6.749   0.760  13.231
 3912TIP3   OH233226   6.474   0.408  12.644
 3912TIP3    H133227   6.380   0.409  12.676
 3912TIP3    H233228   6.523   0.398  12.727
 3913TIP3   OH233229   5.956   0.566  12.531
 3913TIP3    H133230   5.867   0.580  12.493
 3913TIP3    H233231   5.985   0.482  12.493
 3914TIP3   OH233232   6.321   0.568  12.293
 3914TIP3    H133233   6.415   0.583  12.312
 3914TIP3    H233234   6.297   0.638  12.230
 3915TIP3   OH233235   6.913   0.332  12.969
 3915TIP3    H133236   6.844   0.341  13.039
 3915TIP3    H233237   6.862   0.312  12.889
 3916TIP3   OH233238   6.189   0.688  12.053
 3916TIP3    H133239   6.136   0.650  11.981
 3916TIP3    H233240   6.272   0.708  12.006
 3917TIP3   OH233241   7.233   1.899  13.602
 3917TIP3    H133242   7.263   1.936  13.518
 3917TIP3    H233243   7.306   1.929  13.659
 3918TIP3   OH233244   6.003   1.145  13.559
 3918TIP3    H133245   6.075   1.170  13.619
 3918TIP3    H233246   5.925   1.158  13.617
 3919TIP3   OH233247   6.604   0.685  12.834
 3919TIP3    H133248   6.663   0.630  12.781
 3919TIP3    H233249   6.589   0.632  12.913
 3920TIP3   OH233250   6.103   0.303  12.476
 3920TIP3    H133251   6.071   0.211  12.477
 3920TIP3    H233252   6.183   0.296  12.422
 3921TIP3   OH233253   6.467   0.520  13.075
 3921TIP3    H133254   6.383   0.570  13.086
 3921TIP3    H233255   6.521   0.553  13.149
 3922TIP3   OH233256   6.525   1.143  12.245
 3922TIP3    H133257   6.446   1.094  12.212
 3922TIP3    H233258   6.505   1.152  12.340
 3923TIP3   OH233259   7.231   1.062  13.126
 3923TIP3    H133260   7.295   1.093  13.059
 3923TIP3    H233261   7.149   1.067  13.074
 3924TIP3   OH233262   6.909   0.426  12.062
 3924TIP3    H133263   6.813   0.438  12.048
 3924TIP3    H233264   6.939   0.512  12.098
 3925TIP3   OH233265   6.674   1.166  13.369
 3925TIP3    H133266   6.640   1.125  13.450
 3925TIP3    H233267   6.652   1.259  13.379
 3926TIP3   OH233268   6.981   0.614  12.225
 3926TIP3    H133269   7.070   0.601  12.265
 3926TIP3    H233270   6.989   0.698  12.176
 3927TIP3   OH233271   6.036   1.079  12.825
 3927TIP3    H133272   6.106   1.073  12.758
 3927TIP3    H233273   6.042   0.993  12.871
 3928TIP3   OH233274   6.736   1.289  12.148
 3928TIP3    H133275   6.702   1.373  12.185
 3928TIP3    H233276   6.662   1.228  12.169
 3929TIP3   OH233277   5.735   0.922  13.352
 3929TIP3    H133278   5.754   0.877  13.437
 3929TIP3    H233279   5.674   0.859  13.309
 3930TIP3   OH233280   6.436   0.877  13.572
 3930TIP3    H133281   6.406   0.850  13.484
 3930TIP3    H233282   6.530   0.847  13.571
 3931TIP3   OH233283   6.901   1.409  13.363
 3931TIP3    H133284   6.809   1.429  13.340
 3931TIP3    H233285   6.902   1.438  13.456
 3932TIP3   OH233286   7.292   1.511  12.243
 3932TIP3    H133287   7.262   1.428  12.279
 3932TIP3    H233288   7.332   1.492  12.158
 3933TIP3   OH233289   7.016   0.992  12.954
 3933TIP3    H133290   6.922   0.970  12.943
 3933TIP3    H233291   7.063   0.917  12.913
 3934TIP3   OH233292   6.273   1.426  12.563
 3934TIP3    H133293   6.324   1.506  12.543
 3934TIP3    H233294   6.185   1.450  12.531
 3935TIP3   OH233295   5.849   0.911  12.021
 3935TIP3    H133296   5.908   0.976  12.061
 3935TIP3    H233297   5.761   0.943  12.047
 3936TIP3   OH233298   6.416   1.192  12.516
 3936TIP3    H133299   6.386   1.285  12.525
 3936TIP3    H233300   6.342   1.145  12.560
 3937TIP3   OH233301   6.461   1.610  13.155
 3937TIP3    H133302   6.505   1.692  13.128
 3937TIP3    H233303   6.521   1.578  13.225
 3938TIP3   OH233304   6.283   1.693  12.471
 3938TIP3    H133305   6.186   1.706  12.481
 3938TIP3    H233306   6.319   1.777  12.505
 3939TIP3   OH233307   6.816   1.213  13.120
 3939TIP3    H133308   6.779   1.193  13.208
 3939TIP3    H233309   6.878   1.140  13.102
 3940TIP3   OH233310   7.045   1.316  12.028
 3940TIP3    H133311   7.074   1.271  12.110
 3940TIP3    H233312   6.949   1.301  12.037
 3941TIP3   OH233313   7.089   1.672  13.369
 3941TIP3    H133314   7.025   1.619  13.318
 3941TIP3    H233315   7.114   1.739  13.302
 3942TIP3   OH233316   5.900   0.394  13.309
 3942TIP3    H133317   5.809   0.429  13.304
 3942TIP3    H233318   5.887   0.307  13.351
 3943TIP3   OH233319   7.124   1.179  12.251
 3943TIP3    H133320   7.100   1.102  12.307
 3943TIP3    H233321   7.218   1.187  12.273
 3944TIP3   OH233322   5.862   1.575  13.150
 3944TIP3    H133323   5.889   1.481  13.150
 3944TIP3    H233324   5.888   1.602  13.239
 3945TIP3   OH233325   6.456   1.425  11.875
 3945TIP3    H133326   6.470   1.348  11.818
 3945TIP3    H233327   6.418   1.382  11.955
 3946TIP3   OH233328   6.339   1.378  12.121
 3946TIP3    H133329   6.361   1.327  12.199
 3946TIP3    H233330   6.344   1.471  12.153
 3947TIP3   OH233331   5.990   1.103  12.170
 3947TIP3    H133332   5.919   1.142  12.226
 3947TIP3    H233333   6.041   1.181  12.143
 3948TIP3   OH233334   6.772   0.370  13.202
 3948TIP3    H133335   6.845   0.378  13.264
 3948TIP3    H233336   6.736   0.281  13.219
 3949TIP3   OH233337   6.851   0.329  12.309
 3949TIP3    H133338   6.872   0.380  12.228
 3949TIP3    H233339   6.904   0.375  12.376
 3950TIP3   OH233340   6.617   1.546  12.193
 3950TIP3    H133341   6.535   1.598  12.199
 3950TIP3    H233342   6.670   1.599  12.132
 3951TIP3   OH233343   6.571   0.503  12.393
 3951TIP3    H133344   6.649   0.560  12.397
 3951TIP3    H233345   6.545   0.493  12.486
 3952TIP3   OH233346   6.626   0.606  13.311
 3952TIP3    H133347   6.635   0.664  13.389
 3952TIP3    H233348   6.692   0.536  13.321
 3953TIP3   OH233349   6.656   0.211  12.486
 3953TIP3    H133350   6.625   0.278  12.549
 3953TIP3    H233351   6.723   0.265  12.437
 3954TIP3   OH233352   6.355   1.649  12.194
 3954TIP3    H133353   6.367   1.731  12.140
 3954TIP3    H233354   6.330   1.684  12.282
 3955TIP3   OH233355   6.221   0.319  12.153
 3955TIP3    H133356   6.217   0.410  12.189
 3955TIP3    H233357   6.314   0.299  12.177
 3956TIP3   OH233358   7.242   0.387  13.390
 3956TIP3    H133359   7.151   0.424  13.384
 3956TIP3    H233360   7.275   0.395  13.300
 3957TIP3   OH233361   7.106   0.774  12.803
 3957TIP3    H133362   7.024   0.731  12.770
 3957TIP3    H233363   7.147   0.701  12.851
 3958TIP3   OH233364   6.046   1.365  12.058
 3958TIP3    H133365   6.111   1.431  12.088
 3958TIP3    H233366   6.098   1.320  11.988
 3959TIP3   OH233367   5.881   0.631  11.970
 3959TIP3    H133368   5.880   0.727  11.991
 3959TIP3    H233369   5.791   0.612  11.942
 3960TIP3   OH233370   7.215   1.697  12.965
 3960TIP3    H133371   7.199   1.767  12.899
 3960TIP3    H233372   7.309   1.707  12.985
 3961TIP3   OH233373   5.943   0.125  12.846
 3961TIP3    H133374   5.941   0.115  12.748
 3961TIP3    H233375   5.926   0.032  12.869
 3962TIP3   OH233376   5.857   1.502  12.458
 3962TIP3    H133377   5.772   1.549  12.456
 3962TIP3    H233378   5.907   1.552  12.392
 3963TIP3   OH233379   5.779   1.767  13.588
 3963TIP3    H133380   5.838   1.746  13.663
 3963TIP3    H233381   5.736   1.682  13.570
 3964TIP3   OH233382   6.244   1.659  13.750
 3964TIP3    H133383   6.321   1.610  13.783
 3964TIP3    H233384   6.242   1.633  13.656
 3965TIP3   OH233385   6.657   1.610  11.889
 3965TIP3    H133386   6.589   1.545  11.915
 3965TIP3    H233387   6.730   1.552  11.865
 3966TIP3   OH233388   6.899   1.497  13.623
 3966TIP3    H133389   6.867   1.409  13.650
 3966TIP3    H233390   6.974   1.509  13.685
 3967TIP3   OH233391   7.112   1.588  11.911
 3967TIP3    H133392   7.141   1.509  11.957
 3967TIP3    H233393   7.188   1.610  11.853
 3968TIP3   OH233394   5.771   1.146  13.687
 3968TIP3    H133395   5.787   1.055  13.656
 3968TIP3    H233396   5.695   1.172  13.632
 3969TIP3   OH233397   6.204   1.180  11.892
 3969TIP3    H133398   6.217   1.102  11.949
 3969TIP3    H233399   6.277   1.168  11.828
 3970TIP3   OH233400   6.441   1.144  13.627
 3970TIP3    H133401   6.407   1.173  13.540
 3970TIP3    H233402   6.451   1.046  13.617
 3971TIP3   OH233403   6.746   1.289  11.868
 3971TIP3    H133404   6.718   1.300  11.961
 3971TIP3    H233405   6.725   1.193  11.855
 3972TIP3   OH233406   7.010   1.129  13.362
 3972TIP3    H133407   7.087   1.190  13.356
 3972TIP3    H233408   6.940   1.195  13.370
 3973TIP3   OH233409   5.860   0.868  13.626
 3973TIP3    H133410   5.901   0.781  13.616
 3973TIP3    H233411   5.835   0.868  13.720
 3974TIP3   OH233412   6.324   0.980  12.131
 3974TIP3    H133413   6.275   0.928  12.196
 3974TIP3    H233414   6.352   0.912  12.065
 3975TIP3   OH233415   6.251   0.763  13.362
 3975TIP3    H133416   6.191   0.835  13.389
 3975TIP3    H233417   6.289   0.799  13.280
 3976TIP3   OH233418   6.431   0.803  11.953
 3976TIP3    H133419   6.415   0.792  11.857
 3976TIP3    H233420   6.528   0.810  11.959
 3977TIP3   OH233421   6.754   1.018  13.694
 3977TIP3    H133422   6.851   1.020  13.685
 3977TIP3    H233423   6.740   0.941  13.752
 3978TIP3   OH233424   6.290   0.501  13.470
 3978TIP3    H133425   6.302   0.429  13.406
 3978TIP3    H233426   6.287   0.581  13.413
 3979TIP3   OH233427   6.331   0.339  13.221
 3979TIP3    H133428   6.383   0.386  13.152
 3979TIP3    H233429   6.241   0.328  13.180
 3980TIP3   OH233430   6.485   0.885  13.247
 3980TIP3    H133431   6.561   0.869  13.189
 3980TIP3    H233432   6.450   0.970  13.215
 3981TIP3   OH233433   6.925   0.664  13.745
 3981TIP3    H133434   6.948   0.571  13.734
 3981TIP3    H233435   7.013   0.706  13.745
 3982TIP3   OH233436   7.055   0.942  13.557
 3982TIP3    H133437   7.033   1.016  13.497
 3982TIP3    H233438   7.152   0.938  13.540
 3983TIP3   OH233439   6.136   0.625  13.661
 3983TIP3    H133440   6.059   0.567  13.642
 3983TIP3    H233441   6.203   0.589  13.599
 3984TIP3   OH233442   6.401   0.095  13.279
 3984TIP3    H133443   6.394   0.190  13.254
 3984TIP3    H233444   6.337   0.054  13.219
 3985TIP3   OH233445   6.537   0.515  13.622
 3985TIP3    H133446   6.508   0.490  13.712
 3985TIP3    H233447   6.457   0.495  13.570
 3986TIP3   OH233448   6.807   0.433  13.533
 3986TIP3    H133449   6.710   0.432  13.544
 3986TIP3    H233450   6.837   0.367  13.597
 3987TIP3   OH233451   6.975   0.296  13.728
 3987TIP3    H133452   6.959   0.198  13.725
 3987TIP3    H233453   6.938   0.321  13.814
 3988TIP3   OH233454   5.946   0.416  13.633
 3988TIP3    H133455   5.973   0.343  13.574
 3988TIP3    H233456   5.939   0.371  13.720
 3989TIP3   OH233457   6.430   7.358  13.531
 3989TIP3    H133458   6.500   7.293  13.534
 3989TIP3    H233459   6.422   7.384  13.437
 3990TIP3   OH233460   6.468   0.186  13.738
 3990TIP3    H133461   6.453   0.132  13.657
 3990TIP3    H233462   6.407   0.260  13.731
 3991TIP3   OH233463   6.416   1.872  12.059
 3991TIP3    H133464   6.512   1.884  12.067
 3991TIP3    H233465   6.398   1.936  11.988
 3992TIP3   OH233466   5.772   1.333  12.006
 3992TIP3    H133467   5.868   1.341  12.027
 3992TIP3    H233468   5.777   1.266  11.933
 3993TIP3   OH233469   5.647   1.871  12.505
 3993TIP3    H133470   5.576   1.823  12.457
 3993TIP3    H233471   5.677   1.805  12.570
 3994TIP3   OH233472   5.730   1.683  12.690
 3994TIP3    H133473   5.695   1.595  12.710
 3994TIP3    H233474   5.753   1.716  12.779
 3995TIP3   OH233475   7.269   1.305  13.735
 3995TIP3    H133476   7.192   1.289  13.789
 3995TIP3    H233477   7.321   1.369  13.785
 3996TIP3   OH233478   7.282   1.489  13.208
 3996TIP3    H133479   7.215   1.531  13.265
 3996TIP3    H233480   7.228   1.453  13.134
 3997TIP3   OH233481   7.309   0.644  11.972
 3997TIP3    H133482   7.326   0.707  11.902
 3997TIP3    H233483   7.301   0.560  11.922
 3998TIP3   OH233484   7.203   0.788  12.535
 3998TIP3    H133485   7.217   0.692  12.538
 3998TIP3    H233486   7.197   0.810  12.630
 3999TIP3   OH233487   5.736   0.990  12.939
 3999TIP3    H133488   5.755   0.982  12.843
 3999TIP3    H233489   5.825   0.975  12.976
 4000TIP3   OH233490  -0.031   0.983  13.529
 4000TIP3    H133491   0.028   0.906  13.526
 4000TIP3    H233492   0.028   1.055  13.501
 4001TIP3   OH233493   7.246   0.388  11.885
 4001TIP3    H133494   7.303   0.343  11.947
 4001TIP3    H233495   7.159   0.344  11.899
 4002TIP3   OH233496   7.201   0.538  12.372
 4002TIP3    H133497   7.231   0.449  12.400
 4002TIP3    H233498   7.281   0.578  12.339
 4003TIP3   OH233499   7.227   0.548  12.914
 4003TIP3    H133500   7.323   0.563  12.904
 4003TIP3    H233501   7.231   0.595  13.000
 4004TIP3   OH233502   7.270   0.669  13.210
 4004TIP3    H133503   7.182   0.699  13.237
 4004TIP3    H233504   7.312   0.749  13.177
 4005TIP3   OH233505   5.697   0.522  13.554
 4005TIP3    H133506   5.790   0.500  13.574
 4005TIP3    H233507   5.652   0.440  13.584
 4006TIP3   OH233508   7.191   0.251  12.434
 4006TIP3    H133509   7.277   0.220  12.470
 4006TIP3    H233510   7.194   0.202  12.349
 4007TIP3   OH233511   5.815   0.351  12.839
 4007TIP3    H133512   5.863   0.270  12.868
 4007TIP3    H233513   5.870   0.418  12.881
 4008TIP3   OH233514   5.646   0.649  12.945
 4008TIP3    H133515   5.702   0.626  12.868
 4008TIP3    H233516   5.690   0.731  12.972
 4009TIP3   OH233517   5.684   0.272  12.352
 4009TIP3    H133518   5.590   0.294  12.338
 4009TIP3    H233519   5.726   0.324  12.281
 4010TIP3   OH233520   7.145   1.759  12.553
 4010TIP3    H133521   7.211   1.728  12.490
 4010TIP3    H233522   7.200   1.817  12.609
 4011TIP3   OH233523   5.678   0.145  13.183
 4011TIP3    H133524   5.611   0.124  13.250
 4011TIP3    H233525   5.632   0.209  13.126
 4012TIP3   OH233526   5.900   1.462  13.599
 4012TIP3    H133527   5.816   1.483  13.554
 4012TIP3    H233528   5.873   1.455  13.691
 4013TIP3   OH233529   6.191   1.561  13.226
 4013TIP3    H133530   6.155   1.646  13.198
 4013TIP3    H233531   6.283   1.571  13.195
 4014TIP3   OH233532   6.623   1.704  13.518
 4014TIP3    H133533   6.639   1.669  13.609
 4014TIP3    H233534   6.712   1.734  13.491
 4015TIP3   OH233535   6.855   1.831  13.446
 4015TIP3    H133536   6.927   1.771  13.423
 4015TIP3    H233537   6.891   1.873  13.527
 4016TIP3   OH233538   5.934   1.886  13.227
 4016TIP3    H133539   5.860   1.934  13.186
 4016TIP3    H233540   5.900   1.865  13.315
 4017TIP3   OH233541   6.181   1.844  13.133
 4017TIP3    H133542   6.091   1.857  13.173
 4017TIP3    H233543   6.174   1.903  13.055
 4018TIP3   OH233544   6.651   1.835  13.050
 4018TIP3    H133545   6.604   1.890  12.985
 4018TIP3    H233546   6.665   1.898  13.124
 4019TIP3   OH233547   6.883   1.718  13.149
 4019TIP3    H133548   6.794   1.742  13.117
 4019TIP3    H233549   6.926   1.805  13.142
 4020TIP3   OH233550   7.138   1.878  13.176
 4020TIP3    H133551   7.127   1.972  13.153
 4020TIP3    H233552   7.162   1.838  13.090
 4021TIP3   OH233553   5.877   1.751  12.920
 4021TIP3    H133554   5.871   1.706  13.007
 4021TIP3    H233555   5.959   1.715  12.880
 4022TIP3   OH233556   6.087   1.622  12.785
 4022TIP3    H133557   6.069   1.529  12.807
 4022TIP3    H233558   6.172   1.636  12.832
 4023TIP3   OH233559   6.343   1.670  12.872
 4023TIP3    H133560   6.363   1.579  12.845
 4023TIP3    H233561   6.351   1.664  12.968
 4024TIP3   OH233562   6.691   0.241  12.784
 4024TIP3    H133563   6.627   0.172  12.813
 4024TIP3    H233564   6.751   0.187  12.730
 4025TIP3   OH233565   7.199   0.049  12.806
 4025TIP3    H133566   7.263   0.094  12.748
 4025TIP3    H233567   7.114   0.078  12.771
 4026TIP3   OH233568   5.932   0.102  12.560
 4026TIP3    H133569   5.847   0.075  12.521
 4026TIP3    H233570   5.973   0.015  12.573
 4027TIP3   OH233571   5.783   0.118  12.092
 4027TIP3    H133572   5.869   0.161  12.083
 4027TIP3    H233573   5.751   0.141  12.181
 4028TIP3   OH233574   6.405   0.130  12.581
 4028TIP3    H133575   6.499   0.131  12.557
 4028TIP3    H233576   6.389   0.065  12.652
 4029TIP3   OH233577   6.932   0.113  12.718
 4029TIP3    H133578   6.944   0.113  12.623
 4029TIP3    H233579   6.918   0.015  12.729
 4030TIP3   OH233580   7.068   0.092  12.276
 4030TIP3    H133581   6.998   0.158  12.263
 4030TIP3    H233582   7.026   0.009  12.299
 4031TIP3   OH233583   5.799   1.669  12.243
 4031TIP3    H133584   5.731   1.668  12.173
 4031TIP3    H233585   5.798   1.764  12.264
 4032TIP3   OH233586   5.991   0.270  11.993
 4032TIP3    H133587   6.044   0.208  11.939
 4032TIP3    H233588   6.057   0.300  12.058
 4033TIP3   OH233589   6.488   0.293  12.238
 4033TIP3    H133590   6.519   0.235  12.309
 4033TIP3    H233591   6.496   0.380  12.284
 4034TIP3   OH233592   6.685   1.797  12.080
 4034TIP3    H133593   6.775   1.825  12.058
 4034TIP3    H233594   6.663   1.748  11.998
 4035TIP3   OH233595   5.913   0.151  13.513
 4035TIP3    H133596   5.882   0.074  13.560
 4035TIP3    H233597   6.006   0.150  13.549
 4036TIP3   OH233598   6.101   0.104  13.669
 4036TIP3    H133599   6.195   0.076  13.659
 4036TIP3    H233600   6.082   0.020  13.715
 4037TIP3   OH233601   5.979   1.766  11.940
 4037TIP3    H133602   5.953   1.793  12.030
 4037TIP3    H233603   6.057   1.710  11.956
 4038TIP3   OH233604   6.957   7.385  13.690
 4038TIP3    H133605   6.963   7.324  13.767
 4038TIP3    H233606   7.044   7.363  13.654
 4039TIP3   OH233607   7.272   1.619  13.568
 4039TIP3    H133608   7.199   1.608  13.504
 4039TIP3    H233609   7.267   1.717  13.581
 4040TIP3   OH233610   1.180   2.897  12.559
 4040TIP3    H133611   1.182   2.995  12.553
 4040TIP3    H233612   1.110   2.873  12.497
 4041TIP3   OH233613   1.068   2.824  12.907
 4041TIP3    H133614   1.066   2.758  12.978
 4041TIP3    H233615   1.035   2.775  12.831
 4042TIP3   OH233616   0.306   2.788  13.061
 4042TIP3    H133617   0.312   2.722  13.133
 4042TIP3    H233618   0.378   2.848  13.085
 4043TIP3   OH233619   1.438   3.118  12.735
 4043TIP3    H133620   1.395   3.047  12.783
 4043TIP3    H233621   1.439   3.189  12.802
 4044TIP3   OH233622   0.394   3.234  12.916
 4044TIP3    H133623   0.362   3.149  12.881
 4044TIP3    H233624   0.490   3.215  12.920
 4045TIP3   OH233625   0.079   2.594  12.439
 4045TIP3    H133626   0.025   2.673  12.461
 4045TIP3    H233627   0.007   2.539  12.415
 4046TIP3   OH233628   0.129   2.811  12.671
 4046TIP3    H133629   0.154   2.733  12.724
 4046TIP3    H233630   0.203   2.822  12.611
 4047TIP3   OH233631   1.149   3.633  12.759
 4047TIP3    H133632   1.213   3.563  12.731
 4047TIP3    H233633   1.129   3.602  12.847
 4048TIP3   OH233634   0.905   3.065  12.951
 4048TIP3    H133635   0.939   3.000  12.888
 4048TIP3    H233636   0.984   3.079  13.006
 4049TIP3   OH233637   1.768   2.228  13.029
 4049TIP3    H133638   1.782   2.289  13.105
 4049TIP3    H233639   1.820   2.272  12.961
 4050TIP3   OH233640   1.222   2.510  12.984
 4050TIP3    H133641   1.237   2.414  12.984
 4050TIP3    H233642   1.212   2.525  12.888
 4051TIP3   OH233643   0.536   2.318  12.708
 4051TIP3    H133644   0.543   2.402  12.661
 4051TIP3    H233645   0.493   2.261  12.640
 4052TIP3   OH233646   1.307   2.328  12.545
 4052TIP3    H133647   1.374   2.296  12.611
 4052TIP3    H233648   1.363   2.384  12.488
 4053TIP3   OH233649   0.199   2.558  12.775
 4053TIP3    H133650   0.265   2.505  12.824
 4053TIP3    H233651   0.208   2.526  12.686
 4054TIP3   OH233652   0.713   2.715  12.710
 4054TIP3    H133653   0.778   2.657  12.753
 4054TIP3    H233654   0.659   2.648  12.663
 4055TIP3   OH233655   1.811   2.371  13.254
 4055TIP3    H133656   1.747   2.445  13.245
 4055TIP3    H233657   1.814   2.359  13.350
 4056TIP3   OH233658   0.423   2.209  13.112
 4056TIP3    H133659   0.396   2.265  13.036
 4056TIP3    H233660   0.354   2.232  13.179
 4057TIP3   OH233661   1.155   3.158  12.467
 4057TIP3    H133662   1.126   3.128  12.379
 4057TIP3    H233663   1.122   3.250  12.472
 4058TIP3   OH233664   0.677   2.973  13.138
 4058TIP3    H133665   0.604   3.036  13.156
 4058TIP3    H233666   0.747   3.033  13.108
 4059TIP3   OH233667   1.487   2.261  12.744
 4059TIP3    H133668   1.466   2.184  12.797
 4059TIP3    H233669   1.554   2.305  12.798
 4060TIP3   OH233670   0.378   2.393  12.913
 4060TIP3    H133671   0.440   2.462  12.946
 4060TIP3    H233672   0.433   2.352  12.841
 4061TIP3   OH233673   0.519   3.172  13.217
 4061TIP3    H133674   0.514   3.263  13.184
 4061TIP3    H233675   0.430   3.165  13.261
 4062TIP3   OH233676   0.128   3.140  12.295
 4062TIP3    H133677   0.103   3.167  12.206
 4062TIP3    H233678   0.134   3.222  12.347
 4063TIP3   OH233679   1.490   3.301  12.972
 4063TIP3    H133680   1.393   3.311  12.985
 4063TIP3    H233681   1.517   3.393  12.954
 4064TIP3   OH233682   1.522   2.130  13.112
 4064TIP3    H133683   1.448   2.193  13.105
 4064TIP3    H233684   1.592   2.172  13.059
 4065TIP3   OH233685   0.820   1.941  12.858
 4065TIP3    H133686   0.807   1.845  12.852
 4065TIP3    H233687   0.732   1.972  12.888
 4066TIP3   OH233688   1.315   3.480  12.633
 4066TIP3    H133689   1.359   3.408  12.582
 4066TIP3    H233690   1.354   3.560  12.591
 4067TIP3   OH233691   1.436   3.273  12.482
 4067TIP3    H133692   1.406   3.202  12.423
 4067TIP3    H233693   1.439   3.224  12.567
 4068TIP3   OH233694   1.599   3.130  13.333
 4068TIP3    H133695   1.614   3.067  13.259
 4068TIP3    H233696   1.618   3.216  13.291
 4069TIP3   OH233697   1.048   2.822  12.310
 4069TIP3    H133698   0.978   2.878  12.273
 4069TIP3    H233699   1.118   2.830  12.243
 4070TIP3   OH233700   1.054   2.675  12.011
 4070TIP3    H133701   1.125   2.674  12.077
 4070TIP3    H233702   1.086   2.606  11.951
 4071TIP3   OH233703   1.786   2.762  13.138
 4071TIP3    H133704   1.720   2.834  13.143
 4071TIP3    H233705   1.834   2.785  13.056
 4072TIP3   OH233706   1.392   2.843  12.401
 4072TIP3    H133707   1.317   2.867  12.461
 4072TIP3    H233708   1.437   2.774  12.452
 4073TIP3   OH233709   1.384   2.659  13.312
 4073TIP3    H133710   1.386   2.740  13.366
 4073TIP3    H233711   1.321   2.689  13.244
 4074TIP3   OH233712   0.555   2.909  12.593
 4074TIP3    H133713   0.520   2.869  12.510
 4074TIP3    H233714   0.615   2.839  12.626
 4075TIP3   OH233715   0.687   3.249  12.861
 4075TIP3    H133716   0.684   3.193  12.782
 4075TIP3    H233717   0.764   3.211  12.907
 4076TIP3   OH233718   0.588   2.783  12.958
 4076TIP3    H133719   0.644   2.795  12.878
 4076TIP3    H233720   0.624   2.850  13.020
 4077TIP3   OH233721   1.226   3.339  13.028
 4077TIP3    H133722   1.198   3.402  13.095
 4077TIP3    H233723   1.202   3.253  13.072
 4078TIP3   OH233724   0.681   3.225  13.428
 4078TIP3    H133725   0.643   3.301  13.476
 4078TIP3    H233726   0.613   3.207  13.358
 4079TIP3   OH233727   1.278   2.761  12.169
 4079TIP3    H133728   1.335   2.778  12.248
 4079TIP3    H233729   1.322   2.810  12.097
 4080TIP3   OH233730   0.376   2.843  13.349
 4080TIP3    H133731   0.379   2.911  13.418
 4080TIP3    H233732   0.283   2.852  13.320
 4081TIP3   OH233733   1.051   3.434  12.515
 4081TIP3    H133734   1.095   3.465  12.595
 4081TIP3    H233735   0.994   3.509  12.492
 4082TIP3   OH233736   0.506   3.429  13.503
 4082TIP3    H133737   0.499   3.419  13.407
 4082TIP3    H233738   0.412   3.418  13.530
 4083TIP3   OH233739   1.650   1.935  12.156
 4083TIP3    H133740   1.556   1.948  12.182
 4083TIP3    H233741   1.672   2.019  12.113
 4084TIP3   OH233742   0.452   2.811  12.354
 4084TIP3    H133743   0.423   2.890  12.303
 4084TIP3    H233744   0.385   2.746  12.333
 4085TIP3   OH233745   1.762   3.375  11.988
 4085TIP3    H133746   1.782   3.465  12.015
 4085TIP3    H233747   1.854   3.339  11.990
 4086TIP3   OH233748   0.098   3.044  13.221
 4086TIP3    H133749   0.024   3.049  13.157
 4086TIP3    H233750   0.070   2.960  13.263
 4087TIP3   OH233751   0.047   3.337  12.909
 4087TIP3    H133752   0.138   3.312  12.922
 4087TIP3    H233753   0.030   3.404  12.976
 4088TIP3   OH233754   1.859   3.397  13.490
 4088TIP3    H133755   1.849   3.301  13.487
 4088TIP3    H233756   1.772   3.421  13.529
 4089TIP3   OH233757   0.955   3.351  13.376
 4089TIP3    H133758   0.962   3.436  13.427
 4089TIP3    H233759   0.868   3.317  13.402
 4090TIP3   OH233760   0.999   3.726  12.357
 4090TIP3    H133761   0.988   3.717  12.261
 4090TIP3    H233762   0.999   3.823  12.371
 4091TIP3   OH233763   0.363   3.613  12.536
 4091TIP3    H133764   0.377   3.572  12.624
 4091TIP3    H233765   0.279   3.572  12.512
 4092TIP3   OH233766   1.307   3.648  12.055
 4092TIP3    H133767   1.345   3.569  12.012
 4092TIP3    H233768   1.306   3.620  12.150
 4093TIP3   OH233769   1.275   3.639  12.330
 4093TIP3    H133770   1.179   3.647  12.350
 4093TIP3    H233771   1.299   3.566  12.390
 4094TIP3   OH233772   1.573   2.544  13.538
 4094TIP3    H133773   1.528   2.590  13.465
 4094TIP3    H233774   1.574   2.453  13.507
 4095TIP3   OH233775   0.288   3.188  13.338
 4095TIP3    H133776   0.306   3.148  13.426
 4095TIP3    H233777   0.202   3.146  13.314
 4096TIP3   OH233778   0.555   2.031  12.934
 4096TIP3    H133779   0.465   2.021  12.896
 4096TIP3    H233780   0.544   2.116  12.981
 4097TIP3   OH233781   1.019   2.000  13.271
 4097TIP3    H133782   1.059   1.958  13.349
 4097TIP3    H233783   0.922   1.986  13.285
 4098TIP3   OH233784   1.349   2.382  13.359
 4098TIP3    H133785   1.294   2.363  13.439
 4098TIP3    H233786   1.331   2.474  13.335
 4099TIP3   OH233787   1.424   2.865  11.944
 4099TIP3    H133788   1.425   2.844  11.847
 4099TIP3    H233789   1.510   2.907  11.954
 4100TIP3   OH233790   0.984   2.256  12.000
 4100TIP3    H133791   0.953   2.251  12.093
 4100TIP3    H233792   0.953   2.168  11.971
 4101TIP3   OH233793   0.564   2.528  13.054
 4101TIP3    H133794   0.492   2.526  13.121
 4101TIP3    H233795   0.560   2.621  13.022
 4102TIP3   OH233796   0.561   2.544  12.543
 4102TIP3    H133797   0.468   2.516  12.531
 4102TIP3    H233798   0.601   2.512  12.460
 4103TIP3   OH233799   1.113   2.591  12.422
 4103TIP3    H133800   1.073   2.673  12.387
 4103TIP3    H233801   1.183   2.576  12.356
 4104TIP3   OH233802   1.021   2.611  13.566
 4104TIP3    H133803   0.966   2.535  13.598
 4104TIP3    H233804   1.104   2.598  13.614
 4105TIP3   OH233805   1.216   2.539  12.705
 4105TIP3    H133806   1.190   2.596  12.630
 4105TIP3    H233807   1.228   2.454  12.658
 4106TIP3   OH233808   0.332   2.555  13.229
 4106TIP3    H133809   0.332   2.597  13.317
 4106TIP3    H233810   0.283   2.473  13.245
 4107TIP3   OH233811   0.667   2.295  11.912
 4107TIP3    H133812   0.623   2.252  11.987
 4107TIP3    H233813   0.596   2.336  11.862
 4108TIP3   OH233814   0.012   2.283  12.612
 4108TIP3    H133815   0.061   2.262  12.694
 4108TIP3    H233816   0.044   2.223  12.545
 4109TIP3   OH233817   0.119   2.345  12.157
 4109TIP3    H133818   0.172   2.405  12.101
 4109TIP3    H233819   0.049   2.402  12.188
 4110TIP3   OH233820   1.138   2.699  13.164
 4110TIP3    H133821   1.174   2.632  13.103
 4110TIP3    H233822   1.092   2.646  13.231
 4111TIP3   OH233823   0.817   2.295  12.645
 4111TIP3    H133824   0.723   2.297  12.675
 4111TIP3    H233825   0.866   2.282  12.728
 4112TIP3   OH233826   0.303   2.453  12.529
 4112TIP3    H133827   0.213   2.467  12.494
 4112TIP3    H233828   0.327   2.367  12.491
 4113TIP3   OH233829   0.663   2.455  12.294
 4113TIP3    H133830   0.759   2.467  12.312
 4113TIP3    H233831   0.640   2.524  12.229
 4114TIP3   OH233832   1.258   2.219  12.970
 4114TIP3    H133833   1.189   2.226  13.040
 4114TIP3    H233834   1.207   2.196  12.891
 4115TIP3   OH233835   0.534   2.574  12.052
 4115TIP3    H133836   0.479   2.536  11.981
 4115TIP3    H233837   0.616   2.594  12.006
 4116TIP3   OH233838   1.580   3.784  13.602
 4116TIP3    H133839   1.605   3.824  13.517
 4116TIP3    H233840   1.651   3.817  13.659
 4117TIP3   OH233841   0.347   3.030  13.557
 4117TIP3    H133842   0.418   3.056  13.618
 4117TIP3    H233843   0.269   3.045  13.616
 4118TIP3   OH233844   0.946   2.571  12.835
 4118TIP3    H133845   1.005   2.518  12.781
 4118TIP3    H233846   0.932   2.517  12.913
 4119TIP3   OH233847   0.447   2.187  12.478
 4119TIP3    H133848   0.416   2.094  12.475
 4119TIP3    H233849   0.527   2.181  12.423
 4120TIP3   OH233850   0.810   2.406  13.076
 4120TIP3    H133851   0.727   2.456  13.086
 4120TIP3    H233852   0.864   2.439  13.150
 4121TIP3   OH233853   0.869   3.028  12.245
 4121TIP3    H133854   0.789   2.980  12.212
 4121TIP3    H233855   0.848   3.037  12.340
 4122TIP3   OH233856   1.585   2.946  13.126
 4122TIP3    H133857   1.643   2.993  13.065
 4122TIP3    H233858   1.499   2.953  13.078
 4123TIP3   OH233859   1.253   2.310  12.063
 4123TIP3    H133860   1.157   2.324  12.050
 4123TIP3    H233861   1.285   2.396  12.097
 4124TIP3   OH233862   1.017   3.052  13.369
 4124TIP3    H133863   0.983   3.011  13.449
 4124TIP3    H233864   0.994   3.145  13.379
 4125TIP3   OH233865   1.325   2.499  12.228
 4125TIP3    H133866   1.415   2.486  12.266
 4125TIP3    H233867   1.334   2.581  12.175
 4126TIP3   OH233868   0.380   2.965  12.824
 4126TIP3    H133869   0.450   2.958  12.757
 4126TIP3    H233870   0.385   2.880  12.870
 4127TIP3   OH233871   1.079   3.175  12.148
 4127TIP3    H133872   1.045   3.259  12.185
 4127TIP3    H233873   1.005   3.113  12.169
 4128TIP3   OH233874   0.101   2.787  13.329
 4128TIP3    H133875   0.108   2.764  13.423
 4128TIP3    H233876   0.017   2.745  13.307
 4129TIP3   OH233877   0.780   2.762  13.572
 4129TIP3    H133878   0.749   2.736  13.484
 4129TIP3    H233879   0.873   2.732  13.571
 4130TIP3   OH233880   1.246   3.296  13.363
 4130TIP3    H133881   1.154   3.314  13.340
 4130TIP3    H233882   1.245   3.324  13.457
 4131TIP3   OH233883   1.818   2.515  12.202
 4131TIP3    H133884   1.758   2.485  12.131
 4131TIP3    H233885   1.822   2.610  12.175
 4132TIP3   OH233886   1.813   3.101  13.485
 4132TIP3    H133887   1.725   3.123  13.448
 4132TIP3    H233888   1.869   3.097  13.405
 4133TIP3   OH233889   1.641   3.399  12.243
 4133TIP3    H133890   1.608   3.315  12.279
 4133TIP3    H233891   1.675   3.375  12.156
 4134TIP3   OH233892   1.364   2.879  12.953
 4134TIP3    H133893   1.269   2.857  12.944
 4134TIP3    H233894   1.407   2.802  12.912
 4135TIP3   OH233895   0.616   3.312  12.564
 4135TIP3    H133896   0.667   3.391  12.543
 4135TIP3    H233897   0.528   3.335  12.531
 4136TIP3   OH233898   0.187   2.795  12.024
 4136TIP3    H133899   0.252   2.861  12.060
 4136TIP3    H233900   0.103   2.831  12.051
 4137TIP3   OH233901   0.759   3.078  12.516
 4137TIP3    H133902   0.729   3.171  12.525
 4137TIP3    H233903   0.685   3.030  12.560
 4138TIP3   OH233904   0.805   3.495  13.155
 4138TIP3    H133905   0.848   3.578  13.128
 4138TIP3    H233906   0.864   3.463  13.225
 4139TIP3   OH233907   0.626   3.578  12.470
 4139TIP3    H133908   0.529   3.592  12.481
 4139TIP3    H233909   0.662   3.662  12.505
 4140TIP3   OH233910   1.159   3.099  13.120
 4140TIP3    H133911   1.122   3.078  13.208
 4140TIP3    H233912   1.221   3.027  13.102
 4141TIP3   OH233913   1.388   3.204  12.028
 4141TIP3    H133914   1.418   3.156  12.108
 4141TIP3    H233915   1.292   3.185  12.037
 4142TIP3   OH233916   1.435   3.556  13.369
 4142TIP3    H133917   1.368   3.505  13.319
 4142TIP3    H233918   1.456   3.625  13.303
 4143TIP3   OH233919   1.830   3.641  12.045
 4143TIP3    H133920   1.907   3.703  12.036
 4143TIP3    H233921   1.766   3.704  12.087
 4144TIP3   OH233922   0.243   2.280  13.304
 4144TIP3    H133923   0.153   2.316  13.306
 4144TIP3    H233924   0.231   2.196  13.352
 4145TIP3   OH233925   1.467   3.066  12.251
 4145TIP3    H133926   1.443   2.989  12.306
 4145TIP3    H233927   1.562   3.073  12.271
 4146TIP3   OH233928   0.209   3.463  13.148
 4146TIP3    H133929   0.230   3.368  13.150
 4146TIP3    H233930   0.230   3.487  13.238
 4147TIP3   OH233931   0.799   3.311  11.875
 4147TIP3    H133932   0.814   3.233  11.818
 4147TIP3    H233933   0.761   3.268  11.955
 4148TIP3   OH233934   0.682   3.264  12.121
 4148TIP3    H133935   0.704   3.212  12.199
 4148TIP3    H233936   0.686   3.357  12.153
 4149TIP3   OH233937   0.331   2.988  12.169
 4149TIP3    H133938   0.263   3.027  12.227
 4149TIP3    H233939   0.384   3.066  12.143
 4150TIP3   OH233940   1.116   2.257  13.201
 4150TIP3    H133941   1.187   2.263  13.266
 4150TIP3    H233942   1.078   2.169  13.219
 4151TIP3   OH233943   1.192   2.216  12.310
 4151TIP3    H133944   1.215   2.264  12.228
 4151TIP3    H233945   1.249   2.259  12.375
 4152TIP3   OH233946   0.960   3.431  12.193
 4152TIP3    H133947   0.878   3.484  12.199
 4152TIP3    H233948   1.013   3.484  12.132
 4153TIP3   OH233949   0.914   2.391  12.392
 4153TIP3    H133950   0.994   2.447  12.397
 4153TIP3    H233951   0.888   2.378  12.485
 4154TIP3   OH233952   0.969   2.492  13.311
 4154TIP3    H133953   0.977   2.549  13.390
 4154TIP3    H233954   1.035   2.423  13.322
 4155TIP3   OH233955   1.000   2.097  12.483
 4155TIP3    H133956   0.967   2.162  12.548
 4155TIP3    H233957   1.068   2.151  12.437
 4156TIP3   OH233958   0.698   3.535  12.194
 4156TIP3    H133959   0.709   3.617  12.140
 4156TIP3    H233960   0.673   3.571  12.282
 4157TIP3   OH233961   0.566   2.206  12.153
 4157TIP3    H133962   0.560   2.296  12.190
 4157TIP3    H233963   0.657   2.182  12.179
 4158TIP3   OH233964   1.588   2.280  13.396
 4158TIP3    H133965   1.495   2.310  13.384
 4158TIP3    H233966   1.618   2.280  13.304
 4159TIP3   OH233967   1.448   2.658  12.799
 4159TIP3    H133968   1.366   2.615  12.770
 4159TIP3    H233969   1.494   2.589  12.851
 4160TIP3   OH233970   0.389   3.250  12.059
 4160TIP3    H133971   0.454   3.316  12.087
 4160TIP3    H233972   0.441   3.205  11.989
 4161TIP3   OH233973   0.229   2.517  11.968
 4161TIP3    H133974   0.224   2.612  11.992
 4161TIP3    H233975   0.137   2.497  11.944
 4162TIP3   OH233976   1.555   3.583  12.965
 4162TIP3    H133977   1.544   3.652  12.897
 4162TIP3    H233978   1.651   3.590  12.983
 4163TIP3   OH233979   0.303   1.997  12.842
 4163TIP3    H133980   0.284   1.999  12.746
 4163TIP3    H233981   0.261   1.913  12.870
 4164TIP3   OH233982   0.202   3.388  12.459
 4164TIP3    H133983   0.117   3.433  12.456
 4164TIP3    H233984   0.250   3.439  12.392
 4165TIP3   OH233985   0.135   3.654  13.587
 4165TIP3    H133986   0.185   3.629  13.666
 4165TIP3    H233987   0.081   3.572  13.572
 4166TIP3   OH233988   0.589   3.544  13.750
 4166TIP3    H133989   0.665   3.495  13.783
 4166TIP3    H233990   0.585   3.517  13.656
 4167TIP3   OH233991   1.000   3.496  11.889
 4167TIP3    H133992   0.932   3.430  11.915
 4167TIP3    H233993   1.072   3.437  11.865
 4168TIP3   OH233994   1.241   3.383  13.623
 4168TIP3    H133995   1.209   3.294  13.650
 4168TIP3    H233996   1.317   3.395  13.684
 4169TIP3   OH233997   1.462   3.476  11.914
 4169TIP3    H133998   1.482   3.392  11.959
 4169TIP3    H233999   1.528   3.482  11.846
 4170TIP3   OH234000   0.126   3.031  13.683
 4170TIP3    H134001   0.131   2.938  13.657
 4170TIP3    H234002   0.042   3.059  13.642
 4171TIP3   OH234003   0.547   3.066  11.892
 4171TIP3    H134004   0.560   2.988  11.949
 4171TIP3    H234005   0.620   3.053  11.828
 4172TIP3   OH234006   0.784   3.029  13.627
 4172TIP3    H134007   0.750   3.059  13.540
 4172TIP3    H234008   0.794   2.932  13.617
 4173TIP3   OH234009   1.089   3.175  11.868
 4173TIP3    H134010   1.061   3.185  11.961
 4173TIP3    H234011   1.069   3.079  11.855
 4174TIP3   OH234012   1.354   3.016  13.365
 4174TIP3    H134013   1.432   3.076  13.357
 4174TIP3    H234014   1.282   3.081  13.370
 4175TIP3   OH234015   0.198   2.752  13.624
 4175TIP3    H134016   0.245   2.667  13.616
 4175TIP3    H234017   0.181   2.754  13.720
 4176TIP3   OH234018   0.667   2.866  12.131
 4176TIP3    H134019   0.618   2.813  12.196
 4176TIP3    H234020   0.695   2.798  12.065
 4177TIP3   OH234021   0.594   2.649  13.363
 4177TIP3    H134022   0.533   2.720  13.389
 4177TIP3    H234023   0.632   2.685  13.280
 4178TIP3   OH234024   0.774   2.689  11.953
 4178TIP3    H134025   0.758   2.677  11.857
 4178TIP3    H234026   0.871   2.696  11.959
 4179TIP3   OH234027   1.100   2.903  13.694
 4179TIP3    H134028   1.196   2.905  13.685
 4179TIP3    H234029   1.083   2.828  13.752
 4180TIP3   OH234030   1.709   2.922  11.896
 4180TIP3    H134031   1.687   2.882  11.811
 4180TIP3    H234032   1.717   3.018  11.875
 4181TIP3   OH234033   0.634   2.386  13.469
 4181TIP3    H134034   0.645   2.314  13.405
 4181TIP3    H234035   0.628   2.467  13.414
 4182TIP3   OH234036   0.674   2.224  13.222
 4182TIP3    H134037   0.725   2.270  13.152
 4182TIP3    H234038   0.585   2.215  13.180
 4183TIP3   OH234039   0.829   2.771  13.247
 4183TIP3    H134040   0.904   2.755  13.189
 4183TIP3    H234041   0.793   2.855  13.215
 4184TIP3   OH234042   1.269   2.549  13.745
 4184TIP3    H134043   1.291   2.455  13.735
 4184TIP3    H234044   1.356   2.592  13.746
 4185TIP3   OH234045   1.401   2.827  13.558
 4185TIP3    H134046   1.376   2.900  13.497
 4185TIP3    H234047   1.497   2.824  13.540
 4186TIP3   OH234048   0.477   2.512  13.659
 4186TIP3    H134049   0.401   2.452  13.642
 4186TIP3    H234050   0.545   2.475  13.599
 4187TIP3   OH234051   0.753   1.968  13.263
 4187TIP3    H134052   0.738   2.065  13.252
 4187TIP3    H234053   0.678   1.932  13.213
 4188TIP3   OH234054   0.880   2.401  13.623
 4188TIP3    H134055   0.850   2.378  13.713
 4188TIP3    H234056   0.801   2.381  13.570
 4189TIP3   OH234057   1.152   2.314  13.530
 4189TIP3    H134058   1.055   2.319  13.543
 4189TIP3    H234059   1.180   2.251  13.598
 4190TIP3   OH234060   1.312   2.177  13.725
 4190TIP3    H134061   1.305   2.080  13.727
 4190TIP3    H234062   1.284   2.206  13.814
 4191TIP3   OH234063   0.295   2.303  13.634
 4191TIP3    H134064   0.315   2.229  13.573
 4191TIP3    H234065   0.282   2.257  13.719
 4192TIP3   OH234066   0.774   1.905  13.532
 4192TIP3    H134067   0.844   1.836  13.529
 4192TIP3    H234068   0.764   1.923  13.437
 4193TIP3   OH234069   0.811   2.068  13.741
 4193TIP3    H134070   0.794   2.018  13.657
 4193TIP3    H234071   0.750   2.144  13.732
 4194TIP3   OH234072   0.760   3.758  12.059
 4194TIP3    H134073   0.856   3.770  12.067
 4194TIP3    H234074   0.741   3.821  11.989
 4195TIP3   OH234075   0.122   3.222  12.013
 4195TIP3    H134076   0.219   3.228  12.028
 4195TIP3    H234077   0.121   3.156  11.939
 4196TIP3   OH234078   7.353   3.765  12.498
 4196TIP3    H134079   7.271   3.732  12.457
 4196TIP3    H234080   7.370   3.696  12.567
 4197TIP3   OH234081   0.069   3.571  12.687
 4197TIP3    H134082   0.040   3.481  12.709
 4197TIP3    H234083   0.097   3.602  12.775
 4198TIP3   OH234084   1.827   3.648  12.986
 4198TIP3    H134085   1.829   3.666  13.081
 4198TIP3    H234086   1.897   3.706  12.954
 4199TIP3   OH234087   1.784   3.608  13.280
 4199TIP3    H134088   1.737   3.531  13.242
 4199TIP3    H234089   1.836   3.564  13.350
 4200TIP3   OH234090   1.629   3.181  13.745
 4200TIP3    H134091   1.539   3.176  13.783
 4200TIP3    H234092   1.666   3.260  13.788
 4201TIP3   OH234093   1.760   3.012  12.291
 4201TIP3    H134094   1.846   3.052  12.308
 4201TIP3    H234095   1.760   2.939  12.357
 4202TIP3   OH234096   1.797   2.819  12.478
 4202TIP3    H134097   1.723   2.769  12.518
 4202TIP3    H234098   1.857   2.835  12.553
 4203TIP3   OH234099   1.773   3.091  12.976
 4203TIP3    H134100   1.855   3.054  12.940
 4203TIP3    H234101   1.787   3.187  12.959
 4204TIP3   OH234102   1.627   3.381  13.204
 4204TIP3    H134103   1.558   3.414  13.264
 4204TIP3    H234104   1.572   3.339  13.134
 4205TIP3   OH234105   1.828   2.802  12.118
 4205TIP3    H134106   1.772   2.839  12.046
 4205TIP3    H234107   1.819   2.873  12.184
 4206TIP3   OH234108   1.663   2.527  11.970
 4206TIP3    H134109   1.671   2.594  11.901
 4206TIP3    H234110   1.646   2.444  11.920
 4207TIP3   OH234111   1.578   2.668  12.534
 4207TIP3    H134112   1.563   2.572  12.532
 4207TIP3    H234113   1.544   2.692  12.622
 4208TIP3   OH234114   0.078   2.875  12.938
 4208TIP3    H134115   0.097   2.869  12.842
 4208TIP3    H234116   0.166   2.861  12.977
 4209TIP3   OH234117   1.663   2.865  13.502
 4209TIP3    H134118   1.724   2.789  13.517
 4209TIP3    H234119   1.723   2.942  13.504
 4210TIP3   OH234120   1.814   2.654  13.568
 4210TIP3    H134121   1.726   2.614  13.552
 4210TIP3    H234122   1.872   2.577  13.560
 4211TIP3   OH234123   1.587   2.272  11.883
 4211TIP3    H134124   1.647   2.230  11.947
 4211TIP3    H234125   1.502   2.229  11.900
 4212TIP3   OH234126   1.544   2.426  12.378
 4212TIP3    H134127   1.576   2.334  12.393
 4212TIP3    H234128   1.626   2.467  12.345
 4213TIP3   OH234129   1.609   2.481  12.924
 4213TIP3    H134130   1.705   2.504  12.923
 4213TIP3    H234131   1.589   2.495  13.018
 4214TIP3   OH234132   1.615   2.553  13.203
 4214TIP3    H134133   1.528   2.583  13.236
 4214TIP3    H234134   1.658   2.640  13.181
 4215TIP3   OH234135   0.058   2.398  13.554
 4215TIP3    H134136   0.148   2.379  13.580
 4215TIP3    H234137   0.000   2.326  13.589
 4216TIP3   OH234138   1.842   1.957  13.738
 4216TIP3    H134139   1.877   1.892  13.675
 4216TIP3    H234140   1.854   2.040  13.687
 4217TIP3   OH234141   1.612   2.154  12.385
 4217TIP3    H134142   1.632   2.109  12.470
 4217TIP3    H234143   1.551   2.092  12.340
 4218TIP3   OH234144   0.157   2.232  12.842
 4218TIP3    H134145   0.209   2.153  12.868
 4218TIP3    H234146   0.211   2.303  12.881
 4219TIP3   OH234147   0.063   2.579  12.983
 4219TIP3    H134148   0.059   2.544  12.891
 4219TIP3    H234149   0.034   2.668  12.964
 4220TIP3   OH234150   1.795   2.168  13.573
 4220TIP3    H134151   1.701   2.195  13.567
 4220TIP3    H234152   1.800   2.114  13.493
 4221TIP3   OH234153   1.794   2.158  12.041
 4221TIP3    H134154   1.836   2.086  11.988
 4221TIP3    H234155   1.863   2.225  12.044
 4222TIP3   OH234156   0.063   2.161  12.327
 4222TIP3    H134157  -0.032   2.181  12.329
 4222TIP3    H234158   0.090   2.227  12.261
 4223TIP3   OH234159   1.500   3.657  12.546
 4223TIP3    H134160   1.568   3.625  12.484
 4223TIP3    H234161   1.552   3.706  12.611
 4224TIP3   OH234162   7.378   2.026  13.192
 4224TIP3    H134163   7.302   2.005  13.249
 4224TIP3    H234164   7.325   2.084  13.133
 4225TIP3   OH234165   0.244   3.350  13.601
 4225TIP3    H134166   0.161   3.368  13.555
 4225TIP3    H234167   0.215   3.339  13.692
 4226TIP3   OH234168   0.535   3.448  13.227
 4226TIP3    H134169   0.496   3.532  13.198
 4226TIP3    H234170   0.627   3.458  13.194
 4227TIP3   OH234171   0.966   3.589  13.518
 4227TIP3    H134172   0.982   3.554  13.608
 4227TIP3    H234173   1.055   3.620  13.491
 4228TIP3   OH234174   1.196   3.716  13.446
 4228TIP3    H134175   1.269   3.656  13.423
 4228TIP3    H234176   1.234   3.759  13.527
 4229TIP3   OH234177   1.696   1.978  13.357
 4229TIP3    H134178   1.613   2.007  13.316
 4229TIP3    H234179   1.714   1.897  13.303
 4230TIP3   OH234180   0.278   3.772  13.229
 4230TIP3    H134181   0.203   3.818  13.187
 4230TIP3    H234182   0.241   3.750  13.316
 4231TIP3   OH234183   0.524   3.730  13.133
 4231TIP3    H134184   0.435   3.743  13.173
 4231TIP3    H234185   0.518   3.789  13.055
 4232TIP3   OH234186   0.994   3.721  13.050
 4232TIP3    H134187   0.948   3.776  12.985
 4232TIP3    H234188   1.008   3.784  13.124
 4233TIP3   OH234189   1.225   3.604  13.149
 4233TIP3    H134190   1.137   3.629  13.117
 4233TIP3    H234191   1.270   3.690  13.141
 4234TIP3   OH234192   1.483   3.761  13.176
 4234TIP3    H134193   1.473   3.856  13.152
 4234TIP3    H234194   1.503   3.724  13.088
 4235TIP3   OH234195   0.218   3.636  12.919
 4235TIP3    H134196   0.216   3.593  13.007
 4235TIP3    H234197   0.300   3.600  12.880
 4236TIP3   OH234198   0.430   3.507  12.785
 4236TIP3    H134199   0.412   3.414  12.807
 4236TIP3    H234200   0.515   3.522  12.832
 4237TIP3   OH234201   0.688   3.556  12.872
 4237TIP3    H134202   0.706   3.464  12.845
 4237TIP3    H234203   0.694   3.550  12.969
 4238TIP3   OH234204   1.036   2.121  12.787
 4238TIP3    H134205   0.968   2.056  12.813
 4238TIP3    H234206   1.091   2.069  12.727
 4239TIP3   OH234207   1.549   1.927  12.795
 4239TIP3    H134208   1.611   1.985  12.744
 4239TIP3    H234209   1.462   1.962  12.771
 4240TIP3   OH234210   1.718   2.049  12.624
 4240TIP3    H134211   1.786   1.993  12.579
 4240TIP3    H234212   1.766   2.134  12.632
 4241TIP3   OH234213   0.270   1.983  12.572
 4241TIP3    H134214   0.193   1.961  12.515
 4241TIP3    H234215   0.322   1.900  12.565
 4242TIP3   OH234216   0.188   1.970  12.158
 4242TIP3    H134217   0.204   2.030  12.084
 4242TIP3    H234218   0.106   2.006  12.197
 4243TIP3   OH234219   0.722   1.976  12.549
 4243TIP3    H134220   0.812   2.013  12.544
 4243TIP3    H234221   0.716   1.955  12.642
 4244TIP3   OH234222   1.289   1.978  12.714
 4244TIP3    H134223   1.288   1.988  12.618
 4244TIP3    H234224   1.253   1.887  12.726
 4245TIP3   OH234225   1.419   1.982  12.282
 4245TIP3    H134226   1.345   2.042  12.264
 4245TIP3    H234227   1.374   1.896  12.301
 4246TIP3   OH234228   0.154   3.562  12.236
 4246TIP3    H134229   0.076   3.555  12.177
 4246TIP3    H234230   0.142   3.653  12.265
 4247TIP3   OH234231   0.335   2.155  11.992
 4247TIP3    H134232   0.388   2.091  11.941
 4247TIP3    H234233   0.399   2.183  12.059
 4248TIP3   OH234234   0.837   2.179  12.235
 4248TIP3    H134235   0.860   2.120  12.309
 4248TIP3    H234236   0.840   2.265  12.283
 4249TIP3   OH234237   1.028   3.682  12.080
 4249TIP3    H134238   1.117   3.711  12.058
 4249TIP3    H234239   1.006   3.634  11.998
 4250TIP3   OH234240   1.700   3.635  12.349
 4250TIP3    H134241   1.679   3.557  12.293
 4250TIP3    H234242   1.692   3.710  12.287
 4251TIP3   OH234243   0.258   2.040  13.521
 4251TIP3    H134244   0.225   1.957  13.559
 4251TIP3    H234245   0.352   2.035  13.552
 4252TIP3   OH234246   0.462   1.975  13.678
 4252TIP3    H134247   0.551   1.941  13.657
 4252TIP3    H234248   0.423   1.895  13.720
 4253TIP3   OH234249   0.321   3.651  11.939
 4253TIP3    H134250   0.296   3.678  12.029
 4253TIP3    H234251   0.400   3.597  11.957
 4254TIP3   OH234252   1.302   1.905  13.694
 4254TIP3    H134253   1.312   1.858  13.779
 4254TIP3    H234254   1.394   1.902  13.660
 4255TIP3   OH234255   1.623   3.509  13.560
 4255TIP3    H134256   1.542   3.495  13.506
 4255TIP3    H234257   1.612   3.604  13.581
 4256TIP3   OH234258   3.066   2.897  12.559
 4256TIP3    H134259   3.068   2.995  12.552
 4256TIP3    H234260   2.995   2.873  12.497
 4257TIP3   OH234261   2.953   2.824  12.907
 4257TIP3    H134262   2.951   2.758  12.978
 4257TIP3    H234263   2.920   2.775  12.831
 4258TIP3   OH234264   2.189   2.789  13.063
 4258TIP3    H134265   2.197   2.722  13.134
 4258TIP3    H234266   2.263   2.848  13.084
 4259TIP3   OH234267   3.323   3.118  12.735
 4259TIP3    H134268   3.280   3.047  12.783
 4259TIP3    H234269   3.324   3.189  12.802
 4260TIP3   OH234270   2.282   3.234  12.915
 4260TIP3    H134271   2.249   3.149  12.881
 4260TIP3    H234272   2.377   3.215  12.920
 4261TIP3   OH234273   1.948   2.592  12.457
 4261TIP3    H134274   1.901   2.678  12.456
 4261TIP3    H234275   1.886   2.538  12.406
 4262TIP3   OH234276   2.015   2.813  12.673
 4262TIP3    H134277   2.041   2.733  12.723
 4262TIP3    H234278   2.088   2.824  12.611
 4263TIP3   OH234279   3.034   3.633  12.759
 4263TIP3    H134280   3.099   3.563  12.731
 4263TIP3    H234281   3.014   3.602  12.847
 4264TIP3   OH234282   2.791   3.065  12.951
 4264TIP3    H134283   2.825   3.000  12.888
 4264TIP3    H234284   2.870   3.079  13.006
 4265TIP3   OH234285   3.651   2.228  13.028
 4265TIP3    H134286   3.668   2.288  13.104
 4265TIP3    H234287   3.706   2.271  12.961
 4266TIP3   OH234288   3.107   2.509  12.984
 4266TIP3    H134289   3.123   2.414  12.984
 4266TIP3    H234290   3.097   2.525  12.888
 4267TIP3   OH234291   2.420   2.318  12.707
 4267TIP3    H134292   2.430   2.403  12.661
 4267TIP3    H234293   2.379   2.260  12.640
 4268TIP3   OH234294   3.193   2.326  12.546
 4268TIP3    H134295   3.260   2.297  12.610
 4268TIP3    H234296   3.248   2.383  12.489
 4269TIP3   OH234297   2.083   2.559  12.781
 4269TIP3    H134298   2.149   2.504  12.827
 4269TIP3    H234299   2.090   2.528  12.690
 4270TIP3   OH234300   2.598   2.715  12.709
 4270TIP3    H134301   2.664   2.658  12.753
 4270TIP3    H234302   2.545   2.648  12.663
 4271TIP3   OH234303   3.696   2.371  13.254
 4271TIP3    H134304   3.632   2.445  13.245
 4271TIP3    H234305   3.699   2.359  13.350
 4272TIP3   OH234306   2.308   2.208  13.112
 4272TIP3    H134307   2.281   2.265  13.037
 4272TIP3    H234308   2.240   2.232  13.179
 4273TIP3   OH234309   3.040   3.158  12.467
 4273TIP3    H134310   3.012   3.128  12.379
 4273TIP3    H234311   3.008   3.250  12.472
 4274TIP3   OH234312   2.562   2.973  13.138
 4274TIP3    H134313   2.490   3.037  13.156
 4274TIP3    H234314   2.632   3.033  13.108
 4275TIP3   OH234315   3.371   2.261  12.744
 4275TIP3    H134316   3.353   2.184  12.798
 4275TIP3    H234317   3.440   2.306  12.796
 4276TIP3   OH234318   2.264   2.396  12.913
 4276TIP3    H134319   2.328   2.463  12.946
 4276TIP3    H234320   2.318   2.352  12.843
 4277TIP3   OH234321   2.405   3.172  13.218
 4277TIP3    H134322   2.401   3.263  13.184
 4277TIP3    H234323   2.317   3.165  13.263
 4278TIP3   OH234324   2.014   3.136  12.298
 4278TIP3    H134325   1.988   3.166  12.209
 4278TIP3    H234326   2.021   3.220  12.347
 4279TIP3   OH234327   3.376   3.301  12.972
 4279TIP3    H134328   3.279   3.311  12.985
 4279TIP3    H234329   3.402   3.393  12.954
 4280TIP3   OH234330   3.405   2.129  13.108
 4280TIP3    H134331   3.335   2.196  13.106
 4280TIP3    H234332   3.478   2.173  13.060
 4281TIP3   OH234333   2.707   1.941  12.859
 4281TIP3    H134334   2.691   1.845  12.851
 4281TIP3    H234335   2.618   1.973  12.887
 4282TIP3   OH234336   3.201   3.480  12.633
 4282TIP3    H134337   3.244   3.408  12.582
 4282TIP3    H234338   3.240   3.560  12.591
 4283TIP3   OH234339   3.321   3.273  12.483
 4283TIP3    H134340   3.292   3.202  12.423
 4283TIP3    H234341   3.325   3.224  12.568
 4284TIP3   OH234342   3.485   3.130  13.333
 4284TIP3    H134343   3.499   3.067  13.259
 4284TIP3    H234344   3.504   3.216  13.291
 4285TIP3   OH234345   2.934   2.822  12.310
 4285TIP3    H134346   2.863   2.878  12.273
 4285TIP3    H234347   3.004   2.830  12.243
 4286TIP3   OH234348   2.940   2.675  12.011
 4286TIP3    H134349   3.011   2.674  12.077
 4286TIP3    H234350   2.971   2.606  11.951
 4287TIP3   OH234351   3.672   2.762  13.138
 4287TIP3    H134352   3.606   2.834  13.143
 4287TIP3    H234353   3.720   2.785  13.056
 4288TIP3   OH234354   3.277   2.843  12.401
 4288TIP3    H134355   3.202   2.867  12.461
 4288TIP3    H234356   3.323   2.774  12.452
 4289TIP3   OH234357   3.270   2.659  13.312
 4289TIP3    H134358   3.271   2.740  13.366
 4289TIP3    H234359   3.206   2.689  13.244
 4290TIP3   OH234360   2.439   2.909  12.593
 4290TIP3    H134361   2.407   2.870  12.508
 4290TIP3    H234362   2.501   2.840  12.627
 4291TIP3   OH234363   2.572   3.249  12.861
 4291TIP3    H134364   2.569   3.193  12.782
 4291TIP3    H234365   2.649   3.212  12.907
 4292TIP3   OH234366   2.473   2.783  12.958
 4292TIP3    H134367   2.530   2.795  12.879
 4292TIP3    H234368   2.510   2.849  13.020
 4293TIP3   OH234369   3.111   3.339  13.028
 4293TIP3    H134370   3.084   3.402  13.095
 4293TIP3    H234371   3.087   3.253  13.072
 4294TIP3   OH234372   2.567   3.225  13.428
 4294TIP3    H134373   2.528   3.301  13.476
 4294TIP3    H234374   2.499   3.207  13.358
 4295TIP3   OH234375   3.164   2.761  12.169
 4295TIP3    H134376   3.221   2.778  12.248
 4295TIP3    H234377   3.208   2.811  12.097
 4296TIP3   OH234378   2.260   2.842  13.346
 4296TIP3    H134379   2.264   2.909  13.417
 4296TIP3    H234380   2.167   2.852  13.321
 4297TIP3   OH234381   2.936   3.434  12.515
 4297TIP3    H134382   2.981   3.465  12.595
 4297TIP3    H234383   2.880   3.509  12.492
 4298TIP3   OH234384   2.391   3.430  13.504
 4298TIP3    H134385   2.387   3.419  13.407
 4298TIP3    H234386   2.297   3.418  13.529
 4299TIP3   OH234387   3.536   1.935  12.156
 4299TIP3    H134388   3.442   1.948  12.182
 4299TIP3    H234389   3.558   2.019  12.113
 4300TIP3   OH234390   2.338   2.810  12.353
 4300TIP3    H134391   2.309   2.891  12.304
 4300TIP3    H234392   2.268   2.748  12.333
 4301TIP3   OH234393   3.649   3.371  11.992
 4301TIP3    H134394   3.663   3.466  12.009
 4301TIP3    H234395   3.742   3.341  11.990
 4302TIP3   OH234396   1.946   3.053  13.240
 4302TIP3    H134397   1.899   3.045  13.155
 4302TIP3    H234398   1.951   2.958  13.264
 4303TIP3   OH234399   1.922   3.327  12.921
 4303TIP3    H134400   2.017   3.315  12.920
 4303TIP3    H234401   1.913   3.408  12.973
 4304TIP3   OH234402   3.745   3.397  13.490
 4304TIP3    H134403   3.734   3.301  13.487
 4304TIP3    H234404   3.658   3.421  13.529
 4305TIP3   OH234405   2.841   3.351  13.376
 4305TIP3    H134406   2.848   3.436  13.427
 4305TIP3    H234407   2.753   3.317  13.402
 4306TIP3   OH234408   2.884   3.726  12.357
 4306TIP3    H134409   2.874   3.717  12.261
 4306TIP3    H234410   2.885   3.823  12.371
 4307TIP3   OH234411   2.248   3.613  12.537
 4307TIP3    H134412   2.262   3.572  12.625
 4307TIP3    H234413   2.163   3.572  12.514
 4308TIP3   OH234414   3.191   3.648  12.054
 4308TIP3    H134415   3.233   3.570  12.011
 4308TIP3    H234416   3.193   3.620  12.148
 4309TIP3   OH234417   3.160   3.639  12.331
 4309TIP3    H134418   3.064   3.647  12.350
 4309TIP3    H234419   3.184   3.566  12.390
 4310TIP3   OH234420   3.459   2.544  13.538
 4310TIP3    H134421   3.414   2.590  13.465
 4310TIP3    H234422   3.459   2.453  13.506
 4311TIP3   OH234423   2.173   3.185  13.337
 4311TIP3    H134424   2.195   3.148  13.425
 4311TIP3    H234425   2.086   3.145  13.316
 4312TIP3   OH234426   2.440   2.032  12.933
 4312TIP3    H134427   2.349   2.021  12.896
 4312TIP3    H234428   2.429   2.116  12.980
 4313TIP3   OH234429   2.905   1.998  13.269
 4313TIP3    H134430   2.943   1.959  13.350
 4313TIP3    H234431   2.808   1.987  13.285
 4314TIP3   OH234432   3.235   2.382  13.359
 4314TIP3    H134433   3.179   2.363  13.439
 4314TIP3    H234434   3.217   2.474  13.335
 4315TIP3   OH234435   3.309   2.865  11.944
 4315TIP3    H134436   3.311   2.844  11.847
 4315TIP3    H234437   3.396   2.908  11.954
 4316TIP3   OH234438   2.870   2.256  12.000
 4316TIP3    H134439   2.839   2.251  12.093
 4316TIP3    H234440   2.839   2.168  11.971
 4317TIP3   OH234441   2.450   2.528  13.054
 4317TIP3    H134442   2.378   2.526  13.120
 4317TIP3    H234443   2.447   2.620  13.021
 4318TIP3   OH234444   2.445   2.545  12.541
 4318TIP3    H134445   2.353   2.515  12.534
 4318TIP3    H234446   2.490   2.511  12.461
 4319TIP3   OH234447   2.998   2.590  12.422
 4319TIP3    H134448   2.958   2.673  12.387
 4319TIP3    H234449   3.068   2.576  12.357
 4320TIP3   OH234450   2.906   2.611  13.566
 4320TIP3    H134451   2.852   2.535  13.598
 4320TIP3    H234452   2.990   2.598  13.614
 4321TIP3   OH234453   3.101   2.539  12.705
 4321TIP3    H134454   3.076   2.596  12.630
 4321TIP3    H234455   3.114   2.455  12.657
 4322TIP3   OH234456   2.215   2.557  13.228
 4322TIP3    H134457   2.219   2.597  13.317
 4322TIP3    H234458   2.169   2.473  13.246
 4323TIP3   OH234459   2.553   2.297  11.913
 4323TIP3    H134460   2.508   2.251  11.987
 4323TIP3    H234461   2.482   2.335  11.861
 4324TIP3   OH234462   1.881   2.270  12.621
 4324TIP3    H134463   1.945   2.263  12.694
 4324TIP3    H234464   1.924   2.226  12.546
 4325TIP3   OH234465   2.013   2.344  12.167
 4325TIP3    H134466   2.052   2.402  12.099
 4325TIP3    H234467   1.935   2.398  12.192
 4326TIP3   OH234468   3.023   2.699  13.164
 4326TIP3    H134469   3.059   2.632  13.103
 4326TIP3    H234470   2.978   2.646  13.231
 4327TIP3   OH234471   2.701   2.295  12.644
 4327TIP3    H134472   2.609   2.297  12.676
 4327TIP3    H234473   2.751   2.283  12.726
 4328TIP3   OH234474   2.188   2.454  12.519
 4328TIP3    H134475   2.091   2.465  12.499
 4328TIP3    H234476   2.209   2.360  12.502
 4329TIP3   OH234477   2.545   2.456  12.294
 4329TIP3    H134478   2.642   2.465  12.312
 4329TIP3    H234479   2.530   2.525  12.227
 4330TIP3   OH234480   3.142   2.206  12.971
 4330TIP3    H134481   3.074   2.229  13.039
 4330TIP3    H234482   3.091   2.202  12.889
 4331TIP3   OH234483   2.417   2.570  12.056
 4331TIP3    H134484   2.366   2.537  11.979
 4331TIP3    H234485   2.499   2.594  12.008
 4332TIP3   OH234486   3.465   3.784  13.601
 4332TIP3    H134487   3.492   3.824  13.516
 4332TIP3    H234488   3.536   3.816  13.659
 4333TIP3   OH234489   2.232   3.030  13.559
 4333TIP3    H134490   2.303   3.056  13.619
 4333TIP3    H234491   2.153   3.043  13.617
 4334TIP3   OH234492   2.832   2.572  12.835
 4334TIP3    H134493   2.891   2.518  12.781
 4334TIP3    H234494   2.818   2.517  12.913
 4335TIP3   OH234495   2.330   2.190  12.472
 4335TIP3    H134496   2.302   2.095  12.477
 4335TIP3    H234497   2.413   2.179  12.424
 4336TIP3   OH234498   2.696   2.406  13.076
 4336TIP3    H134499   2.612   2.456  13.086
 4336TIP3    H234500   2.750   2.439  13.150
 4337TIP3   OH234501   2.754   3.028  12.245
 4337TIP3    H134502   2.675   2.980  12.212
 4337TIP3    H234503   2.734   3.037  12.340
 4338TIP3   OH234504   3.470   2.946  13.126
 4338TIP3    H134505   3.529   2.993  13.065
 4338TIP3    H234506   3.385   2.953  13.078
 4339TIP3   OH234507   3.138   2.309  12.063
 4339TIP3    H134508   3.043   2.324  12.050
 4339TIP3    H234509   3.171   2.396  12.097
 4340TIP3   OH234510   2.903   3.052  13.369
 4340TIP3    H134511   2.869   3.011  13.449
 4340TIP3    H234512   2.880   3.145  13.379
 4341TIP3   OH234513   3.211   2.499  12.228
 4341TIP3    H134514   3.301   2.486  12.265
 4341TIP3    H234515   3.220   2.581  12.175
 4342TIP3   OH234516   2.264   2.965  12.825
 4342TIP3    H134517   2.335   2.959  12.758
 4342TIP3    H234518   2.271   2.879  12.871
 4343TIP3   OH234519   2.965   3.175  12.148
 4343TIP3    H134520   2.931   3.259  12.185
 4343TIP3    H234521   2.891   3.113  12.169
 4344TIP3   OH234522   1.964   2.807  13.352
 4344TIP3    H134523   1.983   2.763  13.437
 4344TIP3    H234524   1.902   2.745  13.309
 4345TIP3   OH234525   2.665   2.762  13.572
 4345TIP3    H134526   2.635   2.735  13.484
 4345TIP3    H234527   2.758   2.732  13.571
 4346TIP3   OH234528   3.132   3.296  13.363
 4346TIP3    H134529   3.039   3.314  13.340
 4346TIP3    H234530   3.130   3.324  13.457
 4347TIP3   OH234531   3.702   2.515  12.203
 4347TIP3    H134532   3.644   2.484  12.131
 4347TIP3    H234533   3.709   2.609  12.176
 4348TIP3   OH234534   3.699   3.101  13.485
 4348TIP3    H134535   3.610   3.123  13.448
 4348TIP3    H234536   3.755   3.096  13.405
 4349TIP3   OH234537   3.528   3.398  12.244
 4349TIP3    H134538   3.493   3.314  12.278
 4349TIP3    H234539   3.560   3.377  12.155
 4350TIP3   OH234540   3.249   2.879  12.953
 4350TIP3    H134541   3.155   2.857  12.944
 4350TIP3    H234542   3.293   2.802  12.912
 4351TIP3   OH234543   2.502   3.312  12.563
 4351TIP3    H134544   2.553   3.392  12.543
 4351TIP3    H234545   2.414   3.335  12.531
 4352TIP3   OH234546   2.079   2.794  12.023
 4352TIP3    H134547   2.137   2.863  12.060
 4352TIP3    H234548   1.990   2.829  12.046
 4353TIP3   OH234549   2.644   3.078  12.516
 4353TIP3    H134550   2.615   3.171  12.525
 4353TIP3    H234551   2.571   3.031  12.560
 4354TIP3   OH234552   2.690   3.496  13.155
 4354TIP3    H134553   2.733   3.578  13.128
 4354TIP3    H234554   2.750   3.463  13.225
 4355TIP3   OH234555   2.512   3.578  12.470
 4355TIP3    H134556   2.415   3.592  12.481
 4355TIP3    H234557   2.547   3.662  12.506
 4356TIP3   OH234558   3.044   3.099  13.120
 4356TIP3    H134559   3.008   3.078  13.208
 4356TIP3    H234560   3.106   3.027  13.102
 4357TIP3   OH234561   3.273   3.202  12.027
 4357TIP3    H134562   3.304   3.157  12.109
 4357TIP3    H234563   3.177   3.186  12.037
 4358TIP3   OH234564   3.320   3.556  13.369
 4358TIP3    H134565   3.254   3.505  13.319
 4358TIP3    H234566   3.342   3.625  13.303
 4359TIP3   OH234567   3.721   3.640  12.052
 4359TIP3    H134568   3.792   3.705  12.033
 4359TIP3    H234569   3.650   3.701  12.082
 4360TIP3   OH234570   2.129   2.281  13.307
 4360TIP3    H134571   2.038   2.315  13.304
 4360TIP3    H234572   2.117   2.196  13.352
 4361TIP3   OH234573   3.353   3.067  12.251
 4361TIP3    H134574   3.329   2.989  12.306
 4361TIP3    H234575   3.448   3.073  12.271
 4362TIP3   OH234576   2.091   3.460  13.150
 4362TIP3    H134577   2.118   3.367  13.150
 4362TIP3    H234578   2.117   3.488  13.239
 4363TIP3   OH234579   2.685   3.311  11.875
 4363TIP3    H134580   2.699   3.233  11.818
 4363TIP3    H234581   2.647   3.268  11.955
 4364TIP3   OH234582   2.567   3.264  12.121
 4364TIP3    H134583   2.590   3.212  12.199
 4364TIP3    H234584   2.573   3.357  12.153
 4365TIP3   OH234585   2.219   2.987  12.171
 4365TIP3    H134586   2.148   3.027  12.226
 4365TIP3    H234587   2.270   3.065  12.143
 4366TIP3   OH234588   3.004   2.255  13.197
 4366TIP3    H134589   3.071   2.265  13.266
 4366TIP3    H234590   2.962   2.170  13.221
 4367TIP3   OH234591   3.078   2.216  12.310
 4367TIP3    H134592   3.101   2.264  12.228
 4367TIP3    H234593   3.135   2.259  12.375
 4368TIP3   OH234594   2.846   3.431  12.193
 4368TIP3    H134595   2.764   3.484  12.199
 4368TIP3    H234596   2.899   3.484  12.132
 4369TIP3   OH234597   2.797   2.392  12.392
 4369TIP3    H134598   2.878   2.447  12.397
 4369TIP3    H234599   2.775   2.378  12.486
 4370TIP3   OH234600   2.854   2.492  13.311
 4370TIP3    H134601   2.863   2.549  13.390
 4370TIP3    H234602   2.920   2.423  13.322
 4371TIP3   OH234603   2.888   2.097  12.486
 4371TIP3    H134604   2.852   2.163  12.547
 4371TIP3    H234605   2.953   2.152  12.437
 4372TIP3   OH234606   2.584   3.535  12.194
 4372TIP3    H134607   2.595   3.617  12.140
 4372TIP3    H234608   2.559   3.570  12.282
 4373TIP3   OH234609   2.449   2.207  12.155
 4373TIP3    H134610   2.451   2.297  12.189
 4373TIP3    H234611   2.541   2.180  12.177
 4374TIP3   OH234612   3.474   2.280  13.397
 4374TIP3    H134613   3.380   2.310  13.384
 4374TIP3    H234614   3.504   2.280  13.304
 4375TIP3   OH234615   3.334   2.658  12.799
 4375TIP3    H134616   3.252   2.615  12.770
 4375TIP3    H234617   3.381   2.589  12.851
 4376TIP3   OH234618   2.275   3.250  12.058
 4376TIP3    H134619   2.340   3.316  12.088
 4376TIP3    H234620   2.326   3.205  11.988
 4377TIP3   OH234621   2.109   2.517  11.975
 4377TIP3    H134622   2.108   2.614  11.989
 4377TIP3    H234623   2.021   2.498  11.940
 4378TIP3   OH234624   3.440   3.583  12.965
 4378TIP3    H134625   3.430   3.652  12.897
 4378TIP3    H234626   3.537   3.590  12.983
 4379TIP3   OH234627   2.191   1.996  12.843
 4379TIP3    H134628   2.169   1.999  12.747
 4379TIP3    H234629   2.147   1.913  12.870
 4380TIP3   OH234630   2.086   3.388  12.458
 4380TIP3    H134631   2.001   3.435  12.456
 4380TIP3    H234632   2.135   3.437  12.392
 4381TIP3   OH234633   2.008   3.653  13.588
 4381TIP3    H134634   2.067   3.631  13.663
 4381TIP3    H234635   1.965   3.568  13.570
 4382TIP3   OH234636   2.473   3.545  13.750
 4382TIP3    H134637   2.550   3.496  13.783
 4382TIP3    H234638   2.471   3.518  13.656
 4383TIP3   OH234639   2.886   3.496  11.889
 4383TIP3    H134640   2.818   3.430  11.915
 4383TIP3    H234641   2.959   3.438  11.865
 4384TIP3   OH234642   3.127   3.383  13.623
 4384TIP3    H134643   3.094   3.294  13.650
 4384TIP3    H234644   3.202   3.395  13.684
 4385TIP3   OH234645   3.343   3.472  11.909
 4385TIP3    H134646   3.372   3.394  11.958
 4385TIP3    H234647   3.419   3.496  11.853
 4386TIP3   OH234648   2.000   3.031  13.687
 4386TIP3    H134649   2.016   2.940  13.656
 4386TIP3    H234650   1.924   3.058  13.632
 4387TIP3   OH234651   2.433   3.066  11.892
 4387TIP3    H134652   2.446   2.988  11.949
 4387TIP3    H234653   2.506   3.053  11.828
 4388TIP3   OH234654   2.669   3.029  13.627
 4388TIP3    H134655   2.635   3.059  13.540
 4388TIP3    H234656   2.679   2.932  13.617
 4389TIP3   OH234657   2.974   3.175  11.868
 4389TIP3    H134658   2.947   3.185  11.961
 4389TIP3    H234659   2.954   3.079  11.855
 4390TIP3   OH234660   3.240   3.016  13.365
 4390TIP3    H134661   3.317   3.076  13.357
 4390TIP3    H234662   3.168   3.081  13.370
 4391TIP3   OH234663   2.089   2.753  13.626
 4391TIP3    H134664   2.130   2.667  13.616
 4391TIP3    H234665   2.064   2.753  13.720
 4392TIP3   OH234666   2.552   2.866  12.130
 4392TIP3    H134667   2.504   2.813  12.196
 4392TIP3    H234668   2.582   2.798  12.065
 4393TIP3   OH234669   2.480   2.649  13.362
 4393TIP3    H134670   2.419   2.720  13.389
 4393TIP3    H234671   2.517   2.685  13.280
 4394TIP3   OH234672   2.658   2.687  11.954
 4394TIP3    H134673   2.643   2.677  11.858
 4394TIP3    H234674   2.756   2.696  11.959
 4395TIP3   OH234675   2.986   2.903  13.694
 4395TIP3    H134676   3.082   2.905  13.685
 4395TIP3    H234677   2.969   2.828  13.752
 4396TIP3   OH234678   3.595   2.922  11.896
 4396TIP3    H134679   3.573   2.882  11.811
 4396TIP3    H234680   3.602   3.018  11.875
 4397TIP3   OH234681   2.519   2.386  13.469
 4397TIP3    H134682   2.531   2.314  13.405
 4397TIP3    H234683   2.515   2.467  13.413
 4398TIP3   OH234684   2.559   2.224  13.222
 4398TIP3    H134685   2.611   2.270  13.152
 4398TIP3    H234686   2.471   2.215  13.180
 4399TIP3   OH234687   2.714   2.771  13.247
 4399TIP3    H134688   2.790   2.755  13.189
 4399TIP3    H234689   2.679   2.855  13.215
 4400TIP3   OH234690   3.154   2.549  13.745
 4400TIP3    H134691   3.177   2.455  13.736
 4400TIP3    H234692   3.241   2.593  13.746
 4401TIP3   OH234693   3.287   2.827  13.558
 4401TIP3    H134694   3.262   2.900  13.497
 4401TIP3    H234695   3.383   2.824  13.540
 4402TIP3   OH234696   2.365   2.510  13.661
 4402TIP3    H134697   2.288   2.453  13.642
 4402TIP3    H234698   2.431   2.474  13.599
 4403TIP3   OH234699   2.639   1.968  13.263
 4403TIP3    H134700   2.623   2.065  13.252
 4403TIP3    H234701   2.563   1.932  13.213
 4404TIP3   OH234702   2.766   2.401  13.623
 4404TIP3    H134703   2.736   2.378  13.713
 4404TIP3    H234704   2.686   2.381  13.570
 4405TIP3   OH234705   3.037   2.314  13.530
 4405TIP3    H134706   2.941   2.319  13.543
 4405TIP3    H234707   3.065   2.251  13.598
 4406TIP3   OH234708   3.197   2.177  13.725
 4406TIP3    H134709   3.190   2.080  13.727
 4406TIP3    H234710   3.169   2.206  13.814
 4407TIP3   OH234711   2.175   2.303  13.634
 4407TIP3    H134712   2.200   2.230  13.574
 4407TIP3    H234713   2.167   2.258  13.720
 4408TIP3   OH234714   2.660   1.904  13.532
 4408TIP3    H134715   2.729   1.835  13.530
 4408TIP3    H234716   2.649   1.923  13.437
 4409TIP3   OH234717   2.696   2.068  13.741
 4409TIP3    H134718   2.680   2.018  13.657
 4409TIP3    H234719   2.636   2.144  13.732
 4410TIP3   OH234720   2.645   3.758  12.059
 4410TIP3    H134721   2.741   3.770  12.067
 4410TIP3    H234722   2.627   3.821  11.988
 4411TIP3   OH234723   1.999   3.220  12.005
 4411TIP3    H134724   2.096   3.227  12.026
 4411TIP3    H234725   2.006   3.152  11.934
 4412TIP3   OH234726   1.876   3.757  12.505
 4412TIP3    H134727   1.805   3.708  12.457
 4412TIP3    H234728   1.905   3.690  12.570
 4413TIP3   OH234729   1.959   3.568  12.690
 4413TIP3    H134730   1.924   3.480  12.710
 4413TIP3    H234731   1.981   3.602  12.779
 4414TIP3   OH234732   3.712   3.648  12.985
 4414TIP3    H134733   3.713   3.665  13.081
 4414TIP3    H234734   3.782   3.707  12.955
 4415TIP3   OH234735   3.670   3.608  13.280
 4415TIP3    H134736   3.622   3.531  13.242
 4415TIP3    H234737   3.721   3.564  13.350
 4416TIP3   OH234738   3.514   3.181  13.745
 4416TIP3    H134739   3.425   3.176  13.783
 4416TIP3    H234740   3.552   3.260  13.788
 4417TIP3   OH234741   3.645   3.012  12.291
 4417TIP3    H134742   3.732   3.052  12.308
 4417TIP3    H234743   3.645   2.939  12.357
 4418TIP3   OH234744   3.683   2.819  12.477
 4418TIP3    H134745   3.608   2.769  12.518
 4418TIP3    H234746   3.742   2.835  12.553
 4419TIP3   OH234747   3.658   3.091  12.976
 4419TIP3    H134748   3.741   3.054  12.940
 4419TIP3    H234749   3.672   3.187  12.959
 4420TIP3   OH234750   3.513   3.380  13.204
 4420TIP3    H134751   3.444   3.414  13.264
 4420TIP3    H234752   3.458   3.339  13.134
 4421TIP3   OH234753   3.712   2.803  12.117
 4421TIP3    H134754   3.657   2.839  12.045
 4421TIP3    H234755   3.704   2.874  12.184
 4422TIP3   OH234756   3.549   2.527  11.970
 4422TIP3    H134757   3.556   2.594  11.901
 4422TIP3    H234758   3.531   2.444  11.920
 4423TIP3   OH234759   3.464   2.668  12.534
 4423TIP3    H134760   3.449   2.572  12.532
 4423TIP3    H234761   3.429   2.692  12.622
 4424TIP3   OH234762   1.965   2.876  12.939
 4424TIP3    H134763   1.984   2.868  12.843
 4424TIP3    H234764   2.054   2.860  12.976
 4425TIP3   OH234765   3.549   2.865  13.502
 4425TIP3    H134766   3.610   2.789  13.517
 4425TIP3    H234767   3.609   2.942  13.504
 4426TIP3   OH234768   3.700   2.654  13.568
 4426TIP3    H134769   3.612   2.614  13.552
 4426TIP3    H234770   3.758   2.577  13.560
 4427TIP3   OH234771   3.473   2.272  11.883
 4427TIP3    H134772   3.533   2.230  11.947
 4427TIP3    H234773   3.387   2.229  11.900
 4428TIP3   OH234774   3.430   2.426  12.378
 4428TIP3    H134775   3.462   2.334  12.393
 4428TIP3    H234776   3.511   2.467  12.345
 4429TIP3   OH234777   3.494   2.481  12.924
 4429TIP3    H134778   3.590   2.504  12.923
 4429TIP3    H234779   3.475   2.495  13.018
 4430TIP3   OH234780   3.501   2.553  13.203
 4430TIP3    H134781   3.413   2.582  13.236
 4430TIP3    H234782   3.544   2.639  13.181
 4431TIP3   OH234783   1.926   2.406  13.554
 4431TIP3    H134784   2.019   2.387  13.574
 4431TIP3    H234785   1.881   2.324  13.586
 4432TIP3   OH234786   3.727   1.957  13.738
 4432TIP3    H134787   3.763   1.892  13.675
 4432TIP3    H234788   3.740   2.040  13.687
 4433TIP3   OH234789   3.497   2.154  12.385
 4433TIP3    H134790   3.517   2.109  12.470
 4433TIP3    H234791   3.437   2.092  12.340
 4434TIP3   OH234792   2.046   2.235  12.840
 4434TIP3    H134793   2.093   2.153  12.868
 4434TIP3    H234794   2.099   2.305  12.881
 4435TIP3   OH234795   1.875   2.534  12.945
 4435TIP3    H134796   1.930   2.511  12.868
 4435TIP3    H234797   1.919   2.616  12.972
 4436TIP3   OH234798   3.680   2.168  13.573
 4436TIP3    H134799   3.586   2.195  13.567
 4436TIP3    H234800   3.686   2.114  13.493
 4437TIP3   OH234801   3.680   2.158  12.041
 4437TIP3    H134802   3.722   2.087  11.988
 4437TIP3    H234803   3.750   2.225  12.045
 4438TIP3   OH234804   1.912   2.164  12.353
 4438TIP3    H134805   1.817   2.178  12.338
 4438TIP3    H234806   1.953   2.209  12.279
 4439TIP3   OH234807   3.385   3.657  12.547
 4439TIP3    H134808   3.453   3.625  12.485
 4439TIP3    H234809   3.437   3.706  12.611
 4440TIP3   OH234810   1.907   2.029  13.183
 4440TIP3    H134811   1.839   2.008  13.250
 4440TIP3    H234812   1.861   2.095  13.128
 4441TIP3   OH234813   2.129   3.348  13.599
 4441TIP3    H134814   2.045   3.369  13.554
 4441TIP3    H234815   2.102   3.341  13.691
 4442TIP3   OH234816   2.420   3.447  13.226
 4442TIP3    H134817   2.384   3.532  13.198
 4442TIP3    H234818   2.512   3.457  13.195
 4443TIP3   OH234819   2.852   3.589  13.518
 4443TIP3    H134820   2.868   3.554  13.609
 4443TIP3    H234821   2.941   3.620  13.491
 4444TIP3   OH234822   3.082   3.716  13.446
 4444TIP3    H134823   3.154   3.656  13.423
 4444TIP3    H234824   3.119   3.759  13.527
 4445TIP3   OH234825   3.581   1.978  13.356
 4445TIP3    H134826   3.499   2.008  13.316
 4445TIP3    H234827   3.601   1.897  13.304
 4446TIP3   OH234828   2.162   3.772  13.227
 4446TIP3    H134829   2.089   3.820  13.186
 4446TIP3    H234830   2.129   3.751  13.315
 4447TIP3   OH234831   2.410   3.730  13.133
 4447TIP3    H134832   2.320   3.742  13.173
 4447TIP3    H234833   2.403   3.788  13.055
 4448TIP3   OH234834   2.880   3.721  13.050
 4448TIP3    H134835   2.833   3.776  12.985
 4448TIP3    H234836   2.894   3.784  13.124
 4449TIP3   OH234837   3.111   3.604  13.149
 4449TIP3    H134838   3.023   3.629  13.117
 4449TIP3    H234839   3.156   3.690  13.141
 4450TIP3   OH234840   3.369   3.761  13.176
 4450TIP3    H134841   3.359   3.856  13.152
 4450TIP3    H234842   3.389   3.724  13.088
 4451TIP3   OH234843   2.106   3.636  12.920
 4451TIP3    H134844   2.100   3.591  13.007
 4451TIP3    H234845   2.188   3.600  12.880
 4452TIP3   OH234846   2.315   3.508  12.785
 4452TIP3    H134847   2.298   3.414  12.807
 4452TIP3    H234848   2.401   3.522  12.832
 4453TIP3   OH234849   2.574   3.556  12.872
 4453TIP3    H134850   2.592   3.464  12.845
 4453TIP3    H234851   2.579   3.550  12.969
 4454TIP3   OH234852   2.926   2.117  12.791
 4454TIP3    H134853   2.852   2.058  12.812
 4454TIP3    H234854   2.974   2.070  12.723
 4455TIP3   OH234855   3.432   1.929  12.798
 4455TIP3    H134856   3.497   1.983  12.745
 4455TIP3    H234857   3.348   1.964  12.766
 4456TIP3   OH234858   3.602   2.048  12.625
 4456TIP3    H134859   3.670   1.993  12.579
 4456TIP3    H234860   3.650   2.133  12.632
 4457TIP3   OH234861   2.158   1.986  12.568
 4457TIP3    H134862   2.078   1.961  12.519
 4457TIP3    H234863   2.205   1.900  12.566
 4458TIP3   OH234864   2.038   1.960  12.147
 4458TIP3    H134865   2.083   2.024  12.089
 4458TIP3    H234866   1.976   2.016  12.196
 4459TIP3   OH234867   2.608   1.976  12.550
 4459TIP3    H134868   2.698   2.013  12.544
 4459TIP3    H234869   2.601   1.954  12.642
 4460TIP3   OH234870   3.174   1.976  12.717
 4460TIP3    H134871   3.175   1.990  12.620
 4460TIP3    H234872   3.138   1.884  12.718
 4461TIP3   OH234873   3.304   1.982  12.282
 4461TIP3    H134874   3.230   2.042  12.264
 4461TIP3    H234875   3.259   1.896  12.301
 4462TIP3   OH234876   2.027   3.555  12.243
 4462TIP3    H134877   1.960   3.554  12.173
 4462TIP3    H234878   2.028   3.649  12.265
 4463TIP3   OH234879   2.220   2.155  11.995
 4463TIP3    H134880   2.271   2.091  11.941
 4463TIP3    H234881   2.288   2.183  12.058
 4464TIP3   OH234882   2.720   2.180  12.236
 4464TIP3    H134883   2.746   2.120  12.308
 4464TIP3    H234884   2.727   2.265  12.284
 4465TIP3   OH234885   2.913   3.682  12.080
 4465TIP3    H134886   3.004   3.710  12.059
 4465TIP3    H234887   2.892   3.634  11.998
 4466TIP3   OH234888   3.585   3.635  12.350
 4466TIP3    H134889   3.565   3.558  12.293
 4466TIP3    H234890   3.579   3.710  12.287
 4467TIP3   OH234891   2.147   2.037  13.517
 4467TIP3    H134892   2.111   1.958  13.560
 4467TIP3    H234893   2.240   2.035  13.552
 4468TIP3   OH234894   2.348   1.975  13.678
 4468TIP3    H134895   2.438   1.941  13.657
 4468TIP3    H234896   2.310   1.895  13.720
 4469TIP3   OH234897   2.205   3.651  11.940
 4469TIP3    H134898   2.183   3.679  12.030
 4469TIP3    H234899   2.285   3.596  11.955
 4470TIP3   OH234900   3.188   1.905  13.694
 4470TIP3    H134901   3.198   1.858  13.779
 4470TIP3    H234902   3.279   1.902  13.660
 4471TIP3   OH234903   3.509   3.509  13.560
 4471TIP3    H134904   3.428   3.495  13.506
 4471TIP3    H234905   3.497   3.604  13.581
 4472TIP3   OH234906   4.952   2.897  12.559
 4472TIP3    H134907   4.953   2.995  12.552
 4472TIP3    H234908   4.881   2.873  12.497
 4473TIP3   OH234909   4.839   2.824  12.907
 4473TIP3    H134910   4.837   2.758  12.978
 4473TIP3    H234911   4.806   2.774  12.831
 4474TIP3   OH234912   4.075   2.789  13.063
 4474TIP3    H134913   4.083   2.722  13.134
 4474TIP3    H234914   4.149   2.848  13.084
 4475TIP3   OH234915   5.209   3.118  12.735
 4475TIP3    H134916   5.166   3.046  12.783
 4475TIP3    H234917   5.210   3.189  12.802
 4476TIP3   OH234918   4.167   3.234  12.915
 4476TIP3    H134919   4.135   3.149  12.881
 4476TIP3    H234920   4.263   3.215  12.920
 4477TIP3   OH234921   3.832   2.592  12.461
 4477TIP3    H134922   3.787   2.679  12.455
 4477TIP3    H234923   3.774   2.538  12.405
 4478TIP3   OH234924   3.901   2.814  12.674
 4478TIP3    H134925   3.927   2.733  12.722
 4478TIP3    H234926   3.973   2.823  12.610
 4479TIP3   OH234927   4.920   3.633  12.759
 4479TIP3    H134928   4.984   3.563  12.731
 4479TIP3    H234929   4.900   3.602  12.847
 4480TIP3   OH234930   4.677   3.065  12.951
 4480TIP3    H134931   4.711   3.000  12.888
 4480TIP3    H234932   4.756   3.079  13.006
 4481TIP3   OH234933   5.539   2.228  13.029
 4481TIP3    H134934   5.553   2.289  13.104
 4481TIP3    H234935   5.592   2.272  12.961
 4482TIP3   OH234936   4.993   2.510  12.984
 4482TIP3    H134937   5.009   2.414  12.984
 4482TIP3    H234938   4.983   2.525  12.888
 4483TIP3   OH234939   4.306   2.318  12.708
 4483TIP3    H134940   4.314   2.403  12.660
 4483TIP3    H234941   4.264   2.261  12.640
 4484TIP3   OH234942   5.079   2.328  12.545
 4484TIP3    H134943   5.145   2.296  12.611
 4484TIP3    H234944   5.134   2.384  12.488
 4485TIP3   OH234945   3.968   2.559  12.782
 4485TIP3    H134946   4.035   2.504  12.826
 4485TIP3    H234947   3.976   2.529  12.690
 4486TIP3   OH234948   4.484   2.715  12.710
 4486TIP3    H134949   4.549   2.657  12.753
 4486TIP3    H234950   4.430   2.648  12.663
 4487TIP3   OH234951   5.582   2.371  13.254
 4487TIP3    H134952   5.518   2.445  13.245
 4487TIP3    H234953   5.585   2.359  13.350
 4488TIP3   OH234954   4.194   2.208  13.112
 4488TIP3    H134955   4.167   2.265  13.037
 4488TIP3    H234956   4.125   2.232  13.179
 4489TIP3   OH234957   4.926   3.158  12.467
 4489TIP3    H134958   4.897   3.128  12.379
 4489TIP3    H234959   4.894   3.250  12.472
 4490TIP3   OH234960   4.447   2.973  13.138
 4490TIP3    H134961   4.375   3.037  13.156
 4490TIP3    H234962   4.518   3.033  13.108
 4491TIP3   OH234963   5.258   2.261  12.744
 4491TIP3    H134964   5.237   2.184  12.797
 4491TIP3    H234965   5.325   2.305  12.798
 4492TIP3   OH234966   4.150   2.395  12.913
 4492TIP3    H134967   4.214   2.463  12.946
 4492TIP3    H234968   4.203   2.352  12.841
 4493TIP3   OH234969   4.291   3.172  13.219
 4493TIP3    H134970   4.287   3.263  13.184
 4493TIP3    H234971   4.202   3.165  13.263
 4494TIP3   OH234972   3.900   3.136  12.298
 4494TIP3    H134973   3.874   3.166  12.209
 4494TIP3    H234974   3.906   3.220  12.347
 4495TIP3   OH234975   5.261   3.301  12.972
 4495TIP3    H134976   5.165   3.311  12.985
 4495TIP3    H234977   5.288   3.393  12.954
 4496TIP3   OH234978   5.293   2.130  13.112
 4496TIP3    H134979   5.220   2.193  13.105
 4496TIP3    H234980   5.363   2.172  13.059
 4497TIP3   OH234981   4.591   1.941  12.858
 4497TIP3    H134982   4.578   1.845  12.852
 4497TIP3    H234983   4.503   1.972  12.888
 4498TIP3   OH234984   5.086   3.480  12.633
 4498TIP3    H134985   5.130   3.408  12.582
 4498TIP3    H234986   5.126   3.560  12.591
 4499TIP3   OH234987   5.206   3.273  12.483
 4499TIP3    H134988   5.177   3.202  12.423
 4499TIP3    H234989   5.211   3.224  12.568
 4500TIP3   OH234990   5.370   3.130  13.333
 4500TIP3    H134991   5.385   3.067  13.259
 4500TIP3    H234992   5.389   3.216  13.291
 4501TIP3   OH234993   4.819   2.822  12.310
 4501TIP3    H134994   4.749   2.878  12.273
 4501TIP3    H234995   4.889   2.830  12.243
 4502TIP3   OH234996   4.825   2.675  12.011
 4502TIP3    H134997   4.896   2.674  12.077
 4502TIP3    H234998   4.857   2.606  11.951
 4503TIP3   OH234999   5.558   2.762  13.138
 4503TIP3    H135000   5.491   2.834  13.143
 4503TIP3    H235001   5.605   2.785  13.056
 4504TIP3   OH235002   5.163   2.843  12.401
 4504TIP3    H135003   5.088   2.867  12.461
 4504TIP3    H235004   5.209   2.774  12.452
 4505TIP3   OH235005   5.155   2.659  13.312
 4505TIP3    H135006   5.157   2.740  13.366
 4505TIP3    H235007   5.092   2.689  13.244
 4506TIP3   OH235008   4.325   2.909  12.593
 4506TIP3    H135009   4.292   2.869  12.508
 4506TIP3    H235010   4.385   2.839  12.626
 4507TIP3   OH235011   4.458   3.248  12.861
 4507TIP3    H135012   4.455   3.193  12.782
 4507TIP3    H235013   4.535   3.211  12.907
 4508TIP3   OH235014   4.359   2.783  12.958
 4508TIP3    H135015   4.415   2.794  12.879
 4508TIP3    H235016   4.395   2.849  13.020
 4509TIP3   OH235017   4.996   3.339  13.028
 4509TIP3    H135018   4.969   3.402  13.095
 4509TIP3    H235019   4.973   3.253  13.072
 4510TIP3   OH235020   4.452   3.225  13.428
 4510TIP3    H135021   4.414   3.301  13.476
 4510TIP3    H235022   4.385   3.207  13.358
 4511TIP3   OH235023   5.049   2.761  12.169
 4511TIP3    H135024   5.106   2.778  12.248
 4511TIP3    H235025   5.093   2.811  12.097
 4512TIP3   OH235026   4.146   2.842  13.346
 4512TIP3    H135027   4.150   2.909  13.417
 4512TIP3    H235028   4.053   2.852  13.321
 4513TIP3   OH235029   4.821   3.434  12.515
 4513TIP3    H135030   4.866   3.465  12.595
 4513TIP3    H235031   4.765   3.509  12.492
 4514TIP3   OH235032   4.276   3.430  13.504
 4514TIP3    H135033   4.272   3.419  13.407
 4514TIP3    H235034   4.183   3.418  13.529
 4515TIP3   OH235035   5.422   1.935  12.156
 4515TIP3    H135036   5.328   1.948  12.182
 4515TIP3    H235037   5.443   2.019  12.113
 4516TIP3   OH235038   4.222   2.811  12.354
 4516TIP3    H135039   4.193   2.890  12.303
 4516TIP3    H235040   4.156   2.745  12.332
 4517TIP3   OH235041   5.535   3.370  11.993
 4517TIP3    H135042   5.549   3.465  12.009
 4517TIP3    H235043   5.628   3.341  11.990
 4518TIP3   OH235044   3.831   3.053  13.240
 4518TIP3    H135045   3.785   3.045  13.155
 4518TIP3    H235046   3.836   2.958  13.264
 4519TIP3   OH235047   3.807   3.327  12.921
 4519TIP3    H135048   3.903   3.315  12.920
 4519TIP3    H235049   3.798   3.408  12.973
 4520TIP3   OH235050   5.631   3.397  13.490
 4520TIP3    H135051   5.620   3.301  13.487
 4520TIP3    H235052   5.544   3.421  13.529
 4521TIP3   OH235053   4.726   3.351  13.376
 4521TIP3    H135054   4.733   3.436  13.427
 4521TIP3    H235055   4.639   3.317  13.402
 4522TIP3   OH235056   4.770   3.727  12.356
 4522TIP3    H135057   4.759   3.718  12.260
 4522TIP3    H235058   4.770   3.823  12.370
 4523TIP3   OH235059   4.133   3.616  12.540
 4523TIP3    H135060   4.147   3.569  12.625
 4523TIP3    H235061   4.050   3.572  12.512
 4524TIP3   OH235062   5.077   3.648  12.055
 4524TIP3    H135063   5.118   3.571  12.011
 4524TIP3    H235064   5.079   3.619  12.149
 4525TIP3   OH235065   5.045   3.639  12.332
 4525TIP3    H135066   4.949   3.648  12.349
 4525TIP3    H235067   5.070   3.566  12.390
 4526TIP3   OH235068   5.345   2.544  13.538
 4526TIP3    H135069   5.299   2.590  13.465
 4526TIP3    H235070   5.345   2.453  13.507
 4527TIP3   OH235071   4.058   3.186  13.337
 4527TIP3    H135072   4.081   3.148  13.425
 4527TIP3    H235073   3.972   3.145  13.316
 4528TIP3   OH235074   4.325   2.031  12.934
 4528TIP3    H135075   4.235   2.020  12.896
 4528TIP3    H235076   4.315   2.115  12.980
 4529TIP3   OH235077   4.790   2.000  13.271
 4529TIP3    H135078   4.830   1.958  13.349
 4529TIP3    H235079   4.693   1.986  13.285
 4530TIP3   OH235080   5.120   2.382  13.359
 4530TIP3    H135081   5.065   2.363  13.439
 4530TIP3    H235082   5.102   2.474  13.335
 4531TIP3   OH235083   5.195   2.865  11.944
 4531TIP3    H135084   5.197   2.844  11.847
 4531TIP3    H235085   5.281   2.908  11.954
 4532TIP3   OH235086   4.755   2.256  12.000
 4532TIP3    H135087   4.725   2.251  12.093
 4532TIP3    H235088   4.725   2.168  11.971
 4533TIP3   OH235089   4.335   2.528  13.054
 4533TIP3    H135090   4.264   2.526  13.120
 4533TIP3    H235091   4.332   2.620  13.021
 4534TIP3   OH235092   4.332   2.544  12.543
 4534TIP3    H135093   4.239   2.515  12.531
 4534TIP3    H235094   4.372   2.512  12.460
 4535TIP3   OH235095   4.884   2.591  12.422
 4535TIP3    H135096   4.844   2.673  12.387
 4535TIP3    H235097   4.954   2.576  12.356
 4536TIP3   OH235098   4.792   2.611  13.566
 4536TIP3    H135099   4.737   2.535  13.598
 4536TIP3    H235100   4.875   2.598  13.614
 4537TIP3   OH235101   4.987   2.539  12.705
 4537TIP3    H135102   4.961   2.596  12.630
 4537TIP3    H235103   4.999   2.454  12.658
 4538TIP3   OH235104   4.100   2.557  13.228
 4538TIP3    H135105   4.104   2.597  13.317
 4538TIP3    H235106   4.055   2.473  13.246
 4539TIP3   OH235107   4.439   2.295  11.912
 4539TIP3    H135108   4.394   2.252  11.987
 4539TIP3    H235109   4.367   2.336  11.862
 4540TIP3   OH235110   3.764   2.268  12.622
 4540TIP3    H135111   3.832   2.264  12.693
 4540TIP3    H235112   3.810   2.228  12.546
 4541TIP3   OH235113   3.892   2.339  12.160
 4541TIP3    H135114   3.942   2.401  12.103
 4541TIP3    H235115   3.822   2.400  12.192
 4542TIP3   OH235116   4.909   2.699  13.164
 4542TIP3    H135117   4.945   2.632  13.103
 4542TIP3    H235118   4.863   2.646  13.231
 4543TIP3   OH235119   4.588   2.295  12.645
 4543TIP3    H135120   4.495   2.297  12.675
 4543TIP3    H235121   4.637   2.282  12.728
 4544TIP3   OH235122   4.070   2.453  12.531
 4544TIP3    H135123   3.981   2.466  12.493
 4544TIP3    H235124   4.099   2.369  12.492
 4545TIP3   OH235125   4.435   2.455  12.294
 4545TIP3    H135126   4.530   2.467  12.312
 4545TIP3    H235127   4.411   2.524  12.229
 4546TIP3   OH235128   5.029   2.219  12.970
 4546TIP3    H135129   4.960   2.226  13.040
 4546TIP3    H235130   4.978   2.196  12.891
 4547TIP3   OH235131   4.304   2.574  12.053
 4547TIP3    H135132   4.250   2.536  11.981
 4547TIP3    H235133   4.386   2.594  12.006
 4548TIP3   OH235134   5.351   3.784  13.602
 4548TIP3    H135135   5.377   3.824  13.517
 4548TIP3    H235136   5.422   3.817  13.659
 4549TIP3   OH235137   4.117   3.030  13.559
 4549TIP3    H135138   4.189   3.056  13.619
 4549TIP3    H235139   4.039   3.043  13.617
 4550TIP3   OH235140   4.717   2.572  12.835
 4550TIP3    H135141   4.776   2.517  12.781
 4550TIP3    H235142   4.703   2.517  12.913
 4551TIP3   OH235143   4.218   2.186  12.478
 4551TIP3    H135144   4.188   2.094  12.475
 4551TIP3    H235145   4.297   2.181  12.422
 4552TIP3   OH235146   4.581   2.406  13.076
 4552TIP3    H135147   4.498   2.456  13.086
 4552TIP3    H235148   4.636   2.439  13.150
 4553TIP3   OH235149   4.640   3.028  12.245
 4553TIP3    H135150   4.560   2.980  12.212
 4553TIP3    H235151   4.619   3.037  12.340
 4554TIP3   OH235152   5.356   2.946  13.126
 4554TIP3    H135153   5.414   2.993  13.064
 4554TIP3    H235154   5.271   2.953  13.078
 4555TIP3   OH235155   5.024   2.310  12.063
 4555TIP3    H135156   4.929   2.324  12.050
 4555TIP3    H235157   5.056   2.396  12.097
 4556TIP3   OH235158   4.788   3.052  13.369
 4556TIP3    H135159   4.754   3.011  13.449
 4556TIP3    H235160   4.765   3.145  13.379
 4557TIP3   OH235161   5.097   2.499  12.228
 4557TIP3    H135162   5.186   2.486  12.265
 4557TIP3    H235163   5.105   2.581  12.175
 4558TIP3   OH235164   4.150   2.965  12.825
 4558TIP3    H135165   4.221   2.959  12.758
 4558TIP3    H235166   4.157   2.879  12.871
 4559TIP3   OH235167   4.850   3.175  12.148
 4559TIP3    H135168   4.817   3.259  12.185
 4559TIP3    H235169   4.777   3.113  12.169
 4560TIP3   OH235170   3.849   2.807  13.352
 4560TIP3    H135171   3.869   2.763  13.437
 4560TIP3    H235172   3.788   2.745  13.309
 4561TIP3   OH235173   4.551   2.762  13.572
 4561TIP3    H135174   4.520   2.735  13.484
 4561TIP3    H235175   4.644   2.732  13.571
 4562TIP3   OH235176   5.018   3.296  13.363
 4562TIP3    H135177   4.925   3.314  13.340
 4562TIP3    H235178   5.016   3.324  13.457
 4563TIP3   OH235179   5.587   2.515  12.203
 4563TIP3    H135180   5.530   2.484  12.130
 4563TIP3    H235181   5.595   2.609  12.176
 4564TIP3   OH235182   5.585   3.101  13.485
 4564TIP3    H135183   5.496   3.123  13.448
 4564TIP3    H235184   5.640   3.097  13.405
 4565TIP3   OH235185   5.413   3.398  12.244
 4565TIP3    H135186   5.379   3.314  12.278
 4565TIP3    H235187   5.446   3.377  12.155
 4566TIP3   OH235188   5.135   2.879  12.953
 4566TIP3    H135189   5.041   2.857  12.944
 4566TIP3    H235190   5.178   2.802  12.912
 4567TIP3   OH235191   4.387   3.313  12.565
 4567TIP3    H135192   4.439   3.391  12.542
 4567TIP3    H235193   4.299   3.334  12.530
 4568TIP3   OH235194   3.964   2.796  12.021
 4568TIP3    H135195   4.023   2.862  12.061
 4568TIP3    H235196   3.875   2.828  12.047
 4569TIP3   OH235197   4.530   3.078  12.517
 4569TIP3    H135198   4.500   3.171  12.525
 4569TIP3    H235199   4.456   3.031  12.560
 4570TIP3   OH235200   4.575   3.496  13.155
 4570TIP3    H135201   4.619   3.578  13.128
 4570TIP3    H235202   4.635   3.463  13.224
 4571TIP3   OH235203   4.397   3.579  12.474
 4571TIP3    H135204   4.300   3.591  12.479
 4571TIP3    H235205   4.435   3.663  12.503
 4572TIP3   OH235206   4.930   3.099  13.120
 4572TIP3    H135207   4.893   3.078  13.208
 4572TIP3    H235208   4.992   3.027  13.102
 4573TIP3   OH235209   5.159   3.201  12.027
 4573TIP3    H135210   5.190   3.157  12.109
 4573TIP3    H235211   5.063   3.186  12.037
 4574TIP3   OH235212   5.206   3.556  13.369
 4574TIP3    H135213   5.140   3.505  13.319
 4574TIP3    H235214   5.227   3.625  13.303
 4575TIP3   OH235215   5.607   3.640  12.052
 4575TIP3    H135216   5.677   3.705  12.033
 4575TIP3    H235217   5.536   3.701  12.081
 4576TIP3   OH235218   4.014   2.281  13.307
 4576TIP3    H135219   3.923   2.315  13.304
 4576TIP3    H235220   4.003   2.196  13.352
 4577TIP3   OH235221   5.239   3.067  12.251
 4577TIP3    H135222   5.215   2.989  12.306
 4577TIP3    H235223   5.333   3.073  12.271
 4578TIP3   OH235224   3.977   3.460  13.150
 4578TIP3    H135225   4.004   3.367  13.150
 4578TIP3    H235226   4.003   3.488  13.239
 4579TIP3   OH235227   4.570   3.311  11.875
 4579TIP3    H135228   4.585   3.233  11.818
 4579TIP3    H235229   4.532   3.268  11.955
 4580TIP3   OH235230   4.453   3.264  12.121
 4580TIP3    H135231   4.476   3.212  12.199
 4580TIP3    H235232   4.459   3.357  12.153
 4581TIP3   OH235233   4.104   2.988  12.170
 4581TIP3    H135234   4.034   3.027  12.226
 4581TIP3    H235235   4.156   3.067  12.143
 4582TIP3   OH235236   4.887   2.257  13.201
 4582TIP3    H135237   4.958   2.263  13.266
 4582TIP3    H235238   4.849   2.169  13.219
 4583TIP3   OH235239   4.963   2.216  12.310
 4583TIP3    H135240   4.986   2.264  12.228
 4583TIP3    H235241   5.020   2.259  12.375
 4584TIP3   OH235242   4.732   3.430  12.194
 4584TIP3    H135243   4.650   3.483  12.199
 4584TIP3    H235244   4.784   3.484  12.132
 4585TIP3   OH235245   4.685   2.391  12.392
 4585TIP3    H135246   4.765   2.447  12.397
 4585TIP3    H235247   4.659   2.378  12.485
 4586TIP3   OH235248   4.740   2.492  13.311
 4586TIP3    H135249   4.749   2.549  13.390
 4586TIP3    H235250   4.806   2.423  13.322
 4587TIP3   OH235251   4.771   2.097  12.483
 4587TIP3    H135252   4.738   2.162  12.548
 4587TIP3    H235253   4.839   2.151  12.437
 4588TIP3   OH235254   4.466   3.530  12.198
 4588TIP3    H135255   4.481   3.610  12.141
 4588TIP3    H235256   4.445   3.570  12.284
 4589TIP3   OH235257   4.336   2.206  12.153
 4589TIP3    H135258   4.331   2.297  12.190
 4589TIP3    H235259   4.428   2.182  12.179
 4590TIP3   OH235260   5.359   2.280  13.396
 4590TIP3    H135261   5.266   2.310  13.384
 4590TIP3    H235262   5.389   2.280  13.304
 4591TIP3   OH235263   5.219   2.658  12.799
 4591TIP3    H135264   5.137   2.615  12.770
 4591TIP3    H235265   5.266   2.589  12.851
 4592TIP3   OH235266   4.160   3.249  12.059
 4592TIP3    H135267   4.224   3.316  12.087
 4592TIP3    H235268   4.212   3.206  11.988
 4593TIP3   OH235269   3.995   2.517  11.971
 4593TIP3    H135270   3.994   2.613  11.991
 4593TIP3    H235271   3.906   2.498  11.942
 4594TIP3   OH235272   5.326   3.583  12.965
 4594TIP3    H135273   5.315   3.652  12.897
 4594TIP3    H235274   5.422   3.590  12.983
 4595TIP3   OH235275   4.076   1.996  12.843
 4595TIP3    H135276   4.055   1.999  12.747
 4595TIP3    H235277   4.033   1.913  12.870
 4596TIP3   OH235278   3.971   3.388  12.458
 4596TIP3    H135279   3.886   3.435  12.456
 4596TIP3    H235280   4.020   3.436  12.391
 4597TIP3   OH235281   3.895   3.655  13.588
 4597TIP3    H135282   3.952   3.631  13.663
 4597TIP3    H235283   3.851   3.570  13.570
 4598TIP3   OH235284   4.358   3.544  13.749
 4598TIP3    H135285   4.435   3.497  13.783
 4598TIP3    H235286   4.357   3.518  13.656
 4599TIP3   OH235287   4.772   3.495  11.887
 4599TIP3    H135288   4.703   3.431  11.916
 4599TIP3    H235289   4.845   3.436  11.864
 4600TIP3   OH235290   5.012   3.383  13.623
 4600TIP3    H135291   4.980   3.294  13.650
 4600TIP3    H235292   5.088   3.395  13.684
 4601TIP3   OH235293   5.228   3.473  11.910
 4601TIP3    H135294   5.258   3.394  11.958
 4601TIP3    H235295   5.304   3.496  11.854
 4602TIP3   OH235296   3.885   3.031  13.687
 4602TIP3    H135297   3.901   2.940  13.656
 4602TIP3    H235298   3.810   3.057  13.632
 4603TIP3   OH235299   4.319   3.066  11.892
 4603TIP3    H135300   4.331   2.988  11.949
 4603TIP3    H235301   4.391   3.053  11.828
 4604TIP3   OH235302   4.555   3.029  13.627
 4604TIP3    H135303   4.521   3.059  13.540
 4604TIP3    H235304   4.565   2.932  13.617
 4605TIP3   OH235305   4.860   3.175  11.868
 4605TIP3    H135306   4.832   3.186  11.961
 4605TIP3    H235307   4.840   3.079  11.855
 4606TIP3   OH235308   5.125   3.016  13.365
 4606TIP3    H135309   5.203   3.076  13.357
 4606TIP3    H235310   5.054   3.081  13.370
 4607TIP3   OH235311   3.974   2.753  13.626
 4607TIP3    H135312   4.015   2.667  13.616
 4607TIP3    H235313   3.949   2.753  13.720
 4608TIP3   OH235314   4.438   2.866  12.131
 4608TIP3    H135315   4.390   2.813  12.196
 4608TIP3    H235316   4.466   2.798  12.065
 4609TIP3   OH235317   4.366   2.649  13.362
 4609TIP3    H135318   4.305   2.720  13.389
 4609TIP3    H235319   4.403   2.685  13.280
 4610TIP3   OH235320   4.545   2.688  11.953
 4610TIP3    H135321   4.529   2.677  11.857
 4610TIP3    H235322   4.643   2.696  11.959
 4611TIP3   OH235323   4.871   2.903  13.694
 4611TIP3    H135324   4.967   2.905  13.685
 4611TIP3    H235325   4.854   2.828  13.752
 4612TIP3   OH235326   5.480   2.921  11.897
 4612TIP3    H135327   5.458   2.882  11.811
 4612TIP3    H235328   5.488   3.017  11.875
 4613TIP3   OH235329   4.405   2.386  13.469
 4613TIP3    H135330   4.417   2.314  13.405
 4613TIP3    H235331   4.401   2.467  13.413
 4614TIP3   OH235332   4.445   2.224  13.222
 4614TIP3    H135333   4.497   2.270  13.152
 4614TIP3    H235334   4.356   2.215  13.180
 4615TIP3   OH235335   4.600   2.771  13.247
 4615TIP3    H135336   4.675   2.755  13.189
 4615TIP3    H235337   4.565   2.855  13.215
 4616TIP3   OH235338   5.040   2.549  13.745
 4616TIP3    H135339   5.062   2.455  13.735
 4616TIP3    H235340   5.127   2.592  13.746
 4617TIP3   OH235341   5.172   2.827  13.558
 4617TIP3    H135342   5.148   2.900  13.497
 4617TIP3    H235343   5.269   2.824  13.540
 4618TIP3   OH235344   4.251   2.510  13.661
 4618TIP3    H135345   4.174   2.453  13.642
 4618TIP3    H235346   4.317   2.474  13.599
 4619TIP3   OH235347   4.524   1.968  13.263
 4619TIP3    H135348   4.509   2.065  13.252
 4619TIP3    H235349   4.449   1.932  13.213
 4620TIP3   OH235350   4.651   2.401  13.623
 4620TIP3    H135351   4.622   2.378  13.713
 4620TIP3    H235352   4.572   2.381  13.570
 4621TIP3   OH235353   4.923   2.314  13.530
 4621TIP3    H135354   4.827   2.319  13.543
 4621TIP3    H235355   4.951   2.251  13.598
 4622TIP3   OH235356   5.083   2.177  13.725
 4622TIP3    H135357   5.076   2.080  13.727
 4622TIP3    H235358   5.055   2.206  13.814
 4623TIP3   OH235359   4.061   2.303  13.634
 4623TIP3    H135360   4.086   2.230  13.574
 4623TIP3    H235361   4.053   2.258  13.720
 4624TIP3   OH235362   4.545   1.904  13.532
 4624TIP3    H135363   4.615   1.836  13.529
 4624TIP3    H235364   4.535   1.923  13.437
 4625TIP3   OH235365   4.582   2.068  13.741
 4625TIP3    H135366   4.566   2.018  13.657
 4625TIP3    H235367   4.521   2.144  13.732
 4626TIP3   OH235368   4.549   3.697  12.025
 4626TIP3    H135369   4.617   3.756  12.067
 4626TIP3    H235370   4.510   3.784  11.995
 4627TIP3   OH235371   3.886   3.219  12.006
 4627TIP3    H135372   3.983   3.227  12.026
 4627TIP3    H235373   3.891   3.152  11.933
 4628TIP3   OH235374   3.763   3.757  12.505
 4628TIP3    H135375   3.692   3.710  12.457
 4628TIP3    H235376   3.790   3.689  12.570
 4629TIP3   OH235377   3.847   3.568  12.690
 4629TIP3    H135378   3.809   3.481  12.709
 4629TIP3    H235379   3.865   3.601  12.780
 4630TIP3   OH235380   5.598   3.648  12.985
 4630TIP3    H135381   5.599   3.665  13.081
 4630TIP3    H235382   5.668   3.706  12.955
 4631TIP3   OH235383   5.556   3.608  13.280
 4631TIP3    H135384   5.508   3.531  13.242
 4631TIP3    H235385   5.607   3.564  13.350
 4632TIP3   OH235386   5.400   3.181  13.745
 4632TIP3    H135387   5.311   3.176  13.783
 4632TIP3    H235388   5.438   3.260  13.788
 4633TIP3   OH235389   5.531   3.012  12.291
 4633TIP3    H135390   5.617   3.052  12.308
 4633TIP3    H235391   5.531   2.939  12.357
 4634TIP3   OH235392   5.569   2.819  12.478
 4634TIP3    H135393   5.494   2.769  12.518
 4634TIP3    H235394   5.628   2.834  12.554
 4635TIP3   OH235395   5.544   3.091  12.976
 4635TIP3    H135396   5.627   3.054  12.940
 4635TIP3    H235397   5.558   3.187  12.959
 4636TIP3   OH235398   5.398   3.381  13.204
 4636TIP3    H135399   5.329   3.414  13.264
 4636TIP3    H235400   5.343   3.339  13.134
 4637TIP3   OH235401   5.598   2.803  12.117
 4637TIP3    H135402   5.543   2.839  12.045
 4637TIP3    H235403   5.590   2.874  12.184
 4638TIP3   OH235404   5.435   2.527  11.970
 4638TIP3    H135405   5.442   2.594  11.901
 4638TIP3    H235406   5.417   2.444  11.921
 4639TIP3   OH235407   5.349   2.668  12.534
 4639TIP3    H135408   5.334   2.572  12.532
 4639TIP3    H235409   5.315   2.692  12.622
 4640TIP3   OH235410   3.850   2.876  12.939
 4640TIP3    H135411   3.869   2.868  12.843
 4640TIP3    H235412   3.939   2.860  12.976
 4641TIP3   OH235413   5.435   2.865  13.502
 4641TIP3    H135414   5.496   2.789  13.517
 4641TIP3    H235415   5.494   2.942  13.504
 4642TIP3   OH235416   5.585   2.654  13.568
 4642TIP3    H135417   5.497   2.614  13.552
 4642TIP3    H235418   5.643   2.577  13.560
 4643TIP3   OH235419   5.359   2.272  11.883
 4643TIP3    H135420   5.418   2.230  11.947
 4643TIP3    H235421   5.273   2.229  11.900
 4644TIP3   OH235422   5.316   2.426  12.378
 4644TIP3    H135423   5.347   2.334  12.393
 4644TIP3    H235424   5.397   2.467  12.345
 4645TIP3   OH235425   5.380   2.481  12.924
 4645TIP3    H135426   5.476   2.504  12.923
 4645TIP3    H235427   5.360   2.495  13.018
 4646TIP3   OH235428   5.387   2.553  13.203
 4646TIP3    H135429   5.299   2.583  13.236
 4646TIP3    H235430   5.430   2.640  13.181
 4647TIP3   OH235431   3.811   2.406  13.554
 4647TIP3    H135432   3.905   2.387  13.574
 4647TIP3    H235433   3.766   2.324  13.586
 4648TIP3   OH235434   5.613   1.957  13.738
 4648TIP3    H135435   5.648   1.892  13.675
 4648TIP3    H235436   5.626   2.040  13.687
 4649TIP3   OH235437   5.383   2.154  12.385
 4649TIP3    H135438   5.403   2.109  12.470
 4649TIP3    H235439   5.322   2.092  12.340
 4650TIP3   OH235440   3.932   2.235  12.840
 4650TIP3    H135441   3.978   2.153  12.868
 4650TIP3    H235442   3.984   2.305  12.881
 4651TIP3   OH235443   3.761   2.534  12.945
 4651TIP3    H135444   3.816   2.511  12.868
 4651TIP3    H235445   3.805   2.616  12.972
 4652TIP3   OH235446   5.566   2.168  13.573
 4652TIP3    H135447   5.472   2.195  13.567
 4652TIP3    H235448   5.572   2.114  13.493
 4653TIP3   OH235449   5.566   2.158  12.041
 4653TIP3    H135450   5.607   2.087  11.988
 4653TIP3    H235451   5.636   2.225  12.045
 4654TIP3   OH235452   3.797   2.162  12.352
 4654TIP3    H135453   3.703   2.180  12.337
 4654TIP3    H235454   3.840   2.210  12.280
 4655TIP3   OH235455   5.271   3.656  12.547
 4655TIP3    H135456   5.339   3.625  12.485
 4655TIP3    H235457   5.323   3.706  12.611
 4656TIP3   OH235458   3.792   2.029  13.183
 4656TIP3    H135459   3.725   2.008  13.250
 4656TIP3    H235460   3.746   2.095  13.128
 4657TIP3   OH235461   4.014   3.348  13.599
 4657TIP3    H135462   3.930   3.368  13.554
 4657TIP3    H235463   3.987   3.341  13.691
 4658TIP3   OH235464   4.306   3.447  13.226
 4658TIP3    H135465   4.269   3.532  13.199
 4658TIP3    H235466   4.398   3.457  13.195
 4659TIP3   OH235467   4.737   3.589  13.518
 4659TIP3    H135468   4.754   3.554  13.609
 4659TIP3    H235469   4.827   3.620  13.491
 4660TIP3   OH235470   4.967   3.716  13.446
 4660TIP3    H135471   5.040   3.656  13.423
 4660TIP3    H235472   5.005   3.759  13.527
 4661TIP3   OH235473   5.467   1.978  13.357
 4661TIP3    H135474   5.384   2.007  13.316
 4661TIP3    H235475   5.485   1.897  13.303
 4662TIP3   OH235476   4.049   3.776  13.228
 4662TIP3    H135477   3.973   3.818  13.185
 4662TIP3    H235478   4.014   3.748  13.314
 4663TIP3   OH235479   4.295   3.731  13.133
 4663TIP3    H135480   4.206   3.741  13.173
 4663TIP3    H235481   4.288   3.789  13.056
 4664TIP3   OH235482   4.765   3.720  13.051
 4664TIP3    H135483   4.721   3.776  12.986
 4664TIP3    H235484   4.780   3.784  13.124
 4665TIP3   OH235485   4.996   3.604  13.149
 4665TIP3    H135486   4.908   3.629  13.117
 4665TIP3    H235487   5.041   3.690  13.141
 4666TIP3   OH235488   5.254   3.761  13.176
 4666TIP3    H135489   5.244   3.856  13.152
 4666TIP3    H235490   5.275   3.724  13.088
 4667TIP3   OH235491   3.994   3.639  12.921
 4667TIP3    H135492   3.984   3.591  13.006
 4667TIP3    H235493   4.073   3.597  12.881
 4668TIP3   OH235494   4.202   3.510  12.785
 4668TIP3    H135495   4.183   3.416  12.805
 4668TIP3    H235496   4.287   3.519  12.832
 4669TIP3   OH235497   4.459   3.556  12.872
 4669TIP3    H135498   4.478   3.464  12.846
 4669TIP3    H235499   4.466   3.549  12.969
 4670TIP3   OH235500   4.807   2.121  12.787
 4670TIP3    H135501   4.739   2.056  12.813
 4670TIP3    H235502   4.863   2.069  12.727
 4671TIP3   OH235503   5.321   1.927  12.795
 4671TIP3    H135504   5.382   1.985  12.744
 4671TIP3    H235505   5.233   1.962  12.771
 4672TIP3   OH235506   5.489   2.049  12.624
 4672TIP3    H135507   5.557   1.993  12.579
 4672TIP3    H235508   5.537   2.134  12.632
 4673TIP3   OH235509   4.043   1.984  12.570
 4673TIP3    H135510   3.964   1.962  12.518
 4673TIP3    H235511   4.091   1.899  12.566
 4674TIP3   OH235512   3.922   1.960  12.145
 4674TIP3    H135513   3.969   2.024  12.090
 4674TIP3    H235514   3.863   2.017  12.197
 4675TIP3   OH235515   4.493   1.976  12.549
 4675TIP3    H135516   4.583   2.013  12.544
 4675TIP3    H235517   4.487   1.955  12.642
 4676TIP3   OH235518   5.060   1.978  12.714
 4676TIP3    H135519   5.059   1.988  12.618
 4676TIP3    H235520   5.024   1.887  12.726
 4677TIP3   OH235521   5.190   1.982  12.282
 4677TIP3    H135522   5.116   2.042  12.264
 4677TIP3    H235523   5.145   1.896  12.301
 4678TIP3   OH235524   3.913   3.555  12.243
 4678TIP3    H135525   3.846   3.554  12.173
 4678TIP3    H235526   3.912   3.649  12.264
 4679TIP3   OH235527   4.105   2.154  11.994
 4679TIP3    H135528   4.158   2.091  11.941
 4679TIP3    H235529   4.172   2.185  12.058
 4680TIP3   OH235530   4.608   2.179  12.235
 4680TIP3    H135531   4.631   2.120  12.309
 4680TIP3    H235532   4.611   2.265  12.283
 4681TIP3   OH235533   4.804   3.679  12.083
 4681TIP3    H135534   4.890   3.713  12.057
 4681TIP3    H235535   4.775   3.636  11.999
 4682TIP3   OH235536   5.471   3.635  12.350
 4682TIP3    H135537   5.451   3.558  12.292
 4682TIP3    H235538   5.464   3.710  12.287
 4683TIP3   OH235539   4.033   2.037  13.517
 4683TIP3    H135540   3.996   1.958  13.560
 4683TIP3    H235541   4.125   2.035  13.552
 4684TIP3   OH235542   4.233   1.974  13.678
 4684TIP3    H135543   4.323   1.941  13.657
 4684TIP3    H235544   4.196   1.895  13.720
 4685TIP3   OH235545   4.093   3.651  11.941
 4685TIP3    H135546   4.068   3.679  12.030
 4685TIP3    H235547   4.173   3.597  11.956
 4686TIP3   OH235548   5.074   1.905  13.694
 4686TIP3    H135549   5.083   1.858  13.779
 4686TIP3    H235550   5.165   1.902  13.660
 4687TIP3   OH235551   5.394   3.509  13.560
 4687TIP3    H135552   5.314   3.495  13.506
 4687TIP3    H235553   5.383   3.604  13.581
 4688TIP3   OH235554   6.834   2.897  12.561
 4688TIP3    H135555   6.841   2.995  12.551
 4688TIP3    H235556   6.768   2.873  12.495
 4689TIP3   OH235557   6.720   2.826  12.907
 4689TIP3    H135558   6.724   2.759  12.978
 4689TIP3    H235559   6.694   2.772  12.830
 4690TIP3   OH235560   5.962   2.789  13.061
 4690TIP3    H135561   5.968   2.723  13.133
 4690TIP3    H235562   6.034   2.848  13.086
 4691TIP3   OH235563   7.094   3.117  12.736
 4691TIP3    H135564   7.052   3.046  12.785
 4691TIP3    H235565   7.098   3.187  12.803
 4692TIP3   OH235566   6.054   3.234  12.914
 4692TIP3    H135567   6.019   3.149  12.882
 4692TIP3    H235568   6.148   3.216  12.921
 4693TIP3   OH235569   5.718   2.593  12.461
 4693TIP3    H135570   5.672   2.679  12.455
 4693TIP3    H235571   5.660   2.538  12.405
 4694TIP3   OH235572   5.787   2.814  12.674
 4694TIP3    H135573   5.813   2.733  12.722
 4694TIP3    H235574   5.857   2.822  12.609
 4695TIP3   OH235575   6.808   3.633  12.758
 4695TIP3    H135576   6.871   3.562  12.731
 4695TIP3    H235577   6.786   3.602  12.846
 4696TIP3   OH235578   6.559   3.063  12.947
 4696TIP3    H135579   6.602   2.998  12.890
 4696TIP3    H235580   6.637   3.080  13.006
 4697TIP3   OH235581   6.878   2.510  12.984
 4697TIP3    H135582   6.895   2.414  12.983
 4697TIP3    H235583   6.868   2.525  12.887
 4698TIP3   OH235584   6.191   2.318  12.708
 4698TIP3    H135585   6.200   2.403  12.660
 4698TIP3    H235586   6.150   2.261  12.640
 4699TIP3   OH235587   6.965   2.330  12.546
 4699TIP3    H135588   7.031   2.296  12.611
 4699TIP3    H235589   7.020   2.383  12.488
 4700TIP3   OH235590   5.853   2.559  12.782
 4700TIP3    H135591   5.921   2.504  12.826
 4700TIP3    H235592   5.862   2.529  12.690
 4701TIP3   OH235593   6.369   2.717  12.712
 4701TIP3    H135594   6.435   2.657  12.752
 4701TIP3    H235595   6.317   2.649  12.663
 4702TIP3   OH235596   6.080   2.208  13.112
 4702TIP3    H135597   6.053   2.265  13.037
 4702TIP3    H235598   6.011   2.232  13.179
 4703TIP3   OH235599   6.807   3.155  12.468
 4703TIP3    H135600   6.785   3.129  12.378
 4703TIP3    H235601   6.781   3.250  12.471
 4704TIP3   OH235602   6.332   2.974  13.131
 4704TIP3    H135603   6.261   3.037  13.158
 4704TIP3    H235604   6.404   3.035  13.113
 4705TIP3   OH235605   7.129   2.260  12.750
 4705TIP3    H135606   7.121   2.180  12.801
 4705TIP3    H235607   7.203   2.306  12.795
 4706TIP3   OH235608   6.036   2.395  12.913
 4706TIP3    H135609   6.099   2.463  12.946
 4706TIP3    H235610   6.089   2.352  12.841
 4707TIP3   OH235611   6.176   3.172  13.217
 4707TIP3    H135612   6.172   3.264  13.185
 4707TIP3    H235613   6.089   3.165  13.263
 4708TIP3   OH235614   5.785   3.136  12.298
 4708TIP3    H135615   5.759   3.166  12.209
 4708TIP3    H235616   5.792   3.220  12.347
 4709TIP3   OH235617   7.139   3.298  12.977
 4709TIP3    H135618   7.044   3.311  12.986
 4709TIP3    H235619   7.172   3.388  12.955
 4710TIP3   OH235620   7.170   2.137  13.102
 4710TIP3    H135621   7.097   2.200  13.104
 4710TIP3    H235622   7.241   2.182  13.056
 4711TIP3   OH235623   6.477   1.941  12.858
 4711TIP3    H135624   6.464   1.845  12.852
 4711TIP3    H235625   6.389   1.972  12.888
 4712TIP3   OH235626   6.969   3.477  12.633
 4712TIP3    H135627   7.016   3.408  12.582
 4712TIP3    H235628   7.011   3.557  12.593
 4713TIP3   OH235629   7.091   3.271  12.481
 4713TIP3    H135630   7.063   3.199  12.422
 4713TIP3    H235631   7.097   3.223  12.567
 4714TIP3   OH235632   7.236   3.139  13.339
 4714TIP3    H135633   7.267   3.073  13.273
 4714TIP3    H235634   7.275   3.219  13.297
 4715TIP3   OH235635   6.705   2.822  12.310
 4715TIP3    H135636   6.635   2.878  12.272
 4715TIP3    H235637   6.775   2.830  12.243
 4716TIP3   OH235638   6.711   2.675  12.011
 4716TIP3    H135639   6.782   2.674  12.077
 4716TIP3    H235640   6.743   2.606  11.951
 4717TIP3   OH235641   7.047   2.844  12.401
 4717TIP3    H135642   6.974   2.868  12.462
 4717TIP3    H235643   7.094   2.775  12.453
 4718TIP3   OH235644   7.037   2.657  13.312
 4718TIP3    H135645   7.042   2.738  13.365
 4718TIP3    H235646   6.977   2.690  13.242
 4719TIP3   OH235647   6.214   2.910  12.595
 4719TIP3    H135648   6.177   2.871  12.511
 4719TIP3    H235649   6.270   2.834  12.624
 4720TIP3   OH235650   6.341   3.243  12.864
 4720TIP3    H135651   6.340   3.206  12.776
 4720TIP3    H235652   6.424   3.217  12.909
 4721TIP3   OH235653   6.243   2.787  12.955
 4721TIP3    H135654   6.302   2.789  12.879
 4721TIP3    H235655   6.281   2.847  13.023
 4722TIP3   OH235656   6.880   3.339  13.028
 4722TIP3    H135657   6.856   3.402  13.096
 4722TIP3    H235658   6.859   3.253  13.072
 4723TIP3   OH235659   6.338   3.225  13.428
 4723TIP3    H135660   6.300   3.301  13.476
 4723TIP3    H235661   6.270   3.207  13.358
 4724TIP3   OH235662   6.936   2.760  12.168
 4724TIP3    H135663   6.991   2.779  12.248
 4724TIP3    H235664   6.978   2.810  12.095
 4725TIP3   OH235665   6.031   2.842  13.346
 4725TIP3    H135666   6.036   2.909  13.417
 4725TIP3    H235667   5.938   2.852  13.321
 4726TIP3   OH235668   6.705   3.433  12.516
 4726TIP3    H135669   6.751   3.464  12.595
 4726TIP3    H235670   6.651   3.509  12.492
 4727TIP3   OH235671   6.162   3.430  13.504
 4727TIP3    H135672   6.158   3.419  13.407
 4727TIP3    H235673   6.068   3.418  13.529
 4728TIP3   OH235674   7.284   1.930  12.143
 4728TIP3    H135675   7.199   1.954  12.186
 4728TIP3    H235676   7.320   2.013  12.112
 4729TIP3   OH235677   6.108   2.813  12.357
 4729TIP3    H135678   6.079   2.889  12.302
 4729TIP3    H235679   6.043   2.746  12.333
 4730TIP3   OH235680   5.717   3.053  13.240
 4730TIP3    H135681   5.670   3.045  13.155
 4730TIP3    H235682   5.722   2.958  13.264
 4731TIP3   OH235683   5.693   3.327  12.921
 4731TIP3    H135684   5.788   3.315  12.920
 4731TIP3    H235685   5.684   3.408  12.973
 4732TIP3   OH235686   6.612   3.352  13.376
 4732TIP3    H135687   6.619   3.436  13.427
 4732TIP3    H235688   6.524   3.317  13.402
 4733TIP3   OH235689   6.656   3.725  12.356
 4733TIP3    H135690   6.645   3.718  12.260
 4733TIP3    H235691   6.657   3.822  12.373
 4734TIP3   OH235692   6.019   3.613  12.538
 4734TIP3    H135693   6.034   3.572  12.626
 4734TIP3    H235694   5.934   3.573  12.513
 4735TIP3   OH235695   6.964   3.647  12.055
 4735TIP3    H135696   7.004   3.569  12.010
 4735TIP3    H235697   6.964   3.619  12.149
 4736TIP3   OH235698   6.931   3.640  12.332
 4736TIP3    H135699   6.835   3.648  12.350
 4736TIP3    H235700   6.956   3.566  12.390
 4737TIP3   OH235701   7.204   2.554  13.542
 4737TIP3    H135702   7.184   2.593  13.458
 4737TIP3    H235703   7.236   2.464  13.513
 4738TIP3   OH235704   5.944   3.185  13.337
 4738TIP3    H135705   5.967   3.148  13.425
 4738TIP3    H235706   5.858   3.145  13.316
 4739TIP3   OH235707   6.211   2.031  12.934
 4739TIP3    H135708   6.121   2.020  12.896
 4739TIP3    H235709   6.200   2.115  12.980
 4740TIP3   OH235710   6.675   2.000  13.271
 4740TIP3    H135711   6.715   1.958  13.349
 4740TIP3    H235712   6.578   1.986  13.285
 4741TIP3   OH235713   7.004   2.381  13.359
 4741TIP3    H135714   6.951   2.363  13.439
 4741TIP3    H235715   6.988   2.474  13.337
 4742TIP3   OH235716   7.081   2.862  11.942
 4742TIP3    H135717   7.083   2.842  11.846
 4742TIP3    H235718   7.164   2.908  11.952
 4743TIP3   OH235719   6.641   2.256  12.000
 4743TIP3    H135720   6.610   2.251  12.093
 4743TIP3    H235721   6.610   2.168  11.971
 4744TIP3   OH235722   6.221   2.529  13.054
 4744TIP3    H135723   6.150   2.526  13.120
 4744TIP3    H235724   6.217   2.621  13.022
 4745TIP3   OH235725   6.218   2.546  12.543
 4745TIP3    H135726   6.125   2.516  12.531
 4745TIP3    H235727   6.257   2.512  12.461
 4746TIP3   OH235728   6.771   2.591  12.422
 4746TIP3    H135729   6.730   2.673  12.387
 4746TIP3    H235730   6.841   2.575  12.356
 4747TIP3   OH235731   6.677   2.612  13.566
 4747TIP3    H135732   6.624   2.535  13.598
 4747TIP3    H235733   6.761   2.598  13.614
 4748TIP3   OH235734   6.873   2.540  12.706
 4748TIP3    H135735   6.848   2.596  12.630
 4748TIP3    H235736   6.884   2.455  12.659
 4749TIP3   OH235737   5.986   2.557  13.228
 4749TIP3    H135738   5.990   2.597  13.317
 4749TIP3    H235739   5.940   2.473  13.246
 4750TIP3   OH235740   6.324   2.295  11.912
 4750TIP3    H135741   6.279   2.252  11.987
 4750TIP3    H235742   6.252   2.336  11.862
 4751TIP3   OH235743   5.650   2.268  12.622
 4751TIP3    H135744   5.717   2.264  12.693
 4751TIP3    H235745   5.696   2.228  12.546
 4752TIP3   OH235746   5.778   2.339  12.160
 4752TIP3    H135747   5.827   2.401  12.103
 4752TIP3    H235748   5.707   2.399  12.193
 4753TIP3   OH235749   6.794   2.699  13.163
 4753TIP3    H135750   6.831   2.632  13.103
 4753TIP3    H235751   6.749   2.646  13.231
 4754TIP3   OH235752   6.473   2.295  12.645
 4754TIP3    H135753   6.380   2.297  12.675
 4754TIP3    H235754   6.523   2.282  12.728
 4755TIP3   OH235755   5.956   2.453  12.531
 4755TIP3    H135756   5.866   2.466  12.493
 4755TIP3    H235757   5.984   2.369  12.492
 4756TIP3   OH235758   6.320   2.455  12.294
 4756TIP3    H135759   6.415   2.467  12.312
 4756TIP3    H235760   6.297   2.524  12.229
 4757TIP3   OH235761   6.913   2.217  12.970
 4757TIP3    H135762   6.845   2.226  13.040
 4757TIP3    H235763   6.862   2.198  12.890
 4758TIP3   OH235764   6.189   2.574  12.053
 4758TIP3    H135765   6.136   2.536  11.981
 4758TIP3    H235766   6.272   2.594  12.007
 4759TIP3   OH235767   7.233   3.784  13.602
 4759TIP3    H135768   7.263   3.822  13.518
 4759TIP3    H235769   7.306   3.815  13.659
 4760TIP3   OH235770   6.003   3.030  13.559
 4760TIP3    H135771   6.075   3.056  13.619
 4760TIP3    H235772   5.925   3.043  13.617
 4761TIP3   OH235773   6.603   2.572  12.834
 4761TIP3    H135774   6.663   2.517  12.782
 4761TIP3    H235775   6.589   2.517  12.913
 4762TIP3   OH235776   6.104   2.186  12.478
 4762TIP3    H135777   6.073   2.094  12.475
 4762TIP3    H235778   6.183   2.181  12.422
 4763TIP3   OH235779   6.467   2.406  13.076
 4763TIP3    H135780   6.384   2.456  13.086
 4763TIP3    H235781   6.521   2.439  13.150
 4764TIP3   OH235782   6.525   3.029  12.245
 4764TIP3    H135783   6.446   2.980  12.211
 4764TIP3    H235784   6.505   3.037  12.340
 4765TIP3   OH235785   7.231   2.947  13.126
 4765TIP3    H135786   7.295   2.978  13.059
 4765TIP3    H235787   7.149   2.952  13.074
 4766TIP3   OH235788   6.909   2.309  12.063
 4766TIP3    H135789   6.813   2.323  12.049
 4766TIP3    H235790   6.939   2.396  12.097
 4767TIP3   OH235791   6.674   3.052  13.369
 4767TIP3    H135792   6.640   3.011  13.450
 4767TIP3    H235793   6.652   3.145  13.379
 4768TIP3   OH235794   6.981   2.500  12.225
 4768TIP3    H135795   7.069   2.487  12.265
 4768TIP3    H235796   6.989   2.583  12.176
 4769TIP3   OH235797   6.039   2.966  12.827
 4769TIP3    H135798   6.103   2.956  12.755
 4769TIP3    H235799   6.040   2.879  12.871
 4770TIP3   OH235800   6.736   3.175  12.148
 4770TIP3    H135801   6.702   3.259  12.185
 4770TIP3    H235802   6.662   3.113  12.170
 4771TIP3   OH235803   5.735   2.807  13.352
 4771TIP3    H135804   5.754   2.763  13.437
 4771TIP3    H235805   5.673   2.745  13.309
 4772TIP3   OH235806   6.436   2.762  13.572
 4772TIP3    H135807   6.406   2.735  13.484
 4772TIP3    H235808   6.530   2.732  13.571
 4773TIP3   OH235809   6.901   3.294  13.363
 4773TIP3    H135810   6.809   3.315  13.340
 4773TIP3    H235811   6.902   3.324  13.456
 4774TIP3   OH235812   7.292   3.397  12.243
 4774TIP3    H135813   7.262   3.313  12.279
 4774TIP3    H235814   7.332   3.377  12.158
 4775TIP3   OH235815   7.017   2.878  12.954
 4775TIP3    H135816   6.923   2.855  12.943
 4775TIP3    H235817   7.063   2.802  12.913
 4776TIP3   OH235818   6.273   3.311  12.566
 4776TIP3    H135819   6.323   3.391  12.542
 4776TIP3    H235820   6.186   3.335  12.531
 4777TIP3   OH235821   5.849   2.796  12.021
 4777TIP3    H135822   5.908   2.862  12.061
 4777TIP3    H235823   5.761   2.828  12.047
 4778TIP3   OH235824   6.418   3.078  12.528
 4778TIP3    H135825   6.386   3.171  12.522
 4778TIP3    H235826   6.337   3.030  12.553
 4779TIP3   OH235827   6.461   3.495  13.154
 4779TIP3    H135828   6.504   3.578  13.128
 4779TIP3    H235829   6.520   3.463  13.224
 4780TIP3   OH235830   6.284   3.578  12.471
 4780TIP3    H135831   6.187   3.593  12.481
 4780TIP3    H235832   6.319   3.662  12.505
 4781TIP3   OH235833   6.813   3.098  13.117
 4781TIP3    H135834   6.780   3.079  13.208
 4781TIP3    H235835   6.879   3.027  13.103
 4782TIP3   OH235836   7.045   3.202  12.028
 4782TIP3    H135837   7.074   3.157  12.110
 4782TIP3    H235838   6.949   3.186  12.037
 4783TIP3   OH235839   7.089   3.558  13.369
 4783TIP3    H135840   7.025   3.504  13.318
 4783TIP3    H235841   7.114   3.625  13.302
 4784TIP3   OH235842   5.900   2.281  13.307
 4784TIP3    H135843   5.809   2.315  13.304
 4784TIP3    H235844   5.889   2.196  13.352
 4785TIP3   OH235845   7.124   3.065  12.251
 4785TIP3    H135846   7.100   2.987  12.307
 4785TIP3    H235847   7.218   3.073  12.272
 4786TIP3   OH235848   5.862   3.460  13.150
 4786TIP3    H135849   5.889   3.367  13.150
 4786TIP3    H235850   5.888   3.488  13.239
 4787TIP3   OH235851   6.456   3.311  11.875
 4787TIP3    H135852   6.470   3.233  11.818
 4787TIP3    H235853   6.418   3.268  11.955
 4788TIP3   OH235854   6.339   3.264  12.121
 4788TIP3    H135855   6.361   3.212  12.199
 4788TIP3    H235856   6.345   3.357  12.153
 4789TIP3   OH235857   5.990   2.988  12.171
 4789TIP3    H135858   5.919   3.027  12.226
 4789TIP3    H235859   6.041   3.067  12.143
 4790TIP3   OH235860   6.771   2.257  13.201
 4790TIP3    H135861   6.844   2.263  13.264
 4790TIP3    H235862   6.734   2.169  13.220
 4791TIP3   OH235863   6.850   2.215  12.309
 4791TIP3    H135864   6.873   2.264  12.228
 4791TIP3    H235865   6.906   2.258  12.375
 4792TIP3   OH235866   6.617   3.431  12.193
 4792TIP3    H135867   6.535   3.484  12.199
 4792TIP3    H235868   6.670   3.485  12.133
 4793TIP3   OH235869   6.571   2.391  12.392
 4793TIP3    H135870   6.650   2.447  12.397
 4793TIP3    H235871   6.545   2.378  12.485
 4794TIP3   OH235872   6.625   2.491  13.311
 4794TIP3    H135873   6.635   2.549  13.389
 4794TIP3    H235874   6.692   2.422  13.321
 4795TIP3   OH235875   6.654   2.097  12.482
 4795TIP3    H135876   6.625   2.162  12.548
 4795TIP3    H235877   6.724   2.151  12.437
 4796TIP3   OH235878   6.354   3.534  12.193
 4796TIP3    H135879   6.367   3.617  12.140
 4796TIP3    H235880   6.330   3.570  12.282
 4797TIP3   OH235881   6.222   2.206  12.153
 4797TIP3    H135882   6.217   2.297  12.190
 4797TIP3    H235883   6.313   2.182  12.179
 4798TIP3   OH235884   7.242   2.275  13.390
 4798TIP3    H135885   7.150   2.311  13.383
 4798TIP3    H235886   7.275   2.283  13.300
 4799TIP3   OH235887   7.106   2.659  12.803
 4799TIP3    H135888   7.024   2.616  12.770
 4799TIP3    H235889   7.147   2.586  12.851
 4800TIP3   OH235890   6.046   3.250  12.060
 4800TIP3    H135891   6.111   3.317  12.088
 4800TIP3    H235892   6.097   3.206  11.989
 4801TIP3   OH235893   5.880   2.517  11.972
 4801TIP3    H135894   5.880   2.613  11.991
 4801TIP3    H235895   5.791   2.497  11.942
 4802TIP3   OH235896   7.215   3.583  12.965
 4802TIP3    H135897   7.199   3.653  12.899
 4802TIP3    H235898   7.309   3.593  12.985
 4803TIP3   OH235899   5.962   1.996  12.843
 4803TIP3    H135900   5.940   1.999  12.747
 4803TIP3    H235901   5.919   1.913  12.870
 4804TIP3   OH235902   5.857   3.388  12.458
 4804TIP3    H135903   5.772   3.435  12.456
 4804TIP3    H235904   5.907   3.437  12.392
 4805TIP3   OH235905   5.779   3.653  13.588
 4805TIP3    H135906   5.838   3.631  13.663
 4805TIP3    H235907   5.736   3.568  13.570
 4806TIP3   OH235908   6.245   3.545  13.750
 4806TIP3    H135909   6.321   3.496  13.783
 4806TIP3    H235910   6.242   3.518  13.656
 4807TIP3   OH235911   6.657   3.496  11.889
 4807TIP3    H135912   6.589   3.430  11.915
 4807TIP3    H235913   6.730   3.437  11.865
 4808TIP3   OH235914   6.899   3.383  13.623
 4808TIP3    H135915   6.867   3.294  13.650
 4808TIP3    H235916   6.974   3.395  13.685
 4809TIP3   OH235917   7.112   3.474  11.911
 4809TIP3    H135918   7.141   3.394  11.957
 4809TIP3    H235919   7.188   3.495  11.853
 4810TIP3   OH235920   5.771   3.031  13.687
 4810TIP3    H135921   5.787   2.940  13.656
 4810TIP3    H235922   5.695   3.058  13.632
 4811TIP3   OH235923   6.204   3.066  11.892
 4811TIP3    H135924   6.216   2.988  11.948
 4811TIP3    H235925   6.277   3.053  11.828
 4812TIP3   OH235926   6.441   3.029  13.627
 4812TIP3    H135927   6.407   3.059  13.540
 4812TIP3    H235928   6.451   2.932  13.617
 4813TIP3   OH235929   6.746   3.175  11.868
 4813TIP3    H135930   6.718   3.185  11.961
 4813TIP3    H235931   6.725   3.079  11.855
 4814TIP3   OH235932   7.009   3.014  13.362
 4814TIP3    H135933   7.087   3.076  13.356
 4814TIP3    H235934   6.940   3.080  13.370
 4815TIP3   OH235935   5.860   2.753  13.626
 4815TIP3    H135936   5.901   2.667  13.616
 4815TIP3    H235937   5.835   2.753  13.720
 4816TIP3   OH235938   6.324   2.866  12.131
 4816TIP3    H135939   6.275   2.813  12.196
 4816TIP3    H235940   6.352   2.798  12.066
 4817TIP3   OH235941   6.251   2.649  13.362
 4817TIP3    H135942   6.191   2.720  13.389
 4817TIP3    H235943   6.289   2.685  13.280
 4818TIP3   OH235944   6.431   2.688  11.953
 4818TIP3    H135945   6.415   2.677  11.857
 4818TIP3    H235946   6.528   2.696  11.959
 4819TIP3   OH235947   6.754   2.904  13.694
 4819TIP3    H135948   6.851   2.905  13.686
 4819TIP3    H235949   6.740   2.827  13.752
 4820TIP3   OH235950   6.290   2.386  13.469
 4820TIP3    H135951   6.302   2.314  13.405
 4820TIP3    H235952   6.287   2.467  13.413
 4821TIP3   OH235953   6.330   2.224  13.222
 4821TIP3    H135954   6.382   2.270  13.152
 4821TIP3    H235955   6.242   2.215  13.180
 4822TIP3   OH235956   6.484   2.770  13.245
 4822TIP3    H135957   6.562   2.754  13.190
 4822TIP3    H235958   6.451   2.856  13.216
 4823TIP3   OH235959   6.925   2.550  13.745
 4823TIP3    H135960   6.949   2.457  13.734
 4823TIP3    H235961   7.013   2.592  13.745
 4824TIP3   OH235962   7.055   2.827  13.557
 4824TIP3    H135963   7.033   2.901  13.497
 4824TIP3    H235964   7.152   2.824  13.540
 4825TIP3   OH235965   6.136   2.510  13.661
 4825TIP3    H135966   6.059   2.453  13.642
 4825TIP3    H235967   6.203   2.474  13.599
 4826TIP3   OH235968   6.410   1.968  13.263
 4826TIP3    H135969   6.394   2.065  13.252
 4826TIP3    H235970   6.334   1.932  13.213
 4827TIP3   OH235971   6.537   2.401  13.623
 4827TIP3    H135972   6.507   2.378  13.713
 4827TIP3    H235973   6.458   2.381  13.570
 4828TIP3   OH235974   6.807   2.315  13.531
 4828TIP3    H135975   6.711   2.319  13.543
 4828TIP3    H235976   6.837   2.251  13.598
 4829TIP3   OH235977   6.973   2.177  13.727
 4829TIP3    H135978   6.960   2.080  13.727
 4829TIP3    H235979   6.940   2.207  13.813
 4830TIP3   OH235980   5.946   2.303  13.634
 4830TIP3    H135981   5.971   2.230  13.574
 4830TIP3    H235982   5.938   2.258  13.720
 4831TIP3   OH235983   6.431   1.904  13.532
 4831TIP3    H135984   6.501   1.836  13.529
 4831TIP3    H235985   6.421   1.923  13.437
 4832TIP3   OH235986   6.468   2.068  13.741
 4832TIP3    H135987   6.451   2.018  13.657
 4832TIP3    H235988   6.407   2.144  13.732
 4833TIP3   OH235989   6.416   3.758  12.059
 4833TIP3    H135990   6.512   3.770  12.067
 4833TIP3    H235991   6.398   3.821  11.988
 4834TIP3   OH235992   5.772   3.219  12.006
 4834TIP3    H135993   5.868   3.227  12.027
 4834TIP3    H235994   5.777   3.152  11.934
 4835TIP3   OH235995   5.647   3.757  12.505
 4835TIP3    H135996   5.576   3.709  12.457
 4835TIP3    H235997   5.677   3.690  12.570
 4836TIP3   OH235998   5.730   3.568  12.690
 4836TIP3    H135999   5.695   3.480  12.710
 4836TIP3    H236000   5.753   3.601  12.779
 4837TIP3   OH236001   7.269   3.190  13.735
 4837TIP3    H136002   7.192   3.175  13.789
 4837TIP3    H236003   7.321   3.255  13.785
 4838TIP3   OH236004   7.282   3.375  13.208
 4838TIP3    H136005   7.215   3.416  13.265
 4838TIP3    H236006   7.229   3.339  13.134
 4839TIP3   OH236007   7.309   2.528  11.973
 4839TIP3    H136008   7.326   2.592  11.903
 4839TIP3    H236009   7.300   2.444  11.922
 4840TIP3   OH236010   7.203   2.674  12.535
 4840TIP3    H136011   7.217   2.578  12.538
 4840TIP3    H236012   7.197   2.695  12.630
 4841TIP3   OH236013   5.736   2.876  12.939
 4841TIP3    H136014   5.755   2.868  12.843
 4841TIP3    H236015   5.825   2.860  12.976
 4842TIP3   OH236016  -0.031   2.869  13.529
 4842TIP3    H136017   0.028   2.792  13.526
 4842TIP3    H236018   0.028   2.941  13.501
 4843TIP3   OH236019   7.245   2.273  11.883
 4843TIP3    H136020   7.302   2.229  11.946
 4843TIP3    H236021   7.160   2.229  11.900
 4844TIP3   OH236022   7.201   2.424  12.371
 4844TIP3    H136023   7.230   2.335  12.400
 4844TIP3    H236024   7.281   2.463  12.339
 4845TIP3   OH236025   7.228   2.433  12.916
 4845TIP3    H136026   7.323   2.449  12.904
 4845TIP3    H236027   7.231   2.482  13.000
 4846TIP3   OH236028   7.270   2.554  13.210
 4846TIP3    H136029   7.182   2.584  13.237
 4846TIP3    H236030   7.312   2.635  13.177
 4847TIP3   OH236031   5.697   2.406  13.554
 4847TIP3    H136032   5.791   2.387  13.574
 4847TIP3    H236033   5.652   2.324  13.586
 4848TIP3   OH236034   7.191   2.135  12.436
 4848TIP3    H136035   7.279   2.108  12.470
 4848TIP3    H236036   7.196   2.087  12.351
 4849TIP3   OH236037   5.817   2.235  12.840
 4849TIP3    H136038   5.864   2.153  12.868
 4849TIP3    H236039   5.870   2.305  12.881
 4850TIP3   OH236040   5.646   2.534  12.945
 4850TIP3    H136041   5.702   2.511  12.868
 4850TIP3    H236042   5.690   2.616  12.972
 4851TIP3   OH236043   5.683   2.162  12.352
 4851TIP3    H136044   5.589   2.180  12.337
 4851TIP3    H236045   5.726   2.210  12.280
 4852TIP3   OH236046   7.145   3.644  12.553
 4852TIP3    H136047   7.211   3.614  12.490
 4852TIP3    H236048   7.200   3.703  12.609
 4853TIP3   OH236049   5.678   2.029  13.183
 4853TIP3    H136050   5.610   2.008  13.250
 4853TIP3    H236051   5.632   2.095  13.128
 4854TIP3   OH236052   5.900   3.348  13.599
 4854TIP3    H136053   5.816   3.369  13.554
 4854TIP3    H236054   5.873   3.341  13.691
 4855TIP3   OH236055   6.191   3.446  13.226
 4855TIP3    H136056   6.155   3.532  13.198
 4855TIP3    H236057   6.283   3.457  13.196
 4856TIP3   OH236058   6.623   3.589  13.518
 4856TIP3    H136059   6.639   3.554  13.609
 4856TIP3    H236060   6.712   3.620  13.491
 4857TIP3   OH236061   6.855   3.717  13.446
 4857TIP3    H136062   6.927   3.656  13.423
 4857TIP3    H236063   6.891   3.759  13.527
 4858TIP3   OH236064   5.934   3.772  13.227
 4858TIP3    H136065   5.860   3.820  13.186
 4858TIP3    H236066   5.900   3.751  13.315
 4859TIP3   OH236067   6.181   3.730  13.133
 4859TIP3    H136068   6.091   3.742  13.173
 4859TIP3    H236069   6.174   3.789  13.055
 4860TIP3   OH236070   6.651   3.721  13.050
 4860TIP3    H136071   6.605   3.776  12.985
 4860TIP3    H236072   6.665   3.784  13.124
 4861TIP3   OH236073   6.883   3.604  13.149
 4861TIP3    H136074   6.794   3.628  13.117
 4861TIP3    H236075   6.926   3.690  13.142
 4862TIP3   OH236076   7.138   3.764  13.176
 4862TIP3    H136077   7.127   3.858  13.153
 4862TIP3    H236078   7.162   3.724  13.090
 4863TIP3   OH236079   5.877   3.636  12.920
 4863TIP3    H136080   5.871   3.591  13.007
 4863TIP3    H236081   5.959   3.600  12.880
 4864TIP3   OH236082   6.087   3.507  12.785
 4864TIP3    H136083   6.068   3.414  12.807
 4864TIP3    H236084   6.172   3.523  12.832
 4865TIP3   OH236085   6.343   3.555  12.872
 4865TIP3    H136086   6.363   3.464  12.845
 4865TIP3    H236087   6.351   3.550  12.968
 4866TIP3   OH236088   6.693   2.121  12.787
 4866TIP3    H136089   6.625   2.056  12.813
 4866TIP3    H236090   6.749   2.069  12.727
 4867TIP3   OH236091   7.208   1.926  12.797
 4867TIP3    H136092   7.264   1.988  12.748
 4867TIP3    H236093   7.119   1.961  12.773
 4868TIP3   OH236094   5.929   1.984  12.570
 4868TIP3    H136095   5.849   1.962  12.518
 4868TIP3    H236096   5.977   1.899  12.566
 4869TIP3   OH236097   5.808   1.960  12.145
 4869TIP3    H136098   5.855   2.024  12.090
 4869TIP3    H236099   5.748   2.017  12.197
 4870TIP3   OH236100   6.379   1.976  12.549
 4870TIP3    H136101   6.469   2.013  12.544
 4870TIP3    H236102   6.372   1.955  12.642
 4871TIP3   OH236103   6.948   1.977  12.713
 4871TIP3    H136104   6.945   1.989  12.617
 4871TIP3    H236105   6.910   1.887  12.726
 4872TIP3   OH236106   7.070   1.977  12.276
 4872TIP3    H136107   6.999   2.042  12.265
 4872TIP3    H236108   7.026   1.894  12.302
 4873TIP3   OH236109   5.799   3.555  12.243
 4873TIP3    H136110   5.731   3.554  12.173
 4873TIP3    H236111   5.798   3.649  12.264
 4874TIP3   OH236112   5.991   2.154  11.994
 4874TIP3    H136113   6.044   2.091  11.941
 4874TIP3    H236114   6.057   2.185  12.058
 4875TIP3   OH236115   6.494   2.179  12.235
 4875TIP3    H136116   6.517   2.120  12.309
 4875TIP3    H236117   6.497   2.265  12.283
 4876TIP3   OH236118   6.685   3.683  12.080
 4876TIP3    H136119   6.775   3.711  12.058
 4876TIP3    H236120   6.663   3.634  11.998
 4877TIP3   OH236121   5.919   2.037  13.517
 4877TIP3    H136122   5.882   1.958  13.560
 4877TIP3    H236123   6.011   2.035  13.552
 4878TIP3   OH236124   6.119   1.974  13.678
 4878TIP3    H136125   6.209   1.941  13.657
 4878TIP3    H236126   6.081   1.895  13.720
 4879TIP3   OH236127   5.979   3.652  11.940
 4879TIP3    H136128   5.953   3.678  12.030
 4879TIP3    H236129   6.057   3.595  11.956
 4880TIP3   OH236130   6.959   1.906  13.693
 4880TIP3    H136131   6.968   1.859  13.779
 4880TIP3    H236132   7.050   1.902  13.658
 4881TIP3   OH236133   7.272   3.505  13.568
 4881TIP3    H136134   7.199   3.493  13.504
 4881TIP3    H236135   7.267   3.603  13.581
 4882TIP3   OH236136   1.180   4.783  12.559
 4882TIP3    H136137   1.182   4.881  12.552
 4882TIP3    H236138   1.110   4.759  12.497
 4883TIP3   OH236139   1.068   4.710  12.907
 4883TIP3    H136140   1.066   4.644  12.978
 4883TIP3    H236141   1.035   4.660  12.831
 4884TIP3   OH236142   0.306   4.674  13.061
 4884TIP3    H136143   0.312   4.607  13.133
 4884TIP3    H236144   0.378   4.734  13.085
 4885TIP3   OH236145   1.438   5.004  12.735
 4885TIP3    H136146   1.395   4.932  12.783
 4885TIP3    H236147   1.439   5.075  12.802
 4886TIP3   OH236148   0.394   5.120  12.916
 4886TIP3    H136149   0.362   5.035  12.881
 4886TIP3    H236150   0.490   5.101  12.920
 4887TIP3   OH236151   0.079   4.479  12.438
 4887TIP3    H136152   0.025   4.559  12.461
 4887TIP3    H236153   0.007   4.424  12.415
 4888TIP3   OH236154   0.129   4.697  12.671
 4888TIP3    H136155   0.154   4.619  12.724
 4888TIP3    H236156   0.203   4.708  12.611
 4889TIP3   OH236157   1.149   5.518  12.759
 4889TIP3    H136158   1.213   5.448  12.731
 4889TIP3    H236159   1.129   5.488  12.847
 4890TIP3   OH236160   0.905   4.950  12.951
 4890TIP3    H136161   0.939   4.885  12.888
 4890TIP3    H236162   0.984   4.965  13.006
 4891TIP3   OH236163   1.768   4.113  13.029
 4891TIP3    H136164   1.782   4.174  13.104
 4891TIP3    H236165   1.821   4.158  12.961
 4892TIP3   OH236166   1.222   4.396  12.984
 4892TIP3    H136167   1.237   4.299  12.984
 4892TIP3    H236168   1.212   4.411  12.888
 4893TIP3   OH236169   0.536   4.203  12.708
 4893TIP3    H136170   0.543   4.288  12.661
 4893TIP3    H236171   0.493   4.147  12.640
 4894TIP3   OH236172   1.307   4.213  12.545
 4894TIP3    H136173   1.374   4.182  12.611
 4894TIP3    H236174   1.363   4.269  12.489
 4895TIP3   OH236175   0.199   4.443  12.775
 4895TIP3    H136176   0.265   4.390  12.824
 4895TIP3    H236177   0.208   4.411  12.686
 4896TIP3   OH236178   0.713   4.600  12.710
 4896TIP3    H136179   0.778   4.543  12.753
 4896TIP3    H236180   0.659   4.534  12.663
 4897TIP3   OH236181   1.811   4.257  13.254
 4897TIP3    H136182   1.747   4.330  13.245
 4897TIP3    H236183   1.814   4.245  13.350
 4898TIP3   OH236184   0.423   4.094  13.112
 4898TIP3    H136185   0.396   4.150  13.036
 4898TIP3    H236186   0.354   4.117  13.179
 4899TIP3   OH236187   1.154   5.043  12.466
 4899TIP3    H136188   1.125   5.013  12.380
 4899TIP3    H236189   1.122   5.136  12.472
 4900TIP3   OH236190   0.677   4.859  13.138
 4900TIP3    H136191   0.604   4.922  13.156
 4900TIP3    H236192   0.747   4.919  13.108
 4901TIP3   OH236193   1.487   4.147  12.744
 4901TIP3    H136194   1.466   4.070  12.797
 4901TIP3    H236195   1.554   4.191  12.798
 4902TIP3   OH236196   0.378   4.278  12.913
 4902TIP3    H136197   0.440   4.348  12.946
 4902TIP3    H236198   0.433   4.238  12.841
 4903TIP3   OH236199   0.519   5.058  13.217
 4903TIP3    H136200   0.514   5.149  13.184
 4903TIP3    H236201   0.430   5.050  13.261
 4904TIP3   OH236202   0.128   5.025  12.295
 4904TIP3    H136203   0.103   5.053  12.206
 4904TIP3    H236204   0.134   5.107  12.347
 4905TIP3   OH236205   1.490   5.187  12.972
 4905TIP3    H136206   1.393   5.197  12.985
 4905TIP3    H236207   1.517   5.279  12.954
 4906TIP3   OH236208   1.522   4.016  13.112
 4906TIP3    H136209   1.448   4.079  13.105
 4906TIP3    H236210   1.592   4.058  13.059
 4907TIP3   OH236211   0.820   3.827  12.858
 4907TIP3    H136212   0.807   3.730  12.852
 4907TIP3    H236213   0.732   3.858  12.888
 4908TIP3   OH236214   1.315   5.365  12.633
 4908TIP3    H136215   1.359   5.294  12.582
 4908TIP3    H236216   1.354   5.445  12.591
 4909TIP3   OH236217   1.435   5.158  12.483
 4909TIP3    H136218   1.406   5.088  12.423
 4909TIP3    H236219   1.439   5.110  12.568
 4910TIP3   OH236220   1.599   5.016  13.333
 4910TIP3    H136221   1.614   4.953  13.259
 4910TIP3    H236222   1.618   5.102  13.291
 4911TIP3   OH236223   1.048   4.707  12.310
 4911TIP3    H136224   0.978   4.763  12.273
 4911TIP3    H236225   1.118   4.716  12.243
 4912TIP3   OH236226   1.054   4.560  12.011
 4912TIP3    H136227   1.125   4.559  12.077
 4912TIP3    H236228   1.086   4.492  11.951
 4913TIP3   OH236229   1.786   4.647  13.138
 4913TIP3    H136230   1.720   4.719  13.143
 4913TIP3    H236231   1.834   4.671  13.056
 4914TIP3   OH236232   1.392   4.729  12.401
 4914TIP3    H136233   1.317   4.752  12.462
 4914TIP3    H236234   1.437   4.659  12.452
 4915TIP3   OH236235   1.384   4.545  13.312
 4915TIP3    H136236   1.386   4.625  13.366
 4915TIP3    H236237   1.321   4.575  13.244
 4916TIP3   OH236238   0.555   4.795  12.593
 4916TIP3    H136239   0.520   4.755  12.510
 4916TIP3    H236240   0.615   4.724  12.626
 4917TIP3   OH236241   0.687   5.134  12.861
 4917TIP3    H136242   0.684   5.079  12.782
 4917TIP3    H236243   0.764   5.097  12.907
 4918TIP3   OH236244   0.588   4.669  12.958
 4918TIP3    H136245   0.644   4.680  12.878
 4918TIP3    H236246   0.624   4.735  13.020
 4919TIP3   OH236247   1.226   5.225  13.028
 4919TIP3    H136248   1.198   5.288  13.095
 4919TIP3    H236249   1.202   5.139  13.072
 4920TIP3   OH236250   0.681   5.110  13.428
 4920TIP3    H136251   0.643   5.187  13.476
 4920TIP3    H236252   0.613   5.092  13.358
 4921TIP3   OH236253   1.278   4.647  12.169
 4921TIP3    H136254   1.335   4.664  12.248
 4921TIP3    H236255   1.322   4.696  12.097
 4922TIP3   OH236256   0.376   4.728  13.349
 4922TIP3    H136257   0.379   4.797  13.418
 4922TIP3    H236258   0.283   4.738  13.320
 4923TIP3   OH236259   1.050   5.320  12.515
 4923TIP3    H136260   1.095   5.350  12.595
 4923TIP3    H236261   0.994   5.395  12.492
 4924TIP3   OH236262   0.506   5.315  13.503
 4924TIP3    H136263   0.499   5.304  13.407
 4924TIP3    H236264   0.412   5.304  13.530
 4925TIP3   OH236265   1.649   3.818  12.151
 4925TIP3    H136266   1.557   3.835  12.184
 4925TIP3    H236267   1.672   3.906  12.116
 4926TIP3   OH236268   0.452   4.697  12.354
 4926TIP3    H136269   0.423   4.775  12.303
 4926TIP3    H236270   0.385   4.632  12.333
 4927TIP3   OH236271   1.764   5.257  11.991
 4927TIP3    H136272   1.775   5.352  12.010
 4927TIP3    H236273   1.855   5.224  11.991
 4928TIP3   OH236274   0.098   4.930  13.221
 4928TIP3    H136275   0.024   4.934  13.157
 4928TIP3    H236276   0.070   4.846  13.263
 4929TIP3   OH236277   0.047   5.223  12.909
 4929TIP3    H136278   0.138   5.198  12.922
 4929TIP3    H236279   0.030   5.290  12.976
 4930TIP3   OH236280   1.859   5.283  13.490
 4930TIP3    H136281   1.849   5.186  13.487
 4930TIP3    H236282   1.772   5.307  13.529
 4931TIP3   OH236283   0.955   5.237  13.376
 4931TIP3    H136284   0.962   5.321  13.427
 4931TIP3    H236285   0.868   5.202  13.402
 4932TIP3   OH236286   0.999   5.612  12.357
 4932TIP3    H136287   0.988   5.603  12.261
 4932TIP3    H236288   0.999   5.708  12.371
 4933TIP3   OH236289   0.363   5.499  12.536
 4933TIP3    H136290   0.377   5.457  12.624
 4933TIP3    H236291   0.279   5.457  12.512
 4934TIP3   OH236292   1.305   5.533  12.055
 4934TIP3    H136293   1.348   5.456  12.011
 4934TIP3    H236294   1.308   5.505  12.149
 4935TIP3   OH236295   1.274   5.525  12.332
 4935TIP3    H136296   1.178   5.533  12.350
 4935TIP3    H236297   1.299   5.452  12.390
 4936TIP3   OH236298   1.573   4.430  13.538
 4936TIP3    H136299   1.528   4.476  13.465
 4936TIP3    H236300   1.574   4.338  13.507
 4937TIP3   OH236301   0.288   5.073  13.338
 4937TIP3    H136302   0.306   5.034  13.426
 4937TIP3    H236303   0.202   5.032  13.314
 4938TIP3   OH236304   0.555   3.917  12.934
 4938TIP3    H136305   0.465   3.907  12.896
 4938TIP3    H236306   0.544   4.001  12.981
 4939TIP3   OH236307   1.019   3.886  13.271
 4939TIP3    H136308   1.059   3.844  13.349
 4939TIP3    H236309   0.922   3.872  13.285
 4940TIP3   OH236310   1.349   4.267  13.359
 4940TIP3    H136311   1.294   4.248  13.439
 4940TIP3    H236312   1.331   4.360  13.335
 4941TIP3   OH236313   1.423   4.751  11.943
 4941TIP3    H136314   1.425   4.730  11.847
 4941TIP3    H236315   1.510   4.793  11.954
 4942TIP3   OH236316   0.984   4.141  12.000
 4942TIP3    H136317   0.953   4.137  12.093
 4942TIP3    H236318   0.953   4.053  11.971
 4943TIP3   OH236319   0.564   4.413  13.054
 4943TIP3    H136320   0.492   4.412  13.121
 4943TIP3    H236321   0.560   4.506  13.022
 4944TIP3   OH236322   0.561   4.430  12.543
 4944TIP3    H136323   0.468   4.401  12.531
 4944TIP3    H236324   0.601   4.397  12.460
 4945TIP3   OH236325   1.113   4.476  12.422
 4945TIP3    H136326   1.073   4.559  12.387
 4945TIP3    H236327   1.183   4.461  12.356
 4946TIP3   OH236328   1.021   4.497  13.566
 4946TIP3    H136329   0.966   4.421  13.598
 4946TIP3    H236330   1.104   4.484  13.614
 4947TIP3   OH236331   1.216   4.424  12.705
 4947TIP3    H136332   1.190   4.481  12.630
 4947TIP3    H236333   1.228   4.340  12.658
 4948TIP3   OH236334   0.332   4.441  13.229
 4948TIP3    H136335   0.332   4.482  13.317
 4948TIP3    H236336   0.283   4.359  13.245
 4949TIP3   OH236337   0.667   4.181  11.912
 4949TIP3    H136338   0.623   4.137  11.987
 4949TIP3    H236339   0.596   4.221  11.862
 4950TIP3   OH236340   0.012   4.169  12.612
 4950TIP3    H136341   0.061   4.147  12.694
 4950TIP3    H236342   0.044   4.108  12.545
 4951TIP3   OH236343   0.119   4.231  12.157
 4951TIP3    H136344   0.172   4.290  12.101
 4951TIP3    H236345   0.049   4.288  12.188
 4952TIP3   OH236346   1.138   4.585  13.164
 4952TIP3    H136347   1.174   4.517  13.103
 4952TIP3    H236348   1.092   4.531  13.231
 4953TIP3   OH236349   0.817   4.180  12.645
 4953TIP3    H136350   0.723   4.183  12.675
 4953TIP3    H236351   0.866   4.168  12.728
 4954TIP3   OH236352   0.303   4.339  12.529
 4954TIP3    H136353   0.212   4.352  12.494
 4954TIP3    H236354   0.327   4.253  12.491
 4955TIP3   OH236355   0.663   4.341  12.294
 4955TIP3    H136356   0.759   4.353  12.312
 4955TIP3    H236357   0.640   4.409  12.229
 4956TIP3   OH236358   1.258   4.104  12.970
 4956TIP3    H136359   1.189   4.112  13.040
 4956TIP3    H236360   1.207   4.082  12.891
 4957TIP3   OH236361   0.534   4.459  12.052
 4957TIP3    H136362   0.479   4.422  11.981
 4957TIP3    H236363   0.616   4.479  12.006
 4958TIP3   OH236364   1.580   5.669  13.602
 4958TIP3    H136365   1.605   5.709  13.517
 4958TIP3    H236366   1.651   5.702  13.659
 4959TIP3   OH236367   0.347   4.915  13.557
 4959TIP3    H136368   0.418   4.941  13.618
 4959TIP3    H236369   0.269   4.931  13.616
 4960TIP3   OH236370   0.946   4.457  12.835
 4960TIP3    H136371   1.005   4.403  12.781
 4960TIP3    H236372   0.932   4.403  12.913
 4961TIP3   OH236373   0.447   4.072  12.478
 4961TIP3    H136374   0.416   3.980  12.475
 4961TIP3    H236375   0.527   4.067  12.423
 4962TIP3   OH236376   0.810   4.291  13.076
 4962TIP3    H136377   0.727   4.342  13.086
 4962TIP3    H236378   0.864   4.325  13.150
 4963TIP3   OH236379   0.869   4.914  12.245
 4963TIP3    H136380   0.789   4.866  12.212
 4963TIP3    H236381   0.848   4.923  12.340
 4964TIP3   OH236382   1.585   4.831  13.126
 4964TIP3    H136383   1.643   4.879  13.065
 4964TIP3    H236384   1.499   4.839  13.078
 4965TIP3   OH236385   1.252   4.195  12.063
 4965TIP3    H136386   1.157   4.209  12.050
 4965TIP3    H236387   1.285   4.281  12.097
 4966TIP3   OH236388   1.017   4.937  13.369
 4966TIP3    H136389   0.983   4.897  13.449
 4966TIP3    H236390   0.994   5.030  13.379
 4967TIP3   OH236391   1.325   4.385  12.228
 4967TIP3    H136392   1.415   4.372  12.265
 4967TIP3    H236393   1.334   4.467  12.175
 4968TIP3   OH236394   0.380   4.851  12.824
 4968TIP3    H136395   0.450   4.844  12.757
 4968TIP3    H236396   0.386   4.765  12.870
 4969TIP3   OH236397   1.079   5.060  12.148
 4969TIP3    H136398   1.045   5.144  12.185
 4969TIP3    H236399   1.005   4.999  12.169
 4970TIP3   OH236400   0.101   4.672  13.329
 4970TIP3    H136401   0.108   4.649  13.423
 4970TIP3    H236402   0.017   4.630  13.307
 4971TIP3   OH236403   0.780   4.648  13.572
 4971TIP3    H136404   0.749   4.621  13.484
 4971TIP3    H236405   0.873   4.618  13.571
 4972TIP3   OH236406   1.246   5.181  13.363
 4972TIP3    H136407   1.154   5.200  13.340
 4972TIP3    H236408   1.245   5.210  13.457
 4973TIP3   OH236409   1.814   4.400  12.205
 4973TIP3    H136410   1.760   4.370  12.130
 4973TIP3    H236411   1.825   4.494  12.175
 4974TIP3   OH236412   1.813   4.986  13.485
 4974TIP3    H136413   1.725   5.008  13.448
 4974TIP3    H236414   1.869   4.982  13.405
 4975TIP3   OH236415   1.645   5.283  12.244
 4975TIP3    H136416   1.607   5.201  12.278
 4975TIP3    H236417   1.672   5.262  12.154
 4976TIP3   OH236418   1.364   4.765  12.953
 4976TIP3    H136419   1.269   4.742  12.944
 4976TIP3    H236420   1.407   4.687  12.912
 4977TIP3   OH236421   0.616   5.197  12.564
 4977TIP3    H136422   0.667   5.277  12.543
 4977TIP3    H236423   0.528   5.221  12.531
 4978TIP3   OH236424   0.187   4.681  12.024
 4978TIP3    H136425   0.252   4.747  12.060
 4978TIP3    H236426   0.103   4.716  12.051
 4979TIP3   OH236427   0.759   4.964  12.516
 4979TIP3    H136428   0.729   5.056  12.525
 4979TIP3    H236429   0.685   4.916  12.560
 4980TIP3   OH236430   0.805   5.381  13.155
 4980TIP3    H136431   0.848   5.464  13.128
 4980TIP3    H236432   0.864   5.349  13.225
 4981TIP3   OH236433   0.626   5.464  12.470
 4981TIP3    H136434   0.529   5.477  12.481
 4981TIP3    H236435   0.662   5.548  12.505
 4982TIP3   OH236436   1.159   4.985  13.120
 4982TIP3    H136437   1.122   4.964  13.208
 4982TIP3    H236438   1.221   4.912  13.102
 4983TIP3   OH236439   1.387   5.088  12.028
 4983TIP3    H136440   1.417   5.042  12.109
 4983TIP3    H236441   1.291   5.071  12.037
 4984TIP3   OH236442   1.435   5.441  13.369
 4984TIP3    H136443   1.368   5.390  13.319
 4984TIP3    H236444   1.456   5.511  13.303
 4985TIP3   OH236445   1.838   5.525  12.051
 4985TIP3    H136446   1.905   5.594  12.034
 4985TIP3    H236447   1.765   5.585  12.081
 4986TIP3   OH236448   0.243   4.166  13.304
 4986TIP3    H136449   0.153   4.201  13.306
 4986TIP3    H236450   0.231   4.081  13.352
 4987TIP3   OH236451   1.468   4.952  12.250
 4987TIP3    H136452   1.444   4.875  12.306
 4987TIP3    H236453   1.562   4.958  12.271
 4988TIP3   OH236454   0.209   5.348  13.148
 4988TIP3    H136455   0.230   5.254  13.150
 4988TIP3    H236456   0.230   5.373  13.238
 4989TIP3   OH236457   0.799   5.196  11.875
 4989TIP3    H136458   0.814   5.119  11.818
 4989TIP3    H236459   0.761   5.153  11.955
 4990TIP3   OH236460   0.682   5.149  12.121
 4990TIP3    H136461   0.704   5.098  12.199
 4990TIP3    H236462   0.686   5.242  12.153
 4991TIP3   OH236463   0.331   4.873  12.169
 4991TIP3    H136464   0.263   4.913  12.227
 4991TIP3    H236465   0.384   4.951  12.143
 4992TIP3   OH236466   1.116   4.143  13.201
 4992TIP3    H136467   1.187   4.149  13.266
 4992TIP3    H236468   1.078   4.055  13.219
 4993TIP3   OH236469   1.192   4.101  12.310
 4993TIP3    H136470   1.215   4.150  12.228
 4993TIP3    H236471   1.249   4.145  12.375
 4994TIP3   OH236472   0.960   5.317  12.193
 4994TIP3    H136473   0.878   5.370  12.199
 4994TIP3    H236474   1.013   5.370  12.132
 4995TIP3   OH236475   0.914   4.277  12.392
 4995TIP3    H136476   0.994   4.333  12.397
 4995TIP3    H236477   0.888   4.264  12.485
 4996TIP3   OH236478   0.969   4.378  13.311
 4996TIP3    H136479   0.977   4.435  13.390
 4996TIP3    H236480   1.035   4.308  13.322
 4997TIP3   OH236481   1.000   3.983  12.483
 4997TIP3    H136482   0.967   4.048  12.548
 4997TIP3    H236483   1.068   4.037  12.437
 4998TIP3   OH236484   0.698   5.421  12.194
 4998TIP3    H136485   0.709   5.503  12.140
 4998TIP3    H236486   0.673   5.456  12.282
 4999TIP3   OH236487   0.566   4.092  12.153
 4999TIP3    H136488   0.560   4.182  12.190
 4999TIP3    H236489   0.657   4.067  12.179
 5000TIP3   OH236490   1.588   4.166  13.396
 5000TIP3    H136491   1.495   4.196  13.384
 5000TIP3    H236492   1.618   4.165  13.304
 5001TIP3   OH236493   1.448   4.544  12.799
 5001TIP3    H136494   1.366   4.500  12.770
 5001TIP3    H236495   1.495   4.474  12.851
 5002TIP3   OH236496   0.389   5.135  12.059
 5002TIP3    H136497   0.454   5.202  12.087
 5002TIP3    H236498   0.441   5.090  11.989
 5003TIP3   OH236499   0.229   4.403  11.968
 5003TIP3    H136500   0.224   4.497  11.992
 5003TIP3    H236501   0.137   4.383  11.944
 5004TIP3   OH236502   1.555   5.468  12.965
 5004TIP3    H136503   1.544   5.537  12.897
 5004TIP3    H236504   1.651   5.476  12.983
 5005TIP3   OH236505   0.303   3.882  12.842
 5005TIP3    H136506   0.284   3.884  12.746
 5005TIP3    H236507   0.261   3.798  12.870
 5006TIP3   OH236508   0.202   5.274  12.459
 5006TIP3    H136509   0.117   5.318  12.456
 5006TIP3    H236510   0.250   5.324  12.392
 5007TIP3   OH236511   0.135   5.539  13.587
 5007TIP3    H136512   0.185   5.514  13.666
 5007TIP3    H236513   0.081   5.458  13.572
 5008TIP3   OH236514   0.589   5.430  13.750
 5008TIP3    H136515   0.665   5.381  13.783
 5008TIP3    H236516   0.585   5.403  13.656
 5009TIP3   OH236517   1.000   5.382  11.889
 5009TIP3    H136518   0.932   5.316  11.915
 5009TIP3    H236519   1.073   5.323  11.865
 5010TIP3   OH236520   1.241   5.268  13.623
 5010TIP3    H136521   1.209   5.180  13.650
 5010TIP3    H236522   1.317   5.280  13.684
 5011TIP3   OH236523   1.457   5.358  11.909
 5011TIP3    H136524   1.487   5.279  11.958
 5011TIP3    H236525   1.532   5.381  11.853
 5012TIP3   OH236526   0.126   4.917  13.683
 5012TIP3    H136527   0.131   4.823  13.657
 5012TIP3    H236528   0.042   4.945  13.642
 5013TIP3   OH236529   0.547   4.951  11.892
 5013TIP3    H136530   0.560   4.873  11.949
 5013TIP3    H236531   0.620   4.939  11.828
 5014TIP3   OH236532   0.784   4.915  13.627
 5014TIP3    H136533   0.750   4.944  13.540
 5014TIP3    H236534   0.794   4.818  13.617
 5015TIP3   OH236535   1.089   5.060  11.868
 5015TIP3    H136536   1.061   5.071  11.961
 5015TIP3    H236537   1.069   4.965  11.855
 5016TIP3   OH236538   1.354   4.902  13.365
 5016TIP3    H136539   1.432   4.962  13.357
 5016TIP3    H236540   1.282   4.967  13.370
 5017TIP3   OH236541   0.198   4.637  13.624
 5017TIP3    H136542   0.245   4.552  13.616
 5017TIP3    H236543   0.181   4.639  13.720
 5018TIP3   OH236544   0.667   4.752  12.131
 5018TIP3    H136545   0.618   4.699  12.196
 5018TIP3    H236546   0.695   4.683  12.065
 5019TIP3   OH236547   0.594   4.535  13.363
 5019TIP3    H136548   0.533   4.605  13.389
 5019TIP3    H236549   0.632   4.571  13.280
 5020TIP3   OH236550   0.774   4.574  11.953
 5020TIP3    H136551   0.758   4.563  11.857
 5020TIP3    H236552   0.871   4.581  11.959
 5021TIP3   OH236553   1.100   4.789  13.694
 5021TIP3    H136554   1.196   4.791  13.685
 5021TIP3    H236555   1.083   4.713  13.752
 5022TIP3   OH236556   1.708   4.807  11.896
 5022TIP3    H136557   1.687   4.768  11.811
 5022TIP3    H236558   1.715   4.903  11.875
 5023TIP3   OH236559   0.634   4.272  13.469
 5023TIP3    H136560   0.645   4.200  13.405
 5023TIP3    H236561   0.628   4.352  13.414
 5024TIP3   OH236562   0.674   4.110  13.222
 5024TIP3    H136563   0.725   4.156  13.152
 5024TIP3    H236564   0.585   4.101  13.180
 5025TIP3   OH236565   0.829   4.656  13.247
 5025TIP3    H136566   0.904   4.640  13.189
 5025TIP3    H236567   0.793   4.741  13.215
 5026TIP3   OH236568   1.269   4.435  13.744
 5026TIP3    H136569   1.291   4.341  13.735
 5026TIP3    H236570   1.356   4.478  13.746
 5027TIP3   OH236571   1.401   4.712  13.558
 5027TIP3    H136572   1.376   4.786  13.497
 5027TIP3    H236573   1.497   4.709  13.540
 5028TIP3   OH236574   0.477   4.397  13.659
 5028TIP3    H136575   0.401   4.338  13.642
 5028TIP3    H236576   0.545   4.360  13.599
 5029TIP3   OH236577   0.753   3.854  13.263
 5029TIP3    H136578   0.738   3.950  13.252
 5029TIP3    H236579   0.678   3.818  13.213
 5030TIP3   OH236580   0.880   4.286  13.623
 5030TIP3    H136581   0.850   4.264  13.713
 5030TIP3    H236582   0.801   4.266  13.570
 5031TIP3   OH236583   1.152   4.200  13.530
 5031TIP3    H136584   1.055   4.205  13.543
 5031TIP3    H236585   1.180   4.137  13.598
 5032TIP3   OH236586   1.312   4.063  13.725
 5032TIP3    H136587   1.305   3.966  13.727
 5032TIP3    H236588   1.284   4.092  13.814
 5033TIP3   OH236589   0.295   4.188  13.634
 5033TIP3    H136590   0.315   4.115  13.573
 5033TIP3    H236591   0.282   4.142  13.719
 5034TIP3   OH236592   0.774   3.790  13.532
 5034TIP3    H136593   0.844   3.721  13.529
 5034TIP3    H236594   0.764   3.809  13.437
 5035TIP3   OH236595   0.811   3.954  13.741
 5035TIP3    H136596   0.794   3.904  13.657
 5035TIP3    H236597   0.750   4.030  13.732
 5036TIP3   OH236598   0.760   5.643  12.059
 5036TIP3    H136599   0.856   5.656  12.067
 5036TIP3    H236600   0.741   5.707  11.989
 5037TIP3   OH236601   0.122   5.107  12.013
 5037TIP3    H136602   0.219   5.114  12.028
 5037TIP3    H236603   0.121   5.041  11.939
 5038TIP3   OH236604   7.353   5.650  12.498
 5038TIP3    H136605   7.271   5.617  12.457
 5038TIP3    H236606   7.370   5.582  12.567
 5039TIP3   OH236607   0.069   5.457  12.686
 5039TIP3    H136608   0.040   5.366  12.709
 5039TIP3    H236609   0.097   5.487  12.775
 5040TIP3   OH236610   1.827   5.534  12.986
 5040TIP3    H136611   1.829   5.551  13.081
 5040TIP3    H236612   1.897   5.592  12.954
 5041TIP3   OH236613   1.784   5.494  13.280
 5041TIP3    H136614   1.737   5.416  13.242
 5041TIP3    H236615   1.836   5.449  13.350
 5042TIP3   OH236616   1.629   5.067  13.745
 5042TIP3    H136617   1.539   5.062  13.783
 5042TIP3    H236618   1.666   5.146  13.788
 5043TIP3   OH236619   1.760   4.898  12.291
 5043TIP3    H136620   1.846   4.937  12.309
 5043TIP3    H236621   1.759   4.824  12.356
 5044TIP3   OH236622   1.797   4.705  12.477
 5044TIP3    H136623   1.723   4.654  12.517
 5044TIP3    H236624   1.857   4.720  12.553
 5045TIP3   OH236625   1.773   4.976  12.976
 5045TIP3    H136626   1.855   4.939  12.940
 5045TIP3    H236627   1.787   5.072  12.960
 5046TIP3   OH236628   1.627   5.266  13.204
 5046TIP3    H136629   1.558   5.300  13.264
 5046TIP3    H236630   1.572   5.225  13.134
 5047TIP3   OH236631   1.819   4.686  12.121
 5047TIP3    H136632   1.772   4.725  12.044
 5047TIP3    H236633   1.819   4.760  12.184
 5048TIP3   OH236634   1.663   4.413  11.969
 5048TIP3    H136635   1.672   4.480  11.901
 5048TIP3    H236636   1.646   4.330  11.920
 5049TIP3   OH236637   1.578   4.553  12.534
 5049TIP3    H136638   1.563   4.458  12.532
 5049TIP3    H236639   1.544   4.577  12.622
 5050TIP3   OH236640   0.078   4.761  12.938
 5050TIP3    H136641   0.097   4.755  12.842
 5050TIP3    H236642   0.166   4.747  12.977
 5051TIP3   OH236643   1.663   4.750  13.502
 5051TIP3    H136644   1.724   4.675  13.517
 5051TIP3    H236645   1.723   4.828  13.504
 5052TIP3   OH236646   1.814   4.540  13.568
 5052TIP3    H136647   1.726   4.499  13.552
 5052TIP3    H236648   1.872   4.462  13.560
 5053TIP3   OH236649   1.588   4.156  11.881
 5053TIP3    H136650   1.647   4.117  11.948
 5053TIP3    H236651   1.501   4.116  11.901
 5054TIP3   OH236652   1.545   4.312  12.378
 5054TIP3    H136653   1.576   4.220  12.393
 5054TIP3    H236654   1.626   4.352  12.344
 5055TIP3   OH236655   1.609   4.366  12.924
 5055TIP3    H136656   1.705   4.390  12.923
 5055TIP3    H236657   1.589   4.380  13.018
 5056TIP3   OH236658   1.616   4.439  13.203
 5056TIP3    H136659   1.528   4.468  13.236
 5056TIP3    H236660   1.658   4.525  13.181
 5057TIP3   OH236661   0.058   4.283  13.555
 5057TIP3    H136662   0.148   4.265  13.580
 5057TIP3    H236663   0.000   4.211  13.589
 5058TIP3   OH236664   1.842   3.843  13.738
 5058TIP3    H136665   1.877   3.778  13.675
 5058TIP3    H236666   1.855   3.925  13.687
 5059TIP3   OH236667   1.612   4.040  12.385
 5059TIP3    H136668   1.632   3.995  12.470
 5059TIP3    H236669   1.551   3.978  12.341
 5060TIP3   OH236670   0.158   4.117  12.843
 5060TIP3    H136671   0.210   4.038  12.868
 5060TIP3    H236672   0.211   4.189  12.882
 5061TIP3   OH236673   0.064   4.465  12.983
 5061TIP3    H136674   0.059   4.430  12.891
 5061TIP3    H236675   0.034   4.553  12.964
 5062TIP3   OH236676   1.795   4.054  13.573
 5062TIP3    H136677   1.701   4.080  13.567
 5062TIP3    H236678   1.800   3.999  13.493
 5063TIP3   OH236679   1.794   4.043  12.040
 5063TIP3    H136680   1.839   3.974  11.989
 5063TIP3    H236681   1.864   4.111  12.046
 5064TIP3   OH236682   0.064   4.047  12.326
 5064TIP3    H136683  -0.032   4.067  12.329
 5064TIP3    H236684   0.090   4.112  12.261
 5065TIP3   OH236685   1.500   5.542  12.546
 5065TIP3    H136686   1.568   5.510  12.485
 5065TIP3    H236687   1.552   5.592  12.611
 5066TIP3   OH236688   7.377   3.912  13.192
 5066TIP3    H136689   7.302   3.891  13.249
 5066TIP3    H236690   7.325   3.970  13.133
 5067TIP3   OH236691   0.244   5.235  13.601
 5067TIP3    H136692   0.161   5.253  13.555
 5067TIP3    H236693   0.215   5.225  13.692
 5068TIP3   OH236694   0.535   5.334  13.227
 5068TIP3    H136695   0.496   5.417  13.198
 5068TIP3    H236696   0.627   5.343  13.194
 5069TIP3   OH236697   0.966   5.475  13.518
 5069TIP3    H136698   0.982   5.440  13.608
 5069TIP3    H236699   1.055   5.505  13.491
 5070TIP3   OH236700   1.196   5.602  13.446
 5070TIP3    H136701   1.269   5.542  13.423
 5070TIP3    H236702   1.234   5.644  13.527
 5071TIP3   OH236703   1.696   3.863  13.357
 5071TIP3    H136704   1.613   3.893  13.316
 5071TIP3    H236705   1.714   3.783  13.303
 5072TIP3   OH236706   0.278   5.658  13.229
 5072TIP3    H136707   0.203   5.704  13.187
 5072TIP3    H236708   0.241   5.636  13.316
 5073TIP3   OH236709   0.524   5.616  13.133
 5073TIP3    H136710   0.435   5.629  13.173
 5073TIP3    H236711   0.518   5.674  13.055
 5074TIP3   OH236712   0.994   5.606  13.050
 5074TIP3    H136713   0.948   5.661  12.985
 5074TIP3    H236714   1.008   5.670  13.124
 5075TIP3   OH236715   1.225   5.490  13.149
 5075TIP3    H136716   1.137   5.514  13.117
 5075TIP3    H236717   1.270   5.575  13.141
 5076TIP3   OH236718   1.483   5.646  13.176
 5076TIP3    H136719   1.473   5.742  13.152
 5076TIP3    H236720   1.503   5.609  13.088
 5077TIP3   OH236721   0.218   5.522  12.919
 5077TIP3    H136722   0.216   5.479  13.007
 5077TIP3    H236723   0.300   5.485  12.880
 5078TIP3   OH236724   0.430   5.393  12.785
 5078TIP3    H136725   0.412   5.299  12.807
 5078TIP3    H236726   0.515   5.407  12.832
 5079TIP3   OH236727   0.688   5.441  12.872
 5079TIP3    H136728   0.706   5.349  12.845
 5079TIP3    H236729   0.694   5.435  12.969
 5080TIP3   OH236730   1.036   4.006  12.787
 5080TIP3    H136731   0.968   3.942  12.813
 5080TIP3    H236732   1.091   3.954  12.727
 5081TIP3   OH236733   1.549   3.813  12.795
 5081TIP3    H136734   1.611   3.871  12.744
 5081TIP3    H236735   1.462   3.848  12.771
 5082TIP3   OH236736   1.717   3.934  12.624
 5082TIP3    H136737   1.786   3.878  12.579
 5082TIP3    H236738   1.765   4.020  12.632
 5083TIP3   OH236739   0.270   3.868  12.572
 5083TIP3    H136740   0.194   3.846  12.515
 5083TIP3    H236741   0.322   3.786  12.565
 5084TIP3   OH236742   0.189   3.855  12.158
 5084TIP3    H136743   0.204   3.915  12.084
 5084TIP3    H236744   0.106   3.891  12.197
 5085TIP3   OH236745   0.722   3.862  12.549
 5085TIP3    H136746   0.812   3.899  12.544
 5085TIP3    H236747   0.716   3.840  12.642
 5086TIP3   OH236748   1.289   3.864  12.713
 5086TIP3    H136749   1.288   3.874  12.618
 5086TIP3    H236750   1.253   3.773  12.726
 5087TIP3   OH236751   1.419   3.866  12.279
 5087TIP3    H136752   1.345   3.928  12.265
 5087TIP3    H236753   1.373   3.782  12.302
 5088TIP3   OH236754   0.154   5.447  12.236
 5088TIP3    H136755   0.076   5.440  12.178
 5088TIP3    H236756   0.142   5.539  12.265
 5089TIP3   OH236757   0.335   4.041  11.992
 5089TIP3    H136758   0.388   3.977  11.941
 5089TIP3    H236759   0.399   4.069  12.059
 5090TIP3   OH236760   0.837   4.065  12.235
 5090TIP3    H136761   0.860   4.006  12.309
 5090TIP3    H236762   0.840   4.151  12.283
 5091TIP3   OH236763   1.028   5.568  12.080
 5091TIP3    H136764   1.119   5.596  12.058
 5091TIP3    H236765   1.006   5.519  11.998
 5092TIP3   OH236766   1.702   5.521  12.349
 5092TIP3    H136767   1.678   5.443  12.293
 5092TIP3    H236768   1.692   5.596  12.287
 5093TIP3   OH236769   0.258   3.926  13.521
 5093TIP3    H136770   0.225   3.843  13.559
 5093TIP3    H236771   0.352   3.921  13.552
 5094TIP3   OH236772   0.462   3.860  13.678
 5094TIP3    H136773   0.551   3.827  13.657
 5094TIP3    H236774   0.423   3.781  13.720
 5095TIP3   OH236775   0.321   5.536  11.939
 5095TIP3    H136776   0.296   5.564  12.029
 5095TIP3    H236777   0.400   5.482  11.957
 5096TIP3   OH236778   1.302   3.791  13.694
 5096TIP3    H136779   1.312   3.744  13.779
 5096TIP3    H236780   1.394   3.788  13.660
 5097TIP3   OH236781   1.623   5.395  13.560
 5097TIP3    H136782   1.542   5.380  13.506
 5097TIP3    H236783   1.612   5.490  13.581
 5098TIP3   OH236784   3.066   4.783  12.559
 5098TIP3    H136785   3.068   4.881  12.553
 5098TIP3    H236786   2.995   4.759  12.497
 5099TIP3   OH236787   2.953   4.710  12.907
 5099TIP3    H136788   2.951   4.644  12.978
 5099TIP3    H236789   2.920   4.660  12.831
 5100TIP3   OH236790   2.189   4.675  13.063
 5100TIP3    H136791   2.197   4.608  13.134
 5100TIP3    H236792   2.263   4.733  13.084
 5101TIP3   OH236793   3.324   5.004  12.735
 5101TIP3    H136794   3.281   4.932  12.784
 5101TIP3    H236795   3.325   5.075  12.802
 5102TIP3   OH236796   2.282   5.120  12.915
 5102TIP3    H136797   2.249   5.034  12.881
 5102TIP3    H236798   2.377   5.101  12.920
 5103TIP3   OH236799   1.946   4.478  12.461
 5103TIP3    H136800   1.901   4.565  12.455
 5103TIP3    H236801   1.889   4.424  12.405
 5104TIP3   OH236802   2.016   4.699  12.674
 5104TIP3    H136803   2.041   4.618  12.722
 5104TIP3    H236804   2.088   4.709  12.610
 5105TIP3   OH236805   3.034   5.518  12.759
 5105TIP3    H136806   3.099   5.448  12.731
 5105TIP3    H236807   3.014   5.488  12.847
 5106TIP3   OH236808   2.791   4.950  12.951
 5106TIP3    H136809   2.825   4.885  12.888
 5106TIP3    H236810   2.870   4.965  13.006
 5107TIP3   OH236811   3.655   4.113  13.030
 5107TIP3    H136812   3.667   4.175  13.104
 5107TIP3    H236813   3.705   4.158  12.960
 5108TIP3   OH236814   3.107   4.396  12.984
 5108TIP3    H136815   3.123   4.299  12.984
 5108TIP3    H236816   3.097   4.411  12.888
 5109TIP3   OH236817   2.420   4.204  12.708
 5109TIP3    H136818   2.429   4.288  12.660
 5109TIP3    H236819   2.378   4.147  12.640
 5110TIP3   OH236820   3.193   4.213  12.545
 5110TIP3    H136821   3.259   4.182  12.611
 5110TIP3    H236822   3.249   4.269  12.489
 5111TIP3   OH236823   2.082   4.445  12.782
 5111TIP3    H136824   2.149   4.389  12.826
 5111TIP3    H236825   2.091   4.414  12.690
 5112TIP3   OH236826   2.598   4.600  12.711
 5112TIP3    H136827   2.664   4.543  12.753
 5112TIP3    H236828   2.545   4.534  12.663
 5113TIP3   OH236829   3.699   4.259  13.255
 5113TIP3    H136830   3.632   4.330  13.243
 5113TIP3    H236831   3.695   4.245  13.350
 5114TIP3   OH236832   2.308   4.094  13.112
 5114TIP3    H136833   2.281   4.150  13.037
 5114TIP3    H236834   2.240   4.118  13.179
 5115TIP3   OH236835   3.040   5.043  12.467
 5115TIP3    H136836   3.012   5.014  12.379
 5115TIP3    H236837   3.008   5.136  12.472
 5116TIP3   OH236838   2.562   4.859  13.138
 5116TIP3    H136839   2.490   4.923  13.156
 5116TIP3    H236840   2.632   4.919  13.108
 5117TIP3   OH236841   3.372   4.146  12.744
 5117TIP3    H136842   3.351   4.069  12.797
 5117TIP3    H236843   3.440   4.191  12.798
 5118TIP3   OH236844   2.264   4.281  12.913
 5118TIP3    H136845   2.328   4.348  12.946
 5118TIP3    H236846   2.317   4.238  12.841
 5119TIP3   OH236847   2.405   5.058  13.219
 5119TIP3    H136848   2.401   5.149  13.184
 5119TIP3    H236849   2.317   5.051  13.263
 5120TIP3   OH236850   2.015   5.022  12.297
 5120TIP3    H136851   1.987   5.052  12.210
 5120TIP3    H236852   2.020   5.106  12.348
 5121TIP3   OH236853   3.376   5.187  12.972
 5121TIP3    H136854   3.279   5.197  12.985
 5121TIP3    H236855   3.403   5.280  12.954
 5122TIP3   OH236856   3.407   4.016  13.112
 5122TIP3    H136857   3.334   4.079  13.105
 5122TIP3    H236858   3.478   4.058  13.059
 5123TIP3   OH236859   2.706   3.827  12.858
 5123TIP3    H136860   2.692   3.730  12.852
 5123TIP3    H236861   2.618   3.858  12.888
 5124TIP3   OH236862   3.201   5.366  12.632
 5124TIP3    H136863   3.244   5.294  12.582
 5124TIP3    H236864   3.239   5.446  12.590
 5125TIP3   OH236865   3.321   5.158  12.483
 5125TIP3    H136866   3.292   5.088  12.423
 5125TIP3    H236867   3.325   5.110  12.568
 5126TIP3   OH236868   3.485   5.016  13.333
 5126TIP3    H136869   3.499   4.953  13.259
 5126TIP3    H236870   3.503   5.102  13.291
 5127TIP3   OH236871   2.934   4.707  12.310
 5127TIP3    H136872   2.863   4.763  12.273
 5127TIP3    H236873   3.004   4.716  12.243
 5128TIP3   OH236874   2.939   4.561  12.011
 5128TIP3    H136875   3.010   4.559  12.077
 5128TIP3    H236876   2.971   4.492  11.951
 5129TIP3   OH236877   3.671   4.648  13.138
 5129TIP3    H136878   3.605   4.720  13.143
 5129TIP3    H236879   3.719   4.671  13.056
 5130TIP3   OH236880   3.277   4.729  12.402
 5130TIP3    H136881   3.202   4.752  12.462
 5130TIP3    H236882   3.323   4.659  12.452
 5131TIP3   OH236883   3.270   4.545  13.312
 5131TIP3    H136884   3.271   4.625  13.367
 5131TIP3    H236885   3.206   4.575  13.244
 5132TIP3   OH236886   2.439   4.794  12.593
 5132TIP3    H136887   2.406   4.755  12.508
 5132TIP3    H236888   2.500   4.725  12.626
 5133TIP3   OH236889   2.572   5.134  12.861
 5133TIP3    H136890   2.569   5.079  12.782
 5133TIP3    H236891   2.649   5.097  12.907
 5134TIP3   OH236892   2.473   4.668  12.958
 5134TIP3    H136893   2.529   4.680  12.879
 5134TIP3    H236894   2.510   4.735  13.020
 5135TIP3   OH236895   3.111   5.225  13.028
 5135TIP3    H136896   3.084   5.288  13.095
 5135TIP3    H236897   3.087   5.139  13.072
 5136TIP3   OH236898   2.567   5.111  13.428
 5136TIP3    H136899   2.528   5.187  13.476
 5136TIP3    H236900   2.499   5.092  13.358
 5137TIP3   OH236901   3.164   4.647  12.169
 5137TIP3    H136902   3.221   4.664  12.248
 5137TIP3    H236903   3.208   4.696  12.097
 5138TIP3   OH236904   2.260   4.728  13.346
 5138TIP3    H136905   2.264   4.794  13.417
 5138TIP3    H236906   2.167   4.738  13.321
 5139TIP3   OH236907   2.934   5.318  12.517
 5139TIP3    H136908   2.981   5.351  12.594
 5139TIP3    H236909   2.881   5.395  12.491
 5140TIP3   OH236910   2.391   5.316  13.504
 5140TIP3    H136911   2.387   5.304  13.407
 5140TIP3    H236912   2.297   5.303  13.529
 5141TIP3   OH236913   3.536   3.820  12.156
 5141TIP3    H136914   3.442   3.834  12.182
 5141TIP3    H236915   3.558   3.905  12.113
 5142TIP3   OH236916   2.335   4.698  12.357
 5142TIP3    H136917   2.308   4.774  12.301
 5142TIP3    H236918   2.272   4.631  12.331
 5143TIP3   OH236919   3.649   5.256  11.993
 5143TIP3    H136920   3.663   5.351  12.009
 5143TIP3    H236921   3.742   5.227  11.990
 5144TIP3   OH236922   1.946   4.939  13.240
 5144TIP3    H136923   1.899   4.931  13.155
 5144TIP3    H236924   1.951   4.844  13.264
 5145TIP3   OH236925   1.921   5.213  12.921
 5145TIP3    H136926   2.017   5.201  12.920
 5145TIP3    H236927   1.913   5.294  12.973
 5146TIP3   OH236928   3.745   5.283  13.490
 5146TIP3    H136929   3.734   5.187  13.486
 5146TIP3    H236930   3.658   5.307  13.529
 5147TIP3   OH236931   2.841   5.237  13.376
 5147TIP3    H136932   2.848   5.321  13.427
 5147TIP3    H236933   2.753   5.202  13.402
 5148TIP3   OH236934   2.873   5.610  12.363
 5148TIP3    H136935   2.878   5.604  12.265
 5148TIP3    H236936   2.889   5.706  12.369
 5149TIP3   OH236937   2.248   5.498  12.538
 5149TIP3    H136938   2.263   5.457  12.626
 5149TIP3    H236939   2.163   5.458  12.515
 5150TIP3   OH236940   3.199   5.526  12.050
 5150TIP3    H136941   3.237   5.447  12.009
 5150TIP3    H236942   3.192   5.507  12.147
 5151TIP3   OH236943   3.163   5.520  12.334
 5151TIP3    H136944   3.067   5.535  12.348
 5151TIP3    H236945   3.183   5.448  12.394
 5152TIP3   OH236946   3.459   4.430  13.538
 5152TIP3    H136947   3.413   4.476  13.466
 5152TIP3    H236948   3.458   4.339  13.507
 5153TIP3   OH236949   2.173   5.070  13.337
 5153TIP3    H136950   2.195   5.033  13.426
 5153TIP3    H236951   2.086   5.030  13.316
 5154TIP3   OH236952   2.440   3.917  12.934
 5154TIP3    H136953   2.350   3.906  12.896
 5154TIP3    H236954   2.429   4.001  12.980
 5155TIP3   OH236955   2.904   3.886  13.271
 5155TIP3    H136956   2.944   3.844  13.349
 5155TIP3    H236957   2.807   3.872  13.285
 5156TIP3   OH236958   3.235   4.267  13.359
 5156TIP3    H136959   3.179   4.248  13.439
 5156TIP3    H236960   3.217   4.360  13.335
 5157TIP3   OH236961   3.310   4.751  11.943
 5157TIP3    H136962   3.312   4.730  11.846
 5157TIP3    H236963   3.396   4.793  11.952
 5158TIP3   OH236964   2.873   4.140  12.000
 5158TIP3    H136965   2.839   4.138  12.092
 5158TIP3    H236966   2.838   4.053  11.972
 5159TIP3   OH236967   2.450   4.413  13.054
 5159TIP3    H136968   2.378   4.412  13.120
 5159TIP3    H236969   2.447   4.506  13.021
 5160TIP3   OH236970   2.446   4.430  12.543
 5160TIP3    H136971   2.354   4.401  12.531
 5160TIP3    H236972   2.486   4.397  12.460
 5161TIP3   OH236973   2.999   4.476  12.422
 5161TIP3    H136974   2.959   4.559  12.387
 5161TIP3    H236975   3.068   4.461  12.356
 5162TIP3   OH236976   2.906   4.497  13.566
 5162TIP3    H136977   2.852   4.421  13.598
 5162TIP3    H236978   2.990   4.484  13.614
 5163TIP3   OH236979   3.101   4.424  12.705
 5163TIP3    H136980   3.076   4.481  12.630
 5163TIP3    H236981   3.114   4.340  12.658
 5164TIP3   OH236982   2.215   4.442  13.228
 5164TIP3    H136983   2.219   4.482  13.317
 5164TIP3    H236984   2.169   4.358  13.246
 5165TIP3   OH236985   2.554   4.177  11.910
 5165TIP3    H136986   2.508   4.139  11.988
 5165TIP3    H236987   2.482   4.223  11.863
 5166TIP3   OH236988   1.879   4.153  12.622
 5166TIP3    H136989   1.946   4.149  12.693
 5166TIP3    H236990   1.925   4.113  12.546
 5167TIP3   OH236991   2.004   4.219  12.172
 5167TIP3    H136992   2.052   4.278  12.108
 5167TIP3    H236993   1.936   4.285  12.194
 5168TIP3   OH236994   3.023   4.585  13.164
 5168TIP3    H136995   3.059   4.518  13.103
 5168TIP3    H236996   2.978   4.531  13.231
 5169TIP3   OH236997   2.702   4.180  12.645
 5169TIP3    H136998   2.609   4.183  12.675
 5169TIP3    H236999   2.752   4.168  12.728
 5170TIP3   OH237000   2.184   4.338  12.531
 5170TIP3    H137001   2.095   4.352  12.493
 5170TIP3    H237002   2.213   4.254  12.492
 5171TIP3   OH237003   2.550   4.341  12.299
 5171TIP3    H137004   2.645   4.354  12.311
 5171TIP3    H237005   2.524   4.406  12.228
 5172TIP3   OH237006   3.143   4.104  12.970
 5172TIP3    H137007   3.074   4.112  13.040
 5172TIP3    H237008   3.093   4.082  12.891
 5173TIP3   OH237009   2.449   4.429  12.067
 5173TIP3    H137010   2.373   4.427  12.001
 5173TIP3    H237011   2.504   4.482  12.007
 5174TIP3   OH237012   3.465   5.670  13.602
 5174TIP3    H137013   3.492   5.709  13.516
 5174TIP3    H237014   3.536   5.702  13.658
 5175TIP3   OH237015   2.232   4.916  13.559
 5175TIP3    H137016   2.303   4.941  13.619
 5175TIP3    H237017   2.153   4.929  13.617
 5176TIP3   OH237018   2.832   4.457  12.835
 5176TIP3    H137019   2.891   4.403  12.781
 5176TIP3    H237020   2.818   4.403  12.913
 5177TIP3   OH237021   2.333   4.072  12.478
 5177TIP3    H137022   2.302   3.979  12.475
 5177TIP3    H237023   2.412   4.067  12.422
 5178TIP3   OH237024   2.696   4.291  13.076
 5178TIP3    H137025   2.612   4.342  13.086
 5178TIP3    H237026   2.750   4.325  13.150
 5179TIP3   OH237027   2.754   4.914  12.245
 5179TIP3    H137028   2.674   4.865  12.212
 5179TIP3    H237029   2.734   4.923  12.340
 5180TIP3   OH237030   3.470   4.831  13.126
 5180TIP3    H137031   3.529   4.879  13.065
 5180TIP3    H237032   3.385   4.839  13.078
 5181TIP3   OH237033   3.138   4.195  12.062
 5181TIP3    H137034   3.042   4.210  12.052
 5181TIP3    H237035   3.171   4.281  12.098
 5182TIP3   OH237036   2.903   4.937  13.369
 5182TIP3    H137037   2.869   4.897  13.449
 5182TIP3    H237038   2.880   5.030  13.379
 5183TIP3   OH237039   3.211   4.385  12.228
 5183TIP3    H137040   3.301   4.372  12.265
 5183TIP3    H237041   3.220   4.467  12.176
 5184TIP3   OH237042   2.264   4.850  12.825
 5184TIP3    H137043   2.335   4.844  12.758
 5184TIP3    H237044   2.271   4.765  12.871
 5185TIP3   OH237045   2.965   5.060  12.148
 5185TIP3    H137046   2.931   5.144  12.185
 5185TIP3    H237047   2.891   4.999  12.169
 5186TIP3   OH237048   1.964   4.693  13.352
 5186TIP3    H137049   1.983   4.649  13.437
 5186TIP3    H237050   1.902   4.630  13.309
 5187TIP3   OH237051   2.665   4.648  13.572
 5187TIP3    H137052   2.635   4.621  13.484
 5187TIP3    H237053   2.758   4.618  13.571
 5188TIP3   OH237054   3.132   5.181  13.363
 5188TIP3    H137055   3.039   5.200  13.340
 5188TIP3    H237056   3.130   5.210  13.457
 5189TIP3   OH237057   3.702   4.401  12.203
 5189TIP3    H137058   3.644   4.369  12.131
 5189TIP3    H237059   3.709   4.495  12.175
 5190TIP3   OH237060   3.699   4.986  13.485
 5190TIP3    H137061   3.610   5.008  13.448
 5190TIP3    H237062   3.755   4.982  13.405
 5191TIP3   OH237063   3.528   5.283  12.244
 5191TIP3    H137064   3.493   5.200  12.278
 5191TIP3    H237065   3.560   5.263  12.155
 5192TIP3   OH237066   3.249   4.765  12.953
 5192TIP3    H137067   3.155   4.742  12.944
 5192TIP3    H237068   3.293   4.688  12.912
 5193TIP3   OH237069   2.501   5.196  12.564
 5193TIP3    H137070   2.552   5.276  12.543
 5193TIP3    H237071   2.413   5.221  12.531
 5194TIP3   OH237072   2.055   4.703  12.028
 5194TIP3    H137073   2.133   4.750  12.064
 5194TIP3    H237074   1.972   4.730  12.061
 5195TIP3   OH237075   2.644   4.964  12.516
 5195TIP3    H137076   2.615   5.056  12.525
 5195TIP3    H237077   2.571   4.916  12.560
 5196TIP3   OH237078   2.690   5.381  13.155
 5196TIP3    H137079   2.733   5.464  13.128
 5196TIP3    H237080   2.750   5.349  13.225
 5197TIP3   OH237081   2.512   5.464  12.470
 5197TIP3    H137082   2.415   5.477  12.481
 5197TIP3    H237083   2.547   5.548  12.506
 5198TIP3   OH237084   3.044   4.985  13.120
 5198TIP3    H137085   3.008   4.964  13.208
 5198TIP3    H237086   3.106   4.912  13.102
 5199TIP3   OH237087   3.273   5.087  12.027
 5199TIP3    H137088   3.304   5.042  12.108
 5199TIP3    H237089   3.178   5.071  12.037
 5200TIP3   OH237090   3.321   5.442  13.369
 5200TIP3    H137091   3.254   5.390  13.319
 5200TIP3    H237092   3.343   5.511  13.302
 5201TIP3   OH237093   3.721   5.525  12.052
 5201TIP3    H137094   3.791   5.591  12.033
 5201TIP3    H237095   3.650   5.587  12.082
 5202TIP3   OH237096   2.129   4.167  13.307
 5202TIP3    H137097   2.038   4.201  13.304
 5202TIP3    H237098   2.117   4.081  13.352
 5203TIP3   OH237099   3.353   4.952  12.251
 5203TIP3    H137100   3.329   4.874  12.306
 5203TIP3    H237101   3.448   4.958  12.271
 5204TIP3   OH237102   2.091   5.346  13.150
 5204TIP3    H137103   2.118   5.253  13.150
 5204TIP3    H237104   2.117   5.374  13.239
 5205TIP3   OH237105   2.685   5.196  11.875
 5205TIP3    H137106   2.700   5.119  11.819
 5205TIP3    H237107   2.648   5.153  11.955
 5206TIP3   OH237108   2.565   5.150  12.121
 5206TIP3    H137109   2.590   5.098  12.198
 5206TIP3    H237110   2.575   5.242  12.153
 5207TIP3   OH237111   2.220   4.876  12.172
 5207TIP3    H137112   2.148   4.912  12.227
 5207TIP3    H237113   2.272   4.952  12.144
 5208TIP3   OH237114   3.001   4.143  13.201
 5208TIP3    H137115   3.072   4.149  13.266
 5208TIP3    H237116   2.963   4.055  13.219
 5209TIP3   OH237117   3.078   4.102  12.310
 5209TIP3    H137118   3.101   4.150  12.228
 5209TIP3    H237119   3.135   4.145  12.375
 5210TIP3   OH237120   2.844   5.313  12.192
 5210TIP3    H137121   2.765   5.370  12.199
 5210TIP3    H237122   2.898   5.371  12.134
 5211TIP3   OH237123   2.800   4.277  12.392
 5211TIP3    H137124   2.879   4.333  12.397
 5211TIP3    H237125   2.774   4.264  12.485
 5212TIP3   OH237126   2.854   4.378  13.311
 5212TIP3    H137127   2.863   4.435  13.390
 5212TIP3    H237128   2.920   4.308  13.322
 5213TIP3   OH237129   2.885   3.983  12.483
 5213TIP3    H137130   2.853   4.048  12.548
 5213TIP3    H237131   2.954   4.037  12.437
 5214TIP3   OH237132   2.578   5.420  12.193
 5214TIP3    H137133   2.598   5.502  12.141
 5214TIP3    H237134   2.561   5.456  12.282
 5215TIP3   OH237135   2.451   4.090  12.154
 5215TIP3    H137136   2.445   4.183  12.188
 5215TIP3    H237137   2.543   4.068  12.179
 5216TIP3   OH237138   3.476   4.166  13.396
 5216TIP3    H137139   3.381   4.195  13.385
 5216TIP3    H237140   3.503   4.165  13.303
 5217TIP3   OH237141   3.334   4.544  12.799
 5217TIP3    H137142   3.252   4.500  12.770
 5217TIP3    H237143   3.381   4.474  12.851
 5218TIP3   OH237144   2.272   5.143  12.053
 5218TIP3    H137145   2.343   5.199  12.090
 5218TIP3    H237146   2.327   5.088  11.991
 5219TIP3   OH237147   2.067   4.372  11.987
 5219TIP3    H137148   2.098   4.465  11.996
 5219TIP3    H237149   2.000   4.381  11.922
 5220TIP3   OH237150   3.440   5.468  12.965
 5220TIP3    H137151   3.431   5.539  12.898
 5220TIP3    H237152   3.536   5.474  12.983
 5221TIP3   OH237153   2.191   3.882  12.843
 5221TIP3    H137154   2.169   3.885  12.747
 5221TIP3    H237155   2.147   3.798  12.870
 5222TIP3   OH237156   2.084   5.273  12.456
 5222TIP3    H137157   2.001   5.321  12.457
 5222TIP3    H237158   2.136   5.324  12.393
 5223TIP3   OH237159   2.008   5.539  13.588
 5223TIP3    H137160   2.067   5.517  13.663
 5223TIP3    H237161   1.965   5.453  13.570
 5224TIP3   OH237162   2.473   5.430  13.750
 5224TIP3    H137163   2.550   5.381  13.783
 5224TIP3    H237164   2.471   5.404  13.656
 5225TIP3   OH237165   2.883   5.378  11.879
 5225TIP3    H137166   2.819   5.315  11.916
 5225TIP3    H237167   2.960   5.322  11.866
 5226TIP3   OH237168   3.127   5.268  13.623
 5226TIP3    H137169   3.094   5.180  13.650
 5226TIP3    H237170   3.202   5.280  13.684
 5227TIP3   OH237171   3.343   5.356  11.907
 5227TIP3    H137172   3.373   5.279  11.958
 5227TIP3    H237173   3.419   5.381  11.853
 5228TIP3   OH237174   2.000   4.917  13.687
 5228TIP3    H137175   2.016   4.826  13.656
 5228TIP3    H237176   1.924   4.943  13.632
 5229TIP3   OH237177   2.434   4.955  11.893
 5229TIP3    H137178   2.444   4.874  11.947
 5229TIP3    H237179   2.505   4.938  11.828
 5230TIP3   OH237180   2.669   4.915  13.627
 5230TIP3    H137181   2.635   4.944  13.540
 5230TIP3    H237182   2.679   4.818  13.617
 5231TIP3   OH237183   2.975   5.060  11.868
 5231TIP3    H137184   2.947   5.071  11.961
 5231TIP3    H237185   2.954   4.964  11.855
 5232TIP3   OH237186   3.240   4.902  13.365
 5232TIP3    H137187   3.317   4.962  13.357
 5232TIP3    H237188   3.168   4.967  13.370
 5233TIP3   OH237189   2.089   4.639  13.626
 5233TIP3    H137190   2.129   4.552  13.616
 5233TIP3    H237191   2.064   4.639  13.721
 5234TIP3   OH237192   2.554   4.752  12.132
 5234TIP3    H137193   2.503   4.698  12.194
 5234TIP3    H237194   2.580   4.684  12.065
 5235TIP3   OH237195   2.480   4.535  13.362
 5235TIP3    H137196   2.419   4.606  13.389
 5235TIP3    H237197   2.517   4.571  13.280
 5236TIP3   OH237198   2.659   4.575  11.953
 5236TIP3    H137199   2.642   4.563  11.857
 5236TIP3    H237200   2.756   4.581  11.959
 5237TIP3   OH237201   2.986   4.789  13.694
 5237TIP3    H137202   3.082   4.791  13.685
 5237TIP3    H237203   2.969   4.713  13.752
 5238TIP3   OH237204   3.597   4.809  11.902
 5238TIP3    H137205   3.574   4.768  11.815
 5238TIP3    H237206   3.603   4.903  11.875
 5239TIP3   OH237207   2.519   4.272  13.469
 5239TIP3    H137208   2.531   4.200  13.405
 5239TIP3    H237209   2.515   4.352  13.413
 5240TIP3   OH237210   2.559   4.110  13.222
 5240TIP3    H137211   2.611   4.156  13.152
 5240TIP3    H237212   2.471   4.101  13.180
 5241TIP3   OH237213   2.714   4.656  13.247
 5241TIP3    H137214   2.790   4.640  13.189
 5241TIP3    H237215   2.679   4.741  13.215
 5242TIP3   OH237216   3.154   4.435  13.745
 5242TIP3    H137217   3.177   4.341  13.735
 5242TIP3    H237218   3.241   4.478  13.746
 5243TIP3   OH237219   3.287   4.713  13.558
 5243TIP3    H137220   3.262   4.786  13.497
 5243TIP3    H237221   3.383   4.710  13.540
 5244TIP3   OH237222   2.365   4.396  13.661
 5244TIP3    H137223   2.288   4.339  13.642
 5244TIP3    H237224   2.431   4.360  13.599
 5245TIP3   OH237225   2.639   3.854  13.263
 5245TIP3    H137226   2.623   3.950  13.252
 5245TIP3    H237227   2.563   3.818  13.213
 5246TIP3   OH237228   2.766   4.286  13.622
 5246TIP3    H137229   2.736   4.264  13.713
 5246TIP3    H237230   2.686   4.266  13.570
 5247TIP3   OH237231   3.037   4.200  13.530
 5247TIP3    H137232   2.941   4.205  13.543
 5247TIP3    H237233   3.065   4.137  13.598
 5248TIP3   OH237234   3.197   4.063  13.725
 5248TIP3    H137235   3.190   3.966  13.727
 5248TIP3    H237236   3.169   4.092  13.814
 5249TIP3   OH237237   2.175   4.189  13.634
 5249TIP3    H137238   2.200   4.116  13.574
 5249TIP3    H237239   2.167   4.143  13.720
 5250TIP3   OH237240   2.660   3.790  13.532
 5250TIP3    H137241   2.729   3.721  13.529
 5250TIP3    H237242   2.649   3.809  13.437
 5251TIP3   OH237243   2.696   3.954  13.741
 5251TIP3    H137244   2.680   3.904  13.657
 5251TIP3    H237245   2.636   4.030  13.732
 5252TIP3   OH237246   2.644   5.644  12.059
 5252TIP3    H137247   2.741   5.655  12.068
 5252TIP3    H237248   2.628   5.708  11.989
 5253TIP3   OH237249   2.006   5.113  11.998
 5253TIP3    H137250   2.099   5.105  12.029
 5253TIP3    H237251   2.005   5.035  11.935
 5254TIP3   OH237252   1.876   5.642  12.505
 5254TIP3    H137253   1.805   5.594  12.457
 5254TIP3    H237254   1.905   5.576  12.570
 5255TIP3   OH237255   1.959   5.454  12.690
 5255TIP3    H137256   1.924   5.366  12.710
 5255TIP3    H237257   1.981   5.487  12.779
 5256TIP3   OH237258   3.727   5.458  12.985
 5256TIP3    H137259   3.708   5.521  13.059
 5256TIP3    H237260   3.769   5.537  12.943
 5257TIP3   OH237261   3.668   5.493  13.283
 5257TIP3    H137262   3.623   5.417  13.241
 5257TIP3    H237263   3.723   5.448  13.349
 5258TIP3   OH237264   3.514   5.067  13.745
 5258TIP3    H137265   3.425   5.062  13.783
 5258TIP3    H237266   3.552   5.146  13.788
 5259TIP3   OH237267   3.645   4.898  12.291
 5259TIP3    H137268   3.732   4.938  12.308
 5259TIP3    H237269   3.645   4.824  12.357
 5260TIP3   OH237270   3.683   4.705  12.478
 5260TIP3    H137271   3.608   4.654  12.518
 5260TIP3    H237272   3.742   4.720  12.553
 5261TIP3   OH237273   3.658   4.977  12.976
 5261TIP3    H137274   3.741   4.940  12.940
 5261TIP3    H237275   3.673   5.073  12.960
 5262TIP3   OH237276   3.512   5.265  13.205
 5262TIP3    H137277   3.444   5.301  13.263
 5262TIP3    H237278   3.458   5.226  13.133
 5263TIP3   OH237279   3.713   4.689  12.117
 5263TIP3    H137280   3.657   4.725  12.045
 5263TIP3    H237281   3.704   4.759  12.183
 5264TIP3   OH237282   3.549   4.413  11.969
 5264TIP3    H137283   3.556   4.480  11.900
 5264TIP3    H237284   3.532   4.331  11.921
 5265TIP3   OH237285   3.464   4.553  12.534
 5265TIP3    H137286   3.449   4.458  12.532
 5265TIP3    H237287   3.429   4.577  12.622
 5266TIP3   OH237288   1.965   4.762  12.939
 5266TIP3    H137289   1.984   4.753  12.843
 5266TIP3    H237290   2.054   4.746  12.976
 5267TIP3   OH237291   3.549   4.750  13.502
 5267TIP3    H137292   3.610   4.675  13.517
 5267TIP3    H237293   3.609   4.828  13.504
 5268TIP3   OH237294   3.700   4.539  13.568
 5268TIP3    H137295   3.611   4.501  13.552
 5268TIP3    H237296   3.757   4.462  13.560
 5269TIP3   OH237297   3.472   4.156  11.881
 5269TIP3    H137298   3.533   4.117  11.947
 5269TIP3    H237299   3.387   4.115  11.904
 5270TIP3   OH237300   3.430   4.312  12.377
 5270TIP3    H137301   3.462   4.220  12.393
 5270TIP3    H237302   3.511   4.353  12.345
 5271TIP3   OH237303   3.495   4.366  12.925
 5271TIP3    H137304   3.591   4.389  12.924
 5271TIP3    H237305   3.475   4.380  13.018
 5272TIP3   OH237306   3.501   4.439  13.203
 5272TIP3    H137307   3.413   4.469  13.236
 5272TIP3    H237308   3.545   4.525  13.181
 5273TIP3   OH237309   1.925   4.291  13.554
 5273TIP3    H137310   2.019   4.273  13.574
 5273TIP3    H237311   1.881   4.210  13.586
 5274TIP3   OH237312   3.728   3.843  13.739
 5274TIP3    H137313   3.761   3.776  13.676
 5274TIP3    H237314   3.739   3.925  13.687
 5275TIP3   OH237315   3.498   4.040  12.385
 5275TIP3    H137316   3.517   3.995  12.470
 5275TIP3    H237317   3.437   3.977  12.340
 5276TIP3   OH237318   2.046   4.120  12.840
 5276TIP3    H137319   2.093   4.039  12.868
 5276TIP3    H237320   2.099   4.191  12.881
 5277TIP3   OH237321   1.875   4.420  12.945
 5277TIP3    H137322   1.930   4.397  12.868
 5277TIP3    H237323   1.919   4.502  12.972
 5278TIP3   OH237324   3.683   4.055  13.571
 5278TIP3    H137325   3.587   4.080  13.568
 5278TIP3    H237326   3.683   3.997  13.493
 5279TIP3   OH237327   3.680   4.044  12.041
 5279TIP3    H137328   3.722   3.972  11.988
 5279TIP3    H237329   3.750   4.111  12.045
 5280TIP3   OH237330   1.911   4.047  12.353
 5280TIP3    H137331   1.817   4.065  12.337
 5280TIP3    H237332   1.954   4.096  12.280
 5281TIP3   OH237333   3.385   5.542  12.548
 5281TIP3    H137334   3.452   5.511  12.484
 5281TIP3    H237335   3.438   5.592  12.612
 5282TIP3   OH237336   1.907   3.915  13.183
 5282TIP3    H137337   1.839   3.894  13.250
 5282TIP3    H237338   1.861   3.981  13.128
 5283TIP3   OH237339   2.129   5.234  13.598
 5283TIP3    H137340   2.045   5.254  13.554
 5283TIP3    H237341   2.102   5.227  13.691
 5284TIP3   OH237342   2.420   5.332  13.226
 5284TIP3    H137343   2.384   5.418  13.198
 5284TIP3    H237344   2.512   5.342  13.195
 5285TIP3   OH237345   2.852   5.475  13.518
 5285TIP3    H137346   2.868   5.440  13.609
 5285TIP3    H237347   2.941   5.505  13.491
 5286TIP3   OH237348   3.082   5.602  13.446
 5286TIP3    H137349   3.154   5.542  13.423
 5286TIP3    H237350   3.119   5.644  13.527
 5287TIP3   OH237351   3.583   3.865  13.356
 5287TIP3    H137352   3.498   3.893  13.316
 5287TIP3    H237353   3.599   3.783  13.304
 5288TIP3   OH237354   2.162   5.657  13.227
 5288TIP3    H137355   2.089   5.706  13.186
 5288TIP3    H237356   2.129   5.636  13.315
 5289TIP3   OH237357   2.410   5.615  13.133
 5289TIP3    H137358   2.320   5.628  13.173
 5289TIP3    H237359   2.403   5.674  13.055
 5290TIP3   OH237360   2.880   5.606  13.050
 5290TIP3    H137361   2.833   5.661  12.985
 5290TIP3    H237362   2.894   5.670  13.124
 5291TIP3   OH237363   3.110   5.489  13.149
 5291TIP3    H137364   3.023   5.514  13.117
 5291TIP3    H237365   3.155   5.575  13.141
 5292TIP3   OH237366   3.365   5.646  13.176
 5292TIP3    H137367   3.361   5.742  13.152
 5292TIP3    H237368   3.391   5.610  13.088
 5293TIP3   OH237369   2.106   5.522  12.920
 5293TIP3    H137370   2.100   5.477  13.007
 5293TIP3    H237371   2.188   5.486  12.880
 5294TIP3   OH237372   2.315   5.393  12.785
 5294TIP3    H137373   2.298   5.300  12.807
 5294TIP3    H237374   2.401   5.407  12.832
 5295TIP3   OH237375   2.574   5.441  12.872
 5295TIP3    H137376   2.592   5.349  12.845
 5295TIP3    H237377   2.579   5.435  12.969
 5296TIP3   OH237378   2.922   4.006  12.787
 5296TIP3    H137379   2.854   3.942  12.813
 5296TIP3    H237380   2.977   3.954  12.727
 5297TIP3   OH237381   3.435   3.813  12.795
 5297TIP3    H137382   3.497   3.871  12.744
 5297TIP3    H237383   3.347   3.848  12.771
 5298TIP3   OH237384   3.603   3.934  12.624
 5298TIP3    H137385   3.671   3.878  12.579
 5298TIP3    H237386   3.651   4.020  12.632
 5299TIP3   OH237387   2.157   3.870  12.570
 5299TIP3    H137388   2.078   3.847  12.518
 5299TIP3    H237389   2.206   3.785  12.566
 5300TIP3   OH237390   2.034   3.845  12.143
 5300TIP3    H137391   2.085   3.910  12.091
 5300TIP3    H237392   1.978   3.903  12.198
 5301TIP3   OH237393   2.608   3.861  12.549
 5301TIP3    H137394   2.698   3.899  12.544
 5301TIP3    H237395   2.601   3.840  12.642
 5302TIP3   OH237396   3.174   3.864  12.713
 5302TIP3    H137397   3.173   3.874  12.618
 5302TIP3    H237398   3.139   3.773  12.726
 5303TIP3   OH237399   3.304   3.867  12.282
 5303TIP3    H137400   3.230   3.927  12.264
 5303TIP3    H237401   3.259   3.782  12.301
 5304TIP3   OH237402   2.031   5.441  12.236
 5304TIP3    H137403   1.954   5.442  12.178
 5304TIP3    H237404   2.027   5.534  12.267
 5305TIP3   OH237405   2.219   4.037  11.995
 5305TIP3    H137406   2.273   3.978  11.940
 5305TIP3    H237407   2.285   4.072  12.058
 5306TIP3   OH237408   2.723   4.065  12.235
 5306TIP3    H137409   2.745   4.006  12.308
 5306TIP3    H237410   2.725   4.151  12.283
 5307TIP3   OH237411   2.896   5.541  12.070
 5307TIP3    H137412   2.983   5.590  12.063
 5307TIP3    H237413   2.888   5.511  11.979
 5308TIP3   OH237414   3.585   5.521  12.350
 5308TIP3    H137415   3.565   5.444  12.292
 5308TIP3    H237416   3.577   5.596  12.287
 5309TIP3   OH237417   2.147   3.923  13.517
 5309TIP3    H137418   2.111   3.843  13.560
 5309TIP3    H237419   2.239   3.920  13.553
 5310TIP3   OH237420   2.348   3.860  13.678
 5310TIP3    H137421   2.438   3.827  13.657
 5310TIP3    H237422   2.310   3.780  13.720
 5311TIP3   OH237423   2.204   5.530  11.942
 5311TIP3    H137424   2.185   5.570  12.030
 5311TIP3    H237425   2.291   5.486  11.957
 5312TIP3   OH237426   3.188   3.791  13.694
 5312TIP3    H137427   3.198   3.744  13.779
 5312TIP3    H237428   3.279   3.788  13.660
 5313TIP3   OH237429   3.509   5.395  13.560
 5313TIP3    H137430   3.428   5.380  13.506
 5313TIP3    H237431   3.498   5.490  13.581
 5314TIP3   OH237432   4.952   4.783  12.559
 5314TIP3    H137433   4.953   4.881  12.552
 5314TIP3    H237434   4.881   4.758  12.497
 5315TIP3   OH237435   4.839   4.710  12.907
 5315TIP3    H137436   4.837   4.644  12.978
 5315TIP3    H237437   4.806   4.660  12.831
 5316TIP3   OH237438   4.075   4.675  13.063
 5316TIP3    H137439   4.083   4.609  13.134
 5316TIP3    H237440   4.149   4.733  13.084
 5317TIP3   OH237441   5.209   5.003  12.735
 5317TIP3    H137442   5.166   4.932  12.783
 5317TIP3    H237443   5.210   5.075  12.802
 5318TIP3   OH237444   4.168   5.120  12.915
 5318TIP3    H137445   4.135   5.035  12.881
 5318TIP3    H237446   4.263   5.101  12.919
 5319TIP3   OH237447   3.832   4.478  12.461
 5319TIP3    H137448   3.787   4.565  12.455
 5319TIP3    H237449   3.774   4.424  12.405
 5320TIP3   OH237450   3.901   4.699  12.674
 5320TIP3    H137451   3.927   4.618  12.722
 5320TIP3    H237452   3.973   4.709  12.610
 5321TIP3   OH237453   4.917   5.517  12.757
 5321TIP3    H137454   4.985   5.449  12.731
 5321TIP3    H237455   4.901   5.488  12.847
 5322TIP3   OH237456   4.677   4.950  12.951
 5322TIP3    H137457   4.711   4.885  12.888
 5322TIP3    H237458   4.756   4.965  13.006
 5323TIP3   OH237459   5.539   4.113  13.029
 5323TIP3    H137460   5.553   4.174  13.104
 5323TIP3    H237461   5.592   4.158  12.961
 5324TIP3   OH237462   4.993   4.396  12.984
 5324TIP3    H137463   5.009   4.299  12.984
 5324TIP3    H237464   4.983   4.411  12.888
 5325TIP3   OH237465   4.306   4.201  12.707
 5325TIP3    H137466   4.315   4.288  12.662
 5325TIP3    H237467   4.263   4.150  12.636
 5326TIP3   OH237468   5.078   4.213  12.545
 5326TIP3    H137469   5.145   4.182  12.611
 5326TIP3    H237470   5.133   4.269  12.488
 5327TIP3   OH237471   3.967   4.446  12.782
 5327TIP3    H137472   4.035   4.391  12.826
 5327TIP3    H237473   3.976   4.414  12.690
 5328TIP3   OH237474   4.484   4.601  12.710
 5328TIP3    H137475   4.549   4.543  12.753
 5328TIP3    H237476   4.430   4.534  12.663
 5329TIP3   OH237477   5.582   4.257  13.255
 5329TIP3    H137478   5.518   4.330  13.245
 5329TIP3    H237479   5.585   4.245  13.351
 5330TIP3   OH237480   4.197   4.091  13.109
 5330TIP3    H137481   4.169   4.151  13.036
 5330TIP3    H237482   4.127   4.117  13.174
 5331TIP3   OH237483   4.926   5.042  12.467
 5331TIP3    H137484   4.897   5.013  12.379
 5331TIP3    H237485   4.894   5.135  12.472
 5332TIP3   OH237486   4.447   4.859  13.138
 5332TIP3    H137487   4.375   4.923  13.156
 5332TIP3    H237488   4.518   4.918  13.108
 5333TIP3   OH237489   5.258   4.147  12.744
 5333TIP3    H137490   5.237   4.070  12.797
 5333TIP3    H237491   5.325   4.191  12.798
 5334TIP3   OH237492   4.151   4.279  12.915
 5334TIP3    H137493   4.213   4.349  12.945
 5334TIP3    H237494   4.203   4.239  12.841
 5335TIP3   OH237495   4.291   5.058  13.219
 5335TIP3    H137496   4.287   5.149  13.184
 5335TIP3    H237497   4.202   5.051  13.263
 5336TIP3   OH237498   3.900   5.022  12.298
 5336TIP3    H137499   3.874   5.052  12.209
 5336TIP3    H237500   3.906   5.106  12.347
 5337TIP3   OH237501   5.261   5.187  12.972
 5337TIP3    H137502   5.165   5.197  12.985
 5337TIP3    H237503   5.288   5.279  12.954
 5338TIP3   OH237504   5.293   4.016  13.112
 5338TIP3    H137505   5.220   4.079  13.105
 5338TIP3    H237506   5.363   4.058  13.059
 5339TIP3   OH237507   4.588   3.827  12.854
 5339TIP3    H137508   4.580   3.730  12.853
 5339TIP3    H237509   4.505   3.858  12.892
 5340TIP3   OH237510   5.085   5.366  12.631
 5340TIP3    H137511   5.129   5.294  12.582
 5340TIP3    H237512   5.127   5.445  12.592
 5341TIP3   OH237513   5.206   5.158  12.483
 5341TIP3    H137514   5.177   5.088  12.423
 5341TIP3    H237515   5.211   5.109  12.568
 5342TIP3   OH237516   5.370   5.016  13.333
 5342TIP3    H137517   5.385   4.953  13.259
 5342TIP3    H237518   5.389   5.102  13.291
 5343TIP3   OH237519   4.819   4.707  12.310
 5343TIP3    H137520   4.749   4.763  12.273
 5343TIP3    H237521   4.889   4.716  12.243
 5344TIP3   OH237522   4.825   4.560  12.011
 5344TIP3    H137523   4.896   4.559  12.077
 5344TIP3    H237524   4.857   4.491  11.951
 5345TIP3   OH237525   5.558   4.647  13.138
 5345TIP3    H137526   5.491   4.719  13.143
 5345TIP3    H237527   5.605   4.671  13.056
 5346TIP3   OH237528   5.163   4.729  12.401
 5346TIP3    H137529   5.088   4.752  12.461
 5346TIP3    H237530   5.209   4.659  12.452
 5347TIP3   OH237531   5.155   4.544  13.312
 5347TIP3    H137532   5.157   4.626  13.366
 5347TIP3    H237533   5.092   4.575  13.244
 5348TIP3   OH237534   4.325   4.794  12.593
 5348TIP3    H137535   4.292   4.755  12.508
 5348TIP3    H237536   4.386   4.725  12.626
 5349TIP3   OH237537   4.458   5.134  12.861
 5349TIP3    H137538   4.455   5.079  12.782
 5349TIP3    H237539   4.535   5.097  12.907
 5350TIP3   OH237540   4.359   4.668  12.958
 5350TIP3    H137541   4.415   4.680  12.879
 5350TIP3    H237542   4.395   4.735  13.020
 5351TIP3   OH237543   4.998   5.224  13.029
 5351TIP3    H137544   4.969   5.288  13.095
 5351TIP3    H237545   4.973   5.139  13.072
 5352TIP3   OH237546   4.452   5.111  13.428
 5352TIP3    H137547   4.414   5.187  13.476
 5352TIP3    H237548   4.385   5.092  13.358
 5353TIP3   OH237549   5.049   4.647  12.169
 5353TIP3    H137550   5.106   4.664  12.248
 5353TIP3    H237551   5.093   4.696  12.097
 5354TIP3   OH237552   4.146   4.728  13.346
 5354TIP3    H137553   4.150   4.794  13.417
 5354TIP3    H237554   4.053   4.737  13.321
 5355TIP3   OH237555   4.821   5.320  12.515
 5355TIP3    H137556   4.867   5.349  12.595
 5355TIP3    H237557   4.766   5.394  12.492
 5356TIP3   OH237558   4.276   5.316  13.504
 5356TIP3    H137559   4.272   5.304  13.407
 5356TIP3    H237560   4.183   5.303  13.529
 5357TIP3   OH237561   5.422   3.820  12.156
 5357TIP3    H137562   5.328   3.834  12.182
 5357TIP3    H237563   5.443   3.905  12.113
 5358TIP3   OH237564   4.222   4.697  12.354
 5358TIP3    H137565   4.194   4.775  12.303
 5358TIP3    H237566   4.156   4.631  12.332
 5359TIP3   OH237567   5.534   5.256  11.992
 5359TIP3    H137568   5.549   5.351  12.009
 5359TIP3    H237569   5.627   5.227  11.990
 5360TIP3   OH237570   3.832   4.938  13.241
 5360TIP3    H137571   3.785   4.932  13.155
 5360TIP3    H237572   3.836   4.843  13.264
 5361TIP3   OH237573   3.808   5.209  12.922
 5361TIP3    H137574   3.904   5.202  12.920
 5361TIP3    H237575   3.795   5.294  12.970
 5362TIP3   OH237576   5.630   5.282  13.490
 5362TIP3    H137577   5.620   5.186  13.488
 5362TIP3    H237578   5.544   5.307  13.530
 5363TIP3   OH237579   4.726   5.237  13.376
 5363TIP3    H137580   4.733   5.321  13.427
 5363TIP3    H237581   4.639   5.202  13.402
 5364TIP3   OH237582   4.782   5.612  12.350
 5364TIP3    H137583   4.765   5.601  12.254
 5364TIP3    H237584   4.784   5.709  12.362
 5365TIP3   OH237585   4.136   5.498  12.537
 5365TIP3    H137586   4.147   5.457  12.626
 5365TIP3    H237587   4.050   5.459  12.513
 5366TIP3   OH237588   5.076   5.532  12.055
 5366TIP3    H137589   5.119   5.456  12.011
 5366TIP3    H237590   5.080   5.505  12.149
 5367TIP3   OH237591   5.046   5.526  12.332
 5367TIP3    H137592   4.950   5.532  12.349
 5367TIP3    H237593   5.071   5.451  12.390
 5368TIP3   OH237594   5.345   4.430  13.538
 5368TIP3    H137595   5.299   4.476  13.465
 5368TIP3    H237596   5.345   4.338  13.507
 5369TIP3   OH237597   4.058   5.071  13.337
 5369TIP3    H137598   4.081   5.033  13.425
 5369TIP3    H237599   3.972   5.031  13.316
 5370TIP3   OH237600   4.325   3.919  12.927
 5370TIP3    H137601   4.229   3.909  12.907
 5370TIP3    H237602   4.318   4.000  12.982
 5371TIP3   OH237603   4.790   3.886  13.271
 5371TIP3    H137604   4.830   3.844  13.349
 5371TIP3    H237605   4.693   3.872  13.285
 5372TIP3   OH237606   5.120   4.267  13.359
 5372TIP3    H137607   5.065   4.248  13.439
 5372TIP3    H237608   5.102   4.360  13.335
 5373TIP3   OH237609   5.195   4.750  11.944
 5373TIP3    H137610   5.197   4.730  11.847
 5373TIP3    H237611   5.281   4.793  11.953
 5374TIP3   OH237612   4.760   4.143  12.001
 5374TIP3    H137613   4.724   4.136  12.092
 5374TIP3    H237614   4.723   4.056  11.972
 5375TIP3   OH237615   4.335   4.413  13.055
 5375TIP3    H137616   4.263   4.413  13.120
 5375TIP3    H237617   4.332   4.505  13.021
 5376TIP3   OH237618   4.332   4.429  12.543
 5376TIP3    H137619   4.239   4.403  12.530
 5376TIP3    H237620   4.372   4.397  12.460
 5377TIP3   OH237621   4.885   4.477  12.422
 5377TIP3    H137622   4.844   4.559  12.387
 5377TIP3    H237623   4.954   4.461  12.356
 5378TIP3   OH237624   4.792   4.497  13.566
 5378TIP3    H137625   4.737   4.421  13.598
 5378TIP3    H237626   4.875   4.484  13.614
 5379TIP3   OH237627   4.987   4.424  12.705
 5379TIP3    H137628   4.961   4.481  12.630
 5379TIP3    H237629   4.998   4.339  12.657
 5380TIP3   OH237630   4.102   4.441  13.230
 5380TIP3    H137631   4.104   4.484  13.317
 5380TIP3    H237632   4.053   4.360  13.242
 5381TIP3   OH237633   4.437   4.191  11.911
 5381TIP3    H137634   4.400   4.136  11.984
 5381TIP3    H237635   4.362   4.221  11.860
 5382TIP3   OH237636   3.765   4.153  12.623
 5382TIP3    H137637   3.832   4.150  12.694
 5382TIP3    H237638   3.810   4.114  12.545
 5383TIP3   OH237639   3.892   4.225  12.160
 5383TIP3    H137640   3.942   4.287  12.103
 5383TIP3    H237641   3.822   4.285  12.193
 5384TIP3   OH237642   4.909   4.585  13.164
 5384TIP3    H137643   4.945   4.518  13.103
 5384TIP3    H237644   4.863   4.531  13.231
 5385TIP3   OH237645   4.587   4.177  12.645
 5385TIP3    H137646   4.495   4.185  12.676
 5385TIP3    H237647   4.638   4.169  12.727
 5386TIP3   OH237648   4.070   4.336  12.533
 5386TIP3    H137649   3.981   4.352  12.494
 5386TIP3    H237650   4.099   4.254  12.491
 5387TIP3   OH237651   4.434   4.343  12.297
 5387TIP3    H137652   4.530   4.352  12.311
 5387TIP3    H237653   4.412   4.408  12.228
 5388TIP3   OH237654   5.029   4.104  12.970
 5388TIP3    H137655   4.960   4.112  13.039
 5388TIP3    H237656   4.979   4.082  12.891
 5389TIP3   OH237657   4.302   4.462  12.053
 5389TIP3    H137658   4.251   4.420  11.982
 5389TIP3    H237659   4.386   4.478  12.007
 5390TIP3   OH237660   5.351   5.669  13.601
 5390TIP3    H137661   5.377   5.709  13.517
 5390TIP3    H237662   5.422   5.702  13.659
 5391TIP3   OH237663   4.117   4.916  13.559
 5391TIP3    H137664   4.189   4.941  13.619
 5391TIP3    H237665   4.039   4.929  13.617
 5392TIP3   OH237666   4.717   4.457  12.835
 5392TIP3    H137667   4.776   4.403  12.781
 5392TIP3    H237668   4.703   4.403  12.913
 5393TIP3   OH237669   4.222   4.068  12.485
 5393TIP3    H137670   4.186   3.980  12.469
 5393TIP3    H237671   4.295   4.069  12.420
 5394TIP3   OH237672   4.581   4.291  13.076
 5394TIP3    H137673   4.498   4.342  13.086
 5394TIP3    H237674   4.636   4.325  13.150
 5395TIP3   OH237675   4.640   4.914  12.245
 5395TIP3    H137676   4.560   4.866  12.212
 5395TIP3    H237677   4.619   4.923  12.340
 5396TIP3   OH237678   5.356   4.831  13.126
 5396TIP3    H137679   5.414   4.879  13.064
 5396TIP3    H237680   5.271   4.839  13.078
 5397TIP3   OH237681   5.025   4.196  12.063
 5397TIP3    H137682   4.929   4.208  12.050
 5397TIP3    H237683   5.057   4.282  12.098
 5398TIP3   OH237684   4.788   4.937  13.369
 5398TIP3    H137685   4.754   4.897  13.449
 5398TIP3    H237686   4.765   5.030  13.379
 5399TIP3   OH237687   5.097   4.385  12.228
 5399TIP3    H137688   5.186   4.372  12.265
 5399TIP3    H237689   5.105   4.466  12.175
 5400TIP3   OH237690   4.150   4.850  12.825
 5400TIP3    H137691   4.221   4.844  12.758
 5400TIP3    H237692   4.157   4.765  12.871
 5401TIP3   OH237693   4.850   5.061  12.148
 5401TIP3    H137694   4.816   5.144  12.185
 5401TIP3    H237695   4.777   4.999  12.169
 5402TIP3   OH237696   3.850   4.692  13.352
 5402TIP3    H137697   3.868   4.649  13.438
 5402TIP3    H237698   3.787   4.631  13.309
 5403TIP3   OH237699   4.551   4.648  13.572
 5403TIP3    H137700   4.520   4.621  13.484
 5403TIP3    H237701   4.644   4.618  13.571
 5404TIP3   OH237702   5.018   5.181  13.363
 5404TIP3    H137703   4.925   5.200  13.340
 5404TIP3    H237704   5.016   5.210  13.457
 5405TIP3   OH237705   5.587   4.401  12.203
 5405TIP3    H137706   5.530   4.370  12.131
 5405TIP3    H237707   5.595   4.495  12.176
 5406TIP3   OH237708   5.585   4.986  13.485
 5406TIP3    H137709   5.496   5.008  13.448
 5406TIP3    H237710   5.640   4.982  13.405
 5407TIP3   OH237711   5.414   5.284  12.245
 5407TIP3    H137712   5.378   5.200  12.278
 5407TIP3    H237713   5.446   5.263  12.155
 5408TIP3   OH237714   5.135   4.765  12.953
 5408TIP3    H137715   5.041   4.742  12.944
 5408TIP3    H237716   5.178   4.687  12.912
 5409TIP3   OH237717   4.388   5.198  12.563
 5409TIP3    H137718   4.438   5.277  12.543
 5409TIP3    H237719   4.299   5.220  12.532
 5410TIP3   OH237720   3.964   4.682  12.021
 5410TIP3    H137721   4.023   4.748  12.061
 5410TIP3    H237722   3.875   4.714  12.047
 5411TIP3   OH237723   4.530   4.964  12.516
 5411TIP3    H137724   4.501   5.056  12.525
 5411TIP3    H237725   4.456   4.916  12.560
 5412TIP3   OH237726   4.575   5.381  13.155
 5412TIP3    H137727   4.619   5.464  13.128
 5412TIP3    H237728   4.635   5.349  13.225
 5413TIP3   OH237729   4.399   5.468  12.467
 5413TIP3    H137730   4.301   5.474  12.481
 5413TIP3    H237731   4.425   5.548  12.512
 5414TIP3   OH237732   4.930   4.985  13.120
 5414TIP3    H137733   4.893   4.964  13.208
 5414TIP3    H237734   4.992   4.912  13.102
 5415TIP3   OH237735   5.159   5.088  12.027
 5415TIP3    H137736   5.189   5.042  12.109
 5415TIP3    H237737   5.063   5.071  12.037
 5416TIP3   OH237738   5.206   5.441  13.369
 5416TIP3    H137739   5.140   5.390  13.319
 5416TIP3    H237740   5.227   5.511  13.303
 5417TIP3   OH237741   5.607   5.525  12.052
 5417TIP3    H137742   5.677   5.591  12.033
 5417TIP3    H237743   5.536   5.587  12.081
 5418TIP3   OH237744   4.000   4.163  13.259
 5418TIP3    H137745   3.917   4.208  13.285
 5418TIP3    H237746   4.004   4.080  13.311
 5419TIP3   OH237747   5.238   4.952  12.251
 5419TIP3    H137748   5.215   4.875  12.306
 5419TIP3    H237749   5.333   4.958  12.271
 5420TIP3   OH237750   3.978   5.345  13.150
 5420TIP3    H137751   4.004   5.252  13.150
 5420TIP3    H237752   4.002   5.374  13.239
 5421TIP3   OH237753   4.571   5.196  11.875
 5421TIP3    H137754   4.585   5.119  11.818
 5421TIP3    H237755   4.532   5.153  11.955
 5422TIP3   OH237756   4.453   5.149  12.121
 5422TIP3    H137757   4.476   5.098  12.199
 5422TIP3    H237758   4.458   5.242  12.152
 5423TIP3   OH237759   4.104   4.874  12.170
 5423TIP3    H137760   4.034   4.913  12.226
 5423TIP3    H237761   4.156   4.952  12.143
 5424TIP3   OH237762   4.887   4.143  13.201
 5424TIP3    H137763   4.958   4.149  13.266
 5424TIP3    H237764   4.849   4.055  13.219
 5425TIP3   OH237765   4.966   4.101  12.311
 5425TIP3    H137766   4.985   4.149  12.228
 5425TIP3    H237767   5.021   4.146  12.375
 5426TIP3   OH237768   4.732   5.319  12.196
 5426TIP3    H137769   4.648   5.369  12.197
 5426TIP3    H237770   4.785   5.368  12.131
 5427TIP3   OH237771   4.680   4.294  12.399
 5427TIP3    H137772   4.768   4.334  12.399
 5427TIP3    H237773   4.661   4.263  12.488
 5428TIP3   OH237774   4.740   4.378  13.311
 5428TIP3    H137775   4.749   4.435  13.390
 5428TIP3    H237776   4.806   4.308  13.322
 5429TIP3   OH237777   4.773   3.981  12.490
 5429TIP3    H137778   4.738   4.050  12.547
 5429TIP3    H237779   4.837   4.036  12.436
 5430TIP3   OH237780   4.472   5.421  12.195
 5430TIP3    H137781   4.480   5.502  12.138
 5430TIP3    H237782   4.442   5.455  12.281
 5431TIP3   OH237783   4.315   4.103  12.171
 5431TIP3    H137784   4.332   4.194  12.194
 5431TIP3    H237785   4.410   4.069  12.171
 5432TIP3   OH237786   5.359   4.166  13.396
 5432TIP3    H137787   5.266   4.196  13.384
 5432TIP3    H237788   5.389   4.165  13.304
 5433TIP3   OH237789   5.219   4.544  12.799
 5433TIP3    H137790   5.137   4.500  12.770
 5433TIP3    H237791   5.266   4.474  12.851
 5434TIP3   OH237792   4.161   5.136  12.058
 5434TIP3    H137793   4.225   5.202  12.088
 5434TIP3    H237794   4.212   5.091  11.988
 5435TIP3   OH237795   3.994   4.403  11.972
 5435TIP3    H137796   3.995   4.499  11.991
 5435TIP3    H237797   3.905   4.384  11.941
 5436TIP3   OH237798   5.326   5.468  12.965
 5436TIP3    H137799   5.315   5.538  12.897
 5436TIP3    H237800   5.421   5.475  12.983
 5437TIP3   OH237801   4.081   3.878  12.840
 5437TIP3    H137802   4.045   3.886  12.749
 5437TIP3    H237803   4.030   3.799  12.872
 5438TIP3   OH237804   3.971   5.274  12.459
 5438TIP3    H137805   3.886   5.320  12.456
 5438TIP3    H237806   4.021   5.323  12.392
 5439TIP3   OH237807   3.894   5.538  13.588
 5439TIP3    H137808   3.953   5.517  13.663
 5439TIP3    H237809   3.851   5.453  13.569
 5440TIP3   OH237810   4.359   5.430  13.750
 5440TIP3    H137811   4.435   5.381  13.783
 5440TIP3    H237812   4.357   5.404  13.656
 5441TIP3   OH237813   4.771   5.382  11.889
 5441TIP3    H137814   4.704   5.316  11.915
 5441TIP3    H237815   4.844   5.323  11.865
 5442TIP3   OH237816   5.012   5.268  13.623
 5442TIP3    H137817   4.980   5.180  13.650
 5442TIP3    H237818   5.088   5.280  13.684
 5443TIP3   OH237819   5.228   5.358  11.909
 5443TIP3    H137820   5.258   5.279  11.958
 5443TIP3    H237821   5.304   5.381  11.853
 5444TIP3   OH237822   3.885   4.917  13.687
 5444TIP3    H137823   3.901   4.826  13.656
 5444TIP3    H237824   3.810   4.943  13.632
 5445TIP3   OH237825   4.318   4.951  11.892
 5445TIP3    H137826   4.331   4.873  11.949
 5445TIP3    H237827   4.391   4.939  11.828
 5446TIP3   OH237828   4.555   4.915  13.627
 5446TIP3    H137829   4.521   4.944  13.540
 5446TIP3    H237830   4.565   4.818  13.617
 5447TIP3   OH237831   4.860   5.060  11.868
 5447TIP3    H137832   4.833   5.071  11.961
 5447TIP3    H237833   4.840   4.965  11.855
 5448TIP3   OH237834   5.125   4.902  13.365
 5448TIP3    H137835   5.203   4.962  13.357
 5448TIP3    H237836   5.054   4.967  13.370
 5449TIP3   OH237837   3.973   4.638  13.625
 5449TIP3    H137838   4.016   4.553  13.617
 5449TIP3    H237839   3.950   4.640  13.720
 5450TIP3   OH237840   4.438   4.752  12.131
 5450TIP3    H137841   4.390   4.699  12.195
 5450TIP3    H237842   4.466   4.683  12.065
 5451TIP3   OH237843   4.364   4.533  13.362
 5451TIP3    H137844   4.306   4.607  13.389
 5451TIP3    H237845   4.403   4.570  13.281
 5452TIP3   OH237846   4.545   4.574  11.953
 5452TIP3    H137847   4.529   4.562  11.857
 5452TIP3    H237848   4.642   4.581  11.959
 5453TIP3   OH237849   4.871   4.789  13.694
 5453TIP3    H137850   4.967   4.791  13.685
 5453TIP3    H237851   4.854   4.713  13.752
 5454TIP3   OH237852   5.481   4.807  11.896
 5454TIP3    H137853   5.458   4.768  11.811
 5454TIP3    H237854   5.488   4.903  11.875
 5455TIP3   OH237855   4.399   4.271  13.467
 5455TIP3    H137856   4.420   4.200  13.404
 5455TIP3    H237857   4.403   4.353  13.413
 5456TIP3   OH237858   4.444   4.110  13.222
 5456TIP3    H137859   4.498   4.156  13.154
 5456TIP3    H237860   4.356   4.101  13.179
 5457TIP3   OH237861   4.600   4.656  13.247
 5457TIP3    H137862   4.675   4.640  13.189
 5457TIP3    H237863   4.565   4.741  13.215
 5458TIP3   OH237864   5.040   4.435  13.745
 5458TIP3    H137865   5.062   4.341  13.735
 5458TIP3    H237866   5.127   4.478  13.746
 5459TIP3   OH237867   5.172   4.712  13.558
 5459TIP3    H137868   5.148   4.786  13.497
 5459TIP3    H237869   5.269   4.709  13.540
 5460TIP3   OH237870   4.251   4.397  13.660
 5460TIP3    H137871   4.174   4.339  13.644
 5460TIP3    H237872   4.318   4.361  13.600
 5461TIP3   OH237873   4.524   3.854  13.263
 5461TIP3    H137874   4.510   3.951  13.252
 5461TIP3    H237875   4.449   3.817  13.214
 5462TIP3   OH237876   4.651   4.286  13.623
 5462TIP3    H137877   4.622   4.264  13.713
 5462TIP3    H237878   4.572   4.266  13.570
 5463TIP3   OH237879   4.923   4.200  13.530
 5463TIP3    H137880   4.827   4.205  13.543
 5463TIP3    H237881   4.951   4.137  13.598
 5464TIP3   OH237882   5.083   4.063  13.725
 5464TIP3    H137883   5.076   3.966  13.727
 5464TIP3    H237884   5.055   4.092  13.814
 5465TIP3   OH237885   4.070   4.191  13.651
 5465TIP3    H137886   4.100   4.116  13.597
 5465TIP3    H237887   4.054   4.143  13.735
 5466TIP3   OH237888   4.546   3.791  13.531
 5466TIP3    H137889   4.615   3.722  13.529
 5466TIP3    H237890   4.535   3.809  13.436
 5467TIP3   OH237891   4.584   3.955  13.739
 5467TIP3    H137892   4.566   3.904  13.656
 5467TIP3    H237893   4.522   4.029  13.733
 5468TIP3   OH237894   4.531   5.646  12.062
 5468TIP3    H137895   4.627   5.655  12.064
 5468TIP3    H237896   4.513   5.706  11.988
 5469TIP3   OH237897   3.886   5.104  12.006
 5469TIP3    H137898   3.983   5.112  12.027
 5469TIP3    H237899   3.891   5.037  11.934
 5470TIP3   OH237900   3.762   5.642  12.504
 5470TIP3    H137901   3.690   5.594  12.458
 5470TIP3    H237902   3.790   5.577  12.571
 5471TIP3   OH237903   3.846   5.453  12.689
 5471TIP3    H137904   3.809   5.366  12.711
 5471TIP3    H237905   3.865   5.488  12.778
 5472TIP3   OH237906   5.600   5.533  12.986
 5472TIP3    H137907   5.598   5.550  13.082
 5472TIP3    H237908   5.666   5.593  12.953
 5473TIP3   OH237909   5.559   5.493  13.279
 5473TIP3    H137910   5.507   5.417  13.243
 5473TIP3    H237911   5.606   5.448  13.351
 5474TIP3   OH237912   5.400   5.067  13.745
 5474TIP3    H137913   5.311   5.062  13.783
 5474TIP3    H237914   5.438   5.146  13.788
 5475TIP3   OH237915   5.530   4.898  12.291
 5475TIP3    H137916   5.617   4.938  12.309
 5475TIP3    H237917   5.531   4.824  12.357
 5476TIP3   OH237918   5.568   4.705  12.477
 5476TIP3    H137919   5.494   4.654  12.518
 5476TIP3    H237920   5.628   4.720  12.553
 5477TIP3   OH237921   5.544   4.976  12.976
 5477TIP3    H137922   5.627   4.939  12.940
 5477TIP3    H237923   5.558   5.072  12.959
 5478TIP3   OH237924   5.398   5.266  13.204
 5478TIP3    H137925   5.329   5.300  13.264
 5478TIP3    H237926   5.343   5.225  13.134
 5479TIP3   OH237927   5.601   4.691  12.116
 5479TIP3    H137928   5.541   4.724  12.045
 5479TIP3    H237929   5.588   4.759  12.184
 5480TIP3   OH237930   5.435   4.412  11.970
 5480TIP3    H137931   5.442   4.480  11.901
 5480TIP3    H237932   5.417   4.330  11.921
 5481TIP3   OH237933   5.349   4.553  12.534
 5481TIP3    H137934   5.334   4.458  12.532
 5481TIP3    H237935   5.315   4.577  12.622
 5482TIP3   OH237936   3.850   4.762  12.939
 5482TIP3    H137937   3.869   4.754  12.843
 5482TIP3    H237938   3.939   4.746  12.976
 5483TIP3   OH237939   5.435   4.750  13.502
 5483TIP3    H137940   5.496   4.675  13.517
 5483TIP3    H237941   5.494   4.828  13.504
 5484TIP3   OH237942   5.586   4.539  13.570
 5484TIP3    H137943   5.498   4.500  13.552
 5484TIP3    H237944   5.643   4.462  13.559
 5485TIP3   OH237945   5.359   4.158  11.883
 5485TIP3    H137946   5.418   4.116  11.947
 5485TIP3    H237947   5.273   4.115  11.900
 5486TIP3   OH237948   5.316   4.312  12.378
 5486TIP3    H137949   5.347   4.219  12.393
 5486TIP3    H237950   5.397   4.352  12.345
 5487TIP3   OH237951   5.380   4.366  12.924
 5487TIP3    H137952   5.476   4.390  12.923
 5487TIP3    H237953   5.360   4.380  13.018
 5488TIP3   OH237954   5.387   4.439  13.203
 5488TIP3    H137955   5.299   4.468  13.236
 5488TIP3    H237956   5.430   4.525  13.181
 5489TIP3   OH237957   3.816   4.283  13.545
 5489TIP3    H137958   3.904   4.279  13.585
 5489TIP3    H237959   3.764   4.211  13.588
 5490TIP3   OH237960   5.615   3.844  13.739
 5490TIP3    H137961   5.648   3.778  13.676
 5490TIP3    H237962   5.625   3.925  13.686
 5491TIP3   OH237963   5.383   4.040  12.385
 5491TIP3    H137964   5.403   3.995  12.470
 5491TIP3    H237965   5.322   3.977  12.340
 5492TIP3   OH237966   3.934   4.120  12.837
 5492TIP3    H137967   3.977   4.039  12.870
 5492TIP3    H237968   3.983   4.191  12.880
 5493TIP3   OH237969   3.761   4.420  12.945
 5493TIP3    H137970   3.816   4.397  12.867
 5493TIP3    H237971   3.805   4.502  12.972
 5494TIP3   OH237972   5.567   4.054  13.574
 5494TIP3    H137973   5.473   4.080  13.567
 5494TIP3    H237974   5.572   4.000  13.494
 5495TIP3   OH237975   5.565   4.044  12.041
 5495TIP3    H137976   5.607   3.972  11.988
 5495TIP3    H237977   5.635   4.111  12.045
 5496TIP3   OH237978   3.797   4.047  12.352
 5496TIP3    H137979   3.703   4.065  12.337
 5496TIP3    H237980   3.840   4.095  12.280
 5497TIP3   OH237981   5.270   5.543  12.547
 5497TIP3    H137982   5.338   5.511  12.485
 5497TIP3    H237983   5.323   5.592  12.611
 5498TIP3   OH237984   3.795   3.918  13.187
 5498TIP3    H137985   3.723   3.892  13.248
 5498TIP3    H237986   3.747   3.979  13.127
 5499TIP3   OH237987   4.014   5.233  13.598
 5499TIP3    H137988   3.930   5.254  13.554
 5499TIP3    H237989   3.987   5.227  13.691
 5500TIP3   OH237990   4.305   5.333  13.226
 5500TIP3    H137991   4.269   5.418  13.197
 5500TIP3    H237992   4.398   5.343  13.195
 5501TIP3   OH237993   4.737   5.475  13.518
 5501TIP3    H137994   4.754   5.440  13.609
 5501TIP3    H237995   4.827   5.505  13.491
 5502TIP3   OH237996   4.968   5.602  13.446
 5502TIP3    H137997   5.040   5.542  13.423
 5502TIP3    H237998   5.005   5.644  13.527
 5503TIP3   OH237999   5.467   3.863  13.357
 5503TIP3    H138000   5.384   3.893  13.316
 5503TIP3    H238001   5.485   3.783  13.303
 5504TIP3   OH238002   4.049   5.659  13.228
 5504TIP3    H138003   3.975   5.705  13.185
 5504TIP3    H238004   4.013   5.637  13.315
 5505TIP3   OH238005   4.294   5.616  13.133
 5505TIP3    H138006   4.205   5.628  13.173
 5505TIP3    H238007   4.288   5.674  13.055
 5506TIP3   OH238008   4.765   5.606  13.051
 5506TIP3    H138009   4.719   5.662  12.986
 5506TIP3    H238010   4.780   5.669  13.124
 5507TIP3   OH238011   4.996   5.489  13.149
 5507TIP3    H138012   4.908   5.514  13.117
 5507TIP3    H238013   5.041   5.575  13.141
 5508TIP3   OH238014   5.254   5.646  13.175
 5508TIP3    H138015   5.244   5.742  13.152
 5508TIP3    H238016   5.274   5.609  13.087
 5509TIP3   OH238017   3.994   5.522  12.918
 5509TIP3    H138018   3.984   5.478  13.006
 5509TIP3    H238019   4.075   5.485  12.880
 5510TIP3   OH238020   4.203   5.393  12.783
 5510TIP3    H138021   4.184   5.300  12.806
 5510TIP3    H238022   4.285   5.407  12.833
 5511TIP3   OH238023   4.461   5.442  12.871
 5511TIP3    H138024   4.477   5.349  12.846
 5511TIP3    H238025   4.465   5.435  12.968
 5512TIP3   OH238026   4.806   4.006  12.786
 5512TIP3    H138027   4.740   3.941  12.813
 5512TIP3    H238028   4.862   3.955  12.727
 5513TIP3   OH238029   5.321   3.813  12.795
 5513TIP3    H138030   5.382   3.871  12.744
 5513TIP3    H238031   5.233   3.848  12.771
 5514TIP3   OH238032   5.489   3.934  12.624
 5514TIP3    H138033   5.557   3.878  12.579
 5514TIP3    H238034   5.537   4.020  12.632
 5515TIP3   OH238035   4.046   3.869  12.572
 5515TIP3    H138036   3.964   3.850  12.519
 5515TIP3    H238037   4.087   3.781  12.562
 5516TIP3   OH238038   3.922   3.846  12.145
 5516TIP3    H138039   3.970   3.911  12.090
 5516TIP3    H238040   3.863   3.902  12.197
 5517TIP3   OH238041   4.488   3.864  12.555
 5517TIP3    H138042   4.581   3.898  12.541
 5517TIP3    H238043   4.496   3.838  12.646
 5518TIP3   OH238044   5.060   3.864  12.713
 5518TIP3    H138045   5.059   3.874  12.617
 5518TIP3    H238046   5.024   3.773  12.726
 5519TIP3   OH238047   5.191   3.867  12.282
 5519TIP3    H138048   5.117   3.927  12.264
 5519TIP3    H238049   5.144   3.782  12.301
 5520TIP3   OH238050   3.914   5.440  12.243
 5520TIP3    H138051   3.846   5.439  12.173
 5520TIP3    H238052   3.912   5.535  12.264
 5521TIP3   OH238053   4.106   4.039  11.994
 5521TIP3    H138054   4.159   3.977  11.942
 5521TIP3    H238055   4.173   4.070  12.059
 5522TIP3   OH238056   4.655   4.085  12.267
 5522TIP3    H138057   4.627   4.007  12.315
 5522TIP3    H238058   4.604   4.161  12.300
 5523TIP3   OH238059   4.798   5.570  12.082
 5523TIP3    H138060   4.889   5.596  12.058
 5523TIP3    H238061   4.777   5.520  11.999
 5524TIP3   OH238062   5.470   5.521  12.351
 5524TIP3    H138063   5.451   5.444  12.293
 5524TIP3    H238064   5.464   5.595  12.287
 5525TIP3   OH238065   4.034   3.926  13.520
 5525TIP3    H138066   3.997   3.843  13.559
 5525TIP3    H238067   4.127   3.915  13.554
 5526TIP3   OH238068   4.233   3.860  13.675
 5526TIP3    H138069   4.324   3.826  13.660
 5526TIP3    H238070   4.197   3.781  13.723
 5527TIP3   OH238071   4.093   5.537  11.940
 5527TIP3    H138072   4.067   5.564  12.029
 5527TIP3    H238073   4.171   5.481  11.956
 5528TIP3   OH238074   5.074   3.791  13.695
 5528TIP3    H138075   5.083   3.744  13.779
 5528TIP3    H238076   5.165   3.788  13.660
 5529TIP3   OH238077   5.394   5.395  13.560
 5529TIP3    H138078   5.313   5.380  13.506
 5529TIP3    H238079   5.383   5.490  13.581
 5530TIP3   OH238080   6.837   4.784  12.560
 5530TIP3    H138081   6.839   4.881  12.552
 5530TIP3    H238082   6.767   4.758  12.498
 5531TIP3   OH238083   6.724   4.709  12.907
 5531TIP3    H138084   6.722   4.644  12.978
 5531TIP3    H238085   6.691   4.660  12.831
 5532TIP3   OH238086   5.961   4.675  13.062
 5532TIP3    H138087   5.968   4.608  13.134
 5532TIP3    H238088   6.034   4.733  13.084
 5533TIP3   OH238089   7.094   5.002  12.736
 5533TIP3    H138090   7.052   4.931  12.785
 5533TIP3    H238091   7.098   5.073  12.803
 5534TIP3   OH238092   6.053   5.120  12.915
 5534TIP3    H138093   6.020   5.034  12.881
 5534TIP3    H238094   6.148   5.101  12.920
 5535TIP3   OH238095   5.717   4.478  12.461
 5535TIP3    H138096   5.672   4.565  12.455
 5535TIP3    H238097   5.660   4.424  12.404
 5536TIP3   OH238098   5.787   4.699  12.674
 5536TIP3    H138099   5.813   4.618  12.722
 5536TIP3    H238100   5.859   4.709  12.610
 5537TIP3   OH238101   6.807   5.519  12.758
 5537TIP3    H138102   6.871   5.448  12.731
 5537TIP3    H238103   6.786   5.488  12.846
 5538TIP3   OH238104   6.562   4.950  12.951
 5538TIP3    H138105   6.596   4.885  12.888
 5538TIP3    H238106   6.641   4.965  13.006
 5539TIP3   OH238107   6.878   4.396  12.984
 5539TIP3    H138108   6.895   4.299  12.982
 5539TIP3    H238109   6.869   4.410  12.888
 5540TIP3   OH238110   6.189   4.204  12.709
 5540TIP3    H138111   6.201   4.288  12.660
 5540TIP3    H238112   6.150   4.147  12.639
 5541TIP3   OH238113   7.002   4.218  12.546
 5541TIP3    H138114   7.056   4.182  12.618
 5541TIP3    H238115   7.041   4.275  12.482
 5542TIP3   OH238116   5.853   4.445  12.782
 5542TIP3    H138117   5.921   4.389  12.826
 5542TIP3    H238118   5.862   4.414  12.690
 5543TIP3   OH238119   6.368   4.601  12.711
 5543TIP3    H138120   6.435   4.543  12.752
 5543TIP3    H238121   6.317   4.534  12.662
 5544TIP3   OH238122   6.079   4.094  13.112
 5544TIP3    H138123   6.053   4.150  13.037
 5544TIP3    H238124   6.011   4.118  13.179
 5545TIP3   OH238125   6.810   5.042  12.467
 5545TIP3    H138126   6.783   5.014  12.379
 5545TIP3    H238127   6.779   5.136  12.472
 5546TIP3   OH238128   6.333   4.859  13.138
 5546TIP3    H138129   6.261   4.923  13.156
 5546TIP3    H238130   6.403   4.918  13.108
 5547TIP3   OH238131   7.133   4.143  12.752
 5547TIP3    H138132   7.120   4.064  12.803
 5547TIP3    H238133   7.204   4.192  12.797
 5548TIP3   OH238134   6.035   4.281  12.913
 5548TIP3    H138135   6.099   4.348  12.946
 5548TIP3    H238136   6.089   4.238  12.841
 5549TIP3   OH238137   6.176   5.058  13.218
 5549TIP3    H138138   6.172   5.149  13.183
 5549TIP3    H238139   6.088   5.051  13.263
 5550TIP3   OH238140   5.787   5.023  12.297
 5550TIP3    H138141   5.757   5.054  12.210
 5550TIP3    H238142   5.790   5.107  12.348
 5551TIP3   OH238143   7.139   5.184  12.977
 5551TIP3    H138144   7.044   5.196  12.986
 5551TIP3    H238145   7.172   5.274  12.955
 5552TIP3   OH238146   7.170   4.022  13.102
 5552TIP3    H138147   7.097   4.086  13.104
 5552TIP3    H238148   7.240   4.068  13.054
 5553TIP3   OH238149   6.476   3.826  12.859
 5553TIP3    H138150   6.463   3.730  12.852
 5553TIP3    H238151   6.388   3.858  12.888
 5554TIP3   OH238152   6.970   5.363  12.633
 5554TIP3    H138153   7.016   5.294  12.582
 5554TIP3    H238154   7.011   5.443  12.593
 5555TIP3   OH238155   7.091   5.157  12.481
 5555TIP3    H138156   7.063   5.085  12.422
 5555TIP3    H238157   7.097   5.109  12.567
 5556TIP3   OH238158   7.236   5.025  13.339
 5556TIP3    H138159   7.267   4.959  13.273
 5556TIP3    H238160   7.275   5.104  13.297
 5557TIP3   OH238161   6.705   4.710  12.310
 5557TIP3    H138162   6.635   4.765  12.272
 5557TIP3    H238163   6.775   4.715  12.242
 5558TIP3   OH238164   6.711   4.560  12.011
 5558TIP3    H138165   6.782   4.558  12.078
 5558TIP3    H238166   6.743   4.492  11.951
 5559TIP3   OH238167   7.047   4.729  12.400
 5559TIP3    H138168   6.974   4.752  12.462
 5559TIP3    H238169   7.093   4.660  12.453
 5560TIP3   OH238170   7.037   4.543  13.312
 5560TIP3    H138171   7.042   4.623  13.365
 5560TIP3    H238172   6.977   4.575  13.242
 5561TIP3   OH238173   6.211   4.795  12.591
 5561TIP3    H138174   6.177   4.754  12.509
 5561TIP3    H238175   6.271   4.725  12.626
 5562TIP3   OH238176   6.343   5.134  12.861
 5562TIP3    H138177   6.340   5.079  12.782
 5562TIP3    H238178   6.421   5.097  12.907
 5563TIP3   OH238179   6.244   4.668  12.958
 5563TIP3    H138180   6.301   4.680  12.879
 5563TIP3    H238181   6.281   4.735  13.020
 5564TIP3   OH238182   6.879   5.225  13.028
 5564TIP3    H138183   6.856   5.288  13.096
 5564TIP3    H238184   6.859   5.139  13.072
 5565TIP3   OH238185   6.338   5.111  13.428
 5565TIP3    H138186   6.300   5.187  13.476
 5565TIP3    H238187   6.270   5.092  13.358
 5566TIP3   OH238188   6.936   4.646  12.168
 5566TIP3    H138189   6.991   4.663  12.248
 5566TIP3    H238190   6.978   4.696  12.095
 5567TIP3   OH238191   6.032   4.729  13.344
 5567TIP3    H138192   6.035   4.793  13.418
 5567TIP3    H238193   5.938   4.738  13.321
 5568TIP3   OH238194   6.707   5.320  12.515
 5568TIP3    H138195   6.751   5.350  12.595
 5568TIP3    H238196   6.651   5.394  12.492
 5569TIP3   OH238197   6.162   5.316  13.503
 5569TIP3    H138198   6.158   5.304  13.407
 5569TIP3    H238199   6.068   5.303  13.529
 5570TIP3   OH238200   7.284   3.815  12.143
 5570TIP3    H138201   7.199   3.839  12.186
 5570TIP3    H238202   7.320   3.898  12.112
 5571TIP3   OH238203   6.110   4.697  12.350
 5571TIP3    H138204   6.075   4.776  12.307
 5571TIP3    H238205   6.042   4.630  12.335
 5572TIP3   OH238206   5.717   4.939  13.240
 5572TIP3    H138207   5.670   4.931  13.155
 5572TIP3    H238208   5.722   4.844  13.264
 5573TIP3   OH238209   5.693   5.213  12.921
 5573TIP3    H138210   5.788   5.198  12.920
 5573TIP3    H238211   5.683   5.293  12.974
 5574TIP3   OH238212   6.612   5.237  13.376
 5574TIP3    H138213   6.619   5.321  13.427
 5574TIP3    H238214   6.524   5.202  13.402
 5575TIP3   OH238215   6.656   5.612  12.357
 5575TIP3    H138216   6.645   5.603  12.261
 5575TIP3    H238217   6.657   5.709  12.371
 5576TIP3   OH238218   6.019   5.499  12.538
 5576TIP3    H138219   6.034   5.456  12.625
 5576TIP3    H238220   5.935   5.458  12.512
 5577TIP3   OH238221   6.964   5.533  12.055
 5577TIP3    H138222   7.004   5.455  12.010
 5577TIP3    H238223   6.964   5.505  12.149
 5578TIP3   OH238224   6.931   5.525  12.332
 5578TIP3    H138225   6.835   5.533  12.350
 5578TIP3    H238226   6.956   5.452  12.390
 5579TIP3   OH238227   7.204   4.439  13.542
 5579TIP3    H138228   7.184   4.479  13.458
 5579TIP3    H238229   7.236   4.349  13.513
 5580TIP3   OH238230   5.944   5.071  13.337
 5580TIP3    H138231   5.967   5.033  13.425
 5580TIP3    H238232   5.857   5.030  13.316
 5581TIP3   OH238233   6.211   3.917  12.934
 5581TIP3    H138234   6.121   3.906  12.896
 5581TIP3    H238235   6.200   4.001  12.980
 5582TIP3   OH238236   6.675   3.886  13.271
 5582TIP3    H138237   6.715   3.844  13.349
 5582TIP3    H238238   6.578   3.871  13.285
 5583TIP3   OH238239   7.004   4.267  13.359
 5583TIP3    H138240   6.951   4.249  13.439
 5583TIP3    H238241   6.988   4.360  13.337
 5584TIP3   OH238242   7.081   4.748  11.943
 5584TIP3    H138243   7.082   4.727  11.846
 5584TIP3    H238244   7.164   4.793  11.952
 5585TIP3   OH238245   6.640   4.141  11.999
 5585TIP3    H138246   6.611   4.137  12.093
 5585TIP3    H238247   6.610   4.053  11.971
 5586TIP3   OH238248   6.221   4.413  13.054
 5586TIP3    H138249   6.149   4.412  13.120
 5586TIP3    H238250   6.218   4.506  13.021
 5587TIP3   OH238251   6.216   4.431  12.542
 5587TIP3    H138252   6.124   4.401  12.530
 5587TIP3    H238253   6.258   4.397  12.461
 5588TIP3   OH238254   6.774   4.485  12.422
 5588TIP3    H138255   6.729   4.563  12.384
 5588TIP3    H238256   6.840   4.459  12.357
 5589TIP3   OH238257   6.677   4.497  13.566
 5589TIP3    H138258   6.624   4.421  13.598
 5589TIP3    H238259   6.761   4.484  13.614
 5590TIP3   OH238260   6.877   4.429  12.707
 5590TIP3    H138261   6.846   4.479  12.630
 5590TIP3    H238262   6.880   4.340  12.660
 5591TIP3   OH238263   5.986   4.442  13.229
 5591TIP3    H138264   5.990   4.482  13.317
 5591TIP3    H238265   5.940   4.359  13.247
 5592TIP3   OH238266   6.325   4.181  11.913
 5592TIP3    H138267   6.279   4.137  11.987
 5592TIP3    H238268   6.253   4.221  11.863
 5593TIP3   OH238269   5.650   4.153  12.622
 5593TIP3    H138270   5.717   4.149  12.693
 5593TIP3    H238271   5.696   4.113  12.546
 5594TIP3   OH238272   5.778   4.225  12.160
 5594TIP3    H138273   5.827   4.287  12.103
 5594TIP3    H238274   5.708   4.285  12.193
 5595TIP3   OH238275   6.794   4.585  13.163
 5595TIP3    H138276   6.831   4.517  13.103
 5595TIP3    H238277   6.749   4.531  13.231
 5596TIP3   OH238278   6.465   4.177  12.647
 5596TIP3    H138279   6.375   4.183  12.679
 5596TIP3    H238280   6.524   4.169  12.724
 5597TIP3   OH238281   5.956   4.338  12.531
 5597TIP3    H138282   5.866   4.352  12.493
 5597TIP3    H238283   5.984   4.254  12.492
 5598TIP3   OH238284   6.314   4.340  12.291
 5598TIP3    H138285   6.411   4.350  12.313
 5598TIP3    H238286   6.298   4.410  12.228
 5599TIP3   OH238287   6.914   4.101  12.971
 5599TIP3    H138288   6.844   4.112  13.039
 5599TIP3    H238289   6.863   4.085  12.889
 5600TIP3   OH238290   6.188   4.465  12.052
 5600TIP3    H138291   6.137   4.420  11.983
 5600TIP3    H238292   6.272   4.477  12.006
 5601TIP3   OH238293   7.233   5.670  13.602
 5601TIP3    H138294   7.263   5.707  13.518
 5601TIP3    H238295   7.306   5.700  13.659
 5602TIP3   OH238296   6.003   4.918  13.558
 5602TIP3    H138297   6.074   4.940  13.619
 5602TIP3    H238298   5.925   4.929  13.617
 5603TIP3   OH238299   6.603   4.457  12.835
 5603TIP3    H138300   6.662   4.402  12.780
 5603TIP3    H238301   6.589   4.401  12.912
 5604TIP3   OH238302   6.105   4.072  12.478
 5604TIP3    H138303   6.073   3.980  12.475
 5604TIP3    H238304   6.184   4.067  12.423
 5605TIP3   OH238305   6.467   4.291  13.077
 5605TIP3    H138306   6.384   4.342  13.086
 5605TIP3    H238307   6.521   4.325  13.150
 5606TIP3   OH238308   6.524   4.915  12.244
 5606TIP3    H138309   6.447   4.864  12.214
 5606TIP3    H238310   6.506   4.923  12.340
 5607TIP3   OH238311   7.231   4.833  13.126
 5607TIP3    H138312   7.295   4.864  13.059
 5607TIP3    H238313   7.149   4.838  13.074
 5608TIP3   OH238314   6.910   4.197  12.058
 5608TIP3    H138315   6.813   4.209  12.051
 5608TIP3    H238316   6.939   4.282  12.099
 5609TIP3   OH238317   6.674   4.937  13.369
 5609TIP3    H138318   6.640   4.897  13.449
 5609TIP3    H238319   6.652   5.030  13.379
 5610TIP3   OH238320   6.982   4.385  12.223
 5610TIP3    H138321   7.069   4.372  12.267
 5610TIP3    H238322   6.989   4.470  12.176
 5611TIP3   OH238323   6.036   4.850  12.825
 5611TIP3    H138324   6.106   4.844  12.757
 5611TIP3    H238325   6.042   4.765  12.871
 5612TIP3   OH238326   6.737   5.060  12.148
 5612TIP3    H138327   6.702   5.144  12.185
 5612TIP3    H238328   6.663   4.999  12.170
 5613TIP3   OH238329   5.735   4.693  13.352
 5613TIP3    H138330   5.755   4.649  13.437
 5613TIP3    H238331   5.674   4.630  13.310
 5614TIP3   OH238332   6.436   4.648  13.572
 5614TIP3    H138333   6.406   4.621  13.484
 5614TIP3    H238334   6.530   4.618  13.571
 5615TIP3   OH238335   6.901   5.180  13.363
 5615TIP3    H138336   6.809   5.200  13.340
 5615TIP3    H238337   6.902   5.210  13.456
 5616TIP3   OH238338   7.292   5.283  12.243
 5616TIP3    H138339   7.262   5.199  12.279
 5616TIP3    H238340   7.332   5.263  12.158
 5617TIP3   OH238341   7.016   4.763  12.954
 5617TIP3    H138342   6.922   4.741  12.943
 5617TIP3    H238343   7.063   4.687  12.912
 5618TIP3   OH238344   6.273   5.197  12.564
 5618TIP3    H138345   6.324   5.277  12.543
 5618TIP3    H238346   6.185   5.221  12.532
 5619TIP3   OH238347   5.850   4.684  12.019
 5619TIP3    H138348   5.904   4.747  12.065
 5619TIP3    H238349   5.760   4.712  12.046
 5620TIP3   OH238350   6.414   4.964  12.514
 5620TIP3    H138351   6.387   5.057  12.526
 5620TIP3    H238352   6.342   4.917  12.561
 5621TIP3   OH238353   6.461   5.381  13.155
 5621TIP3    H138354   6.504   5.464  13.128
 5621TIP3    H238355   6.521   5.349  13.225
 5622TIP3   OH238356   6.283   5.464  12.471
 5622TIP3    H138357   6.186   5.477  12.481
 5622TIP3    H238358   6.319   5.548  12.506
 5623TIP3   OH238359   6.817   4.985  13.120
 5623TIP3    H138360   6.779   4.964  13.208
 5623TIP3    H238361   6.878   4.912  13.102
 5624TIP3   OH238362   7.045   5.088  12.028
 5624TIP3    H138363   7.074   5.043  12.110
 5624TIP3    H238364   6.949   5.072  12.037
 5625TIP3   OH238365   7.089   5.444  13.369
 5625TIP3    H138366   7.025   5.390  13.318
 5625TIP3    H238367   7.114   5.511  13.302
 5626TIP3   OH238368   5.900   4.167  13.307
 5626TIP3    H138369   5.809   4.201  13.304
 5626TIP3    H238370   5.889   4.081  13.352
 5627TIP3   OH238371   7.124   4.951  12.251
 5627TIP3    H138372   7.100   4.873  12.307
 5627TIP3    H238373   7.218   4.959  12.272
 5628TIP3   OH238374   5.865   5.348  13.149
 5628TIP3    H138375   5.888   5.253  13.150
 5628TIP3    H238376   5.888   5.372  13.240
 5629TIP3   OH238377   6.454   5.196  11.875
 5629TIP3    H138378   6.472   5.120  11.818
 5629TIP3    H238379   6.419   5.153  11.955
 5630TIP3   OH238380   6.335   5.147  12.122
 5630TIP3    H138381   6.364   5.100  12.200
 5630TIP3    H238382   6.345   5.241  12.152
 5631TIP3   OH238383   5.974   4.873  12.192
 5631TIP3    H138384   5.902   4.918  12.241
 5631TIP3    H238385   6.022   4.953  12.164
 5632TIP3   OH238386   6.771   4.143  13.201
 5632TIP3    H138387   6.844   4.149  13.264
 5632TIP3    H238388   6.734   4.054  13.220
 5633TIP3   OH238389   6.866   4.089  12.296
 5633TIP3    H138390   6.873   4.153  12.225
 5633TIP3    H238391   6.896   4.142  12.373
 5634TIP3   OH238392   6.617   5.317  12.193
 5634TIP3    H138393   6.535   5.370  12.199
 5634TIP3    H238394   6.670   5.370  12.132
 5635TIP3   OH238395   6.545   4.302  12.377
 5635TIP3    H138396   6.639   4.326  12.391
 5635TIP3    H238397   6.544   4.263  12.470
 5636TIP3   OH238398   6.625   4.377  13.311
 5636TIP3    H138399   6.635   4.435  13.389
 5636TIP3    H238400   6.692   4.308  13.321
 5637TIP3   OH238401   6.643   3.963  12.478
 5637TIP3    H138402   6.626   4.037  12.542
 5637TIP3    H238403   6.715   4.024  12.443
 5638TIP3   OH238404   6.355   5.420  12.194
 5638TIP3    H138405   6.367   5.502  12.140
 5638TIP3    H238406   6.330   5.455  12.282
 5639TIP3   OH238407   6.223   4.092  12.153
 5639TIP3    H138408   6.217   4.182  12.190
 5639TIP3    H238409   6.314   4.068  12.179
 5640TIP3   OH238410   7.242   4.161  13.390
 5640TIP3    H138411   7.150   4.197  13.383
 5640TIP3    H238412   7.275   4.169  13.300
 5641TIP3   OH238413   7.106   4.545  12.803
 5641TIP3    H138414   7.024   4.502  12.769
 5641TIP3    H238415   7.146   4.471  12.850
 5642TIP3   OH238416   6.050   5.127  12.062
 5642TIP3    H138417   6.107   5.203  12.088
 5642TIP3    H238418   6.098   5.099  11.983
 5643TIP3   OH238419   5.881   4.404  11.971
 5643TIP3    H138420   5.879   4.499  11.991
 5643TIP3    H238421   5.792   4.383  11.942
 5644TIP3   OH238422   7.215   5.469  12.965
 5644TIP3    H138423   7.199   5.538  12.899
 5644TIP3    H238424   7.309   5.478  12.985
 5645TIP3   OH238425   5.962   3.882  12.843
 5645TIP3    H138426   5.940   3.885  12.747
 5645TIP3    H238427   5.919   3.798  12.870
 5646TIP3   OH238428   5.856   5.274  12.459
 5646TIP3    H138429   5.772   5.320  12.456
 5646TIP3    H238430   5.906   5.323  12.392
 5647TIP3   OH238431   5.779   5.539  13.589
 5647TIP3    H138432   5.839   5.517  13.663
 5647TIP3    H238433   5.737   5.453  13.570
 5648TIP3   OH238434   6.243   5.428  13.751
 5648TIP3    H138435   6.322   5.382  13.783
 5648TIP3    H238436   6.243   5.406  13.656
 5649TIP3   OH238437   6.657   5.382  11.889
 5649TIP3    H138438   6.589   5.316  11.915
 5649TIP3    H238439   6.730   5.323  11.865
 5650TIP3   OH238440   6.899   5.268  13.623
 5650TIP3    H138441   6.866   5.180  13.650
 5650TIP3    H238442   6.974   5.280  13.685
 5651TIP3   OH238443   7.112   5.360  11.911
 5651TIP3    H138444   7.141   5.280  11.957
 5651TIP3    H238445   7.188   5.381  11.853
 5652TIP3   OH238446   5.771   4.917  13.687
 5652TIP3    H138447   5.787   4.826  13.656
 5652TIP3    H238448   5.696   4.942  13.632
 5653TIP3   OH238449   6.212   4.954  11.881
 5653TIP3    H138450   6.232   4.875  11.931
 5653TIP3    H238451   6.285   4.943  11.817
 5654TIP3   OH238452   6.441   4.915  13.628
 5654TIP3    H138453   6.407   4.945  13.542
 5654TIP3    H238454   6.451   4.818  13.617
 5655TIP3   OH238455   6.746   5.060  11.868
 5655TIP3    H138456   6.718   5.071  11.961
 5655TIP3    H238457   6.725   4.965  11.855
 5656TIP3   OH238458   7.010   4.900  13.362
 5656TIP3    H138459   7.087   4.961  13.356
 5656TIP3    H238460   6.940   4.966  13.370
 5657TIP3   OH238461   5.861   4.639  13.626
 5657TIP3    H138462   5.900   4.552  13.615
 5657TIP3    H238463   5.834   4.639  13.719
 5658TIP3   OH238464   6.314   4.753  12.126
 5658TIP3    H138465   6.279   4.697  12.198
 5658TIP3    H238466   6.354   4.683  12.067
 5659TIP3   OH238467   6.251   4.535  13.362
 5659TIP3    H138468   6.191   4.606  13.389
 5659TIP3    H238469   6.289   4.570  13.280
 5660TIP3   OH238470   6.430   4.578  11.953
 5660TIP3    H138471   6.415   4.561  11.858
 5660TIP3    H238472   6.528   4.580  11.959
 5661TIP3   OH238473   6.754   4.790  13.695
 5661TIP3    H138474   6.850   4.791  13.685
 5661TIP3    H238475   6.740   4.713  13.752
 5662TIP3   OH238476   6.289   4.272  13.470
 5662TIP3    H138477   6.302   4.200  13.406
 5662TIP3    H238478   6.286   4.352  13.414
 5663TIP3   OH238479   6.330   4.110  13.222
 5663TIP3    H138480   6.382   4.156  13.153
 5663TIP3    H238481   6.242   4.101  13.180
 5664TIP3   OH238482   6.486   4.656  13.247
 5664TIP3    H138483   6.561   4.640  13.189
 5664TIP3    H238484   6.450   4.741  13.215
 5665TIP3   OH238485   6.925   4.435  13.745
 5665TIP3    H138486   6.949   4.342  13.734
 5665TIP3    H238487   7.013   4.478  13.745
 5666TIP3   OH238488   7.055   4.713  13.557
 5666TIP3    H138489   7.033   4.787  13.497
 5666TIP3    H238490   7.152   4.709  13.540
 5667TIP3   OH238491   6.136   4.392  13.665
 5667TIP3    H138492   6.059   4.339  13.637
 5667TIP3    H238493   6.203   4.362  13.599
 5668TIP3   OH238494   6.410   3.854  13.263
 5668TIP3    H138495   6.394   3.950  13.252
 5668TIP3    H238496   6.334   3.818  13.213
 5669TIP3   OH238497   6.537   4.287  13.622
 5669TIP3    H138498   6.509   4.264  13.713
 5669TIP3    H238499   6.457   4.266  13.570
 5670TIP3   OH238500   6.807   4.200  13.531
 5670TIP3    H138501   6.711   4.205  13.543
 5670TIP3    H238502   6.837   4.137  13.598
 5671TIP3   OH238503   6.973   4.062  13.727
 5671TIP3    H138504   6.960   3.966  13.727
 5671TIP3    H238505   6.940   4.093  13.813
 5672TIP3   OH238506   5.948   4.189  13.637
 5672TIP3    H138507   5.971   4.118  13.573
 5672TIP3    H238508   5.937   4.137  13.717
 5673TIP3   OH238509   6.431   3.790  13.532
 5673TIP3    H138510   6.501   3.721  13.529
 5673TIP3    H238511   6.421   3.809  13.437
 5674TIP3   OH238512   6.468   3.953  13.741
 5674TIP3    H138513   6.451   3.904  13.657
 5674TIP3    H238514   6.408   4.029  13.731
 5675TIP3   OH238515   6.416   5.643  12.059
 5675TIP3    H138516   6.512   5.656  12.067
 5675TIP3    H238517   6.398   5.707  11.988
 5676TIP3   OH238518   5.773   5.102  12.007
 5676TIP3    H138519   5.868   5.114  12.026
 5676TIP3    H238520   5.775   5.038  11.932
 5677TIP3   OH238521   5.648   5.643  12.506
 5677TIP3    H138522   5.577   5.595  12.457
 5677TIP3    H238523   5.676   5.575  12.569
 5678TIP3   OH238524   5.731   5.454  12.691
 5678TIP3    H138525   5.695   5.366  12.708
 5678TIP3    H238526   5.752   5.486  12.780
 5679TIP3   OH238527   7.269   5.076  13.735
 5679TIP3    H138528   7.192   5.061  13.789
 5679TIP3    H238529   7.321   5.141  13.785
 5680TIP3   OH238530   7.282   5.261  13.208
 5680TIP3    H138531   7.215   5.302  13.265
 5680TIP3    H238532   7.229   5.224  13.134
 5681TIP3   OH238533   7.309   4.413  11.973
 5681TIP3    H138534   7.326   4.478  11.903
 5681TIP3    H238535   7.300   4.330  11.922
 5682TIP3   OH238536   7.206   4.560  12.535
 5682TIP3    H138537   7.214   4.463  12.538
 5682TIP3    H238538   7.196   4.580  12.630
 5683TIP3   OH238539   5.736   4.762  12.939
 5683TIP3    H138540   5.755   4.753  12.843
 5683TIP3    H238541   5.825   4.746  12.976
 5684TIP3   OH238542  -0.031   4.754  13.529
 5684TIP3    H138543   0.028   4.678  13.526
 5684TIP3    H238544   0.028   4.826  13.501
 5685TIP3   OH238545   7.245   4.159  11.883
 5685TIP3    H138546   7.302   4.115  11.946
 5685TIP3    H238547   7.160   4.115  11.900
 5686TIP3   OH238548   7.202   4.311  12.370
 5686TIP3    H138549   7.228   4.221  12.400
 5686TIP3    H238550   7.283   4.349  12.338
 5687TIP3   OH238551   7.228   4.319  12.916
 5687TIP3    H138552   7.323   4.334  12.904
 5687TIP3    H238553   7.231   4.367  13.001
 5688TIP3   OH238554   7.270   4.440  13.210
 5688TIP3    H138555   7.182   4.470  13.237
 5688TIP3    H238556   7.312   4.521  13.177
 5689TIP3   OH238557   5.697   4.292  13.556
 5689TIP3    H138558   5.791   4.273  13.572
 5689TIP3    H238559   5.651   4.210  13.584
 5690TIP3   OH238560   7.192   4.020  12.436
 5690TIP3    H138561   7.279   3.993  12.470
 5690TIP3    H238562   7.195   3.972  12.350
 5691TIP3   OH238563   5.817   4.120  12.840
 5691TIP3    H138564   5.864   4.039  12.868
 5691TIP3    H238565   5.870   4.191  12.881
 5692TIP3   OH238566   5.646   4.420  12.945
 5692TIP3    H138567   5.702   4.397  12.868
 5692TIP3    H238568   5.690   4.502  12.972
 5693TIP3   OH238569   5.683   4.047  12.352
 5693TIP3    H138570   5.589   4.065  12.337
 5693TIP3    H238571   5.726   4.095  12.280
 5694TIP3   OH238572   7.145   5.530  12.553
 5694TIP3    H138573   7.211   5.500  12.490
 5694TIP3    H238574   7.200   5.588  12.609
 5695TIP3   OH238575   5.678   3.915  13.183
 5695TIP3    H138576   5.610   3.894  13.250
 5695TIP3    H238577   5.632   3.981  13.128
 5696TIP3   OH238578   5.900   5.233  13.599
 5696TIP3    H138579   5.816   5.254  13.555
 5696TIP3    H238580   5.873   5.227  13.691
 5697TIP3   OH238581   6.190   5.333  13.225
 5697TIP3    H138582   6.156   5.418  13.198
 5697TIP3    H238583   6.283   5.342  13.196
 5698TIP3   OH238584   6.624   5.472  13.517
 5698TIP3    H138585   6.639   5.441  13.609
 5698TIP3    H238586   6.712   5.507  13.491
 5699TIP3   OH238587   6.855   5.603  13.446
 5699TIP3    H138588   6.927   5.542  13.423
 5699TIP3    H238589   6.891   5.644  13.527
 5700TIP3   OH238590   5.931   5.655  13.230
 5700TIP3    H138591   5.854   5.705  13.200
 5700TIP3    H238592   5.903   5.635  13.321
 5701TIP3   OH238593   6.177   5.612  13.128
 5701TIP3    H138594   6.094   5.629  13.178
 5701TIP3    H238595   6.178   5.675  13.054
 5702TIP3   OH238596   6.651   5.606  13.050
 5702TIP3    H138597   6.604   5.661  12.985
 5702TIP3    H238598   6.665   5.670  13.124
 5703TIP3   OH238599   6.883   5.489  13.149
 5703TIP3    H138600   6.794   5.514  13.117
 5703TIP3    H238601   6.926   5.576  13.142
 5704TIP3   OH238602   7.138   5.649  13.176
 5704TIP3    H138603   7.127   5.743  13.153
 5704TIP3    H238604   7.162   5.610  13.090
 5705TIP3   OH238605   5.882   5.527  12.924
 5705TIP3    H138606   5.871   5.470  13.004
 5705TIP3    H238607   5.958   5.482  12.878
 5706TIP3   OH238608   6.085   5.395  12.789
 5706TIP3    H138609   6.069   5.300  12.806
 5706TIP3    H238610   6.173   5.406  12.831
 5707TIP3   OH238611   6.342   5.441  12.872
 5707TIP3    H138612   6.363   5.350  12.845
 5707TIP3    H238613   6.352   5.435  12.968
 5708TIP3   OH238614   6.695   4.004  12.792
 5708TIP3    H138615   6.624   3.941  12.812
 5708TIP3    H238616   6.748   3.958  12.725
 5709TIP3   OH238617   7.208   3.812  12.797
 5709TIP3    H138618   7.264   3.874  12.748
 5709TIP3    H238619   7.119   3.847  12.773
 5710TIP3   OH238620   5.929   3.870  12.570
 5710TIP3    H138621   5.849   3.848  12.518
 5710TIP3    H238622   5.977   3.785  12.566
 5711TIP3   OH238623   5.808   3.845  12.145
 5711TIP3    H138624   5.855   3.910  12.090
 5711TIP3    H238625   5.748   3.902  12.197
 5712TIP3   OH238626   6.378   3.860  12.549
 5712TIP3    H138627   6.468   3.899  12.544
 5712TIP3    H238628   6.373   3.841  12.643
 5713TIP3   OH238629   6.951   3.861  12.713
 5713TIP3    H138630   6.945   3.876  12.618
 5713TIP3    H238631   6.909   3.772  12.725
 5714TIP3   OH238632   7.070   3.862  12.274
 5714TIP3    H138633   6.999   3.929  12.267
 5714TIP3    H238634   7.025   3.780  12.303
 5715TIP3   OH238635   5.799   5.441  12.244
 5715TIP3    H138636   5.731   5.440  12.173
 5715TIP3    H238637   5.798   5.536  12.264
 5716TIP3   OH238638   5.991   4.039  11.994
 5716TIP3    H138639   6.044   3.977  11.941
 5716TIP3    H238640   6.057   4.070  12.059
 5717TIP3   OH238641   6.495   4.065  12.236
 5717TIP3    H138642   6.519   4.006  12.310
 5717TIP3    H238643   6.497   4.152  12.284
 5718TIP3   OH238644   6.685   5.568  12.080
 5718TIP3    H138645   6.775   5.596  12.058
 5718TIP3    H238646   6.663   5.519  11.998
 5719TIP3   OH238647   5.918   3.925  13.521
 5719TIP3    H138648   5.882   3.843  13.559
 5719TIP3    H238649   6.012   3.919  13.552
 5720TIP3   OH238650   6.119   3.861  13.680
 5720TIP3    H138651   6.208   3.827  13.657
 5720TIP3    H238652   6.082   3.780  13.719
 5721TIP3   OH238653   5.979   5.537  11.941
 5721TIP3    H138654   5.953   5.564  12.030
 5721TIP3    H238655   6.057   5.481  11.956
 5722TIP3   OH238656   6.959   3.792  13.693
 5722TIP3    H138657   6.968   3.744  13.779
 5722TIP3    H238658   7.050   3.788  13.658
 5723TIP3   OH238659   7.272   5.391  13.568
 5723TIP3    H138660   7.199   5.379  13.504
 5723TIP3    H238661   7.267   5.489  13.581
 5724TIP3   OH238662   1.180   6.667  12.559
 5724TIP3    H138663   1.182   6.766  12.553
 5724TIP3    H238664   1.109   6.644  12.497
 5725TIP3   OH238665   1.068   6.595  12.907
 5725TIP3    H138666   1.066   6.529  12.978
 5725TIP3    H238667   1.035   6.546  12.831
 5726TIP3   OH238668   0.306   6.560  13.061
 5726TIP3    H138669   0.312   6.493  13.133
 5726TIP3    H238670   0.378   6.619  13.085
 5727TIP3   OH238671   1.438   6.888  12.736
 5727TIP3    H138672   1.394   6.817  12.784
 5727TIP3    H238673   1.439   6.960  12.801
 5728TIP3   OH238674   0.396   7.005  12.917
 5728TIP3    H138675   0.363   6.920  12.882
 5728TIP3    H238676   0.491   6.985  12.920
 5729TIP3   OH238677   0.079   6.365  12.439
 5729TIP3    H138678   0.025   6.445  12.461
 5729TIP3    H238679   0.007   6.310  12.415
 5730TIP3   OH238680   0.129   6.582  12.671
 5730TIP3    H138681   0.154   6.504  12.724
 5730TIP3    H238682   0.203   6.593  12.611
 5731TIP3   OH238683   0.904   6.834  12.952
 5731TIP3    H138684   0.939   6.771  12.888
 5731TIP3    H238685   0.984   6.851  13.006
 5732TIP3   OH238686   1.768   5.999  13.029
 5732TIP3    H138687   1.782   6.060  13.104
 5732TIP3    H238688   1.821   6.043  12.961
 5733TIP3   OH238689   1.222   6.281  12.984
 5733TIP3    H138690   1.237   6.185  12.984
 5733TIP3    H238691   1.212   6.296  12.888
 5734TIP3   OH238692   0.536   6.089  12.708
 5734TIP3    H138693   0.543   6.174  12.661
 5734TIP3    H238694   0.493   6.033  12.640
 5735TIP3   OH238695   1.307   6.099  12.545
 5735TIP3    H138696   1.374   6.067  12.611
 5735TIP3    H238697   1.363   6.155  12.488
 5736TIP3   OH238698   0.199   6.329  12.775
 5736TIP3    H138699   0.265   6.276  12.824
 5736TIP3    H238700   0.208   6.297  12.686
 5737TIP3   OH238701   0.713   6.486  12.710
 5737TIP3    H138702   0.778   6.429  12.753
 5737TIP3    H238703   0.659   6.419  12.663
 5738TIP3   OH238704   1.811   6.143  13.255
 5738TIP3    H138705   1.747   6.216  13.245
 5738TIP3    H238706   1.814   6.130  13.350
 5739TIP3   OH238707   0.423   5.980  13.112
 5739TIP3    H138708   0.396   6.036  13.036
 5739TIP3    H238709   0.354   6.003  13.179
 5740TIP3   OH238710   1.156   6.927  12.467
 5740TIP3    H138711   1.127   6.899  12.379
 5740TIP3    H238712   1.124   7.020  12.472
 5741TIP3   OH238713   0.677   6.743  13.139
 5741TIP3    H138714   0.604   6.807  13.156
 5741TIP3    H238715   0.746   6.804  13.108
 5742TIP3   OH238716   1.487   6.032  12.744
 5742TIP3    H138717   1.466   5.955  12.797
 5742TIP3    H238718   1.554   6.077  12.798
 5743TIP3   OH238719   0.378   6.164  12.913
 5743TIP3    H138720   0.440   6.233  12.946
 5743TIP3    H238721   0.433   6.124  12.841
 5744TIP3   OH238722   0.519   6.942  13.218
 5744TIP3    H138723   0.515   7.034  13.183
 5744TIP3    H238724   0.430   6.936  13.260
 5745TIP3   OH238725   0.129   6.911  12.296
 5745TIP3    H138726   0.103   6.939  12.207
 5745TIP3    H238727   0.137   6.994  12.347
 5746TIP3   OH238728   1.491   7.075  12.975
 5746TIP3    H138729   1.394   7.080  12.985
 5746TIP3    H238730   1.517   7.166  12.953
 5747TIP3   OH238731   1.522   5.901  13.112
 5747TIP3    H138732   1.448   5.964  13.105
 5747TIP3    H238733   1.592   5.944  13.059
 5748TIP3   OH238734   0.820   5.713  12.858
 5748TIP3    H138735   0.807   5.616  12.852
 5748TIP3    H238736   0.732   5.744  12.888
 5749TIP3   OH238737   1.317   7.233  12.625
 5749TIP3    H138738   1.367   7.169  12.572
 5749TIP3    H238739   1.351   7.317  12.592
 5750TIP3   OH238740   1.437   7.042  12.483
 5750TIP3    H138741   1.406   6.973  12.423
 5750TIP3    H238742   1.439   6.995  12.568
 5751TIP3   OH238743   1.599   6.902  13.332
 5751TIP3    H138744   1.613   6.838  13.260
 5751TIP3    H238745   1.620   6.987  13.291
 5752TIP3   OH238746   1.048   6.593  12.310
 5752TIP3    H138747   0.978   6.649  12.273
 5752TIP3    H238748   1.118   6.601  12.243
 5753TIP3   OH238749   1.054   6.446  12.011
 5753TIP3    H138750   1.125   6.445  12.077
 5753TIP3    H238751   1.086   6.377  11.951
 5754TIP3   OH238752   1.786   6.533  13.138
 5754TIP3    H138753   1.720   6.605  13.143
 5754TIP3    H238754   1.834   6.556  13.056
 5755TIP3   OH238755   1.392   6.614  12.401
 5755TIP3    H138756   1.317   6.638  12.461
 5755TIP3    H238757   1.437   6.545  12.452
 5756TIP3   OH238758   1.384   6.430  13.312
 5756TIP3    H138759   1.386   6.511  13.367
 5756TIP3    H238760   1.321   6.460  13.244
 5757TIP3   OH238761   0.555   6.681  12.593
 5757TIP3    H138762   0.520   6.640  12.510
 5757TIP3    H238763   0.615   6.610  12.626
 5758TIP3   OH238764   0.687   7.016  12.861
 5758TIP3    H138765   0.685   6.964  12.781
 5758TIP3    H238766   0.765   6.983  12.908
 5759TIP3   OH238767   0.588   6.554  12.958
 5759TIP3    H138768   0.644   6.566  12.878
 5759TIP3    H238769   0.624   6.621  13.020
 5760TIP3   OH238770   1.225   7.110  13.029
 5760TIP3    H138771   1.196   7.173  13.093
 5760TIP3    H238772   1.201   7.024  13.071
 5761TIP3   OH238773   0.681   6.998  13.428
 5761TIP3    H138774   0.642   7.073  13.477
 5761TIP3    H238775   0.613   6.978  13.359
 5762TIP3   OH238776   1.278   6.532  12.169
 5762TIP3    H138777   1.335   6.549  12.248
 5762TIP3    H238778   1.322   6.582  12.097
 5763TIP3   OH238779   0.376   6.614  13.349
 5763TIP3    H138780   0.379   6.682  13.418
 5763TIP3    H238781   0.283   6.623  13.320
 5764TIP3   OH238782   1.051   7.204  12.515
 5764TIP3    H138783   1.096   7.237  12.593
 5764TIP3    H238784   0.992   7.279  12.492
 5765TIP3   OH238785   0.504   7.204  13.501
 5765TIP3    H138786   0.499   7.189  13.405
 5765TIP3    H238787   0.411   7.189  13.529
 5766TIP3   OH238788   1.651   5.706  12.156
 5766TIP3    H138789   1.557   5.720  12.182
 5766TIP3    H238790   1.672   5.791  12.113
 5767TIP3   OH238791   0.452   6.582  12.354
 5767TIP3    H138792   0.423   6.661  12.303
 5767TIP3    H238793   0.385   6.517  12.333
 5768TIP3   OH238794   1.765   7.142  11.990
 5768TIP3    H138795   1.775   7.237  12.008
 5768TIP3    H238796   1.857   7.111  11.990
 5769TIP3   OH238797   0.098   6.816  13.222
 5769TIP3    H138798   0.025   6.820  13.157
 5769TIP3    H238799   0.070   6.732  13.263
 5770TIP3   OH238800   0.048   7.109  12.910
 5770TIP3    H138801   0.139   7.084  12.923
 5770TIP3    H238802   0.033   7.178  12.976
 5771TIP3   OH238803   1.857   7.167  13.492
 5771TIP3    H138804   1.848   7.071  13.486
 5771TIP3    H238805   1.770   7.194  13.530
 5772TIP3   OH238806   0.954   7.124  13.376
 5772TIP3    H138807   0.964   7.205  13.426
 5772TIP3    H238808   0.868   7.087  13.403
 5773TIP3   OH238809   1.573   6.316  13.538
 5773TIP3    H138810   1.528   6.362  13.466
 5773TIP3    H238811   1.574   6.224  13.507
 5774TIP3   OH238812   0.289   6.959  13.339
 5774TIP3    H138813   0.306   6.919  13.426
 5774TIP3    H238814   0.203   6.918  13.314
 5775TIP3   OH238815   0.555   5.803  12.934
 5775TIP3    H138816   0.465   5.793  12.896
 5775TIP3    H238817   0.544   5.887  12.981
 5776TIP3   OH238818   1.019   5.772  13.271
 5776TIP3    H138819   1.059   5.729  13.349
 5776TIP3    H238820   0.922   5.757  13.285
 5777TIP3   OH238821   1.349   6.153  13.359
 5777TIP3    H138822   1.294   6.134  13.439
 5777TIP3    H238823   1.331   6.245  13.335
 5778TIP3   OH238824   1.424   6.636  11.944
 5778TIP3    H138825   1.425   6.616  11.847
 5778TIP3    H238826   1.510   6.679  11.954
 5779TIP3   OH238827   0.984   6.027  12.000
 5779TIP3    H138828   0.953   6.023  12.093
 5779TIP3    H238829   0.953   5.939  11.971
 5780TIP3   OH238830   0.564   6.299  13.054
 5780TIP3    H138831   0.492   6.297  13.121
 5780TIP3    H238832   0.560   6.392  13.022
 5781TIP3   OH238833   0.561   6.316  12.543
 5781TIP3    H138834   0.468   6.287  12.531
 5781TIP3    H238835   0.601   6.283  12.460
 5782TIP3   OH238836   1.113   6.362  12.422
 5782TIP3    H138837   1.073   6.445  12.387
 5782TIP3    H238838   1.183   6.347  12.356
 5783TIP3   OH238839   1.021   6.383  13.566
 5783TIP3    H138840   0.966   6.307  13.598
 5783TIP3    H238841   1.104   6.369  13.614
 5784TIP3   OH238842   1.216   6.310  12.705
 5784TIP3    H138843   1.190   6.367  12.630
 5784TIP3    H238844   1.228   6.225  12.658
 5785TIP3   OH238845   0.332   6.326  13.229
 5785TIP3    H138846   0.332   6.368  13.317
 5785TIP3    H238847   0.283   6.244  13.245
 5786TIP3   OH238848   0.667   6.066  11.912
 5786TIP3    H138849   0.623   6.023  11.987
 5786TIP3    H238850   0.596   6.107  11.862
 5787TIP3   OH238851   0.012   6.054  12.612
 5787TIP3    H138852   0.061   6.033  12.694
 5787TIP3    H238853   0.044   5.994  12.545
 5788TIP3   OH238854   0.119   6.116  12.157
 5788TIP3    H138855   0.172   6.176  12.101
 5788TIP3    H238856   0.049   6.174  12.188
 5789TIP3   OH238857   1.138   6.471  13.164
 5789TIP3    H138858   1.174   6.403  13.103
 5789TIP3    H238859   1.092   6.417  13.231
 5790TIP3   OH238860   0.817   6.066  12.645
 5790TIP3    H138861   0.724   6.068  12.675
 5790TIP3    H238862   0.866   6.053  12.728
 5791TIP3   OH238863   0.303   6.224  12.529
 5791TIP3    H138864   0.213   6.238  12.494
 5791TIP3    H238865   0.327   6.138  12.491
 5792TIP3   OH238866   0.663   6.226  12.294
 5792TIP3    H138867   0.759   6.238  12.312
 5792TIP3    H238868   0.640   6.295  12.229
 5793TIP3   OH238869   1.258   5.990  12.970
 5793TIP3    H138870   1.189   5.997  13.040
 5793TIP3    H238871   1.207   5.968  12.891
 5794TIP3   OH238872   0.534   6.345  12.052
 5794TIP3    H138873   0.479   6.307  11.981
 5794TIP3    H238874   0.616   6.365  12.006
 5795TIP3   OH238875   0.347   6.802  13.557
 5795TIP3    H138876   0.418   6.826  13.619
 5795TIP3    H238877   0.269   6.818  13.616
 5796TIP3   OH238878   0.946   6.343  12.835
 5796TIP3    H138879   1.005   6.289  12.781
 5796TIP3    H238880   0.932   6.288  12.913
 5797TIP3   OH238881   0.447   5.958  12.478
 5797TIP3    H138882   0.416   5.866  12.475
 5797TIP3    H238883   0.527   5.953  12.423
 5798TIP3   OH238884   0.810   6.177  13.076
 5798TIP3    H138885   0.727   6.227  13.086
 5798TIP3    H238886   0.864   6.210  13.150
 5799TIP3   OH238887   0.869   6.798  12.246
 5799TIP3    H138888   0.789   6.751  12.213
 5799TIP3    H238889   0.848   6.809  12.341
 5800TIP3   OH238890   1.585   6.717  13.126
 5800TIP3    H138891   1.643   6.765  13.065
 5800TIP3    H238892   1.499   6.725  13.078
 5801TIP3   OH238893   1.253   6.081  12.063
 5801TIP3    H138894   1.157   6.095  12.050
 5801TIP3    H238895   1.285   6.167  12.097
 5802TIP3   OH238896   1.017   6.825  13.369
 5802TIP3    H138897   0.983   6.782  13.449
 5802TIP3    H238898   0.995   6.918  13.380
 5803TIP3   OH238899   1.325   6.271  12.228
 5803TIP3    H138900   1.415   6.257  12.265
 5803TIP3    H238901   1.334   6.352  12.175
 5804TIP3   OH238902   0.380   6.737  12.824
 5804TIP3    H138903   0.450   6.730  12.758
 5804TIP3    H238904   0.385   6.651  12.870
 5805TIP3   OH238905   1.080   6.946  12.150
 5805TIP3    H138906   1.045   7.031  12.185
 5805TIP3    H238907   1.006   6.885  12.170
 5806TIP3   OH238908   0.101   6.558  13.329
 5806TIP3    H138909   0.108   6.535  13.423
 5806TIP3    H238910   0.017   6.516  13.307
 5807TIP3   OH238911   0.780   6.533  13.572
 5807TIP3    H138912   0.749   6.507  13.484
 5807TIP3    H238913   0.873   6.504  13.571
 5808TIP3   OH238914   1.246   7.072  13.360
 5808TIP3    H138915   1.152   7.084  13.341
 5808TIP3    H238916   1.244   7.094  13.456
 5809TIP3   OH238917   1.816   6.286  12.203
 5809TIP3    H138918   1.759   6.255  12.130
 5809TIP3    H238919   1.823   6.381  12.176
 5810TIP3   OH238920   1.814   6.869  13.484
 5810TIP3    H138921   1.725   6.894  13.448
 5810TIP3    H238922   1.870   6.868  13.404
 5811TIP3   OH238923   1.645   7.160  12.251
 5811TIP3    H138924   1.607   7.077  12.278
 5811TIP3    H238925   1.672   7.150  12.159
 5812TIP3   OH238926   1.364   6.650  12.953
 5812TIP3    H138927   1.269   6.628  12.944
 5812TIP3    H238928   1.407   6.573  12.912
 5813TIP3   OH238929   0.619   7.079  12.560
 5813TIP3    H138930   0.666   7.162  12.543
 5813TIP3    H238931   0.530   7.106  12.534
 5814TIP3   OH238932   0.187   6.566  12.024
 5814TIP3    H138933   0.252   6.632  12.059
 5814TIP3    H238934   0.103   6.602  12.051
 5815TIP3   OH238935   0.760   6.848  12.517
 5815TIP3    H138936   0.731   6.941  12.525
 5815TIP3    H238937   0.685   6.802  12.560
 5816TIP3   OH238938   0.819   7.246  13.140
 5816TIP3    H138939   0.843   7.339  13.125
 5816TIP3    H238940   0.865   7.230  13.223
 5817TIP3   OH238941   0.582  -0.001  12.449
 5817TIP3    H138942   0.501   0.023  12.489
 5817TIP3    H238943   0.639   0.067  12.492
 5818TIP3   OH238944   1.160   6.871  13.121
 5818TIP3    H138945   1.122   6.848  13.208
 5818TIP3    H238946   1.220   6.797  13.102
 5819TIP3   OH238947   1.388   6.970  12.026
 5819TIP3    H138948   1.419   6.929  12.109
 5819TIP3    H238949   1.292   6.958  12.037
 5820TIP3   OH238950   1.432   7.322  13.368
 5820TIP3    H138951   1.365   7.273  13.319
 5820TIP3    H238952   1.453   7.396  13.308
 5821TIP3   OH238953   0.243   6.051  13.304
 5821TIP3    H138954   0.153   6.087  13.306
 5821TIP3    H238955   0.231   5.967  13.352
 5822TIP3   OH238956   1.467   6.835  12.250
 5822TIP3    H138957   1.443   6.760  12.308
 5822TIP3    H238958   1.562   6.844  12.271
 5823TIP3   OH238959   0.211   7.231  13.148
 5823TIP3    H138960   0.232   7.137  13.150
 5823TIP3    H238961   0.227   7.260  13.238
 5824TIP3   OH238962   0.801   7.081  11.875
 5824TIP3    H138963   0.812   7.003  11.818
 5824TIP3    H238964   0.761   7.039  11.954
 5825TIP3   OH238965   0.681   7.032  12.121
 5825TIP3    H138966   0.704   6.984  12.201
 5825TIP3    H238967   0.687   7.127  12.150
 5826TIP3   OH238968   0.331   6.758  12.169
 5826TIP3    H138969   0.264   6.798  12.227
 5826TIP3    H238970   0.384   6.837  12.143
 5827TIP3   OH238971   1.116   6.029  13.201
 5827TIP3    H138972   1.187   6.034  13.266
 5827TIP3    H238973   1.078   5.940  13.219
 5828TIP3   OH238974   1.192   5.987  12.310
 5828TIP3    H138975   1.215   6.035  12.228
 5828TIP3    H238976   1.249   6.031  12.375
 5829TIP3   OH238977   0.961   7.202  12.194
 5829TIP3    H138978   0.878   7.253  12.200
 5829TIP3    H238979   1.012   7.254  12.128
 5830TIP3   OH238980   0.914   6.162  12.392
 5830TIP3    H138981   0.994   6.218  12.397
 5830TIP3    H238982   0.888   6.149  12.485
 5831TIP3   OH238983   0.969   6.263  13.311
 5831TIP3    H138984   0.977   6.320  13.390
 5831TIP3    H238985   1.035   6.194  13.322
 5832TIP3   OH238986   1.000   5.868  12.483
 5832TIP3    H138987   0.967   5.933  12.548
 5832TIP3    H238988   1.068   5.923  12.437
 5833TIP3   OH238989   0.702  -0.033  12.192
 5833TIP3    H138990   0.709   0.049  12.142
 5833TIP3    H238991   0.673  -0.003  12.281
 5834TIP3   OH238992   0.566   5.977  12.153
 5834TIP3    H138993   0.560   6.068  12.190
 5834TIP3    H238994   0.657   5.953  12.179
 5835TIP3   OH238995   1.588   6.051  13.396
 5835TIP3    H138996   1.495   6.081  13.384
 5835TIP3    H238997   1.618   6.051  13.304
 5836TIP3   OH238998   1.448   6.430  12.799
 5836TIP3    H138999   1.366   6.386  12.770
 5836TIP3    H239000   1.495   6.360  12.851
 5837TIP3   OH239001   0.390   7.019  12.059
 5837TIP3    H139002   0.453   7.087  12.087
 5837TIP3    H239003   0.441   6.976  11.988
 5838TIP3   OH239004   0.229   6.289  11.968
 5838TIP3    H139005   0.224   6.383  11.992
 5838TIP3    H239006   0.137   6.268  11.944
 5839TIP3   OH239007   0.303   5.768  12.842
 5839TIP3    H139008   0.284   5.770  12.746
 5839TIP3    H239009   0.261   5.684  12.870
 5840TIP3   OH239010   0.207   7.157  12.467
 5840TIP3    H139011   0.121   7.201  12.457
 5840TIP3    H239012   0.249   7.209  12.396
 5841TIP3   OH239013   0.601   7.290  13.761
 5841TIP3    H139014   0.686   7.257  13.786
 5841TIP3    H239015   0.594   7.278  13.664
 5842TIP3   OH239016   1.002   7.264  11.898
 5842TIP3    H139017   0.931   7.199  11.912
 5842TIP3    H239018   1.073   7.210  11.861
 5843TIP3   OH239019   1.244   7.139  13.616
 5843TIP3    H139020   1.206   7.059  13.654
 5843TIP3    H239021   1.313   7.163  13.680
 5844TIP3   OH239022   1.465   7.239  11.917
 5844TIP3    H139023   1.492   7.158  11.960
 5844TIP3    H239024   1.537   7.263  11.855
 5845TIP3   OH239025   0.126   6.802  13.684
 5845TIP3    H139026   0.131   6.708  13.657
 5845TIP3    H239027   0.042   6.832  13.642
 5846TIP3   OH239028   0.547   6.837  11.893
 5846TIP3    H139029   0.560   6.759  11.949
 5846TIP3    H239030   0.619   6.825  11.828
 5847TIP3   OH239031   0.784   6.800  13.627
 5847TIP3    H139032   0.749   6.829  13.540
 5847TIP3    H239033   0.794   6.702  13.617
 5848TIP3   OH239034   1.092   6.945  11.870
 5848TIP3    H139035   1.061   6.957  11.961
 5848TIP3    H239036   1.068   6.850  11.855
 5849TIP3   OH239037   1.354   6.787  13.365
 5849TIP3    H139038   1.432   6.847  13.356
 5849TIP3    H239039   1.282   6.852  13.370
 5850TIP3   OH239040   0.198   6.523  13.624
 5850TIP3    H139041   0.245   6.438  13.616
 5850TIP3    H239042   0.181   6.525  13.720
 5851TIP3   OH239043   0.667   6.637  12.131
 5851TIP3    H139044   0.619   6.584  12.196
 5851TIP3    H239045   0.695   6.569  12.065
 5852TIP3   OH239046   0.594   6.420  13.363
 5852TIP3    H139047   0.533   6.491  13.389
 5852TIP3    H239048   0.632   6.456  13.280
 5853TIP3   OH239049   0.773   6.460  11.953
 5853TIP3    H139050   0.758   6.449  11.857
 5853TIP3    H239051   0.871   6.467  11.959
 5854TIP3   OH239052   1.100   6.674  13.693
 5854TIP3    H139053   1.196   6.677  13.685
 5854TIP3    H239054   1.083   6.599  13.752
 5855TIP3   OH239055   1.710   6.692  11.896
 5855TIP3    H139056   1.687   6.653  11.811
 5855TIP3    H239057   1.717   6.788  11.876
 5856TIP3   OH239058   0.634   6.157  13.469
 5856TIP3    H139059   0.645   6.086  13.405
 5856TIP3    H239060   0.628   6.238  13.414
 5857TIP3   OH239061   0.674   5.995  13.222
 5857TIP3    H139062   0.725   6.041  13.152
 5857TIP3    H239063   0.585   5.986  13.180
 5858TIP3   OH239064   0.829   6.542  13.247
 5858TIP3    H139065   0.904   6.526  13.189
 5858TIP3    H239066   0.793   6.626  13.215
 5859TIP3   OH239067   1.269   6.320  13.745
 5859TIP3    H139068   1.291   6.226  13.735
 5859TIP3    H239069   1.356   6.364  13.746
 5860TIP3   OH239070   1.401   6.598  13.558
 5860TIP3    H139071   1.376   6.671  13.497
 5860TIP3    H239072   1.497   6.595  13.540
 5861TIP3   OH239073   0.477   6.283  13.659
 5861TIP3    H139074   0.401   6.224  13.642
 5861TIP3    H239075   0.545   6.246  13.599
 5862TIP3   OH239076   0.753   5.739  13.263
 5862TIP3    H139077   0.738   5.836  13.252
 5862TIP3    H239078   0.678   5.703  13.213
 5863TIP3   OH239079   0.880   6.172  13.623
 5863TIP3    H139080   0.850   6.149  13.713
 5863TIP3    H239081   0.801   6.152  13.570
 5864TIP3   OH239082   1.152   6.086  13.530
 5864TIP3    H139083   1.055   6.090  13.543
 5864TIP3    H239084   1.180   6.022  13.598
 5865TIP3   OH239085   1.312   5.949  13.725
 5865TIP3    H139086   1.305   5.851  13.727
 5865TIP3    H239087   1.284   5.977  13.814
 5866TIP3   OH239088   0.295   6.074  13.634
 5866TIP3    H139089   0.315   6.000  13.573
 5866TIP3    H239090   0.282   6.028  13.719
 5867TIP3   OH239091   0.774   5.676  13.532
 5867TIP3    H139092   0.844   5.607  13.529
 5867TIP3    H239093   0.764   5.694  13.437
 5868TIP3   OH239094   0.811   5.839  13.741
 5868TIP3    H139095   0.794   5.790  13.657
 5868TIP3    H239096   0.750   5.915  13.732
 5869TIP3   OH239097   0.123   6.993  12.013
 5869TIP3    H139098   0.219   6.999  12.029
 5869TIP3    H239099   0.121   6.927  11.940
 5870TIP3   OH239100   0.078   7.336  12.686
 5870TIP3    H139101   0.036   7.251  12.708
 5870TIP3    H239102   0.095   7.371  12.774
 5871TIP3   OH239103   1.629   6.952  13.744
 5871TIP3    H139104   1.540   6.946  13.785
 5871TIP3    H239105   1.668   7.031  13.788
 5872TIP3   OH239106   1.760   6.781  12.290
 5872TIP3    H139107   1.845   6.824  12.309
 5872TIP3    H239108   1.760   6.709  12.357
 5873TIP3   OH239109   1.797   6.590  12.478
 5873TIP3    H139110   1.723   6.540  12.518
 5873TIP3    H239111   1.857   6.606  12.554
 5874TIP3   OH239112   1.773   6.863  12.977
 5874TIP3    H139113   1.855   6.826  12.941
 5874TIP3    H239114   1.786   6.958  12.960
 5875TIP3   OH239115   1.624   7.154  13.206
 5875TIP3    H139116   1.558   7.188  13.266
 5875TIP3    H239117   1.571   7.110  13.135
 5876TIP3   OH239118   1.828   6.574  12.117
 5876TIP3    H139119   1.771   6.610  12.045
 5876TIP3    H239120   1.819   6.645  12.184
 5877TIP3   OH239121   1.663   6.298  11.970
 5877TIP3    H139122   1.671   6.365  11.901
 5877TIP3    H239123   1.646   6.216  11.920
 5878TIP3   OH239124   1.578   6.439  12.534
 5878TIP3    H139125   1.563   6.343  12.532
 5878TIP3    H239126   1.544   6.463  12.622
 5879TIP3   OH239127   0.078   6.646  12.938
 5879TIP3    H139128   0.097   6.641  12.842
 5879TIP3    H239129   0.166   6.633  12.977
 5880TIP3   OH239130   1.663   6.636  13.502
 5880TIP3    H139131   1.724   6.561  13.517
 5880TIP3    H239132   1.723   6.713  13.504
 5881TIP3   OH239133   1.814   6.425  13.568
 5881TIP3    H139134   1.726   6.385  13.552
 5881TIP3    H239135   1.872   6.348  13.560
 5882TIP3   OH239136   1.587   6.043  11.883
 5882TIP3    H139137   1.647   6.001  11.947
 5882TIP3    H239138   1.501   6.001  11.900
 5883TIP3   OH239139   1.544   6.197  12.378
 5883TIP3    H139140   1.576   6.105  12.393
 5883TIP3    H239141   1.626   6.238  12.345
 5884TIP3   OH239142   1.609   6.252  12.924
 5884TIP3    H139143   1.705   6.276  12.923
 5884TIP3    H239144   1.589   6.266  13.018
 5885TIP3   OH239145   1.616   6.325  13.203
 5885TIP3    H139146   1.528   6.354  13.236
 5885TIP3    H239147   1.659   6.411  13.181
 5886TIP3   OH239148   0.058   6.169  13.554
 5886TIP3    H139149   0.148   6.151  13.580
 5886TIP3    H239150   0.000   6.097  13.589
 5887TIP3   OH239151   1.842   5.728  13.738
 5887TIP3    H139152   1.877   5.663  13.675
 5887TIP3    H239153   1.854   5.811  13.687
 5888TIP3   OH239154   1.612   5.925  12.385
 5888TIP3    H139155   1.632   5.880  12.470
 5888TIP3    H239156   1.551   5.863  12.340
 5889TIP3   OH239157   0.157   6.003  12.842
 5889TIP3    H139158   0.209   5.924  12.868
 5889TIP3    H239159   0.211   6.074  12.881
 5890TIP3   OH239160   0.063   6.350  12.983
 5890TIP3    H139161   0.059   6.315  12.891
 5890TIP3    H239162   0.034   6.439  12.964
 5891TIP3   OH239163   1.795   5.939  13.573
 5891TIP3    H139164   1.701   5.966  13.567
 5891TIP3    H239165   1.800   5.885  13.493
 5892TIP3   OH239166   1.794   5.930  12.041
 5892TIP3    H139167   1.836   5.859  11.988
 5892TIP3    H239168   1.864   5.996  12.045
 5893TIP3   OH239169   0.063   5.932  12.327
 5893TIP3    H139170  -0.032   5.952  12.329
 5893TIP3    H239171   0.090   5.998  12.261
 5894TIP3   OH239172   7.378   5.798  13.192
 5894TIP3    H139173   7.302   5.777  13.249
 5894TIP3    H239174   7.325   5.855  13.133
 5895TIP3   OH239175   0.243   7.122  13.601
 5895TIP3    H139176   0.159   7.139  13.554
 5895TIP3    H239177   0.214   7.112  13.692
 5896TIP3   OH239178   0.539   7.220  13.231
 5896TIP3    H139179   0.493   7.297  13.194
 5896TIP3    H239180   0.626   7.225  13.189
 5897TIP3   OH239181   1.696   5.749  13.357
 5897TIP3    H139182   1.613   5.779  13.316
 5897TIP3    H239183   1.714   5.668  13.303
 5898TIP3   OH239184   0.429   7.267  12.770
 5898TIP3    H139185   0.412   7.180  12.808
 5898TIP3    H239186   0.507   7.292  12.827
 5899TIP3   OH239187   0.644   7.270  12.896
 5899TIP3    H139188   0.709   7.223  12.843
 5899TIP3    H239189   0.692   7.319  12.965
 5900TIP3   OH239190   1.036   5.892  12.787
 5900TIP3    H139191   0.968   5.827  12.813
 5900TIP3    H239192   1.091   5.840  12.727
 5901TIP3   OH239193   1.549   5.698  12.795
 5901TIP3    H139194   1.611   5.757  12.744
 5901TIP3    H239195   1.462   5.734  12.771
 5902TIP3   OH239196   1.718   5.820  12.624
 5902TIP3    H139197   1.786   5.764  12.579
 5902TIP3    H239198   1.765   5.905  12.632
 5903TIP3   OH239199   0.270   5.754  12.572
 5903TIP3    H139200   0.193   5.732  12.515
 5903TIP3    H239201   0.322   5.671  12.565
 5904TIP3   OH239202   0.188   5.741  12.158
 5904TIP3    H139203   0.204   5.801  12.084
 5904TIP3    H239204   0.106   5.777  12.197
 5905TIP3   OH239205   0.722   5.747  12.549
 5905TIP3    H139206   0.812   5.784  12.544
 5905TIP3    H239207   0.716   5.726  12.642
 5906TIP3   OH239208   1.289   5.750  12.713
 5906TIP3    H139209   1.288   5.760  12.618
 5906TIP3    H239210   1.253   5.658  12.726
 5907TIP3   OH239211   1.419   5.753  12.282
 5907TIP3    H139212   1.345   5.813  12.264
 5907TIP3    H239213   1.373   5.667  12.301
 5908TIP3   OH239214   0.140  -0.031  12.282
 5908TIP3    H139215   0.089  -0.033  12.196
 5908TIP3    H239216   0.152   0.062  12.281
 5909TIP3   OH239217   0.335   5.926  11.992
 5909TIP3    H139218   0.388   5.862  11.941
 5909TIP3    H239219   0.399   5.954  12.059
 5910TIP3   OH239220   0.837   5.951  12.235
 5910TIP3    H139221   0.860   5.891  12.309
 5910TIP3    H239222   0.840   6.037  12.283
 5911TIP3   OH239223   0.258   5.812  13.521
 5911TIP3    H139224   0.225   5.729  13.559
 5911TIP3    H239225   0.352   5.806  13.552
 5912TIP3   OH239226   0.462   5.746  13.678
 5912TIP3    H139227   0.551   5.713  13.657
 5912TIP3    H239228   0.423   5.666  13.720
 5913TIP3   OH239229   1.302   5.676  13.694
 5913TIP3    H139230   1.312   5.629  13.779
 5913TIP3    H239231   1.394   5.674  13.660
 5914TIP3   OH239232   1.616   7.275  13.570
 5914TIP3    H139233   1.544   7.265  13.505
 5914TIP3    H239234   1.620   7.371  13.579
 5915TIP3   OH239235   3.066   6.667  12.559
 5915TIP3    H139236   3.068   6.765  12.553
 5915TIP3    H239237   2.995   6.644  12.497
 5916TIP3   OH239238   2.953   6.595  12.907
 5916TIP3    H139239   2.951   6.529  12.978
 5916TIP3    H239240   2.920   6.546  12.831
 5917TIP3   OH239241   2.189   6.560  13.063
 5917TIP3    H139242   2.197   6.493  13.134
 5917TIP3    H239243   2.263   6.619  13.084
 5918TIP3   OH239244   3.323   6.888  12.736
 5918TIP3    H139245   3.280   6.817  12.784
 5918TIP3    H239246   3.325   6.960  12.801
 5919TIP3   OH239247   2.284   7.005  12.916
 5919TIP3    H139248   2.250   6.920  12.882
 5919TIP3    H239249   2.379   6.985  12.921
 5920TIP3   OH239250   1.946   6.364  12.461
 5920TIP3    H139251   1.901   6.450  12.455
 5920TIP3    H239252   1.889   6.309  12.405
 5921TIP3   OH239253   2.016   6.585  12.674
 5921TIP3    H139254   2.041   6.504  12.722
 5921TIP3    H239255   2.088   6.594  12.610
 5922TIP3   OH239256   2.790   6.834  12.952
 5922TIP3    H139257   2.825   6.771  12.888
 5922TIP3    H239258   2.869   6.851  13.006
 5923TIP3   OH239259   3.645   6.011  13.028
 5923TIP3    H139260   3.670   6.062  13.107
 5923TIP3    H239261   3.708   6.042  12.961
 5924TIP3   OH239262   3.107   6.281  12.984
 5924TIP3    H139263   3.123   6.185  12.984
 5924TIP3    H239264   3.097   6.296  12.888
 5925TIP3   OH239265   2.420   6.090  12.708
 5925TIP3    H139266   2.429   6.174  12.660
 5925TIP3    H239267   2.378   6.033  12.640
 5926TIP3   OH239268   3.193   6.101  12.547
 5926TIP3    H139269   3.260   6.067  12.610
 5926TIP3    H239270   3.248   6.154  12.488
 5927TIP3   OH239271   2.082   6.330  12.782
 5927TIP3    H139272   2.149   6.275  12.826
 5927TIP3    H239273   2.091   6.300  12.690
 5928TIP3   OH239274   2.598   6.486  12.710
 5928TIP3    H139275   2.664   6.429  12.753
 5928TIP3    H239276   2.545   6.420  12.663
 5929TIP3   OH239277   3.699   6.146  13.255
 5929TIP3    H139278   3.632   6.215  13.245
 5929TIP3    H239279   3.699   6.128  13.350
 5930TIP3   OH239280   2.308   5.980  13.112
 5930TIP3    H139281   2.281   6.036  13.037
 5930TIP3    H239282   2.240   6.003  13.179
 5931TIP3   OH239283   3.041   6.928  12.466
 5931TIP3    H139284   3.012   6.900  12.379
 5931TIP3    H239285   3.010   7.021  12.472
 5932TIP3   OH239286   2.562   6.744  13.138
 5932TIP3    H139287   2.490   6.808  13.156
 5932TIP3    H239288   2.632   6.804  13.108
 5933TIP3   OH239289   3.371   6.033  12.743
 5933TIP3    H139290   3.353   5.955  12.797
 5933TIP3    H239291   3.440   6.076  12.796
 5934TIP3   OH239292   2.264   6.167  12.913
 5934TIP3    H139293   2.328   6.234  12.946
 5934TIP3    H239294   2.317   6.123  12.841
 5935TIP3   OH239295   2.405   6.943  13.219
 5935TIP3    H139296   2.401   7.033  13.183
 5935TIP3    H239297   2.316   6.937  13.261
 5936TIP3   OH239298   2.014   6.910  12.299
 5936TIP3    H139299   1.988   6.938  12.210
 5936TIP3    H239300   2.022   6.994  12.347
 5937TIP3   OH239301   3.377   7.075  12.975
 5937TIP3    H139302   3.279   7.080  12.985
 5937TIP3    H239303   3.403   7.166  12.953
 5938TIP3   OH239304   3.405   5.903  13.113
 5938TIP3    H139305   3.334   5.966  13.104
 5938TIP3    H239306   3.478   5.941  13.059
 5939TIP3   OH239307   2.706   5.712  12.858
 5939TIP3    H139308   2.693   5.616  12.852
 5939TIP3    H239309   2.618   5.743  12.887
 5940TIP3   OH239310   3.201   7.233  12.624
 5940TIP3    H139311   3.252   7.169  12.573
 5940TIP3    H239312   3.238   7.317  12.592
 5941TIP3   OH239313   3.324   7.042  12.483
 5941TIP3    H139314   3.291   6.973  12.423
 5941TIP3    H239315   3.324   6.995  12.569
 5942TIP3   OH239316   3.484   6.902  13.332
 5942TIP3    H139317   3.499   6.838  13.260
 5942TIP3    H239318   3.505   6.987  13.291
 5943TIP3   OH239319   2.934   6.593  12.310
 5943TIP3    H139320   2.863   6.649  12.273
 5943TIP3    H239321   3.004   6.601  12.243
 5944TIP3   OH239322   2.940   6.446  12.011
 5944TIP3    H139323   3.011   6.445  12.077
 5944TIP3    H239324   2.971   6.377  11.951
 5945TIP3   OH239325   3.672   6.533  13.138
 5945TIP3    H139326   3.606   6.605  13.143
 5945TIP3    H239327   3.720   6.556  13.056
 5946TIP3   OH239328   3.277   6.614  12.401
 5946TIP3    H139329   3.202   6.638  12.462
 5946TIP3    H239330   3.323   6.545  12.452
 5947TIP3   OH239331   3.270   6.430  13.312
 5947TIP3    H139332   3.271   6.511  13.366
 5947TIP3    H239333   3.206   6.460  13.244
 5948TIP3   OH239334   2.439   6.680  12.593
 5948TIP3    H139335   2.407   6.640  12.508
 5948TIP3    H239336   2.500   6.610  12.626
 5949TIP3   OH239337   2.574   7.019  12.860
 5949TIP3    H139338   2.570   6.964  12.782
 5949TIP3    H239339   2.650   6.983  12.908
 5950TIP3   OH239340   2.473   6.554  12.958
 5950TIP3    H139341   2.529   6.566  12.879
 5950TIP3    H239342   2.510   6.620  13.020
 5951TIP3   OH239343   3.111   7.110  13.028
 5951TIP3    H139344   3.082   7.173  13.093
 5951TIP3    H239345   3.086   7.024  13.071
 5952TIP3   OH239346   2.567   6.998  13.428
 5952TIP3    H139347   2.527   7.073  13.477
 5952TIP3    H239348   2.499   6.978  13.359
 5953TIP3   OH239349   3.164   6.533  12.169
 5953TIP3    H139350   3.221   6.549  12.248
 5953TIP3    H239351   3.208   6.582  12.097
 5954TIP3   OH239352   2.260   6.613  13.346
 5954TIP3    H139353   2.264   6.680  13.417
 5954TIP3    H239354   2.167   6.624  13.321
 5955TIP3   OH239355   2.934   7.204  12.517
 5955TIP3    H139356   2.983   7.236  12.593
 5955TIP3    H239357   2.880   7.279  12.491
 5956TIP3   OH239358   2.389   7.204  13.502
 5956TIP3    H139359   2.386   7.188  13.406
 5956TIP3    H239360   2.296   7.189  13.529
 5957TIP3   OH239361   3.538   5.706  12.156
 5957TIP3    H139362   3.443   5.719  12.182
 5957TIP3    H239363   3.556   5.791  12.113
 5958TIP3   OH239364   2.337   6.583  12.354
 5958TIP3    H139365   2.308   6.661  12.303
 5958TIP3    H239366   2.271   6.517  12.332
 5959TIP3   OH239367   3.652   7.142  11.995
 5959TIP3    H139368   3.660   7.238  12.006
 5959TIP3    H239369   3.744   7.112  11.987
 5960TIP3   OH239370   1.946   6.825  13.240
 5960TIP3    H139371   1.899   6.817  13.155
 5960TIP3    H239372   1.951   6.730  13.264
 5961TIP3   OH239373   1.924   7.101  12.919
 5961TIP3    H139374   2.019   7.087  12.920
 5961TIP3    H239375   1.913   7.179  12.976
 5962TIP3   OH239376   3.743   7.167  13.492
 5962TIP3    H139377   3.733   7.071  13.486
 5962TIP3    H239378   3.656   7.194  13.530
 5963TIP3   OH239379   2.839   7.126  13.373
 5963TIP3    H139380   2.850   7.205  13.427
 5963TIP3    H239381   2.754   7.087  13.404
 5964TIP3   OH239382   3.459   6.315  13.538
 5964TIP3    H139383   3.414   6.362  13.465
 5964TIP3    H239384   3.460   6.224  13.506
 5965TIP3   OH239385   2.173   6.957  13.339
 5965TIP3    H139386   2.195   6.918  13.426
 5965TIP3    H239387   2.087   6.916  13.315
 5966TIP3   OH239388   2.440   5.802  12.934
 5966TIP3    H139389   2.350   5.792  12.896
 5966TIP3    H239390   2.429   5.887  12.980
 5967TIP3   OH239391   2.904   5.772  13.271
 5967TIP3    H139392   2.944   5.729  13.349
 5967TIP3    H239393   2.807   5.757  13.285
 5968TIP3   OH239394   3.235   6.153  13.359
 5968TIP3    H139395   3.179   6.134  13.439
 5968TIP3    H239396   3.217   6.245  13.335
 5969TIP3   OH239397   3.309   6.636  11.944
 5969TIP3    H139398   3.311   6.615  11.847
 5969TIP3    H239399   3.395   6.679  11.953
 5970TIP3   OH239400   2.867   6.028  11.999
 5970TIP3    H139401   2.842   6.021  12.093
 5970TIP3    H239402   2.842   5.938  11.972
 5971TIP3   OH239403   2.450   6.299  13.054
 5971TIP3    H139404   2.378   6.297  13.120
 5971TIP3    H239405   2.447   6.392  13.021
 5972TIP3   OH239406   2.446   6.315  12.543
 5972TIP3    H139407   2.354   6.286  12.531
 5972TIP3    H239408   2.486   6.283  12.460
 5973TIP3   OH239409   2.999   6.362  12.422
 5973TIP3    H139410   2.958   6.445  12.387
 5973TIP3    H239411   3.069   6.347  12.356
 5974TIP3   OH239412   2.906   6.383  13.566
 5974TIP3    H139413   2.852   6.307  13.598
 5974TIP3    H239414   2.990   6.369  13.614
 5975TIP3   OH239415   3.101   6.310  12.705
 5975TIP3    H139416   3.076   6.367  12.630
 5975TIP3    H239417   3.114   6.225  12.658
 5976TIP3   OH239418   2.215   6.328  13.228
 5976TIP3    H139419   2.219   6.368  13.317
 5976TIP3    H239420   2.169   6.244  13.246
 5977TIP3   OH239421   2.553   6.066  11.912
 5977TIP3    H139422   2.508   6.023  11.987
 5977TIP3    H239423   2.481   6.107  11.862
 5978TIP3   OH239424   1.879   6.039  12.622
 5978TIP3    H139425   1.946   6.035  12.693
 5978TIP3    H239426   1.925   5.999  12.546
 5979TIP3   OH239427   2.006   6.110  12.160
 5979TIP3    H139428   2.056   6.172  12.103
 5979TIP3    H239429   1.937   6.171  12.193
 5980TIP3   OH239430   3.023   6.471  13.164
 5980TIP3    H139431   3.059   6.403  13.103
 5980TIP3    H239432   2.978   6.417  13.231
 5981TIP3   OH239433   2.703   6.066  12.645
 5981TIP3    H139434   2.610   6.068  12.675
 5981TIP3    H239435   2.752   6.053  12.728
 5982TIP3   OH239436   2.184   6.224  12.531
 5982TIP3    H139437   2.095   6.237  12.493
 5982TIP3    H239438   2.214   6.140  12.492
 5983TIP3   OH239439   2.549   6.226  12.294
 5983TIP3    H139440   2.644   6.238  12.312
 5983TIP3    H239441   2.526   6.295  12.229
 5984TIP3   OH239442   3.144   5.990  12.970
 5984TIP3    H139443   3.074   5.997  13.039
 5984TIP3    H239444   3.093   5.968  12.891
 5985TIP3   OH239445   2.418   6.345  12.053
 5985TIP3    H139446   2.365   6.307  11.981
 5985TIP3    H239447   2.501   6.365  12.006
 5986TIP3   OH239448   2.232   6.802  13.559
 5986TIP3    H139449   2.304   6.826  13.619
 5986TIP3    H239450   2.153   6.815  13.617
 5987TIP3   OH239451   2.832   6.343  12.835
 5987TIP3    H139452   2.891   6.289  12.781
 5987TIP3    H239453   2.818   6.289  12.913
 5988TIP3   OH239454   2.333   5.957  12.478
 5988TIP3    H139455   2.302   5.865  12.475
 5988TIP3    H239456   2.412   5.953  12.422
 5989TIP3   OH239457   2.696   6.177  13.076
 5989TIP3    H139458   2.612   6.227  13.086
 5989TIP3    H239459   2.750   6.210  13.150
 5990TIP3   OH239460   2.754   6.798  12.246
 5990TIP3    H139461   2.675   6.751  12.213
 5990TIP3    H239462   2.733   6.809  12.341
 5991TIP3   OH239463   3.470   6.717  13.126
 5991TIP3    H139464   3.529   6.765  13.065
 5991TIP3    H239465   3.385   6.725  13.078
 5992TIP3   OH239466   3.139   6.083  12.061
 5992TIP3    H139467   3.043   6.092  12.051
 5992TIP3    H239468   3.170   6.167  12.099
 5993TIP3   OH239469   2.902   6.825  13.369
 5993TIP3    H139470   2.869   6.782  13.449
 5993TIP3    H239471   2.880   6.918  13.379
 5994TIP3   OH239472   3.211   6.273  12.229
 5994TIP3    H139473   3.300   6.257  12.265
 5994TIP3    H239474   3.220   6.353  12.175
 5995TIP3   OH239475   2.265   6.736  12.825
 5995TIP3    H139476   2.335   6.730  12.758
 5995TIP3    H239477   2.271   6.650  12.871
 5996TIP3   OH239478   2.966   6.946  12.150
 5996TIP3    H139479   2.932   7.030  12.184
 5996TIP3    H239480   2.892   6.885  12.170
 5997TIP3   OH239481   1.964   6.578  13.352
 5997TIP3    H139482   1.983   6.534  13.437
 5997TIP3    H239483   1.902   6.516  13.309
 5998TIP3   OH239484   2.665   6.533  13.572
 5998TIP3    H139485   2.635   6.507  13.484
 5998TIP3    H239486   2.758   6.504  13.571
 5999TIP3   OH239487   3.132   7.072  13.360
 5999TIP3    H139488   3.038   7.084  13.341
 5999TIP3    H239489   3.129   7.094  13.456
 6000TIP3   OH239490   3.702   6.286  12.203
 6000TIP3    H139491   3.644   6.255  12.130
 6000TIP3    H239492   3.709   6.381  12.176
 6001TIP3   OH239493   3.700   6.869  13.484
 6001TIP3    H139494   3.611   6.894  13.448
 6001TIP3    H239495   3.755   6.868  13.404
 6002TIP3   OH239496   3.539   7.156  12.253
 6002TIP3    H139497   3.489   7.079  12.276
 6002TIP3    H239498   3.555   7.152  12.157
 6003TIP3   OH239499   3.249   6.650  12.953
 6003TIP3    H139500   3.155   6.628  12.944
 6003TIP3    H239501   3.293   6.573  12.912
 6004TIP3   OH239502   2.504   7.080  12.561
 6004TIP3    H139503   2.551   7.162  12.542
 6004TIP3    H239504   2.414   7.105  12.532
 6005TIP3   OH239505   2.078   6.567  12.021
 6005TIP3    H139506   2.137   6.633  12.061
 6005TIP3    H239507   1.990   6.600  12.047
 6006TIP3   OH239508   2.646   6.849  12.517
 6006TIP3    H139509   2.616   6.942  12.525
 6006TIP3    H239510   2.571   6.803  12.560
 6007TIP3   OH239511   2.704   7.247  13.137
 6007TIP3    H139512   2.729   7.340  13.126
 6007TIP3    H239513   2.749   7.230  13.221
 6008TIP3   OH239514   2.482  -0.004  12.442
 6008TIP3    H139515   2.398   0.015  12.482
 6008TIP3    H239516   2.530   0.069  12.488
 6009TIP3   OH239517   3.046   6.871  13.121
 6009TIP3    H139518   3.007   6.848  13.208
 6009TIP3    H239519   3.106   6.797  13.102
 6010TIP3   OH239520   3.273   6.970  12.026
 6010TIP3    H139521   3.304   6.929  12.109
 6010TIP3    H239522   3.177   6.958  12.037
 6011TIP3   OH239523   3.318   7.322  13.368
 6011TIP3    H139524   3.251   7.273  13.320
 6011TIP3    H239525   3.339   7.396  13.308
 6012TIP3   OH239526   2.129   6.052  13.307
 6012TIP3    H139527   2.038   6.087  13.304
 6012TIP3    H239528   2.117   5.967  13.352
 6013TIP3   OH239529   3.353   6.836  12.251
 6013TIP3    H139530   3.329   6.760  12.308
 6013TIP3    H239531   3.448   6.844  12.271
 6014TIP3   OH239532   2.091   7.229  13.151
 6014TIP3    H139533   2.118   7.137  13.151
 6014TIP3    H239534   2.114   7.261  13.239
 6015TIP3   OH239535   2.684   7.081  11.874
 6015TIP3    H139536   2.698   7.002  11.819
 6015TIP3    H239537   2.647   7.040  11.956
 6016TIP3   OH239538   2.567   7.033  12.122
 6016TIP3    H139539   2.590   6.983  12.201
 6016TIP3    H239540   2.574   7.127  12.151
 6017TIP3   OH239541   2.219   6.759  12.170
 6017TIP3    H139542   2.148   6.798  12.226
 6017TIP3    H239543   2.270   6.838  12.143
 6018TIP3   OH239544   3.001   6.029  13.201
 6018TIP3    H139545   3.072   6.034  13.266
 6018TIP3    H239546   2.963   5.940  13.219
 6019TIP3   OH239547   3.072   6.002  12.317
 6019TIP3    H139548   3.101   6.031  12.228
 6019TIP3    H239549   3.139   6.034  12.377
 6020TIP3   OH239550   2.846   7.203  12.194
 6020TIP3    H139551   2.764   7.253  12.199
 6020TIP3    H239552   2.897   7.254  12.129
 6021TIP3   OH239553   2.797   6.165  12.393
 6021TIP3    H139554   2.880   6.217  12.397
 6021TIP3    H239555   2.774   6.148  12.486
 6022TIP3   OH239556   2.854   6.263  13.311
 6022TIP3    H139557   2.863   6.320  13.390
 6022TIP3    H239558   2.920   6.194  13.322
 6023TIP3   OH239559   2.886   5.869  12.487
 6023TIP3    H139560   2.853   5.935  12.548
 6023TIP3    H239561   2.953   5.921  12.436
 6024TIP3   OH239562   2.589  -0.033  12.192
 6024TIP3    H139563   2.595   0.049  12.140
 6024TIP3    H239564   2.557  -0.002  12.280
 6025TIP3   OH239565   2.450   5.978  12.152
 6025TIP3    H139566   2.446   6.068  12.190
 6025TIP3    H239567   2.542   5.953  12.178
 6026TIP3   OH239568   3.474   6.052  13.397
 6026TIP3    H139569   3.380   6.081  13.384
 6026TIP3    H239570   3.505   6.049  13.304
 6027TIP3   OH239571   3.334   6.430  12.799
 6027TIP3    H139572   3.252   6.385  12.770
 6027TIP3    H239573   3.381   6.360  12.851
 6028TIP3   OH239574   2.274   7.021  12.058
 6028TIP3    H139575   2.339   7.087  12.087
 6028TIP3    H239576   2.326   6.977  11.988
 6029TIP3   OH239577   2.109   6.288  11.971
 6029TIP3    H139578   2.109   6.384  11.991
 6029TIP3    H239579   2.020   6.269  11.942
 6030TIP3   OH239580   2.191   5.768  12.843
 6030TIP3    H139581   2.169   5.770  12.747
 6030TIP3    H239582   2.147   5.684  12.870
 6031TIP3   OH239583   2.091   7.156  12.465
 6031TIP3    H139584   2.004   7.201  12.457
 6031TIP3    H239585   2.134   7.207  12.395
 6032TIP3   OH239586   2.487   7.289  13.761
 6032TIP3    H139587   2.573   7.257  13.785
 6032TIP3    H239588   2.480   7.278  13.664
 6033TIP3   OH239589   2.887   7.264  11.894
 6033TIP3    H139590   2.817   7.199  11.914
 6033TIP3    H239591   2.959   7.210  11.863
 6034TIP3   OH239592   3.130   7.139  13.616
 6034TIP3    H139593   3.092   7.059  13.654
 6034TIP3    H239594   3.199   7.163  13.680
 6035TIP3   OH239595   3.351   7.239  11.917
 6035TIP3    H139596   3.378   7.158  11.960
 6035TIP3    H239597   3.423   7.263  11.855
 6036TIP3   OH239598   2.000   6.803  13.687
 6036TIP3    H139599   2.015   6.711  13.656
 6036TIP3    H239600   1.925   6.831  13.632
 6037TIP3   OH239601   2.434   6.838  11.892
 6037TIP3    H139602   2.445   6.760  11.948
 6037TIP3    H239603   2.506   6.825  11.828
 6038TIP3   OH239604   2.670   6.800  13.627
 6038TIP3    H139605   2.635   6.829  13.540
 6038TIP3    H239606   2.680   6.702  13.617
 6039TIP3   OH239607   2.976   6.945  11.869
 6039TIP3    H139608   2.946   6.957  11.960
 6039TIP3    H239609   2.955   6.850  11.856
 6040TIP3   OH239610   3.240   6.787  13.365
 6040TIP3    H139611   3.317   6.847  13.356
 6040TIP3    H239612   3.168   6.852  13.370
 6041TIP3   OH239613   2.089   6.525  13.626
 6041TIP3    H139614   2.129   6.438  13.616
 6041TIP3    H239615   2.063   6.525  13.720
 6042TIP3   OH239616   2.552   6.637  12.131
 6042TIP3    H139617   2.504   6.585  12.196
 6042TIP3    H239618   2.581   6.569  12.065
 6043TIP3   OH239619   2.480   6.420  13.362
 6043TIP3    H139620   2.419   6.491  13.389
 6043TIP3    H239621   2.518   6.456  13.280
 6044TIP3   OH239622   2.659   6.460  11.953
 6044TIP3    H139623   2.643   6.449  11.857
 6044TIP3    H239624   2.757   6.467  11.959
 6045TIP3   OH239625   2.985   6.674  13.693
 6045TIP3    H139626   3.082   6.677  13.685
 6045TIP3    H239627   2.969   6.599  13.752
 6046TIP3   OH239628   3.595   6.692  11.896
 6046TIP3    H139629   3.573   6.653  11.811
 6046TIP3    H239630   3.602   6.788  11.876
 6047TIP3   OH239631   2.519   6.158  13.469
 6047TIP3    H139632   2.531   6.085  13.405
 6047TIP3    H239633   2.515   6.238  13.413
 6048TIP3   OH239634   2.559   5.995  13.222
 6048TIP3    H139635   2.611   6.042  13.152
 6048TIP3    H239636   2.471   5.986  13.180
 6049TIP3   OH239637   2.714   6.542  13.247
 6049TIP3    H139638   2.790   6.526  13.189
 6049TIP3    H239639   2.679   6.626  13.215
 6050TIP3   OH239640   3.154   6.320  13.745
 6050TIP3    H139641   3.177   6.226  13.735
 6050TIP3    H239642   3.241   6.364  13.746
 6051TIP3   OH239643   3.287   6.599  13.558
 6051TIP3    H139644   3.262   6.671  13.497
 6051TIP3    H239645   3.383   6.595  13.540
 6052TIP3   OH239646   2.365   6.282  13.661
 6052TIP3    H139647   2.288   6.224  13.642
 6052TIP3    H239648   2.431   6.246  13.599
 6053TIP3   OH239649   2.639   5.739  13.263
 6053TIP3    H139650   2.623   5.836  13.252
 6053TIP3    H239651   2.563   5.703  13.213
 6054TIP3   OH239652   2.766   6.172  13.623
 6054TIP3    H139653   2.736   6.149  13.713
 6054TIP3    H239654   2.686   6.152  13.570
 6055TIP3   OH239655   3.037   6.086  13.530
 6055TIP3    H139656   2.941   6.090  13.543
 6055TIP3    H239657   3.065   6.022  13.598
 6056TIP3   OH239658   3.197   5.949  13.725
 6056TIP3    H139659   3.190   5.851  13.727
 6056TIP3    H239660   3.169   5.977  13.814
 6057TIP3   OH239661   2.175   6.074  13.634
 6057TIP3    H139662   2.200   6.001  13.574
 6057TIP3    H239663   2.167   6.029  13.720
 6058TIP3   OH239664   2.660   5.676  13.532
 6058TIP3    H139665   2.729   5.607  13.529
 6058TIP3    H239666   2.649   5.694  13.437
 6059TIP3   OH239667   2.696   5.839  13.741
 6059TIP3    H139668   2.680   5.790  13.657
 6059TIP3    H239669   2.636   5.915  13.732
 6060TIP3   OH239670   2.002   6.991  12.004
 6060TIP3    H139671   2.097   6.997  12.028
 6060TIP3    H239672   2.006   6.922  11.933
 6061TIP3   OH239673   1.951   7.338  12.691
 6061TIP3    H139674   1.921   7.249  12.712
 6061TIP3    H239675   1.979   7.374  12.777
 6062TIP3   OH239676   3.515   6.951  13.746
 6062TIP3    H139677   3.425   6.947  13.783
 6062TIP3    H239678   3.553   7.032  13.788
 6063TIP3   OH239679   3.644   6.783  12.293
 6063TIP3    H139680   3.732   6.820  12.307
 6063TIP3    H239681   3.643   6.707  12.356
 6064TIP3   OH239682   3.683   6.592  12.478
 6064TIP3    H139683   3.609   6.540  12.517
 6064TIP3    H239684   3.742   6.604  12.554
 6065TIP3   OH239685   3.658   6.863  12.977
 6065TIP3    H139686   3.741   6.826  12.941
 6065TIP3    H239687   3.672   6.958  12.960
 6066TIP3   OH239688   3.510   7.154  13.206
 6066TIP3    H139689   3.444   7.188  13.266
 6066TIP3    H239690   3.457   7.110  13.135
 6067TIP3   OH239691   3.714   6.575  12.117
 6067TIP3    H139692   3.657   6.611  12.046
 6067TIP3    H239693   3.704   6.645  12.184
 6068TIP3   OH239694   3.549   6.298  11.970
 6068TIP3    H139695   3.556   6.365  11.901
 6068TIP3    H239696   3.531   6.216  11.921
 6069TIP3   OH239697   3.464   6.439  12.534
 6069TIP3    H139698   3.449   6.343  12.532
 6069TIP3    H239699   3.429   6.463  12.622
 6070TIP3   OH239700   1.965   6.648  12.939
 6070TIP3    H139701   1.984   6.639  12.843
 6070TIP3    H239702   2.054   6.631  12.976
 6071TIP3   OH239703   3.549   6.636  13.502
 6071TIP3    H139704   3.610   6.561  13.517
 6071TIP3    H239705   3.609   6.713  13.504
 6072TIP3   OH239706   3.700   6.425  13.568
 6072TIP3    H139707   3.612   6.385  13.552
 6072TIP3    H239708   3.758   6.348  13.560
 6073TIP3   OH239709   3.473   6.043  11.883
 6073TIP3    H139710   3.532   6.001  11.948
 6073TIP3    H239711   3.387   6.001  11.900
 6074TIP3   OH239712   3.430   6.197  12.378
 6074TIP3    H139713   3.461   6.104  12.392
 6074TIP3    H239714   3.511   6.238  12.345
 6075TIP3   OH239715   3.493   6.255  12.924
 6075TIP3    H139716   3.590   6.274  12.923
 6075TIP3    H239717   3.475   6.265  13.018
 6076TIP3   OH239718   3.500   6.326  13.203
 6076TIP3    H139719   3.413   6.354  13.236
 6076TIP3    H239720   3.544   6.411  13.181
 6077TIP3   OH239721   1.925   6.177  13.554
 6077TIP3    H139722   2.019   6.158  13.574
 6077TIP3    H239723   1.881   6.096  13.586
 6078TIP3   OH239724   3.727   5.728  13.738
 6078TIP3    H139725   3.763   5.663  13.675
 6078TIP3    H239726   3.740   5.811  13.687
 6079TIP3   OH239727   3.499   5.925  12.385
 6079TIP3    H139728   3.517   5.880  12.470
 6079TIP3    H239729   3.436   5.863  12.340
 6080TIP3   OH239730   2.046   6.006  12.840
 6080TIP3    H139731   2.093   5.925  12.868
 6080TIP3    H239732   2.099   6.076  12.881
 6081TIP3   OH239733   1.875   6.305  12.945
 6081TIP3    H139734   1.930   6.282  12.868
 6081TIP3    H239735   1.919   6.387  12.972
 6082TIP3   OH239736   3.680   5.939  13.573
 6082TIP3    H139737   3.587   5.966  13.567
 6082TIP3    H239738   3.686   5.885  13.491
 6083TIP3   OH239739   3.679   5.930  12.040
 6083TIP3    H139740   3.722   5.858  11.988
 6083TIP3    H239741   3.750   5.996  12.045
 6084TIP3   OH239742   1.912   5.933  12.352
 6084TIP3    H139743   1.817   5.951  12.337
 6084TIP3    H239744   1.954   5.981  12.280
 6085TIP3   OH239745   1.907   5.800  13.183
 6085TIP3    H139746   1.839   5.779  13.250
 6085TIP3    H239747   1.861   5.867  13.128
 6086TIP3   OH239748   2.128   7.123  13.599
 6086TIP3    H139749   2.043   7.139  13.553
 6086TIP3    H239750   2.102   7.111  13.691
 6087TIP3   OH239751   2.423   7.219  13.231
 6087TIP3    H139752   2.379   7.297  13.195
 6087TIP3    H239753   2.512   7.224  13.192
 6088TIP3   OH239754   3.578   5.746  13.361
 6088TIP3    H139755   3.500   5.779  13.314
 6088TIP3    H239756   3.601   5.670  13.302
 6089TIP3   OH239757   2.315   7.267  12.769
 6089TIP3    H139758   2.296   7.180  12.807
 6089TIP3    H239759   2.391   7.290  12.828
 6090TIP3   OH239760   2.532   7.276  12.888
 6090TIP3    H139761   2.594   7.218  12.844
 6090TIP3    H239762   2.575   7.314  12.966
 6091TIP3   OH239763   2.922   5.891  12.786
 6091TIP3    H139764   2.854   5.827  12.813
 6091TIP3    H239765   2.977   5.840  12.726
 6092TIP3   OH239766   3.433   5.695  12.793
 6092TIP3    H139767   3.498   5.756  12.747
 6092TIP3    H239768   3.347   5.734  12.771
 6093TIP3   OH239769   3.602   5.821  12.622
 6093TIP3    H139770   3.672   5.764  12.581
 6093TIP3    H239771   3.651   5.905  12.633
 6094TIP3   OH239772   2.157   5.755  12.570
 6094TIP3    H139773   2.078   5.733  12.518
 6094TIP3    H239774   2.206   5.670  12.566
 6095TIP3   OH239775   2.035   5.730  12.144
 6095TIP3    H139776   2.083   5.797  12.091
 6095TIP3    H239777   1.977   5.788  12.197
 6096TIP3   OH239778   2.607   5.748  12.551
 6096TIP3    H139779   2.697   5.783  12.544
 6096TIP3    H239780   2.601   5.726  12.643
 6097TIP3   OH239781   3.175   5.749  12.714
 6097TIP3    H139782   3.173   5.760  12.618
 6097TIP3    H239783   3.139   5.658  12.725
 6098TIP3   OH239784   3.311   5.754  12.290
 6098TIP3    H139785   3.232   5.808  12.261
 6098TIP3    H239786   3.260   5.670  12.298
 6099TIP3   OH239787   2.008  -0.039  12.277
 6099TIP3    H139788   1.968  -0.031  12.188
 6099TIP3    H239789   2.033   0.053  12.281
 6100TIP3   OH239790   2.219   5.923  11.994
 6100TIP3    H139791   2.273   5.864  11.940
 6100TIP3    H239792   2.285   5.956  12.058
 6101TIP3   OH239793   2.718   5.952  12.236
 6101TIP3    H139794   2.748   5.891  12.307
 6101TIP3    H239795   2.727   6.037  12.284
 6102TIP3   OH239796   2.147   5.808  13.517
 6102TIP3    H139797   2.111   5.729  13.560
 6102TIP3    H239798   2.240   5.806  13.552
 6103TIP3   OH239799   2.348   5.746  13.678
 6103TIP3    H139800   2.437   5.713  13.657
 6103TIP3    H239801   2.310   5.666  13.720
 6104TIP3   OH239802   3.188   5.676  13.694
 6104TIP3    H139803   3.198   5.629  13.779
 6104TIP3    H239804   3.279   5.674  13.659
 6105TIP3   OH239805   3.501   7.275  13.570
 6105TIP3    H139806   3.429   7.265  13.505
 6105TIP3    H239807   3.506   7.371  13.579
 6106TIP3   OH239808   4.953   6.670  12.559
 6106TIP3    H139809   4.945   6.765  12.548
 6106TIP3    H239810   4.882   6.641  12.498
 6107TIP3   OH239811   4.840   6.596  12.907
 6107TIP3    H139812   4.837   6.530  12.978
 6107TIP3    H239813   4.805   6.545  12.831
 6108TIP3   OH239814   4.075   6.560  13.063
 6108TIP3    H139815   4.083   6.494  13.134
 6108TIP3    H239816   4.149   6.619  13.084
 6109TIP3   OH239817   5.210   6.888  12.740
 6109TIP3    H139818   5.172   6.814  12.791
 6109TIP3    H239819   5.215   6.960  12.806
 6110TIP3   OH239820   4.170   7.005  12.916
 6110TIP3    H139821   4.136   6.920  12.883
 6110TIP3    H239822   4.264   6.985  12.920
 6111TIP3   OH239823   3.832   6.364  12.461
 6111TIP3    H139824   3.787   6.450  12.455
 6111TIP3    H239825   3.774   6.309  12.405
 6112TIP3   OH239826   3.902   6.586  12.673
 6112TIP3    H139827   3.926   6.505  12.722
 6112TIP3    H239828   3.974   6.592  12.610
 6113TIP3   OH239829   4.677   6.836  12.951
 6113TIP3    H139830   4.709   6.770  12.889
 6113TIP3    H239831   4.754   6.850  13.007
 6114TIP3   OH239832   5.543   5.997  13.029
 6114TIP3    H139833   5.552   6.060  13.104
 6114TIP3    H239834   5.590   6.045  12.960
 6115TIP3   OH239835   4.994   6.281  12.986
 6115TIP3    H139836   5.008   6.185  12.983
 6115TIP3    H239837   4.983   6.297  12.890
 6116TIP3   OH239838   4.307   6.089  12.707
 6116TIP3    H139839   4.314   6.174  12.660
 6116TIP3    H239840   4.263   6.033  12.640
 6117TIP3   OH239841   5.078   6.099  12.545
 6117TIP3    H139842   5.145   6.067  12.611
 6117TIP3    H239843   5.134   6.155  12.489
 6118TIP3   OH239844   3.968   6.331  12.782
 6118TIP3    H139845   4.035   6.275  12.826
 6118TIP3    H239846   3.976   6.300  12.690
 6119TIP3   OH239847   4.484   6.486  12.710
 6119TIP3    H139848   4.549   6.429  12.753
 6119TIP3    H239849   4.430   6.420  12.663
 6120TIP3   OH239850   5.581   6.142  13.254
 6120TIP3    H139851   5.519   6.217  13.245
 6120TIP3    H239852   5.587   6.130  13.350
 6121TIP3   OH239853   4.196   5.982  13.113
 6121TIP3    H139854   4.166   6.035  13.037
 6121TIP3    H239855   4.125   6.002  13.179
 6122TIP3   OH239856   4.905   6.928  12.459
 6122TIP3    H139857   4.890   6.901  12.367
 6122TIP3    H239858   4.886   7.025  12.461
 6123TIP3   OH239859   4.447   6.744  13.138
 6123TIP3    H139860   4.375   6.808  13.156
 6123TIP3    H239861   4.517   6.804  13.108
 6124TIP3   OH239862   5.258   6.032  12.744
 6124TIP3    H139863   5.237   5.955  12.797
 6124TIP3    H239864   5.325   6.077  12.799
 6125TIP3   OH239865   4.150   6.167  12.912
 6125TIP3    H139866   4.214   6.234  12.946
 6125TIP3    H239867   4.203   6.123  12.841
 6126TIP3   OH239868   4.291   6.943  13.219
 6126TIP3    H139869   4.287   7.033  13.183
 6126TIP3    H239870   4.202   6.937  13.261
 6127TIP3   OH239871   3.896   6.885  12.282
 6127TIP3    H139872   3.873   6.927  12.196
 6127TIP3    H239873   3.921   6.958  12.333
 6128TIP3   OH239874   5.261   7.074  12.970
 6128TIP3    H139875   5.165   7.081  12.988
 6128TIP3    H239876   5.289   7.166  12.955
 6129TIP3   OH239877   5.292   5.903  13.114
 6129TIP3    H139878   5.219   5.964  13.103
 6129TIP3    H239879   5.363   5.943  13.059
 6130TIP3   OH239880   4.590   5.712  12.853
 6130TIP3    H139881   4.577   5.615  12.855
 6130TIP3    H239882   4.504   5.744  12.889
 6131TIP3   OH239883   5.086   7.230  12.624
 6131TIP3    H139884   5.141   7.173  12.571
 6131TIP3    H239885   5.121   7.316  12.596
 6132TIP3   OH239886   5.201   7.042  12.483
 6132TIP3    H139887   5.185   6.973  12.416
 6132TIP3    H239888   5.226   6.998  12.566
 6133TIP3   OH239889   5.370   6.902  13.332
 6133TIP3    H139890   5.384   6.837  13.260
 6133TIP3    H239891   5.391   6.987  13.291
 6134TIP3   OH239892   4.821   6.596  12.312
 6134TIP3    H139893   4.748   6.648  12.273
 6134TIP3    H239894   4.888   6.600  12.241
 6135TIP3   OH239895   4.825   6.446  12.011
 6135TIP3    H139896   4.897   6.445  12.077
 6135TIP3    H239897   4.857   6.377  11.951
 6136TIP3   OH239898   5.556   6.532  13.138
 6136TIP3    H139899   5.492   6.606  13.143
 6136TIP3    H239900   5.605   6.556  13.057
 6137TIP3   OH239901   5.165   6.618  12.403
 6137TIP3    H139902   5.087   6.634  12.461
 6137TIP3    H239903   5.209   6.544  12.450
 6138TIP3   OH239904   5.154   6.435  13.309
 6138TIP3    H139905   5.157   6.519  13.359
 6138TIP3    H239906   5.090   6.464  13.239
 6139TIP3   OH239907   4.325   6.680  12.593
 6139TIP3    H139908   4.292   6.640  12.508
 6139TIP3    H239909   4.386   6.610  12.626
 6140TIP3   OH239910   4.459   7.019  12.860
 6140TIP3    H139911   4.454   6.964  12.782
 6140TIP3    H239912   4.536   6.983  12.908
 6141TIP3   OH239913   4.359   6.554  12.958
 6141TIP3    H139914   4.415   6.566  12.879
 6141TIP3    H239915   4.395   6.620  13.020
 6142TIP3   OH239916   4.995   7.109  13.026
 6142TIP3    H139917   4.968   7.173  13.092
 6142TIP3    H239918   4.972   7.024  13.072
 6143TIP3   OH239919   4.453   6.998  13.428
 6143TIP3    H139920   4.413   7.073  13.477
 6143TIP3    H239921   4.385   6.978  13.359
 6144TIP3   OH239922   5.049   6.534  12.170
 6144TIP3    H139923   5.107   6.548  12.248
 6144TIP3    H239924   5.093   6.582  12.097
 6145TIP3   OH239925   4.146   6.613  13.346
 6145TIP3    H139926   4.150   6.680  13.417
 6145TIP3    H239927   4.052   6.623  13.321
 6146TIP3   OH239928   4.821   7.202  12.517
 6146TIP3    H139929   4.868   7.238  12.593
 6146TIP3    H239930   4.766   7.278  12.490
 6147TIP3   OH239931   4.275   7.204  13.502
 6147TIP3    H139932   4.272   7.188  13.406
 6147TIP3    H239933   4.181   7.189  13.528
 6148TIP3   OH239934   5.422   5.706  12.156
 6148TIP3    H139935   5.328   5.720  12.182
 6148TIP3    H239936   5.443   5.791  12.113
 6149TIP3   OH239937   4.222   6.582  12.355
 6149TIP3    H139938   4.195   6.659  12.301
 6149TIP3    H239939   4.156   6.517  12.333
 6150TIP3   OH239940   5.536   7.142  11.991
 6150TIP3    H139941   5.546   7.237  12.008
 6150TIP3    H239942   5.628   7.111  11.990
 6151TIP3   OH239943   3.831   6.824  13.241
 6151TIP3    H139944   3.785   6.817  13.155
 6151TIP3    H239945   3.836   6.730  13.264
 6152TIP3   OH239946   3.810   7.102  12.917
 6152TIP3    H139947   3.905   7.087  12.921
 6152TIP3    H239948   3.799   7.178  12.976
 6153TIP3   OH239949   5.628   7.167  13.492
 6153TIP3    H139950   5.619   7.071  13.486
 6153TIP3    H239951   5.542   7.194  13.530
 6154TIP3   OH239952   4.724   7.126  13.373
 6154TIP3    H139953   4.735   7.205  13.427
 6154TIP3    H239954   4.640   7.087  13.403
 6155TIP3   OH239955   5.351   6.314  13.540
 6155TIP3    H139956   5.321   6.368  13.465
 6155TIP3    H239957   5.355   6.222  13.507
 6156TIP3   OH239958   4.059   6.957  13.339
 6156TIP3    H139959   4.081   6.918  13.426
 6156TIP3    H239960   3.973   6.916  13.315
 6157TIP3   OH239961   4.326   5.802  12.933
 6157TIP3    H139962   4.235   5.792  12.897
 6157TIP3    H239963   4.316   5.886  12.980
 6158TIP3   OH239964   4.790   5.772  13.271
 6158TIP3    H139965   4.830   5.729  13.349
 6158TIP3    H239966   4.693   5.757  13.285
 6159TIP3   OH239967   5.117   6.146  13.354
 6159TIP3    H139968   5.060   6.124  13.433
 6159TIP3    H239969   5.096   6.235  13.321
 6160TIP3   OH239970   5.196   6.635  11.944
 6160TIP3    H139971   5.196   6.616  11.847
 6160TIP3    H239972   5.280   6.680  11.954
 6161TIP3   OH239973   4.755   6.027  12.000
 6161TIP3    H139974   4.725   6.023  12.093
 6161TIP3    H239975   4.725   5.939  11.970
 6162TIP3   OH239976   4.335   6.299  13.055
 6162TIP3    H139977   4.263   6.297  13.120
 6162TIP3    H239978   4.331   6.391  13.021
 6163TIP3   OH239979   4.332   6.316  12.543
 6163TIP3    H139980   4.239   6.287  12.531
 6163TIP3    H239981   4.372   6.283  12.460
 6164TIP3   OH239982   4.884   6.362  12.422
 6164TIP3    H139983   4.843   6.444  12.386
 6164TIP3    H239984   4.954   6.347  12.356
 6165TIP3   OH239985   4.795   6.381  13.564
 6165TIP3    H139986   4.736   6.308  13.598
 6165TIP3    H239987   4.873   6.370  13.618
 6166TIP3   OH239988   4.987   6.310  12.705
 6166TIP3    H139989   4.961   6.366  12.630
 6166TIP3    H239990   4.999   6.225  12.658
 6167TIP3   OH239991   4.101   6.329  13.228
 6167TIP3    H139992   4.105   6.368  13.317
 6167TIP3    H239993   4.055   6.245  13.246
 6168TIP3   OH239994   4.439   6.066  11.912
 6168TIP3    H139995   4.394   6.023  11.987
 6168TIP3    H239996   4.367   6.107  11.862
 6169TIP3   OH239997   3.765   6.042  12.621
 6169TIP3    H139998   3.831   6.035  12.694
 6169TIP3    H239999   3.810   5.997  12.547
 6170TIP3   OH240000   3.892   6.110  12.160
 6170TIP3    H140001   3.941   6.173  12.103
 6170TIP3    H240002   3.822   6.171  12.193
 6171TIP3   OH240003   4.914   6.470  13.167
 6171TIP3    H140004   4.943   6.404  13.101
 6171TIP3    H240005   4.860   6.417  13.229
 6172TIP3   OH240006   4.588   6.062  12.644
 6172TIP3    H140007   4.495   6.069  12.675
 6172TIP3    H240008   4.637   6.055  12.728
 6173TIP3   OH240009   4.070   6.224  12.531
 6173TIP3    H140010   3.981   6.237  12.493
 6173TIP3    H240011   4.098   6.140  12.492
 6174TIP3   OH240012   4.435   6.226  12.294
 6174TIP3    H140013   4.530   6.239  12.312
 6174TIP3    H240014   4.411   6.295  12.229
 6175TIP3   OH240015   5.029   5.990  12.970
 6175TIP3    H140016   4.959   5.997  13.039
 6175TIP3    H240017   4.978   5.968  12.891
 6176TIP3   OH240018   4.304   6.345  12.053
 6176TIP3    H140019   4.250   6.307  11.981
 6176TIP3    H240020   4.386   6.365  12.006
 6177TIP3   OH240021   4.117   6.802  13.559
 6177TIP3    H140022   4.189   6.826  13.619
 6177TIP3    H240023   4.039   6.815  13.617
 6178TIP3   OH240024   4.717   6.343  12.835
 6178TIP3    H140025   4.776   6.289  12.781
 6178TIP3    H240026   4.703   6.288  12.913
 6179TIP3   OH240027   4.219   5.957  12.479
 6179TIP3    H140028   4.186   5.865  12.476
 6179TIP3    H240029   4.297   5.954  12.422
 6180TIP3   OH240030   4.581   6.177  13.076
 6180TIP3    H140031   4.498   6.227  13.086
 6180TIP3    H240032   4.636   6.210  13.150
 6181TIP3   OH240033   4.640   6.798  12.247
 6181TIP3    H140034   4.560   6.752  12.213
 6181TIP3    H240035   4.617   6.809  12.341
 6182TIP3   OH240036   5.356   6.715  13.127
 6182TIP3    H140037   5.414   6.765  13.066
 6182TIP3    H240038   5.271   6.725  13.079
 6183TIP3   OH240039   5.024   6.081  12.063
 6183TIP3    H140040   4.929   6.095  12.050
 6183TIP3    H240041   5.057   6.167  12.097
 6184TIP3   OH240042   4.788   6.825  13.369
 6184TIP3    H140043   4.754   6.782  13.449
 6184TIP3    H240044   4.766   6.918  13.379
 6185TIP3   OH240045   5.097   6.271  12.228
 6185TIP3    H140046   5.186   6.257  12.265
 6185TIP3    H240047   5.105   6.352  12.175
 6186TIP3   OH240048   4.150   6.736  12.825
 6186TIP3    H140049   4.221   6.730  12.758
 6186TIP3    H240050   4.157   6.650  12.871
 6187TIP3   OH240051   4.853   6.945  12.153
 6187TIP3    H140052   4.816   7.031  12.183
 6187TIP3    H240053   4.777   6.885  12.169
 6188TIP3   OH240054   3.849   6.578  13.352
 6188TIP3    H140055   3.869   6.534  13.437
 6188TIP3    H240056   3.788   6.515  13.309
 6189TIP3   OH240057   4.550   6.533  13.572
 6189TIP3    H140058   4.520   6.507  13.484
 6189TIP3    H240059   4.643   6.504  13.571
 6190TIP3   OH240060   5.017   7.072  13.360
 6190TIP3    H140061   4.923   7.084  13.341
 6190TIP3    H240062   5.015   7.094  13.456
 6191TIP3   OH240063   5.591   6.287  12.199
 6191TIP3    H140064   5.527   6.255  12.133
 6191TIP3    H240065   5.592   6.383  12.178
 6192TIP3   OH240066   5.585   6.869  13.484
 6192TIP3    H140067   5.497   6.894  13.448
 6192TIP3    H240068   5.641   6.868  13.404
 6193TIP3   OH240069   5.412   7.161  12.251
 6193TIP3    H140070   5.379   7.077  12.277
 6193TIP3    H240071   5.444   7.150  12.160
 6194TIP3   OH240072   5.134   6.654  12.946
 6194TIP3    H140073   5.040   6.627  12.946
 6194TIP3    H240074   5.178   6.573  12.914
 6195TIP3   OH240075   4.388   7.080  12.560
 6195TIP3    H140076   4.437   7.161  12.542
 6195TIP3    H240077   4.300   7.106  12.533
 6196TIP3   OH240078   3.964   6.567  12.020
 6196TIP3    H140079   4.023   6.632  12.061
 6196TIP3    H240080   3.875   6.599  12.046
 6197TIP3   OH240081   4.533   6.850  12.518
 6197TIP3    H140082   4.500   6.942  12.525
 6197TIP3    H240083   4.458   6.803  12.560
 6198TIP3   OH240084   4.590   7.247  13.137
 6198TIP3    H140085   4.615   7.340  13.126
 6198TIP3    H240086   4.635   7.230  13.221
 6199TIP3   OH240087   4.367  -0.004  12.442
 6199TIP3    H140088   4.284   0.016  12.482
 6199TIP3    H240089   4.416   0.069  12.488
 6200TIP3   OH240090   4.931   6.870  13.118
 6200TIP3    H140091   4.893   6.849  13.206
 6200TIP3    H240092   4.992   6.796  13.103
 6201TIP3   OH240093   5.159   6.970  12.027
 6201TIP3    H140094   5.190   6.928  12.109
 6201TIP3    H240095   5.063   6.958  12.036
 6202TIP3   OH240096   5.203   7.322  13.368
 6202TIP3    H140097   5.136   7.273  13.320
 6202TIP3    H240098   5.224   7.396  13.308
 6203TIP3   OH240099   4.016   6.054  13.310
 6203TIP3    H140100   3.923   6.085  13.303
 6203TIP3    H240101   4.002   5.965  13.349
 6204TIP3   OH240102   5.238   6.838  12.255
 6204TIP3    H140103   5.216   6.757  12.306
 6204TIP3    H240104   5.334   6.843  12.269
 6205TIP3   OH240105   3.977   7.229  13.151
 6205TIP3    H140106   4.003   7.137  13.151
 6205TIP3    H240107   3.999   7.261  13.239
 6206TIP3   OH240108   4.570   7.081  11.874
 6206TIP3    H140109   4.584   7.002  11.819
 6206TIP3    H240110   4.533   7.040  11.956
 6207TIP3   OH240111   4.453   7.033  12.122
 6207TIP3    H140112   4.476   6.983  12.200
 6207TIP3    H240113   4.461   7.127  12.151
 6208TIP3   OH240114   4.106   6.759  12.170
 6208TIP3    H140115   4.034   6.796  12.224
 6208TIP3    H240116   4.157   6.837  12.142
 6209TIP3   OH240117   4.886   6.029  13.201
 6209TIP3    H140118   4.958   6.032  13.265
 6209TIP3    H240119   4.848   5.940  13.218
 6210TIP3   OH240120   4.962   5.986  12.311
 6210TIP3    H140121   4.986   6.035  12.228
 6210TIP3    H240122   5.021   6.030  12.374
 6211TIP3   OH240123   4.733   7.202  12.194
 6211TIP3    H140124   4.650   7.252  12.199
 6211TIP3    H240125   4.782   7.253  12.128
 6212TIP3   OH240126   4.686   6.159  12.393
 6212TIP3    H140127   4.764   6.219  12.397
 6212TIP3    H240128   4.659   6.150  12.486
 6213TIP3   OH240129   4.740   6.264  13.310
 6213TIP3    H140130   4.746   6.320  13.390
 6213TIP3    H240131   4.803   6.192  13.321
 6214TIP3   OH240132   4.767   5.865  12.481
 6214TIP3    H140133   4.740   5.933  12.547
 6214TIP3    H240134   4.838   5.921  12.438
 6215TIP3   OH240135   4.475  -0.033  12.192
 6215TIP3    H140136   4.481   0.049  12.140
 6215TIP3    H240137   4.442  -0.003  12.280
 6216TIP3   OH240138   4.337   5.976  12.154
 6216TIP3    H140139   4.331   6.068  12.189
 6216TIP3    H240140   4.428   5.954  12.178
 6217TIP3   OH240141   5.359   6.054  13.397
 6217TIP3    H140142   5.265   6.077  13.381
 6217TIP3    H240143   5.391   6.049  13.305
 6218TIP3   OH240144   5.219   6.431  12.799
 6218TIP3    H140145   5.138   6.385  12.770
 6218TIP3    H240146   5.266   6.361  12.851
 6219TIP3   OH240147   4.159   7.021  12.060
 6219TIP3    H140148   4.225   7.087  12.086
 6219TIP3    H240149   4.211   6.977  11.988
 6220TIP3   OH240150   3.995   6.288  11.970
 6220TIP3    H140151   3.994   6.384  11.991
 6220TIP3    H240152   3.906   6.269  11.942
 6221TIP3   OH240153   4.080   5.766  12.842
 6221TIP3    H140154   4.053   5.770  12.748
 6221TIP3    H240155   4.031   5.686  12.871
 6222TIP3   OH240156   3.997   7.201  12.487
 6222TIP3    H140157   3.903   7.224  12.473
 6222TIP3    H240158   4.030   7.221  12.398
 6223TIP3   OH240159   4.372   7.289  13.761
 6223TIP3    H140160   4.458   7.257  13.785
 6223TIP3    H240161   4.366   7.279  13.663
 6224TIP3   OH240162   4.772   7.264  11.894
 6224TIP3    H140163   4.703   7.199  11.914
 6224TIP3    H240164   4.845   7.210  11.862
 6225TIP3   OH240165   5.015   7.139  13.616
 6225TIP3    H140166   4.978   7.059  13.654
 6225TIP3    H240167   5.084   7.163  13.680
 6226TIP3   OH240168   5.237   7.241  11.918
 6226TIP3    H140169   5.263   7.157  11.959
 6226TIP3    H240170   5.308   7.262  11.854
 6227TIP3   OH240171   3.885   6.803  13.687
 6227TIP3    H140172   3.901   6.712  13.656
 6227TIP3    H240173   3.810   6.831  13.632
 6228TIP3   OH240174   4.320   6.839  11.892
 6228TIP3    H140175   4.331   6.760  11.948
 6228TIP3    H240176   4.392   6.825  11.828
 6229TIP3   OH240177   4.556   6.800  13.627
 6229TIP3    H140178   4.521   6.829  13.540
 6229TIP3    H240179   4.565   6.702  13.617
 6230TIP3   OH240180   4.861   6.945  11.867
 6230TIP3    H140181   4.832   6.958  11.959
 6230TIP3    H240182   4.841   6.850  11.856
 6231TIP3   OH240183   5.125   6.786  13.366
 6231TIP3    H140184   5.202   6.847  13.356
 6231TIP3    H240185   5.054   6.852  13.370
 6232TIP3   OH240186   3.975   6.525  13.626
 6232TIP3    H140187   4.015   6.438  13.616
 6232TIP3    H240188   3.949   6.524  13.720
 6233TIP3   OH240189   4.438   6.637  12.131
 6233TIP3    H140190   4.390   6.585  12.196
 6233TIP3    H240191   4.466   6.569  12.065
 6234TIP3   OH240192   4.366   6.420  13.362
 6234TIP3    H140193   4.305   6.491  13.389
 6234TIP3    H240194   4.403   6.456  13.280
 6235TIP3   OH240195   4.545   6.460  11.953
 6235TIP3    H140196   4.529   6.449  11.857
 6235TIP3    H240197   4.643   6.467  11.959
 6236TIP3   OH240198   4.872   6.673  13.693
 6236TIP3    H140199   4.968   6.678  13.686
 6236TIP3    H240200   4.854   6.598  13.752
 6237TIP3   OH240201   5.485   6.691  11.895
 6237TIP3    H140202   5.456   6.655  11.810
 6237TIP3    H240203   5.487   6.788  11.877
 6238TIP3   OH240204   4.405   6.158  13.469
 6238TIP3    H140205   4.416   6.086  13.405
 6238TIP3    H240206   4.401   6.238  13.413
 6239TIP3   OH240207   4.445   5.995  13.222
 6239TIP3    H140208   4.497   6.042  13.153
 6239TIP3    H240209   4.356   5.987  13.181
 6240TIP3   OH240210   4.600   6.542  13.247
 6240TIP3    H140211   4.674   6.526  13.188
 6240TIP3    H240212   4.564   6.627  13.215
 6241TIP3   OH240213   5.043   6.321  13.737
 6241TIP3    H140214   5.061   6.225  13.742
 6241TIP3    H240215   5.128   6.364  13.751
 6242TIP3   OH240216   5.174   6.593  13.554
 6242TIP3    H140217   5.148   6.672  13.499
 6242TIP3    H240218   5.271   6.599  13.541
 6243TIP3   OH240219   4.251   6.282  13.661
 6243TIP3    H140220   4.174   6.224  13.642
 6243TIP3    H240221   4.317   6.246  13.599
 6244TIP3   OH240222   4.524   5.739  13.263
 6244TIP3    H140223   4.509   5.836  13.252
 6244TIP3    H240224   4.449   5.703  13.213
 6245TIP3   OH240225   4.652   6.172  13.623
 6245TIP3    H140226   4.622   6.149  13.713
 6245TIP3    H240227   4.573   6.152  13.570
 6246TIP3   OH240228   4.926   6.090  13.533
 6246TIP3    H140229   4.828   6.090  13.542
 6246TIP3    H240230   4.950   6.021  13.598
 6247TIP3   OH240231   5.083   5.950  13.724
 6247TIP3    H140232   5.076   5.852  13.726
 6247TIP3    H240233   5.055   5.976  13.814
 6248TIP3   OH240234   4.061   6.074  13.634
 6248TIP3    H140235   4.086   6.001  13.574
 6248TIP3    H240236   4.052   6.028  13.719
 6249TIP3   OH240237   4.545   5.676  13.532
 6249TIP3    H140238   4.615   5.607  13.529
 6249TIP3    H240239   4.535   5.694  13.437
 6250TIP3   OH240240   4.582   5.839  13.741
 6250TIP3    H140241   4.566   5.790  13.657
 6250TIP3    H240242   4.521   5.915  13.732
 6251TIP3   OH240243   3.888   6.989  12.007
 6251TIP3    H140244   3.985   6.997  12.025
 6251TIP3    H240245   3.891   6.923  11.933
 6252TIP3   OH240246   3.836   7.336  12.689
 6252TIP3    H140247   3.805   7.249  12.715
 6252TIP3    H240248   3.864   7.373  12.775
 6253TIP3   OH240249   5.401   6.951  13.746
 6253TIP3    H140250   5.311   6.947  13.784
 6253TIP3    H240251   5.439   7.032  13.788
 6254TIP3   OH240252   5.529   6.782  12.292
 6254TIP3    H140253   5.615   6.823  12.308
 6254TIP3    H240254   5.532   6.709  12.357
 6255TIP3   OH240255   5.569   6.590  12.478
 6255TIP3    H140256   5.495   6.539  12.517
 6255TIP3    H240257   5.628   6.606  12.554
 6256TIP3   OH240258   5.544   6.862  12.977
 6256TIP3    H140259   5.626   6.826  12.941
 6256TIP3    H240260   5.558   6.958  12.960
 6257TIP3   OH240261   5.395   7.154  13.205
 6257TIP3    H140262   5.329   7.188  13.266
 6257TIP3    H240263   5.342   7.110  13.135
 6258TIP3   OH240264   5.600   6.573  12.116
 6258TIP3    H140265   5.541   6.612  12.046
 6258TIP3    H240266   5.590   6.643  12.183
 6259TIP3   OH240267   5.443   6.298  11.968
 6259TIP3    H140268   5.436   6.366  11.900
 6259TIP3    H240269   5.414   6.216  11.922
 6260TIP3   OH240270   5.348   6.440  12.534
 6260TIP3    H140271   5.334   6.344  12.532
 6260TIP3    H240272   5.315   6.462  12.623
 6261TIP3   OH240273   3.850   6.648  12.939
 6261TIP3    H140274   3.869   6.639  12.843
 6261TIP3    H240275   3.939   6.631  12.976
 6262TIP3   OH240276   5.433   6.634  13.501
 6262TIP3    H140277   5.497   6.561  13.517
 6262TIP3    H240278   5.493   6.713  13.503
 6263TIP3   OH240279   5.586   6.426  13.568
 6263TIP3    H140280   5.499   6.384  13.553
 6263TIP3    H240281   5.645   6.349  13.561
 6264TIP3   OH240282   5.361   6.046  11.884
 6264TIP3    H140283   5.418   6.000  11.948
 6264TIP3    H240284   5.274   6.002  11.899
 6265TIP3   OH240285   5.315   6.197  12.378
 6265TIP3    H140286   5.347   6.105  12.393
 6265TIP3    H240287   5.396   6.238  12.346
 6266TIP3   OH240288   5.380   6.251  12.924
 6266TIP3    H140289   5.476   6.276  12.923
 6266TIP3    H240290   5.361   6.266  13.018
 6267TIP3   OH240291   5.387   6.325  13.207
 6267TIP3    H140292   5.298   6.356  13.233
 6267TIP3    H240293   5.431   6.410  13.179
 6268TIP3   OH240294   3.811   6.177  13.554
 6268TIP3    H140295   3.905   6.158  13.574
 6268TIP3    H240296   3.766   6.096  13.585
 6269TIP3   OH240297   5.614   5.729  13.738
 6269TIP3    H140298   5.649   5.663  13.675
 6269TIP3    H240299   5.626   5.811  13.687
 6270TIP3   OH240300   5.383   5.925  12.385
 6270TIP3    H140301   5.403   5.880  12.470
 6270TIP3    H240302   5.322   5.863  12.340
 6271TIP3   OH240303   3.934   6.006  12.837
 6271TIP3    H140304   3.975   5.924  12.869
 6271TIP3    H240305   3.984   6.076  12.882
 6272TIP3   OH240306   3.760   6.307  12.945
 6272TIP3    H140307   3.816   6.282  12.868
 6272TIP3    H240308   3.805   6.388  12.972
 6273TIP3   OH240309   5.566   5.941  13.573
 6273TIP3    H140310   5.471   5.965  13.568
 6273TIP3    H240311   5.572   5.885  13.494
 6274TIP3   OH240312   5.566   5.931  12.040
 6274TIP3    H140313   5.607   5.857  11.989
 6274TIP3    H240314   5.637   5.995  12.046
 6275TIP3   OH240315   3.797   5.933  12.352
 6275TIP3    H140316   3.703   5.951  12.337
 6275TIP3    H240317   3.840   5.981  12.280
 6276TIP3   OH240318   3.800   5.839  13.228
 6276TIP3    H140319   3.728   5.778  13.251
 6276TIP3    H240320   3.761   5.858  13.137
 6277TIP3   OH240321   4.013   7.123  13.599
 6277TIP3    H140322   3.928   7.139  13.553
 6277TIP3    H240323   3.987   7.111  13.691
 6278TIP3   OH240324   4.309   7.219  13.230
 6278TIP3    H140325   4.264   7.297  13.195
 6278TIP3    H240326   4.398   7.224  13.192
 6279TIP3   OH240327   5.469   5.750  13.355
 6279TIP3    H140328   5.385   5.778  13.316
 6279TIP3    H240329   5.484   5.667  13.304
 6280TIP3   OH240330   4.200   7.268  12.769
 6280TIP3    H140331   4.183   7.180  12.808
 6280TIP3    H240332   4.277   7.291  12.828
 6281TIP3   OH240333   4.418   7.276  12.889
 6281TIP3    H140334   4.480   7.218  12.845
 6281TIP3    H240335   4.461   7.314  12.966
 6282TIP3   OH240336   4.805   5.892  12.784
 6282TIP3    H140337   4.740   5.827  12.815
 6282TIP3    H240338   4.865   5.840  12.729
 6283TIP3   OH240339   5.321   5.698  12.795
 6283TIP3    H140340   5.382   5.756  12.744
 6283TIP3    H240341   5.233   5.734  12.771
 6284TIP3   OH240342   5.490   5.819  12.625
 6284TIP3    H140343   5.556   5.764  12.578
 6284TIP3    H240344   5.536   5.906  12.631
 6285TIP3   OH240345   4.045   5.755  12.568
 6285TIP3    H140346   3.963   5.733  12.520
 6285TIP3    H240347   4.090   5.669  12.568
 6286TIP3   OH240348   3.922   5.731  12.145
 6286TIP3    H140349   3.969   5.796  12.090
 6286TIP3    H240350   3.863   5.788  12.197
 6287TIP3   OH240351   4.474   5.771  12.569
 6287TIP3    H140352   4.566   5.802  12.559
 6287TIP3    H240353   4.478   5.726  12.654
 6288TIP3   OH240354   5.056   5.750  12.713
 6288TIP3    H140355   5.061   5.760  12.618
 6288TIP3    H240356   5.026   5.658  12.726
 6289TIP3   OH240357   5.191   5.753  12.282
 6289TIP3    H140358   5.117   5.813  12.263
 6289TIP3    H240359   5.146   5.667  12.301
 6290TIP3   OH240360   3.892  -0.047  12.278
 6290TIP3    H140361   3.854  -0.030  12.188
 6290TIP3    H240362   3.919   0.048  12.281
 6291TIP3   OH240363   4.106   5.925  11.994
 6291TIP3    H140364   4.158   5.863  11.941
 6291TIP3    H240365   4.172   5.956  12.059
 6292TIP3   OH240366   4.607   5.950  12.236
 6292TIP3    H140367   4.633   5.894  12.309
 6292TIP3    H240368   4.611   6.038  12.281
 6293TIP3   OH240369   4.033   5.809  13.518
 6293TIP3    H140370   3.996   5.729  13.560
 6293TIP3    H240371   4.126   5.806  13.553
 6294TIP3   OH240372   4.234   5.746  13.678
 6294TIP3    H140373   4.323   5.713  13.657
 6294TIP3    H240374   4.196   5.666  13.720
 6295TIP3   OH240375   5.074   5.677  13.694
 6295TIP3    H140376   5.083   5.629  13.779
 6295TIP3    H240377   5.165   5.674  13.660
 6296TIP3   OH240378   5.387   7.275  13.570
 6296TIP3    H140379   5.315   7.265  13.505
 6296TIP3    H240380   5.391   7.371  13.579
 6297TIP3   OH240381   6.837   6.667  12.559
 6297TIP3    H140382   6.840   6.765  12.553
 6297TIP3    H240383   6.766   6.644  12.497
 6298TIP3   OH240384   6.725   6.595  12.907
 6298TIP3    H140385   6.722   6.530  12.978
 6298TIP3    H240386   6.692   6.546  12.831
 6299TIP3   OH240387   5.960   6.560  13.063
 6299TIP3    H140388   5.968   6.493  13.134
 6299TIP3    H240389   6.034   6.619  13.084
 6300TIP3   OH240390   7.094   6.888  12.736
 6300TIP3    H140391   7.052   6.817  12.784
 6300TIP3    H240392   7.099   6.958  12.802
 6301TIP3   OH240393   6.055   7.005  12.916
 6301TIP3    H140394   6.021   6.920  12.882
 6301TIP3    H240395   6.150   6.985  12.921
 6302TIP3   OH240396   5.719   6.364  12.458
 6302TIP3    H140397   5.672   6.450  12.456
 6302TIP3    H240398   5.659   6.309  12.407
 6303TIP3   OH240399   5.787   6.585  12.674
 6303TIP3    H140400   5.813   6.504  12.722
 6303TIP3    H240401   5.859   6.594  12.610
 6304TIP3   OH240402   6.561   6.834  12.952
 6304TIP3    H140403   6.596   6.771  12.888
 6304TIP3    H240404   6.641   6.851  13.006
 6305TIP3   OH240405   6.878   6.281  12.984
 6305TIP3    H140406   6.895   6.185  12.983
 6305TIP3    H240407   6.868   6.296  12.887
 6306TIP3   OH240408   6.190   6.089  12.709
 6306TIP3    H140409   6.200   6.174  12.661
 6306TIP3    H240410   6.150   6.033  12.638
 6307TIP3   OH240411   6.965   6.101  12.546
 6307TIP3    H140412   7.031   6.067  12.611
 6307TIP3    H240413   7.020   6.154  12.488
 6308TIP3   OH240414   5.853   6.331  12.782
 6308TIP3    H140415   5.921   6.276  12.826
 6308TIP3    H240416   5.862   6.300  12.690
 6309TIP3   OH240417   6.370   6.486  12.710
 6309TIP3    H140418   6.435   6.429  12.753
 6309TIP3    H240419   6.316   6.420  12.663
 6310TIP3   OH240420   6.073   5.973  13.108
 6310TIP3    H140421   6.054   6.039  13.037
 6310TIP3    H240422   6.013   6.005  13.181
 6311TIP3   OH240423   6.810   6.927  12.467
 6311TIP3    H140424   6.783   6.899  12.379
 6311TIP3    H240425   6.781   7.020  12.472
 6312TIP3   OH240426   6.333   6.744  13.138
 6312TIP3    H140427   6.261   6.808  13.156
 6312TIP3    H240428   6.403   6.804  13.108
 6313TIP3   OH240429   7.129   6.031  12.750
 6313TIP3    H140430   7.121   5.951  12.801
 6313TIP3    H240431   7.203   6.077  12.795
 6314TIP3   OH240432   6.036   6.164  12.914
 6314TIP3    H140433   6.099   6.234  12.945
 6314TIP3    H240434   6.089   6.125  12.840
 6315TIP3   OH240435   6.177   6.943  13.219
 6315TIP3    H140436   6.172   7.033  13.183
 6315TIP3    H240437   6.087   6.937  13.261
 6316TIP3   OH240438   5.785   6.910  12.299
 6316TIP3    H140439   5.759   6.938  12.210
 6316TIP3    H240440   5.793   6.994  12.347
 6317TIP3   OH240441   7.141   7.071  12.977
 6317TIP3    H140442   7.045   7.080  12.987
 6317TIP3    H240443   7.172   7.160  12.954
 6318TIP3   OH240444   7.170   5.908  13.102
 6318TIP3    H140445   7.097   5.971  13.104
 6318TIP3    H240446   7.241   5.953  13.055
 6319TIP3   OH240447   6.476   5.713  12.858
 6319TIP3    H140448   6.464   5.616  12.851
 6319TIP3    H240449   6.389   5.744  12.888
 6320TIP3   OH240450   6.974   7.233  12.625
 6320TIP3    H140451   7.024   7.168  12.572
 6320TIP3    H240452   7.010   7.317  12.592
 6321TIP3   OH240453   7.093   7.041  12.482
 6321TIP3    H140454   7.064   6.972  12.422
 6321TIP3    H240455   7.098   6.994  12.568
 6322TIP3   OH240456   7.235   6.911  13.337
 6322TIP3    H140457   7.266   6.844  13.274
 6322TIP3    H240458   7.276   6.989  13.297
 6323TIP3   OH240459   6.705   6.593  12.310
 6323TIP3    H140460   6.634   6.649  12.273
 6323TIP3    H240461   6.775   6.601  12.243
 6324TIP3   OH240462   6.711   6.446  12.011
 6324TIP3    H140463   6.782   6.445  12.077
 6324TIP3    H240464   6.743   6.377  11.951
 6325TIP3   OH240465   7.047   6.615  12.400
 6325TIP3    H140466   6.974   6.639  12.462
 6325TIP3    H240467   7.094   6.546  12.453
 6326TIP3   OH240468   7.037   6.428  13.312
 6326TIP3    H140469   7.042   6.509  13.365
 6326TIP3    H240470   6.977   6.461  13.242
 6327TIP3   OH240471   6.211   6.680  12.593
 6327TIP3    H140472   6.178   6.641  12.508
 6327TIP3    H240473   6.271   6.610  12.626
 6328TIP3   OH240474   6.344   7.019  12.860
 6328TIP3    H140475   6.341   6.964  12.782
 6328TIP3    H240476   6.421   6.983  12.908
 6329TIP3   OH240477   6.244   6.554  12.958
 6329TIP3    H140478   6.301   6.566  12.879
 6329TIP3    H240479   6.281   6.620  13.020
 6330TIP3   OH240480   6.880   7.110  13.029
 6330TIP3    H140481   6.853   7.173  13.094
 6330TIP3    H240482   6.858   7.024  13.071
 6331TIP3   OH240483   6.338   6.998  13.428
 6331TIP3    H140484   6.299   7.073  13.477
 6331TIP3    H240485   6.270   6.978  13.359
 6332TIP3   OH240486   6.936   6.531  12.168
 6332TIP3    H140487   6.991   6.549  12.248
 6332TIP3    H240488   6.977   6.581  12.095
 6333TIP3   OH240489   6.031   6.613  13.346
 6333TIP3    H140490   6.036   6.680  13.417
 6333TIP3    H240491   5.938   6.623  13.321
 6334TIP3   OH240492   6.706   7.204  12.517
 6334TIP3    H140493   6.755   7.236  12.593
 6334TIP3    H240494   6.652   7.279  12.491
 6335TIP3   OH240495   6.160   7.204  13.502
 6335TIP3    H140496   6.158   7.188  13.406
 6335TIP3    H240497   6.067   7.189  13.528
 6336TIP3   OH240498   7.284   5.701  12.143
 6336TIP3    H140499   7.199   5.725  12.186
 6336TIP3    H240500   7.320   5.784  12.112
 6337TIP3   OH240501   6.109   6.583  12.354
 6337TIP3    H140502   6.079   6.661  12.303
 6337TIP3    H240503   6.043   6.517  12.334
 6338TIP3   OH240504   5.717   6.825  13.240
 6338TIP3    H140505   5.671   6.817  13.155
 6338TIP3    H240506   5.722   6.730  13.264
 6339TIP3   OH240507   5.695   7.101  12.919
 6339TIP3    H140508   5.790   7.087  12.920
 6339TIP3    H240509   5.684   7.179  12.976
 6340TIP3   OH240510   6.610   7.126  13.373
 6340TIP3    H140511   6.621   7.205  13.427
 6340TIP3    H240512   6.525   7.087  13.404
 6341TIP3   OH240513   7.204   6.325  13.542
 6341TIP3    H140514   7.184   6.364  13.458
 6341TIP3    H240515   7.236   6.235  13.513
 6342TIP3   OH240516   5.945   6.957  13.339
 6342TIP3    H140517   5.967   6.918  13.426
 6342TIP3    H240518   5.859   6.916  13.315
 6343TIP3   OH240519   6.207   5.800  12.939
 6343TIP3    H140520   6.123   5.795  12.890
 6343TIP3    H240521   6.203   5.888  12.979
 6344TIP3   OH240522   6.675   5.770  13.269
 6344TIP3    H140523   6.714   5.730  13.350
 6344TIP3    H240524   6.578   5.758  13.285
 6345TIP3   OH240525   7.004   6.152  13.359
 6345TIP3    H140526   6.951   6.135  13.439
 6345TIP3    H240527   6.988   6.245  13.337
 6346TIP3   OH240528   7.081   6.633  11.943
 6346TIP3    H140529   7.083   6.614  11.846
 6346TIP3    H240530   7.164   6.679  11.952
 6347TIP3   OH240531   6.641   6.027  12.000
 6347TIP3    H140532   6.610   6.023  12.093
 6347TIP3    H240533   6.610   5.939  11.971
 6348TIP3   OH240534   6.221   6.299  13.054
 6348TIP3    H140535   6.149   6.297  13.120
 6348TIP3    H240536   6.218   6.392  13.021
 6349TIP3   OH240537   6.217   6.315  12.542
 6349TIP3    H140538   6.124   6.287  12.530
 6349TIP3    H240539   6.257   6.283  12.459
 6350TIP3   OH240540   6.771   6.362  12.422
 6350TIP3    H140541   6.730   6.445  12.387
 6350TIP3    H240542   6.841   6.346  12.356
 6351TIP3   OH240543   6.677   6.382  13.566
 6351TIP3    H140544   6.623   6.306  13.598
 6351TIP3    H240545   6.761   6.369  13.614
 6352TIP3   OH240546   6.873   6.311  12.706
 6352TIP3    H140547   6.848   6.367  12.630
 6352TIP3    H240548   6.884   6.226  12.659
 6353TIP3   OH240549   5.986   6.328  13.228
 6353TIP3    H140550   5.990   6.368  13.317
 6353TIP3    H240551   5.940   6.245  13.246
 6354TIP3   OH240552   6.325   6.066  11.912
 6354TIP3    H140553   6.279   6.023  11.987
 6354TIP3    H240554   6.253   6.107  11.862
 6355TIP3   OH240555   5.650   6.038  12.623
 6355TIP3    H140556   5.718   6.036  12.693
 6355TIP3    H240557   5.696   5.999  12.546
 6356TIP3   OH240558   5.775   6.109  12.158
 6356TIP3    H140559   5.832   6.171  12.110
 6356TIP3    H240560   5.708   6.169  12.195
 6357TIP3   OH240561   6.794   6.470  13.163
 6357TIP3    H140562   6.831   6.403  13.103
 6357TIP3    H240563   6.749   6.417  13.231
 6358TIP3   OH240564   6.473   6.066  12.645
 6358TIP3    H140565   6.380   6.068  12.675
 6358TIP3    H240566   6.523   6.053  12.728
 6359TIP3   OH240567   5.956   6.224  12.531
 6359TIP3    H140568   5.866   6.237  12.493
 6359TIP3    H240569   5.984   6.140  12.492
 6360TIP3   OH240570   6.320   6.226  12.294
 6360TIP3    H140571   6.415   6.238  12.312
 6360TIP3    H240572   6.297   6.295  12.229
 6361TIP3   OH240573   6.913   5.988  12.970
 6361TIP3    H140574   6.845   5.997  13.040
 6361TIP3    H240575   6.862   5.969  12.890
 6362TIP3   OH240576   6.188   6.347  12.053
 6362TIP3    H140577   6.137   6.306  11.981
 6362TIP3    H240578   6.272   6.365  12.007
 6363TIP3   OH240579   6.003   6.802  13.559
 6363TIP3    H140580   6.075   6.826  13.619
 6363TIP3    H240581   5.925   6.815  13.617
 6364TIP3   OH240582   6.603   6.342  12.834
 6364TIP3    H140583   6.663   6.289  12.781
 6364TIP3    H240584   6.589   6.289  12.913
 6365TIP3   OH240585   6.104   5.958  12.478
 6365TIP3    H140586   6.073   5.865  12.474
 6365TIP3    H240587   6.183   5.953  12.422
 6366TIP3   OH240588   6.467   6.177  13.076
 6366TIP3    H140589   6.384   6.227  13.086
 6366TIP3    H240590   6.521   6.210  13.150
 6367TIP3   OH240591   6.525   6.798  12.246
 6367TIP3    H140592   6.446   6.751  12.213
 6367TIP3    H240593   6.504   6.809  12.341
 6368TIP3   OH240594   7.231   6.719  13.126
 6368TIP3    H140595   7.295   6.750  13.059
 6368TIP3    H240596   7.149   6.724  13.074
 6369TIP3   OH240597   6.909   6.080  12.063
 6369TIP3    H140598   6.813   6.094  12.049
 6369TIP3    H240599   6.939   6.167  12.097
 6370TIP3   OH240600   6.673   6.825  13.369
 6370TIP3    H140601   6.640   6.782  13.449
 6370TIP3    H240602   6.653   6.918  13.379
 6371TIP3   OH240603   6.981   6.271  12.225
 6371TIP3    H140604   7.069   6.258  12.265
 6371TIP3    H240605   6.989   6.354  12.176
 6372TIP3   OH240606   6.036   6.736  12.825
 6372TIP3    H140607   6.107   6.730  12.758
 6372TIP3    H240608   6.042   6.650  12.871
 6373TIP3   OH240609   6.736   6.946  12.150
 6373TIP3    H140610   6.703   7.030  12.184
 6373TIP3    H240611   6.662   6.885  12.170
 6374TIP3   OH240612   5.735   6.579  13.352
 6374TIP3    H140613   5.755   6.534  13.437
 6374TIP3    H240614   5.675   6.516  13.308
 6375TIP3   OH240615   6.436   6.533  13.572
 6375TIP3    H140616   6.406   6.507  13.484
 6375TIP3    H240617   6.530   6.503  13.571
 6376TIP3   OH240618   6.902   7.073  13.359
 6376TIP3    H140619   6.808   7.084  13.340
 6376TIP3    H240620   6.901   7.093  13.456
 6377TIP3   OH240621   7.283   7.157  12.245
 6377TIP3    H140622   7.261   7.073  12.280
 6377TIP3    H240623   7.328   7.147  12.160
 6378TIP3   OH240624   7.016   6.649  12.954
 6378TIP3    H140625   6.922   6.626  12.943
 6378TIP3    H240626   7.063   6.573  12.913
 6379TIP3   OH240627   6.275   7.081  12.561
 6379TIP3    H140628   6.322   7.162  12.542
 6379TIP3    H240629   6.185   7.105  12.532
 6380TIP3   OH240630   5.847   6.563  12.019
 6380TIP3    H140631   5.908   6.630  12.059
 6380TIP3    H240632   5.761   6.602  12.048
 6381TIP3   OH240633   6.417   6.849  12.517
 6381TIP3    H140634   6.387   6.942  12.525
 6381TIP3    H240635   6.342   6.803  12.560
 6382TIP3   OH240636   6.475   7.247  13.137
 6382TIP3    H140637   6.501   7.340  13.126
 6382TIP3    H240638   6.520   7.230  13.222
 6383TIP3   OH240639   6.253  -0.004  12.442
 6383TIP3    H140640   6.169   0.015  12.481
 6383TIP3    H240641   6.302   0.069  12.488
 6384TIP3   OH240642   6.818   6.871  13.121
 6384TIP3    H140643   6.778   6.848  13.208
 6384TIP3    H240644   6.877   6.796  13.102
 6385TIP3   OH240645   7.046   6.970  12.027
 6385TIP3    H140646   7.074   6.928  12.111
 6385TIP3    H240647   6.950   6.959  12.037
 6386TIP3   OH240648   7.089   7.327  13.369
 6386TIP3    H140649   7.024   7.274  13.320
 6386TIP3    H240650   7.112   7.397  13.307
 6387TIP3   OH240651   5.899   6.049  13.302
 6387TIP3    H140652   5.809   6.088  13.305
 6387TIP3    H240653   5.890   5.968  13.355
 6388TIP3   OH240654   7.124   6.833  12.251
 6388TIP3    H140655   7.099   6.758  12.309
 6388TIP3    H240656   7.218   6.845  12.273
 6389TIP3   OH240657   5.862   7.229  13.151
 6389TIP3    H140658   5.889   7.137  13.151
 6389TIP3    H240659   5.885   7.261  13.239
 6390TIP3   OH240660   6.455   7.081  11.874
 6390TIP3    H140661   6.469   7.003  11.819
 6390TIP3    H240662   6.418   7.040  11.956
 6391TIP3   OH240663   6.338   7.033  12.122
 6391TIP3    H140664   6.361   6.983  12.201
 6391TIP3    H240665   6.345   7.127  12.151
 6392TIP3   OH240666   5.988   6.758  12.168
 6392TIP3    H140667   5.920   6.798  12.226
 6392TIP3    H240668   6.041   6.837  12.143
 6393TIP3   OH240669   6.771   6.028  13.201
 6393TIP3    H140670   6.844   6.035  13.264
 6393TIP3    H240671   6.734   5.940  13.221
 6394TIP3   OH240672   6.850   5.987  12.309
 6394TIP3    H140673   6.873   6.035  12.228
 6394TIP3    H240674   6.906   6.030  12.375
 6395TIP3   OH240675   6.618   7.203  12.194
 6395TIP3    H140676   6.535   7.253  12.199
 6395TIP3    H240677   6.668   7.254  12.129
 6396TIP3   OH240678   6.571   6.163  12.392
 6396TIP3    H140679   6.650   6.218  12.397
 6396TIP3    H240680   6.545   6.149  12.485
 6397TIP3   OH240681   6.627   6.264  13.309
 6397TIP3    H140682   6.634   6.320  13.390
 6397TIP3    H240683   6.691   6.193  13.322
 6398TIP3   OH240684   6.654   5.868  12.482
 6398TIP3    H140685   6.625   5.933  12.548
 6398TIP3    H240686   6.724   5.922  12.437
 6399TIP3   OH240687   6.360  -0.033  12.192
 6399TIP3    H140688   6.366   0.049  12.140
 6399TIP3    H240689   6.328  -0.002  12.280
 6400TIP3   OH240690   6.222   5.977  12.153
 6400TIP3    H140691   6.217   6.068  12.190
 6400TIP3    H240692   6.313   5.953  12.179
 6401TIP3   OH240693   7.242   6.046  13.390
 6401TIP3    H140694   7.150   6.082  13.383
 6401TIP3    H240695   7.274   6.055  13.300
 6402TIP3   OH240696   7.106   6.430  12.803
 6402TIP3    H140697   7.024   6.387  12.770
 6402TIP3    H240698   7.147   6.357  12.851
 6403TIP3   OH240699   6.045   7.021  12.058
 6403TIP3    H140700   6.110   7.087  12.087
 6403TIP3    H240701   6.097   6.977  11.988
 6404TIP3   OH240702   5.907   6.274  11.986
 6404TIP3    H140703   5.897   6.371  11.998
 6404TIP3    H240704   5.829   6.227  11.959
 6405TIP3   OH240705   5.964   5.769  12.832
 6405TIP3    H140706   5.941   5.773  12.736
 6405TIP3    H240707   5.921   5.682  12.851
 6406TIP3   OH240708   5.863   7.156  12.465
 6406TIP3    H140709   5.776   7.201  12.457
 6406TIP3    H240710   5.905   7.207  12.395
 6407TIP3   OH240711   6.258   7.289  13.761
 6407TIP3    H140712   6.344   7.257  13.785
 6407TIP3    H240713   6.252   7.279  13.664
 6408TIP3   OH240714   6.658   7.264  11.894
 6408TIP3    H140715   6.589   7.199  11.914
 6408TIP3    H240716   6.731   7.209  11.863
 6409TIP3   OH240717   6.902   7.139  13.617
 6409TIP3    H140718   6.864   7.058  13.654
 6409TIP3    H240719   6.970   7.162  13.682
 6410TIP3   OH240720   7.124   7.242  11.918
 6410TIP3    H140721   7.146   7.158  11.960
 6410TIP3    H240722   7.194   7.261  11.854
 6411TIP3   OH240723   5.771   6.803  13.687
 6411TIP3    H140724   5.786   6.711  13.656
 6411TIP3    H240725   5.696   6.831  13.632
 6412TIP3   OH240726   6.205   6.838  11.892
 6412TIP3    H140727   6.217   6.760  11.948
 6412TIP3    H240728   6.277   6.825  11.828
 6413TIP3   OH240729   6.441   6.800  13.627
 6413TIP3    H140730   6.406   6.829  13.540
 6413TIP3    H240731   6.451   6.702  13.617
 6414TIP3   OH240732   6.747   6.945  11.869
 6414TIP3    H140733   6.718   6.957  11.960
 6414TIP3    H240734   6.726   6.850  11.856
 6415TIP3   OH240735   7.010   6.785  13.363
 6415TIP3    H140736   7.087   6.847  13.355
 6415TIP3    H240737   6.940   6.851  13.370
 6416TIP3   OH240738   5.858   6.524  13.625
 6416TIP3    H140739   5.901   6.439  13.616
 6416TIP3    H240740   5.835   6.524  13.720
 6417TIP3   OH240741   6.324   6.637  12.131
 6417TIP3    H140742   6.275   6.585  12.196
 6417TIP3    H240743   6.352   6.569  12.065
 6418TIP3   OH240744   6.251   6.422  13.362
 6418TIP3    H140745   6.190   6.492  13.389
 6418TIP3    H240746   6.289   6.457  13.280
 6419TIP3   OH240747   6.431   6.460  11.953
 6419TIP3    H140748   6.415   6.449  11.857
 6419TIP3    H240749   6.528   6.467  11.959
 6420TIP3   OH240750   6.754   6.675  13.694
 6420TIP3    H140751   6.851   6.677  13.685
 6420TIP3    H240752   6.740   6.598  13.752
 6421TIP3   OH240753   6.290   6.165  13.467
 6421TIP3    H140754   6.302   6.085  13.410
 6421TIP3    H240755   6.287   6.241  13.409
 6422TIP3   OH240756   6.330   5.994  13.221
 6422TIP3    H140757   6.383   6.042  13.154
 6422TIP3    H240758   6.242   5.987  13.182
 6423TIP3   OH240759   6.486   6.542  13.247
 6423TIP3    H140760   6.561   6.526  13.189
 6423TIP3    H240761   6.450   6.626  13.215
 6424TIP3   OH240762   6.925   6.321  13.745
 6424TIP3    H140763   6.948   6.227  13.734
 6424TIP3    H240764   7.013   6.363  13.745
 6425TIP3   OH240765   7.055   6.599  13.557
 6425TIP3    H140766   7.033   6.672  13.497
 6425TIP3    H240767   7.152   6.595  13.540
 6426TIP3   OH240768   6.135   6.284  13.659
 6426TIP3    H140769   6.060   6.224  13.642
 6426TIP3    H240770   6.203   6.244  13.601
 6427TIP3   OH240771   6.410   5.739  13.260
 6427TIP3    H140772   6.395   5.836  13.255
 6427TIP3    H240773   6.333   5.704  13.214
 6428TIP3   OH240774   6.536   6.174  13.623
 6428TIP3    H140775   6.506   6.148  13.712
 6428TIP3    H240776   6.457   6.149  13.571
 6429TIP3   OH240777   6.808   6.087  13.531
 6429TIP3    H140778   6.711   6.090  13.543
 6429TIP3    H240779   6.836   6.022  13.597
 6430TIP3   OH240780   6.974   5.948  13.727
 6430TIP3    H140781   6.960   5.851  13.727
 6430TIP3    H240782   6.940   5.978  13.813
 6431TIP3   OH240783   5.944   6.074  13.633
 6431TIP3    H140784   5.974   6.002  13.575
 6431TIP3    H240785   5.939   6.029  13.720
 6432TIP3   OH240786   6.433   5.660  13.529
 6432TIP3    H140787   6.509   5.601  13.525
 6432TIP3    H240788   6.421   5.695  13.439
 6433TIP3   OH240789   6.518   5.833  13.761
 6433TIP3    H140790   6.473   5.795  13.681
 6433TIP3    H240791   6.454   5.908  13.757
 6434TIP3   OH240792   5.774   6.991  12.004
 6434TIP3    H140793   5.869   6.997  12.028
 6434TIP3    H240794   5.777   6.923  11.933
 6435TIP3   OH240795   5.722   7.338  12.691
 6435TIP3    H140796   5.692   7.249  12.712
 6435TIP3    H240797   5.750   7.373  12.777
 6436TIP3   OH240798   7.269   6.962  13.734
 6436TIP3    H140799   7.192   6.945  13.789
 6436TIP3    H240800   7.321   7.024  13.787
 6437TIP3   OH240801   7.280   7.150  13.209
 6437TIP3    H140802   7.214   7.187  13.268
 6437TIP3    H240803   7.228   7.109  13.136
 6438TIP3   OH240804   7.309   6.299  11.973
 6438TIP3    H140805   7.326   6.363  11.902
 6438TIP3    H240806   7.300   6.216  11.922
 6439TIP3   OH240807   7.204   6.445  12.535
 6439TIP3    H140808   7.217   6.349  12.538
 6439TIP3    H240809   7.197   6.466  12.630
 6440TIP3   OH240810   5.736   6.648  12.940
 6440TIP3    H140811   5.755   6.639  12.844
 6440TIP3    H240812   5.825   6.631  12.976
 6441TIP3   OH240813  -0.031   6.640  13.529
 6441TIP3    H140814   0.028   6.563  13.526
 6441TIP3    H240815   0.028   6.712  13.501
 6442TIP3   OH240816   7.245   6.044  11.883
 6442TIP3    H140817   7.302   6.000  11.946
 6442TIP3    H240818   7.160   6.000  11.900
 6443TIP3   OH240819   7.201   6.195  12.371
 6443TIP3    H140820   7.230   6.107  12.400
 6443TIP3    H240821   7.281   6.234  12.339
 6444TIP3   OH240822   7.228   6.204  12.916
 6444TIP3    H140823   7.323   6.220  12.904
 6444TIP3    H240824   7.231   6.253  13.000
 6445TIP3   OH240825   7.270   6.326  13.210
 6445TIP3    H140826   7.182   6.356  13.237
 6445TIP3    H240827   7.312   6.406  13.177
 6446TIP3   OH240828   5.696   6.177  13.554
 6446TIP3    H140829   5.790   6.159  13.574
 6446TIP3    H240830   5.653   6.095  13.586
 6447TIP3   OH240831   7.191   5.907  12.436
 6447TIP3    H140832   7.279   5.879  12.470
 6447TIP3    H240833   7.196   5.858  12.351
 6448TIP3   OH240834   5.817   6.006  12.842
 6448TIP3    H140835   5.866   5.926  12.865
 6448TIP3    H240836   5.870   6.078  12.880
 6449TIP3   OH240837   5.646   6.306  12.945
 6449TIP3    H140838   5.702   6.282  12.868
 6449TIP3    H240839   5.690   6.387  12.972
 6450TIP3   OH240840   5.683   5.933  12.353
 6450TIP3    H140841   5.588   5.951  12.337
 6450TIP3    H240842   5.726   5.980  12.281
 6451TIP3   OH240843   5.680   5.799  13.179
 6451TIP3    H140844   5.612   5.780  13.249
 6451TIP3    H240845   5.631   5.867  13.128
 6452TIP3   OH240846   5.899   7.122  13.599
 6452TIP3    H140847   5.814   7.139  13.553
 6452TIP3    H240848   5.873   7.111  13.691
 6453TIP3   OH240849   6.194   7.219  13.231
 6453TIP3    H140850   6.150   7.297  13.195
 6453TIP3    H240851   6.283   7.224  13.192
 6454TIP3   OH240852   6.085   7.268  12.770
 6454TIP3    H140853   6.068   7.180  12.807
 6454TIP3    H240854   6.163   7.291  12.828
 6455TIP3   OH240855   6.303   7.276  12.888
 6455TIP3    H140856   6.366   7.218  12.845
 6455TIP3    H240857   6.346   7.314  12.966
 6456TIP3   OH240858   6.693   5.892  12.786
 6456TIP3    H140859   6.625   5.827  12.813
 6456TIP3    H240860   6.749   5.840  12.727
 6457TIP3   OH240861   7.208   5.698  12.797
 6457TIP3    H140862   7.264   5.759  12.748
 6457TIP3    H240863   7.119   5.732  12.773
 6458TIP3   OH240864   5.927   5.754  12.571
 6458TIP3    H140865   5.849   5.734  12.517
 6458TIP3    H240866   5.977   5.670  12.564
 6459TIP3   OH240867   5.808   5.730  12.146
 6459TIP3    H140868   5.855   5.795  12.090
 6459TIP3    H240869   5.749   5.788  12.197
 6460TIP3   OH240870   6.379   5.747  12.549
 6460TIP3    H140871   6.469   5.784  12.544
 6460TIP3    H240872   6.373   5.726  12.642
 6461TIP3   OH240873   6.948   5.748  12.713
 6461TIP3    H140874   6.945   5.760  12.617
 6461TIP3    H240875   6.910   5.658  12.726
 6462TIP3   OH240876   7.070   5.748  12.276
 6462TIP3    H140877   6.999   5.813  12.265
 6462TIP3    H240878   7.026   5.665  12.302
 6463TIP3   OH240879   5.779  -0.039  12.277
 6463TIP3    H140880   5.739  -0.031  12.188
 6463TIP3    H240881   5.805   0.053  12.281
 6464TIP3   OH240882   5.991   5.927  11.993
 6464TIP3    H140883   6.043   5.862  11.942
 6464TIP3    H240884   6.057   5.955  12.059
 6465TIP3   OH240885   6.494   5.951  12.235
 6465TIP3    H140886   6.517   5.891  12.309
 6465TIP3    H240887   6.497   6.037  12.283
 6466TIP3   OH240888   5.918   5.808  13.512
 6466TIP3    H140889   5.885   5.731  13.562
 6466TIP3    H240890   6.010   5.807  13.553
 6467TIP3   OH240891   6.096   5.723  13.674
 6467TIP3    H140892   6.195   5.721  13.658
 6467TIP3    H240893   6.080   5.649  13.731
 6468TIP3   OH240894   6.958   5.678  13.694
 6468TIP3    H140895   6.968   5.630  13.779
 6468TIP3    H240896   7.049   5.674  13.658
 6469TIP3   OH240897   7.278   7.280  13.570
 6469TIP3    H140898   7.205   7.263  13.508
 6469TIP3    H240899   7.273   7.376  13.579
 6470TIP3   OH240900   1.180   1.012  14.445
 6470TIP3    H140901   1.182   1.109  14.438
 6470TIP3    H240902   1.110   0.987  14.383
 6471TIP3   OH240903   1.068   0.938  14.793
 6471TIP3    H140904   1.066   0.873  14.864
 6471TIP3    H240905   1.035   0.889  14.716
 6472TIP3   OH240906   0.306   0.903  14.947
 6472TIP3    H140907   0.312   0.836  15.019
 6472TIP3    H240908   0.378   0.962  14.970
 6473TIP3   OH240909   1.438   1.232  14.621
 6473TIP3    H140910   1.395   1.161  14.669
 6473TIP3    H240911   1.438   1.304  14.687
 6474TIP3   OH240912   0.394   1.349  14.802
 6474TIP3    H140913   0.362   1.263  14.767
 6474TIP3    H240914   0.490   1.330  14.805
 6475TIP3   OH240915   0.079   0.708  14.324
 6475TIP3    H140916   0.025   0.788  14.347
 6475TIP3    H240917   0.007   0.653  14.300
 6476TIP3   OH240918   0.129   0.926  14.557
 6476TIP3    H140919   0.154   0.848  14.609
 6476TIP3    H240920   0.203   0.937  14.496
 6477TIP3   OH240921   1.149   1.747  14.644
 6477TIP3    H140922   1.213   1.677  14.616
 6477TIP3    H240923   1.129   1.717  14.733
 6478TIP3   OH240924   0.905   1.179  14.837
 6478TIP3    H140925   0.939   1.114  14.773
 6478TIP3    H240926   0.984   1.193  14.892
 6479TIP3   OH240927   1.769   0.341  14.914
 6479TIP3    H140928   1.782   0.404  14.989
 6479TIP3    H240929   1.820   0.386  14.846
 6480TIP3   OH240930   1.222   0.624  14.870
 6480TIP3    H140931   1.237   0.527  14.870
 6480TIP3    H240932   1.212   0.639  14.774
 6481TIP3   OH240933   0.536   0.435  14.594
 6481TIP3    H140934   0.544   0.519  14.545
 6481TIP3    H240935   0.493   0.377  14.527
 6482TIP3   OH240936   1.307   0.441  14.430
 6482TIP3    H140937   1.374   0.411  14.496
 6482TIP3    H240938   1.363   0.498  14.374
 6483TIP3   OH240939   0.199   0.672  14.662
 6483TIP3    H140940   0.266   0.619  14.710
 6483TIP3    H240941   0.208   0.640  14.572
 6484TIP3   OH240942   0.713   0.829  14.595
 6484TIP3    H140943   0.778   0.772  14.639
 6484TIP3    H240944   0.659   0.763  14.548
 6485TIP3   OH240945   1.811   0.485  15.140
 6485TIP3    H140946   1.747   0.558  15.131
 6485TIP3    H240947   1.814   0.473  15.236
 6486TIP3   OH240948   0.423   0.325  14.998
 6486TIP3    H140949   0.395   0.379  14.921
 6486TIP3    H240950   0.353   0.347  15.064
 6487TIP3   OH240951   1.154   1.272  14.352
 6487TIP3    H140952   1.126   1.242  14.265
 6487TIP3    H240953   1.122   1.365  14.357
 6488TIP3   OH240954   0.677   1.088  15.024
 6488TIP3    H140955   0.604   1.151  15.042
 6488TIP3    H240956   0.747   1.148  14.994
 6489TIP3   OH240957   1.488   0.375  14.628
 6489TIP3    H140958   1.465   0.299  14.683
 6489TIP3    H240959   1.554   0.419  14.684
 6490TIP3   OH240960   0.378   0.508  14.797
 6490TIP3    H140961   0.440   0.576  14.832
 6490TIP3    H240962   0.434   0.466  14.727
 6491TIP3   OH240963   0.519   1.286  15.103
 6491TIP3    H140964   0.514   1.378  15.069
 6491TIP3    H240965   0.430   1.279  15.147
 6492TIP3   OH240966   0.128   1.254  14.181
 6492TIP3    H140967   0.103   1.282  14.092
 6492TIP3    H240968   0.134   1.336  14.232
 6493TIP3   OH240969   1.490   1.416  14.858
 6493TIP3    H140970   1.393   1.426  14.871
 6493TIP3    H240971   1.517   1.508  14.839
 6494TIP3   OH240972   1.523   0.245  15.001
 6494TIP3    H140973   1.449   0.306  14.989
 6494TIP3    H240974   1.592   0.285  14.944
 6495TIP3   OH240975   0.847   0.071  14.743
 6495TIP3    H140976   0.828  -0.023  14.738
 6495TIP3    H240977   0.755   0.096  14.765
 6496TIP3   OH240978   1.315   1.594  14.518
 6496TIP3    H140979   1.359   1.523  14.467
 6496TIP3    H240980   1.354   1.674  14.477
 6497TIP3   OH240981   1.435   1.387  14.369
 6497TIP3    H140982   1.406   1.316  14.309
 6497TIP3    H240983   1.439   1.338  14.453
 6498TIP3   OH240984   1.599   1.245  15.218
 6498TIP3    H140985   1.614   1.181  15.145
 6498TIP3    H240986   1.618   1.331  15.177
 6499TIP3   OH240987   1.048   0.936  14.196
 6499TIP3    H140988   0.978   0.992  14.159
 6499TIP3    H240989   1.118   0.944  14.128
 6500TIP3   OH240990   1.054   0.789  13.897
 6500TIP3    H140991   1.125   0.788  13.962
 6500TIP3    H240992   1.086   0.720  13.836
 6501TIP3   OH240993   1.786   0.876  15.024
 6501TIP3    H140994   1.720   0.948  15.029
 6501TIP3    H240995   1.834   0.899  14.942
 6502TIP3   OH240996   1.392   0.957  14.287
 6502TIP3    H140997   1.317   0.981  14.347
 6502TIP3    H240998   1.437   0.888  14.338
 6503TIP3   OH240999   1.384   0.773  15.198
 6503TIP3    H141000   1.386   0.854  15.252
 6503TIP3    H241001   1.321   0.803  15.129
 6504TIP3   OH241002   0.555   1.024  14.478
 6504TIP3    H141003   0.520   0.983  14.395
 6504TIP3    H241004   0.615   0.953  14.512
 6505TIP3   OH241005   0.687   1.363  14.746
 6505TIP3    H141006   0.684   1.308  14.667
 6505TIP3    H241007   0.764   1.326  14.793
 6506TIP3   OH241008   0.588   0.898  14.843
 6506TIP3    H141009   0.644   0.909  14.764
 6506TIP3    H241010   0.624   0.964  14.906
 6507TIP3   OH241011   1.226   1.453  14.914
 6507TIP3    H141012   1.198   1.517  14.980
 6507TIP3    H241013   1.202   1.368  14.957
 6508TIP3   OH241014   0.681   1.339  15.314
 6508TIP3    H141015   0.643   1.416  15.362
 6508TIP3    H241016   0.613   1.321  15.244
 6509TIP3   OH241017   1.278   0.876  14.055
 6509TIP3    H141018   1.335   0.892  14.134
 6509TIP3    H241019   1.322   0.925  13.982
 6510TIP3   OH241020   0.376   0.956  15.236
 6510TIP3    H141021   0.379   1.026  15.303
 6510TIP3    H241022   0.284   0.966  15.206
 6511TIP3   OH241023   1.050   1.548  14.401
 6511TIP3    H141024   1.095   1.579  14.480
 6511TIP3    H241025   0.994   1.623  14.377
 6512TIP3   OH241026   0.506   1.544  15.389
 6512TIP3    H141027   0.499   1.533  15.293
 6512TIP3    H241028   0.412   1.532  15.416
 6513TIP3   OH241029   1.650   0.064  14.030
 6513TIP3    H141030   1.559   0.064  14.068
 6513TIP3    H241031   1.671   0.149  13.996
 6514TIP3   OH241032   0.452   0.925  14.239
 6514TIP3    H141033   0.423   1.004  14.188
 6514TIP3    H241034   0.385   0.860  14.218
 6515TIP3   OH241035   1.763   1.485  13.878
 6515TIP3    H141036   1.778   1.580  13.895
 6515TIP3    H241037   1.856   1.455  13.875
 6516TIP3   OH241038   0.098   1.159  15.107
 6516TIP3    H141039   0.024   1.163  15.042
 6516TIP3    H241040   0.070   1.075  15.148
 6517TIP3   OH241041   0.047   1.452  14.795
 6517TIP3    H141042   0.139   1.427  14.808
 6517TIP3    H241043   0.030   1.520  14.861
 6518TIP3   OH241044   1.859   1.511  15.373
 6518TIP3    H141045   1.849   1.415  15.374
 6518TIP3    H241046   1.773   1.536  15.416
 6519TIP3   OH241047   0.955   1.466  15.262
 6519TIP3    H141048   0.962   1.550  15.313
 6519TIP3    H241049   0.868   1.431  15.288
 6520TIP3   OH241050   0.999   1.841  14.243
 6520TIP3    H141051   0.988   1.832  14.146
 6520TIP3    H241052   0.999   1.937  14.256
 6521TIP3   OH241053   0.363   1.727  14.422
 6521TIP3    H141054   0.377   1.686  14.510
 6521TIP3    H241055   0.279   1.687  14.397
 6522TIP3   OH241056   1.305   1.761  13.941
 6522TIP3    H141057   1.348   1.685  13.896
 6522TIP3    H241058   1.308   1.734  14.035
 6523TIP3   OH241059   1.274   1.754  14.217
 6523TIP3    H141060   1.178   1.762  14.236
 6523TIP3    H241061   1.299   1.681  14.276
 6524TIP3   OH241062   1.574   0.659  15.422
 6524TIP3    H141063   1.528   0.705  15.350
 6524TIP3    H241064   1.574   0.568  15.392
 6525TIP3   OH241065   0.288   1.302  15.224
 6525TIP3    H141066   0.306   1.262  15.312
 6525TIP3    H241067   0.202   1.261  15.200
 6526TIP3   OH241068   0.549   0.158  14.826
 6526TIP3    H141069   0.462   0.141  14.783
 6526TIP3    H241070   0.538   0.241  14.870
 6527TIP3   OH241071   1.017   0.114  15.158
 6527TIP3    H141072   1.058   0.075  15.235
 6527TIP3    H241073   0.922   0.102  15.172
 6528TIP3   OH241074   1.349   0.494  15.245
 6528TIP3    H141075   1.293   0.478  15.325
 6528TIP3    H241076   1.332   0.587  15.221
 6529TIP3   OH241077   1.424   0.979  13.829
 6529TIP3    H141078   1.425   0.959  13.733
 6529TIP3    H241079   1.510   1.022  13.839
 6530TIP3   OH241080   0.985   0.370  13.887
 6530TIP3    H141081   0.954   0.365  13.979
 6530TIP3    H241082   0.953   0.282  13.857
 6531TIP3   OH241083   0.564   0.642  14.939
 6531TIP3    H141084   0.493   0.640  15.006
 6531TIP3    H241085   0.560   0.735  14.907
 6532TIP3   OH241086   0.562   0.658  14.428
 6532TIP3    H141087   0.468   0.630  14.416
 6532TIP3    H241088   0.601   0.626  14.346
 6533TIP3   OH241089   1.113   0.705  14.307
 6533TIP3    H141090   1.073   0.788  14.272
 6533TIP3    H241091   1.183   0.690  14.242
 6534TIP3   OH241092   1.020   0.726  15.452
 6534TIP3    H141093   0.966   0.650  15.483
 6534TIP3    H241094   1.104   0.713  15.498
 6535TIP3   OH241095   1.216   0.653  14.591
 6535TIP3    H141096   1.190   0.710  14.516
 6535TIP3    H241097   1.228   0.569  14.544
 6536TIP3   OH241098   0.332   0.669  15.115
 6536TIP3    H141099   0.331   0.712  15.202
 6536TIP3    H241100   0.283   0.587  15.129
 6537TIP3   OH241101   0.667   0.412  13.799
 6537TIP3    H141102   0.623   0.365  13.872
 6537TIP3    H241103   0.594   0.450  13.748
 6538TIP3   OH241104   0.011   0.396  14.497
 6538TIP3    H141105   0.062   0.378  14.579
 6538TIP3    H241106   0.045   0.338  14.430
 6539TIP3   OH241107   0.119   0.460  14.045
 6539TIP3    H141108   0.172   0.518  13.987
 6539TIP3    H241109   0.049   0.517  14.074
 6540TIP3   OH241110   1.138   0.814  15.049
 6540TIP3    H141111   1.174   0.746  14.989
 6540TIP3    H241112   1.092   0.760  15.117
 6541TIP3   OH241113   0.817   0.408  14.530
 6541TIP3    H141114   0.724   0.409  14.561
 6541TIP3    H241115   0.866   0.398  14.613
 6542TIP3   OH241116   0.304   0.566  14.414
 6542TIP3    H141117   0.213   0.582  14.380
 6542TIP3    H241118   0.328   0.480  14.377
 6543TIP3   OH241119   0.664   0.568  14.179
 6543TIP3    H141120   0.759   0.583  14.198
 6543TIP3    H241121   0.640   0.638  14.115
 6544TIP3   OH241122   1.258   0.332  14.855
 6544TIP3    H141123   1.189   0.341  14.924
 6544TIP3    H241124   1.208   0.311  14.775
 6545TIP3   OH241125   0.533   0.688  13.938
 6545TIP3    H141126   0.479   0.651  13.866
 6545TIP3    H241127   0.616   0.708  13.892
 6546TIP3   OH241128   1.579   1.898  15.489
 6546TIP3    H141129   1.606   1.937  15.404
 6546TIP3    H241130   1.651   1.930  15.546
 6547TIP3   OH241131   0.347   1.144  15.443
 6547TIP3    H141132   0.417   1.171  15.505
 6547TIP3    H241133   0.269   1.160  15.502
 6548TIP3   OH241134   0.946   0.685  14.720
 6548TIP3    H141135   1.005   0.630  14.667
 6548TIP3    H241136   0.932   0.632  14.799
 6549TIP3   OH241137   0.447   0.304  14.361
 6549TIP3    H141138   0.415   0.212  14.362
 6549TIP3    H241139   0.526   0.296  14.307
 6550TIP3   OH241140   0.810   0.520  14.961
 6550TIP3    H141141   0.727   0.571  14.971
 6550TIP3    H241142   0.865   0.553  15.035
 6551TIP3   OH241143   0.869   1.143  14.131
 6551TIP3    H141144   0.789   1.094  14.098
 6551TIP3    H241145   0.848   1.152  14.226
 6552TIP3   OH241146   1.585   1.060  15.011
 6552TIP3    H141147   1.643   1.108  14.950
 6552TIP3    H241148   1.499   1.068  14.964
 6553TIP3   OH241149   1.252   0.426  13.949
 6553TIP3    H141150   1.157   0.438  13.935
 6553TIP3    H241151   1.285   0.511  13.983
 6554TIP3   OH241152   1.017   1.166  15.255
 6554TIP3    H141153   0.983   1.125  15.335
 6554TIP3    H241154   0.994   1.259  15.264
 6555TIP3   OH241155   1.325   0.614  14.113
 6555TIP3    H141156   1.415   0.600  14.151
 6555TIP3    H241157   1.334   0.695  14.061
 6556TIP3   OH241158   0.380   1.080  14.710
 6556TIP3    H141159   0.450   1.073  14.643
 6556TIP3    H241160   0.385   0.994  14.756
 6557TIP3   OH241161   1.079   1.289  14.034
 6557TIP3    H141162   1.045   1.373  14.071
 6557TIP3    H241163   1.005   1.228  14.055
 6558TIP3   OH241164   0.100   0.901  15.214
 6558TIP3    H141165   0.107   0.879  15.308
 6558TIP3    H241166   0.017   0.859  15.192
 6559TIP3   OH241167   0.779   0.875  15.459
 6559TIP3    H141168   0.750   0.851  15.370
 6559TIP3    H241169   0.872   0.847  15.457
 6560TIP3   OH241170   1.246   1.410  15.249
 6560TIP3    H141171   1.154   1.429  15.226
 6560TIP3    H241172   1.245   1.438  15.342
 6561TIP3   OH241173   1.815   0.631  14.089
 6561TIP3    H141174   1.759   0.599  14.016
 6561TIP3    H241175   1.824   0.725  14.060
 6562TIP3   OH241176   1.814   1.215  15.371
 6562TIP3    H141177   1.725   1.237  15.333
 6562TIP3    H241178   1.869   1.211  15.291
 6563TIP3   OH241179   1.642   1.512  14.130
 6563TIP3    H141180   1.607   1.429  14.163
 6563TIP3    H241181   1.675   1.492  14.041
 6564TIP3   OH241182   1.364   0.994  14.838
 6564TIP3    H141183   1.269   0.971  14.830
 6564TIP3    H241184   1.407   0.916  14.798
 6565TIP3   OH241185   0.616   1.426  14.450
 6565TIP3    H141186   0.667   1.506  14.428
 6565TIP3    H241187   0.528   1.450  14.417
 6566TIP3   OH241188   0.187   0.910  13.910
 6566TIP3    H141189   0.252   0.976  13.945
 6566TIP3    H241190   0.103   0.945  13.937
 6567TIP3   OH241191   0.759   1.192  14.402
 6567TIP3    H141192   0.729   1.285  14.411
 6567TIP3    H241193   0.685   1.145  14.446
 6568TIP3   OH241194   0.805   1.610  15.040
 6568TIP3    H141195   0.848   1.692  15.014
 6568TIP3    H241196   0.864   1.578  15.110
 6569TIP3   OH241197   0.626   1.693  14.356
 6569TIP3    H141198   0.529   1.706  14.367
 6569TIP3    H241199   0.662   1.777  14.391
 6570TIP3   OH241200   1.159   1.213  15.005
 6570TIP3    H141201   1.122   1.193  15.094
 6570TIP3    H241202   1.221   1.141  14.988
 6571TIP3   OH241203   1.388   1.316  13.913
 6571TIP3    H141204   1.418   1.271  13.994
 6571TIP3    H241205   1.292   1.300  13.923
 6572TIP3   OH241206   1.435   1.670  15.255
 6572TIP3    H141207   1.368   1.619  15.204
 6572TIP3    H241208   1.456   1.739  15.188
 6573TIP3   OH241209   1.835   1.754  13.937
 6573TIP3    H141210   1.906   1.820  13.919
 6573TIP3    H241211   1.764   1.816  13.967
 6574TIP3   OH241212   0.244   0.395  15.195
 6574TIP3    H141213   0.153   0.429  15.190
 6574TIP3    H241214   0.230   0.307  15.236
 6575TIP3   OH241215   1.467   1.181  14.137
 6575TIP3    H141216   1.443   1.104  14.192
 6575TIP3    H241217   1.562   1.187  14.156
 6576TIP3   OH241218   0.209   1.577  15.033
 6576TIP3    H141219   0.230   1.482  15.035
 6576TIP3    H241220   0.230   1.602  15.124
 6577TIP3   OH241221   0.799   1.425  13.761
 6577TIP3    H141222   0.814   1.348  13.704
 6577TIP3    H241223   0.761   1.382  13.840
 6578TIP3   OH241224   0.682   1.378  14.006
 6578TIP3    H141225   0.704   1.327  14.085
 6578TIP3    H241226   0.686   1.471  14.038
 6579TIP3   OH241227   0.331   1.102  14.054
 6579TIP3    H141228   0.263   1.141  14.113
 6579TIP3    H241229   0.384   1.180  14.029
 6580TIP3   OH241230   1.116   0.370  15.087
 6580TIP3    H141231   1.188   0.378  15.152
 6580TIP3    H241232   1.079   0.281  15.104
 6581TIP3   OH241233   1.195   0.329  14.196
 6581TIP3    H141234   1.214   0.380  14.114
 6581TIP3    H241235   1.248   0.377  14.262
 6582TIP3   OH241236   0.960   1.545  14.079
 6582TIP3    H141237   0.878   1.598  14.085
 6582TIP3    H241238   1.013   1.599  14.017
 6583TIP3   OH241239   0.914   0.503  14.278
 6583TIP3    H141240   0.993   0.560  14.282
 6583TIP3    H241241   0.889   0.493  14.372
 6584TIP3   OH241242   0.971   0.607  15.195
 6584TIP3    H141243   0.978   0.663  15.275
 6584TIP3    H241244   1.035   0.536  15.207
 6585TIP3   OH241245   1.001   0.211  14.372
 6585TIP3    H141246   0.967   0.278  14.434
 6585TIP3    H241247   1.067   0.265  14.323
 6586TIP3   OH241248   0.698   1.649  14.079
 6586TIP3    H141249   0.709   1.732  14.026
 6586TIP3    H241250   0.673   1.685  14.167
 6587TIP3   OH241251   0.566   0.320  14.038
 6587TIP3    H141252   0.560   0.410  14.075
 6587TIP3    H241253   0.658   0.299  14.063
 6588TIP3   OH241254   1.588   0.393  15.282
 6588TIP3    H141255   1.495   0.424  15.269
 6588TIP3    H241256   1.619   0.393  15.189
 6589TIP3   OH241257   1.448   0.773  14.685
 6589TIP3    H141258   1.366   0.729  14.656
 6589TIP3    H241259   1.495   0.703  14.736
 6590TIP3   OH241260   0.389   1.364  13.944
 6590TIP3    H141261   0.454   1.430  13.973
 6590TIP3    H241262   0.441   1.319  13.874
 6591TIP3   OH241263   0.228   0.632  13.854
 6591TIP3    H141264   0.224   0.726  13.878
 6591TIP3    H241265   0.137   0.611  13.830
 6592TIP3   OH241266   1.555   1.697  14.851
 6592TIP3    H141267   1.544   1.766  14.783
 6592TIP3    H241268   1.651   1.704  14.869
 6593TIP3   OH241269   0.287   0.124  14.730
 6593TIP3    H141270   0.285   0.114  14.633
 6593TIP3    H241271   0.268   0.032  14.755
 6594TIP3   OH241272   0.203   1.502  14.344
 6594TIP3    H141273   0.117   1.547  14.342
 6594TIP3    H241274   0.251   1.553  14.278
 6595TIP3   OH241275   0.135   1.768  15.472
 6595TIP3    H141276   0.185   1.744  15.551
 6595TIP3    H241277   0.082   1.687  15.457
 6596TIP3   OH241278   0.587   1.656  15.636
 6596TIP3    H141279   0.665   1.610  15.668
 6596TIP3    H241280   0.585   1.631  15.542
 6597TIP3   OH241281   1.000   1.611  13.774
 6597TIP3    H141282   0.932   1.545  13.801
 6597TIP3    H241283   1.073   1.552  13.750
 6598TIP3   OH241284   1.241   1.497  15.506
 6598TIP3    H141285   1.208   1.409  15.535
 6598TIP3    H241286   1.317   1.509  15.566
 6599TIP3   OH241287   1.457   1.587  13.794
 6599TIP3    H141288   1.487   1.508  13.843
 6599TIP3    H241289   1.533   1.610  13.739
 6600TIP3   OH241290   0.125   1.144  15.569
 6600TIP3    H141291   0.131   1.052  15.541
 6600TIP3    H241292   0.042   1.174  15.526
 6601TIP3   OH241293   0.547   1.180  13.778
 6601TIP3    H141294   0.560   1.102  13.834
 6601TIP3    H241295   0.620   1.168  13.714
 6602TIP3   OH241296   0.784   1.143  15.512
 6602TIP3    H141297   0.749   1.172  15.426
 6602TIP3    H241298   0.794   1.046  15.502
 6603TIP3   OH241299   1.089   1.289  13.754
 6603TIP3    H141300   1.061   1.300  13.846
 6603TIP3    H241301   1.069   1.193  13.741
 6604TIP3   OH241302   1.354   1.131  15.251
 6604TIP3    H141303   1.432   1.191  15.243
 6604TIP3    H241304   1.282   1.195  15.255
 6605TIP3   OH241305   0.198   0.866  15.510
 6605TIP3    H141306   0.245   0.782  15.499
 6605TIP3    H241307   0.181   0.870  15.606
 6606TIP3   OH241308   0.667   0.981  14.016
 6606TIP3    H141309   0.618   0.928  14.081
 6606TIP3    H241310   0.695   0.912  13.951
 6607TIP3   OH241311   0.594   0.763  15.249
 6607TIP3    H141312   0.534   0.835  15.274
 6607TIP3    H241313   0.632   0.799  15.166
 6608TIP3   OH241314   0.774   0.803  13.839
 6608TIP3    H141315   0.758   0.792  13.743
 6608TIP3    H241316   0.871   0.810  13.844
 6609TIP3   OH241317   1.099   1.018  15.582
 6609TIP3    H141318   1.195   1.019  15.570
 6609TIP3    H241319   1.083   0.942  15.639
 6610TIP3   OH241320   1.710   1.036  13.782
 6610TIP3    H141321   1.687   0.996  13.696
 6610TIP3    H241322   1.717   1.132  13.761
 6611TIP3   OH241323   0.631   0.499  15.355
 6611TIP3    H141324   0.647   0.428  15.290
 6611TIP3    H241325   0.629   0.580  15.299
 6612TIP3   OH241326   0.674   0.339  15.107
 6612TIP3    H141327   0.726   0.387  15.038
 6612TIP3    H241328   0.585   0.328  15.065
 6613TIP3   OH241329   0.830   0.886  15.132
 6613TIP3    H141330   0.905   0.870  15.073
 6613TIP3    H241331   0.794   0.970  15.100
 6614TIP3   OH241332   1.268   0.663  15.629
 6614TIP3    H141333   1.291   0.569  15.621
 6614TIP3    H241334   1.354   0.706  15.631
 6615TIP3   OH241335   1.402   0.942  15.445
 6615TIP3    H141336   1.377   1.014  15.383
 6615TIP3    H241337   1.498   0.938  15.425
 6616TIP3   OH241338   0.493   0.647  15.523
 6616TIP3    H141339   0.417   0.596  15.491
 6616TIP3    H241340   0.561   0.595  15.474
 6617TIP3   OH241341   0.744   0.095  15.165
 6617TIP3    H141342   0.737   0.190  15.139
 6617TIP3    H241343   0.680   0.054  15.104
 6618TIP3   OH241344   0.879   0.516  15.508
 6618TIP3    H141345   0.852   0.490  15.598
 6618TIP3    H241346   0.801   0.494  15.454
 6619TIP3   OH241347   1.151   0.433  15.417
 6619TIP3    H141348   1.055   0.433  15.429
 6619TIP3    H241349   1.179   0.367  15.483
 6620TIP3   OH241350   1.310   0.297  15.611
 6620TIP3    H141351   1.305   0.198  15.611
 6620TIP3    H241352   1.282   0.320  15.702
 6621TIP3   OH241353   0.290   0.408  15.515
 6621TIP3    H141354   0.314   0.336  15.454
 6621TIP3    H241355   0.277   0.358  15.599
 6622TIP3   OH241356   0.773   7.358  15.415
 6622TIP3    H141357   0.842   7.292  15.420
 6622TIP3    H241358   0.765   7.384  15.321
 6623TIP3   OH241359   0.809   0.185  15.623
 6623TIP3    H141360   0.797   0.131  15.542
 6623TIP3    H241361   0.751   0.260  15.615
 6624TIP3   OH241362   0.760   1.872  13.944
 6624TIP3    H141363   0.856   1.885  13.952
 6624TIP3    H241364   0.741   1.936  13.874
 6625TIP3   OH241365   0.122   1.336  13.899
 6625TIP3    H141366   0.219   1.343  13.913
 6625TIP3    H241367   0.121   1.270  13.825
 6626TIP3   OH241368   7.356   1.876  14.379
 6626TIP3    H141369   7.270   1.847  14.345
 6626TIP3    H241370   7.368   1.813  14.455
 6627TIP3   OH241371   0.071   1.684  14.572
 6627TIP3    H141372   0.039   1.595  14.595
 6627TIP3    H241373   0.095   1.717  14.661
 6628TIP3   OH241374   1.827   1.763  14.871
 6628TIP3    H141375   1.829   1.780  14.967
 6628TIP3    H241376   1.897   1.820  14.840
 6629TIP3   OH241377   1.784   1.722  15.165
 6629TIP3    H141378   1.737   1.645  15.128
 6629TIP3    H241379   1.836   1.678  15.235
 6630TIP3   OH241380   1.630   1.294  15.631
 6630TIP3    H141381   1.540   1.291  15.670
 6630TIP3    H241382   1.666   1.374  15.676
 6631TIP3   OH241383   1.760   1.127  14.177
 6631TIP3    H141384   1.846   1.166  14.194
 6631TIP3    H241385   1.759   1.053  14.242
 6632TIP3   OH241386   1.797   0.934  14.363
 6632TIP3    H141387   1.723   0.883  14.403
 6632TIP3    H241388   1.857   0.949  14.439
 6633TIP3   OH241389   1.773   1.205  14.861
 6633TIP3    H141390   1.855   1.168  14.826
 6633TIP3    H241391   1.787   1.301  14.845
 6634TIP3   OH241392   1.627   1.495  15.090
 6634TIP3    H141393   1.558   1.529  15.149
 6634TIP3    H241394   1.572   1.454  15.019
 6635TIP3   OH241395   1.827   0.917  14.003
 6635TIP3    H141396   1.771   0.953  13.931
 6635TIP3    H241397   1.819   0.988  14.069
 6636TIP3   OH241398   1.663   0.642  13.855
 6636TIP3    H141399   1.671   0.709  13.786
 6636TIP3    H241400   1.645   0.559  13.806
 6637TIP3   OH241401   1.578   0.782  14.420
 6637TIP3    H141402   1.563   0.687  14.417
 6637TIP3    H241403   1.544   0.806  14.507
 6638TIP3   OH241404   0.078   0.990  14.824
 6638TIP3    H141405   0.097   0.984  14.727
 6638TIP3    H241406   0.166   0.976  14.863
 6639TIP3   OH241407   1.663   0.979  15.388
 6639TIP3    H141408   1.725   0.904  15.402
 6639TIP3    H241409   1.723   1.057  15.389
 6640TIP3   OH241410   1.813   0.769  15.455
 6640TIP3    H141411   1.726   0.728  15.436
 6640TIP3    H241412   1.872   0.692  15.446
 6641TIP3   OH241413   1.586   0.389  13.770
 6641TIP3    H141414   1.647   0.345  13.832
 6641TIP3    H241415   1.502   0.343  13.785
 6642TIP3   OH241416   1.544   0.541  14.263
 6642TIP3    H141417   1.576   0.450  14.278
 6642TIP3    H241418   1.626   0.582  14.230
 6643TIP3   OH241419   1.609   0.597  14.809
 6643TIP3    H141420   1.705   0.619  14.808
 6643TIP3    H241421   1.589   0.609  14.904
 6644TIP3   OH241422   1.615   0.669  15.088
 6644TIP3    H141423   1.527   0.697  15.122
 6644TIP3    H241424   1.658   0.754  15.066
 6645TIP3   OH241425   0.058   0.514  15.442
 6645TIP3    H141426   0.147   0.490  15.462
 6645TIP3    H241427  -0.001   0.440  15.472
 6646TIP3   OH241428   1.848   0.071  15.624
 6646TIP3    H141429   1.877   0.005  15.560
 6646TIP3    H241430   1.852   0.155  15.574
 6647TIP3   OH241431   1.611   0.267  14.270
 6647TIP3    H141432   1.630   0.222  14.355
 6647TIP3    H241433   1.552   0.203  14.225
 6648TIP3   OH241434   0.157   0.351  14.725
 6648TIP3    H141435   0.207   0.270  14.753
 6648TIP3    H241436   0.212   0.418  14.768
 6649TIP3   OH241437   0.063   0.693  14.869
 6649TIP3    H141438   0.059   0.658  14.777
 6649TIP3    H241439   0.034   0.782  14.849
 6650TIP3   OH241440   1.796   0.280  15.457
 6650TIP3    H141441   1.702   0.307  15.453
 6650TIP3    H241442   1.800   0.225  15.377
 6651TIP3   OH241443   1.795   0.276  13.924
 6651TIP3    H141444   1.837   0.200  13.876
 6651TIP3    H241445   1.867   0.339  13.930
 6652TIP3   OH241446   0.065   0.270  14.212
 6652TIP3    H141447  -0.031   0.294  14.214
 6652TIP3    H241448   0.089   0.339  14.147
 6653TIP3   OH241449   1.499   1.771  14.433
 6653TIP3    H141450   1.567   1.739  14.371
 6653TIP3    H241451   1.552   1.821  14.497
 6654TIP3   OH241452   7.375   0.142  15.079
 6654TIP3    H141453   7.301   0.119  15.135
 6654TIP3    H241454   7.324   0.198  15.018
 6655TIP3   OH241455   0.244   1.465  15.486
 6655TIP3    H141456   0.160   1.482  15.441
 6655TIP3    H241457   0.216   1.454  15.577
 6656TIP3   OH241458   0.536   1.562  15.112
 6656TIP3    H141459   0.496   1.646  15.083
 6656TIP3    H241460   0.627   1.572  15.080
 6657TIP3   OH241461   0.966   1.704  15.403
 6657TIP3    H141462   0.982   1.669  15.495
 6657TIP3    H241463   1.055   1.734  15.377
 6658TIP3   OH241464   1.196   1.831  15.332
 6658TIP3    H141465   1.269   1.771  15.309
 6658TIP3    H241466   1.234   1.873  15.412
 6659TIP3   OH241467   1.697   0.094  15.240
 6659TIP3    H141468   1.614   0.125  15.203
 6659TIP3    H241469   1.715   0.013  15.189
 6660TIP3   OH241470   0.278   1.887  15.114
 6660TIP3    H141471   0.202   1.932  15.071
 6660TIP3    H241472   0.240   1.865  15.201
 6661TIP3   OH241473   0.525   1.845  15.019
 6661TIP3    H141474   0.435   1.858  15.059
 6661TIP3    H241475   0.518   1.903  14.941
 6662TIP3   OH241476   0.994   1.835  14.936
 6662TIP3    H141477   0.948   1.890  14.871
 6662TIP3    H241478   1.008   1.898  15.009
 6663TIP3   OH241479   1.225   1.718  15.035
 6663TIP3    H141480   1.137   1.743  15.002
 6663TIP3    H241481   1.270   1.804  15.027
 6664TIP3   OH241482   1.482   1.874  15.061
 6664TIP3    H141483   1.473   1.970  15.038
 6664TIP3    H241484   1.503   1.838  14.973
 6665TIP3   OH241485   0.219   1.752  14.805
 6665TIP3    H141486   0.216   1.707  14.892
 6665TIP3    H241487   0.301   1.714  14.766
 6666TIP3   OH241488   0.430   1.621  14.670
 6666TIP3    H141489   0.412   1.528  14.692
 6666TIP3    H241490   0.515   1.636  14.717
 6667TIP3   OH241491   0.689   1.670  14.758
 6667TIP3    H141492   0.706   1.578  14.731
 6667TIP3    H241493   0.694   1.664  14.854
 6668TIP3   OH241494   1.034   0.241  14.670
 6668TIP3    H141495   0.970   0.172  14.699
 6668TIP3    H241496   1.094   0.187  14.616
 6669TIP3   OH241497   1.549   0.044  14.683
 6669TIP3    H141498   1.611   0.098  14.628
 6669TIP3    H241499   1.462   0.076  14.657
 6670TIP3   OH241500   1.719   0.165  14.508
 6670TIP3    H141501   1.785   0.107  14.466
 6670TIP3    H241502   1.767   0.250  14.517
 6671TIP3   OH241503   0.279   0.103  14.444
 6671TIP3    H141504   0.193   0.075  14.408
 6671TIP3    H241505   0.317   0.015  14.459
 6672TIP3   OH241506   0.158   0.118  13.977
 6672TIP3    H141507   0.227   0.181  13.963
 6672TIP3    H241508   0.112   0.140  14.062
 6673TIP3   OH241509   0.748   0.130  14.467
 6673TIP3    H141510   0.842   0.131  14.442
 6673TIP3    H241511   0.732   0.065  14.537
 6674TIP3   OH241512   1.273   0.116  14.604
 6674TIP3    H141513   1.287   0.112  14.509
 6674TIP3    H241514   1.260   0.017  14.615
 6675TIP3   OH241515   1.416   0.097  14.169
 6675TIP3    H141516   1.344   0.158  14.148
 6675TIP3    H241517   1.374   0.010  14.183
 6676TIP3   OH241518   0.154   1.676  14.122
 6676TIP3    H141519   0.076   1.669  14.063
 6676TIP3    H241520   0.141   1.767  14.152
 6677TIP3   OH241521   0.337   0.273  13.875
 6677TIP3    H141522   0.387   0.207  13.825
 6677TIP3    H241523   0.400   0.300  13.943
 6678TIP3   OH241524   0.831   0.293  14.123
 6678TIP3    H141525   0.863   0.235  14.194
 6678TIP3    H241526   0.840   0.380  14.169
 6679TIP3   OH241527   1.028   1.797  13.966
 6679TIP3    H141528   1.119   1.825  13.944
 6679TIP3    H241529   1.006   1.748  13.884
 6680TIP3   OH241530   1.700   1.750  14.236
 6680TIP3    H141531   1.679   1.672  14.178
 6680TIP3    H241532   1.693   1.824  14.172
 6681TIP3   OH241533   0.254   0.156  15.403
 6681TIP3    H141534   0.224   0.074  15.445
 6681TIP3    H241535   0.348   0.150  15.433
 6682TIP3   OH241536   0.445   0.105  15.554
 6682TIP3    H141537   0.538   0.074  15.543
 6682TIP3    H241538   0.424   0.021  15.601
 6683TIP3   OH241539   0.321   1.765  13.824
 6683TIP3    H141540   0.296   1.793  13.914
 6683TIP3    H241541   0.400   1.711  13.842
 6684TIP3   OH241542   1.299   7.385  15.577
 6684TIP3    H141543   1.306   7.324  15.654
 6684TIP3    H241544   1.387   7.364  15.541
 6685TIP3   OH241545   1.623   1.623  15.448
 6685TIP3    H141546   1.543   1.609  15.392
 6685TIP3    H241547   1.612   1.718  15.468
 6686TIP3   OH241548   3.066   1.012  14.445
 6686TIP3    H141549   3.068   1.109  14.438
 6686TIP3    H241550   2.995   0.987  14.383
 6687TIP3   OH241551   2.953   0.938  14.793
 6687TIP3    H141552   2.951   0.873  14.864
 6687TIP3    H241553   2.920   0.889  14.716
 6688TIP3   OH241554   2.189   0.904  14.949
 6688TIP3    H141555   2.197   0.837  15.020
 6688TIP3    H241556   2.263   0.962  14.970
 6689TIP3   OH241557   3.323   1.232  14.621
 6689TIP3    H141558   3.280   1.161  14.669
 6689TIP3    H241559   3.324   1.304  14.687
 6690TIP3   OH241560   2.282   1.349  14.801
 6690TIP3    H141561   2.249   1.263  14.767
 6690TIP3    H241562   2.377   1.330  14.805
 6691TIP3   OH241563   1.946   0.707  14.346
 6691TIP3    H141564   1.901   0.794  14.341
 6691TIP3    H241565   1.889   0.652  14.291
 6692TIP3   OH241566   2.016   0.928  14.560
 6692TIP3    H141567   2.041   0.847  14.607
 6692TIP3    H241568   2.088   0.937  14.495
 6693TIP3   OH241569   3.034   1.747  14.644
 6693TIP3    H141570   3.099   1.677  14.616
 6693TIP3    H241571   3.014   1.717  14.733
 6694TIP3   OH241572   2.791   1.179  14.837
 6694TIP3    H141573   2.825   1.114  14.773
 6694TIP3    H241574   2.870   1.193  14.892
 6695TIP3   OH241575   3.655   0.343  14.914
 6695TIP3    H141576   3.668   0.407  14.990
 6695TIP3    H241577   3.707   0.391  14.846
 6696TIP3   OH241578   3.107   0.624  14.870
 6696TIP3    H141579   3.122   0.527  14.869
 6696TIP3    H241580   3.097   0.640  14.774
 6697TIP3   OH241581   2.420   0.435  14.593
 6697TIP3    H141582   2.429   0.519  14.545
 6697TIP3    H241583   2.378   0.377  14.527
 6698TIP3   OH241584   3.193   0.442  14.430
 6698TIP3    H141585   3.259   0.412  14.496
 6698TIP3    H241586   3.248   0.498  14.374
 6699TIP3   OH241587   2.082   0.674  14.667
 6699TIP3    H141588   2.149   0.618  14.711
 6699TIP3    H241589   2.090   0.643  14.576
 6700TIP3   OH241590   2.598   0.829  14.595
 6700TIP3    H141591   2.664   0.772  14.639
 6700TIP3    H241592   2.545   0.763  14.548
 6701TIP3   OH241593   3.693   0.482  15.139
 6701TIP3    H141594   3.633   0.559  15.131
 6701TIP3    H241595   3.701   0.474  15.236
 6702TIP3   OH241596   2.309   0.326  14.998
 6702TIP3    H141597   2.280   0.379  14.922
 6702TIP3    H241598   2.239   0.346  15.064
 6703TIP3   OH241599   3.040   1.272  14.352
 6703TIP3    H141600   3.012   1.243  14.265
 6703TIP3    H241601   3.008   1.365  14.357
 6704TIP3   OH241602   2.562   1.088  15.023
 6704TIP3    H141603   2.490   1.152  15.041
 6704TIP3    H241604   2.632   1.147  14.994
 6705TIP3   OH241605   3.375   0.374  14.629
 6705TIP3    H141606   3.348   0.299  14.683
 6705TIP3    H241607   3.439   0.421  14.683
 6706TIP3   OH241608   2.264   0.510  14.797
 6706TIP3    H141609   2.328   0.577  14.832
 6706TIP3    H241610   2.318   0.466  14.728
 6707TIP3   OH241611   2.405   1.287  15.104
 6707TIP3    H141612   2.401   1.378  15.069
 6707TIP3    H241613   2.317   1.280  15.148
 6708TIP3   OH241614   2.014   1.250  14.184
 6708TIP3    H141615   1.988   1.281  14.095
 6708TIP3    H241616   2.021   1.335  14.232
 6709TIP3   OH241617   3.376   1.416  14.858
 6709TIP3    H141618   3.279   1.426  14.871
 6709TIP3    H241619   3.402   1.508  14.839
 6710TIP3   OH241620   3.406   0.249  15.001
 6710TIP3    H141621   3.328   0.308  14.992
 6710TIP3    H241622   3.469   0.300  14.950
 6711TIP3   OH241623   2.732   0.071  14.743
 6711TIP3    H141624   2.713  -0.023  14.738
 6711TIP3    H241625   2.640   0.096  14.765
 6712TIP3   OH241626   3.201   1.594  14.518
 6712TIP3    H141627   3.244   1.523  14.467
 6712TIP3    H241628   3.240   1.674  14.477
 6713TIP3   OH241629   3.321   1.387  14.369
 6713TIP3    H141630   3.292   1.316  14.309
 6713TIP3    H241631   3.325   1.338  14.453
 6714TIP3   OH241632   3.484   1.245  15.218
 6714TIP3    H141633   3.499   1.181  15.145
 6714TIP3    H241634   3.504   1.331  15.177
 6715TIP3   OH241635   2.934   0.936  14.196
 6715TIP3    H141636   2.863   0.992  14.159
 6715TIP3    H241637   3.004   0.944  14.128
 6716TIP3   OH241638   2.940   0.789  13.897
 6716TIP3    H141639   3.011   0.788  13.962
 6716TIP3    H241640   2.971   0.720  13.836
 6717TIP3   OH241641   3.671   0.876  15.023
 6717TIP3    H141642   3.607   0.949  15.029
 6717TIP3    H241643   3.719   0.900  14.942
 6718TIP3   OH241644   3.277   0.957  14.287
 6718TIP3    H141645   3.202   0.981  14.347
 6718TIP3    H241646   3.323   0.888  14.338
 6719TIP3   OH241647   3.269   0.773  15.198
 6719TIP3    H141648   3.271   0.854  15.252
 6719TIP3    H241649   3.206   0.804  15.129
 6720TIP3   OH241650   2.439   1.023  14.478
 6720TIP3    H141651   2.407   0.984  14.394
 6720TIP3    H241652   2.500   0.953  14.512
 6721TIP3   OH241653   2.572   1.363  14.746
 6721TIP3    H141654   2.569   1.308  14.668
 6721TIP3    H241655   2.649   1.326  14.793
 6722TIP3   OH241656   2.473   0.897  14.843
 6722TIP3    H141657   2.530   0.909  14.764
 6722TIP3    H241658   2.510   0.963  14.906
 6723TIP3   OH241659   3.111   1.453  14.914
 6723TIP3    H141660   3.084   1.517  14.980
 6723TIP3    H241661   3.087   1.368  14.957
 6724TIP3   OH241662   2.567   1.339  15.314
 6724TIP3    H141663   2.528   1.415  15.362
 6724TIP3    H241664   2.499   1.321  15.244
 6725TIP3   OH241665   3.164   0.876  14.055
 6725TIP3    H141666   3.221   0.892  14.134
 6725TIP3    H241667   3.208   0.925  13.982
 6726TIP3   OH241668   2.260   0.956  15.232
 6726TIP3    H141669   2.264   1.023  15.303
 6726TIP3    H241670   2.167   0.967  15.207
 6727TIP3   OH241671   2.936   1.548  14.401
 6727TIP3    H141672   2.981   1.579  14.480
 6727TIP3    H241673   2.880   1.623  14.377
 6728TIP3   OH241674   2.391   1.545  15.389
 6728TIP3    H141675   2.387   1.533  15.293
 6728TIP3    H241676   2.297   1.532  15.415
 6729TIP3   OH241677   3.536   0.057  14.035
 6729TIP3    H141678   3.444   0.064  14.068
 6729TIP3    H241679   3.558   0.142  13.997
 6730TIP3   OH241680   2.337   0.926  14.240
 6730TIP3    H141681   2.308   1.004  14.188
 6730TIP3    H241682   2.271   0.860  14.218
 6731TIP3   OH241683   3.649   1.485  13.878
 6731TIP3    H141684   3.663   1.580  13.895
 6731TIP3    H241685   3.742   1.455  13.875
 6732TIP3   OH241686   1.946   1.168  15.126
 6732TIP3    H141687   1.899   1.160  15.041
 6732TIP3    H241688   1.951   1.073  15.150
 6733TIP3   OH241689   1.921   1.442  14.807
 6733TIP3    H141690   2.017   1.429  14.805
 6733TIP3    H241691   1.913   1.522  14.859
 6734TIP3   OH241692   3.743   1.512  15.373
 6734TIP3    H141693   3.735   1.415  15.374
 6734TIP3    H241694   3.658   1.536  15.416
 6735TIP3   OH241695   2.841   1.466  15.262
 6735TIP3    H141696   2.847   1.550  15.313
 6735TIP3    H241697   2.753   1.431  15.288
 6736TIP3   OH241698   2.884   1.841  14.243
 6736TIP3    H141699   2.874   1.832  14.146
 6736TIP3    H241700   2.885   1.937  14.256
 6737TIP3   OH241701   2.248   1.727  14.423
 6737TIP3    H141702   2.262   1.686  14.511
 6737TIP3    H241703   2.163   1.687  14.399
 6738TIP3   OH241704   3.191   1.761  13.941
 6738TIP3    H141705   3.233   1.685  13.896
 6738TIP3    H241706   3.193   1.734  14.035
 6739TIP3   OH241707   3.160   1.754  14.217
 6739TIP3    H141708   3.064   1.762  14.236
 6739TIP3    H241709   3.184   1.681  14.276
 6740TIP3   OH241710   3.459   0.659  15.421
 6740TIP3    H141711   3.414   0.706  15.350
 6740TIP3    H241712   3.459   0.567  15.391
 6741TIP3   OH241713   2.173   1.299  15.223
 6741TIP3    H141714   2.195   1.262  15.311
 6741TIP3    H241715   2.086   1.259  15.202
 6742TIP3   OH241716   2.435   0.158  14.826
 6742TIP3    H141717   2.348   0.140  14.783
 6742TIP3    H241718   2.423   0.241  14.870
 6743TIP3   OH241719   2.903   0.114  15.158
 6743TIP3    H141720   2.944   0.075  15.235
 6743TIP3    H241721   2.807   0.102  15.172
 6744TIP3   OH241722   3.235   0.493  15.244
 6744TIP3    H141723   3.179   0.478  15.324
 6744TIP3    H241724   3.218   0.586  15.220
 6745TIP3   OH241725   3.309   0.979  13.829
 6745TIP3    H141726   3.311   0.959  13.733
 6745TIP3    H241727   3.396   1.022  13.839
 6746TIP3   OH241728   2.871   0.370  13.887
 6746TIP3    H141729   2.839   0.365  13.979
 6746TIP3    H241730   2.839   0.282  13.857
 6747TIP3   OH241731   2.450   0.642  14.940
 6747TIP3    H141732   2.378   0.641  15.006
 6747TIP3    H241733   2.447   0.735  14.907
 6748TIP3   OH241734   2.446   0.658  14.428
 6748TIP3    H141735   2.353   0.630  14.416
 6748TIP3    H241736   2.486   0.626  14.345
 6749TIP3   OH241737   2.999   0.705  14.307
 6749TIP3    H141738   2.958   0.788  14.272
 6749TIP3    H241739   3.069   0.690  14.242
 6750TIP3   OH241740   2.905   0.727  15.452
 6750TIP3    H141741   2.852   0.649  15.483
 6750TIP3    H241742   2.990   0.713  15.498
 6751TIP3   OH241743   3.101   0.653  14.591
 6751TIP3    H141744   3.076   0.710  14.516
 6751TIP3    H241745   3.114   0.569  14.544
 6752TIP3   OH241746   2.215   0.671  15.114
 6752TIP3    H141747   2.219   0.711  15.202
 6752TIP3    H241748   2.170   0.587  15.131
 6753TIP3   OH241749   2.552   0.412  13.799
 6753TIP3    H141750   2.508   0.365  13.872
 6753TIP3    H241751   2.480   0.450  13.748
 6754TIP3   OH241752   1.880   0.384  14.507
 6754TIP3    H141753   1.947   0.379  14.578
 6754TIP3    H241754   1.924   0.342  14.431
 6755TIP3   OH241755   2.008   0.456  14.049
 6755TIP3    H141756   2.056   0.516  13.989
 6755TIP3    H241757   1.936   0.515  14.080
 6756TIP3   OH241758   3.023   0.814  15.049
 6756TIP3    H141759   3.059   0.746  14.989
 6756TIP3    H241760   2.978   0.760  15.117
 6757TIP3   OH241761   2.703   0.408  14.530
 6757TIP3    H141762   2.610   0.409  14.561
 6757TIP3    H241763   2.752   0.398  14.613
 6758TIP3   OH241764   2.185   0.565  14.417
 6758TIP3    H141765   2.095   0.580  14.379
 6758TIP3    H241766   2.214   0.481  14.378
 6759TIP3   OH241767   2.550   0.568  14.179
 6759TIP3    H141768   2.644   0.583  14.198
 6759TIP3    H241769   2.525   0.638  14.115
 6760TIP3   OH241770   3.145   0.330  14.856
 6760TIP3    H141771   3.074   0.341  14.924
 6760TIP3    H241772   3.093   0.312  14.776
 6761TIP3   OH241773   2.418   0.688  13.939
 6761TIP3    H141774   2.365   0.650  13.867
 6761TIP3    H241775   2.501   0.708  13.892
 6762TIP3   OH241776   3.464   1.898  15.489
 6762TIP3    H141777   3.491   1.937  15.404
 6762TIP3    H241778   3.537   1.930  15.546
 6763TIP3   OH241779   2.232   1.144  15.445
 6763TIP3    H141780   2.303   1.170  15.506
 6763TIP3    H241781   2.154   1.158  15.502
 6764TIP3   OH241782   2.832   0.685  14.720
 6764TIP3    H141783   2.890   0.630  14.666
 6764TIP3    H241784   2.817   0.632  14.799
 6765TIP3   OH241785   2.332   0.303  14.362
 6765TIP3    H141786   2.300   0.211  14.362
 6765TIP3    H241787   2.411   0.296  14.308
 6766TIP3   OH241788   2.695   0.520  14.961
 6766TIP3    H141789   2.612   0.570  14.971
 6766TIP3    H241790   2.750   0.553  15.035
 6767TIP3   OH241791   2.754   1.143  14.131
 6767TIP3    H141792   2.675   1.094  14.098
 6767TIP3    H241793   2.734   1.152  14.226
 6768TIP3   OH241794   3.470   1.060  15.011
 6768TIP3    H141795   3.529   1.108  14.950
 6768TIP3    H241796   3.385   1.068  14.964
 6769TIP3   OH241797   3.138   0.426  13.949
 6769TIP3    H141798   3.042   0.438  13.935
 6769TIP3    H241799   3.171   0.511  13.983
 6770TIP3   OH241800   2.903   1.166  15.255
 6770TIP3    H141801   2.868   1.125  15.335
 6770TIP3    H241802   2.880   1.259  15.264
 6771TIP3   OH241803   3.211   0.614  14.113
 6771TIP3    H141804   3.300   0.601  14.151
 6771TIP3    H241805   3.220   0.695  14.061
 6772TIP3   OH241806   2.264   1.079  14.711
 6772TIP3    H141807   2.335   1.073  14.644
 6772TIP3    H241808   2.271   0.993  14.756
 6773TIP3   OH241809   2.965   1.289  14.034
 6773TIP3    H141810   2.931   1.373  14.071
 6773TIP3    H241811   2.891   1.228  14.055
 6774TIP3   OH241812   1.964   0.922  15.238
 6774TIP3    H141813   1.983   0.878  15.323
 6774TIP3    H241814   1.902   0.859  15.195
 6775TIP3   OH241815   2.665   0.876  15.458
 6775TIP3    H141816   2.634   0.850  15.370
 6775TIP3    H241817   2.758   0.847  15.457
 6776TIP3   OH241818   3.132   1.410  15.249
 6776TIP3    H141819   3.039   1.429  15.226
 6776TIP3    H241820   3.130   1.438  15.342
 6777TIP3   OH241821   3.701   0.631  14.089
 6777TIP3    H141822   3.644   0.599  14.016
 6777TIP3    H241823   3.709   0.725  14.061
 6778TIP3   OH241824   3.698   1.214  15.370
 6778TIP3    H141825   3.610   1.237  15.333
 6778TIP3    H241826   3.756   1.212  15.291
 6779TIP3   OH241827   3.528   1.512  14.130
 6779TIP3    H141828   3.493   1.429  14.163
 6779TIP3    H241829   3.560   1.492  14.041
 6780TIP3   OH241830   3.249   0.994  14.838
 6780TIP3    H141831   3.155   0.971  14.830
 6780TIP3    H241832   3.292   0.916  14.798
 6781TIP3   OH241833   2.502   1.426  14.449
 6781TIP3    H141834   2.553   1.506  14.428
 6781TIP3    H241835   2.414   1.450  14.417
 6782TIP3   OH241836   2.078   0.911  13.906
 6782TIP3    H141837   2.137   0.976  13.946
 6782TIP3    H241838   1.990   0.943  13.933
 6783TIP3   OH241839   2.644   1.192  14.402
 6783TIP3    H141840   2.615   1.285  14.411
 6783TIP3    H241841   2.571   1.145  14.446
 6784TIP3   OH241842   2.690   1.610  15.041
 6784TIP3    H141843   2.733   1.692  15.014
 6784TIP3    H241844   2.750   1.578  15.110
 6785TIP3   OH241845   2.512   1.693  14.356
 6785TIP3    H141846   2.415   1.706  14.367
 6785TIP3    H241847   2.547   1.777  14.391
 6786TIP3   OH241848   3.044   1.213  15.005
 6786TIP3    H141849   3.008   1.193  15.094
 6786TIP3    H241850   3.106   1.141  14.988
 6787TIP3   OH241851   3.273   1.316  13.913
 6787TIP3    H141852   3.304   1.271  13.994
 6787TIP3    H241853   3.177   1.300  13.923
 6788TIP3   OH241854   3.321   1.670  15.255
 6788TIP3    H141855   3.254   1.619  15.204
 6788TIP3    H241856   3.342   1.739  15.188
 6789TIP3   OH241857   3.721   1.754  13.937
 6789TIP3    H141858   3.792   1.820  13.919
 6789TIP3    H241859   3.650   1.816  13.967
 6790TIP3   OH241860   2.129   0.394  15.195
 6790TIP3    H141861   2.038   0.429  15.190
 6790TIP3    H241862   2.116   0.307  15.236
 6791TIP3   OH241863   3.353   1.181  14.137
 6791TIP3    H141864   3.329   1.104  14.192
 6791TIP3    H241865   3.448   1.187  14.156
 6792TIP3   OH241866   2.091   1.575  15.036
 6792TIP3    H141867   2.118   1.481  15.036
 6792TIP3    H241868   2.117   1.602  15.125
 6793TIP3   OH241869   2.685   1.425  13.761
 6793TIP3    H141870   2.699   1.348  13.704
 6793TIP3    H241871   2.647   1.382  13.840
 6794TIP3   OH241872   2.568   1.378  14.007
 6794TIP3    H141873   2.590   1.327  14.085
 6794TIP3    H241874   2.573   1.471  14.039
 6795TIP3   OH241875   2.218   1.103  14.056
 6795TIP3    H141876   2.148   1.142  14.112
 6795TIP3    H241877   2.270   1.181  14.029
 6796TIP3   OH241878   3.002   0.370  15.087
 6796TIP3    H141879   3.073   0.378  15.152
 6796TIP3    H241880   2.965   0.282  15.104
 6797TIP3   OH241881   3.080   0.329  14.196
 6797TIP3    H141882   3.100   0.380  14.114
 6797TIP3    H241883   3.133   0.377  14.262
 6798TIP3   OH241884   2.846   1.545  14.079
 6798TIP3    H141885   2.764   1.598  14.085
 6798TIP3    H241886   2.899   1.599  14.017
 6799TIP3   OH241887   2.800   0.503  14.278
 6799TIP3    H141888   2.878   0.560  14.282
 6799TIP3    H241889   2.774   0.493  14.372
 6800TIP3   OH241890   2.855   0.606  15.196
 6800TIP3    H141891   2.863   0.663  15.276
 6800TIP3    H241892   2.921   0.536  15.207
 6801TIP3   OH241893   2.887   0.211  14.372
 6801TIP3    H141894   2.853   0.278  14.434
 6801TIP3    H241895   2.952   0.265  14.323
 6802TIP3   OH241896   2.584   1.649  14.080
 6802TIP3    H141897   2.595   1.731  14.026
 6802TIP3    H241898   2.559   1.684  14.168
 6803TIP3   OH241899   2.450   0.320  14.038
 6803TIP3    H141900   2.445   0.410  14.075
 6803TIP3    H241901   2.543   0.299  14.063
 6804TIP3   OH241902   3.473   0.391  15.281
 6804TIP3    H141903   3.380   0.425  15.271
 6804TIP3    H241904   3.504   0.395  15.190
 6805TIP3   OH241905   3.334   0.773  14.685
 6805TIP3    H141906   3.252   0.729  14.656
 6805TIP3    H241907   3.381   0.703  14.736
 6806TIP3   OH241908   2.275   1.365  13.944
 6806TIP3    H141909   2.339   1.431  13.973
 6806TIP3    H241910   2.326   1.320  13.874
 6807TIP3   OH241911   2.109   0.632  13.857
 6807TIP3    H141912   2.109   0.728  13.877
 6807TIP3    H241913   2.020   0.612  13.827
 6808TIP3   OH241914   3.441   1.697  14.851
 6808TIP3    H141915   3.430   1.766  14.783
 6808TIP3    H241916   3.537   1.704  14.869
 6809TIP3   OH241917   2.172   0.125  14.732
 6809TIP3    H141918   2.170   0.115  14.634
 6809TIP3    H241919   2.154   0.032  14.755
 6810TIP3   OH241920   2.086   1.502  14.344
 6810TIP3    H141921   2.001   1.549  14.342
 6810TIP3    H241922   2.135   1.552  14.277
 6811TIP3   OH241923   2.008   1.767  15.474
 6811TIP3    H141924   2.067   1.746  15.549
 6811TIP3    H241925   1.965   1.682  15.456
 6812TIP3   OH241926   2.472   1.656  15.637
 6812TIP3    H141927   2.550   1.610  15.668
 6812TIP3    H241928   2.471   1.632  15.542
 6813TIP3   OH241929   2.886   1.611  13.774
 6813TIP3    H141930   2.818   1.545  13.801
 6813TIP3    H241931   2.959   1.552  13.750
 6814TIP3   OH241932   3.126   1.497  15.506
 6814TIP3    H141933   3.094   1.409  15.535
 6814TIP3    H241934   3.202   1.509  15.566
 6815TIP3   OH241935   3.343   1.587  13.794
 6815TIP3    H141936   3.372   1.508  13.843
 6815TIP3    H241937   3.419   1.610  13.739
 6816TIP3   OH241938   1.999   1.144  15.572
 6816TIP3    H141939   2.016   1.054  15.540
 6816TIP3    H241940   1.925   1.172  15.516
 6817TIP3   OH241941   2.433   1.180  13.778
 6817TIP3    H141942   2.446   1.102  13.834
 6817TIP3    H241943   2.506   1.168  13.714
 6818TIP3   OH241944   2.669   1.143  15.512
 6818TIP3    H141945   2.636   1.173  15.426
 6818TIP3    H241946   2.679   1.045  15.502
 6819TIP3   OH241947   2.974   1.289  13.754
 6819TIP3    H141948   2.947   1.300  13.846
 6819TIP3    H241949   2.954   1.193  13.741
 6820TIP3   OH241950   3.240   1.131  15.251
 6820TIP3    H141951   3.317   1.191  15.243
 6820TIP3    H241952   3.168   1.195  15.255
 6821TIP3   OH241953   2.087   0.868  15.511
 6821TIP3    H141954   2.129   0.782  15.501
 6821TIP3    H241955   2.064   0.868  15.606
 6822TIP3   OH241956   2.552   0.981  14.016
 6822TIP3    H141957   2.504   0.928  14.081
 6822TIP3    H241958   2.581   0.912  13.951
 6823TIP3   OH241959   2.480   0.763  15.248
 6823TIP3    H141960   2.419   0.835  15.274
 6823TIP3    H241961   2.517   0.799  15.166
 6824TIP3   OH241962   2.660   0.803  13.839
 6824TIP3    H141963   2.644   0.792  13.743
 6824TIP3    H241964   2.757   0.810  13.844
 6825TIP3   OH241965   2.985   1.018  15.582
 6825TIP3    H141966   3.081   1.019  15.570
 6825TIP3    H241967   2.969   0.942  15.639
 6826TIP3   OH241968   3.595   1.036  13.782
 6826TIP3    H141969   3.573   0.997  13.696
 6826TIP3    H241970   3.602   1.132  13.761
 6827TIP3   OH241971   2.519   0.501  15.355
 6827TIP3    H141972   2.531   0.429  15.291
 6827TIP3    H241973   2.515   0.581  15.298
 6828TIP3   OH241974   2.559   0.339  15.107
 6828TIP3    H141975   2.611   0.386  15.038
 6828TIP3    H241976   2.470   0.328  15.065
 6829TIP3   OH241977   2.714   0.885  15.133
 6829TIP3    H141978   2.790   0.869  15.074
 6829TIP3    H241979   2.679   0.970  15.100
 6830TIP3   OH241980   3.153   0.663  15.629
 6830TIP3    H141981   3.176   0.569  15.621
 6830TIP3    H241982   3.240   0.706  15.631
 6831TIP3   OH241983   3.288   0.942  15.445
 6831TIP3    H141984   3.262   1.014  15.383
 6831TIP3    H241985   3.384   0.938  15.425
 6832TIP3   OH241986   2.366   0.624  15.547
 6832TIP3    H141987   2.288   0.569  15.527
 6832TIP3    H241988   2.431   0.590  15.483
 6833TIP3   OH241989   2.630   0.095  15.165
 6833TIP3    H141990   2.623   0.190  15.139
 6833TIP3    H241991   2.565   0.054  15.104
 6834TIP3   OH241992   2.766   0.515  15.507
 6834TIP3    H141993   2.736   0.491  15.598
 6834TIP3    H241994   2.686   0.495  15.454
 6835TIP3   OH241995   3.037   0.433  15.416
 6835TIP3    H141996   2.940   0.433  15.430
 6835TIP3    H241997   3.066   0.366  15.482
 6836TIP3   OH241998   3.196   0.297  15.611
 6836TIP3    H141999   3.190   0.198  15.611
 6836TIP3    H242000   3.167   0.320  15.702
 6837TIP3   OH242001   2.176   0.416  15.520
 6837TIP3    H142002   2.202   0.343  15.460
 6837TIP3    H242003   2.169   0.370  15.606
 6838TIP3   OH242004   2.658   7.358  15.415
 6838TIP3    H142005   2.728   7.292  15.420
 6838TIP3    H242006   2.651   7.384  15.321
 6839TIP3   OH242007   2.696   0.185  15.623
 6839TIP3    H142008   2.681   0.131  15.542
 6839TIP3    H242009   2.636   0.260  15.616
 6840TIP3   OH242010   2.644   1.872  13.944
 6840TIP3    H142011   2.741   1.884  13.952
 6840TIP3    H242012   2.627   1.936  13.874
 6841TIP3   OH242013   2.001   1.333  13.891
 6841TIP3    H142014   2.097   1.341  13.912
 6841TIP3    H242015   2.006   1.266  13.819
 6842TIP3   OH242016   1.876   1.871  14.391
 6842TIP3    H142017   1.805   1.823  14.343
 6842TIP3    H242018   1.905   1.805  14.455
 6843TIP3   OH242019   1.959   1.683  14.576
 6843TIP3    H142020   1.924   1.595  14.595
 6843TIP3    H242021   1.981   1.716  14.665
 6844TIP3   OH242022   3.712   1.763  14.871
 6844TIP3    H142023   3.714   1.780  14.967
 6844TIP3    H242024   3.783   1.820  14.840
 6845TIP3   OH242025   3.670   1.722  15.165
 6845TIP3    H142026   3.622   1.645  15.128
 6845TIP3    H242027   3.721   1.678  15.235
 6846TIP3   OH242028   3.515   1.294  15.631
 6846TIP3    H142029   3.426   1.291  15.670
 6846TIP3    H242030   3.552   1.374  15.676
 6847TIP3   OH242031   3.645   1.127  14.177
 6847TIP3    H142032   3.732   1.166  14.194
 6847TIP3    H242033   3.645   1.053  14.242
 6848TIP3   OH242034   3.683   0.934  14.363
 6848TIP3    H142035   3.608   0.883  14.403
 6848TIP3    H242036   3.742   0.949  14.439
 6849TIP3   OH242037   3.658   1.205  14.861
 6849TIP3    H142038   3.741   1.168  14.826
 6849TIP3    H242039   3.672   1.301  14.845
 6850TIP3   OH242040   3.513   1.495  15.090
 6850TIP3    H142041   3.444   1.529  15.149
 6850TIP3    H242042   3.458   1.454  15.019
 6851TIP3   OH242043   3.712   0.917  14.003
 6851TIP3    H142044   3.657   0.953  13.931
 6851TIP3    H242045   3.704   0.988  14.069
 6852TIP3   OH242046   3.549   0.642  13.855
 6852TIP3    H142047   3.556   0.709  13.786
 6852TIP3    H242048   3.531   0.559  13.806
 6853TIP3   OH242049   3.464   0.782  14.420
 6853TIP3    H142050   3.449   0.687  14.417
 6853TIP3    H242051   3.429   0.806  14.507
 6854TIP3   OH242052   1.965   0.990  14.825
 6854TIP3    H142053   1.984   0.982  14.729
 6854TIP3    H242054   2.054   0.975  14.862
 6855TIP3   OH242055   3.549   0.978  15.388
 6855TIP3    H142056   3.611   0.904  15.402
 6855TIP3    H242057   3.608   1.056  15.389
 6856TIP3   OH242058   3.699   0.769  15.455
 6856TIP3    H142059   3.612   0.728  15.436
 6856TIP3    H242060   3.758   0.692  15.446
 6857TIP3   OH242061   3.472   0.389  13.770
 6857TIP3    H142062   3.533   0.346  13.832
 6857TIP3    H242063   3.388   0.343  13.785
 6858TIP3   OH242064   3.430   0.541  14.264
 6858TIP3    H142065   3.462   0.450  14.278
 6858TIP3    H242066   3.511   0.582  14.230
 6859TIP3   OH242067   3.495   0.593  14.810
 6859TIP3    H142068   3.589   0.621  14.808
 6859TIP3    H242069   3.474   0.610  14.903
 6860TIP3   OH242070   3.500   0.667  15.086
 6860TIP3    H142071   3.413   0.697  15.122
 6860TIP3    H242072   3.544   0.753  15.066
 6861TIP3   OH242073   1.925   0.521  15.438
 6861TIP3    H142074   2.019   0.501  15.459
 6861TIP3    H242075   1.881   0.439  15.471
 6862TIP3   OH242076   3.735   0.071  15.624
 6862TIP3    H142077   3.762   0.005  15.560
 6862TIP3    H242078   3.738   0.154  15.574
 6863TIP3   OH242079   3.497   0.268  14.270
 6863TIP3    H142080   3.516   0.222  14.354
 6863TIP3    H242081   3.437   0.204  14.225
 6864TIP3   OH242082   2.044   0.351  14.724
 6864TIP3    H142083   2.092   0.270  14.753
 6864TIP3    H242084   2.099   0.418  14.766
 6865TIP3   OH242085   1.875   0.649  14.831
 6865TIP3    H142086   1.931   0.626  14.753
 6865TIP3    H242087   1.919   0.731  14.858
 6866TIP3   OH242088   3.682   0.280  15.456
 6866TIP3    H142089   3.588   0.308  15.454
 6866TIP3    H242090   3.686   0.225  15.377
 6867TIP3   OH242091   3.681   0.276  13.925
 6867TIP3    H142092   3.723   0.200  13.876
 6867TIP3    H242093   3.753   0.339  13.930
 6868TIP3   OH242094   1.914   0.273  14.238
 6868TIP3    H142095   1.819   0.293  14.224
 6868TIP3    H242096   1.954   0.324  14.166
 6869TIP3   OH242097   3.385   1.771  14.433
 6869TIP3    H142098   3.453   1.739  14.371
 6869TIP3    H242099   3.437   1.821  14.497
 6870TIP3   OH242100   1.907   0.145  15.069
 6870TIP3    H142101   1.840   0.124  15.135
 6870TIP3    H242102   1.861   0.209  15.012
 6871TIP3   OH242103   2.129   1.464  15.484
 6871TIP3    H142104   2.044   1.483  15.441
 6871TIP3    H242105   2.101   1.456  15.576
 6872TIP3   OH242106   2.420   1.561  15.111
 6872TIP3    H142107   2.384   1.646  15.083
 6872TIP3    H242108   2.512   1.571  15.081
 6873TIP3   OH242109   2.852   1.704  15.404
 6873TIP3    H142110   2.868   1.669  15.495
 6873TIP3    H242111   2.941   1.734  15.377
 6874TIP3   OH242112   3.082   1.831  15.332
 6874TIP3    H142113   3.154   1.771  15.309
 6874TIP3    H242114   3.119   1.873  15.412
 6875TIP3   OH242115   3.584   0.096  15.235
 6875TIP3    H142116   3.496   0.123  15.206
 6875TIP3    H242117   3.600   0.010  15.192
 6876TIP3   OH242118   2.163   1.886  15.113
 6876TIP3    H142119   2.089   1.934  15.071
 6876TIP3    H242120   2.129   1.865  15.201
 6877TIP3   OH242121   2.410   1.844  15.019
 6877TIP3    H142122   2.320   1.857  15.059
 6877TIP3    H242123   2.403   1.903  14.941
 6878TIP3   OH242124   2.880   1.835  14.936
 6878TIP3    H142125   2.833   1.890  14.871
 6878TIP3    H242126   2.894   1.898  15.009
 6879TIP3   OH242127   3.111   1.718  15.035
 6879TIP3    H142128   3.023   1.743  15.002
 6879TIP3    H242129   3.156   1.804  15.027
 6880TIP3   OH242130   3.369   1.875  15.061
 6880TIP3    H142131   3.359   1.971  15.038
 6880TIP3    H242132   3.389   1.838  14.973
 6881TIP3   OH242133   2.106   1.751  14.806
 6881TIP3    H142134   2.100   1.706  14.893
 6881TIP3    H242135   2.188   1.715  14.766
 6882TIP3   OH242136   2.315   1.622  14.671
 6882TIP3    H142137   2.298   1.529  14.692
 6882TIP3    H242138   2.401   1.636  14.717
 6883TIP3   OH242139   2.574   1.670  14.758
 6883TIP3    H142140   2.592   1.578  14.731
 6883TIP3    H242141   2.579   1.664  14.854
 6884TIP3   OH242142   2.920   0.241  14.670
 6884TIP3    H142143   2.855   0.172  14.699
 6884TIP3    H242144   2.979   0.187  14.616
 6885TIP3   OH242145   3.437   0.051  14.689
 6885TIP3    H142146   3.495   0.097  14.623
 6885TIP3    H242147   3.348   0.074  14.656
 6886TIP3   OH242148   3.606   0.164  14.510
 6886TIP3    H142149   3.671   0.108  14.464
 6886TIP3    H242150   3.652   0.250  14.514
 6887TIP3   OH242151   2.162   0.102  14.446
 6887TIP3    H142152   2.076   0.075  14.407
 6887TIP3    H242153   2.202   0.015  14.459
 6888TIP3   OH242154   2.012   0.118  13.978
 6888TIP3    H142155   2.098   0.161  13.969
 6888TIP3    H242156   1.980   0.141  14.066
 6889TIP3   OH242157   2.634   0.130  14.467
 6889TIP3    H142158   2.728   0.131  14.442
 6889TIP3    H242159   2.617   0.065  14.537
 6890TIP3   OH242160   3.162   0.114  14.605
 6890TIP3    H142161   3.171   0.112  14.509
 6890TIP3    H242162   3.145   0.016  14.615
 6891TIP3   OH242163   3.302   0.095  14.170
 6891TIP3    H142164   3.231   0.158  14.148
 6891TIP3    H242165   3.259   0.010  14.182
 6892TIP3   OH242166   2.028   1.669  14.129
 6892TIP3    H142167   1.960   1.668  14.059
 6892TIP3    H242168   2.027   1.764  14.150
 6893TIP3   OH242169   2.220   0.270  13.878
 6893TIP3    H142170   2.273   0.208  13.825
 6893TIP3    H242171   2.285   0.300  13.944
 6894TIP3   OH242172   2.717   0.293  14.123
 6894TIP3    H142173   2.748   0.235  14.194
 6894TIP3    H242174   2.725   0.380  14.169
 6895TIP3   OH242175   2.914   1.797  13.966
 6895TIP3    H142176   3.004   1.825  13.944
 6895TIP3    H242177   2.892   1.748  13.884
 6896TIP3   OH242178   3.585   1.750  14.236
 6896TIP3    H142179   3.565   1.672  14.178
 6896TIP3    H242180   3.579   1.824  14.172
 6897TIP3   OH242181   2.142   0.151  15.399
 6897TIP3    H142182   2.110   0.074  15.446
 6897TIP3    H242183   2.235   0.149  15.435
 6898TIP3   OH242184   2.331   0.104  15.552
 6898TIP3    H142185   2.425   0.075  15.544
 6898TIP3    H242186   2.311   0.021  15.601
 6899TIP3   OH242187   2.207   1.766  13.826
 6899TIP3    H142188   2.182   1.793  13.915
 6899TIP3    H242189   2.286   1.710  13.842
 6900TIP3   OH242190   3.184   7.385  15.577
 6900TIP3    H142191   3.192   7.324  15.654
 6900TIP3    H242192   3.272   7.364  15.541
 6901TIP3   OH242193   3.508   1.623  15.448
 6901TIP3    H142194   3.428   1.609  15.392
 6901TIP3    H242195   3.498   1.719  15.468
 6902TIP3   OH242196   4.952   1.011  14.445
 6902TIP3    H142197   4.953   1.109  14.438
 6902TIP3    H242198   4.881   0.987  14.383
 6903TIP3   OH242199   4.840   0.938  14.793
 6903TIP3    H142200   4.837   0.873  14.864
 6903TIP3    H242201   4.806   0.889  14.716
 6904TIP3   OH242202   4.077   0.900  14.945
 6904TIP3    H142203   4.082   0.839  15.021
 6904TIP3    H242204   4.146   0.963  14.970
 6905TIP3   OH242205   5.209   1.232  14.621
 6905TIP3    H142206   5.166   1.161  14.669
 6905TIP3    H242207   5.210   1.304  14.687
 6906TIP3   OH242208   4.167   1.350  14.796
 6906TIP3    H142209   4.135   1.263  14.767
 6906TIP3    H242210   4.262   1.330  14.808
 6907TIP3   OH242211   3.831   0.707  14.346
 6907TIP3    H142212   3.787   0.794  14.341
 6907TIP3    H242213   3.774   0.652  14.291
 6908TIP3   OH242214   3.901   0.928  14.560
 6908TIP3    H142215   3.927   0.847  14.607
 6908TIP3    H242216   3.973   0.938  14.495
 6909TIP3   OH242217   4.920   1.747  14.644
 6909TIP3    H142218   4.984   1.677  14.616
 6909TIP3    H242219   4.900   1.717  14.733
 6910TIP3   OH242220   4.677   1.179  14.837
 6910TIP3    H142221   4.711   1.114  14.773
 6910TIP3    H242222   4.756   1.193  14.892
 6911TIP3   OH242223   5.540   0.341  14.914
 6911TIP3    H142224   5.553   0.404  14.989
 6911TIP3    H242225   5.591   0.386  14.846
 6912TIP3   OH242226   4.993   0.624  14.870
 6912TIP3    H142227   5.008   0.527  14.869
 6912TIP3    H242228   4.983   0.639  14.774
 6913TIP3   OH242229   4.305   0.436  14.595
 6913TIP3    H142230   4.315   0.519  14.544
 6913TIP3    H242231   4.265   0.377  14.527
 6914TIP3   OH242232   5.079   0.441  14.430
 6914TIP3    H142233   5.145   0.411  14.496
 6914TIP3    H242234   5.134   0.498  14.374
 6915TIP3   OH242235   3.969   0.673  14.668
 6915TIP3    H142236   4.035   0.617  14.711
 6915TIP3    H242237   3.976   0.643  14.576
 6916TIP3   OH242238   4.483   0.829  14.597
 6916TIP3    H142239   4.550   0.772  14.638
 6916TIP3    H242240   4.430   0.763  14.547
 6917TIP3   OH242241   5.582   0.485  15.140
 6917TIP3    H142242   5.518   0.558  15.131
 6917TIP3    H242243   5.585   0.473  15.236
 6918TIP3   OH242244   4.192   0.325  14.999
 6918TIP3    H142245   4.158   0.373  14.919
 6918TIP3    H242246   4.119   0.342  15.064
 6919TIP3   OH242247   4.926   1.272  14.352
 6919TIP3    H142248   4.897   1.242  14.265
 6919TIP3    H242249   4.894   1.365  14.357
 6920TIP3   OH242250   4.448   1.087  15.022
 6920TIP3    H142251   4.375   1.151  15.042
 6920TIP3    H242252   4.517   1.148  14.995
 6921TIP3   OH242253   5.259   0.375  14.628
 6921TIP3    H142254   5.236   0.299  14.683
 6921TIP3    H242255   5.326   0.419  14.684
 6922TIP3   OH242256   4.154   0.506  14.803
 6922TIP3    H142257   4.212   0.581  14.827
 6922TIP3    H242258   4.202   0.467  14.725
 6923TIP3   OH242259   4.279   1.286  15.068
 6923TIP3    H142260   4.287   1.383  15.069
 6923TIP3    H242261   4.215   1.278  15.144
 6924TIP3   OH242262   3.900   1.250  14.184
 6924TIP3    H142263   3.874   1.281  14.095
 6924TIP3    H242264   3.906   1.335  14.232
 6925TIP3   OH242265   5.262   1.417  14.860
 6925TIP3    H142266   5.164   1.424  14.870
 6925TIP3    H242267   5.287   1.508  14.838
 6926TIP3   OH242268   5.294   0.245  15.001
 6926TIP3    H142269   5.220   0.306  14.989
 6926TIP3    H242270   5.363   0.285  14.944
 6927TIP3   OH242271   4.618   0.073  14.744
 6927TIP3    H142272   4.599  -0.022  14.739
 6927TIP3    H242273   4.525   0.095  14.764
 6928TIP3   OH242274   5.087   1.594  14.518
 6928TIP3    H142275   5.130   1.523  14.467
 6928TIP3    H242276   5.126   1.674  14.477
 6929TIP3   OH242277   5.206   1.387  14.369
 6929TIP3    H142278   5.177   1.316  14.309
 6929TIP3    H242279   5.211   1.338  14.453
 6930TIP3   OH242280   5.370   1.246  15.218
 6930TIP3    H142281   5.385   1.182  15.145
 6930TIP3    H242282   5.389   1.331  15.176
 6931TIP3   OH242283   4.819   0.936  14.196
 6931TIP3    H142284   4.749   0.992  14.159
 6931TIP3    H242285   4.889   0.944  14.128
 6932TIP3   OH242286   4.825   0.789  13.897
 6932TIP3    H142287   4.897   0.788  13.962
 6932TIP3    H242288   4.857   0.720  13.836
 6933TIP3   OH242289   5.558   0.876  15.024
 6933TIP3    H142290   5.491   0.948  15.029
 6933TIP3    H242291   5.605   0.899  14.942
 6934TIP3   OH242292   5.163   0.957  14.287
 6934TIP3    H142293   5.088   0.981  14.347
 6934TIP3    H242294   5.209   0.888  14.338
 6935TIP3   OH242295   5.155   0.773  15.198
 6935TIP3    H142296   5.157   0.854  15.252
 6935TIP3    H242297   5.092   0.803  15.129
 6936TIP3   OH242298   4.325   1.024  14.478
 6936TIP3    H142299   4.292   0.984  14.395
 6936TIP3    H242300   4.385   0.954  14.512
 6937TIP3   OH242301   4.458   1.363  14.746
 6937TIP3    H142302   4.454   1.308  14.668
 6937TIP3    H242303   4.535   1.326  14.793
 6938TIP3   OH242304   4.360   0.897  14.844
 6938TIP3    H142305   4.415   0.910  14.764
 6938TIP3    H242306   4.395   0.966  14.906
 6939TIP3   OH242307   4.998   1.454  14.915
 6939TIP3    H142308   4.967   1.516  14.981
 6939TIP3    H242309   4.973   1.368  14.958
 6940TIP3   OH242310   4.508   1.386  15.288
 6940TIP3    H142311   4.438   1.407  15.357
 6940TIP3    H242312   4.436   1.336  15.241
 6941TIP3   OH242313   5.049   0.876  14.055
 6941TIP3    H142314   5.106   0.892  14.134
 6941TIP3    H242315   5.093   0.925  13.982
 6942TIP3   OH242316   4.145   0.952  15.231
 6942TIP3    H142317   4.152   1.022  15.301
 6942TIP3    H242318   4.053   0.968  15.207
 6943TIP3   OH242319   4.822   1.548  14.401
 6943TIP3    H142320   4.866   1.579  14.480
 6943TIP3    H242321   4.765   1.623  14.377
 6944TIP3   OH242322   4.272   1.563  15.388
 6944TIP3    H142323   4.274   1.529  15.297
 6944TIP3    H242324   4.185   1.528  15.415
 6945TIP3   OH242325   5.421   0.057  14.035
 6945TIP3    H142326   5.330   0.064  14.068
 6945TIP3    H242327   5.444   0.142  13.997
 6946TIP3   OH242328   4.222   0.926  14.240
 6946TIP3    H142329   4.193   1.004  14.188
 6946TIP3    H242330   4.156   0.860  14.218
 6947TIP3   OH242331   5.534   1.485  13.878
 6947TIP3    H142332   5.549   1.580  13.895
 6947TIP3    H242333   5.627   1.455  13.875
 6948TIP3   OH242334   3.827   1.168  15.126
 6948TIP3    H142335   3.785   1.159  15.039
 6948TIP3    H242336   3.837   1.073  15.150
 6949TIP3   OH242337   3.807   1.441  14.807
 6949TIP3    H142338   3.903   1.429  14.805
 6949TIP3    H242339   3.798   1.522  14.859
 6950TIP3   OH242340   5.630   1.511  15.372
 6950TIP3    H142341   5.620   1.414  15.375
 6950TIP3    H242342   5.545   1.535  15.417
 6951TIP3   OH242343   4.738   1.470  15.261
 6951TIP3    H142344   4.733   1.552  15.314
 6951TIP3    H242345   4.647   1.433  15.284
 6952TIP3   OH242346   4.770   1.841  14.243
 6952TIP3    H142347   4.759   1.832  14.146
 6952TIP3    H242348   4.771   1.937  14.256
 6953TIP3   OH242349   4.134   1.727  14.423
 6953TIP3    H142350   4.148   1.686  14.511
 6953TIP3    H242351   4.049   1.687  14.399
 6954TIP3   OH242352   5.076   1.761  13.941
 6954TIP3    H142353   5.119   1.685  13.896
 6954TIP3    H242354   5.079   1.734  14.035
 6955TIP3   OH242355   5.045   1.754  14.217
 6955TIP3    H142356   4.950   1.762  14.236
 6955TIP3    H242357   5.070   1.681  14.276
 6956TIP3   OH242358   5.345   0.659  15.422
 6956TIP3    H142359   5.299   0.705  15.350
 6956TIP3    H242360   5.345   0.568  15.392
 6957TIP3   OH242361   4.043   1.305  15.218
 6957TIP3    H142362   4.083   1.267  15.301
 6957TIP3    H242363   3.964   1.253  15.201
 6958TIP3   OH242364   4.320   0.159  14.826
 6958TIP3    H142365   4.234   0.139  14.782
 6958TIP3    H242366   4.307   0.241  14.868
 6959TIP3   OH242367   4.787   0.116  15.159
 6959TIP3    H142368   4.829   0.075  15.235
 6959TIP3    H242369   4.693   0.101  15.173
 6960TIP3   OH242370   5.120   0.494  15.245
 6960TIP3    H142371   5.064   0.478  15.325
 6960TIP3    H242372   5.103   0.587  15.221
 6961TIP3   OH242373   5.195   0.979  13.829
 6961TIP3    H142374   5.197   0.959  13.733
 6961TIP3    H242375   5.281   1.022  13.839
 6962TIP3   OH242376   4.756   0.370  13.887
 6962TIP3    H142377   4.725   0.365  13.979
 6962TIP3    H242378   4.725   0.282  13.857
 6963TIP3   OH242379   4.333   0.655  14.935
 6963TIP3    H142380   4.260   0.655  15.002
 6963TIP3    H242381   4.332   0.746  14.903
 6964TIP3   OH242382   4.332   0.658  14.428
 6964TIP3    H142383   4.239   0.630  14.416
 6964TIP3    H242384   4.372   0.626  14.345
 6965TIP3   OH242385   4.884   0.705  14.307
 6965TIP3    H142386   4.844   0.788  14.272
 6965TIP3    H242387   4.954   0.690  14.242
 6966TIP3   OH242388   4.791   0.727  15.451
 6966TIP3    H142389   4.738   0.650  15.483
 6966TIP3    H242390   4.875   0.713  15.498
 6967TIP3   OH242391   4.987   0.653  14.591
 6967TIP3    H142392   4.961   0.710  14.516
 6967TIP3    H242393   5.000   0.569  14.543
 6968TIP3   OH242394   4.107   0.666  15.114
 6968TIP3    H142395   4.103   0.712  15.201
 6968TIP3    H242396   4.051   0.588  15.132
 6969TIP3   OH242397   4.438   0.412  13.799
 6969TIP3    H142398   4.394   0.365  13.872
 6969TIP3    H242399   4.366   0.450  13.748
 6970TIP3   OH242400   3.765   0.381  14.508
 6970TIP3    H142401   3.833   0.380  14.578
 6970TIP3    H242402   3.810   0.343  14.431
 6971TIP3   OH242403   3.894   0.456  14.049
 6971TIP3    H142404   3.942   0.516  13.989
 6971TIP3    H242405   3.822   0.515  14.080
 6972TIP3   OH242406   4.909   0.814  15.049
 6972TIP3    H142407   4.945   0.746  14.989
 6972TIP3    H242408   4.863   0.760  15.117
 6973TIP3   OH242409   4.588   0.408  14.532
 6973TIP3    H142410   4.494   0.409  14.561
 6973TIP3    H242411   4.638   0.397  14.613
 6974TIP3   OH242412   4.070   0.565  14.417
 6974TIP3    H142413   3.981   0.580  14.379
 6974TIP3    H242414   4.100   0.482  14.378
 6975TIP3   OH242415   4.435   0.568  14.179
 6975TIP3    H142416   4.530   0.583  14.198
 6975TIP3    H242417   4.411   0.638  14.115
 6976TIP3   OH242418   5.030   0.332  14.855
 6976TIP3    H142419   4.960   0.341  14.924
 6976TIP3    H242420   4.979   0.311  14.775
 6977TIP3   OH242421   4.304   0.688  13.939
 6977TIP3    H142422   4.251   0.650  13.867
 6977TIP3    H242423   4.386   0.708  13.892
 6978TIP3   OH242424   5.351   1.897  15.488
 6978TIP3    H142425   5.377   1.939  15.404
 6978TIP3    H242426   5.422   1.930  15.547
 6979TIP3   OH242427   4.099   1.110  15.469
 6979TIP3    H142428   4.180   1.165  15.493
 6979TIP3    H242429   4.030   1.164  15.509
 6980TIP3   OH242430   4.716   0.685  14.720
 6980TIP3    H142431   4.776   0.630  14.666
 6980TIP3    H242432   4.705   0.632  14.799
 6981TIP3   OH242433   4.218   0.303  14.362
 6981TIP3    H142434   4.186   0.211  14.362
 6981TIP3    H242435   4.297   0.296  14.307
 6982TIP3   OH242436   4.573   0.514  14.969
 6982TIP3    H142437   4.505   0.582  14.968
 6982TIP3    H242438   4.639   0.553  15.033
 6983TIP3   OH242439   4.640   1.143  14.131
 6983TIP3    H142440   4.560   1.094  14.098
 6983TIP3    H242441   4.619   1.152  14.226
 6984TIP3   OH242442   5.356   1.060  15.011
 6984TIP3    H142443   5.414   1.108  14.950
 6984TIP3    H242444   5.271   1.068  14.964
 6985TIP3   OH242445   5.023   0.426  13.949
 6985TIP3    H142446   4.928   0.438  13.935
 6985TIP3    H242447   5.056   0.511  13.983
 6986TIP3   OH242448   4.790   1.166  15.255
 6986TIP3    H142449   4.753   1.126  15.334
 6986TIP3    H242450   4.764   1.259  15.264
 6987TIP3   OH242451   5.096   0.614  14.113
 6987TIP3    H142452   5.186   0.601  14.151
 6987TIP3    H242453   5.105   0.695  14.061
 6988TIP3   OH242454   4.150   1.079  14.711
 6988TIP3    H142455   4.221   1.073  14.644
 6988TIP3    H242456   4.157   0.993  14.756
 6989TIP3   OH242457   4.850   1.289  14.034
 6989TIP3    H142458   4.817   1.373  14.071
 6989TIP3    H242459   4.777   1.228  14.055
 6990TIP3   OH242460   3.849   0.920  15.237
 6990TIP3    H142461   3.870   0.878  15.323
 6990TIP3    H242462   3.787   0.858  15.195
 6991TIP3   OH242463   4.551   0.874  15.460
 6991TIP3    H142464   4.520   0.853  15.371
 6991TIP3    H242465   4.645   0.848  15.456
 6992TIP3   OH242466   5.017   1.409  15.249
 6992TIP3    H142467   4.924   1.429  15.226
 6992TIP3    H242468   5.016   1.438  15.342
 6993TIP3   OH242469   5.586   0.631  14.089
 6993TIP3    H142470   5.530   0.599  14.016
 6993TIP3    H242471   5.595   0.725  14.061
 6994TIP3   OH242472   5.585   1.215  15.371
 6994TIP3    H142473   5.496   1.237  15.333
 6994TIP3    H242474   5.641   1.212  15.291
 6995TIP3   OH242475   5.414   1.512  14.130
 6995TIP3    H142476   5.379   1.429  14.163
 6995TIP3    H242477   5.446   1.492  14.041
 6996TIP3   OH242478   5.135   0.994  14.838
 6996TIP3    H142479   5.040   0.971  14.830
 6996TIP3    H242480   5.178   0.916  14.798
 6997TIP3   OH242481   4.387   1.426  14.449
 6997TIP3    H142482   4.438   1.506  14.428
 6997TIP3    H242483   4.299   1.450  14.417
 6998TIP3   OH242484   3.964   0.911  13.906
 6998TIP3    H142485   4.023   0.976  13.946
 6998TIP3    H242486   3.875   0.943  13.933
 6999TIP3   OH242487   4.530   1.192  14.402
 6999TIP3    H142488   4.501   1.285  14.411
 6999TIP3    H242489   4.456   1.145  14.446
 7000TIP3   OH242490   4.576   1.611  15.039
 7000TIP3    H142491   4.620   1.694  15.014
 7000TIP3    H242492   4.634   1.577  15.111
 7001TIP3   OH242493   4.397   1.693  14.356
 7001TIP3    H142494   4.301   1.706  14.367
 7001TIP3    H242495   4.433   1.777  14.391
 7002TIP3   OH242496   4.929   1.213  15.005
 7002TIP3    H142497   4.893   1.193  15.094
 7002TIP3    H242498   4.992   1.141  14.988
 7003TIP3   OH242499   5.159   1.316  13.913
 7003TIP3    H142500   5.189   1.271  13.994
 7003TIP3    H242501   5.063   1.300  13.923
 7004TIP3   OH242502   5.209   1.669  15.252
 7004TIP3    H142503   5.138   1.619  15.206
 7004TIP3    H242504   5.223   1.741  15.189
 7005TIP3   OH242505   5.607   1.754  13.937
 7005TIP3    H142506   5.677   1.820  13.919
 7005TIP3    H242507   5.536   1.816  13.967
 7006TIP3   OH242508   4.015   0.393  15.192
 7006TIP3    H142509   3.924   0.429  15.191
 7006TIP3    H242510   4.002   0.308  15.238
 7007TIP3   OH242511   5.238   1.181  14.137
 7007TIP3    H142512   5.215   1.104  14.192
 7007TIP3    H242513   5.333   1.187  14.156
 7008TIP3   OH242514   3.977   1.575  15.036
 7008TIP3    H142515   4.005   1.481  15.037
 7008TIP3    H242516   4.003   1.602  15.125
 7009TIP3   OH242517   4.571   1.425  13.761
 7009TIP3    H142518   4.585   1.348  13.704
 7009TIP3    H242519   4.532   1.382  13.840
 7010TIP3   OH242520   4.453   1.378  14.007
 7010TIP3    H142521   4.476   1.327  14.085
 7010TIP3    H242522   4.459   1.471  14.039
 7011TIP3   OH242523   4.104   1.103  14.056
 7011TIP3    H142524   4.034   1.142  14.112
 7011TIP3    H242525   4.156   1.181  14.029
 7012TIP3   OH242526   4.885   0.371  15.087
 7012TIP3    H142527   4.958   0.378  15.151
 7012TIP3    H242528   4.851   0.281  15.104
 7013TIP3   OH242529   4.966   0.329  14.196
 7013TIP3    H142530   4.985   0.380  14.114
 7013TIP3    H242531   5.019   0.377  14.262
 7014TIP3   OH242532   4.732   1.545  14.079
 7014TIP3    H142533   4.650   1.598  14.085
 7014TIP3    H242534   4.785   1.599  14.017
 7015TIP3   OH242535   4.685   0.502  14.278
 7015TIP3    H142536   4.764   0.560  14.282
 7015TIP3    H242537   4.660   0.493  14.372
 7016TIP3   OH242538   4.738   0.605  15.197
 7016TIP3    H142539   4.749   0.663  15.275
 7016TIP3    H242540   4.806   0.537  15.208
 7017TIP3   OH242541   4.772   0.211  14.372
 7017TIP3    H142542   4.738   0.278  14.434
 7017TIP3    H242543   4.838   0.265  14.323
 7018TIP3   OH242544   4.469   1.649  14.080
 7018TIP3    H142545   4.481   1.731  14.026
 7018TIP3    H242546   4.444   1.684  14.168
 7019TIP3   OH242547   4.336   0.320  14.038
 7019TIP3    H142548   4.331   0.410  14.075
 7019TIP3    H242549   4.428   0.299  14.063
 7020TIP3   OH242550   5.359   0.393  15.282
 7020TIP3    H142551   5.266   0.424  15.270
 7020TIP3    H242552   5.390   0.393  15.190
 7021TIP3   OH242553   5.219   0.773  14.685
 7021TIP3    H142554   5.137   0.729  14.656
 7021TIP3    H242555   5.266   0.703  14.736
 7022TIP3   OH242556   4.160   1.365  13.944
 7022TIP3    H142557   4.225   1.431  13.973
 7022TIP3    H242558   4.212   1.320  13.874
 7023TIP3   OH242559   3.995   0.632  13.857
 7023TIP3    H142560   3.994   0.728  13.877
 7023TIP3    H242561   3.906   0.612  13.827
 7024TIP3   OH242562   5.327   1.703  14.855
 7024TIP3    H142563   5.313   1.764  14.780
 7024TIP3    H242564   5.424   1.699  14.856
 7025TIP3   OH242565   4.056   0.125  14.732
 7025TIP3    H142566   4.057   0.114  14.634
 7025TIP3    H242567   4.041   0.032  14.755
 7026TIP3   OH242568   3.971   1.502  14.344
 7026TIP3    H142569   3.886   1.549  14.342
 7026TIP3    H242570   4.021   1.552  14.277
 7027TIP3   OH242571   3.894   1.767  15.474
 7027TIP3    H142572   3.953   1.745  15.549
 7027TIP3    H242573   3.850   1.682  15.456
 7028TIP3   OH242574   4.357   1.656  15.637
 7028TIP3    H142575   4.435   1.609  15.667
 7028TIP3    H242576   4.355   1.631  15.542
 7029TIP3   OH242577   4.771   1.611  13.774
 7029TIP3    H142578   4.704   1.545  13.801
 7029TIP3    H242579   4.844   1.552  13.750
 7030TIP3   OH242580   5.014   1.497  15.507
 7030TIP3    H142581   4.979   1.410  15.535
 7030TIP3    H242582   5.089   1.509  15.567
 7031TIP3   OH242583   5.228   1.587  13.794
 7031TIP3    H142584   5.258   1.508  13.843
 7031TIP3    H242585   5.304   1.610  13.739
 7032TIP3   OH242586   3.875   1.144  15.578
 7032TIP3    H142587   3.904   1.057  15.540
 7032TIP3    H242588   3.810   1.173  15.514
 7033TIP3   OH242589   4.319   1.180  13.778
 7033TIP3    H142590   4.331   1.102  13.834
 7033TIP3    H242591   4.391   1.168  13.714
 7034TIP3   OH242592   4.557   1.143  15.511
 7034TIP3    H142593   4.517   1.173  15.427
 7034TIP3    H242594   4.564   1.045  15.501
 7035TIP3   OH242595   4.860   1.289  13.754
 7035TIP3    H142596   4.833   1.300  13.846
 7035TIP3    H242597   4.840   1.193  13.741
 7036TIP3   OH242598   5.125   1.131  15.251
 7036TIP3    H142599   5.203   1.191  15.243
 7036TIP3    H242600   5.053   1.196  15.255
 7037TIP3   OH242601   3.967   0.865  15.511
 7037TIP3    H142602   4.016   0.783  15.501
 7037TIP3    H242603   3.951   0.869  15.606
 7038TIP3   OH242604   4.438   0.981  14.016
 7038TIP3    H142605   4.389   0.928  14.081
 7038TIP3    H242606   4.466   0.912  13.951
 7039TIP3   OH242607   4.364   0.761  15.244
 7039TIP3    H142608   4.307   0.834  15.276
 7039TIP3    H242609   4.404   0.803  15.167
 7040TIP3   OH242610   4.545   0.803  13.839
 7040TIP3    H142611   4.529   0.792  13.743
 7040TIP3    H242612   4.643   0.810  13.844
 7041TIP3   OH242613   4.870   1.018  15.582
 7041TIP3    H142614   4.966   1.019  15.570
 7041TIP3    H242615   4.854   0.942  15.639
 7042TIP3   OH242616   5.481   1.036  13.782
 7042TIP3    H142617   5.458   0.997  13.696
 7042TIP3    H242618   5.488   1.132  13.761
 7043TIP3   OH242619   4.402   0.501  15.353
 7043TIP3    H142620   4.419   0.427  15.294
 7043TIP3    H242621   4.402   0.583  15.300
 7044TIP3   OH242622   4.456   0.326  15.112
 7044TIP3    H142623   4.510   0.376  15.044
 7044TIP3    H242624   4.366   0.307  15.076
 7045TIP3   OH242625   4.599   0.882  15.130
 7045TIP3    H142626   4.677   0.871  15.074
 7045TIP3    H242627   4.566   0.970  15.101
 7046TIP3   OH242628   5.039   0.663  15.629
 7046TIP3    H142629   5.062   0.569  15.621
 7046TIP3    H242630   5.126   0.706  15.631
 7047TIP3   OH242631   5.173   0.942  15.445
 7047TIP3    H142632   5.148   1.014  15.383
 7047TIP3    H242633   5.269   0.938  15.425
 7048TIP3   OH242634   4.251   0.625  15.546
 7048TIP3    H142635   4.173   0.568  15.528
 7048TIP3    H242636   4.317   0.589  15.484
 7049TIP3   OH242637   4.516   0.091  15.165
 7049TIP3    H142638   4.511   0.186  15.141
 7049TIP3    H242639   4.451   0.051  15.104
 7050TIP3   OH242640   4.651   0.516  15.506
 7050TIP3    H142641   4.623   0.490  15.597
 7050TIP3    H242642   4.572   0.495  15.455
 7051TIP3   OH242643   4.923   0.433  15.417
 7051TIP3    H142644   4.826   0.433  15.430
 7051TIP3    H242645   4.951   0.367  15.483
 7052TIP3   OH242646   5.081   0.297  15.611
 7052TIP3    H142647   5.076   0.198  15.611
 7052TIP3    H242648   5.053   0.320  15.702
 7053TIP3   OH242649   4.063   0.416  15.519
 7053TIP3    H142650   4.087   0.342  15.461
 7053TIP3    H242651   4.054   0.371  15.605
 7054TIP3   OH242652   4.543   7.358  15.416
 7054TIP3    H142653   4.613   7.292  15.422
 7054TIP3    H242654   4.537   7.383  15.322
 7055TIP3   OH242655   4.585   0.191  15.616
 7055TIP3    H142656   4.566   0.129  15.543
 7055TIP3    H242657   4.519   0.260  15.616
 7056TIP3   OH242658   4.530   1.872  13.944
 7056TIP3    H142659   4.627   1.884  13.952
 7056TIP3    H242660   4.513   1.936  13.874
 7057TIP3   OH242661   3.886   1.333  13.891
 7057TIP3    H142662   3.983   1.341  13.912
 7057TIP3    H242663   3.891   1.266  13.819
 7058TIP3   OH242664   3.762   1.871  14.391
 7058TIP3    H142665   3.691   1.823  14.343
 7058TIP3    H242666   3.791   1.805  14.455
 7059TIP3   OH242667   3.844   1.683  14.576
 7059TIP3    H142668   3.810   1.595  14.595
 7059TIP3    H242669   3.867   1.716  14.665
 7060TIP3   OH242670   5.604   1.764  14.865
 7060TIP3    H142671   5.621   1.781  14.958
 7060TIP3    H242672   5.674   1.822  14.831
 7061TIP3   OH242673   5.560   1.711  15.195
 7061TIP3    H142674   5.517   1.636  15.149
 7061TIP3    H242675   5.624   1.662  15.252
 7062TIP3   OH242676   5.401   1.294  15.631
 7062TIP3    H142677   5.311   1.291  15.670
 7062TIP3    H242678   5.438   1.374  15.676
 7063TIP3   OH242679   5.531   1.127  14.177
 7063TIP3    H142680   5.617   1.166  14.194
 7063TIP3    H242681   5.531   1.053  14.242
 7064TIP3   OH242682   5.568   0.934  14.363
 7064TIP3    H142683   5.494   0.883  14.403
 7064TIP3    H242684   5.628   0.949  14.439
 7065TIP3   OH242685   5.544   1.207  14.863
 7065TIP3    H142686   5.626   1.169  14.826
 7065TIP3    H242687   5.558   1.301  14.844
 7066TIP3   OH242688   5.398   1.502  15.087
 7066TIP3    H142689   5.328   1.525  15.151
 7066TIP3    H242690   5.344   1.452  15.020
 7067TIP3   OH242691   5.598   0.917  14.003
 7067TIP3    H142692   5.542   0.953  13.931
 7067TIP3    H242693   5.590   0.988  14.069
 7068TIP3   OH242694   5.435   0.641  13.855
 7068TIP3    H142695   5.442   0.709  13.786
 7068TIP3    H242696   5.417   0.559  13.806
 7069TIP3   OH242697   5.349   0.782  14.420
 7069TIP3    H142698   5.334   0.687  14.417
 7069TIP3    H242699   5.315   0.806  14.507
 7070TIP3   OH242700   3.849   0.991  14.825
 7070TIP3    H142701   3.869   0.982  14.729
 7070TIP3    H242702   3.939   0.975  14.862
 7071TIP3   OH242703   5.434   0.980  15.387
 7071TIP3    H142704   5.495   0.904  15.402
 7071TIP3    H242705   5.494   1.057  15.389
 7072TIP3   OH242706   5.585   0.769  15.455
 7072TIP3    H142707   5.497   0.728  15.436
 7072TIP3    H242708   5.643   0.692  15.446
 7073TIP3   OH242709   5.357   0.389  13.770
 7073TIP3    H142710   5.419   0.346  13.832
 7073TIP3    H242711   5.273   0.343  13.785
 7074TIP3   OH242712   5.315   0.541  14.263
 7074TIP3    H142713   5.347   0.450  14.278
 7074TIP3    H242714   5.397   0.582  14.230
 7075TIP3   OH242715   5.380   0.597  14.809
 7075TIP3    H142716   5.476   0.619  14.808
 7075TIP3    H242717   5.360   0.608  14.904
 7076TIP3   OH242718   5.386   0.669  15.088
 7076TIP3    H142719   5.299   0.697  15.122
 7076TIP3    H242720   5.430   0.754  15.066
 7077TIP3   OH242721   3.811   0.521  15.438
 7077TIP3    H142722   3.904   0.501  15.459
 7077TIP3    H242723   3.766   0.439  15.471
 7078TIP3   OH242724   5.623   0.069  15.626
 7078TIP3    H142725   5.647   0.006  15.558
 7078TIP3    H242726   5.623   0.154  15.575
 7079TIP3   OH242727   5.382   0.268  14.270
 7079TIP3    H142728   5.401   0.222  14.355
 7079TIP3    H242729   5.323   0.204  14.225
 7080TIP3   OH242730   3.928   0.350  14.728
 7080TIP3    H142731   3.978   0.269  14.752
 7080TIP3    H242732   3.984   0.419  14.765
 7081TIP3   OH242733   3.761   0.647  14.831
 7081TIP3    H142734   3.816   0.627  14.753
 7081TIP3    H242735   3.804   0.730  14.858
 7082TIP3   OH242736   5.567   0.280  15.457
 7082TIP3    H142737   5.473   0.307  15.453
 7082TIP3    H242738   5.571   0.225  15.377
 7083TIP3   OH242739   5.566   0.276  13.924
 7083TIP3    H142740   5.609   0.200  13.876
 7083TIP3    H242741   5.639   0.339  13.930
 7084TIP3   OH242742   3.800   0.273  14.238
 7084TIP3    H142743   3.705   0.293  14.224
 7084TIP3    H242744   3.840   0.324  14.166
 7085TIP3   OH242745   5.271   1.771  14.432
 7085TIP3    H142746   5.339   1.739  14.370
 7085TIP3    H242747   5.323   1.821  14.496
 7086TIP3   OH242748   3.786   0.140  15.063
 7086TIP3    H142749   3.728   0.125  15.139
 7086TIP3    H242750   3.750   0.216  15.015
 7087TIP3   OH242751   4.013   1.464  15.486
 7087TIP3    H142752   3.929   1.483  15.440
 7087TIP3    H242753   3.986   1.456  15.578
 7088TIP3   OH242754   4.305   1.560  15.110
 7088TIP3    H142755   4.269   1.646  15.084
 7088TIP3    H242756   4.398   1.570  15.082
 7089TIP3   OH242757   4.737   1.704  15.404
 7089TIP3    H142758   4.754   1.669  15.495
 7089TIP3    H242759   4.827   1.734  15.378
 7090TIP3   OH242760   4.969   1.832  15.331
 7090TIP3    H142761   5.039   1.770  15.310
 7090TIP3    H242762   5.005   1.873  15.412
 7091TIP3   OH242763   5.469   0.094  15.240
 7091TIP3    H142764   5.385   0.125  15.203
 7091TIP3    H242765   5.486   0.013  15.189
 7092TIP3   OH242766   4.048   1.886  15.113
 7092TIP3    H142767   3.975   1.934  15.071
 7092TIP3    H242768   4.015   1.865  15.201
 7093TIP3   OH242769   4.295   1.846  15.018
 7093TIP3    H142770   4.205   1.857  15.058
 7093TIP3    H242771   4.288   1.903  14.940
 7094TIP3   OH242772   4.765   1.835  14.936
 7094TIP3    H142773   4.719   1.890  14.871
 7094TIP3    H242774   4.780   1.898  15.009
 7095TIP3   OH242775   4.998   1.719  15.034
 7095TIP3    H142776   4.908   1.742  15.003
 7095TIP3    H242777   5.039   1.806  15.026
 7096TIP3   OH242778   5.262   1.874  15.060
 7096TIP3    H142779   5.242   1.970  15.040
 7096TIP3    H242780   5.265   1.840  14.969
 7097TIP3   OH242781   3.991   1.751  14.806
 7097TIP3    H142782   3.986   1.705  14.892
 7097TIP3    H242783   4.073   1.715  14.766
 7098TIP3   OH242784   4.201   1.622  14.671
 7098TIP3    H142785   4.183   1.528  14.692
 7098TIP3    H242786   4.286   1.636  14.717
 7099TIP3   OH242787   4.460   1.670  14.758
 7099TIP3    H142788   4.477   1.578  14.732
 7099TIP3    H242789   4.465   1.664  14.855
 7100TIP3   OH242790   4.806   0.241  14.670
 7100TIP3    H142791   4.742   0.172  14.698
 7100TIP3    H242792   4.865   0.187  14.616
 7101TIP3   OH242793   5.320   0.044  14.683
 7101TIP3    H142794   5.382   0.098  14.629
 7101TIP3    H242795   5.233   0.076  14.657
 7102TIP3   OH242796   5.490   0.165  14.507
 7102TIP3    H142797   5.557   0.107  14.466
 7102TIP3    H242798   5.537   0.250  14.517
 7103TIP3   OH242799   4.047   0.102  14.446
 7103TIP3    H142800   3.962   0.075  14.407
 7103TIP3    H242801   4.088   0.015  14.459
 7104TIP3   OH242802   3.898   0.118  13.978
 7104TIP3    H142803   3.983   0.161  13.969
 7104TIP3    H242804   3.866   0.141  14.066
 7105TIP3   OH242805   4.519   0.130  14.467
 7105TIP3    H142806   4.614   0.131  14.442
 7105TIP3    H242807   4.503   0.065  14.537
 7106TIP3   OH242808   5.045   0.114  14.604
 7106TIP3    H142809   5.058   0.111  14.509
 7106TIP3    H242810   5.031   0.016  14.615
 7107TIP3   OH242811   5.188   0.095  14.170
 7107TIP3    H142812   5.116   0.158  14.148
 7107TIP3    H242813   5.144   0.010  14.182
 7108TIP3   OH242814   3.913   1.669  14.129
 7108TIP3    H142815   3.846   1.668  14.059
 7108TIP3    H242816   3.912   1.764  14.150
 7109TIP3   OH242817   4.105   0.270  13.878
 7109TIP3    H142818   4.158   0.208  13.825
 7109TIP3    H242819   4.171   0.300  13.944
 7110TIP3   OH242820   4.602   0.293  14.123
 7110TIP3    H142821   4.634   0.235  14.194
 7110TIP3    H242822   4.611   0.380  14.169
 7111TIP3   OH242823   4.799   1.797  13.966
 7111TIP3    H142824   4.890   1.825  13.944
 7111TIP3    H242825   4.777   1.748  13.884
 7112TIP3   OH242826   5.471   1.750  14.236
 7112TIP3    H142827   5.451   1.672  14.178
 7112TIP3    H242828   5.464   1.824  14.172
 7113TIP3   OH242829   4.028   0.152  15.397
 7113TIP3    H142830   3.996   0.075  15.445
 7113TIP3    H242831   4.119   0.150  15.435
 7114TIP3   OH242832   4.215   0.106  15.551
 7114TIP3    H142833   4.309   0.076  15.544
 7114TIP3    H242834   4.199   0.023  15.602
 7115TIP3   OH242835   4.093   1.766  13.826
 7115TIP3    H142836   4.067   1.793  13.915
 7115TIP3    H242837   4.171   1.710  13.842
 7116TIP3   OH242838   5.071   7.384  15.576
 7116TIP3    H142839   5.076   7.324  15.654
 7116TIP3    H242840   5.159   7.363  15.541
 7117TIP3   OH242841   5.395   1.624  15.446
 7117TIP3    H142842   5.313   1.608  15.394
 7117TIP3    H242843   5.383   1.718  15.469
 7118TIP3   OH242844   6.837   1.011  14.445
 7118TIP3    H142845   6.840   1.109  14.438
 7118TIP3    H242846   6.767   0.988  14.383
 7119TIP3   OH242847   6.725   0.938  14.793
 7119TIP3    H142848   6.723   0.873  14.864
 7119TIP3    H242849   6.692   0.889  14.716
 7120TIP3   OH242850   5.960   0.904  14.949
 7120TIP3    H142851   5.968   0.837  15.020
 7120TIP3    H242852   6.034   0.962  14.970
 7121TIP3   OH242853   7.094   1.231  14.621
 7121TIP3    H142854   7.052   1.160  14.670
 7121TIP3    H242855   7.098   1.302  14.688
 7122TIP3   OH242856   6.053   1.349  14.801
 7122TIP3    H142857   6.020   1.263  14.767
 7122TIP3    H242858   6.149   1.330  14.805
 7123TIP3   OH242859   5.717   0.707  14.346
 7123TIP3    H142860   5.672   0.794  14.341
 7123TIP3    H242861   5.660   0.652  14.291
 7124TIP3   OH242862   5.787   0.928  14.560
 7124TIP3    H142863   5.813   0.847  14.607
 7124TIP3    H242864   5.859   0.937  14.495
 7125TIP3   OH242865   6.805   1.745  14.643
 7125TIP3    H142866   6.872   1.677  14.617
 7125TIP3    H242867   6.788   1.718  14.733
 7126TIP3   OH242868   6.562   1.179  14.837
 7126TIP3    H142869   6.596   1.114  14.773
 7126TIP3    H242870   6.641   1.193  14.892
 7127TIP3   OH242871   6.878   0.624  14.870
 7127TIP3    H142872   6.895   0.527  14.869
 7127TIP3    H242873   6.868   0.639  14.774
 7128TIP3   OH242874   6.192   0.435  14.593
 7128TIP3    H142875   6.200   0.519  14.545
 7128TIP3    H242876   6.150   0.377  14.527
 7129TIP3   OH242877   6.965   0.443  14.431
 7129TIP3    H142878   7.032   0.411  14.497
 7129TIP3    H242879   7.020   0.498  14.373
 7130TIP3   OH242880   5.853   0.674  14.667
 7130TIP3    H142881   5.921   0.618  14.711
 7130TIP3    H242882   5.862   0.643  14.576
 7131TIP3   OH242883   6.370   0.829  14.596
 7131TIP3    H142884   6.435   0.772  14.639
 7131TIP3    H242885   6.316   0.763  14.548
 7132TIP3   OH242886   6.080   0.326  14.998
 7132TIP3    H142887   6.051   0.379  14.922
 7132TIP3    H242888   6.010   0.346  15.064
 7133TIP3   OH242889   6.810   1.271  14.352
 7133TIP3    H142890   6.783   1.243  14.264
 7133TIP3    H242891   6.779   1.364  14.357
 7134TIP3   OH242892   6.333   1.088  15.023
 7134TIP3    H142893   6.261   1.152  15.041
 7134TIP3    H242894   6.403   1.147  14.994
 7135TIP3   OH242895   7.128   0.374  14.635
 7135TIP3    H142896   7.120   0.295  14.687
 7135TIP3    H242897   7.203   0.419  14.680
 7136TIP3   OH242898   6.035   0.510  14.797
 7136TIP3    H142899   6.100   0.577  14.832
 7136TIP3    H242900   6.089   0.466  14.728
 7137TIP3   OH242901   6.176   1.287  15.104
 7137TIP3    H142902   6.172   1.378  15.069
 7137TIP3    H242903   6.088   1.280  15.148
 7138TIP3   OH242904   5.785   1.250  14.184
 7138TIP3    H142905   5.759   1.281  14.095
 7138TIP3    H242906   5.792   1.335  14.232
 7139TIP3   OH242907   7.139   1.412  14.862
 7139TIP3    H142908   7.044   1.426  14.872
 7139TIP3    H242909   7.172   1.503  14.841
 7140TIP3   OH242910   7.169   0.255  14.993
 7140TIP3    H142911   7.096   0.317  14.988
 7140TIP3    H242912   7.241   0.293  14.941
 7141TIP3   OH242913   6.504   0.071  14.743
 7141TIP3    H142914   6.484  -0.023  14.738
 7141TIP3    H242915   6.411   0.096  14.765
 7142TIP3   OH242916   6.969   1.591  14.517
 7142TIP3    H142917   7.017   1.522  14.467
 7142TIP3    H242918   7.011   1.672  14.480
 7143TIP3   OH242919   7.091   1.385  14.366
 7143TIP3    H142920   7.063   1.314  14.308
 7143TIP3    H242921   7.097   1.338  14.452
 7144TIP3   OH242922   7.236   1.254  15.224
 7144TIP3    H142923   7.267   1.188  15.159
 7144TIP3    H242924   7.275   1.333  15.183
 7145TIP3   OH242925   6.705   0.936  14.195
 7145TIP3    H142926   6.635   0.992  14.159
 7145TIP3    H242927   6.775   0.944  14.128
 7146TIP3   OH242928   6.711   0.789  13.897
 7146TIP3    H142929   6.782   0.788  13.962
 7146TIP3    H242930   6.743   0.721  13.836
 7147TIP3   OH242931   7.048   0.959  14.286
 7147TIP3    H142932   6.974   0.982  14.347
 7147TIP3    H242933   7.094   0.890  14.339
 7148TIP3   OH242934   7.037   0.771  15.198
 7148TIP3    H142935   7.042   0.852  15.251
 7148TIP3    H242936   6.977   0.803  15.128
 7149TIP3   OH242937   6.210   1.023  14.478
 7149TIP3    H142938   6.178   0.984  14.394
 7149TIP3    H242939   6.271   0.953  14.512
 7150TIP3   OH242940   6.342   1.363  14.747
 7150TIP3    H142941   6.340   1.308  14.668
 7150TIP3    H242942   6.420   1.326  14.793
 7151TIP3   OH242943   6.244   0.897  14.843
 7151TIP3    H142944   6.301   0.909  14.764
 7151TIP3    H242945   6.281   0.963  14.906
 7152TIP3   OH242946   6.879   1.452  14.913
 7152TIP3    H142947   6.857   1.517  14.980
 7152TIP3    H242948   6.858   1.367  14.958
 7153TIP3   OH242949   6.338   1.339  15.314
 7153TIP3    H142950   6.300   1.415  15.362
 7153TIP3    H242951   6.270   1.321  15.244
 7154TIP3   OH242952   6.936   0.875  14.054
 7154TIP3    H142953   6.991   0.893  14.134
 7154TIP3    H242954   6.978   0.925  13.981
 7155TIP3   OH242955   6.031   0.956  15.232
 7155TIP3    H142956   6.036   1.023  15.303
 7155TIP3    H242957   5.938   0.967  15.207
 7156TIP3   OH242958   6.707   1.548  14.401
 7156TIP3    H142959   6.752   1.579  14.481
 7156TIP3    H242960   6.651   1.623  14.377
 7157TIP3   OH242961   6.162   1.545  15.389
 7157TIP3    H142962   6.158   1.533  15.293
 7157TIP3    H242963   6.068   1.532  15.415
 7158TIP3   OH242964   7.271   0.052  14.014
 7158TIP3    H142965   7.199   0.069  14.077
 7158TIP3    H242966   7.320   0.132  13.997
 7159TIP3   OH242967   6.108   0.926  14.240
 7159TIP3    H142968   6.079   1.004  14.188
 7159TIP3    H242969   6.042   0.860  14.218
 7160TIP3   OH242970   5.717   1.167  15.126
 7160TIP3    H142971   5.670   1.160  15.041
 7160TIP3    H242972   5.722   1.073  15.150
 7161TIP3   OH242973   5.692   1.442  14.807
 7161TIP3    H142974   5.788   1.428  14.804
 7161TIP3    H242975   5.686   1.523  14.859
 7162TIP3   OH242976   6.612   1.466  15.262
 7162TIP3    H142977   6.619   1.550  15.313
 7162TIP3    H242978   6.524   1.431  15.288
 7163TIP3   OH242979   6.656   1.841  14.243
 7163TIP3    H142980   6.645   1.832  14.147
 7163TIP3    H242981   6.657   1.938  14.257
 7164TIP3   OH242982   6.019   1.727  14.423
 7164TIP3    H142983   6.034   1.686  14.511
 7164TIP3    H242984   5.934   1.687  14.399
 7165TIP3   OH242985   6.963   1.762  13.941
 7165TIP3    H142986   7.004   1.684  13.896
 7165TIP3    H242987   6.964   1.734  14.035
 7166TIP3   OH242988   6.931   1.754  14.218
 7166TIP3    H142989   6.836   1.762  14.237
 7166TIP3    H242990   6.957   1.681  14.276
 7167TIP3   OH242991   7.205   0.669  15.427
 7167TIP3    H142992   7.184   0.708  15.343
 7167TIP3    H242993   7.235   0.579  15.398
 7168TIP3   OH242994   5.944   1.299  15.223
 7168TIP3    H142995   5.967   1.262  15.311
 7168TIP3    H242996   5.857   1.259  15.202
 7169TIP3   OH242997   6.206   0.158  14.826
 7169TIP3    H142998   6.119   0.141  14.783
 7169TIP3    H242999   6.194   0.241  14.870
 7170TIP3   OH243000   6.673   0.114  15.158
 7170TIP3    H143001   6.715   0.075  15.235
 7170TIP3    H243002   6.578   0.102  15.172
 7171TIP3   OH243003   7.005   0.494  15.245
 7171TIP3    H143004   6.950   0.479  15.325
 7171TIP3    H243005   6.989   0.587  15.222
 7172TIP3   OH243006   7.081   0.976  13.828
 7172TIP3    H143007   7.083   0.957  13.731
 7172TIP3    H243008   7.164   1.022  13.838
 7173TIP3   OH243009   6.642   0.370  13.887
 7173TIP3    H143010   6.611   0.365  13.979
 7173TIP3    H243011   6.610   0.282  13.857
 7174TIP3   OH243012   6.221   0.642  14.940
 7174TIP3    H143013   6.149   0.641  15.006
 7174TIP3    H243014   6.218   0.735  14.907
 7175TIP3   OH243015   6.218   0.658  14.428
 7175TIP3    H143016   6.125   0.630  14.416
 7175TIP3    H243017   6.257   0.626  14.345
 7176TIP3   OH243018   6.771   0.705  14.307
 7176TIP3    H143019   6.730   0.788  14.272
 7176TIP3    H243020   6.841   0.690  14.242
 7177TIP3   OH243021   6.677   0.727  15.452
 7177TIP3    H143022   6.624   0.649  15.483
 7177TIP3    H243023   6.761   0.713  15.498
 7178TIP3   OH243024   6.873   0.655  14.591
 7178TIP3    H143025   6.848   0.710  14.516
 7178TIP3    H243026   6.885   0.569  14.545
 7179TIP3   OH243027   5.986   0.671  15.114
 7179TIP3    H143028   5.990   0.711  15.202
 7179TIP3    H243029   5.941   0.587  15.131
 7180TIP3   OH243030   6.324   0.412  13.799
 7180TIP3    H143031   6.279   0.365  13.872
 7180TIP3    H243032   6.252   0.450  13.748
 7181TIP3   OH243033   5.651   0.384  14.507
 7181TIP3    H143034   5.718   0.379  14.578
 7181TIP3    H243035   5.696   0.342  14.431
 7182TIP3   OH243036   5.779   0.456  14.049
 7182TIP3    H143037   5.827   0.516  13.989
 7182TIP3    H243038   5.707   0.515  14.080
 7183TIP3   OH243039   6.795   0.814  15.049
 7183TIP3    H143040   6.831   0.746  14.988
 7183TIP3    H243041   6.749   0.760  15.117
 7184TIP3   OH243042   6.474   0.408  14.530
 7184TIP3    H143043   6.380   0.409  14.561
 7184TIP3    H243044   6.523   0.398  14.613
 7185TIP3   OH243045   5.956   0.566  14.417
 7185TIP3    H143046   5.867   0.580  14.379
 7185TIP3    H243047   5.985   0.482  14.378
 7186TIP3   OH243048   6.321   0.568  14.179
 7186TIP3    H143049   6.415   0.583  14.198
 7186TIP3    H243050   6.297   0.638  14.115
 7187TIP3   OH243051   6.913   0.332  14.855
 7187TIP3    H143052   6.845   0.341  14.924
 7187TIP3    H243053   6.863   0.312  14.774
 7188TIP3   OH243054   6.189   0.688  13.939
 7188TIP3    H143055   6.136   0.650  13.867
 7188TIP3    H243056   6.272   0.708  13.892
 7189TIP3   OH243057   7.233   1.899  15.489
 7189TIP3    H143058   7.262   1.936  15.403
 7189TIP3    H243059   7.306   1.930  15.544
 7190TIP3   OH243060   6.004   1.144  15.445
 7190TIP3    H143061   6.074   1.170  15.506
 7190TIP3    H243062   5.925   1.158  15.502
 7191TIP3   OH243063   6.604   0.685  14.720
 7191TIP3    H143064   6.663   0.630  14.667
 7191TIP3    H243065   6.589   0.632  14.799
 7192TIP3   OH243066   6.103   0.303  14.362
 7192TIP3    H143067   6.071   0.211  14.362
 7192TIP3    H243068   6.183   0.296  14.308
 7193TIP3   OH243069   6.467   0.520  14.961
 7193TIP3    H143070   6.383   0.570  14.971
 7193TIP3    H243071   6.521   0.553  15.035
 7194TIP3   OH243072   6.525   1.143  14.130
 7194TIP3    H143073   6.446   1.094  14.098
 7194TIP3    H243074   6.505   1.152  14.226
 7195TIP3   OH243075   7.231   1.061  15.011
 7195TIP3    H143076   7.295   1.093  14.945
 7195TIP3    H243077   7.149   1.067  14.959
 7196TIP3   OH243078   6.909   0.426  13.948
 7196TIP3    H143079   6.813   0.438  13.934
 7196TIP3    H243080   6.939   0.512  13.983
 7197TIP3   OH243081   6.674   1.166  15.255
 7197TIP3    H143082   6.639   1.126  15.335
 7197TIP3    H243083   6.653   1.260  15.264
 7198TIP3   OH243084   6.981   0.614  14.111
 7198TIP3    H143085   7.070   0.601  14.151
 7198TIP3    H243086   6.989   0.698  14.061
 7199TIP3   OH243087   6.036   1.079  14.711
 7199TIP3    H143088   6.106   1.073  14.644
 7199TIP3    H243089   6.042   0.993  14.756
 7200TIP3   OH243090   6.736   1.289  14.034
 7200TIP3    H143091   6.702   1.373  14.071
 7200TIP3    H243092   6.662   1.228  14.055
 7201TIP3   OH243093   5.735   0.922  15.238
 7201TIP3    H143094   5.754   0.877  15.323
 7201TIP3    H243095   5.673   0.859  15.195
 7202TIP3   OH243096   6.436   0.876  15.458
 7202TIP3    H143097   6.406   0.850  15.370
 7202TIP3    H243098   6.529   0.847  15.457
 7203TIP3   OH243099   6.901   1.409  15.248
 7203TIP3    H143100   6.809   1.429  15.226
 7203TIP3    H243101   6.902   1.438  15.342
 7204TIP3   OH243102   7.292   1.511  14.128
 7204TIP3    H143103   7.262   1.428  14.164
 7204TIP3    H243104   7.332   1.492  14.043
 7205TIP3   OH243105   7.016   0.992  14.840
 7205TIP3    H143106   6.922   0.970  14.828
 7205TIP3    H243107   7.063   0.917  14.799
 7206TIP3   OH243108   6.273   1.426  14.449
 7206TIP3    H143109   6.324   1.506  14.428
 7206TIP3    H243110   6.185   1.450  14.417
 7207TIP3   OH243111   5.849   0.911  13.906
 7207TIP3    H143112   5.908   0.976  13.946
 7207TIP3    H243113   5.761   0.943  13.933
 7208TIP3   OH243114   6.416   1.192  14.402
 7208TIP3    H143115   6.386   1.285  14.411
 7208TIP3    H243116   6.342   1.145  14.446
 7209TIP3   OH243117   6.460   1.610  15.041
 7209TIP3    H143118   6.504   1.692  15.014
 7209TIP3    H243119   6.521   1.578  15.110
 7210TIP3   OH243120   6.283   1.693  14.356
 7210TIP3    H143121   6.186   1.706  14.367
 7210TIP3    H243122   6.318   1.777  14.391
 7211TIP3   OH243123   6.816   1.213  15.005
 7211TIP3    H143124   6.779   1.193  15.093
 7211TIP3    H243125   6.878   1.140  14.988
 7212TIP3   OH243126   7.045   1.316  13.914
 7212TIP3    H143127   7.074   1.271  13.995
 7212TIP3    H243128   6.949   1.301  13.922
 7213TIP3   OH243129   7.087   1.667  15.258
 7213TIP3    H143130   7.024   1.617  15.203
 7213TIP3    H243131   7.114   1.737  15.192
 7214TIP3   OH243132   5.900   0.394  15.195
 7214TIP3    H143133   5.809   0.429  15.190
 7214TIP3    H243134   5.887   0.307  15.236
 7215TIP3   OH243135   7.124   1.179  14.137
 7215TIP3    H143136   7.100   1.102  14.193
 7215TIP3    H243137   7.218   1.187  14.158
 7216TIP3   OH243138   5.861   1.575  15.036
 7216TIP3    H143139   5.890   1.482  15.035
 7216TIP3    H243140   5.890   1.602  15.124
 7217TIP3   OH243141   6.456   1.425  13.761
 7217TIP3    H143142   6.470   1.348  13.704
 7217TIP3    H243143   6.418   1.382  13.840
 7218TIP3   OH243144   6.339   1.378  14.007
 7218TIP3    H143145   6.361   1.327  14.085
 7218TIP3    H243146   6.344   1.471  14.039
 7219TIP3   OH243147   5.990   1.103  14.056
 7219TIP3    H143148   5.919   1.142  14.112
 7219TIP3    H243149   6.041   1.181  14.029
 7220TIP3   OH243150   6.772   0.370  15.088
 7220TIP3    H143151   6.845   0.378  15.150
 7220TIP3    H243152   6.735   0.281  15.105
 7221TIP3   OH243153   6.851   0.329  14.195
 7221TIP3    H143154   6.872   0.380  14.114
 7221TIP3    H243155   6.904   0.375  14.262
 7222TIP3   OH243156   6.617   1.546  14.079
 7222TIP3    H143157   6.535   1.598  14.085
 7222TIP3    H243158   6.670   1.599  14.017
 7223TIP3   OH243159   6.571   0.503  14.278
 7223TIP3    H143160   6.649   0.560  14.282
 7223TIP3    H243161   6.545   0.493  14.372
 7224TIP3   OH243162   6.626   0.606  15.196
 7224TIP3    H143163   6.635   0.664  15.275
 7224TIP3    H243164   6.692   0.536  15.207
 7225TIP3   OH243165   6.656   0.211  14.371
 7225TIP3    H143166   6.625   0.278  14.434
 7225TIP3    H243167   6.723   0.265  14.323
 7226TIP3   OH243168   6.355   1.649  14.080
 7226TIP3    H143169   6.367   1.731  14.026
 7226TIP3    H243170   6.330   1.685  14.168
 7227TIP3   OH243171   6.222   0.320  14.038
 7227TIP3    H143172   6.217   0.410  14.075
 7227TIP3    H243173   6.314   0.299  14.063
 7228TIP3   OH243174   7.242   0.387  15.276
 7228TIP3    H143175   7.151   0.424  15.269
 7228TIP3    H243176   7.275   0.395  15.186
 7229TIP3   OH243177   7.106   0.774  14.688
 7229TIP3    H143178   7.024   0.731  14.656
 7229TIP3    H243179   7.147   0.701  14.737
 7230TIP3   OH243180   6.046   1.365  13.944
 7230TIP3    H143181   6.111   1.431  13.973
 7230TIP3    H243182   6.098   1.320  13.874
 7231TIP3   OH243183   5.880   0.632  13.857
 7231TIP3    H143184   5.880   0.728  13.877
 7231TIP3    H243185   5.791   0.612  13.827
 7232TIP3   OH243186   7.218   1.690  14.846
 7232TIP3    H143187   7.196   1.768  14.790
 7232TIP3    H243188   7.308   1.710  14.872
 7233TIP3   OH243189   5.943   0.125  14.732
 7233TIP3    H143190   5.941   0.115  14.634
 7233TIP3    H243191   5.926   0.032  14.755
 7234TIP3   OH243192   5.857   1.503  14.344
 7234TIP3    H143193   5.772   1.549  14.342
 7234TIP3    H243194   5.907   1.552  14.277
 7235TIP3   OH243195   5.779   1.767  15.472
 7235TIP3    H143196   5.837   1.747  15.548
 7235TIP3    H243197   5.736   1.681  15.457
 7236TIP3   OH243198   6.243   1.656  15.637
 7236TIP3    H143199   6.321   1.610  15.669
 7236TIP3    H243200   6.242   1.632  15.542
 7237TIP3   OH243201   6.657   1.610  13.774
 7237TIP3    H143202   6.589   1.545  13.801
 7237TIP3    H243203   6.730   1.552  13.750
 7238TIP3   OH243204   6.899   1.497  15.507
 7238TIP3    H143205   6.866   1.409  15.536
 7238TIP3    H243206   6.974   1.509  15.567
 7239TIP3   OH243207   7.112   1.588  13.796
 7239TIP3    H143208   7.141   1.509  13.842
 7239TIP3    H243209   7.188   1.610  13.739
 7240TIP3   OH243210   5.771   1.144  15.572
 7240TIP3    H143211   5.787   1.054  15.540
 7240TIP3    H243212   5.696   1.172  15.516
 7241TIP3   OH243213   6.204   1.180  13.778
 7241TIP3    H143214   6.217   1.102  13.834
 7241TIP3    H243215   6.277   1.168  13.714
 7242TIP3   OH243216   6.440   1.143  15.512
 7242TIP3    H143217   6.407   1.173  15.426
 7242TIP3    H243218   6.450   1.045  15.502
 7243TIP3   OH243219   6.746   1.289  13.754
 7243TIP3    H143220   6.718   1.300  13.846
 7243TIP3    H243221   6.725   1.193  13.741
 7244TIP3   OH243222   7.010   1.129  15.248
 7244TIP3    H143223   7.087   1.190  15.241
 7244TIP3    H243224   6.940   1.195  15.256
 7245TIP3   OH243225   5.858   0.868  15.511
 7245TIP3    H143226   5.900   0.782  15.501
 7245TIP3    H243227   5.835   0.868  15.606
 7246TIP3   OH243228   6.324   0.980  14.016
 7246TIP3    H143229   6.275   0.928  14.081
 7246TIP3    H243230   6.352   0.912  13.951
 7247TIP3   OH243231   6.251   0.763  15.248
 7247TIP3    H143232   6.190   0.835  15.274
 7247TIP3    H243233   6.289   0.799  15.166
 7248TIP3   OH243234   6.431   0.803  13.839
 7248TIP3    H143235   6.415   0.792  13.743
 7248TIP3    H243236   6.528   0.810  13.844
 7249TIP3   OH243237   6.753   1.019  15.582
 7249TIP3    H143238   6.850   1.019  15.569
 7249TIP3    H243239   6.740   0.941  15.639
 7250TIP3   OH243240   6.290   0.501  15.355
 7250TIP3    H143241   6.302   0.429  15.291
 7250TIP3    H243242   6.287   0.581  15.298
 7251TIP3   OH243243   6.330   0.339  15.107
 7251TIP3    H143244   6.383   0.386  15.038
 7251TIP3    H243245   6.241   0.328  15.065
 7252TIP3   OH243246   6.486   0.885  15.133
 7252TIP3    H143247   6.561   0.869  15.074
 7252TIP3    H243248   6.450   0.970  15.100
 7253TIP3   OH243249   6.925   0.663  15.632
 7253TIP3    H143250   6.948   0.570  15.620
 7253TIP3    H243251   7.012   0.706  15.630
 7254TIP3   OH243252   7.055   0.943  15.443
 7254TIP3    H143253   7.033   1.016  15.382
 7254TIP3    H243254   7.152   0.938  15.426
 7255TIP3   OH243255   6.138   0.624  15.547
 7255TIP3    H143256   6.059   0.569  15.527
 7255TIP3    H243257   6.202   0.590  15.483
 7256TIP3   OH243258   6.401   0.095  15.165
 7256TIP3    H143259   6.394   0.190  15.139
 7256TIP3    H243260   6.337   0.054  15.104
 7257TIP3   OH243261   6.537   0.515  15.507
 7257TIP3    H143262   6.508   0.490  15.597
 7257TIP3    H243263   6.458   0.495  15.454
 7258TIP3   OH243264   6.806   0.433  15.417
 7258TIP3    H143265   6.710   0.433  15.430
 7258TIP3    H243266   6.837   0.367  15.482
 7259TIP3   OH243267   6.970   0.297  15.612
 7259TIP3    H143268   6.960   0.198  15.611
 7259TIP3    H243269   6.939   0.320  15.702
 7260TIP3   OH243270   5.948   0.416  15.520
 7260TIP3    H143271   5.973   0.343  15.460
 7260TIP3    H243272   5.940   0.370  15.606
 7261TIP3   OH243273   6.429   7.358  15.415
 7261TIP3    H143274   6.500   7.293  15.420
 7261TIP3    H243275   6.422   7.384  15.321
 7262TIP3   OH243276   6.467   0.185  15.623
 7262TIP3    H143277   6.453   0.131  15.542
 7262TIP3    H243278   6.407   0.260  15.616
 7263TIP3   OH243279   6.416   1.872  13.944
 7263TIP3    H143280   6.512   1.884  13.952
 7263TIP3    H243281   6.398   1.936  13.874
 7264TIP3   OH243282   5.772   1.333  13.891
 7264TIP3    H143283   5.868   1.341  13.912
 7264TIP3    H243284   5.777   1.266  13.819
 7265TIP3   OH243285   5.647   1.871  14.391
 7265TIP3    H143286   5.576   1.823  14.343
 7265TIP3    H243287   5.676   1.805  14.455
 7266TIP3   OH243288   5.729   1.683  14.576
 7266TIP3    H143289   5.696   1.594  14.594
 7266TIP3    H243290   5.755   1.715  14.664
 7267TIP3   OH243291   7.270   1.306  15.620
 7267TIP3    H143292   7.192   1.289  15.674
 7267TIP3    H243293   7.321   1.369  15.675
 7268TIP3   OH243294   7.282   1.488  15.094
 7268TIP3    H143295   7.216   1.532  15.149
 7268TIP3    H243296   7.228   1.454  15.019
 7269TIP3   OH243297   7.309   0.644  13.858
 7269TIP3    H143298   7.326   0.707  13.788
 7269TIP3    H243299   7.301   0.560  13.808
 7270TIP3   OH243300   7.204   0.788  14.421
 7270TIP3    H143301   7.217   0.692  14.424
 7270TIP3    H243302   7.197   0.810  14.515
 7271TIP3   OH243303   5.736   0.991  14.825
 7271TIP3    H143304   5.755   0.982  14.729
 7271TIP3    H243305   5.825   0.975  14.862
 7272TIP3   OH243306  -0.031   0.983  15.415
 7272TIP3    H143307   0.028   0.906  15.411
 7272TIP3    H243308   0.027   1.055  15.386
 7273TIP3   OH243309   7.246   0.388  13.771
 7273TIP3    H143310   7.303   0.343  13.833
 7273TIP3    H243311   7.159   0.344  13.785
 7274TIP3   OH243312   7.201   0.538  14.258
 7274TIP3    H143313   7.231   0.449  14.286
 7274TIP3    H243314   7.281   0.578  14.224
 7275TIP3   OH243315   7.227   0.548  14.800
 7275TIP3    H143316   7.323   0.563  14.790
 7275TIP3    H243317   7.231   0.595  14.886
 7276TIP3   OH243318   7.270   0.668  15.095
 7276TIP3    H143319   7.182   0.699  15.123
 7276TIP3    H243320   7.312   0.749  15.063
 7277TIP3   OH243321   5.696   0.521  15.438
 7277TIP3    H143322   5.790   0.501  15.459
 7277TIP3    H243323   5.652   0.439  15.471
 7278TIP3   OH243324   7.192   0.251  14.320
 7278TIP3    H143325   7.277   0.220  14.356
 7278TIP3    H243326   7.194   0.202  14.235
 7279TIP3   OH243327   5.815   0.351  14.724
 7279TIP3    H143328   5.863   0.270  14.753
 7279TIP3    H243329   5.870   0.419  14.766
 7280TIP3   OH243330   5.646   0.649  14.831
 7280TIP3    H143331   5.702   0.626  14.753
 7280TIP3    H243332   5.690   0.731  14.858
 7281TIP3   OH243333   5.685   0.273  14.238
 7281TIP3    H143334   5.590   0.293  14.224
 7281TIP3    H243335   5.725   0.324  14.166
 7282TIP3   OH243336   7.144   1.757  14.433
 7282TIP3    H143337   7.214   1.728  14.375
 7282TIP3    H243338   7.197   1.817  14.494
 7283TIP3   OH243339   5.678   0.145  15.069
 7283TIP3    H143340   5.611   0.124  15.135
 7283TIP3    H243341   5.632   0.210  15.011
 7284TIP3   OH243342   5.900   1.464  15.484
 7284TIP3    H143343   5.816   1.483  15.440
 7284TIP3    H243344   5.873   1.456  15.577
 7285TIP3   OH243345   6.190   1.561  15.112
 7285TIP3    H143346   6.155   1.647  15.083
 7285TIP3    H243347   6.283   1.571  15.081
 7286TIP3   OH243348   6.623   1.704  15.404
 7286TIP3    H143349   6.639   1.669  15.495
 7286TIP3    H243350   6.712   1.734  15.378
 7287TIP3   OH243351   6.854   1.830  15.333
 7287TIP3    H143352   6.927   1.771  15.308
 7287TIP3    H243353   6.892   1.874  15.412
 7288TIP3   OH243354   5.932   1.884  15.112
 7288TIP3    H143355   5.861   1.936  15.071
 7288TIP3    H243356   5.901   1.866  15.202
 7289TIP3   OH243357   6.181   1.844  15.019
 7289TIP3    H143358   6.091   1.857  15.059
 7289TIP3    H243359   6.174   1.903  14.941
 7290TIP3   OH243360   6.647   1.834  14.937
 7290TIP3    H143361   6.606   1.891  14.870
 7290TIP3    H243362   6.666   1.898  15.009
 7291TIP3   OH243363   6.882   1.718  15.037
 7291TIP3    H143364   6.795   1.743  15.002
 7291TIP3    H243365   6.926   1.804  15.025
 7292TIP3   OH243366   7.151   1.861  15.101
 7292TIP3    H143367   7.128   1.951  15.067
 7292TIP3    H243368   7.160   1.835  15.005
 7293TIP3   OH243369   5.876   1.750  14.806
 7293TIP3    H143370   5.874   1.704  14.892
 7293TIP3    H243371   5.959   1.716  14.765
 7294TIP3   OH243372   6.086   1.622  14.671
 7294TIP3    H143373   6.069   1.528  14.692
 7294TIP3    H243374   6.172   1.636  14.717
 7295TIP3   OH243375   6.343   1.670  14.757
 7295TIP3    H143376   6.363   1.579  14.731
 7295TIP3    H243377   6.351   1.664  14.854
 7296TIP3   OH243378   6.691   0.241  14.670
 7296TIP3    H143379   6.627   0.172  14.699
 7296TIP3    H243380   6.751   0.187  14.616
 7297TIP3   OH243381   7.199   0.049  14.692
 7297TIP3    H143382   7.263   0.094  14.634
 7297TIP3    H243383   7.114   0.078  14.656
 7298TIP3   OH243384   5.933   0.102  14.446
 7298TIP3    H143385   5.847   0.075  14.407
 7298TIP3    H243386   5.973   0.015  14.459
 7299TIP3   OH243387   5.784   0.118  13.978
 7299TIP3    H143388   5.869   0.161  13.969
 7299TIP3    H243389   5.751   0.141  14.066
 7300TIP3   OH243390   6.405   0.130  14.467
 7300TIP3    H143391   6.499   0.131  14.442
 7300TIP3    H243392   6.389   0.065  14.537
 7301TIP3   OH243393   6.932   0.113  14.603
 7301TIP3    H143394   6.944   0.113  14.508
 7301TIP3    H243395   6.918   0.015  14.615
 7302TIP3   OH243396   7.068   0.092  14.162
 7302TIP3    H143397   6.998   0.158  14.149
 7302TIP3    H243398   7.026   0.009  14.185
 7303TIP3   OH243399   5.799   1.669  14.129
 7303TIP3    H143400   5.731   1.668  14.059
 7303TIP3    H243401   5.798   1.764  14.150
 7304TIP3   OH243402   5.991   0.270  13.878
 7304TIP3    H143403   6.044   0.208  13.825
 7304TIP3    H243404   6.057   0.300  13.944
 7305TIP3   OH243405   6.488   0.293  14.123
 7305TIP3    H143406   6.519   0.235  14.194
 7305TIP3    H243407   6.496   0.380  14.169
 7306TIP3   OH243408   6.685   1.797  13.966
 7306TIP3    H143409   6.775   1.825  13.944
 7306TIP3    H243410   6.663   1.748  13.884
 7307TIP3   OH243411   5.913   0.152  15.399
 7307TIP3    H143412   5.882   0.074  15.445
 7307TIP3    H243413   6.006   0.150  15.434
 7308TIP3   OH243414   6.103   0.104  15.552
 7308TIP3    H143415   6.196   0.075  15.543
 7308TIP3    H243416   6.083   0.022  15.600
 7309TIP3   OH243417   5.979   1.766  13.826
 7309TIP3    H143418   5.953   1.793  13.915
 7309TIP3    H243419   6.057   1.710  13.842
 7310TIP3   OH243420   6.957   7.385  15.577
 7310TIP3    H143421   6.963   7.324  15.653
 7310TIP3    H243422   7.043   7.362  15.539
 7311TIP3   OH243423   7.272   1.620  15.454
 7311TIP3    H143424   7.200   1.607  15.390
 7311TIP3    H243425   7.266   1.718  15.466
 7312TIP3   OH243426   1.180   2.897  14.445
 7312TIP3    H143427   1.182   2.995  14.438
 7312TIP3    H243428   1.110   2.873  14.383
 7313TIP3   OH243429   1.068   2.824  14.793
 7313TIP3    H143430   1.066   2.758  14.864
 7313TIP3    H243431   1.035   2.775  14.716
 7314TIP3   OH243432   0.306   2.788  14.947
 7314TIP3    H143433   0.312   2.722  15.019
 7314TIP3    H243434   0.378   2.848  14.970
 7315TIP3   OH243435   1.438   3.118  14.621
 7315TIP3    H143436   1.396   3.046  14.669
 7315TIP3    H243437   1.438   3.189  14.687
 7316TIP3   OH243438   0.394   3.234  14.802
 7316TIP3    H143439   0.362   3.149  14.767
 7316TIP3    H243440   0.490   3.215  14.805
 7317TIP3   OH243441   0.079   2.594  14.324
 7317TIP3    H143442   0.025   2.673  14.347
 7317TIP3    H243443   0.007   2.539  14.300
 7318TIP3   OH243444   0.129   2.811  14.557
 7318TIP3    H143445   0.154   2.733  14.609
 7318TIP3    H243446   0.203   2.822  14.496
 7319TIP3   OH243447   1.149   3.633  14.644
 7319TIP3    H143448   1.213   3.563  14.616
 7319TIP3    H243449   1.129   3.602  14.733
 7320TIP3   OH243450   0.905   3.065  14.837
 7320TIP3    H143451   0.939   3.000  14.773
 7320TIP3    H243452   0.984   3.079  14.892
 7321TIP3   OH243453   1.768   2.228  14.914
 7321TIP3    H143454   1.782   2.289  14.990
 7321TIP3    H243455   1.821   2.272  14.846
 7322TIP3   OH243456   1.222   2.510  14.870
 7322TIP3    H143457   1.237   2.414  14.869
 7322TIP3    H243458   1.212   2.525  14.774
 7323TIP3   OH243459   0.536   2.318  14.594
 7323TIP3    H143460   0.543   2.402  14.546
 7323TIP3    H243461   0.493   2.261  14.525
 7324TIP3   OH243462   1.307   2.328  14.430
 7324TIP3    H143463   1.374   2.296  14.496
 7324TIP3    H243464   1.363   2.384  14.374
 7325TIP3   OH243465   0.199   2.558  14.661
 7325TIP3    H143466   0.265   2.505  14.710
 7325TIP3    H243467   0.208   2.526  14.571
 7326TIP3   OH243468   0.713   2.715  14.595
 7326TIP3    H143469   0.778   2.657  14.639
 7326TIP3    H243470   0.659   2.648  14.548
 7327TIP3   OH243471   1.810   2.371  15.140
 7327TIP3    H143472   1.747   2.445  15.131
 7327TIP3    H243473   1.816   2.361  15.236
 7328TIP3   OH243474   0.423   2.209  14.998
 7328TIP3    H143475   0.396   2.265  14.922
 7328TIP3    H243476   0.354   2.232  15.064
 7329TIP3   OH243477   1.154   3.158  14.352
 7329TIP3    H143478   1.126   3.128  14.265
 7329TIP3    H243479   1.122   3.250  14.357
 7330TIP3   OH243480   0.677   2.973  15.023
 7330TIP3    H143481   0.604   3.036  15.042
 7330TIP3    H243482   0.747   3.033  14.994
 7331TIP3   OH243483   1.487   2.261  14.629
 7331TIP3    H143484   1.466   2.184  14.683
 7331TIP3    H243485   1.554   2.305  14.684
 7332TIP3   OH243486   0.378   2.393  14.799
 7332TIP3    H143487   0.440   2.462  14.832
 7332TIP3    H243488   0.433   2.352  14.727
 7333TIP3   OH243489   0.519   3.172  15.103
 7333TIP3    H143490   0.514   3.263  15.069
 7333TIP3    H243491   0.430   3.165  15.147
 7334TIP3   OH243492   0.128   3.140  14.181
 7334TIP3    H143493   0.103   3.167  14.092
 7334TIP3    H243494   0.134   3.222  14.232
 7335TIP3   OH243495   1.490   3.301  14.858
 7335TIP3    H143496   1.393   3.311  14.871
 7335TIP3    H243497   1.517   3.393  14.839
 7336TIP3   OH243498   1.522   2.130  14.998
 7336TIP3    H143499   1.448   2.193  14.990
 7336TIP3    H243500   1.592   2.172  14.944
 7337TIP3   OH243501   0.820   1.941  14.743
 7337TIP3    H143502   0.807   1.845  14.737
 7337TIP3    H243503   0.732   1.972  14.773
 7338TIP3   OH243504   1.315   3.480  14.518
 7338TIP3    H143505   1.359   3.408  14.467
 7338TIP3    H243506   1.354   3.560  14.477
 7339TIP3   OH243507   1.435   3.273  14.369
 7339TIP3    H143508   1.406   3.202  14.309
 7339TIP3    H243509   1.439   3.224  14.453
 7340TIP3   OH243510   1.599   3.130  15.218
 7340TIP3    H143511   1.614   3.067  15.145
 7340TIP3    H243512   1.618   3.216  15.177
 7341TIP3   OH243513   1.048   2.822  14.196
 7341TIP3    H143514   0.978   2.878  14.159
 7341TIP3    H243515   1.118   2.830  14.128
 7342TIP3   OH243516   1.054   2.675  13.897
 7342TIP3    H143517   1.125   2.674  13.962
 7342TIP3    H243518   1.086   2.606  13.836
 7343TIP3   OH243519   1.784   2.760  15.021
 7343TIP3    H143520   1.721   2.834  15.030
 7343TIP3    H243521   1.835   2.786  14.942
 7344TIP3   OH243522   1.392   2.843  14.287
 7344TIP3    H143523   1.317   2.867  14.347
 7344TIP3    H243524   1.437   2.774  14.338
 7345TIP3   OH243525   1.383   2.659  15.198
 7345TIP3    H143526   1.386   2.740  15.252
 7345TIP3    H243527   1.320   2.689  15.129
 7346TIP3   OH243528   0.555   2.909  14.478
 7346TIP3    H143529   0.520   2.869  14.395
 7346TIP3    H243530   0.615   2.839  14.512
 7347TIP3   OH243531   0.687   3.249  14.746
 7347TIP3    H143532   0.684   3.193  14.667
 7347TIP3    H243533   0.764   3.212  14.793
 7348TIP3   OH243534   0.588   2.783  14.843
 7348TIP3    H143535   0.644   2.795  14.764
 7348TIP3    H243536   0.624   2.850  14.906
 7349TIP3   OH243537   1.226   3.339  14.914
 7349TIP3    H143538   1.198   3.402  14.980
 7349TIP3    H243539   1.202   3.253  14.957
 7350TIP3   OH243540   0.681   3.225  15.314
 7350TIP3    H143541   0.643   3.301  15.362
 7350TIP3    H243542   0.613   3.207  15.244
 7351TIP3   OH243543   1.278   2.761  14.055
 7351TIP3    H143544   1.335   2.778  14.134
 7351TIP3    H243545   1.322   2.811  13.982
 7352TIP3   OH243546   0.376   2.843  15.235
 7352TIP3    H143547   0.379   2.911  15.304
 7352TIP3    H243548   0.283   2.852  15.206
 7353TIP3   OH243549   1.050   3.434  14.401
 7353TIP3    H143550   1.095   3.465  14.480
 7353TIP3    H243551   0.994   3.509  14.377
 7354TIP3   OH243552   0.506   3.429  15.389
 7354TIP3    H143553   0.499   3.419  15.293
 7354TIP3    H243554   0.412   3.418  15.416
 7355TIP3   OH243555   1.651   1.935  14.041
 7355TIP3    H143556   1.557   1.948  14.068
 7355TIP3    H243557   1.672   2.019  13.999
 7356TIP3   OH243558   0.452   2.811  14.239
 7356TIP3    H143559   0.423   2.890  14.188
 7356TIP3    H243560   0.385   2.746  14.218
 7357TIP3   OH243561   1.763   3.371  13.878
 7357TIP3    H143562   1.778   3.465  13.895
 7357TIP3    H243563   1.856   3.341  13.875
 7358TIP3   OH243564   0.098   3.044  15.107
 7358TIP3    H143565   0.024   3.048  15.042
 7358TIP3    H243566   0.070   2.960  15.148
 7359TIP3   OH243567   0.047   3.337  14.795
 7359TIP3    H143568   0.138   3.312  14.807
 7359TIP3    H243569   0.030   3.404  14.862
 7360TIP3   OH243570   1.860   3.397  15.374
 7360TIP3    H143571   1.847   3.301  15.373
 7360TIP3    H243572   1.773   3.421  15.416
 7361TIP3   OH243573   0.955   3.352  15.262
 7361TIP3    H143574   0.962   3.436  15.313
 7361TIP3    H243575   0.868   3.317  15.288
 7362TIP3   OH243576   0.999   3.726  14.243
 7362TIP3    H143577   0.988   3.717  14.146
 7362TIP3    H243578   0.999   3.823  14.256
 7363TIP3   OH243579   0.363   3.613  14.422
 7363TIP3    H143580   0.377   3.572  14.510
 7363TIP3    H243581   0.279   3.572  14.397
 7364TIP3   OH243582   1.305   3.647  13.941
 7364TIP3    H143583   1.348   3.570  13.896
 7364TIP3    H243584   1.308   3.619  14.035
 7365TIP3   OH243585   1.274   3.640  14.217
 7365TIP3    H143586   1.178   3.647  14.236
 7365TIP3    H243587   1.299   3.566  14.276
 7366TIP3   OH243588   1.571   2.544  15.422
 7366TIP3    H143589   1.527   2.591  15.350
 7366TIP3    H243590   1.573   2.452  15.391
 7367TIP3   OH243591   0.288   3.188  15.224
 7367TIP3    H143592   0.306   3.148  15.312
 7367TIP3    H243593   0.202   3.146  15.200
 7368TIP3   OH243594   0.555   2.032  14.820
 7368TIP3    H143595   0.465   2.021  14.782
 7368TIP3    H243596   0.544   2.116  14.866
 7369TIP3   OH243597   1.019   2.000  15.156
 7369TIP3    H143598   1.059   1.958  15.234
 7369TIP3    H243599   0.922   1.986  15.170
 7370TIP3   OH243600   1.349   2.382  15.245
 7370TIP3    H143601   1.294   2.363  15.324
 7370TIP3    H243602   1.331   2.474  15.221
 7371TIP3   OH243603   1.424   2.865  13.829
 7371TIP3    H143604   1.425   2.844  13.733
 7371TIP3    H243605   1.510   2.908  13.839
 7372TIP3   OH243606   0.984   2.256  13.886
 7372TIP3    H143607   0.953   2.251  13.978
 7372TIP3    H243608   0.953   2.168  13.856
 7373TIP3   OH243609   0.564   2.528  14.940
 7373TIP3    H143610   0.492   2.526  15.006
 7373TIP3    H243611   0.560   2.621  14.907
 7374TIP3   OH243612   0.561   2.544  14.428
 7374TIP3    H143613   0.468   2.516  14.417
 7374TIP3    H243614   0.601   2.512  14.346
 7375TIP3   OH243615   1.113   2.591  14.308
 7375TIP3    H143616   1.073   2.673  14.272
 7375TIP3    H243617   1.183   2.576  14.242
 7376TIP3   OH243618   1.020   2.612  15.452
 7376TIP3    H143619   0.966   2.535  15.483
 7376TIP3    H243620   1.104   2.599  15.498
 7377TIP3   OH243621   1.216   2.539  14.591
 7377TIP3    H143622   1.190   2.596  14.516
 7377TIP3    H243623   1.228   2.454  14.543
 7378TIP3   OH243624   0.332   2.555  15.115
 7378TIP3    H143625   0.332   2.597  15.202
 7378TIP3    H243626   0.283   2.473  15.130
 7379TIP3   OH243627   0.667   2.295  13.797
 7379TIP3    H143628   0.623   2.252  13.873
 7379TIP3    H243629   0.596   2.336  13.748
 7380TIP3   OH243630   0.013   2.285  14.497
 7380TIP3    H143631   0.060   2.261  14.580
 7380TIP3    H243632   0.043   2.221  14.432
 7381TIP3   OH243633   0.119   2.345  14.043
 7381TIP3    H143634   0.172   2.405  13.987
 7381TIP3    H243635   0.049   2.403  14.074
 7382TIP3   OH243636   1.137   2.699  15.049
 7382TIP3    H143637   1.174   2.632  14.989
 7382TIP3    H243638   1.092   2.646  15.117
 7383TIP3   OH243639   0.817   2.295  14.531
 7383TIP3    H143640   0.724   2.297  14.561
 7383TIP3    H243641   0.866   2.282  14.613
 7384TIP3   OH243642   0.303   2.453  14.415
 7384TIP3    H143643   0.213   2.467  14.380
 7384TIP3    H243644   0.327   2.367  14.377
 7385TIP3   OH243645   0.663   2.455  14.180
 7385TIP3    H143646   0.759   2.467  14.197
 7385TIP3    H243647   0.640   2.524  14.114
 7386TIP3   OH243648   1.258   2.219  14.856
 7386TIP3    H143649   1.189   2.226  14.925
 7386TIP3    H243650   1.207   2.196  14.776
 7387TIP3   OH243651   0.534   2.574  13.938
 7387TIP3    H143652   0.479   2.536  13.866
 7387TIP3    H243653   0.616   2.594  13.892
 7388TIP3   OH243654   1.579   3.784  15.489
 7388TIP3    H143655   1.606   3.823  15.404
 7388TIP3    H243656   1.651   3.816  15.546
 7389TIP3   OH243657   0.347   3.029  15.444
 7389TIP3    H143658   0.417   3.056  15.505
 7389TIP3    H243659   0.269   3.045  15.502
 7390TIP3   OH243660   0.946   2.571  14.720
 7390TIP3    H143661   1.005   2.518  14.666
 7390TIP3    H243662   0.932   2.517  14.799
 7391TIP3   OH243663   0.447   2.187  14.363
 7391TIP3    H143664   0.416   2.094  14.360
 7391TIP3    H243665   0.527   2.181  14.308
 7392TIP3   OH243666   0.810   2.406  14.961
 7392TIP3    H143667   0.727   2.456  14.971
 7392TIP3    H243668   0.864   2.439  15.035
 7393TIP3   OH243669   0.869   3.028  14.131
 7393TIP3    H143670   0.789   2.980  14.098
 7393TIP3    H243671   0.848   3.037  14.226
 7394TIP3   OH243672   1.585   2.946  15.011
 7394TIP3    H143673   1.644   2.993  14.950
 7394TIP3    H243674   1.499   2.953  14.964
 7395TIP3   OH243675   1.253   2.310  13.949
 7395TIP3    H143676   1.157   2.324  13.935
 7395TIP3    H243677   1.285   2.396  13.983
 7396TIP3   OH243678   1.017   3.052  15.255
 7396TIP3    H143679   0.983   3.011  15.335
 7396TIP3    H243680   0.994   3.145  15.264
 7397TIP3   OH243681   1.325   2.499  14.113
 7397TIP3    H143682   1.415   2.486  14.151
 7397TIP3    H243683   1.334   2.581  14.061
 7398TIP3   OH243684   0.380   2.965  14.710
 7398TIP3    H143685   0.450   2.958  14.643
 7398TIP3    H243686   0.385   2.880  14.756
 7399TIP3   OH243687   1.079   3.175  14.034
 7399TIP3    H143688   1.045   3.259  14.071
 7399TIP3    H243689   1.005   3.113  14.055
 7400TIP3   OH243690   0.101   2.787  15.215
 7400TIP3    H143691   0.108   2.764  15.309
 7400TIP3    H243692   0.017   2.745  15.192
 7401TIP3   OH243693   0.779   2.762  15.458
 7401TIP3    H143694   0.749   2.736  15.370
 7401TIP3    H243695   0.873   2.733  15.456
 7402TIP3   OH243696   1.246   3.295  15.249
 7402TIP3    H143697   1.154   3.314  15.226
 7402TIP3    H243698   1.245   3.324  15.342
 7403TIP3   OH243699   1.816   2.515  14.088
 7403TIP3    H143700   1.759   2.484  14.016
 7403TIP3    H243701   1.823   2.609  14.061
 7404TIP3   OH243702   1.813   3.103  15.371
 7404TIP3    H143703   1.724   3.123  15.333
 7404TIP3    H243704   1.870   3.096  15.291
 7405TIP3   OH243705   1.642   3.398  14.130
 7405TIP3    H143706   1.607   3.314  14.163
 7405TIP3    H243707   1.675   3.377  14.041
 7406TIP3   OH243708   1.364   2.879  14.838
 7406TIP3    H143709   1.269   2.857  14.830
 7406TIP3    H243710   1.407   2.802  14.798
 7407TIP3   OH243711   0.616   3.312  14.450
 7407TIP3    H143712   0.667   3.391  14.428
 7407TIP3    H243713   0.528   3.335  14.417
 7408TIP3   OH243714   0.187   2.795  13.910
 7408TIP3    H143715   0.252   2.861  13.945
 7408TIP3    H243716   0.103   2.831  13.936
 7409TIP3   OH243717   0.759   3.078  14.402
 7409TIP3    H143718   0.729   3.171  14.411
 7409TIP3    H243719   0.685   3.030  14.446
 7410TIP3   OH243720   0.805   3.495  15.040
 7410TIP3    H143721   0.848   3.578  15.014
 7410TIP3    H243722   0.864   3.463  15.110
 7411TIP3   OH243723   0.626   3.578  14.356
 7411TIP3    H143724   0.529   3.592  14.367
 7411TIP3    H243725   0.662   3.662  14.391
 7412TIP3   OH243726   1.159   3.099  15.005
 7412TIP3    H143727   1.122   3.078  15.094
 7412TIP3    H243728   1.221   3.027  14.988
 7413TIP3   OH243729   1.388   3.202  13.913
 7413TIP3    H143730   1.418   3.157  13.994
 7413TIP3    H243731   1.292   3.186  13.923
 7414TIP3   OH243732   1.435   3.556  15.255
 7414TIP3    H143733   1.368   3.505  15.204
 7414TIP3    H243734   1.456   3.625  15.188
 7415TIP3   OH243735   1.835   3.640  13.937
 7415TIP3    H143736   1.906   3.705  13.919
 7415TIP3    H243737   1.764   3.701  13.967
 7416TIP3   OH243738   0.243   2.280  15.189
 7416TIP3    H143739   0.153   2.315  15.191
 7416TIP3    H243740   0.232   2.196  15.238
 7417TIP3   OH243741   1.467   3.067  14.136
 7417TIP3    H143742   1.443   2.989  14.192
 7417TIP3    H243743   1.562   3.073  14.156
 7418TIP3   OH243744   0.209   3.463  15.033
 7418TIP3    H143745   0.230   3.368  15.035
 7418TIP3    H243746   0.230   3.487  15.124
 7419TIP3   OH243747   0.799   3.311  13.761
 7419TIP3    H143748   0.814   3.233  13.704
 7419TIP3    H243749   0.761   3.267  13.840
 7420TIP3   OH243750   0.682   3.264  14.006
 7420TIP3    H143751   0.704   3.212  14.085
 7420TIP3    H243752   0.686   3.357  14.038
 7421TIP3   OH243753   0.331   2.988  14.054
 7421TIP3    H143754   0.263   3.027  14.113
 7421TIP3    H243755   0.384   3.066  14.029
 7422TIP3   OH243756   1.116   2.257  15.086
 7422TIP3    H143757   1.187   2.263  15.151
 7422TIP3    H243758   1.078   2.169  15.105
 7423TIP3   OH243759   1.192   2.216  14.196
 7423TIP3    H143760   1.215   2.264  14.113
 7423TIP3    H243761   1.249   2.259  14.260
 7424TIP3   OH243762   0.960   3.431  14.079
 7424TIP3    H143763   0.878   3.484  14.085
 7424TIP3    H243764   1.013   3.484  14.017
 7425TIP3   OH243765   0.914   2.391  14.278
 7425TIP3    H143766   0.994   2.447  14.283
 7425TIP3    H243767   0.888   2.378  14.371
 7426TIP3   OH243768   0.969   2.492  15.197
 7426TIP3    H143769   0.977   2.549  15.276
 7426TIP3    H243770   1.035   2.422  15.207
 7427TIP3   OH243771   1.000   2.097  14.369
 7427TIP3    H143772   0.967   2.162  14.434
 7427TIP3    H243773   1.068   2.151  14.323
 7428TIP3   OH243774   0.698   3.535  14.079
 7428TIP3    H143775   0.709   3.617  14.026
 7428TIP3    H243776   0.673   3.571  14.167
 7429TIP3   OH243777   0.566   2.206  14.038
 7429TIP3    H143778   0.560   2.296  14.076
 7429TIP3    H243779   0.657   2.182  14.064
 7430TIP3   OH243780   1.588   2.280  15.282
 7430TIP3    H143781   1.495   2.310  15.269
 7430TIP3    H243782   1.618   2.280  15.190
 7431TIP3   OH243783   1.448   2.658  14.685
 7431TIP3    H143784   1.366   2.615  14.656
 7431TIP3    H243785   1.495   2.589  14.736
 7432TIP3   OH243786   0.389   3.250  13.944
 7432TIP3    H143787   0.454   3.316  13.973
 7432TIP3    H243788   0.441   3.205  13.874
 7433TIP3   OH243789   0.229   2.517  13.853
 7433TIP3    H143790   0.224   2.612  13.878
 7433TIP3    H243791   0.137   2.497  13.830
 7434TIP3   OH243792   1.555   3.583  14.851
 7434TIP3    H143793   1.544   3.652  14.783
 7434TIP3    H243794   1.651   3.590  14.869
 7435TIP3   OH243795   0.305   1.996  14.727
 7435TIP3    H143796   0.283   1.998  14.631
 7435TIP3    H243797   0.260   1.914  14.756
 7436TIP3   OH243798   0.202   3.388  14.345
 7436TIP3    H143799   0.117   3.433  14.342
 7436TIP3    H243800   0.250   3.439  14.278
 7437TIP3   OH243801   0.135   3.654  15.472
 7437TIP3    H143802   0.185   3.629  15.552
 7437TIP3    H243803   0.082   3.573  15.457
 7438TIP3   OH243804   0.587   3.542  15.637
 7438TIP3    H143805   0.665   3.495  15.668
 7438TIP3    H243806   0.585   3.517  15.542
 7439TIP3   OH243807   1.000   3.496  13.774
 7439TIP3    H143808   0.932   3.430  13.801
 7439TIP3    H243809   1.073   3.438  13.750
 7440TIP3   OH243810   1.241   3.382  15.506
 7440TIP3    H143811   1.208   3.295  15.535
 7440TIP3    H243812   1.317   3.395  15.566
 7441TIP3   OH243813   1.457   3.472  13.794
 7441TIP3    H143814   1.487   3.394  13.843
 7441TIP3    H243815   1.533   3.496  13.739
 7442TIP3   OH243816   0.125   3.029  15.569
 7442TIP3    H143817   0.131   2.936  15.541
 7442TIP3    H243818   0.042   3.060  15.526
 7443TIP3   OH243819   0.547   3.066  13.778
 7443TIP3    H143820   0.560   2.988  13.834
 7443TIP3    H243821   0.620   3.053  13.714
 7444TIP3   OH243822   0.783   3.028  15.512
 7444TIP3    H143823   0.750   3.059  15.426
 7444TIP3    H243824   0.794   2.931  15.502
 7445TIP3   OH243825   1.089   3.175  13.754
 7445TIP3    H143826   1.061   3.186  13.846
 7445TIP3    H243827   1.069   3.079  13.741
 7446TIP3   OH243828   1.354   3.016  15.251
 7446TIP3    H143829   1.432   3.076  15.243
 7446TIP3    H243830   1.282   3.081  15.255
 7447TIP3   OH243831   0.197   2.752  15.510
 7447TIP3    H143832   0.245   2.667  15.501
 7447TIP3    H243833   0.182   2.754  15.606
 7448TIP3   OH243834   0.667   2.866  14.016
 7448TIP3    H143835   0.618   2.813  14.081
 7448TIP3    H243836   0.695   2.798  13.951
 7449TIP3   OH243837   0.594   2.649  15.248
 7449TIP3    H143838   0.533   2.720  15.274
 7449TIP3    H243839   0.632   2.685  15.166
 7450TIP3   OH243840   0.774   2.689  13.839
 7450TIP3    H143841   0.758   2.677  13.743
 7450TIP3    H243842   0.871   2.696  13.844
 7451TIP3   OH243843   1.099   2.904  15.582
 7451TIP3    H143844   1.195   2.905  15.570
 7451TIP3    H243845   1.083   2.828  15.639
 7452TIP3   OH243846   1.710   2.922  13.782
 7452TIP3    H143847   1.687   2.882  13.696
 7452TIP3    H243848   1.717   3.018  13.761
 7453TIP3   OH243849   0.634   2.387  15.354
 7453TIP3    H143850   0.645   2.314  15.290
 7453TIP3    H243851   0.628   2.467  15.299
 7454TIP3   OH243852   0.674   2.224  15.108
 7454TIP3    H143853   0.725   2.270  15.038
 7454TIP3    H243854   0.585   2.215  15.066
 7455TIP3   OH243855   0.829   2.771  15.133
 7455TIP3    H143856   0.904   2.755  15.074
 7455TIP3    H243857   0.793   2.855  15.100
 7456TIP3   OH243858   1.268   2.548  15.630
 7456TIP3    H143859   1.291   2.455  15.621
 7456TIP3    H243860   1.354   2.592  15.631
 7457TIP3   OH243861   1.402   2.828  15.445
 7457TIP3    H143862   1.377   2.900  15.382
 7457TIP3    H243863   1.498   2.823  15.425
 7458TIP3   OH243864   0.479   2.511  15.546
 7458TIP3    H143865   0.401   2.454  15.527
 7458TIP3    H243866   0.544   2.475  15.484
 7459TIP3   OH243867   0.753   1.968  15.150
 7459TIP3    H143868   0.738   2.064  15.138
 7459TIP3    H243869   0.678   1.932  15.099
 7460TIP3   OH243870   0.880   2.400  15.508
 7460TIP3    H143871   0.851   2.379  15.598
 7460TIP3    H243872   0.801   2.381  15.454
 7461TIP3   OH243873   1.152   2.314  15.415
 7461TIP3    H143874   1.055   2.319  15.429
 7461TIP3    H243875   1.179   2.251  15.484
 7462TIP3   OH243876   1.309   2.178  15.611
 7462TIP3    H143877   1.305   2.080  15.612
 7462TIP3    H243878   1.283   2.206  15.701
 7463TIP3   OH243879   0.296   2.303  15.521
 7463TIP3    H143880   0.315   2.230  15.459
 7463TIP3    H243881   0.283   2.256  15.605
 7464TIP3   OH243882   0.774   1.904  15.418
 7464TIP3    H143883   0.844   1.836  15.414
 7464TIP3    H243884   0.764   1.923  15.323
 7465TIP3   OH243885   0.809   2.067  15.626
 7465TIP3    H143886   0.794   2.017  15.541
 7465TIP3    H243887   0.751   2.144  15.616
 7466TIP3   OH243888   0.760   3.758  13.944
 7466TIP3    H143889   0.856   3.770  13.952
 7466TIP3    H243890   0.741   3.821  13.874
 7467TIP3   OH243891   0.122   3.222  13.899
 7467TIP3    H143892   0.219   3.228  13.913
 7467TIP3    H243893   0.121   3.156  13.825
 7468TIP3   OH243894   7.353   3.765  14.384
 7468TIP3    H143895   7.271   3.732  14.343
 7468TIP3    H243896   7.370   3.697  14.453
 7469TIP3   OH243897   0.069   3.571  14.572
 7469TIP3    H143898   0.040   3.481  14.595
 7469TIP3    H243899   0.097   3.602  14.661
 7470TIP3   OH243900   1.827   3.648  14.871
 7470TIP3    H143901   1.828   3.666  14.967
 7470TIP3    H243902   1.897   3.706  14.840
 7471TIP3   OH243903   1.785   3.608  15.165
 7471TIP3    H143904   1.736   3.532  15.127
 7471TIP3    H243905   1.833   3.563  15.236
 7472TIP3   OH243906   1.630   3.180  15.631
 7472TIP3    H143907   1.540   3.176  15.670
 7472TIP3    H243908   1.666   3.260  15.676
 7473TIP3   OH243909   1.760   3.012  14.177
 7473TIP3    H143910   1.846   3.052  14.194
 7473TIP3    H243911   1.759   2.939  14.242
 7474TIP3   OH243912   1.797   2.819  14.363
 7474TIP3    H143913   1.723   2.769  14.403
 7474TIP3    H243914   1.857   2.835  14.439
 7475TIP3   OH243915   1.773   3.090  14.862
 7475TIP3    H143916   1.856   3.054  14.827
 7475TIP3    H243917   1.787   3.186  14.845
 7476TIP3   OH243918   1.627   3.381  15.090
 7476TIP3    H143919   1.558   3.414  15.149
 7476TIP3    H243920   1.572   3.339  15.019
 7477TIP3   OH243921   1.827   2.803  14.003
 7477TIP3    H143922   1.771   2.839  13.931
 7477TIP3    H243923   1.819   2.874  14.069
 7478TIP3   OH243924   1.663   2.527  13.855
 7478TIP3    H143925   1.671   2.594  13.786
 7478TIP3    H243926   1.646   2.444  13.806
 7479TIP3   OH243927   1.578   2.668  14.420
 7479TIP3    H143928   1.563   2.572  14.417
 7479TIP3    H243929   1.544   2.692  14.507
 7480TIP3   OH243930   0.078   2.875  14.824
 7480TIP3    H143931   0.097   2.869  14.727
 7480TIP3    H243932   0.166   2.861  14.863
 7481TIP3   OH243933   1.662   2.865  15.390
 7481TIP3    H143934   1.725   2.790  15.401
 7481TIP3    H243935   1.724   2.941  15.388
 7482TIP3   OH243936   1.811   2.654  15.458
 7482TIP3    H143937   1.726   2.613  15.436
 7482TIP3    H243938   1.874   2.580  15.444
 7483TIP3   OH243939   1.587   2.272  13.768
 7483TIP3    H143940   1.647   2.230  13.833
 7483TIP3    H243941   1.502   2.229  13.786
 7484TIP3   OH243942   1.544   2.426  14.263
 7484TIP3    H143943   1.576   2.334  14.278
 7484TIP3    H243944   1.626   2.467  14.230
 7485TIP3   OH243945   1.609   2.481  14.810
 7485TIP3    H143946   1.705   2.504  14.808
 7485TIP3    H243947   1.589   2.495  14.904
 7486TIP3   OH243948   1.614   2.553  15.087
 7486TIP3    H143949   1.527   2.583  15.122
 7486TIP3    H243950   1.659   2.639  15.067
 7487TIP3   OH243951   0.059   2.399  15.441
 7487TIP3    H143952   0.149   2.379  15.465
 7487TIP3    H243953   0.001   2.326  15.475
 7488TIP3   OH243954   1.841   1.958  15.623
 7488TIP3    H143955   1.877   1.891  15.561
 7488TIP3    H243956   1.855   2.040  15.573
 7489TIP3   OH243957   1.612   2.154  14.271
 7489TIP3    H143958   1.632   2.109  14.355
 7489TIP3    H243959   1.551   2.092  14.226
 7490TIP3   OH243960   0.158   2.232  14.726
 7490TIP3    H143961   0.209   2.153  14.753
 7490TIP3    H243962   0.210   2.303  14.768
 7491TIP3   OH243963   0.063   2.579  14.869
 7491TIP3    H143964   0.058   2.544  14.777
 7491TIP3    H243965   0.034   2.668  14.849
 7492TIP3   OH243966   1.795   2.168  15.459
 7492TIP3    H143967   1.701   2.194  15.453
 7492TIP3    H243968   1.800   2.114  15.379
 7493TIP3   OH243969   1.794   2.158  13.926
 7493TIP3    H143970   1.836   2.087  13.874
 7493TIP3    H243971   1.864   2.225  13.931
 7494TIP3   OH243972   0.064   2.161  14.212
 7494TIP3    H143973  -0.032   2.181  14.214
 7494TIP3    H243974   0.090   2.227  14.146
 7495TIP3   OH243975   1.499   3.656  14.433
 7495TIP3    H143976   1.567   3.625  14.371
 7495TIP3    H243977   1.552   3.706  14.497
 7496TIP3   OH243978   7.375   2.025  15.075
 7496TIP3    H143979   7.301   2.006  15.134
 7496TIP3    H243980   7.324   2.086  15.019
 7497TIP3   OH243981   0.244   3.351  15.486
 7497TIP3    H143982   0.160   3.368  15.441
 7497TIP3    H243983   0.216   3.340  15.577
 7498TIP3   OH243984   0.535   3.448  15.112
 7498TIP3    H143985   0.496   3.532  15.083
 7498TIP3    H243986   0.627   3.458  15.080
 7499TIP3   OH243987   0.966   3.589  15.403
 7499TIP3    H143988   0.982   3.555  15.495
 7499TIP3    H243989   1.055   3.620  15.377
 7500TIP3   OH243990   1.196   3.716  15.332
 7500TIP3    H143991   1.269   3.656  15.309
 7500TIP3    H243992   1.234   3.759  15.412
 7501TIP3   OH243993   1.696   1.978  15.242
 7501TIP3    H143994   1.613   2.007  15.201
 7501TIP3    H243995   1.714   1.897  15.189
 7502TIP3   OH243996   0.278   3.772  15.115
 7502TIP3    H143997   0.203   3.818  15.072
 7502TIP3    H243998   0.241   3.750  15.201
 7503TIP3   OH243999   0.524   3.730  15.019
 7503TIP3    H144000   0.435   3.743  15.059
 7503TIP3    H244001   0.518   3.789  14.941
 7504TIP3   OH244002   0.994   3.721  14.936
 7504TIP3    H144003   0.948   3.776  14.871
 7504TIP3    H244004   1.008   3.784  15.009
 7505TIP3   OH244005   1.225   3.604  15.035
 7505TIP3    H144006   1.137   3.629  15.002
 7505TIP3    H244007   1.270   3.690  15.027
 7506TIP3   OH244008   1.483   3.761  15.061
 7506TIP3    H144009   1.473   3.856  15.038
 7506TIP3    H244010   1.503   3.724  14.973
 7507TIP3   OH244011   0.218   3.636  14.804
 7507TIP3    H144012   0.216   3.593  14.892
 7507TIP3    H244013   0.300   3.600  14.766
 7508TIP3   OH244014   0.430   3.507  14.670
 7508TIP3    H144015   0.412   3.414  14.692
 7508TIP3    H244016   0.515   3.522  14.717
 7509TIP3   OH244017   0.689   3.556  14.758
 7509TIP3    H144018   0.706   3.464  14.731
 7509TIP3    H244019   0.694   3.550  14.854
 7510TIP3   OH244020   1.036   2.121  14.673
 7510TIP3    H144021   0.968   2.056  14.699
 7510TIP3    H244022   1.091   2.069  14.613
 7511TIP3   OH244023   1.549   1.927  14.681
 7511TIP3    H144024   1.611   1.985  14.629
 7511TIP3    H244025   1.462   1.962  14.656
 7512TIP3   OH244026   1.718   2.049  14.509
 7512TIP3    H144027   1.786   1.993  14.465
 7512TIP3    H244028   1.765   2.134  14.518
 7513TIP3   OH244029   0.270   1.983  14.457
 7513TIP3    H144030   0.193   1.961  14.401
 7513TIP3    H244031   0.322   1.900  14.450
 7514TIP3   OH244032   0.188   1.970  14.043
 7514TIP3    H144033   0.204   2.030  13.969
 7514TIP3    H244034   0.106   2.006  14.083
 7515TIP3   OH244035   0.722   1.976  14.435
 7515TIP3    H144036   0.812   2.013  14.430
 7515TIP3    H244037   0.716   1.955  14.528
 7516TIP3   OH244038   1.289   1.978  14.599
 7516TIP3    H144039   1.288   1.988  14.503
 7516TIP3    H244040   1.253   1.887  14.612
 7517TIP3   OH244041   1.419   1.982  14.167
 7517TIP3    H144042   1.345   2.042  14.149
 7517TIP3    H244043   1.374   1.896  14.187
 7518TIP3   OH244044   0.154   3.562  14.121
 7518TIP3    H144045   0.076   3.555  14.063
 7518TIP3    H244046   0.142   3.653  14.151
 7519TIP3   OH244047   0.334   2.155  13.878
 7519TIP3    H144048   0.388   2.091  13.827
 7519TIP3    H244049   0.399   2.183  13.945
 7520TIP3   OH244050   0.837   2.179  14.121
 7520TIP3    H144051   0.860   2.120  14.194
 7520TIP3    H244052   0.840   2.265  14.169
 7521TIP3   OH244053   1.028   3.683  13.966
 7521TIP3    H144054   1.119   3.711  13.944
 7521TIP3    H244055   1.006   3.634  13.884
 7522TIP3   OH244056   1.700   3.635  14.236
 7522TIP3    H144057   1.679   3.558  14.178
 7522TIP3    H244058   1.693   3.710  14.172
 7523TIP3   OH244059   0.258   2.039  15.406
 7523TIP3    H144060   0.225   1.957  15.446
 7523TIP3    H244061   0.352   2.035  15.437
 7524TIP3   OH244062   0.462   1.975  15.563
 7524TIP3    H144063   0.551   1.940  15.541
 7524TIP3    H244064   0.422   1.896  15.606
 7525TIP3   OH244065   0.321   3.651  13.824
 7525TIP3    H144066   0.296   3.678  13.914
 7525TIP3    H244067   0.400   3.597  13.842
 7526TIP3   OH244068   1.302   1.904  15.580
 7526TIP3    H144069   1.313   1.858  15.666
 7526TIP3    H244070   1.394   1.902  15.545
 7527TIP3   OH244071   1.623   3.509  15.448
 7527TIP3    H144072   1.543   3.495  15.392
 7527TIP3    H244073   1.612   3.604  15.468
 7528TIP3   OH244074   3.066   2.897  14.445
 7528TIP3    H144075   3.068   2.995  14.438
 7528TIP3    H244076   2.995   2.873  14.383
 7529TIP3   OH244077   2.953   2.824  14.793
 7529TIP3    H144078   2.951   2.758  14.864
 7529TIP3    H244079   2.920   2.775  14.716
 7530TIP3   OH244080   2.190   2.788  14.947
 7530TIP3    H144081   2.196   2.723  15.020
 7530TIP3    H244082   2.263   2.848  14.971
 7531TIP3   OH244083   3.323   3.118  14.621
 7531TIP3    H144084   3.280   3.046  14.669
 7531TIP3    H244085   3.324   3.189  14.687
 7532TIP3   OH244086   2.282   3.234  14.801
 7532TIP3    H144087   2.249   3.149  14.767
 7532TIP3    H244088   2.377   3.215  14.805
 7533TIP3   OH244089   1.946   2.592  14.346
 7533TIP3    H144090   1.901   2.679  14.341
 7533TIP3    H244091   1.889   2.538  14.291
 7534TIP3   OH244092   2.016   2.814  14.560
 7534TIP3    H144093   2.041   2.733  14.607
 7534TIP3    H244094   2.088   2.823  14.495
 7535TIP3   OH244095   3.034   3.633  14.644
 7535TIP3    H144096   3.099   3.563  14.616
 7535TIP3    H244097   3.014   3.602  14.733
 7536TIP3   OH244098   2.790   3.066  14.838
 7536TIP3    H144099   2.824   3.000  14.774
 7536TIP3    H244100   2.870   3.079  14.892
 7537TIP3   OH244101   3.653   2.228  14.914
 7537TIP3    H144102   3.668   2.289  14.990
 7537TIP3    H244103   3.706   2.272  14.846
 7538TIP3   OH244104   3.107   2.510  14.870
 7538TIP3    H144105   3.123   2.414  14.869
 7538TIP3    H244106   3.097   2.525  14.774
 7539TIP3   OH244107   2.421   2.318  14.592
 7539TIP3    H144108   2.428   2.403  14.546
 7539TIP3    H244109   2.378   2.261  14.525
 7540TIP3   OH244110   3.193   2.328  14.430
 7540TIP3    H144111   3.259   2.296  14.496
 7540TIP3    H244112   3.249   2.384  14.374
 7541TIP3   OH244113   2.082   2.559  14.667
 7541TIP3    H144114   2.150   2.504  14.711
 7541TIP3    H244115   2.091   2.529  14.576
 7542TIP3   OH244116   2.599   2.715  14.595
 7542TIP3    H144117   2.664   2.657  14.639
 7542TIP3    H244118   2.545   2.648  14.548
 7543TIP3   OH244119   3.697   2.371  15.140
 7543TIP3    H144120   3.632   2.445  15.131
 7543TIP3    H244121   3.699   2.359  15.236
 7544TIP3   OH244122   2.308   2.207  14.997
 7544TIP3    H144123   2.281   2.266  14.923
 7544TIP3    H244124   2.241   2.233  15.065
 7545TIP3   OH244125   3.040   3.158  14.352
 7545TIP3    H144126   3.012   3.128  14.265
 7545TIP3    H244127   3.008   3.250  14.357
 7546TIP3   OH244128   2.562   2.973  15.022
 7546TIP3    H144129   2.489   3.035  15.042
 7546TIP3    H244130   2.632   3.034  14.995
 7547TIP3   OH244131   3.372   2.261  14.629
 7547TIP3    H144132   3.351   2.184  14.683
 7547TIP3    H244133   3.440   2.305  14.684
 7548TIP3   OH244134   2.264   2.395  14.797
 7548TIP3    H144135   2.328   2.462  14.832
 7548TIP3    H244136   2.318   2.352  14.727
 7549TIP3   OH244137   2.405   3.173  15.105
 7549TIP3    H144138   2.401   3.262  15.067
 7549TIP3    H244139   2.316   3.163  15.147
 7550TIP3   OH244140   2.014   3.136  14.184
 7550TIP3    H144141   1.988   3.166  14.095
 7550TIP3    H244142   2.021   3.220  14.232
 7551TIP3   OH244143   3.376   3.301  14.858
 7551TIP3    H144144   3.279   3.311  14.871
 7551TIP3    H244145   3.403   3.393  14.839
 7552TIP3   OH244146   3.407   2.130  14.998
 7552TIP3    H144147   3.334   2.193  14.990
 7552TIP3    H244148   3.477   2.172  14.944
 7553TIP3   OH244149   2.706   1.941  14.744
 7553TIP3    H144150   2.692   1.845  14.737
 7553TIP3    H244151   2.618   1.972  14.773
 7554TIP3   OH244152   3.201   3.480  14.518
 7554TIP3    H144153   3.244   3.408  14.467
 7554TIP3    H244154   3.240   3.560  14.477
 7555TIP3   OH244155   3.321   3.273  14.369
 7555TIP3    H144156   3.292   3.202  14.309
 7555TIP3    H244157   3.325   3.224  14.453
 7556TIP3   OH244158   3.485   3.130  15.218
 7556TIP3    H144159   3.499   3.067  15.145
 7556TIP3    H244160   3.504   3.216  15.177
 7557TIP3   OH244161   2.934   2.822  14.196
 7557TIP3    H144162   2.863   2.878  14.159
 7557TIP3    H244163   3.004   2.830  14.128
 7558TIP3   OH244164   2.940   2.675  13.897
 7558TIP3    H144165   3.011   2.674  13.962
 7558TIP3    H244166   2.971   2.606  13.836
 7559TIP3   OH244167   3.672   2.762  15.024
 7559TIP3    H144168   3.606   2.834  15.029
 7559TIP3    H244169   3.720   2.785  14.942
 7560TIP3   OH244170   3.277   2.843  14.287
 7560TIP3    H144171   3.202   2.867  14.347
 7560TIP3    H244172   3.323   2.774  14.338
 7561TIP3   OH244173   3.270   2.659  15.198
 7561TIP3    H144174   3.271   2.740  15.252
 7561TIP3    H244175   3.206   2.689  15.129
 7562TIP3   OH244176   2.439   2.909  14.479
 7562TIP3    H144177   2.406   2.869  14.395
 7562TIP3    H244178   2.500   2.839  14.512
 7563TIP3   OH244179   2.572   3.249  14.747
 7563TIP3    H144180   2.569   3.193  14.668
 7563TIP3    H244181   2.650   3.211  14.793
 7564TIP3   OH244182   2.473   2.783  14.842
 7564TIP3    H144183   2.530   2.795  14.764
 7564TIP3    H244184   2.509   2.849  14.906
 7565TIP3   OH244185   3.111   3.339  14.914
 7565TIP3    H144186   3.084   3.402  14.980
 7565TIP3    H244187   3.087   3.253  14.957
 7566TIP3   OH244188   2.569   3.224  15.312
 7566TIP3    H144189   2.529   3.298  15.362
 7566TIP3    H244190   2.500   3.204  15.244
 7567TIP3   OH244191   3.164   2.761  14.055
 7567TIP3    H144192   3.221   2.778  14.134
 7567TIP3    H244193   3.208   2.811  13.982
 7568TIP3   OH244194   2.269   2.883  15.209
 7568TIP3    H144195   2.267   2.909  15.302
 7568TIP3    H244196   2.179   2.848  15.207
 7569TIP3   OH244197   2.936   3.434  14.401
 7569TIP3    H144198   2.981   3.465  14.480
 7569TIP3    H244199   2.880   3.509  14.377
 7570TIP3   OH244200   2.403   3.410  15.395
 7570TIP3    H144201   2.399   3.407  15.296
 7570TIP3    H244202   2.310   3.396  15.423
 7571TIP3   OH244203   3.536   1.935  14.041
 7571TIP3    H144204   3.442   1.948  14.068
 7571TIP3    H244205   3.558   2.019  13.999
 7572TIP3   OH244206   2.337   2.811  14.240
 7572TIP3    H144207   2.308   2.890  14.188
 7572TIP3    H244208   2.271   2.745  14.218
 7573TIP3   OH244209   3.649   3.371  13.878
 7573TIP3    H144210   3.663   3.465  13.895
 7573TIP3    H244211   3.742   3.341  13.875
 7574TIP3   OH244212   1.944   3.055  15.124
 7574TIP3    H144213   1.898   3.045  15.039
 7574TIP3    H244214   1.951   2.960  15.151
 7575TIP3   OH244215   1.922   3.327  14.807
 7575TIP3    H144216   2.017   3.315  14.805
 7575TIP3    H244217   1.913   3.408  14.859
 7576TIP3   OH244218   3.744   3.397  15.373
 7576TIP3    H144219   3.734   3.301  15.374
 7576TIP3    H244220   3.659   3.422  15.416
 7577TIP3   OH244221   2.841   3.352  15.262
 7577TIP3    H144222   2.849   3.435  15.313
 7577TIP3    H244223   2.754   3.316  15.288
 7578TIP3   OH244224   2.884   3.726  14.243
 7578TIP3    H144225   2.874   3.717  14.146
 7578TIP3    H244226   2.885   3.823  14.256
 7579TIP3   OH244227   2.248   3.613  14.423
 7579TIP3    H144228   2.262   3.572  14.511
 7579TIP3    H244229   2.163   3.573  14.399
 7580TIP3   OH244230   3.191   3.647  13.941
 7580TIP3    H144231   3.233   3.570  13.896
 7580TIP3    H244232   3.193   3.619  14.035
 7581TIP3   OH244233   3.160   3.640  14.217
 7581TIP3    H144234   3.064   3.647  14.236
 7581TIP3    H244235   3.184   3.566  14.276
 7582TIP3   OH244236   3.459   2.545  15.421
 7582TIP3    H144237   3.413   2.591  15.350
 7582TIP3    H244238   3.459   2.452  15.392
 7583TIP3   OH244239   2.171   3.192  15.226
 7583TIP3    H144240   2.196   3.144  15.309
 7583TIP3    H244241   2.088   3.144  15.201
 7584TIP3   OH244242   2.440   2.031  14.820
 7584TIP3    H144243   2.350   2.020  14.782
 7584TIP3    H244244   2.429   2.115  14.866
 7585TIP3   OH244245   2.904   2.000  15.156
 7585TIP3    H144246   2.944   1.958  15.234
 7585TIP3    H244247   2.807   1.986  15.170
 7586TIP3   OH244248   3.235   2.382  15.245
 7586TIP3    H144249   3.179   2.363  15.324
 7586TIP3    H244250   3.217   2.474  15.221
 7587TIP3   OH244251   3.309   2.865  13.829
 7587TIP3    H144252   3.311   2.844  13.733
 7587TIP3    H244253   3.396   2.908  13.839
 7588TIP3   OH244254   2.870   2.256  13.886
 7588TIP3    H144255   2.839   2.251  13.979
 7588TIP3    H244256   2.839   2.168  13.856
 7589TIP3   OH244257   2.451   2.528  14.939
 7589TIP3    H144258   2.378   2.526  15.005
 7589TIP3    H244259   2.446   2.620  14.908
 7590TIP3   OH244260   2.446   2.544  14.428
 7590TIP3    H144261   2.353   2.515  14.416
 7590TIP3    H244262   2.486   2.512  14.345
 7591TIP3   OH244263   2.999   2.591  14.308
 7591TIP3    H144264   2.958   2.673  14.272
 7591TIP3    H244265   3.068   2.576  14.242
 7592TIP3   OH244266   2.905   2.612  15.452
 7592TIP3    H144267   2.852   2.535  15.483
 7592TIP3    H244268   2.990   2.599  15.498
 7593TIP3   OH244269   3.101   2.539  14.591
 7593TIP3    H144270   3.076   2.596  14.516
 7593TIP3    H244271   3.114   2.454  14.543
 7594TIP3   OH244272   2.229   2.538  15.088
 7594TIP3    H144273   2.230   2.587  15.176
 7594TIP3    H244274   2.169   2.472  15.127
 7595TIP3   OH244275   2.553   2.295  13.797
 7595TIP3    H144276   2.508   2.252  13.873
 7595TIP3    H244277   2.481   2.336  13.748
 7596TIP3   OH244278   1.879   2.268  14.508
 7596TIP3    H144279   1.946   2.264  14.579
 7596TIP3    H244280   1.925   2.228  14.431
 7597TIP3   OH244281   2.007   2.339  14.046
 7597TIP3    H144282   2.056   2.401  13.989
 7597TIP3    H244283   1.937   2.400  14.079
 7598TIP3   OH244284   3.023   2.699  15.049
 7598TIP3    H144285   3.059   2.632  14.989
 7598TIP3    H244286   2.978   2.646  15.117
 7599TIP3   OH244287   2.702   2.295  14.531
 7599TIP3    H144288   2.609   2.297  14.561
 7599TIP3    H244289   2.752   2.282  14.613
 7600TIP3   OH244290   2.184   2.453  14.417
 7600TIP3    H144291   2.095   2.466  14.379
 7600TIP3    H244292   2.213   2.369  14.378
 7601TIP3   OH244293   2.549   2.455  14.180
 7601TIP3    H144294   2.644   2.467  14.197
 7601TIP3    H244295   2.526   2.524  14.114
 7602TIP3   OH244296   3.143   2.219  14.856
 7602TIP3    H144297   3.074   2.226  14.925
 7602TIP3    H244298   3.093   2.196  14.776
 7603TIP3   OH244299   2.418   2.574  13.939
 7603TIP3    H144300   2.365   2.536  13.867
 7603TIP3    H244301   2.501   2.594  13.892
 7604TIP3   OH244302   3.464   3.784  15.489
 7604TIP3    H144303   3.491   3.823  15.404
 7604TIP3    H244304   3.537   3.816  15.546
 7605TIP3   OH244305   2.232   3.037  15.444
 7605TIP3    H144306   2.303   3.053  15.507
 7605TIP3    H244307   2.153   3.040  15.503
 7606TIP3   OH244308   2.832   2.572  14.720
 7606TIP3    H144309   2.891   2.517  14.666
 7606TIP3    H244310   2.818   2.517  14.799
 7607TIP3   OH244311   2.333   2.186  14.364
 7607TIP3    H144312   2.302   2.094  14.361
 7607TIP3    H244313   2.412   2.181  14.308
 7608TIP3   OH244314   2.696   2.406  14.961
 7608TIP3    H144315   2.613   2.456  14.971
 7608TIP3    H244316   2.750   2.439  15.035
 7609TIP3   OH244317   2.754   3.028  14.130
 7609TIP3    H144318   2.675   2.980  14.098
 7609TIP3    H244319   2.734   3.037  14.226
 7610TIP3   OH244320   3.470   2.946  15.011
 7610TIP3    H144321   3.529   2.993  14.950
 7610TIP3    H244322   3.385   2.953  14.964
 7611TIP3   OH244323   3.138   2.310  13.949
 7611TIP3    H144324   3.043   2.324  13.935
 7611TIP3    H244325   3.171   2.396  13.983
 7612TIP3   OH244326   2.903   3.052  15.255
 7612TIP3    H144327   2.868   3.011  15.335
 7612TIP3    H244328   2.880   3.145  15.264
 7613TIP3   OH244329   3.211   2.499  14.113
 7613TIP3    H144330   3.301   2.486  14.151
 7613TIP3    H244331   3.220   2.581  14.061
 7614TIP3   OH244332   2.264   2.965  14.711
 7614TIP3    H144333   2.335   2.958  14.645
 7614TIP3    H244334   2.271   2.879  14.756
 7615TIP3   OH244335   2.965   3.175  14.034
 7615TIP3    H144336   2.931   3.259  14.071
 7615TIP3    H244337   2.891   3.113  14.055
 7616TIP3   OH244338   1.940   2.819  15.243
 7616TIP3    H144339   1.986   2.768  15.313
 7616TIP3    H244340   1.903   2.744  15.193
 7617TIP3   OH244341   2.666   2.762  15.458
 7617TIP3    H144342   2.633   2.735  15.370
 7617TIP3    H244343   2.759   2.732  15.456
 7618TIP3   OH244344   3.132   3.295  15.248
 7618TIP3    H144345   3.039   3.314  15.226
 7618TIP3    H244346   3.130   3.324  15.341
 7619TIP3   OH244347   3.702   2.515  14.088
 7619TIP3    H144348   3.644   2.484  14.016
 7619TIP3    H244349   3.709   2.609  14.061
 7620TIP3   OH244350   3.699   3.101  15.371
 7620TIP3    H144351   3.610   3.123  15.333
 7620TIP3    H244352   3.755   3.097  15.291
 7621TIP3   OH244353   3.528   3.398  14.130
 7621TIP3    H144354   3.493   3.314  14.163
 7621TIP3    H244355   3.560   3.377  14.041
 7622TIP3   OH244356   3.249   2.879  14.838
 7622TIP3    H144357   3.155   2.857  14.830
 7622TIP3    H244358   3.293   2.802  14.798
 7623TIP3   OH244359   2.502   3.312  14.449
 7623TIP3    H144360   2.553   3.392  14.428
 7623TIP3    H244361   2.414   3.335  14.417
 7624TIP3   OH244362   2.078   2.796  13.906
 7624TIP3    H144363   2.137   2.862  13.946
 7624TIP3    H244364   1.990   2.828  13.933
 7625TIP3   OH244365   2.644   3.078  14.402
 7625TIP3    H144366   2.615   3.171  14.411
 7625TIP3    H244367   2.571   3.030  14.446
 7626TIP3   OH244368   2.688   3.497  15.042
 7626TIP3    H144369   2.734   3.577  15.013
 7626TIP3    H244370   2.751   3.463  15.109
 7627TIP3   OH244371   2.512   3.578  14.356
 7627TIP3    H144372   2.415   3.592  14.367
 7627TIP3    H244373   2.547   3.662  14.391
 7628TIP3   OH244374   3.044   3.099  15.005
 7628TIP3    H144375   3.008   3.078  15.094
 7628TIP3    H244376   3.106   3.027  14.988
 7629TIP3   OH244377   3.273   3.202  13.913
 7629TIP3    H144378   3.304   3.157  13.994
 7629TIP3    H244379   3.177   3.186  13.923
 7630TIP3   OH244380   3.320   3.556  15.255
 7630TIP3    H144381   3.254   3.505  15.204
 7630TIP3    H244382   3.342   3.625  15.188
 7631TIP3   OH244383   3.721   3.640  13.937
 7631TIP3    H144384   3.793   3.705  13.920
 7631TIP3    H244385   3.650   3.701  13.967
 7632TIP3   OH244386   2.129   2.281  15.193
 7632TIP3    H144387   2.038   2.317  15.191
 7632TIP3    H244388   2.117   2.197  15.239
 7633TIP3   OH244389   3.353   3.067  14.137
 7633TIP3    H144390   3.329   2.989  14.192
 7633TIP3    H244391   3.448   3.073  14.156
 7634TIP3   OH244392   2.093   3.461  15.036
 7634TIP3    H144393   2.117   3.366  15.034
 7634TIP3    H244394   2.114   3.487  15.125
 7635TIP3   OH244395   2.685   3.311  13.761
 7635TIP3    H144396   2.699   3.233  13.704
 7635TIP3    H244397   2.647   3.268  13.840
 7636TIP3   OH244398   2.568   3.264  14.007
 7636TIP3    H144399   2.590   3.212  14.085
 7636TIP3    H244400   2.573   3.357  14.039
 7637TIP3   OH244401   2.218   2.988  14.056
 7637TIP3    H144402   2.148   3.027  14.112
 7637TIP3    H244403   2.270   3.067  14.029
 7638TIP3   OH244404   3.001   2.257  15.086
 7638TIP3    H144405   3.072   2.263  15.151
 7638TIP3    H244406   2.963   2.169  15.105
 7639TIP3   OH244407   3.078   2.216  14.196
 7639TIP3    H144408   3.101   2.264  14.113
 7639TIP3    H244409   3.135   2.259  14.260
 7640TIP3   OH244410   2.846   3.431  14.079
 7640TIP3    H144411   2.764   3.484  14.085
 7640TIP3    H244412   2.899   3.484  14.017
 7641TIP3   OH244413   2.799   2.391  14.278
 7641TIP3    H144414   2.879   2.447  14.283
 7641TIP3    H244415   2.774   2.378  14.371
 7642TIP3   OH244416   2.854   2.492  15.197
 7642TIP3    H144417   2.863   2.549  15.276
 7642TIP3    H244418   2.920   2.422  15.207
 7643TIP3   OH244419   2.886   2.097  14.369
 7643TIP3    H144420   2.853   2.162  14.434
 7643TIP3    H244421   2.954   2.151  14.323
 7644TIP3   OH244422   2.584   3.535  14.080
 7644TIP3    H144423   2.595   3.617  14.026
 7644TIP3    H244424   2.559   3.570  14.168
 7645TIP3   OH244425   2.451   2.206  14.039
 7645TIP3    H144426   2.446   2.297  14.076
 7645TIP3    H244427   2.542   2.182  14.064
 7646TIP3   OH244428   3.474   2.280  15.282
 7646TIP3    H144429   3.380   2.310  15.269
 7646TIP3    H244430   3.504   2.280  15.189
 7647TIP3   OH244431   3.334   2.658  14.685
 7647TIP3    H144432   3.252   2.615  14.656
 7647TIP3    H244433   3.381   2.589  14.736
 7648TIP3   OH244434   2.275   3.250  13.944
 7648TIP3    H144435   2.339   3.316  13.973
 7648TIP3    H244436   2.326   3.205  13.874
 7649TIP3   OH244437   2.109   2.517  13.857
 7649TIP3    H144438   2.109   2.613  13.877
 7649TIP3    H244439   2.020   2.498  13.827
 7650TIP3   OH244440   3.440   3.583  14.851
 7650TIP3    H144441   3.430   3.652  14.783
 7650TIP3    H244442   3.537   3.590  14.869
 7651TIP3   OH244443   2.191   1.996  14.729
 7651TIP3    H144444   2.169   1.999  14.633
 7651TIP3    H244445   2.147   1.913  14.756
 7652TIP3   OH244446   2.086   3.388  14.344
 7652TIP3    H144447   2.001   3.435  14.342
 7652TIP3    H244448   2.135   3.437  14.277
 7653TIP3   OH244449   2.017   3.648  15.468
 7653TIP3    H144450   2.063   3.632  15.553
 7653TIP3    H244451   1.962   3.568  15.458
 7654TIP3   OH244452   2.470   3.542  15.636
 7654TIP3    H144453   2.550   3.497  15.670
 7654TIP3    H244454   2.476   3.515  15.543
 7655TIP3   OH244455   2.886   3.496  13.774
 7655TIP3    H144456   2.818   3.430  13.801
 7655TIP3    H244457   2.959   3.438  13.750
 7656TIP3   OH244458   3.125   3.384  15.510
 7656TIP3    H144459   3.094   3.294  15.534
 7656TIP3    H244460   3.204   3.394  15.564
 7657TIP3   OH244461   3.343   3.472  13.794
 7657TIP3    H144462   3.372   3.394  13.843
 7657TIP3    H244463   3.419   3.496  13.739
 7658TIP3   OH244464   1.999   3.032  15.572
 7658TIP3    H144465   2.017   2.939  15.541
 7658TIP3    H244466   1.925   3.057  15.515
 7659TIP3   OH244467   2.433   3.066  13.778
 7659TIP3    H144468   2.446   2.988  13.834
 7659TIP3    H244469   2.506   3.053  13.714
 7660TIP3   OH244470   2.669   3.028  15.512
 7660TIP3    H144471   2.636   3.059  15.426
 7660TIP3    H244472   2.680   2.931  15.502
 7661TIP3   OH244473   2.974   3.175  13.754
 7661TIP3    H144474   2.947   3.185  13.846
 7661TIP3    H244475   2.954   3.079  13.741
 7662TIP3   OH244476   3.240   3.016  15.251
 7662TIP3    H144477   3.317   3.076  15.242
 7662TIP3    H244478   3.168   3.081  15.255
 7663TIP3   OH244479   2.076   2.773  15.546
 7663TIP3    H144480   2.117   2.690  15.505
 7663TIP3    H244481   2.057   2.745  15.635
 7664TIP3   OH244482   2.552   2.866  14.016
 7664TIP3    H144483   2.504   2.813  14.081
 7664TIP3    H244484   2.581   2.798  13.951
 7665TIP3   OH244485   2.484   2.650  15.249
 7665TIP3    H144486   2.418   2.717  15.275
 7665TIP3    H244487   2.516   2.686  15.165
 7666TIP3   OH244488   2.659   2.688  13.839
 7666TIP3    H144489   2.643   2.677  13.743
 7666TIP3    H244490   2.757   2.696  13.844
 7667TIP3   OH244491   2.985   2.904  15.582
 7667TIP3    H144492   3.081   2.905  15.570
 7667TIP3    H244493   2.969   2.828  15.639
 7668TIP3   OH244494   3.595   2.922  13.782
 7668TIP3    H144495   3.573   2.882  13.696
 7668TIP3    H244496   3.602   3.018  13.761
 7669TIP3   OH244497   2.520   2.387  15.354
 7669TIP3    H144498   2.530   2.315  15.290
 7669TIP3    H244499   2.513   2.468  15.299
 7670TIP3   OH244500   2.559   2.224  15.108
 7670TIP3    H144501   2.611   2.270  15.038
 7670TIP3    H244502   2.470   2.216  15.066
 7671TIP3   OH244503   2.715   2.771  15.133
 7671TIP3    H144504   2.790   2.755  15.074
 7671TIP3    H244505   2.679   2.855  15.100
 7672TIP3   OH244506   3.153   2.548  15.629
 7672TIP3    H144507   3.176   2.455  15.621
 7672TIP3    H244508   3.240   2.592  15.631
 7673TIP3   OH244509   3.288   2.828  15.445
 7673TIP3    H144510   3.262   2.900  15.382
 7673TIP3    H244511   3.384   2.823  15.425
 7674TIP3   OH244512   2.369   2.507  15.551
 7674TIP3    H144513   2.287   2.458  15.525
 7674TIP3    H244514   2.429   2.476  15.482
 7675TIP3   OH244515   2.638   1.968  15.150
 7675TIP3    H144516   2.623   2.064  15.138
 7675TIP3    H244517   2.563   1.932  15.099
 7676TIP3   OH244518   2.766   2.401  15.508
 7676TIP3    H144519   2.736   2.379  15.598
 7676TIP3    H244520   2.687   2.381  15.454
 7677TIP3   OH244521   3.037   2.314  15.415
 7677TIP3    H144522   2.941   2.319  15.429
 7677TIP3    H244523   3.065   2.251  15.484
 7678TIP3   OH244524   3.195   2.178  15.611
 7678TIP3    H144525   3.190   2.080  15.612
 7678TIP3    H244526   3.168   2.206  15.701
 7679TIP3   OH244527   2.177   2.302  15.521
 7679TIP3    H144528   2.201   2.230  15.459
 7679TIP3    H244529   2.167   2.257  15.606
 7680TIP3   OH244530   2.660   1.904  15.418
 7680TIP3    H144531   2.730   1.836  15.415
 7680TIP3    H244532   2.650   1.923  15.323
 7681TIP3   OH244533   2.695   2.067  15.626
 7681TIP3    H144534   2.680   2.017  15.541
 7681TIP3    H244535   2.637   2.144  15.616
 7682TIP3   OH244536   2.644   3.758  13.944
 7682TIP3    H144537   2.741   3.770  13.952
 7682TIP3    H244538   2.627   3.821  13.874
 7683TIP3   OH244539   2.001   3.219  13.891
 7683TIP3    H144540   2.097   3.227  13.912
 7683TIP3    H244541   2.006   3.152  13.819
 7684TIP3   OH244542   1.876   3.757  14.391
 7684TIP3    H144543   1.805   3.709  14.343
 7684TIP3    H244544   1.905   3.690  14.455
 7685TIP3   OH244545   1.959   3.568  14.576
 7685TIP3    H144546   1.924   3.480  14.595
 7685TIP3    H244547   1.981   3.602  14.665
 7686TIP3   OH244548   3.712   3.648  14.871
 7686TIP3    H144549   3.714   3.666  14.967
 7686TIP3    H244550   3.783   3.706  14.840
 7687TIP3   OH244551   3.670   3.608  15.165
 7687TIP3    H144552   3.622   3.531  15.128
 7687TIP3    H244553   3.721   3.564  15.235
 7688TIP3   OH244554   3.515   3.180  15.631
 7688TIP3    H144555   3.426   3.176  15.669
 7688TIP3    H244556   3.553   3.260  15.675
 7689TIP3   OH244557   3.645   3.012  14.177
 7689TIP3    H144558   3.732   3.052  14.194
 7689TIP3    H244559   3.645   2.939  14.242
 7690TIP3   OH244560   3.683   2.819  14.363
 7690TIP3    H144561   3.608   2.769  14.403
 7690TIP3    H244562   3.742   2.834  14.439
 7691TIP3   OH244563   3.658   3.091  14.861
 7691TIP3    H144564   3.741   3.054  14.826
 7691TIP3    H244565   3.672   3.187  14.845
 7692TIP3   OH244566   3.513   3.381  15.090
 7692TIP3    H144567   3.444   3.414  15.149
 7692TIP3    H244568   3.458   3.339  15.019
 7693TIP3   OH244569   3.712   2.803  14.003
 7693TIP3    H144570   3.657   2.839  13.931
 7693TIP3    H244571   3.704   2.874  14.069
 7694TIP3   OH244572   3.549   2.527  13.855
 7694TIP3    H144573   3.556   2.594  13.786
 7694TIP3    H244574   3.531   2.444  13.806
 7695TIP3   OH244575   3.464   2.668  14.420
 7695TIP3    H144576   3.449   2.572  14.417
 7695TIP3    H244577   3.429   2.692  14.507
 7696TIP3   OH244578   1.965   2.878  14.824
 7696TIP3    H144579   1.984   2.868  14.728
 7696TIP3    H244580   2.053   2.860  14.863
 7697TIP3   OH244581   3.549   2.865  15.389
 7697TIP3    H144582   3.610   2.789  15.402
 7697TIP3    H244583   3.609   2.942  15.389
 7698TIP3   OH244584   3.699   2.654  15.455
 7698TIP3    H144585   3.612   2.614  15.436
 7698TIP3    H244586   3.758   2.577  15.446
 7699TIP3   OH244587   3.473   2.272  13.768
 7699TIP3    H144588   3.533   2.230  13.833
 7699TIP3    H244589   3.387   2.229  13.786
 7700TIP3   OH244590   3.430   2.426  14.263
 7700TIP3    H144591   3.462   2.334  14.278
 7700TIP3    H244592   3.511   2.467  14.230
 7701TIP3   OH244593   3.494   2.481  14.810
 7701TIP3    H144594   3.590   2.504  14.808
 7701TIP3    H244595   3.475   2.495  14.904
 7702TIP3   OH244596   3.501   2.553  15.088
 7702TIP3    H144597   3.413   2.582  15.122
 7702TIP3    H244598   3.544   2.640  15.066
 7703TIP3   OH244599   1.925   2.404  15.438
 7703TIP3    H144600   2.020   2.390  15.458
 7703TIP3    H244601   1.882   2.324  15.472
 7704TIP3   OH244602   3.727   1.958  15.623
 7704TIP3    H144603   3.762   1.891  15.562
 7704TIP3    H244604   3.740   2.040  15.573
 7705TIP3   OH244605   3.497   2.154  14.271
 7705TIP3    H144606   3.517   2.109  14.355
 7705TIP3    H244607   3.437   2.092  14.226
 7706TIP3   OH244608   2.046   2.235  14.726
 7706TIP3    H144609   2.093   2.153  14.753
 7706TIP3    H244610   2.099   2.305  14.766
 7707TIP3   OH244611   1.874   2.535  14.829
 7707TIP3    H144612   1.931   2.511  14.753
 7707TIP3    H244613   1.919   2.616  14.858
 7708TIP3   OH244614   3.680   2.168  15.459
 7708TIP3    H144615   3.586   2.194  15.453
 7708TIP3    H244616   3.686   2.114  15.379
 7709TIP3   OH244617   3.680   2.158  13.926
 7709TIP3    H144618   3.722   2.087  13.874
 7709TIP3    H244619   3.750   2.225  13.931
 7710TIP3   OH244620   1.911   2.162  14.238
 7710TIP3    H144621   1.817   2.180  14.223
 7710TIP3    H244622   1.954   2.210  14.166
 7711TIP3   OH244623   3.385   3.657  14.433
 7711TIP3    H144624   3.453   3.625  14.371
 7711TIP3    H244625   3.437   3.706  14.497
 7712TIP3   OH244626   1.907   2.029  15.069
 7712TIP3    H144627   1.839   2.008  15.135
 7712TIP3    H244628   1.861   2.095  15.013
 7713TIP3   OH244629   2.131   3.359  15.483
 7713TIP3    H144630   2.043   3.363  15.441
 7713TIP3    H244631   2.102   3.340  15.575
 7714TIP3   OH244632   2.420   3.453  15.119
 7714TIP3    H144633   2.385   3.532  15.078
 7714TIP3    H244634   2.511   3.455  15.080
 7715TIP3   OH244635   2.850   3.589  15.404
 7715TIP3    H144636   2.867   3.554  15.494
 7715TIP3    H244637   2.940   3.619  15.378
 7716TIP3   OH244638   3.082   3.716  15.332
 7716TIP3    H144639   3.154   3.656  15.309
 7716TIP3    H244640   3.119   3.758  15.412
 7717TIP3   OH244641   3.582   1.978  15.242
 7717TIP3    H144642   3.499   2.007  15.201
 7717TIP3    H244643   3.600   1.897  15.189
 7718TIP3   OH244644   2.162   3.770  15.115
 7718TIP3    H144645   2.091   3.821  15.070
 7718TIP3    H244646   2.124   3.755  15.201
 7719TIP3   OH244647   2.408   3.729  15.020
 7719TIP3    H144648   2.319   3.745  15.056
 7719TIP3    H244649   2.404   3.787  14.941
 7720TIP3   OH244650   2.880   3.721  14.936
 7720TIP3    H144651   2.833   3.776  14.871
 7720TIP3    H244652   2.894   3.784  15.009
 7721TIP3   OH244653   3.110   3.604  15.035
 7721TIP3    H144654   3.023   3.629  15.002
 7721TIP3    H244655   3.156   3.690  15.027
 7722TIP3   OH244656   3.369   3.761  15.061
 7722TIP3    H144657   3.359   3.856  15.038
 7722TIP3    H244658   3.389   3.723  14.973
 7723TIP3   OH244659   2.107   3.637  14.806
 7723TIP3    H144660   2.099   3.591  14.892
 7723TIP3    H244661   2.188   3.600  14.766
 7724TIP3   OH244662   2.315   3.508  14.671
 7724TIP3    H144663   2.298   3.414  14.692
 7724TIP3    H244664   2.401   3.522  14.717
 7725TIP3   OH244665   2.574   3.556  14.757
 7725TIP3    H144666   2.592   3.464  14.731
 7725TIP3    H244667   2.580   3.550  14.853
 7726TIP3   OH244668   2.922   2.121  14.673
 7726TIP3    H144669   2.854   2.056  14.699
 7726TIP3    H244670   2.977   2.069  14.613
 7727TIP3   OH244671   3.435   1.927  14.681
 7727TIP3    H144672   3.497   1.985  14.629
 7727TIP3    H244673   3.347   1.962  14.656
 7728TIP3   OH244674   3.603   2.049  14.509
 7728TIP3    H144675   3.671   1.993  14.465
 7728TIP3    H244676   3.651   2.134  14.518
 7729TIP3   OH244677   2.157   1.984  14.456
 7729TIP3    H144678   2.078   1.962  14.404
 7729TIP3    H244679   2.206   1.899  14.452
 7730TIP3   OH244680   2.036   1.960  14.031
 7730TIP3    H144681   2.084   2.024  13.975
 7730TIP3    H244682   1.977   2.017  14.083
 7731TIP3   OH244683   2.608   1.976  14.435
 7731TIP3    H144684   2.698   2.013  14.430
 7731TIP3    H244685   2.601   1.955  14.528
 7732TIP3   OH244686   3.174   1.978  14.599
 7732TIP3    H144687   3.173   1.988  14.503
 7732TIP3    H244688   3.139   1.887  14.612
 7733TIP3   OH244689   3.304   1.982  14.167
 7733TIP3    H144690   3.230   2.042  14.149
 7733TIP3    H244691   3.259   1.896  14.187
 7734TIP3   OH244692   2.028   3.555  14.129
 7734TIP3    H144693   1.960   3.554  14.059
 7734TIP3    H244694   2.027   3.649  14.150
 7735TIP3   OH244695   2.220   2.154  13.879
 7735TIP3    H144696   2.272   2.091  13.827
 7735TIP3    H244697   2.286   2.185  13.944
 7736TIP3   OH244698   2.723   2.179  14.121
 7736TIP3    H144699   2.746   2.120  14.194
 7736TIP3    H244700   2.725   2.265  14.169
 7737TIP3   OH244701   2.914   3.683  13.966
 7737TIP3    H144702   3.004   3.711  13.944
 7737TIP3    H244703   2.892   3.634  13.884
 7738TIP3   OH244704   3.585   3.635  14.236
 7738TIP3    H144705   3.565   3.558  14.178
 7738TIP3    H244706   3.579   3.710  14.172
 7739TIP3   OH244707   2.147   2.037  15.402
 7739TIP3    H144708   2.111   1.958  15.446
 7739TIP3    H244709   2.239   2.035  15.437
 7740TIP3   OH244710   2.348   1.975  15.562
 7740TIP3    H144711   2.437   1.940  15.541
 7740TIP3    H244712   2.310   1.896  15.606
 7741TIP3   OH244713   2.207   3.652  13.826
 7741TIP3    H144714   2.182   3.678  13.915
 7741TIP3    H244715   2.286   3.595  13.842
 7742TIP3   OH244716   3.188   1.904  15.580
 7742TIP3    H144717   3.198   1.858  15.666
 7742TIP3    H244718   3.280   1.902  15.545
 7743TIP3   OH244719   3.509   3.509  15.446
 7743TIP3    H144720   3.428   3.495  15.392
 7743TIP3    H244721   3.498   3.604  15.468
 7744TIP3   OH244722   4.952   2.897  14.445
 7744TIP3    H144723   4.953   2.995  14.438
 7744TIP3    H244724   4.881   2.873  14.383
 7745TIP3   OH244725   4.839   2.824  14.793
 7745TIP3    H144726   4.837   2.758  14.864
 7745TIP3    H244727   4.806   2.774  14.716
 7746TIP3   OH244728   4.075   2.789  14.948
 7746TIP3    H144729   4.083   2.722  15.020
 7746TIP3    H244730   4.149   2.848  14.970
 7747TIP3   OH244731   5.209   3.118  14.621
 7747TIP3    H144732   5.166   3.046  14.669
 7747TIP3    H244733   5.210   3.189  14.687
 7748TIP3   OH244734   4.167   3.233  14.803
 7748TIP3    H144735   4.135   3.148  14.767
 7748TIP3    H244736   4.263   3.215  14.805
 7749TIP3   OH244737   3.832   2.592  14.346
 7749TIP3    H144738   3.787   2.679  14.341
 7749TIP3    H244739   3.774   2.538  14.291
 7750TIP3   OH244740   3.901   2.814  14.560
 7750TIP3    H144741   3.927   2.733  14.607
 7750TIP3    H244742   3.973   2.823  14.495
 7751TIP3   OH244743   4.920   3.633  14.644
 7751TIP3    H144744   4.984   3.563  14.616
 7751TIP3    H244745   4.899   3.602  14.732
 7752TIP3   OH244746   4.677   3.065  14.837
 7752TIP3    H144747   4.711   3.000  14.773
 7752TIP3    H244748   4.756   3.079  14.892
 7753TIP3   OH244749   5.540   2.226  14.915
 7753TIP3    H144750   5.553   2.290  14.989
 7753TIP3    H244751   5.591   2.272  14.846
 7754TIP3   OH244752   4.993   2.510  14.870
 7754TIP3    H144753   5.008   2.414  14.869
 7754TIP3    H244754   4.983   2.525  14.774
 7755TIP3   OH244755   4.306   2.318  14.593
 7755TIP3    H144756   4.314   2.403  14.546
 7755TIP3    H244757   4.264   2.261  14.525
 7756TIP3   OH244758   5.079   2.328  14.430
 7756TIP3    H144759   5.145   2.296  14.496
 7756TIP3    H244760   5.134   2.384  14.374
 7757TIP3   OH244761   3.968   2.559  14.667
 7757TIP3    H144762   4.035   2.504  14.711
 7757TIP3    H244763   3.976   2.529  14.576
 7758TIP3   OH244764   4.484   2.715  14.595
 7758TIP3    H144765   4.549   2.657  14.639
 7758TIP3    H244766   4.430   2.648  14.548
 7759TIP3   OH244767   5.584   2.373  15.140
 7759TIP3    H144768   5.518   2.445  15.131
 7759TIP3    H244769   5.585   2.359  15.236
 7760TIP3   OH244770   4.194   2.208  14.998
 7760TIP3    H144771   4.167   2.265  14.922
 7760TIP3    H244772   4.125   2.232  15.065
 7761TIP3   OH244773   4.926   3.157  14.352
 7761TIP3    H144774   4.897   3.129  14.265
 7761TIP3    H244775   4.894   3.250  14.357
 7762TIP3   OH244776   4.447   2.973  15.023
 7762TIP3    H144777   4.375   3.037  15.041
 7762TIP3    H244778   4.518   3.033  14.994
 7763TIP3   OH244779   5.258   2.261  14.629
 7763TIP3    H144780   5.236   2.185  14.682
 7763TIP3    H244781   5.325   2.305  14.684
 7764TIP3   OH244782   4.150   2.395  14.798
 7764TIP3    H144783   4.214   2.463  14.831
 7764TIP3    H244784   4.203   2.352  14.727
 7765TIP3   OH244785   4.291   3.172  15.104
 7765TIP3    H144786   4.287   3.263  15.069
 7765TIP3    H244787   4.202   3.165  15.148
 7766TIP3   OH244788   3.900   3.136  14.184
 7766TIP3    H144789   3.874   3.166  14.095
 7766TIP3    H244790   3.906   3.220  14.232
 7767TIP3   OH244791   5.261   3.301  14.858
 7767TIP3    H144792   5.165   3.311  14.871
 7767TIP3    H244793   5.288   3.393  14.839
 7768TIP3   OH244794   5.293   2.129  14.996
 7768TIP3    H144795   5.220   2.193  14.991
 7768TIP3    H244796   5.362   2.174  14.944
 7769TIP3   OH244797   4.591   1.941  14.744
 7769TIP3    H144798   4.578   1.845  14.737
 7769TIP3    H244799   4.503   1.972  14.773
 7770TIP3   OH244800   5.087   3.480  14.518
 7770TIP3    H144801   5.130   3.408  14.467
 7770TIP3    H244802   5.126   3.560  14.477
 7771TIP3   OH244803   5.206   3.273  14.369
 7771TIP3    H144804   5.177   3.202  14.309
 7771TIP3    H244805   5.211   3.224  14.453
 7772TIP3   OH244806   5.370   3.130  15.218
 7772TIP3    H144807   5.385   3.067  15.145
 7772TIP3    H244808   5.389   3.216  15.177
 7773TIP3   OH244809   4.819   2.822  14.196
 7773TIP3    H144810   4.749   2.878  14.159
 7773TIP3    H244811   4.889   2.830  14.128
 7774TIP3   OH244812   4.825   2.675  13.897
 7774TIP3    H144813   4.896   2.674  13.962
 7774TIP3    H244814   4.857   2.606  13.836
 7775TIP3   OH244815   5.558   2.762  15.024
 7775TIP3    H144816   5.491   2.834  15.029
 7775TIP3    H244817   5.605   2.785  14.942
 7776TIP3   OH244818   5.163   2.843  14.287
 7776TIP3    H144819   5.088   2.867  14.347
 7776TIP3    H244820   5.209   2.774  14.338
 7777TIP3   OH244821   5.155   2.659  15.198
 7777TIP3    H144822   5.157   2.740  15.252
 7777TIP3    H244823   5.092   2.689  15.129
 7778TIP3   OH244824   4.325   2.909  14.478
 7778TIP3    H144825   4.292   2.869  14.394
 7778TIP3    H244826   4.386   2.839  14.512
 7779TIP3   OH244827   4.458   3.248  14.747
 7779TIP3    H144828   4.455   3.193  14.667
 7779TIP3    H244829   4.535   3.212  14.793
 7780TIP3   OH244830   4.359   2.783  14.843
 7780TIP3    H144831   4.415   2.794  14.764
 7780TIP3    H244832   4.395   2.849  14.906
 7781TIP3   OH244833   4.997   3.339  14.914
 7781TIP3    H144834   4.969   3.402  14.980
 7781TIP3    H244835   4.973   3.253  14.957
 7782TIP3   OH244836   4.452   3.225  15.314
 7782TIP3    H144837   4.414   3.301  15.362
 7782TIP3    H244838   4.385   3.207  15.244
 7783TIP3   OH244839   5.049   2.761  14.055
 7783TIP3    H144840   5.106   2.778  14.134
 7783TIP3    H244841   5.093   2.811  13.982
 7784TIP3   OH244842   4.146   2.842  15.232
 7784TIP3    H144843   4.150   2.909  15.303
 7784TIP3    H244844   4.053   2.852  15.207
 7785TIP3   OH244845   4.821   3.434  14.400
 7785TIP3    H144846   4.866   3.465  14.480
 7785TIP3    H244847   4.764   3.509  14.377
 7786TIP3   OH244848   4.276   3.430  15.389
 7786TIP3    H144849   4.272   3.419  15.293
 7786TIP3    H244850   4.183   3.418  15.415
 7787TIP3   OH244851   5.422   1.935  14.041
 7787TIP3    H144852   5.328   1.948  14.068
 7787TIP3    H244853   5.443   2.019  13.999
 7788TIP3   OH244854   4.222   2.811  14.240
 7788TIP3    H144855   4.193   2.890  14.188
 7788TIP3    H244856   4.156   2.745  14.218
 7789TIP3   OH244857   5.534   3.371  13.878
 7789TIP3    H144858   5.549   3.465  13.895
 7789TIP3    H244859   5.627   3.341  13.875
 7790TIP3   OH244860   3.831   3.053  15.126
 7790TIP3    H144861   3.785   3.045  15.041
 7790TIP3    H244862   3.836   2.958  15.150
 7791TIP3   OH244863   3.807   3.327  14.807
 7791TIP3    H144864   3.903   3.315  14.805
 7791TIP3    H244865   3.798   3.408  14.859
 7792TIP3   OH244866   5.630   3.397  15.373
 7792TIP3    H144867   5.620   3.301  15.374
 7792TIP3    H244868   5.544   3.422  15.416
 7793TIP3   OH244869   4.726   3.352  15.262
 7793TIP3    H144870   4.733   3.436  15.313
 7793TIP3    H244871   4.639   3.317  15.288
 7794TIP3   OH244872   4.774   3.727  14.242
 7794TIP3    H144873   4.757   3.717  14.147
 7794TIP3    H244874   4.769   3.823  14.256
 7795TIP3   OH244875   4.130   3.614  14.426
 7795TIP3    H144876   4.149   3.571  14.511
 7795TIP3    H244877   4.049   3.572  14.398
 7796TIP3   OH244878   5.076   3.647  13.941
 7796TIP3    H144879   5.119   3.570  13.896
 7796TIP3    H244880   5.078   3.619  14.035
 7797TIP3   OH244881   5.046   3.640  14.218
 7797TIP3    H144882   4.950   3.647  14.236
 7797TIP3    H244883   5.070   3.566  14.276
 7798TIP3   OH244884   5.345   2.545  15.421
 7798TIP3    H144885   5.299   2.591  15.350
 7798TIP3    H244886   5.345   2.453  15.392
 7799TIP3   OH244887   4.059   3.185  15.223
 7799TIP3    H144888   4.081   3.147  15.311
 7799TIP3    H244889   3.972   3.145  15.202
 7800TIP3   OH244890   4.325   2.031  14.820
 7800TIP3    H144891   4.235   2.020  14.782
 7800TIP3    H244892   4.315   2.115  14.866
 7801TIP3   OH244893   4.790   2.000  15.156
 7801TIP3    H144894   4.830   1.958  15.234
 7801TIP3    H244895   4.693   1.986  15.170
 7802TIP3   OH244896   5.120   2.382  15.245
 7802TIP3    H144897   5.065   2.363  15.324
 7802TIP3    H244898   5.102   2.474  15.221
 7803TIP3   OH244899   5.195   2.865  13.829
 7803TIP3    H144900   5.197   2.844  13.733
 7803TIP3    H244901   5.281   2.908  13.839
 7804TIP3   OH244902   4.755   2.256  13.886
 7804TIP3    H144903   4.725   2.251  13.979
 7804TIP3    H244904   4.725   2.168  13.856
 7805TIP3   OH244905   4.335   2.528  14.940
 7805TIP3    H144906   4.264   2.526  15.006
 7805TIP3    H244907   4.332   2.620  14.907
 7806TIP3   OH244908   4.332   2.544  14.428
 7806TIP3    H144909   4.239   2.516  14.416
 7806TIP3    H244910   4.372   2.512  14.345
 7807TIP3   OH244911   4.884   2.591  14.308
 7807TIP3    H144912   4.844   2.673  14.272
 7807TIP3    H244913   4.954   2.576  14.242
 7808TIP3   OH244914   4.791   2.612  15.452
 7808TIP3    H144915   4.738   2.535  15.483
 7808TIP3    H244916   4.875   2.599  15.498
 7809TIP3   OH244917   4.987   2.539  14.591
 7809TIP3    H144918   4.961   2.596  14.516
 7809TIP3    H244919   4.999   2.454  14.543
 7810TIP3   OH244920   4.100   2.557  15.114
 7810TIP3    H144921   4.104   2.597  15.202
 7810TIP3    H244922   4.055   2.473  15.131
 7811TIP3   OH244923   4.439   2.295  13.797
 7811TIP3    H144924   4.394   2.252  13.873
 7811TIP3    H244925   4.367   2.336  13.748
 7812TIP3   OH244926   3.765   2.268  14.508
 7812TIP3    H144927   3.832   2.264  14.579
 7812TIP3    H244928   3.810   2.228  14.431
 7813TIP3   OH244929   3.892   2.339  14.046
 7813TIP3    H144930   3.941   2.401  13.989
 7813TIP3    H244931   3.822   2.400  14.079
 7814TIP3   OH244932   4.909   2.699  15.049
 7814TIP3    H144933   4.945   2.632  14.989
 7814TIP3    H244934   4.863   2.646  15.117
 7815TIP3   OH244935   4.588   2.295  14.531
 7815TIP3    H144936   4.495   2.297  14.561
 7815TIP3    H244937   4.637   2.282  14.613
 7816TIP3   OH244938   4.070   2.453  14.417
 7816TIP3    H144939   3.981   2.466  14.379
 7816TIP3    H244940   4.099   2.369  14.378
 7817TIP3   OH244941   4.435   2.455  14.180
 7817TIP3    H144942   4.530   2.467  14.197
 7817TIP3    H244943   4.411   2.524  14.114
 7818TIP3   OH244944   5.029   2.219  14.856
 7818TIP3    H144945   4.960   2.226  14.925
 7818TIP3    H244946   4.978   2.196  14.776
 7819TIP3   OH244947   4.304   2.574  13.939
 7819TIP3    H144948   4.250   2.536  13.867
 7819TIP3    H244949   4.386   2.594  13.892
 7820TIP3   OH244950   5.351   3.783  15.488
 7820TIP3    H144951   5.377   3.823  15.403
 7820TIP3    H244952   5.421   3.816  15.547
 7821TIP3   OH244953   4.118   3.030  15.445
 7821TIP3    H144954   4.189   3.056  15.506
 7821TIP3    H244955   4.039   3.043  15.502
 7822TIP3   OH244956   4.717   2.572  14.720
 7822TIP3    H144957   4.776   2.517  14.666
 7822TIP3    H244958   4.703   2.517  14.799
 7823TIP3   OH244959   4.218   2.186  14.364
 7823TIP3    H144960   4.188   2.094  14.361
 7823TIP3    H244961   4.297   2.181  14.308
 7824TIP3   OH244962   4.581   2.406  14.961
 7824TIP3    H144963   4.498   2.456  14.971
 7824TIP3    H244964   4.636   2.439  15.035
 7825TIP3   OH244965   4.640   3.028  14.131
 7825TIP3    H144966   4.561   2.980  14.098
 7825TIP3    H244967   4.619   3.038  14.226
 7826TIP3   OH244968   5.356   2.946  15.011
 7826TIP3    H144969   5.414   2.993  14.950
 7826TIP3    H244970   5.271   2.953  14.964
 7827TIP3   OH244971   5.024   2.310  13.949
 7827TIP3    H144972   4.929   2.324  13.935
 7827TIP3    H244973   5.056   2.396  13.983
 7828TIP3   OH244974   4.789   3.052  15.255
 7828TIP3    H144975   4.754   3.011  15.335
 7828TIP3    H244976   4.765   3.145  15.264
 7829TIP3   OH244977   5.097   2.499  14.113
 7829TIP3    H144978   5.186   2.486  14.151
 7829TIP3    H244979   5.105   2.581  14.061
 7830TIP3   OH244980   4.150   2.965  14.711
 7830TIP3    H144981   4.221   2.958  14.644
 7830TIP3    H244982   4.157   2.879  14.756
 7831TIP3   OH244983   4.850   3.174  14.034
 7831TIP3    H144984   4.817   3.259  14.070
 7831TIP3    H244985   4.777   3.113  14.055
 7832TIP3   OH244986   3.849   2.807  15.238
 7832TIP3    H144987   3.869   2.763  15.323
 7832TIP3    H244988   3.788   2.745  15.195
 7833TIP3   OH244989   4.550   2.762  15.458
 7833TIP3    H144990   4.520   2.736  15.370
 7833TIP3    H244991   4.644   2.733  15.456
 7834TIP3   OH244992   5.017   3.295  15.249
 7834TIP3    H144993   4.925   3.314  15.226
 7834TIP3    H244994   5.016   3.324  15.342
 7835TIP3   OH244995   5.587   2.515  14.088
 7835TIP3    H144996   5.530   2.484  14.016
 7835TIP3    H244997   5.595   2.609  14.061
 7836TIP3   OH244998   5.585   3.100  15.371
 7836TIP3    H144999   5.496   3.123  15.333
 7836TIP3    H245000   5.641   3.097  15.291
 7837TIP3   OH245001   5.413   3.398  14.130
 7837TIP3    H145002   5.379   3.314  14.163
 7837TIP3    H245003   5.446   3.377  14.041
 7838TIP3   OH245004   5.135   2.879  14.838
 7838TIP3    H145005   5.041   2.857  14.830
 7838TIP3    H245006   5.178   2.802  14.798
 7839TIP3   OH245007   4.388   3.308  14.448
 7839TIP3    H145008   4.436   3.392  14.430
 7839TIP3    H245009   4.300   3.336  14.417
 7840TIP3   OH245010   3.964   2.796  13.906
 7840TIP3    H145011   4.023   2.862  13.946
 7840TIP3    H245012   3.875   2.828  13.933
 7841TIP3   OH245013   4.530   3.078  14.402
 7841TIP3    H145014   4.500   3.171  14.411
 7841TIP3    H245015   4.456   3.030  14.446
 7842TIP3   OH245016   4.575   3.496  15.040
 7842TIP3    H145017   4.619   3.578  15.014
 7842TIP3    H245018   4.636   3.463  15.110
 7843TIP3   OH245019   4.405   3.567  14.407
 7843TIP3    H145020   4.315   3.585  14.368
 7843TIP3    H245021   4.435   3.657  14.390
 7844TIP3   OH245022   4.930   3.099  15.005
 7844TIP3    H145023   4.893   3.078  15.094
 7844TIP3    H245024   4.992   3.027  14.988
 7845TIP3   OH245025   5.159   3.202  13.913
 7845TIP3    H145026   5.189   3.157  13.994
 7845TIP3    H245027   5.063   3.186  13.923
 7846TIP3   OH245028   5.206   3.556  15.255
 7846TIP3    H145029   5.140   3.505  15.204
 7846TIP3    H245030   5.227   3.625  15.188
 7847TIP3   OH245031   5.607   3.640  13.937
 7847TIP3    H145032   5.677   3.705  13.919
 7847TIP3    H245033   5.536   3.701  13.967
 7848TIP3   OH245034   4.014   2.281  15.193
 7848TIP3    H145035   3.923   2.315  15.189
 7848TIP3    H245036   4.003   2.196  15.238
 7849TIP3   OH245037   5.238   3.067  14.137
 7849TIP3    H145038   5.215   2.989  14.192
 7849TIP3    H245039   5.333   3.073  14.156
 7850TIP3   OH245040   3.977   3.460  15.036
 7850TIP3    H145041   4.004   3.367  15.036
 7850TIP3    H245042   4.002   3.488  15.125
 7851TIP3   OH245043   4.570   3.311  13.761
 7851TIP3    H145044   4.585   3.233  13.704
 7851TIP3    H245045   4.532   3.269  13.841
 7852TIP3   OH245046   4.453   3.261  14.006
 7852TIP3    H145047   4.475   3.213  14.086
 7852TIP3    H245048   4.459   3.356  14.036
 7853TIP3   OH245049   4.104   2.988  14.056
 7853TIP3    H145050   4.034   3.027  14.112
 7853TIP3    H245051   4.156   3.067  14.029
 7854TIP3   OH245052   4.887   2.257  15.086
 7854TIP3    H145053   4.958   2.263  15.151
 7854TIP3    H245054   4.849   2.169  15.105
 7855TIP3   OH245055   4.963   2.216  14.196
 7855TIP3    H145056   4.986   2.264  14.113
 7855TIP3    H245057   5.020   2.259  14.260
 7856TIP3   OH245058   4.736   3.430  14.080
 7856TIP3    H145059   4.651   3.481  14.084
 7856TIP3    H245060   4.785   3.485  14.017
 7857TIP3   OH245061   4.685   2.391  14.278
 7857TIP3    H145062   4.765   2.447  14.283
 7857TIP3    H245063   4.659   2.378  14.371
 7858TIP3   OH245064   4.740   2.492  15.197
 7858TIP3    H145065   4.749   2.549  15.276
 7858TIP3    H245066   4.806   2.422  15.207
 7859TIP3   OH245067   4.771   2.097  14.369
 7859TIP3    H145068   4.738   2.162  14.434
 7859TIP3    H245069   4.839   2.151  14.323
 7860TIP3   OH245070   4.494   3.518  14.064
 7860TIP3    H145071   4.481   3.607  14.023
 7860TIP3    H245072   4.460   3.550  14.150
 7861TIP3   OH245073   4.336   2.206  14.039
 7861TIP3    H145074   4.331   2.297  14.076
 7861TIP3    H245075   4.428   2.182  14.064
 7862TIP3   OH245076   5.359   2.278  15.281
 7862TIP3    H145077   5.266   2.310  15.269
 7862TIP3    H245078   5.390   2.281  15.189
 7863TIP3   OH245079   5.219   2.658  14.685
 7863TIP3    H145080   5.137   2.615  14.656
 7863TIP3    H245081   5.266   2.589  14.736
 7864TIP3   OH245082   4.160   3.251  13.944
 7864TIP3    H145083   4.225   3.317  13.974
 7864TIP3    H245084   4.212   3.206  13.874
 7865TIP3   OH245085   3.995   2.517  13.857
 7865TIP3    H145086   3.994   2.613  13.877
 7865TIP3    H245087   3.906   2.498  13.827
 7866TIP3   OH245088   5.326   3.583  14.851
 7866TIP3    H145089   5.315   3.652  14.783
 7866TIP3    H245090   5.422   3.590  14.869
 7867TIP3   OH245091   4.076   1.996  14.729
 7867TIP3    H145092   4.055   1.999  14.633
 7867TIP3    H245093   4.033   1.913  14.756
 7868TIP3   OH245094   3.971   3.387  14.343
 7868TIP3    H145095   3.888   3.436  14.341
 7868TIP3    H245096   4.022   3.438  14.278
 7869TIP3   OH245097   3.894   3.653  15.474
 7869TIP3    H145098   3.952   3.632  15.549
 7869TIP3    H245099   3.850   3.568  15.456
 7870TIP3   OH245100   4.357   3.542  15.637
 7870TIP3    H145101   4.436   3.496  15.668
 7870TIP3    H245102   4.357   3.518  15.542
 7871TIP3   OH245103   4.771   3.496  13.774
 7871TIP3    H145104   4.703   3.431  13.801
 7871TIP3    H245105   4.844   3.438  13.750
 7872TIP3   OH245106   5.012   3.382  15.506
 7872TIP3    H145107   4.979   3.295  15.535
 7872TIP3    H245108   5.088   3.395  15.566
 7873TIP3   OH245109   5.228   3.472  13.794
 7873TIP3    H145110   5.258   3.394  13.843
 7873TIP3    H245111   5.304   3.496  13.739
 7874TIP3   OH245112   3.885   3.030  15.572
 7874TIP3    H145113   3.902   2.939  15.540
 7874TIP3    H245114   3.810   3.058  15.516
 7875TIP3   OH245115   4.318   3.066  13.778
 7875TIP3    H145116   4.332   2.989  13.835
 7875TIP3    H245117   4.392   3.054  13.715
 7876TIP3   OH245118   4.554   3.028  15.512
 7876TIP3    H145119   4.521   3.059  15.426
 7876TIP3    H245120   4.565   2.931  15.502
 7877TIP3   OH245121   4.861   3.174  13.753
 7877TIP3    H145122   4.833   3.185  13.846
 7877TIP3    H245123   4.840   3.078  13.741
 7878TIP3   OH245124   5.125   3.016  15.251
 7878TIP3    H145125   5.203   3.076  15.243
 7878TIP3    H245126   5.054   3.081  15.255
 7879TIP3   OH245127   3.973   2.753  15.511
 7879TIP3    H145128   4.015   2.667  15.501
 7879TIP3    H245129   3.950   2.753  15.606
 7880TIP3   OH245130   4.438   2.866  14.016
 7880TIP3    H145131   4.390   2.813  14.081
 7880TIP3    H245132   4.466   2.798  13.951
 7881TIP3   OH245133   4.366   2.649  15.248
 7881TIP3    H145134   4.305   2.720  15.274
 7881TIP3    H245135   4.403   2.685  15.166
 7882TIP3   OH245136   4.545   2.688  13.839
 7882TIP3    H145137   4.529   2.677  13.743
 7882TIP3    H245138   4.643   2.696  13.844
 7883TIP3   OH245139   4.871   2.904  15.582
 7883TIP3    H145140   4.966   2.905  15.570
 7883TIP3    H245141   4.855   2.828  15.639
 7884TIP3   OH245142   5.481   2.922  13.782
 7884TIP3    H145143   5.458   2.882  13.696
 7884TIP3    H245144   5.488   3.018  13.761
 7885TIP3   OH245145   4.405   2.387  15.354
 7885TIP3    H145146   4.417   2.314  15.290
 7885TIP3    H245147   4.401   2.467  15.298
 7886TIP3   OH245148   4.445   2.224  15.108
 7886TIP3    H145149   4.497   2.270  15.038
 7886TIP3    H245150   4.356   2.215  15.066
 7887TIP3   OH245151   4.600   2.771  15.133
 7887TIP3    H145152   4.675   2.755  15.074
 7887TIP3    H245153   4.565   2.855  15.100
 7888TIP3   OH245154   5.039   2.548  15.629
 7888TIP3    H145155   5.062   2.455  15.621
 7888TIP3    H245156   5.126   2.592  15.631
 7889TIP3   OH245157   5.173   2.828  15.445
 7889TIP3    H145158   5.148   2.900  15.383
 7889TIP3    H245159   5.269   2.823  15.425
 7890TIP3   OH245160   4.252   2.510  15.547
 7890TIP3    H145161   4.174   2.454  15.527
 7890TIP3    H245162   4.317   2.475  15.483
 7891TIP3   OH245163   4.524   1.968  15.150
 7891TIP3    H145164   4.509   2.064  15.138
 7891TIP3    H245165   4.449   1.931  15.099
 7892TIP3   OH245166   4.652   2.401  15.508
 7892TIP3    H145167   4.622   2.379  15.598
 7892TIP3    H245168   4.572   2.381  15.454
 7893TIP3   OH245169   4.923   2.314  15.415
 7893TIP3    H145170   4.827   2.319  15.429
 7893TIP3    H245171   4.951   2.251  15.484
 7894TIP3   OH245172   5.080   2.178  15.611
 7894TIP3    H145173   5.076   2.080  15.612
 7894TIP3    H245174   5.054   2.206  15.701
 7895TIP3   OH245175   4.063   2.303  15.520
 7895TIP3    H145176   4.086   2.230  15.460
 7895TIP3    H245177   4.053   2.258  15.606
 7896TIP3   OH245178   4.546   1.904  15.418
 7896TIP3    H145179   4.615   1.835  15.414
 7896TIP3    H245180   4.535   1.923  15.323
 7897TIP3   OH245181   4.581   2.067  15.626
 7897TIP3    H145182   4.566   2.017  15.541
 7897TIP3    H245183   4.522   2.144  15.616
 7898TIP3   OH245184   4.533   3.756  13.939
 7898TIP3    H145185   4.627   3.771  13.953
 7898TIP3    H245186   4.512   3.823  13.875
 7899TIP3   OH245187   3.886   3.218  13.891
 7899TIP3    H145188   3.982   3.226  13.912
 7899TIP3    H245189   3.891   3.152  13.819
 7900TIP3   OH245190   3.761   3.757  14.391
 7900TIP3    H145191   3.691   3.708  14.343
 7900TIP3    H245192   3.792   3.690  14.455
 7901TIP3   OH245193   3.844   3.568  14.576
 7901TIP3    H145194   3.810   3.480  14.595
 7901TIP3    H245195   3.869   3.601  14.664
 7902TIP3   OH245196   5.598   3.648  14.871
 7902TIP3    H145197   5.600   3.666  14.967
 7902TIP3    H245198   5.668   3.706  14.840
 7903TIP3   OH245199   5.556   3.608  15.165
 7903TIP3    H145200   5.508   3.531  15.128
 7903TIP3    H245201   5.607   3.564  15.235
 7904TIP3   OH245202   5.401   3.180  15.631
 7904TIP3    H145203   5.311   3.176  15.670
 7904TIP3    H245204   5.437   3.260  15.676
 7905TIP3   OH245205   5.531   3.012  14.177
 7905TIP3    H145206   5.617   3.052  14.194
 7905TIP3    H245207   5.531   2.939  14.242
 7906TIP3   OH245208   5.568   2.819  14.363
 7906TIP3    H145209   5.494   2.769  14.403
 7906TIP3    H245210   5.628   2.835  14.439
 7907TIP3   OH245211   5.544   3.091  14.861
 7907TIP3    H145212   5.627   3.054  14.826
 7907TIP3    H245213   5.558   3.187  14.845
 7908TIP3   OH245214   5.398   3.381  15.090
 7908TIP3    H145215   5.329   3.414  15.149
 7908TIP3    H245216   5.343   3.339  15.019
 7909TIP3   OH245217   5.598   2.803  14.003
 7909TIP3    H145218   5.542   2.839  13.931
 7909TIP3    H245219   5.590   2.874  14.069
 7910TIP3   OH245220   5.435   2.527  13.855
 7910TIP3    H145221   5.442   2.594  13.786
 7910TIP3    H245222   5.417   2.444  13.806
 7911TIP3   OH245223   5.349   2.668  14.420
 7911TIP3    H145224   5.334   2.572  14.417
 7911TIP3    H245225   5.315   2.692  14.507
 7912TIP3   OH245226   3.850   2.876  14.825
 7912TIP3    H145227   3.869   2.868  14.729
 7912TIP3    H245228   3.939   2.860  14.862
 7913TIP3   OH245229   5.434   2.864  15.388
 7913TIP3    H145230   5.496   2.789  15.402
 7913TIP3    H245231   5.494   2.942  15.389
 7914TIP3   OH245232   5.585   2.654  15.455
 7914TIP3    H145233   5.497   2.614  15.436
 7914TIP3    H245234   5.643   2.577  15.446
 7915TIP3   OH245235   5.359   2.272  13.768
 7915TIP3    H145236   5.418   2.230  13.833
 7915TIP3    H245237   5.273   2.229  13.786
 7916TIP3   OH245238   5.316   2.426  14.263
 7916TIP3    H145239   5.347   2.334  14.278
 7916TIP3    H245240   5.397   2.467  14.230
 7917TIP3   OH245241   5.380   2.480  14.810
 7917TIP3    H145242   5.476   2.504  14.808
 7917TIP3    H245243   5.360   2.495  14.904
 7918TIP3   OH245244   5.387   2.553  15.088
 7918TIP3    H145245   5.299   2.583  15.122
 7918TIP3    H245246   5.430   2.640  15.066
 7919TIP3   OH245247   3.811   2.405  15.438
 7919TIP3    H145248   3.905   2.387  15.460
 7919TIP3    H245249   3.766   2.324  15.472
 7920TIP3   OH245250   5.612   1.958  15.623
 7920TIP3    H145251   5.648   1.892  15.563
 7920TIP3    H245252   5.626   2.041  15.574
 7921TIP3   OH245253   5.383   2.154  14.271
 7921TIP3    H145254   5.403   2.109  14.355
 7921TIP3    H245255   5.322   2.092  14.226
 7922TIP3   OH245256   3.932   2.235  14.726
 7922TIP3    H145257   3.978   2.153  14.753
 7922TIP3    H245258   3.984   2.305  14.766
 7923TIP3   OH245259   3.761   2.534  14.831
 7923TIP3    H145260   3.816   2.511  14.753
 7923TIP3    H245261   3.805   2.616  14.858
 7924TIP3   OH245262   5.566   2.168  15.458
 7924TIP3    H145263   5.472   2.195  15.453
 7924TIP3    H245264   5.572   2.114  15.378
 7925TIP3   OH245265   5.566   2.158  13.927
 7925TIP3    H145266   5.607   2.087  13.874
 7925TIP3    H245267   5.636   2.225  13.931
 7926TIP3   OH245268   3.797   2.162  14.238
 7926TIP3    H145269   3.703   2.180  14.223
 7926TIP3    H245270   3.840   2.210  14.166
 7927TIP3   OH245271   5.271   3.657  14.433
 7927TIP3    H145272   5.339   3.625  14.370
 7927TIP3    H245273   5.323   3.706  14.497
 7928TIP3   OH245274   3.792   2.029  15.069
 7928TIP3    H145275   3.725   2.008  15.135
 7928TIP3    H245276   3.746   2.095  15.013
 7929TIP3   OH245277   4.014   3.349  15.484
 7929TIP3    H145278   3.930   3.369  15.441
 7929TIP3    H245279   3.987   3.342  15.576
 7930TIP3   OH245280   4.305   3.447  15.112
 7930TIP3    H145281   4.270   3.532  15.083
 7930TIP3    H245282   4.398   3.457  15.081
 7931TIP3   OH245283   4.737   3.589  15.404
 7931TIP3    H145284   4.754   3.555  15.495
 7931TIP3    H245285   4.827   3.620  15.377
 7932TIP3   OH245286   4.967   3.716  15.332
 7932TIP3    H145287   5.040   3.656  15.309
 7932TIP3    H245288   5.005   3.759  15.412
 7933TIP3   OH245289   5.467   1.980  15.242
 7933TIP3    H145290   5.383   2.010  15.203
 7933TIP3    H245291   5.487   1.899  15.195
 7934TIP3   OH245292   4.048   3.772  15.113
 7934TIP3    H145293   3.975   3.820  15.071
 7934TIP3    H245294   4.014   3.751  15.201
 7935TIP3   OH245295   4.295   3.730  15.019
 7935TIP3    H145296   4.206   3.743  15.058
 7935TIP3    H245297   4.289   3.788  14.940
 7936TIP3   OH245298   4.765   3.721  14.936
 7936TIP3    H145299   4.719   3.776  14.870
 7936TIP3    H245300   4.780   3.784  15.009
 7937TIP3   OH245301   4.996   3.604  15.035
 7937TIP3    H145302   4.908   3.629  15.002
 7937TIP3    H245303   5.041   3.690  15.027
 7938TIP3   OH245304   5.254   3.761  15.061
 7938TIP3    H145305   5.244   3.856  15.038
 7938TIP3    H245306   5.275   3.723  14.973
 7939TIP3   OH245307   3.990   3.637  14.806
 7939TIP3    H145308   3.985   3.591  14.893
 7939TIP3    H245309   4.072   3.601  14.766
 7940TIP3   OH245310   4.199   3.507  14.674
 7940TIP3    H145311   4.184   3.413  14.692
 7940TIP3    H245312   4.287   3.522  14.715
 7941TIP3   OH245313   4.459   3.556  14.759
 7941TIP3    H145314   4.477   3.464  14.731
 7941TIP3    H245315   4.465   3.549  14.855
 7942TIP3   OH245316   4.807   2.121  14.673
 7942TIP3    H145317   4.739   2.056  14.699
 7942TIP3    H245318   4.863   2.069  14.613
 7943TIP3   OH245319   5.322   1.927  14.685
 7943TIP3    H145320   5.382   1.985  14.629
 7943TIP3    H245321   5.234   1.961  14.656
 7944TIP3   OH245322   5.489   2.047  14.512
 7944TIP3    H145323   5.557   1.993  14.465
 7944TIP3    H245324   5.536   2.133  14.518
 7945TIP3   OH245325   4.043   1.984  14.456
 7945TIP3    H145326   3.964   1.962  14.404
 7945TIP3    H245327   4.091   1.899  14.452
 7946TIP3   OH245328   3.922   1.960  14.031
 7946TIP3    H145329   3.969   2.024  13.975
 7946TIP3    H245330   3.863   2.017  14.083
 7947TIP3   OH245331   4.493   1.976  14.435
 7947TIP3    H145332   4.583   2.013  14.430
 7947TIP3    H245333   4.487   1.955  14.528
 7948TIP3   OH245334   5.060   1.978  14.599
 7948TIP3    H145335   5.059   1.988  14.503
 7948TIP3    H245336   5.024   1.887  14.612
 7949TIP3   OH245337   5.190   1.982  14.167
 7949TIP3    H145338   5.116   2.042  14.149
 7949TIP3    H245339   5.145   1.896  14.187
 7950TIP3   OH245340   3.911   3.554  14.130
 7950TIP3    H145341   3.846   3.555  14.058
 7950TIP3    H245342   3.915   3.649  14.150
 7951TIP3   OH245343   4.105   2.154  13.879
 7951TIP3    H145344   4.158   2.091  13.827
 7951TIP3    H245345   4.172   2.185  13.944
 7952TIP3   OH245346   4.608   2.179  14.121
 7952TIP3    H145347   4.631   2.120  14.194
 7952TIP3    H245348   4.611   2.265  14.169
 7953TIP3   OH245349   4.801   3.682  13.966
 7953TIP3    H145350   4.890   3.710  13.943
 7953TIP3    H245351   4.776   3.634  13.884
 7954TIP3   OH245352   5.471   3.635  14.236
 7954TIP3    H145353   5.451   3.558  14.178
 7954TIP3    H245354   5.464   3.710  14.172
 7955TIP3   OH245355   4.032   2.037  15.402
 7955TIP3    H145356   3.996   1.958  15.446
 7955TIP3    H245357   4.125   2.034  15.437
 7956TIP3   OH245358   4.234   1.975  15.562
 7956TIP3    H145359   4.323   1.940  15.541
 7956TIP3    H245360   4.195   1.896  15.606
 7957TIP3   OH245361   4.091   3.651  13.825
 7957TIP3    H145362   4.069   3.679  13.915
 7957TIP3    H245363   4.171   3.597  13.842
 7958TIP3   OH245364   5.074   1.904  15.580
 7958TIP3    H145365   5.084   1.858  15.666
 7958TIP3    H245366   5.165   1.902  15.545
 7959TIP3   OH245367   5.394   3.509  15.448
 7959TIP3    H145368   5.314   3.495  15.392
 7959TIP3    H245369   5.383   3.604  15.468
 7960TIP3   OH245370   6.837   2.897  14.445
 7960TIP3    H145371   6.840   2.995  14.438
 7960TIP3    H245372   6.767   2.873  14.383
 7961TIP3   OH245373   6.725   2.824  14.793
 7961TIP3    H145374   6.722   2.758  14.864
 7961TIP3    H245375   6.692   2.774  14.716
 7962TIP3   OH245376   5.960   2.789  14.948
 7962TIP3    H145377   5.968   2.722  15.020
 7962TIP3    H245378   6.034   2.848  14.970
 7963TIP3   OH245379   7.094   3.117  14.621
 7963TIP3    H145380   7.052   3.045  14.670
 7963TIP3    H245381   7.098   3.187  14.688
 7964TIP3   OH245382   6.053   3.234  14.801
 7964TIP3    H145383   6.020   3.149  14.767
 7964TIP3    H245384   6.149   3.215  14.805
 7965TIP3   OH245385   5.717   2.592  14.346
 7965TIP3    H145386   5.672   2.679  14.341
 7965TIP3    H245387   5.660   2.538  14.291
 7966TIP3   OH245388   5.787   2.814  14.560
 7966TIP3    H145389   5.813   2.733  14.607
 7966TIP3    H245390   5.859   2.823  14.495
 7967TIP3   OH245391   6.808   3.633  14.644
 7967TIP3    H145392   6.871   3.562  14.616
 7967TIP3    H245393   6.786   3.602  14.732
 7968TIP3   OH245394   6.562   3.065  14.837
 7968TIP3    H145395   6.596   3.000  14.773
 7968TIP3    H245396   6.641   3.079  14.892
 7969TIP3   OH245397   6.876   2.511  14.869
 7969TIP3    H145398   6.896   2.414  14.869
 7969TIP3    H245399   6.868   2.525  14.773
 7970TIP3   OH245400   6.191   2.318  14.593
 7970TIP3    H145401   6.200   2.403  14.546
 7970TIP3    H245402   6.150   2.261  14.525
 7971TIP3   OH245403   6.965   2.330  14.430
 7971TIP3    H145404   7.031   2.295  14.496
 7971TIP3    H245405   7.021   2.383  14.373
 7972TIP3   OH245406   5.853   2.559  14.667
 7972TIP3    H145407   5.921   2.504  14.711
 7972TIP3    H245408   5.862   2.529  14.576
 7973TIP3   OH245409   6.370   2.715  14.596
 7973TIP3    H145410   6.435   2.657  14.639
 7973TIP3    H245411   6.316   2.648  14.548
 7974TIP3   OH245412   6.079   2.208  14.998
 7974TIP3    H145413   6.053   2.265  14.922
 7974TIP3    H245414   6.011   2.232  15.065
 7975TIP3   OH245415   6.810   3.157  14.352
 7975TIP3    H145416   6.783   3.128  14.264
 7975TIP3    H245417   6.779   3.250  14.357
 7976TIP3   OH245418   6.333   2.973  15.023
 7976TIP3    H145419   6.261   3.037  15.041
 7976TIP3    H245420   6.403   3.033  14.994
 7977TIP3   OH245421   7.130   2.259  14.635
 7977TIP3    H145422   7.120   2.179  14.688
 7977TIP3    H245423   7.203   2.306  14.681
 7978TIP3   OH245424   6.036   2.395  14.798
 7978TIP3    H145425   6.099   2.463  14.831
 7978TIP3    H245426   6.089   2.352  14.727
 7979TIP3   OH245427   6.176   3.172  15.104
 7979TIP3    H145428   6.172   3.263  15.069
 7979TIP3    H245429   6.088   3.165  15.148
 7980TIP3   OH245430   5.785   3.136  14.184
 7980TIP3    H145431   5.759   3.166  14.095
 7980TIP3    H245432   5.792   3.220  14.232
 7981TIP3   OH245433   7.139   3.298  14.862
 7981TIP3    H145434   7.044   3.311  14.872
 7981TIP3    H245435   7.172   3.388  14.841
 7982TIP3   OH245436   7.190   2.200  15.025
 7982TIP3    H145437   7.099   2.192  14.989
 7982TIP3    H245438   7.237   2.176  14.944
 7983TIP3   OH245439   6.477   1.941  14.744
 7983TIP3    H145440   6.464   1.845  14.737
 7983TIP3    H245441   6.389   1.972  14.773
 7984TIP3   OH245442   6.969   3.477  14.518
 7984TIP3    H145443   7.016   3.408  14.468
 7984TIP3    H245444   7.011   3.557  14.479
 7985TIP3   OH245445   7.091   3.271  14.366
 7985TIP3    H145446   7.063   3.199  14.308
 7985TIP3    H245447   7.097   3.223  14.452
 7986TIP3   OH245448   7.236   3.139  15.224
 7986TIP3    H145449   7.267   3.073  15.159
 7986TIP3    H245450   7.275   3.219  15.183
 7987TIP3   OH245451   6.705   2.822  14.196
 7987TIP3    H145452   6.634   2.878  14.159
 7987TIP3    H245453   6.775   2.830  14.128
 7988TIP3   OH245454   6.711   2.675  13.897
 7988TIP3    H145455   6.782   2.674  13.962
 7988TIP3    H245456   6.743   2.606  13.836
 7989TIP3   OH245457   7.048   2.844  14.286
 7989TIP3    H145458   6.974   2.868  14.347
 7989TIP3    H245459   7.094   2.775  14.339
 7990TIP3   OH245460   7.037   2.657  15.198
 7990TIP3    H145461   7.041   2.738  15.251
 7990TIP3    H245462   6.977   2.689  15.127
 7991TIP3   OH245463   6.210   2.909  14.478
 7991TIP3    H145464   6.178   2.869  14.394
 7991TIP3    H245465   6.271   2.839  14.512
 7992TIP3   OH245466   6.343   3.249  14.746
 7992TIP3    H145467   6.340   3.193  14.668
 7992TIP3    H245468   6.421   3.212  14.793
 7993TIP3   OH245469   6.244   2.783  14.843
 7993TIP3    H145470   6.301   2.794  14.764
 7993TIP3    H245471   6.281   2.849  14.906
 7994TIP3   OH245472   6.880   3.339  14.914
 7994TIP3    H145473   6.856   3.402  14.981
 7994TIP3    H245474   6.859   3.253  14.958
 7995TIP3   OH245475   6.338   3.225  15.314
 7995TIP3    H145476   6.300   3.301  15.362
 7995TIP3    H245477   6.270   3.207  15.244
 7996TIP3   OH245478   6.936   2.760  14.054
 7996TIP3    H145479   6.991   2.779  14.134
 7996TIP3    H245480   6.978   2.810  13.981
 7997TIP3   OH245481   6.031   2.842  15.232
 7997TIP3    H145482   6.036   2.909  15.303
 7997TIP3    H245483   5.938   2.852  15.207
 7998TIP3   OH245484   6.707   3.434  14.401
 7998TIP3    H145485   6.751   3.464  14.481
 7998TIP3    H245486   6.651   3.509  14.377
 7999TIP3   OH245487   6.162   3.430  15.389
 7999TIP3    H145488   6.158   3.419  15.293
 7999TIP3    H245489   6.068   3.418  15.415
 8000TIP3   OH245490   7.283   1.930  14.028
 8000TIP3    H145491   7.199   1.954  14.073
 8000TIP3    H245492   7.320   2.013  13.998
 8001TIP3   OH245493   6.108   2.811  14.240
 8001TIP3    H145494   6.079   2.890  14.188
 8001TIP3    H245495   6.042   2.745  14.218
 8002TIP3   OH245496   5.717   3.053  15.126
 8002TIP3    H145497   5.670   3.045  15.041
 8002TIP3    H245498   5.722   2.958  15.150
 8003TIP3   OH245499   5.693   3.327  14.807
 8003TIP3    H145500   5.788   3.315  14.805
 8003TIP3    H245501   5.684   3.408  14.859
 8004TIP3   OH245502   6.612   3.352  15.262
 8004TIP3    H145503   6.619   3.436  15.313
 8004TIP3    H245504   6.524   3.317  15.288
 8005TIP3   OH245505   6.656   3.727  14.243
 8005TIP3    H145506   6.645   3.717  14.146
 8005TIP3    H245507   6.657   3.823  14.256
 8006TIP3   OH245508   6.019   3.613  14.423
 8006TIP3    H145509   6.034   3.572  14.511
 8006TIP3    H245510   5.934   3.573  14.399
 8007TIP3   OH245511   6.964   3.648  13.941
 8007TIP3    H145512   7.004   3.569  13.896
 8007TIP3    H245513   6.964   3.619  14.035
 8008TIP3   OH245514   6.931   3.640  14.218
 8008TIP3    H145515   6.835   3.647  14.236
 8008TIP3    H245516   6.956   3.567  14.276
 8009TIP3   OH245517   7.204   2.555  15.428
 8009TIP3    H145518   7.184   2.593  15.343
 8009TIP3    H245519   7.236   2.464  15.399
 8010TIP3   OH245520   5.944   3.185  15.223
 8010TIP3    H145521   5.967   3.148  15.311
 8010TIP3    H245522   5.857   3.145  15.202
 8011TIP3   OH245523   6.211   2.031  14.820
 8011TIP3    H145524   6.121   2.021  14.782
 8011TIP3    H245525   6.200   2.116  14.866
 8012TIP3   OH245526   6.674   2.001  15.157
 8012TIP3    H145527   6.716   1.958  15.234
 8012TIP3    H245528   6.577   1.985  15.171
 8013TIP3   OH245529   7.004   2.382  15.246
 8013TIP3    H145530   6.950   2.364  15.326
 8013TIP3    H245531   6.988   2.475  15.222
 8014TIP3   OH245532   7.081   2.862  13.828
 8014TIP3    H145533   7.083   2.842  13.731
 8014TIP3    H245534   7.164   2.908  13.838
 8015TIP3   OH245535   6.641   2.256  13.886
 8015TIP3    H145536   6.610   2.251  13.978
 8015TIP3    H245537   6.610   2.168  13.856
 8016TIP3   OH245538   6.221   2.528  14.940
 8016TIP3    H145539   6.149   2.526  15.006
 8016TIP3    H245540   6.218   2.620  14.907
 8017TIP3   OH245541   6.217   2.544  14.428
 8017TIP3    H145542   6.125   2.516  14.416
 8017TIP3    H245543   6.257   2.512  14.345
 8018TIP3   OH245544   6.771   2.591  14.307
 8018TIP3    H145545   6.730   2.673  14.272
 8018TIP3    H245546   6.841   2.575  14.242
 8019TIP3   OH245547   6.677   2.612  15.452
 8019TIP3    H145548   6.624   2.535  15.483
 8019TIP3    H245549   6.761   2.599  15.498
 8020TIP3   OH245550   6.873   2.540  14.591
 8020TIP3    H145551   6.848   2.596  14.516
 8020TIP3    H245552   6.884   2.455  14.545
 8021TIP3   OH245553   5.986   2.557  15.114
 8021TIP3    H145554   5.990   2.597  15.202
 8021TIP3    H245555   5.940   2.473  15.131
 8022TIP3   OH245556   6.324   2.295  13.797
 8022TIP3    H145557   6.279   2.252  13.873
 8022TIP3    H245558   6.252   2.336  13.748
 8023TIP3   OH245559   5.650   2.268  14.508
 8023TIP3    H145560   5.717   2.264  14.579
 8023TIP3    H245561   5.696   2.228  14.431
 8024TIP3   OH245562   5.778   2.339  14.046
 8024TIP3    H145563   5.827   2.401  13.989
 8024TIP3    H245564   5.708   2.400  14.078
 8025TIP3   OH245565   6.795   2.699  15.049
 8025TIP3    H145566   6.832   2.631  14.989
 8025TIP3    H245567   6.749   2.646  15.117
 8026TIP3   OH245568   6.473   2.295  14.531
 8026TIP3    H145569   6.380   2.297  14.561
 8026TIP3    H245570   6.523   2.282  14.613
 8027TIP3   OH245571   5.956   2.453  14.417
 8027TIP3    H145572   5.866   2.466  14.379
 8027TIP3    H245573   5.984   2.369  14.378
 8028TIP3   OH245574   6.320   2.455  14.180
 8028TIP3    H145575   6.415   2.467  14.197
 8028TIP3    H245576   6.297   2.524  14.114
 8029TIP3   OH245577   6.911   2.227  14.855
 8029TIP3    H145578   6.844   2.225  14.926
 8029TIP3    H245579   6.863   2.195  14.776
 8030TIP3   OH245580   6.189   2.574  13.939
 8030TIP3    H145581   6.136   2.536  13.867
 8030TIP3    H245582   6.272   2.594  13.892
 8031TIP3   OH245583   7.233   3.785  15.489
 8031TIP3    H145584   7.262   3.821  15.405
 8031TIP3    H245585   7.306   3.815  15.546
 8032TIP3   OH245586   6.004   3.030  15.445
 8032TIP3    H145587   6.074   3.056  15.506
 8032TIP3    H245588   5.925   3.043  15.502
 8033TIP3   OH245589   6.603   2.571  14.720
 8033TIP3    H145590   6.663   2.517  14.667
 8033TIP3    H245591   6.589   2.517  14.799
 8034TIP3   OH245592   6.104   2.186  14.364
 8034TIP3    H145593   6.073   2.094  14.361
 8034TIP3    H245594   6.183   2.181  14.308
 8035TIP3   OH245595   6.467   2.406  14.961
 8035TIP3    H145596   6.384   2.456  14.971
 8035TIP3    H245597   6.521   2.439  15.035
 8036TIP3   OH245598   6.525   3.028  14.131
 8036TIP3    H145599   6.446   2.980  14.098
 8036TIP3    H245600   6.505   3.038  14.226
 8037TIP3   OH245601   7.231   2.947  15.011
 8037TIP3    H145602   7.295   2.978  14.945
 8037TIP3    H245603   7.149   2.952  14.959
 8038TIP3   OH245604   6.909   2.309  13.948
 8038TIP3    H145605   6.813   2.323  13.935
 8038TIP3    H245606   6.939   2.396  13.983
 8039TIP3   OH245607   6.674   3.052  15.255
 8039TIP3    H145608   6.639   3.011  15.335
 8039TIP3    H245609   6.652   3.145  15.264
 8040TIP3   OH245610   6.981   2.500  14.110
 8040TIP3    H145611   7.069   2.487  14.151
 8040TIP3    H245612   6.989   2.583  14.061
 8041TIP3   OH245613   6.036   2.965  14.711
 8041TIP3    H145614   6.106   2.959  14.644
 8041TIP3    H245615   6.042   2.879  14.756
 8042TIP3   OH245616   6.736   3.175  14.034
 8042TIP3    H145617   6.702   3.259  14.071
 8042TIP3    H245618   6.662   3.113  14.055
 8043TIP3   OH245619   5.735   2.807  15.238
 8043TIP3    H145620   5.754   2.763  15.323
 8043TIP3    H245621   5.673   2.745  15.195
 8044TIP3   OH245622   6.436   2.762  15.458
 8044TIP3    H145623   6.406   2.736  15.370
 8044TIP3    H245624   6.529   2.733  15.457
 8045TIP3   OH245625   6.901   3.294  15.248
 8045TIP3    H145626   6.809   3.315  15.226
 8045TIP3    H245627   6.902   3.324  15.341
 8046TIP3   OH245628   7.292   3.397  14.128
 8046TIP3    H145629   7.262   3.313  14.165
 8046TIP3    H245630   7.332   3.377  14.043
 8047TIP3   OH245631   7.016   2.878  14.840
 8047TIP3    H145632   6.922   2.855  14.828
 8047TIP3    H245633   7.063   2.802  14.798
 8048TIP3   OH245634   6.273   3.312  14.449
 8048TIP3    H145635   6.324   3.392  14.428
 8048TIP3    H245636   6.185   3.335  14.417
 8049TIP3   OH245637   5.849   2.796  13.906
 8049TIP3    H145638   5.908   2.862  13.946
 8049TIP3    H245639   5.761   2.828  13.933
 8050TIP3   OH245640   6.416   3.078  14.402
 8050TIP3    H145641   6.386   3.171  14.411
 8050TIP3    H245642   6.342   3.031  14.446
 8051TIP3   OH245643   6.461   3.496  15.040
 8051TIP3    H145644   6.505   3.578  15.014
 8051TIP3    H245645   6.521   3.463  15.110
 8052TIP3   OH245646   6.284   3.578  14.356
 8052TIP3    H145647   6.186   3.591  14.368
 8052TIP3    H245648   6.318   3.662  14.391
 8053TIP3   OH245649   6.816   3.099  15.005
 8053TIP3    H145650   6.779   3.078  15.093
 8053TIP3    H245651   6.878   3.026  14.988
 8054TIP3   OH245652   7.045   3.202  13.914
 8054TIP3    H145653   7.074   3.157  13.995
 8054TIP3    H245654   6.949   3.186  13.922
 8055TIP3   OH245655   7.089   3.558  15.254
 8055TIP3    H145656   7.025   3.504  15.204
 8055TIP3    H245657   7.114   3.625  15.187
 8056TIP3   OH245658   5.900   2.281  15.193
 8056TIP3    H145659   5.809   2.316  15.189
 8056TIP3    H245660   5.889   2.196  15.238
 8057TIP3   OH245661   7.124   3.065  14.137
 8057TIP3    H145662   7.100   2.988  14.193
 8057TIP3    H245663   7.218   3.073  14.158
 8058TIP3   OH245664   5.862   3.460  15.036
 8058TIP3    H145665   5.889   3.367  15.036
 8058TIP3    H245666   5.888   3.488  15.125
 8059TIP3   OH245667   6.456   3.311  13.761
 8059TIP3    H145668   6.470   3.233  13.704
 8059TIP3    H245669   6.418   3.268  13.840
 8060TIP3   OH245670   6.339   3.264  14.007
 8060TIP3    H145671   6.361   3.212  14.085
 8060TIP3    H245672   6.344   3.357  14.039
 8061TIP3   OH245673   5.990   2.988  14.056
 8061TIP3    H145674   5.919   3.027  14.112
 8061TIP3    H245675   6.041   3.067  14.029
 8062TIP3   OH245676   6.769   2.258  15.089
 8062TIP3    H145677   6.845   2.263  15.148
 8062TIP3    H245678   6.735   2.168  15.105
 8063TIP3   OH245679   6.849   2.216  14.195
 8063TIP3    H145680   6.873   2.264  14.113
 8063TIP3    H245681   6.906   2.258  14.261
 8064TIP3   OH245682   6.617   3.431  14.079
 8064TIP3    H145683   6.535   3.484  14.085
 8064TIP3    H245684   6.670   3.484  14.017
 8065TIP3   OH245685   6.571   2.391  14.278
 8065TIP3    H145686   6.650   2.447  14.283
 8065TIP3    H245687   6.545   2.378  14.371
 8066TIP3   OH245688   6.626   2.491  15.196
 8066TIP3    H145689   6.636   2.549  15.275
 8066TIP3    H245690   6.692   2.422  15.207
 8067TIP3   OH245691   6.654   2.097  14.368
 8067TIP3    H145692   6.625   2.163  14.433
 8067TIP3    H245693   6.724   2.151  14.323
 8068TIP3   OH245694   6.355   3.535  14.080
 8068TIP3    H145695   6.367   3.617  14.026
 8068TIP3    H245696   6.330   3.570  14.168
 8069TIP3   OH245697   6.222   2.206  14.039
 8069TIP3    H145698   6.217   2.297  14.076
 8069TIP3    H245699   6.313   2.182  14.064
 8070TIP3   OH245700   7.243   2.280  15.278
 8070TIP3    H145701   7.150   2.309  15.268
 8070TIP3    H245702   7.272   2.280  15.185
 8071TIP3   OH245703   7.106   2.660  14.687
 8071TIP3    H145704   7.024   2.616  14.656
 8071TIP3    H245705   7.147   2.587  14.736
 8072TIP3   OH245706   6.046   3.250  13.944
 8072TIP3    H145707   6.111   3.316  13.973
 8072TIP3    H245708   6.098   3.205  13.874
 8073TIP3   OH245709   5.880   2.517  13.857
 8073TIP3    H145710   5.880   2.613  13.877
 8073TIP3    H245711   5.791   2.498  13.827
 8074TIP3   OH245712   7.215   3.583  14.851
 8074TIP3    H145713   7.199   3.653  14.784
 8074TIP3    H245714   7.309   3.593  14.871
 8075TIP3   OH245715   5.962   1.997  14.729
 8075TIP3    H145716   5.940   1.999  14.633
 8075TIP3    H245717   5.921   1.913  14.754
 8076TIP3   OH245718   5.857   3.388  14.344
 8076TIP3    H145719   5.772   3.435  14.342
 8076TIP3    H245720   5.907   3.437  14.277
 8077TIP3   OH245721   5.781   3.652  15.472
 8077TIP3    H145722   5.838   3.632  15.549
 8077TIP3    H245723   5.736   3.567  15.456
 8078TIP3   OH245724   6.243   3.542  15.637
 8078TIP3    H145725   6.322   3.495  15.668
 8078TIP3    H245726   6.242   3.518  15.542
 8079TIP3   OH245727   6.657   3.496  13.774
 8079TIP3    H145728   6.589   3.430  13.801
 8079TIP3    H245729   6.730   3.437  13.750
 8080TIP3   OH245730   6.899   3.382  15.507
 8080TIP3    H145731   6.866   3.295  15.535
 8080TIP3    H245732   6.974   3.395  15.567
 8081TIP3   OH245733   7.112   3.474  13.796
 8081TIP3    H145734   7.141   3.394  13.842
 8081TIP3    H245735   7.188   3.495  13.739
 8082TIP3   OH245736   5.771   3.030  15.572
 8082TIP3    H145737   5.787   2.939  15.540
 8082TIP3    H245738   5.696   3.058  15.516
 8083TIP3   OH245739   6.204   3.066  13.778
 8083TIP3    H145740   6.217   2.988  13.834
 8083TIP3    H245741   6.277   3.053  13.714
 8084TIP3   OH245742   6.440   3.028  15.512
 8084TIP3    H145743   6.407   3.059  15.426
 8084TIP3    H245744   6.451   2.931  15.502
 8085TIP3   OH245745   6.746   3.175  13.754
 8085TIP3    H145746   6.718   3.185  13.846
 8085TIP3    H245747   6.725   3.079  13.741
 8086TIP3   OH245748   7.010   3.014  15.248
 8086TIP3    H145749   7.087   3.076  15.241
 8086TIP3    H245750   6.940   3.080  15.256
 8087TIP3   OH245751   5.858   2.753  15.511
 8087TIP3    H145752   5.900   2.667  15.501
 8087TIP3    H245753   5.835   2.754  15.606
 8088TIP3   OH245754   6.324   2.866  14.016
 8088TIP3    H145755   6.275   2.813  14.081
 8088TIP3    H245756   6.352   2.798  13.951
 8089TIP3   OH245757   6.251   2.649  15.248
 8089TIP3    H145758   6.190   2.720  15.274
 8089TIP3    H245759   6.289   2.685  15.166
 8090TIP3   OH245760   6.431   2.688  13.838
 8090TIP3    H145761   6.415   2.677  13.743
 8090TIP3    H245762   6.528   2.696  13.844
 8091TIP3   OH245763   6.753   2.904  15.582
 8091TIP3    H145764   6.850   2.905  15.569
 8091TIP3    H245765   6.740   2.827  15.639
 8092TIP3   OH245766   6.291   2.387  15.354
 8092TIP3    H145767   6.302   2.314  15.290
 8092TIP3    H245768   6.287   2.467  15.298
 8093TIP3   OH245769   6.330   2.224  15.108
 8093TIP3    H145770   6.382   2.270  15.038
 8093TIP3    H245771   6.242   2.215  15.066
 8094TIP3   OH245772   6.486   2.771  15.133
 8094TIP3    H145773   6.561   2.755  15.074
 8094TIP3    H245774   6.450   2.855  15.100
 8095TIP3   OH245775   6.925   2.549  15.632
 8095TIP3    H145776   6.948   2.456  15.619
 8095TIP3    H245777   7.012   2.591  15.630
 8096TIP3   OH245778   7.055   2.828  15.443
 8096TIP3    H145779   7.033   2.901  15.382
 8096TIP3    H245780   7.152   2.824  15.426
 8097TIP3   OH245781   6.138   2.510  15.547
 8097TIP3    H145782   6.060   2.454  15.527
 8097TIP3    H245783   6.202   2.475  15.483
 8098TIP3   OH245784   6.409   1.968  15.150
 8098TIP3    H145785   6.395   2.064  15.138
 8098TIP3    H245786   6.334   1.932  15.099
 8099TIP3   OH245787   6.537   2.401  15.508
 8099TIP3    H145788   6.507   2.379  15.598
 8099TIP3    H245789   6.458   2.381  15.454
 8100TIP3   OH245790   6.807   2.314  15.415
 8100TIP3    H145791   6.711   2.319  15.430
 8100TIP3    H245792   6.838   2.251  15.482
 8101TIP3   OH245793   6.969   2.177  15.611
 8101TIP3    H145794   6.960   2.080  15.611
 8101TIP3    H245795   6.940   2.207  15.701
 8102TIP3   OH245796   5.948   2.303  15.520
 8102TIP3    H145797   5.972   2.230  15.460
 8102TIP3    H245798   5.939   2.258  15.606
 8103TIP3   OH245799   6.431   1.904  15.418
 8103TIP3    H145800   6.501   1.835  15.415
 8103TIP3    H245801   6.421   1.923  15.323
 8104TIP3   OH245802   6.466   2.067  15.626
 8104TIP3    H145803   6.451   2.017  15.541
 8104TIP3    H245804   6.408   2.144  15.616
 8105TIP3   OH245805   6.416   3.758  13.944
 8105TIP3    H145806   6.512   3.770  13.952
 8105TIP3    H245807   6.398   3.821  13.874
 8106TIP3   OH245808   5.772   3.219  13.891
 8106TIP3    H145809   5.868   3.227  13.912
 8106TIP3    H245810   5.777   3.152  13.819
 8107TIP3   OH245811   5.647   3.757  14.391
 8107TIP3    H145812   5.576   3.709  14.343
 8107TIP3    H245813   5.677   3.690  14.455
 8108TIP3   OH245814   5.730   3.568  14.576
 8108TIP3    H145815   5.695   3.480  14.595
 8108TIP3    H245816   5.753   3.601  14.665
 8109TIP3   OH245817   7.270   3.192  15.620
 8109TIP3    H145818   7.192   3.175  15.674
 8109TIP3    H245819   7.321   3.254  15.675
 8110TIP3   OH245820   7.282   3.375  15.093
 8110TIP3    H145821   7.215   3.416  15.150
 8110TIP3    H245822   7.228   3.339  15.019
 8111TIP3   OH245823   7.309   2.528  13.858
 8111TIP3    H145824   7.326   2.592  13.788
 8111TIP3    H245825   7.300   2.444  13.808
 8112TIP3   OH245826   7.204   2.674  14.421
 8112TIP3    H145827   7.217   2.578  14.424
 8112TIP3    H245828   7.197   2.695  14.515
 8113TIP3   OH245829   5.736   2.876  14.825
 8113TIP3    H145830   5.755   2.868  14.729
 8113TIP3    H245831   5.825   2.860  14.862
 8114TIP3   OH245832  -0.031   2.869  15.415
 8114TIP3    H145833   0.028   2.792  15.412
 8114TIP3    H245834   0.028   2.941  15.386
 8115TIP3   OH245835   7.245   2.273  13.769
 8115TIP3    H145836   7.302   2.229  13.832
 8115TIP3    H245837   7.160   2.229  13.785
 8116TIP3   OH245838   7.201   2.424  14.257
 8116TIP3    H145839   7.230   2.335  14.285
 8116TIP3    H245840   7.281   2.463  14.224
 8117TIP3   OH245841   7.227   2.436  14.799
 8117TIP3    H145842   7.323   2.448  14.791
 8117TIP3    H245843   7.231   2.481  14.886
 8118TIP3   OH245844   7.271   2.555  15.095
 8118TIP3    H145845   7.182   2.584  15.123
 8118TIP3    H245846   7.312   2.635  15.062
 8119TIP3   OH245847   5.697   2.404  15.437
 8119TIP3    H145848   5.790   2.387  15.460
 8119TIP3    H245849   5.652   2.324  15.472
 8120TIP3   OH245850   7.191   2.137  14.320
 8120TIP3    H145851   7.277   2.107  14.356
 8120TIP3    H245852   7.196   2.086  14.236
 8121TIP3   OH245853   5.818   2.235  14.725
 8121TIP3    H145854   5.864   2.153  14.753
 8121TIP3    H245855   5.870   2.305  14.766
 8122TIP3   OH245856   5.646   2.534  14.831
 8122TIP3    H145857   5.702   2.511  14.753
 8122TIP3    H245858   5.690   2.616  14.858
 8123TIP3   OH245859   5.683   2.162  14.238
 8123TIP3    H145860   5.589   2.180  14.223
 8123TIP3    H245861   5.726   2.210  14.166
 8124TIP3   OH245862   7.145   3.645  14.438
 8124TIP3    H145863   7.211   3.614  14.375
 8124TIP3    H245864   7.200   3.702  14.495
 8125TIP3   OH245865   5.674   2.024  15.065
 8125TIP3    H145866   5.612   2.013  15.139
 8125TIP3    H245867   5.634   2.098  15.014
 8126TIP3   OH245868   5.900   3.349  15.484
 8126TIP3    H145869   5.816   3.369  15.440
 8126TIP3    H245870   5.872   3.342  15.576
 8127TIP3   OH245871   6.191   3.447  15.111
 8127TIP3    H145872   6.155   3.532  15.083
 8127TIP3    H245873   6.283   3.457  15.081
 8128TIP3   OH245874   6.623   3.589  15.404
 8128TIP3    H145875   6.639   3.555  15.495
 8128TIP3    H245876   6.712   3.620  15.377
 8129TIP3   OH245877   6.855   3.717  15.332
 8129TIP3    H145878   6.927   3.656  15.309
 8129TIP3    H245879   6.891   3.759  15.413
 8130TIP3   OH245880   5.934   3.772  15.113
 8130TIP3    H145881   5.860   3.820  15.071
 8130TIP3    H245882   5.900   3.751  15.201
 8131TIP3   OH245883   6.181   3.730  15.019
 8131TIP3    H145884   6.091   3.742  15.059
 8131TIP3    H245885   6.174   3.788  14.941
 8132TIP3   OH245886   6.651   3.721  14.936
 8132TIP3    H145887   6.604   3.776  14.871
 8132TIP3    H245888   6.665   3.784  15.009
 8133TIP3   OH245889   6.883   3.604  15.035
 8133TIP3    H145890   6.794   3.628  15.003
 8133TIP3    H245891   6.926   3.690  15.027
 8134TIP3   OH245892   7.138   3.764  15.062
 8134TIP3    H145893   7.127   3.858  15.038
 8134TIP3    H245894   7.162   3.724  14.976
 8135TIP3   OH245895   5.877   3.636  14.805
 8135TIP3    H145896   5.871   3.591  14.892
 8135TIP3    H245897   5.959   3.600  14.766
 8136TIP3   OH245898   6.087   3.508  14.671
 8136TIP3    H145899   6.069   3.414  14.692
 8136TIP3    H245900   6.172   3.522  14.717
 8137TIP3   OH245901   6.343   3.556  14.757
 8137TIP3    H145902   6.363   3.464  14.731
 8137TIP3    H245903   6.351   3.550  14.854
 8138TIP3   OH245904   6.691   2.121  14.670
 8138TIP3    H145905   6.626   2.056  14.699
 8138TIP3    H245906   6.750   2.068  14.614
 8139TIP3   OH245907   7.219   1.914  14.624
 8139TIP3    H145908   7.269   1.994  14.633
 8139TIP3    H245909   7.134   1.952  14.662
 8140TIP3   OH245910   5.929   1.984  14.456
 8140TIP3    H145911   5.849   1.962  14.404
 8140TIP3    H245912   5.977   1.899  14.452
 8141TIP3   OH245913   5.808   1.960  14.031
 8141TIP3    H145914   5.855   2.024  13.975
 8141TIP3    H245915   5.748   2.017  14.083
 8142TIP3   OH245916   6.379   1.976  14.435
 8142TIP3    H145917   6.469   2.013  14.430
 8142TIP3    H245918   6.372   1.955  14.528
 8143TIP3   OH245919   6.940   1.979  14.594
 8143TIP3    H145920   6.947   1.988  14.500
 8143TIP3    H245921   6.912   1.887  14.612
 8144TIP3   OH245922   7.070   1.977  14.161
 8144TIP3    H145923   6.999   2.042  14.151
 8144TIP3    H245924   7.026   1.893  14.188
 8145TIP3   OH245925   5.799   3.555  14.129
 8145TIP3    H145926   5.731   3.554  14.059
 8145TIP3    H245927   5.798   3.649  14.150
 8146TIP3   OH245928   5.991   2.154  13.879
 8146TIP3    H145929   6.044   2.091  13.827
 8146TIP3    H245930   6.057   2.185  13.944
 8147TIP3   OH245931   6.494   2.179  14.121
 8147TIP3    H145932   6.517   2.120  14.194
 8147TIP3    H245933   6.497   2.265  14.169
 8148TIP3   OH245934   6.685   3.683  13.966
 8148TIP3    H145935   6.775   3.711  13.944
 8148TIP3    H245936   6.663   3.634  13.884
 8149TIP3   OH245937   5.918   2.037  15.402
 8149TIP3    H145938   5.882   1.958  15.446
 8149TIP3    H245939   6.010   2.035  15.437
 8150TIP3   OH245940   6.119   1.975  15.562
 8150TIP3    H145941   6.208   1.940  15.541
 8150TIP3    H245942   6.081   1.896  15.606
 8151TIP3   OH245943   5.979   3.652  13.826
 8151TIP3    H145944   5.953   3.677  13.915
 8151TIP3    H245945   6.057   3.595  13.841
 8152TIP3   OH245946   6.960   1.906  15.579
 8152TIP3    H145947   6.968   1.858  15.664
 8152TIP3    H245948   7.051   1.902  15.543
 8153TIP3   OH245949   7.272   3.505  15.454
 8153TIP3    H145950   7.200   3.493  15.390
 8153TIP3    H245951   7.266   3.603  15.467
 8154TIP3   OH245952   1.180   4.783  14.445
 8154TIP3    H145953   1.182   4.881  14.438
 8154TIP3    H245954   1.110   4.759  14.383
 8155TIP3   OH245955   1.068   4.710  14.793
 8155TIP3    H145956   1.066   4.644  14.864
 8155TIP3    H245957   1.035   4.660  14.716
 8156TIP3   OH245958   0.306   4.674  14.947
 8156TIP3    H145959   0.312   4.607  15.019
 8156TIP3    H245960   0.378   4.734  14.970
 8157TIP3   OH245961   1.438   5.003  14.621
 8157TIP3    H145962   1.395   4.932  14.669
 8157TIP3    H245963   1.438   5.075  14.687
 8158TIP3   OH245964   0.394   5.120  14.802
 8158TIP3    H145965   0.362   5.035  14.767
 8158TIP3    H245966   0.490   5.101  14.805
 8159TIP3   OH245967   0.079   4.479  14.324
 8159TIP3    H145968   0.025   4.559  14.347
 8159TIP3    H245969   0.007   4.425  14.300
 8160TIP3   OH245970   0.129   4.697  14.557
 8160TIP3    H145971   0.154   4.619  14.609
 8160TIP3    H245972   0.203   4.708  14.496
 8161TIP3   OH245973   1.149   5.518  14.644
 8161TIP3    H145974   1.213   5.448  14.616
 8161TIP3    H245975   1.129   5.488  14.733
 8162TIP3   OH245976   0.905   4.950  14.837
 8162TIP3    H145977   0.939   4.885  14.773
 8162TIP3    H245978   0.984   4.965  14.892
 8163TIP3   OH245979   1.768   4.114  14.914
 8163TIP3    H145980   1.782   4.174  14.990
 8163TIP3    H245981   1.820   4.158  14.846
 8164TIP3   OH245982   1.222   4.396  14.870
 8164TIP3    H145983   1.237   4.299  14.869
 8164TIP3    H245984   1.212   4.411  14.774
 8165TIP3   OH245985   0.536   4.203  14.594
 8165TIP3    H145986   0.543   4.288  14.546
 8165TIP3    H245987   0.493   4.147  14.525
 8166TIP3   OH245988   1.308   4.213  14.430
 8166TIP3    H145989   1.374   4.182  14.496
 8166TIP3    H245990   1.364   4.270  14.374
 8167TIP3   OH245991   0.199   4.443  14.661
 8167TIP3    H145992   0.266   4.390  14.710
 8167TIP3    H245993   0.208   4.411  14.571
 8168TIP3   OH245994   0.713   4.600  14.595
 8168TIP3    H145995   0.778   4.543  14.639
 8168TIP3    H245996   0.659   4.534  14.548
 8169TIP3   OH245997   1.811   4.256  15.140
 8169TIP3    H145998   1.747   4.330  15.130
 8169TIP3    H245999   1.814   4.244  15.236
 8170TIP3   OH246000   0.423   4.094  14.998
 8170TIP3    H146001   0.396   4.150  14.922
 8170TIP3    H246002   0.354   4.117  15.064
 8171TIP3   OH246003   1.154   5.043  14.352
 8171TIP3    H146004   1.126   5.014  14.265
 8171TIP3    H246005   1.122   5.136  14.357
 8172TIP3   OH246006   0.677   4.859  15.023
 8172TIP3    H146007   0.604   4.922  15.042
 8172TIP3    H246008   0.747   4.919  14.994
 8173TIP3   OH246009   1.485   4.146  14.630
 8173TIP3    H146010   1.466   4.069  14.684
 8173TIP3    H246011   1.554   4.191  14.683
 8174TIP3   OH246012   0.378   4.278  14.798
 8174TIP3    H146013   0.440   4.348  14.832
 8174TIP3    H246014   0.433   4.238  14.727
 8175TIP3   OH246015   0.519   5.058  15.103
 8175TIP3    H146016   0.514   5.149  15.069
 8175TIP3    H246017   0.430   5.050  15.147
 8176TIP3   OH246018   0.129   5.025  14.181
 8176TIP3    H146019   0.103   5.053  14.092
 8176TIP3    H246020   0.134   5.107  14.232
 8177TIP3   OH246021   1.490   5.187  14.858
 8177TIP3    H146022   1.393   5.197  14.871
 8177TIP3    H246023   1.517   5.279  14.839
 8178TIP3   OH246024   1.522   4.016  14.998
 8178TIP3    H146025   1.448   4.079  14.990
 8178TIP3    H246026   1.592   4.058  14.944
 8179TIP3   OH246027   0.820   3.827  14.743
 8179TIP3    H146028   0.807   3.730  14.737
 8179TIP3    H246029   0.732   3.858  14.773
 8180TIP3   OH246030   1.315   5.365  14.518
 8180TIP3    H146031   1.359   5.294  14.467
 8180TIP3    H246032   1.354   5.445  14.477
 8181TIP3   OH246033   1.435   5.158  14.369
 8181TIP3    H146034   1.406   5.088  14.309
 8181TIP3    H246035   1.439   5.110  14.453
 8182TIP3   OH246036   1.599   5.016  15.218
 8182TIP3    H146037   1.614   4.953  15.145
 8182TIP3    H246038   1.618   5.102  15.177
 8183TIP3   OH246039   1.048   4.707  14.196
 8183TIP3    H146040   0.978   4.763  14.159
 8183TIP3    H246041   1.118   4.716  14.128
 8184TIP3   OH246042   1.054   4.560  13.897
 8184TIP3    H146043   1.125   4.559  13.962
 8184TIP3    H246044   1.086   4.492  13.836
 8185TIP3   OH246045   1.786   4.647  15.024
 8185TIP3    H146046   1.720   4.719  15.029
 8185TIP3    H246047   1.834   4.671  14.942
 8186TIP3   OH246048   1.390   4.729  14.286
 8186TIP3    H146049   1.316   4.753  14.347
 8186TIP3    H246050   1.437   4.660  14.337
 8187TIP3   OH246051   1.384   4.545  15.198
 8187TIP3    H146052   1.386   4.626  15.252
 8187TIP3    H246053   1.321   4.575  15.129
 8188TIP3   OH246054   0.555   4.795  14.478
 8188TIP3    H146055   0.520   4.755  14.395
 8188TIP3    H246056   0.615   4.724  14.512
 8189TIP3   OH246057   0.687   5.134  14.746
 8189TIP3    H146058   0.684   5.079  14.667
 8189TIP3    H246059   0.764   5.097  14.793
 8190TIP3   OH246060   0.588   4.669  14.843
 8190TIP3    H146061   0.644   4.680  14.764
 8190TIP3    H246062   0.624   4.735  14.906
 8191TIP3   OH246063   1.226   5.225  14.914
 8191TIP3    H146064   1.198   5.288  14.980
 8191TIP3    H246065   1.202   5.139  14.957
 8192TIP3   OH246066   0.681   5.111  15.314
 8192TIP3    H146067   0.643   5.187  15.362
 8192TIP3    H246068   0.613   5.092  15.244
 8193TIP3   OH246069   1.278   4.647  14.055
 8193TIP3    H146070   1.335   4.664  14.134
 8193TIP3    H246071   1.322   4.696  13.982
 8194TIP3   OH246072   0.376   4.728  15.235
 8194TIP3    H146073   0.379   4.797  15.304
 8194TIP3    H246074   0.283   4.738  15.206
 8195TIP3   OH246075   1.050   5.320  14.401
 8195TIP3    H146076   1.095   5.350  14.480
 8195TIP3    H246077   0.994   5.395  14.377
 8196TIP3   OH246078   0.506   5.315  15.389
 8196TIP3    H146079   0.499   5.304  15.293
 8196TIP3    H246080   0.412   5.304  15.416
 8197TIP3   OH246081   1.651   3.820  14.041
 8197TIP3    H146082   1.557   3.834  14.068
 8197TIP3    H246083   1.672   3.905  13.999
 8198TIP3   OH246084   0.452   4.697  14.239
 8198TIP3    H146085   0.423   4.775  14.188
 8198TIP3    H246086   0.385   4.632  14.218
 8199TIP3   OH246087   1.763   5.256  13.878
 8199TIP3    H146088   1.778   5.351  13.895
 8199TIP3    H246089   1.856   5.227  13.875
 8200TIP3   OH246090   0.098   4.930  15.107
 8200TIP3    H146091   0.024   4.934  15.042
 8200TIP3    H246092   0.070   4.846  15.148
 8201TIP3   OH246093   0.047   5.223  14.795
 8201TIP3    H146094   0.138   5.198  14.807
 8201TIP3    H246095   0.030   5.290  14.862
 8202TIP3   OH246096   1.859   5.282  15.373
 8202TIP3    H146097   1.849   5.186  15.374
 8202TIP3    H246098   1.773   5.307  15.416
 8203TIP3   OH246099   0.955   5.237  15.262
 8203TIP3    H146100   0.962   5.321  15.313
 8203TIP3    H246101   0.868   5.202  15.288
 8204TIP3   OH246102   0.999   5.612  14.243
 8204TIP3    H146103   0.988   5.603  14.146
 8204TIP3    H246104   0.999   5.708  14.256
 8205TIP3   OH246105   0.362   5.498  14.422
 8205TIP3    H146106   0.377   5.457  14.510
 8205TIP3    H246107   0.278   5.457  14.397
 8206TIP3   OH246108   1.305   5.533  13.941
 8206TIP3    H146109   1.348   5.456  13.896
 8206TIP3    H246110   1.308   5.505  14.035
 8207TIP3   OH246111   1.274   5.525  14.217
 8207TIP3    H146112   1.178   5.533  14.236
 8207TIP3    H246113   1.299   5.452  14.276
 8208TIP3   OH246114   1.574   4.430  15.421
 8208TIP3    H146115   1.528   4.476  15.350
 8208TIP3    H246116   1.574   4.338  15.391
 8209TIP3   OH246117   0.288   5.073  15.224
 8209TIP3    H146118   0.306   5.034  15.312
 8209TIP3    H246119   0.202   5.032  15.200
 8210TIP3   OH246120   0.555   3.917  14.819
 8210TIP3    H146121   0.465   3.907  14.782
 8210TIP3    H246122   0.544   4.001  14.866
 8211TIP3   OH246123   1.019   3.886  15.156
 8211TIP3    H146124   1.059   3.844  15.234
 8211TIP3    H246125   0.922   3.871  15.170
 8212TIP3   OH246126   1.349   4.267  15.245
 8212TIP3    H146127   1.294   4.248  15.324
 8212TIP3    H246128   1.331   4.360  15.221
 8213TIP3   OH246129   1.424   4.751  13.829
 8213TIP3    H146130   1.426   4.730  13.733
 8213TIP3    H246131   1.510   4.793  13.839
 8214TIP3   OH246132   0.984   4.141  13.886
 8214TIP3    H146133   0.953   4.137  13.978
 8214TIP3    H246134   0.953   4.053  13.856
 8215TIP3   OH246135   0.564   4.413  14.940
 8215TIP3    H146136   0.492   4.412  15.006
 8215TIP3    H246137   0.560   4.506  14.907
 8216TIP3   OH246138   0.561   4.430  14.428
 8216TIP3    H146139   0.468   4.401  14.417
 8216TIP3    H246140   0.601   4.397  14.346
 8217TIP3   OH246141   1.113   4.477  14.308
 8217TIP3    H146142   1.073   4.559  14.272
 8217TIP3    H246143   1.183   4.461  14.242
 8218TIP3   OH246144   1.020   4.498  15.452
 8218TIP3    H146145   0.966   4.421  15.483
 8218TIP3    H246146   1.104   4.484  15.498
 8219TIP3   OH246147   1.216   4.424  14.590
 8219TIP3    H146148   1.190   4.481  14.516
 8219TIP3    H246149   1.228   4.340  14.543
 8220TIP3   OH246150   0.332   4.441  15.114
 8220TIP3    H146151   0.332   4.482  15.202
 8220TIP3    H246152   0.283   4.359  15.131
 8221TIP3   OH246153   0.667   4.181  13.797
 8221TIP3    H146154   0.623   4.137  13.873
 8221TIP3    H246155   0.596   4.221  13.748
 8222TIP3   OH246156   0.012   4.168  14.498
 8222TIP3    H146157   0.061   4.147  14.579
 8222TIP3    H246158   0.044   4.108  14.431
 8223TIP3   OH246159   0.119   4.231  14.043
 8223TIP3    H146160   0.172   4.290  13.987
 8223TIP3    H246161   0.049   4.288  14.074
 8224TIP3   OH246162   1.138   4.585  15.049
 8224TIP3    H146163   1.174   4.518  14.989
 8224TIP3    H246164   1.092   4.531  15.117
 8225TIP3   OH246165   0.817   4.180  14.531
 8225TIP3    H146166   0.723   4.183  14.561
 8225TIP3    H246167   0.866   4.168  14.613
 8226TIP3   OH246168   0.303   4.339  14.415
 8226TIP3    H146169   0.213   4.353  14.380
 8226TIP3    H246170   0.327   4.253  14.377
 8227TIP3   OH246171   0.663   4.341  14.180
 8227TIP3    H146172   0.759   4.353  14.197
 8227TIP3    H246173   0.640   4.409  14.114
 8228TIP3   OH246174   1.258   4.104  14.856
 8228TIP3    H146175   1.189   4.112  14.925
 8228TIP3    H246176   1.207   4.082  14.776
 8229TIP3   OH246177   0.534   4.459  13.938
 8229TIP3    H146178   0.479   4.422  13.866
 8229TIP3    H246179   0.616   4.479  13.892
 8230TIP3   OH246180   1.579   5.669  15.489
 8230TIP3    H146181   1.606   5.708  15.404
 8230TIP3    H246182   1.651   5.701  15.546
 8231TIP3   OH246183   0.347   4.915  15.444
 8231TIP3    H146184   0.417   4.941  15.505
 8231TIP3    H246185   0.269   4.931  15.502
 8232TIP3   OH246186   0.946   4.457  14.720
 8232TIP3    H146187   1.005   4.403  14.666
 8232TIP3    H246188   0.932   4.403  14.799
 8233TIP3   OH246189   0.447   4.072  14.363
 8233TIP3    H146190   0.416   3.980  14.360
 8233TIP3    H246191   0.527   4.067  14.308
 8234TIP3   OH246192   0.810   4.291  14.961
 8234TIP3    H146193   0.727   4.342  14.971
 8234TIP3    H246194   0.864   4.325  15.035
 8235TIP3   OH246195   0.869   4.914  14.130
 8235TIP3    H146196   0.789   4.866  14.098
 8235TIP3    H246197   0.848   4.923  14.226
 8236TIP3   OH246198   1.585   4.831  15.011
 8236TIP3    H146199   1.643   4.879  14.950
 8236TIP3    H246200   1.499   4.839  14.964
 8237TIP3   OH246201   1.253   4.195  13.949
 8237TIP3    H146202   1.157   4.209  13.935
 8237TIP3    H246203   1.285   4.281  13.983
 8238TIP3   OH246204   1.017   4.937  15.255
 8238TIP3    H146205   0.983   4.897  15.335
 8238TIP3    H246206   0.994   5.030  15.264
 8239TIP3   OH246207   1.325   4.385  14.113
 8239TIP3    H146208   1.415   4.372  14.151
 8239TIP3    H246209   1.334   4.467  14.061
 8240TIP3   OH246210   0.380   4.851  14.710
 8240TIP3    H146211   0.450   4.844  14.643
 8240TIP3    H246212   0.385   4.765  14.756
 8241TIP3   OH246213   1.079   5.060  14.034
 8241TIP3    H146214   1.045   5.144  14.071
 8241TIP3    H246215   1.005   4.999  14.055
 8242TIP3   OH246216   0.101   4.672  15.215
 8242TIP3    H146217   0.108   4.649  15.309
 8242TIP3    H246218   0.017   4.630  15.192
 8243TIP3   OH246219   0.779   4.648  15.458
 8243TIP3    H146220   0.749   4.621  15.370
 8243TIP3    H246221   0.873   4.618  15.456
 8244TIP3   OH246222   1.246   5.181  15.249
 8244TIP3    H146223   1.154   5.200  15.226
 8244TIP3    H246224   1.245   5.210  15.342
 8245TIP3   OH246225   1.815   4.400  14.088
 8245TIP3    H146226   1.758   4.370  14.015
 8245TIP3    H246227   1.825   4.495  14.063
 8246TIP3   OH246228   1.814   4.986  15.371
 8246TIP3    H146229   1.725   5.008  15.333
 8246TIP3    H246230   1.869   4.982  15.291
 8247TIP3   OH246231   1.642   5.283  14.130
 8247TIP3    H146232   1.607   5.200  14.164
 8247TIP3    H246233   1.675   5.263  14.041
 8248TIP3   OH246234   1.364   4.765  14.839
 8248TIP3    H146235   1.269   4.742  14.830
 8248TIP3    H246236   1.407   4.687  14.798
 8249TIP3   OH246237   0.616   5.197  14.450
 8249TIP3    H146238   0.667   5.277  14.428
 8249TIP3    H246239   0.528   5.221  14.417
 8250TIP3   OH246240   0.187   4.681  13.910
 8250TIP3    H146241   0.251   4.747  13.945
 8250TIP3    H246242   0.103   4.716  13.936
 8251TIP3   OH246243   0.759   4.964  14.402
 8251TIP3    H146244   0.729   5.056  14.411
 8251TIP3    H246245   0.685   4.916  14.446
 8252TIP3   OH246246   0.805   5.381  15.040
 8252TIP3    H146247   0.848   5.464  15.014
 8252TIP3    H246248   0.864   5.349  15.110
 8253TIP3   OH246249   0.626   5.464  14.356
 8253TIP3    H146250   0.529   5.477  14.367
 8253TIP3    H246251   0.662   5.548  14.391
 8254TIP3   OH246252   1.159   4.985  15.005
 8254TIP3    H146253   1.122   4.964  15.094
 8254TIP3    H246254   1.221   4.912  14.988
 8255TIP3   OH246255   1.387   5.088  13.913
 8255TIP3    H146256   1.418   5.043  13.994
 8255TIP3    H246257   1.292   5.071  13.923
 8256TIP3   OH246258   1.435   5.441  15.255
 8256TIP3    H146259   1.368   5.390  15.204
 8256TIP3    H246260   1.456   5.511  15.188
 8257TIP3   OH246261   1.835   5.526  13.937
 8257TIP3    H146262   1.906   5.591  13.919
 8257TIP3    H246263   1.764   5.587  13.967
 8258TIP3   OH246264   0.243   4.166  15.189
 8258TIP3    H146265   0.153   4.201  15.191
 8258TIP3    H246266   0.231   4.081  15.238
 8259TIP3   OH246267   1.467   4.952  14.136
 8259TIP3    H146268   1.443   4.875  14.192
 8259TIP3    H246269   1.562   4.958  14.156
 8260TIP3   OH246270   0.209   5.348  15.033
 8260TIP3    H146271   0.230   5.254  15.035
 8260TIP3    H246272   0.230   5.373  15.124
 8261TIP3   OH246273   0.799   5.196  13.761
 8261TIP3    H146274   0.814   5.119  13.704
 8261TIP3    H246275   0.761   5.153  13.840
 8262TIP3   OH246276   0.682   5.149  14.006
 8262TIP3    H146277   0.704   5.098  14.085
 8262TIP3    H246278   0.686   5.242  14.038
 8263TIP3   OH246279   0.331   4.873  14.054
 8263TIP3    H146280   0.263   4.913  14.113
 8263TIP3    H246281   0.384   4.951  14.029
 8264TIP3   OH246282   1.116   4.143  15.086
 8264TIP3    H146283   1.187   4.149  15.151
 8264TIP3    H246284   1.078   4.055  15.105
 8265TIP3   OH246285   1.192   4.101  14.196
 8265TIP3    H146286   1.215   4.150  14.113
 8265TIP3    H246287   1.249   4.145  14.260
 8266TIP3   OH246288   0.960   5.317  14.079
 8266TIP3    H146289   0.878   5.370  14.085
 8266TIP3    H246290   1.013   5.370  14.017
 8267TIP3   OH246291   0.914   4.277  14.278
 8267TIP3    H146292   0.994   4.333  14.283
 8267TIP3    H246293   0.888   4.264  14.371
 8268TIP3   OH246294   0.969   4.378  15.197
 8268TIP3    H146295   0.977   4.435  15.276
 8268TIP3    H246296   1.035   4.308  15.207
 8269TIP3   OH246297   1.000   3.983  14.369
 8269TIP3    H146298   0.967   4.048  14.434
 8269TIP3    H246299   1.068   4.037  14.323
 8270TIP3   OH246300   0.698   5.421  14.079
 8270TIP3    H146301   0.709   5.503  14.026
 8270TIP3    H246302   0.673   5.456  14.167
 8271TIP3   OH246303   0.566   4.092  14.038
 8271TIP3    H146304   0.560   4.182  14.076
 8271TIP3    H246305   0.657   4.067  14.064
 8272TIP3   OH246306   1.588   4.166  15.282
 8272TIP3    H146307   1.495   4.196  15.269
 8272TIP3    H246308   1.618   4.165  15.189
 8273TIP3   OH246309   1.446   4.545  14.687
 8273TIP3    H146310   1.366   4.500  14.655
 8273TIP3    H246311   1.496   4.474  14.735
 8274TIP3   OH246312   0.389   5.135  13.944
 8274TIP3    H146313   0.454   5.202  13.973
 8274TIP3    H246314   0.441   5.090  13.874
 8275TIP3   OH246315   0.229   4.403  13.853
 8275TIP3    H146316   0.224   4.497  13.878
 8275TIP3    H246317   0.137   4.383  13.830
 8276TIP3   OH246318   1.555   5.468  14.851
 8276TIP3    H146319   1.544   5.537  14.783
 8276TIP3    H246320   1.651   5.476  14.869
 8277TIP3   OH246321   0.303   3.882  14.728
 8277TIP3    H146322   0.284   3.884  14.631
 8277TIP3    H246323   0.261   3.799  14.756
 8278TIP3   OH246324   0.203   5.274  14.345
 8278TIP3    H146325   0.117   5.318  14.342
 8278TIP3    H246326   0.250   5.324  14.278
 8279TIP3   OH246327   0.135   5.539  15.472
 8279TIP3    H146328   0.185   5.515  15.552
 8279TIP3    H246329   0.082   5.458  15.457
 8280TIP3   OH246330   0.587   5.427  15.636
 8280TIP3    H146331   0.665   5.381  15.668
 8280TIP3    H246332   0.585   5.402  15.542
 8281TIP3   OH246333   1.000   5.382  13.774
 8281TIP3    H146334   0.932   5.316  13.801
 8281TIP3    H246335   1.073   5.323  13.750
 8282TIP3   OH246336   1.241   5.268  15.506
 8282TIP3    H146337   1.208   5.180  15.535
 8282TIP3    H246338   1.317   5.281  15.566
 8283TIP3   OH246339   1.457   5.358  13.794
 8283TIP3    H146340   1.487   5.280  13.843
 8283TIP3    H246341   1.533   5.381  13.739
 8284TIP3   OH246342   0.125   4.915  15.569
 8284TIP3    H146343   0.131   4.822  15.541
 8284TIP3    H246344   0.042   4.945  15.526
 8285TIP3   OH246345   0.547   4.951  13.778
 8285TIP3    H146346   0.560   4.873  13.834
 8285TIP3    H246347   0.620   4.939  13.714
 8286TIP3   OH246348   0.783   4.914  15.512
 8286TIP3    H146349   0.750   4.944  15.426
 8286TIP3    H246350   0.794   4.817  15.502
 8287TIP3   OH246351   1.089   5.060  13.754
 8287TIP3    H146352   1.061   5.071  13.846
 8287TIP3    H246353   1.069   4.965  13.741
 8288TIP3   OH246354   1.354   4.902  15.251
 8288TIP3    H146355   1.432   4.962  15.243
 8288TIP3    H246356   1.282   4.967  15.255
 8289TIP3   OH246357   0.197   4.637  15.510
 8289TIP3    H146358   0.245   4.553  15.501
 8289TIP3    H246359   0.182   4.640  15.606
 8290TIP3   OH246360   0.667   4.752  14.016
 8290TIP3    H146361   0.618   4.699  14.081
 8290TIP3    H246362   0.695   4.683  13.951
 8291TIP3   OH246363   0.594   4.535  15.248
 8291TIP3    H146364   0.533   4.605  15.274
 8291TIP3    H246365   0.632   4.571  15.166
 8292TIP3   OH246366   0.774   4.574  13.839
 8292TIP3    H146367   0.758   4.563  13.743
 8292TIP3    H246368   0.871   4.581  13.844
 8293TIP3   OH246369   1.099   4.790  15.581
 8293TIP3    H146370   1.195   4.790  15.570
 8293TIP3    H246371   1.083   4.713  15.639
 8294TIP3   OH246372   1.710   4.807  13.782
 8294TIP3    H146373   1.687   4.768  13.696
 8294TIP3    H246374   1.717   4.903  13.761
 8295TIP3   OH246375   0.634   4.272  15.354
 8295TIP3    H146376   0.645   4.200  15.290
 8295TIP3    H246377   0.628   4.353  15.299
 8296TIP3   OH246378   0.674   4.110  15.108
 8296TIP3    H146379   0.725   4.156  15.038
 8296TIP3    H246380   0.585   4.101  15.066
 8297TIP3   OH246381   0.829   4.656  15.133
 8297TIP3    H146382   0.904   4.640  15.074
 8297TIP3    H246383   0.793   4.741  15.100
 8298TIP3   OH246384   1.268   4.434  15.630
 8298TIP3    H146385   1.291   4.340  15.621
 8298TIP3    H246386   1.354   4.477  15.631
 8299TIP3   OH246387   1.402   4.713  15.445
 8299TIP3    H146388   1.377   4.785  15.382
 8299TIP3    H246389   1.498   4.709  15.425
 8300TIP3   OH246390   0.479   4.397  15.546
 8300TIP3    H146391   0.401   4.339  15.527
 8300TIP3    H246392   0.544   4.361  15.484
 8301TIP3   OH246393   0.753   3.853  15.150
 8301TIP3    H146394   0.738   3.950  15.138
 8301TIP3    H246395   0.678   3.818  15.099
 8302TIP3   OH246396   0.880   4.286  15.508
 8302TIP3    H146397   0.851   4.265  15.598
 8302TIP3    H246398   0.801   4.267  15.454
 8303TIP3   OH246399   1.152   4.200  15.415
 8303TIP3    H146400   1.055   4.205  15.429
 8303TIP3    H246401   1.179   4.136  15.484
 8304TIP3   OH246402   1.309   4.063  15.611
 8304TIP3    H146403   1.305   3.966  15.612
 8304TIP3    H246404   1.283   4.091  15.701
 8305TIP3   OH246405   0.296   4.189  15.521
 8305TIP3    H146406   0.315   4.115  15.459
 8305TIP3    H246407   0.283   4.142  15.605
 8306TIP3   OH246408   0.774   3.790  15.418
 8306TIP3    H146409   0.844   3.721  15.414
 8306TIP3    H246410   0.764   3.809  15.323
 8307TIP3   OH246411   0.809   3.953  15.626
 8307TIP3    H146412   0.794   3.903  15.541
 8307TIP3    H246413   0.751   4.030  15.616
 8308TIP3   OH246414   0.760   5.643  13.944
 8308TIP3    H146415   0.856   5.656  13.952
 8308TIP3    H246416   0.741   5.707  13.874
 8309TIP3   OH246417   0.123   5.107  13.898
 8309TIP3    H146418   0.220   5.114  13.913
 8309TIP3    H246419   0.122   5.041  13.825
 8310TIP3   OH246420   7.353   5.650  14.384
 8310TIP3    H146421   7.271   5.617  14.343
 8310TIP3    H246422   7.370   5.582  14.453
 8311TIP3   OH246423   0.069   5.457  14.572
 8311TIP3    H146424   0.040   5.366  14.595
 8311TIP3    H246425   0.097   5.487  14.661
 8312TIP3   OH246426   1.827   5.534  14.871
 8312TIP3    H146427   1.829   5.551  14.967
 8312TIP3    H246428   1.897   5.592  14.840
 8313TIP3   OH246429   1.784   5.494  15.165
 8313TIP3    H146430   1.737   5.416  15.128
 8313TIP3    H246431   1.836   5.449  15.235
 8314TIP3   OH246432   1.630   5.065  15.631
 8314TIP3    H146433   1.540   5.062  15.670
 8314TIP3    H246434   1.666   5.145  15.676
 8315TIP3   OH246435   1.758   4.900  14.177
 8315TIP3    H146436   1.847   4.936  14.194
 8315TIP3    H246437   1.760   4.824  14.242
 8316TIP3   OH246438   1.792   4.711  14.365
 8316TIP3    H146439   1.725   4.651  14.403
 8316TIP3    H246440   1.859   4.718  14.436
 8317TIP3   OH246441   1.773   4.976  14.861
 8317TIP3    H146442   1.855   4.939  14.826
 8317TIP3    H246443   1.787   5.072  14.845
 8318TIP3   OH246444   1.627   5.266  15.090
 8318TIP3    H146445   1.558   5.300  15.149
 8318TIP3    H246446   1.572   5.225  15.019
 8319TIP3   OH246447   1.826   4.688  14.002
 8319TIP3    H146448   1.771   4.726  13.931
 8319TIP3    H246449   1.821   4.757  14.070
 8320TIP3   OH246450   1.664   4.413  13.856
 8320TIP3    H146451   1.671   4.480  13.787
 8320TIP3    H246452   1.646   4.330  13.807
 8321TIP3   OH246453   1.574   4.554  14.419
 8321TIP3    H146454   1.565   4.458  14.417
 8321TIP3    H246455   1.544   4.577  14.508
 8322TIP3   OH246456   0.078   4.761  14.824
 8322TIP3    H146457   0.097   4.755  14.727
 8322TIP3    H246458   0.166   4.747  14.863
 8323TIP3   OH246459   1.663   4.750  15.389
 8323TIP3    H146460   1.725   4.675  15.402
 8323TIP3    H246461   1.723   4.828  15.389
 8324TIP3   OH246462   1.813   4.540  15.455
 8324TIP3    H146463   1.726   4.499  15.436
 8324TIP3    H246464   1.872   4.463  15.446
 8325TIP3   OH246465   1.587   4.158  13.768
 8325TIP3    H146466   1.647   4.116  13.832
 8325TIP3    H246467   1.502   4.115  13.785
 8326TIP3   OH246468   1.545   4.312  14.263
 8326TIP3    H146469   1.576   4.220  14.279
 8326TIP3    H246470   1.627   4.353  14.232
 8327TIP3   OH246471   1.609   4.366  14.810
 8327TIP3    H146472   1.705   4.390  14.808
 8327TIP3    H246473   1.589   4.380  14.904
 8328TIP3   OH246474   1.616   4.439  15.088
 8328TIP3    H146475   1.528   4.468  15.122
 8328TIP3    H246476   1.658   4.525  15.066
 8329TIP3   OH246477   0.058   4.283  15.440
 8329TIP3    H146478   0.148   4.265  15.466
 8329TIP3    H246479   0.000   4.211  15.475
 8330TIP3   OH246480   1.842   3.843  15.623
 8330TIP3    H146481   1.876   3.777  15.561
 8330TIP3    H246482   1.854   3.926  15.574
 8331TIP3   OH246483   1.612   4.040  14.271
 8331TIP3    H146484   1.632   3.995  14.355
 8331TIP3    H246485   1.551   3.977  14.226
 8332TIP3   OH246486   0.157   4.117  14.728
 8332TIP3    H146487   0.209   4.039  14.754
 8332TIP3    H246488   0.211   4.188  14.767
 8333TIP3   OH246489   0.063   4.465  14.868
 8333TIP3    H146490   0.059   4.430  14.776
 8333TIP3    H246491   0.034   4.553  14.849
 8334TIP3   OH246492   1.795   4.054  15.459
 8334TIP3    H146493   1.701   4.080  15.453
 8334TIP3    H246494   1.800   3.999  15.379
 8335TIP3   OH246495   1.794   4.044  13.926
 8335TIP3    H146496   1.836   3.972  13.874
 8335TIP3    H246497   1.864   4.111  13.931
 8336TIP3   OH246498   0.063   4.047  14.212
 8336TIP3    H146499  -0.032   4.067  14.214
 8336TIP3    H246500   0.090   4.112  14.147
 8337TIP3   OH246501   1.499   5.542  14.433
 8337TIP3    H146502   1.567   5.510  14.371
 8337TIP3    H246503   1.552   5.592  14.497
 8338TIP3   OH246504   7.378   3.912  15.078
 8338TIP3    H146505   7.302   3.891  15.135
 8338TIP3    H246506   7.325   3.970  15.019
 8339TIP3   OH246507   0.244   5.237  15.486
 8339TIP3    H146508   0.160   5.253  15.441
 8339TIP3    H246509   0.216   5.226  15.577
 8340TIP3   OH246510   0.535   5.334  15.112
 8340TIP3    H146511   0.496   5.417  15.083
 8340TIP3    H246512   0.627   5.343  15.080
 8341TIP3   OH246513   0.966   5.475  15.403
 8341TIP3    H146514   0.982   5.440  15.495
 8341TIP3    H246515   1.055   5.505  15.377
 8342TIP3   OH246516   1.196   5.602  15.332
 8342TIP3    H146517   1.269   5.542  15.309
 8342TIP3    H246518   1.234   5.644  15.412
 8343TIP3   OH246519   1.696   3.863  15.243
 8343TIP3    H146520   1.613   3.893  15.201
 8343TIP3    H246521   1.714   3.783  15.189
 8344TIP3   OH246522   0.278   5.658  15.115
 8344TIP3    H146523   0.203   5.704  15.072
 8344TIP3    H246524   0.241   5.636  15.201
 8345TIP3   OH246525   0.524   5.616  15.019
 8345TIP3    H146526   0.435   5.629  15.059
 8345TIP3    H246527   0.518   5.674  14.941
 8346TIP3   OH246528   0.994   5.606  14.936
 8346TIP3    H146529   0.948   5.661  14.871
 8346TIP3    H246530   1.008   5.670  15.009
 8347TIP3   OH246531   1.225   5.490  15.035
 8347TIP3    H146532   1.137   5.514  15.002
 8347TIP3    H246533   1.270   5.575  15.027
 8348TIP3   OH246534   1.483   5.646  15.061
 8348TIP3    H146535   1.473   5.742  15.038
 8348TIP3    H246536   1.503   5.609  14.973
 8349TIP3   OH246537   0.218   5.522  14.804
 8349TIP3    H146538   0.216   5.479  14.892
 8349TIP3    H246539   0.300   5.485  14.766
 8350TIP3   OH246540   0.430   5.393  14.670
 8350TIP3    H146541   0.412   5.299  14.692
 8350TIP3    H246542   0.515   5.407  14.717
 8351TIP3   OH246543   0.689   5.441  14.758
 8351TIP3    H146544   0.706   5.349  14.731
 8351TIP3    H246545   0.694   5.435  14.854
 8352TIP3   OH246546   1.036   4.006  14.673
 8352TIP3    H146547   0.968   3.942  14.699
 8352TIP3    H246548   1.091   3.954  14.613
 8353TIP3   OH246549   1.549   3.813  14.681
 8353TIP3    H146550   1.611   3.871  14.629
 8353TIP3    H246551   1.462   3.848  14.656
 8354TIP3   OH246552   1.717   3.933  14.510
 8354TIP3    H146553   1.786   3.879  14.464
 8354TIP3    H246554   1.765   4.019  14.518
 8355TIP3   OH246555   0.270   3.868  14.457
 8355TIP3    H146556   0.193   3.846  14.401
 8355TIP3    H246557   0.322   3.786  14.450
 8356TIP3   OH246558   0.188   3.856  14.043
 8356TIP3    H146559   0.204   3.915  13.969
 8356TIP3    H246560   0.106   3.891  14.082
 8357TIP3   OH246561   0.722   3.862  14.435
 8357TIP3    H146562   0.812   3.899  14.430
 8357TIP3    H246563   0.716   3.840  14.528
 8358TIP3   OH246564   1.289   3.864  14.599
 8358TIP3    H146565   1.288   3.874  14.503
 8358TIP3    H246566   1.253   3.773  14.612
 8359TIP3   OH246567   1.419   3.867  14.167
 8359TIP3    H146568   1.345   3.927  14.149
 8359TIP3    H246569   1.374   3.782  14.187
 8360TIP3   OH246570   0.154   5.447  14.122
 8360TIP3    H146571   0.076   5.440  14.063
 8360TIP3    H246572   0.142   5.539  14.151
 8361TIP3   OH246573   0.335   4.041  13.878
 8361TIP3    H146574   0.388   3.977  13.827
 8361TIP3    H246575   0.399   4.069  13.945
 8362TIP3   OH246576   0.837   4.065  14.121
 8362TIP3    H146577   0.860   4.006  14.194
 8362TIP3    H246578   0.840   4.151  14.169
 8363TIP3   OH246579   1.028   5.568  13.966
 8363TIP3    H146580   1.119   5.596  13.944
 8363TIP3    H246581   1.006   5.519  13.884
 8364TIP3   OH246582   1.700   5.521  14.236
 8364TIP3    H146583   1.679   5.444  14.178
 8364TIP3    H246584   1.693   5.595  14.172
 8365TIP3   OH246585   0.258   3.925  15.406
 8365TIP3    H146586   0.225   3.843  15.445
 8365TIP3    H246587   0.351   3.920  15.437
 8366TIP3   OH246588   0.462   3.860  15.562
 8366TIP3    H146589   0.551   3.826  15.541
 8366TIP3    H246590   0.422   3.782  15.606
 8367TIP3   OH246591   0.321   5.536  13.825
 8367TIP3    H146592   0.296   5.564  13.914
 8367TIP3    H246593   0.400   5.482  13.842
 8368TIP3   OH246594   1.302   3.790  15.580
 8368TIP3    H146595   1.313   3.744  15.666
 8368TIP3    H246596   1.394   3.788  15.545
 8369TIP3   OH246597   1.623   5.394  15.448
 8369TIP3    H146598   1.543   5.380  15.392
 8369TIP3    H246599   1.612   5.490  15.468
 8370TIP3   OH246600   3.067   4.763  14.430
 8370TIP3    H146601   3.081   4.854  14.404
 8370TIP3    H246602   2.988   4.744  14.373
 8371TIP3   OH246603   2.955   4.711  14.790
 8371TIP3    H146604   2.951   4.646  14.863
 8371TIP3    H246605   2.918   4.657  14.717
 8372TIP3   OH246606   2.189   4.675  14.949
 8372TIP3    H146607   2.197   4.608  15.020
 8372TIP3    H246608   2.263   4.733  14.970
 8373TIP3   OH246609   3.313   5.004  14.619
 8373TIP3    H146610   3.287   4.930  14.674
 8373TIP3    H246611   3.327   5.075  14.687
 8374TIP3   OH246612   2.282   5.120  14.801
 8374TIP3    H146613   2.249   5.034  14.767
 8374TIP3    H246614   2.377   5.101  14.805
 8375TIP3   OH246615   1.891   4.452  14.375
 8375TIP3    H146616   1.907   4.547  14.349
 8375TIP3    H246617   1.889   4.419  14.285
 8376TIP3   OH246618   2.018   4.703  14.565
 8376TIP3    H146619   2.041   4.618  14.606
 8376TIP3    H246620   2.083   4.707  14.492
 8377TIP3   OH246621   3.034   5.517  14.644
 8377TIP3    H146622   3.099   5.449  14.617
 8377TIP3    H246623   3.014   5.489  14.733
 8378TIP3   OH246624   2.793   4.953  14.834
 8378TIP3    H146625   2.823   4.883  14.776
 8378TIP3    H246626   2.869   4.964  14.894
 8379TIP3   OH246627   3.653   4.113  14.914
 8379TIP3    H146628   3.668   4.174  14.990
 8379TIP3    H246629   3.706   4.158  14.846
 8380TIP3   OH246630   3.108   4.395  14.870
 8380TIP3    H146631   3.123   4.299  14.870
 8380TIP3    H246632   3.097   4.409  14.774
 8381TIP3   OH246633   2.420   4.204  14.593
 8381TIP3    H146634   2.428   4.289  14.545
 8381TIP3    H246635   2.378   4.147  14.525
 8382TIP3   OH246636   3.193   4.213  14.430
 8382TIP3    H146637   3.259   4.182  14.496
 8382TIP3    H246638   3.249   4.269  14.374
 8383TIP3   OH246639   2.082   4.444  14.668
 8383TIP3    H146640   2.150   4.388  14.711
 8383TIP3    H246641   2.090   4.416  14.575
 8384TIP3   OH246642   2.600   4.601  14.595
 8384TIP3    H146643   2.663   4.542  14.639
 8384TIP3    H246644   2.544   4.535  14.548
 8385TIP3   OH246645   3.697   4.257  15.140
 8385TIP3    H146646   3.632   4.330  15.131
 8385TIP3    H246647   3.699   4.244  15.236
 8386TIP3   OH246648   2.308   4.094  14.998
 8386TIP3    H146649   2.281   4.150  14.922
 8386TIP3    H246650   2.240   4.118  15.065
 8387TIP3   OH246651   3.036   5.041  14.354
 8387TIP3    H146652   3.013   5.016  14.262
 8387TIP3    H246653   3.009   5.137  14.355
 8388TIP3   OH246654   2.562   4.859  15.023
 8388TIP3    H146655   2.490   4.923  15.041
 8388TIP3    H246656   2.632   4.919  14.994
 8389TIP3   OH246657   3.372   4.147  14.630
 8389TIP3    H146658   3.351   4.070  14.683
 8389TIP3    H246659   3.440   4.191  14.684
 8390TIP3   OH246660   2.265   4.281  14.798
 8390TIP3    H146661   2.329   4.348  14.831
 8390TIP3    H246662   2.318   4.238  14.727
 8391TIP3   OH246663   2.405   5.058  15.104
 8391TIP3    H146664   2.401   5.149  15.069
 8391TIP3    H246665   2.317   5.051  15.148
 8392TIP3   OH246666   2.013   5.022  14.184
 8392TIP3    H146667   1.988   5.051  14.095
 8392TIP3    H246668   2.021   5.106  14.233
 8393TIP3   OH246669   3.375   5.186  14.855
 8393TIP3    H146670   3.279   5.198  14.872
 8393TIP3    H246671   3.403   5.279  14.840
 8394TIP3   OH246672   3.407   4.016  14.998
 8394TIP3    H146673   3.334   4.079  14.990
 8394TIP3    H246674   3.477   4.058  14.944
 8395TIP3   OH246675   2.705   3.827  14.744
 8395TIP3    H146676   2.692   3.730  14.737
 8395TIP3    H246677   2.618   3.858  14.773
 8396TIP3   OH246678   3.200   5.364  14.518
 8396TIP3    H146679   3.246   5.295  14.466
 8396TIP3    H246680   3.239   5.445  14.478
 8397TIP3   OH246681   3.317   5.158  14.369
 8397TIP3    H146682   3.294   5.088  14.307
 8397TIP3    H246683   3.328   5.110  14.453
 8398TIP3   OH246684   3.485   5.016  15.218
 8398TIP3    H146685   3.499   4.953  15.145
 8398TIP3    H246686   3.504   5.102  15.177
 8399TIP3   OH246687   2.934   4.710  14.197
 8399TIP3    H146688   2.862   4.762  14.156
 8399TIP3    H246689   3.003   4.714  14.127
 8400TIP3   OH246690   2.939   4.560  13.895
 8400TIP3    H146691   3.010   4.559  13.962
 8400TIP3    H246692   2.972   4.491  13.836
 8401TIP3   OH246693   3.672   4.648  15.023
 8401TIP3    H146694   3.606   4.720  15.029
 8401TIP3    H246695   3.720   4.671  14.942
 8402TIP3   OH246696   3.282   4.731  14.287
 8402TIP3    H146697   3.204   4.747  14.343
 8402TIP3    H246698   3.325   4.658  14.335
 8403TIP3   OH246699   3.270   4.545  15.198
 8403TIP3    H146700   3.271   4.626  15.252
 8403TIP3    H246701   3.206   4.575  15.129
 8404TIP3   OH246702   2.440   4.795  14.478
 8404TIP3    H146703   2.405   4.755  14.394
 8404TIP3    H246704   2.498   4.723  14.511
 8405TIP3   OH246705   2.573   5.135  14.746
 8405TIP3    H146706   2.568   5.079  14.668
 8405TIP3    H246707   2.649   5.097  14.793
 8406TIP3   OH246708   2.473   4.668  14.843
 8406TIP3    H146709   2.530   4.680  14.764
 8406TIP3    H246710   2.510   4.735  14.905
 8407TIP3   OH246711   3.111   5.224  14.913
 8407TIP3    H146712   3.084   5.288  14.980
 8407TIP3    H246713   3.087   5.139  14.959
 8408TIP3   OH246714   2.567   5.111  15.314
 8408TIP3    H146715   2.528   5.187  15.362
 8408TIP3    H246716   2.499   5.092  15.244
 8409TIP3   OH246717   3.163   4.649  14.056
 8409TIP3    H146718   3.222   4.663  14.133
 8409TIP3    H246719   3.207   4.696  13.983
 8410TIP3   OH246720   2.260   4.727  15.232
 8410TIP3    H146721   2.264   4.794  15.303
 8410TIP3    H246722   2.167   4.738  15.207
 8411TIP3   OH246723   2.936   5.318  14.402
 8411TIP3    H146724   2.980   5.353  14.480
 8411TIP3    H246725   2.880   5.393  14.377
 8412TIP3   OH246726   2.391   5.316  15.389
 8412TIP3    H146727   2.387   5.304  15.293
 8412TIP3    H246728   2.297   5.303  15.415
 8413TIP3   OH246729   3.536   3.820  14.041
 8413TIP3    H146730   3.442   3.834  14.068
 8413TIP3    H246731   3.558   3.905  13.999
 8414TIP3   OH246732   2.355   4.700  14.229
 8414TIP3    H146733   2.308   4.775  14.190
 8414TIP3    H246734   2.276   4.639  14.225
 8415TIP3   OH246735   3.649   5.256  13.879
 8415TIP3    H146736   3.663   5.351  13.895
 8415TIP3    H246737   3.742   5.227  13.875
 8416TIP3   OH246738   1.946   4.938  15.126
 8416TIP3    H146739   1.899   4.931  15.041
 8416TIP3    H246740   1.951   4.844  15.150
 8417TIP3   OH246741   1.921   5.213  14.807
 8417TIP3    H146742   2.017   5.201  14.805
 8417TIP3    H246743   1.913   5.294  14.859
 8418TIP3   OH246744   3.744   5.282  15.373
 8418TIP3    H146745   3.734   5.186  15.374
 8418TIP3    H246746   3.659   5.307  15.416
 8419TIP3   OH246747   2.841   5.237  15.262
 8419TIP3    H146748   2.847   5.321  15.313
 8419TIP3    H246749   2.753   5.202  15.288
 8420TIP3   OH246750   2.884   5.612  14.243
 8420TIP3    H146751   2.874   5.603  14.146
 8420TIP3    H246752   2.885   5.708  14.256
 8421TIP3   OH246753   2.248   5.498  14.423
 8421TIP3    H146754   2.262   5.457  14.511
 8421TIP3    H246755   2.163   5.458  14.399
 8422TIP3   OH246756   3.191   5.532  13.941
 8422TIP3    H146757   3.234   5.456  13.896
 8422TIP3    H246758   3.193   5.505  14.035
 8423TIP3   OH246759   3.160   5.525  14.217
 8423TIP3    H146760   3.064   5.533  14.236
 8423TIP3    H246761   3.184   5.452  14.276
 8424TIP3   OH246762   3.459   4.430  15.421
 8424TIP3    H146763   3.413   4.476  15.350
 8424TIP3    H246764   3.459   4.338  15.392
 8425TIP3   OH246765   2.173   5.070  15.223
 8425TIP3    H146766   2.195   5.033  15.311
 8425TIP3    H246767   2.086   5.030  15.202
 8426TIP3   OH246768   2.440   3.916  14.820
 8426TIP3    H146769   2.350   3.906  14.782
 8426TIP3    H246770   2.429   4.001  14.866
 8427TIP3   OH246771   2.904   3.886  15.156
 8427TIP3    H146772   2.944   3.843  15.234
 8427TIP3    H246773   2.807   3.871  15.170
 8428TIP3   OH246774   3.235   4.267  15.245
 8428TIP3    H146775   3.179   4.248  15.324
 8428TIP3    H246776   3.217   4.360  15.221
 8429TIP3   OH246777   3.309   4.750  13.829
 8429TIP3    H146778   3.311   4.730  13.733
 8429TIP3    H246779   3.396   4.793  13.839
 8430TIP3   OH246780   2.870   4.141  13.886
 8430TIP3    H146781   2.839   4.137  13.978
 8430TIP3    H246782   2.839   4.053  13.856
 8431TIP3   OH246783   2.450   4.413  14.940
 8431TIP3    H146784   2.378   4.412  15.006
 8431TIP3    H246785   2.447   4.506  14.907
 8432TIP3   OH246786   2.448   4.428  14.430
 8432TIP3    H146787   2.354   4.403  14.416
 8432TIP3    H246788   2.486   4.398  14.345
 8433TIP3   OH246789   2.999   4.478  14.309
 8433TIP3    H146790   2.958   4.558  14.271
 8433TIP3    H246791   3.068   4.460  14.242
 8434TIP3   OH246792   2.905   4.497  15.452
 8434TIP3    H146793   2.852   4.420  15.483
 8434TIP3    H246794   2.990   4.484  15.498
 8435TIP3   OH246795   3.101   4.426  14.590
 8435TIP3    H146796   3.076   4.480  14.515
 8435TIP3    H246797   3.113   4.340  14.544
 8436TIP3   OH246798   2.215   4.442  15.114
 8436TIP3    H146799   2.219   4.483  15.202
 8436TIP3    H246800   2.169   4.359  15.132
 8437TIP3   OH246801   2.553   4.181  13.797
 8437TIP3    H146802   2.508   4.138  13.873
 8437TIP3    H246803   2.481   4.221  13.748
 8438TIP3   OH246804   1.877   4.149  14.509
 8438TIP3    H146805   1.947   4.151  14.578
 8438TIP3    H246806   1.925   4.115  14.431
 8439TIP3   OH246807   2.005   4.223  14.044
 8439TIP3    H146808   2.056   4.288  13.990
 8439TIP3    H246809   1.937   4.285  14.078
 8440TIP3   OH246810   3.023   4.585  15.049
 8440TIP3    H146811   3.059   4.517  14.989
 8440TIP3    H246812   2.978   4.531  15.117
 8441TIP3   OH246813   2.702   4.180  14.531
 8441TIP3    H146814   2.609   4.183  14.561
 8441TIP3    H246815   2.752   4.168  14.613
 8442TIP3   OH246816   2.183   4.335  14.421
 8442TIP3    H146817   2.097   4.354  14.379
 8442TIP3    H246818   2.213   4.254  14.376
 8443TIP3   OH246819   2.550   4.339  14.179
 8443TIP3    H146820   2.645   4.353  14.197
 8443TIP3    H246821   2.524   4.409  14.116
 8444TIP3   OH246822   3.143   4.104  14.856
 8444TIP3    H146823   3.074   4.112  14.925
 8444TIP3    H246824   3.093   4.082  14.776
 8445TIP3   OH246825   2.420   4.458  13.938
 8445TIP3    H146826   2.364   4.422  13.867
 8445TIP3    H246827   2.501   4.480  13.891
 8446TIP3   OH246828   3.464   5.669  15.489
 8446TIP3    H146829   3.491   5.708  15.404
 8446TIP3    H246830   3.537   5.701  15.546
 8447TIP3   OH246831   2.232   4.916  15.445
 8447TIP3    H146832   2.303   4.941  15.506
 8447TIP3    H246833   2.154   4.929  15.502
 8448TIP3   OH246834   2.833   4.459  14.720
 8448TIP3    H146835   2.890   4.402  14.666
 8448TIP3    H246836   2.817   4.404  14.798
 8449TIP3   OH246837   2.333   4.072  14.364
 8449TIP3    H146838   2.302   3.979  14.361
 8449TIP3    H246839   2.412   4.067  14.308
 8450TIP3   OH246840   2.696   4.291  14.961
 8450TIP3    H146841   2.612   4.342  14.971
 8450TIP3    H246842   2.750   4.325  15.035
 8451TIP3   OH246843   2.754   4.914  14.132
 8451TIP3    H146844   2.675   4.866  14.097
 8451TIP3    H246845   2.732   4.923  14.226
 8452TIP3   OH246846   3.471   4.831  15.012
 8452TIP3    H146847   3.529   4.879  14.950
 8452TIP3    H246848   3.385   4.839  14.965
 8453TIP3   OH246849   3.138   4.195  13.949
 8453TIP3    H146850   3.043   4.209  13.935
 8453TIP3    H246851   3.171   4.281  13.983
 8454TIP3   OH246852   2.903   4.937  15.255
 8454TIP3    H146853   2.868   4.897  15.335
 8454TIP3    H246854   2.880   5.030  15.264
 8455TIP3   OH246855   3.211   4.386  14.114
 8455TIP3    H146856   3.301   4.371  14.151
 8455TIP3    H246857   3.220   4.467  14.061
 8456TIP3   OH246858   2.266   4.852  14.712
 8456TIP3    H146859   2.334   4.844  14.643
 8456TIP3    H246860   2.271   4.765  14.756
 8457TIP3   OH246861   2.966   5.060  14.037
 8457TIP3    H146862   2.930   5.145  14.069
 8457TIP3    H246863   2.891   4.999  14.054
 8458TIP3   OH246864   1.964   4.693  15.238
 8458TIP3    H146865   1.983   4.649  15.323
 8458TIP3    H246866   1.902   4.630  15.195
 8459TIP3   OH246867   2.665   4.647  15.458
 8459TIP3    H146868   2.634   4.621  15.370
 8459TIP3    H246869   2.758   4.618  15.456
 8460TIP3   OH246870   3.132   5.181  15.249
 8460TIP3    H146871   3.039   5.200  15.226
 8460TIP3    H246872   3.130   5.210  15.342
 8461TIP3   OH246873   3.701   4.401  14.089
 8461TIP3    H146874   3.644   4.370  14.016
 8461TIP3    H246875   3.709   4.495  14.061
 8462TIP3   OH246876   3.699   4.986  15.371
 8462TIP3    H146877   3.610   5.008  15.333
 8462TIP3    H246878   3.755   4.982  15.291
 8463TIP3   OH246879   3.528   5.283  14.130
 8463TIP3    H146880   3.493   5.200  14.164
 8463TIP3    H246881   3.560   5.263  14.041
 8464TIP3   OH246882   3.248   4.767  14.833
 8464TIP3    H146883   3.155   4.740  14.833
 8464TIP3    H246884   3.293   4.687  14.800
 8465TIP3   OH246885   2.502   5.197  14.449
 8465TIP3    H146886   2.553   5.277  14.428
 8465TIP3    H246887   2.414   5.221  14.417
 8466TIP3   OH246888   2.077   4.685  13.901
 8466TIP3    H146889   2.137   4.745  13.950
 8466TIP3    H246890   1.990   4.712  13.935
 8467TIP3   OH246891   2.647   4.964  14.405
 8467TIP3    H146892   2.614   5.056  14.410
 8467TIP3    H246893   2.570   4.916  14.444
 8468TIP3   OH246894   2.690   5.381  15.041
 8468TIP3    H146895   2.733   5.464  15.014
 8468TIP3    H246896   2.750   5.349  15.110
 8469TIP3   OH246897   2.512   5.464  14.356
 8469TIP3    H146898   2.415   5.477  14.367
 8469TIP3    H246899   2.547   5.548  14.391
 8470TIP3   OH246900   3.042   4.983  15.001
 8470TIP3    H146901   3.008   4.966  15.092
 8470TIP3    H246902   3.108   4.912  14.990
 8471TIP3   OH246903   3.273   5.087  13.913
 8471TIP3    H146904   3.304   5.042  13.994
 8471TIP3    H246905   3.177   5.071  13.923
 8472TIP3   OH246906   3.321   5.441  15.255
 8472TIP3    H146907   3.254   5.390  15.204
 8472TIP3    H246908   3.342   5.511  15.188
 8473TIP3   OH246909   3.721   5.526  13.937
 8473TIP3    H146910   3.792   5.591  13.919
 8473TIP3    H246911   3.650   5.587  13.967
 8474TIP3   OH246912   2.129   4.167  15.193
 8474TIP3    H146913   2.038   4.201  15.189
 8474TIP3    H246914   2.117   4.082  15.238
 8475TIP3   OH246915   3.352   4.953  14.139
 8475TIP3    H146916   3.330   4.873  14.191
 8475TIP3    H246917   3.448   4.958  14.155
 8476TIP3   OH246918   2.092   5.346  15.035
 8476TIP3    H146919   2.118   5.252  15.036
 8476TIP3    H246920   2.117   5.374  15.124
 8477TIP3   OH246921   2.685   5.196  13.761
 8477TIP3    H146922   2.699   5.119  13.704
 8477TIP3    H246923   2.646   5.153  13.840
 8478TIP3   OH246924   2.568   5.149  14.007
 8478TIP3    H146925   2.590   5.098  14.085
 8478TIP3    H246926   2.573   5.242  14.039
 8479TIP3   OH246927   2.218   4.875  14.054
 8479TIP3    H146928   2.148   4.910  14.113
 8479TIP3    H246929   2.270   4.953  14.030
 8480TIP3   OH246930   3.001   4.143  15.086
 8480TIP3    H146931   3.072   4.149  15.151
 8480TIP3    H246932   2.963   4.055  15.105
 8481TIP3   OH246933   3.078   4.101  14.196
 8481TIP3    H146934   3.101   4.149  14.113
 8481TIP3    H246935   3.135   4.145  14.260
 8482TIP3   OH246936   2.846   5.317  14.079
 8482TIP3    H146937   2.764   5.370  14.085
 8482TIP3    H246938   2.899   5.370  14.017
 8483TIP3   OH246939   2.799   4.277  14.278
 8483TIP3    H146940   2.879   4.333  14.283
 8483TIP3    H246941   2.774   4.264  14.371
 8484TIP3   OH246942   2.854   4.378  15.197
 8484TIP3    H146943   2.863   4.435  15.276
 8484TIP3    H246944   2.920   4.308  15.207
 8485TIP3   OH246945   2.885   3.983  14.369
 8485TIP3    H146946   2.853   4.048  14.434
 8485TIP3    H246947   2.954   4.037  14.323
 8486TIP3   OH246948   2.584   5.420  14.080
 8486TIP3    H146949   2.595   5.503  14.026
 8486TIP3    H246950   2.559   5.456  14.168
 8487TIP3   OH246951   2.451   4.092  14.039
 8487TIP3    H146952   2.445   4.182  14.076
 8487TIP3    H246953   2.542   4.068  14.064
 8488TIP3   OH246954   3.474   4.166  15.282
 8488TIP3    H146955   3.380   4.196  15.269
 8488TIP3    H246956   3.504   4.165  15.189
 8489TIP3   OH246957   3.333   4.545  14.685
 8489TIP3    H146958   3.252   4.499  14.655
 8489TIP3    H246959   3.381   4.475  14.736
 8490TIP3   OH246960   2.275   5.136  13.944
 8490TIP3    H146961   2.339   5.202  13.973
 8490TIP3    H246962   2.326   5.091  13.874
 8491TIP3   OH246963   2.110   4.403  13.854
 8491TIP3    H146964   2.109   4.498  13.879
 8491TIP3    H246965   2.020   4.384  13.829
 8492TIP3   OH246966   3.440   5.468  14.851
 8492TIP3    H146967   3.430   5.537  14.783
 8492TIP3    H246968   3.537   5.476  14.869
 8493TIP3   OH246969   2.190   3.882  14.729
 8493TIP3    H146970   2.169   3.885  14.633
 8493TIP3    H246971   2.147   3.798  14.756
 8494TIP3   OH246972   2.086   5.274  14.344
 8494TIP3    H146973   2.001   5.320  14.342
 8494TIP3    H246974   2.135   5.323  14.277
 8495TIP3   OH246975   2.008   5.539  15.474
 8495TIP3    H146976   2.067   5.517  15.549
 8495TIP3    H246977   1.965   5.453  15.456
 8496TIP3   OH246978   2.472   5.427  15.637
 8496TIP3    H146979   2.550   5.381  15.668
 8496TIP3    H246980   2.471   5.404  15.542
 8497TIP3   OH246981   2.886   5.382  13.774
 8497TIP3    H146982   2.818   5.316  13.801
 8497TIP3    H246983   2.959   5.323  13.750
 8498TIP3   OH246984   3.126   5.268  15.506
 8498TIP3    H146985   3.094   5.180  15.535
 8498TIP3    H246986   3.202   5.281  15.566
 8499TIP3   OH246987   3.343   5.358  13.794
 8499TIP3    H146988   3.372   5.280  13.843
 8499TIP3    H246989   3.419   5.381  13.739
 8500TIP3   OH246990   1.999   4.916  15.572
 8500TIP3    H146991   2.016   4.825  15.540
 8500TIP3    H246992   1.925   4.943  15.516
 8501TIP3   OH246993   2.433   4.951  13.779
 8501TIP3    H146994   2.446   4.873  13.835
 8501TIP3    H246995   2.506   4.938  13.715
 8502TIP3   OH246996   2.669   4.914  15.512
 8502TIP3    H146997   2.636   4.944  15.426
 8502TIP3    H246998   2.679   4.817  15.502
 8503TIP3   OH246999   2.974   5.060  13.754
 8503TIP3    H147000   2.947   5.071  13.846
 8503TIP3    H247001   2.954   4.965  13.741
 8504TIP3   OH247002   3.240   4.902  15.251
 8504TIP3    H147003   3.317   4.962  15.243
 8504TIP3    H247004   3.168   4.967  15.255
 8505TIP3   OH247005   2.087   4.639  15.511
 8505TIP3    H147006   2.129   4.553  15.501
 8505TIP3    H247007   2.064   4.639  15.606
 8506TIP3   OH247008   2.554   4.752  14.016
 8506TIP3    H147009   2.502   4.700  14.081
 8506TIP3    H247010   2.579   4.683  13.951
 8507TIP3   OH247011   2.480   4.535  15.248
 8507TIP3    H147012   2.419   4.606  15.274
 8507TIP3    H247013   2.517   4.571  15.166
 8508TIP3   OH247014   2.660   4.574  13.838
 8508TIP3    H147015   2.644   4.563  13.743
 8508TIP3    H247016   2.757   4.581  13.844
 8509TIP3   OH247017   2.985   4.789  15.582
 8509TIP3    H147018   3.081   4.790  15.571
 8509TIP3    H247019   2.969   4.713  15.639
 8510TIP3   OH247020   3.596   4.807  13.781
 8510TIP3    H147021   3.573   4.768  13.696
 8510TIP3    H247022   3.602   4.903  13.761
 8511TIP3   OH247023   2.519   4.272  15.354
 8511TIP3    H147024   2.531   4.200  15.290
 8511TIP3    H247025   2.515   4.353  15.298
 8512TIP3   OH247026   2.559   4.110  15.108
 8512TIP3    H147027   2.611   4.156  15.038
 8512TIP3    H247028   2.471   4.101  15.066
 8513TIP3   OH247029   2.714   4.656  15.133
 8513TIP3    H147030   2.790   4.640  15.074
 8513TIP3    H247031   2.679   4.741  15.100
 8514TIP3   OH247032   3.153   4.434  15.629
 8514TIP3    H147033   3.176   4.340  15.621
 8514TIP3    H247034   3.240   4.477  15.631
 8515TIP3   OH247035   3.288   4.713  15.445
 8515TIP3    H147036   3.262   4.785  15.383
 8515TIP3    H247037   3.384   4.709  15.425
 8516TIP3   OH247038   2.367   4.396  15.547
 8516TIP3    H147039   2.288   4.340  15.527
 8516TIP3    H247040   2.431   4.360  15.483
 8517TIP3   OH247041   2.637   3.853  15.151
 8517TIP3    H147042   2.624   3.950  15.138
 8517TIP3    H247043   2.564   3.819  15.097
 8518TIP3   OH247044   2.766   4.285  15.508
 8518TIP3    H147045   2.736   4.265  15.598
 8518TIP3    H247046   2.686   4.267  15.454
 8519TIP3   OH247047   3.037   4.200  15.415
 8519TIP3    H147048   2.941   4.205  15.429
 8519TIP3    H247049   3.065   4.137  15.483
 8520TIP3   OH247050   3.195   4.063  15.611
 8520TIP3    H147051   3.190   3.966  15.612
 8520TIP3    H247052   3.168   4.092  15.701
 8521TIP3   OH247053   2.177   4.189  15.520
 8521TIP3    H147054   2.201   4.117  15.460
 8521TIP3    H247055   2.167   4.143  15.606
 8522TIP3   OH247056   2.656   3.786  15.417
 8522TIP3    H147057   2.731   3.722  15.415
 8522TIP3    H247058   2.651   3.810  15.322
 8523TIP3   OH247059   2.695   3.953  15.626
 8523TIP3    H147060   2.681   3.904  15.541
 8523TIP3    H247061   2.637   4.030  15.616
 8524TIP3   OH247062   2.644   5.644  13.944
 8524TIP3    H147063   2.741   5.656  13.952
 8524TIP3    H247064   2.627   5.707  13.874
 8525TIP3   OH247065   2.001   5.104  13.891
 8525TIP3    H147066   2.097   5.112  13.912
 8525TIP3    H247067   2.006   5.037  13.819
 8526TIP3   OH247068   1.876   5.642  14.391
 8526TIP3    H147069   1.805   5.594  14.343
 8526TIP3    H247070   1.905   5.576  14.455
 8527TIP3   OH247071   1.959   5.454  14.576
 8527TIP3    H147072   1.924   5.366  14.595
 8527TIP3    H247073   1.981   5.487  14.665
 8528TIP3   OH247074   3.712   5.534  14.871
 8528TIP3    H147075   3.714   5.551  14.967
 8528TIP3    H247076   3.783   5.592  14.840
 8529TIP3   OH247077   3.670   5.494  15.165
 8529TIP3    H147078   3.622   5.416  15.128
 8529TIP3    H247079   3.721   5.449  15.235
 8530TIP3   OH247080   3.515   5.065  15.631
 8530TIP3    H147081   3.426   5.062  15.670
 8530TIP3    H247082   3.552   5.145  15.676
 8531TIP3   OH247083   3.645   4.898  14.177
 8531TIP3    H147084   3.732   4.938  14.194
 8531TIP3    H247085   3.646   4.824  14.242
 8532TIP3   OH247086   3.683   4.705  14.363
 8532TIP3    H147087   3.608   4.654  14.403
 8532TIP3    H247088   3.742   4.720  14.439
 8533TIP3   OH247089   3.658   4.976  14.861
 8533TIP3    H147090   3.741   4.940  14.826
 8533TIP3    H247091   3.672   5.072  14.845
 8534TIP3   OH247092   3.513   5.266  15.090
 8534TIP3    H147093   3.444   5.300  15.149
 8534TIP3    H247094   3.458   5.225  15.019
 8535TIP3   OH247095   3.712   4.689  14.003
 8535TIP3    H147096   3.656   4.725  13.931
 8535TIP3    H247097   3.704   4.759  14.069
 8536TIP3   OH247098   3.549   4.412  13.855
 8536TIP3    H147099   3.556   4.480  13.786
 8536TIP3    H247100   3.531   4.330  13.806
 8537TIP3   OH247101   3.462   4.554  14.419
 8537TIP3    H147102   3.449   4.458  14.417
 8537TIP3    H247103   3.430   4.577  14.508
 8538TIP3   OH247104   1.964   4.762  14.826
 8538TIP3    H147105   1.984   4.753  14.729
 8538TIP3    H247106   2.053   4.746  14.862
 8539TIP3   OH247107   3.549   4.750  15.389
 8539TIP3    H147108   3.610   4.675  15.402
 8539TIP3    H247109   3.609   4.828  15.389
 8540TIP3   OH247110   3.699   4.540  15.455
 8540TIP3    H147111   3.612   4.499  15.436
 8540TIP3    H247112   3.758   4.463  15.446
 8541TIP3   OH247113   3.473   4.158  13.768
 8541TIP3    H147114   3.533   4.116  13.833
 8541TIP3    H247115   3.387   4.115  13.786
 8542TIP3   OH247116   3.430   4.311  14.263
 8542TIP3    H147117   3.462   4.219  14.278
 8542TIP3    H247118   3.511   4.352  14.230
 8543TIP3   OH247119   3.494   4.366  14.810
 8543TIP3    H147120   3.590   4.390  14.808
 8543TIP3    H247121   3.475   4.380  14.904
 8544TIP3   OH247122   3.501   4.439  15.088
 8544TIP3    H147123   3.413   4.468  15.122
 8544TIP3    H247124   3.544   4.525  15.066
 8545TIP3   OH247125   1.926   4.291  15.438
 8545TIP3    H147126   2.019   4.273  15.460
 8545TIP3    H247127   1.881   4.210  15.472
 8546TIP3   OH247128   3.727   3.843  15.623
 8546TIP3    H147129   3.762   3.777  15.561
 8546TIP3    H247130   3.740   3.926  15.574
 8547TIP3   OH247131   3.497   4.040  14.271
 8547TIP3    H147132   3.517   3.995  14.355
 8547TIP3    H247133   3.436   3.977  14.226
 8548TIP3   OH247134   2.046   4.121  14.725
 8548TIP3    H147135   2.092   4.039  14.752
 8548TIP3    H247136   2.099   4.191  14.767
 8549TIP3   OH247137   1.875   4.420  14.831
 8549TIP3    H147138   1.930   4.398  14.752
 8549TIP3    H247139   1.919   4.502  14.857
 8550TIP3   OH247140   3.680   4.054  15.459
 8550TIP3    H147141   3.586   4.080  15.453
 8550TIP3    H247142   3.686   3.999  15.379
 8551TIP3   OH247143   3.680   4.045  13.925
 8551TIP3    H147144   3.722   3.971  13.875
 8551TIP3    H247145   3.750   4.111  13.932
 8552TIP3   OH247146   1.912   4.045  14.237
 8552TIP3    H147147   1.817   4.065  14.223
 8552TIP3    H247148   1.954   4.097  14.167
 8553TIP3   OH247149   3.385   5.542  14.433
 8553TIP3    H147150   3.453   5.510  14.371
 8553TIP3    H247151   3.437   5.592  14.497
 8554TIP3   OH247152   1.907   3.914  15.069
 8554TIP3    H147153   1.838   3.894  15.135
 8554TIP3    H247154   1.861   3.980  15.013
 8555TIP3   OH247155   2.129   5.235  15.484
 8555TIP3    H147156   2.044   5.254  15.441
 8555TIP3    H247157   2.101   5.228  15.576
 8556TIP3   OH247158   2.420   5.332  15.111
 8556TIP3    H147159   2.384   5.417  15.083
 8556TIP3    H247160   2.512   5.342  15.081
 8557TIP3   OH247161   2.852   5.475  15.404
 8557TIP3    H147162   2.868   5.440  15.495
 8557TIP3    H247163   2.941   5.505  15.377
 8558TIP3   OH247164   3.082   5.602  15.332
 8558TIP3    H147165   3.154   5.542  15.309
 8558TIP3    H247166   3.119   5.644  15.412
 8559TIP3   OH247167   3.582   3.863  15.242
 8559TIP3    H147168   3.499   3.893  15.201
 8559TIP3    H247169   3.600   3.783  15.189
 8560TIP3   OH247170   2.162   5.657  15.113
 8560TIP3    H147171   2.089   5.706  15.071
 8560TIP3    H247172   2.129   5.636  15.201
 8561TIP3   OH247173   2.410   5.615  15.019
 8561TIP3    H147174   2.320   5.628  15.059
 8561TIP3    H247175   2.403   5.674  14.941
 8562TIP3   OH247176   2.880   5.606  14.936
 8562TIP3    H147177   2.833   5.661  14.870
 8562TIP3    H247178   2.894   5.670  15.009
 8563TIP3   OH247179   3.111   5.490  15.035
 8563TIP3    H147180   3.023   5.514  15.002
 8563TIP3    H247181   3.156   5.575  15.027
 8564TIP3   OH247182   3.369   5.646  15.061
 8564TIP3    H147183   3.359   5.742  15.038
 8564TIP3    H247184   3.389   5.609  14.973
 8565TIP3   OH247185   2.106   5.522  14.805
 8565TIP3    H147186   2.100   5.477  14.892
 8565TIP3    H247187   2.188   5.486  14.766
 8566TIP3   OH247188   2.315   5.393  14.671
 8566TIP3    H147189   2.298   5.300  14.692
 8566TIP3    H247190   2.401   5.407  14.717
 8567TIP3   OH247191   2.574   5.441  14.758
 8567TIP3    H147192   2.592   5.349  14.731
 8567TIP3    H247193   2.579   5.435  14.854
 8568TIP3   OH247194   2.922   4.007  14.672
 8568TIP3    H147195   2.854   3.942  14.699
 8568TIP3    H247196   2.977   3.954  14.613
 8569TIP3   OH247197   3.435   3.813  14.681
 8569TIP3    H147198   3.497   3.871  14.629
 8569TIP3    H247199   3.347   3.848  14.656
 8570TIP3   OH247200   3.603   3.934  14.509
 8570TIP3    H147201   3.671   3.878  14.465
 8570TIP3    H247202   3.651   4.020  14.518
 8571TIP3   OH247203   2.157   3.870  14.456
 8571TIP3    H147204   2.078   3.848  14.404
 8571TIP3    H247205   2.206   3.785  14.452
 8572TIP3   OH247206   2.036   3.845  14.031
 8572TIP3    H147207   2.084   3.910  13.975
 8572TIP3    H247208   1.977   3.902  14.083
 8573TIP3   OH247209   2.608   3.861  14.435
 8573TIP3    H147210   2.698   3.899  14.430
 8573TIP3    H247211   2.601   3.840  14.528
 8574TIP3   OH247212   3.174   3.864  14.599
 8574TIP3    H147213   3.173   3.874  14.503
 8574TIP3    H247214   3.139   3.773  14.612
 8575TIP3   OH247215   3.304   3.867  14.167
 8575TIP3    H147216   3.230   3.927  14.149
 8575TIP3    H247217   3.259   3.782  14.187
 8576TIP3   OH247218   2.028   5.440  14.129
 8576TIP3    H147219   1.960   5.439  14.059
 8576TIP3    H247220   2.027   5.535  14.150
 8577TIP3   OH247221   2.220   4.039  13.879
 8577TIP3    H147222   2.272   3.977  13.827
 8577TIP3    H247223   2.286   4.070  13.944
 8578TIP3   OH247224   2.723   4.065  14.121
 8578TIP3    H147225   2.746   4.006  14.194
 8578TIP3    H247226   2.725   4.151  14.169
 8579TIP3   OH247227   2.914   5.568  13.966
 8579TIP3    H147228   3.004   5.596  13.944
 8579TIP3    H247229   2.892   5.519  13.884
 8580TIP3   OH247230   3.585   5.521  14.236
 8580TIP3    H147231   3.565   5.444  14.178
 8580TIP3    H247232   3.579   5.595  14.172
 8581TIP3   OH247233   2.149   3.920  15.400
 8581TIP3    H147234   2.109   3.845  15.448
 8581TIP3    H247235   2.240   3.922  15.438
 8582TIP3   OH247236   2.347   3.857  15.558
 8582TIP3    H147237   2.439   3.828  15.543
 8582TIP3    H247238   2.310   3.783  15.609
 8583TIP3   OH247239   2.207   5.537  13.826
 8583TIP3    H147240   2.182   5.564  13.915
 8583TIP3    H247241   2.286   5.481  13.842
 8584TIP3   OH247242   3.188   3.788  15.580
 8584TIP3    H147243   3.199   3.744  15.666
 8584TIP3    H247244   3.280   3.789  15.545
 8585TIP3   OH247245   3.508   5.394  15.448
 8585TIP3    H147246   3.428   5.380  15.392
 8585TIP3    H247247   3.498   5.490  15.468
 8586TIP3   OH247248   4.952   4.783  14.445
 8586TIP3    H147249   4.953   4.881  14.438
 8586TIP3    H247250   4.881   4.759  14.383
 8587TIP3   OH247251   4.839   4.710  14.793
 8587TIP3    H147252   4.837   4.644  14.864
 8587TIP3    H247253   4.806   4.660  14.716
 8588TIP3   OH247254   4.075   4.675  14.949
 8588TIP3    H147255   4.083   4.608  15.020
 8588TIP3    H247256   4.149   4.733  14.970
 8589TIP3   OH247257   5.209   5.003  14.621
 8589TIP3    H147258   5.166   4.932  14.669
 8589TIP3    H247259   5.210   5.075  14.687
 8590TIP3   OH247260   4.167   5.120  14.801
 8590TIP3    H147261   4.135   5.034  14.767
 8590TIP3    H247262   4.263   5.101  14.805
 8591TIP3   OH247263   3.832   4.478  14.346
 8591TIP3    H147264   3.787   4.565  14.341
 8591TIP3    H247265   3.774   4.424  14.291
 8592TIP3   OH247266   3.901   4.699  14.560
 8592TIP3    H147267   3.927   4.618  14.607
 8592TIP3    H247268   3.973   4.709  14.495
 8593TIP3   OH247269   4.920   5.518  14.644
 8593TIP3    H147270   4.984   5.448  14.616
 8593TIP3    H247271   4.900   5.488  14.733
 8594TIP3   OH247272   4.677   4.950  14.837
 8594TIP3    H147273   4.711   4.885  14.773
 8594TIP3    H247274   4.756   4.965  14.892
 8595TIP3   OH247275   5.539   4.113  14.914
 8595TIP3    H147276   5.553   4.174  14.990
 8595TIP3    H247277   5.592   4.158  14.846
 8596TIP3   OH247278   4.993   4.396  14.870
 8596TIP3    H147279   5.009   4.299  14.869
 8596TIP3    H247280   4.983   4.411  14.774
 8597TIP3   OH247281   4.306   4.204  14.593
 8597TIP3    H147282   4.314   4.288  14.546
 8597TIP3    H247283   4.264   4.146  14.524
 8598TIP3   OH247284   5.079   4.213  14.430
 8598TIP3    H147285   5.145   4.182  14.496
 8598TIP3    H247286   5.134   4.269  14.374
 8599TIP3   OH247287   3.968   4.445  14.667
 8599TIP3    H147288   4.035   4.389  14.711
 8599TIP3    H247289   3.976   4.414  14.576
 8600TIP3   OH247290   4.484   4.601  14.595
 8600TIP3    H147291   4.549   4.543  14.639
 8600TIP3    H247292   4.430   4.534  14.548
 8601TIP3   OH247293   5.582   4.257  15.140
 8601TIP3    H147294   5.518   4.330  15.131
 8601TIP3    H247295   5.585   4.244  15.236
 8602TIP3   OH247296   4.194   4.094  14.998
 8602TIP3    H147297   4.167   4.150  14.922
 8602TIP3    H247298   4.125   4.118  15.065
 8603TIP3   OH247299   4.926   5.043  14.352
 8603TIP3    H147300   4.897   5.014  14.265
 8603TIP3    H247301   4.894   5.136  14.357
 8604TIP3   OH247302   4.447   4.859  15.023
 8604TIP3    H147303   4.375   4.923  15.041
 8604TIP3    H247304   4.518   4.919  14.994
 8605TIP3   OH247305   5.258   4.147  14.629
 8605TIP3    H147306   5.237   4.070  14.683
 8605TIP3    H247307   5.325   4.191  14.684
 8606TIP3   OH247308   4.150   4.281  14.798
 8606TIP3    H147309   4.214   4.348  14.831
 8606TIP3    H247310   4.203   4.238  14.727
 8607TIP3   OH247311   4.291   5.058  15.104
 8607TIP3    H147312   4.287   5.149  15.069
 8607TIP3    H247313   4.202   5.051  15.148
 8608TIP3   OH247314   3.900   5.022  14.184
 8608TIP3    H147315   3.874   5.052  14.095
 8608TIP3    H247316   3.906   5.106  14.232
 8609TIP3   OH247317   5.261   5.187  14.858
 8609TIP3    H147318   5.165   5.197  14.871
 8609TIP3    H247319   5.288   5.279  14.839
 8610TIP3   OH247320   5.293   4.016  14.998
 8610TIP3    H147321   5.220   4.079  14.990
 8610TIP3    H247322   5.363   4.058  14.944
 8611TIP3   OH247323   4.591   3.827  14.743
 8611TIP3    H147324   4.578   3.730  14.737
 8611TIP3    H247325   4.503   3.858  14.773
 8612TIP3   OH247326   5.086   5.365  14.518
 8612TIP3    H147327   5.130   5.294  14.467
 8612TIP3    H247328   5.126   5.445  14.477
 8613TIP3   OH247329   5.206   5.158  14.369
 8613TIP3    H147330   5.177   5.088  14.309
 8613TIP3    H247331   5.211   5.110  14.453
 8614TIP3   OH247332   5.370   5.016  15.218
 8614TIP3    H147333   5.385   4.953  15.145
 8614TIP3    H247334   5.389   5.102  15.177
 8615TIP3   OH247335   4.819   4.707  14.196
 8615TIP3    H147336   4.749   4.763  14.159
 8615TIP3    H247337   4.889   4.716  14.128
 8616TIP3   OH247338   4.825   4.560  13.897
 8616TIP3    H147339   4.896   4.559  13.962
 8616TIP3    H247340   4.857   4.492  13.836
 8617TIP3   OH247341   5.558   4.648  15.024
 8617TIP3    H147342   5.491   4.719  15.029
 8617TIP3    H247343   5.605   4.671  14.942
 8618TIP3   OH247344   5.163   4.728  14.287
 8618TIP3    H147345   5.088   4.752  14.347
 8618TIP3    H247346   5.209   4.659  14.338
 8619TIP3   OH247347   5.155   4.545  15.198
 8619TIP3    H147348   5.157   4.625  15.252
 8619TIP3    H247349   5.092   4.575  15.129
 8620TIP3   OH247350   4.325   4.794  14.478
 8620TIP3    H147351   4.292   4.755  14.394
 8620TIP3    H247352   4.385   4.725  14.512
 8621TIP3   OH247353   4.458   5.134  14.746
 8621TIP3    H147354   4.455   5.079  14.668
 8621TIP3    H247355   4.535   5.097  14.793
 8622TIP3   OH247356   4.359   4.668  14.843
 8622TIP3    H147357   4.415   4.680  14.764
 8622TIP3    H247358   4.395   4.735  14.906
 8623TIP3   OH247359   4.997   5.224  14.914
 8623TIP3    H147360   4.969   5.288  14.980
 8623TIP3    H247361   4.973   5.139  14.957
 8624TIP3   OH247362   4.452   5.111  15.314
 8624TIP3    H147363   4.414   5.187  15.362
 8624TIP3    H247364   4.385   5.092  15.244
 8625TIP3   OH247365   5.049   4.647  14.055
 8625TIP3    H147366   5.106   4.664  14.134
 8625TIP3    H247367   5.093   4.696  13.982
 8626TIP3   OH247368   4.146   4.728  15.232
 8626TIP3    H147369   4.150   4.794  15.303
 8626TIP3    H247370   4.053   4.738  15.207
 8627TIP3   OH247371   4.822   5.320  14.401
 8627TIP3    H147372   4.866   5.350  14.480
 8627TIP3    H247373   4.765   5.395  14.377
 8628TIP3   OH247374   4.276   5.316  15.389
 8628TIP3    H147375   4.272   5.304  15.293
 8628TIP3    H247376   4.183   5.303  15.415
 8629TIP3   OH247377   5.422   3.820  14.041
 8629TIP3    H147378   5.328   3.834  14.068
 8629TIP3    H247379   5.443   3.905  13.999
 8630TIP3   OH247380   4.222   4.697  14.240
 8630TIP3    H147381   4.193   4.775  14.188
 8630TIP3    H247382   4.156   4.631  14.218
 8631TIP3   OH247383   5.534   5.256  13.878
 8631TIP3    H147384   5.549   5.351  13.895
 8631TIP3    H247385   5.627   5.227  13.875
 8632TIP3   OH247386   3.831   4.938  15.126
 8632TIP3    H147387   3.785   4.931  15.041
 8632TIP3    H247388   3.836   4.844  15.150
 8633TIP3   OH247389   3.807   5.213  14.807
 8633TIP3    H147390   3.903   5.201  14.805
 8633TIP3    H247391   3.798   5.294  14.859
 8634TIP3   OH247392   5.630   5.282  15.373
 8634TIP3    H147393   5.620   5.186  15.374
 8634TIP3    H247394   5.544   5.307  15.416
 8635TIP3   OH247395   4.726   5.237  15.262
 8635TIP3    H147396   4.733   5.321  15.313
 8635TIP3    H247397   4.639   5.202  15.288
 8636TIP3   OH247398   4.770   5.612  14.243
 8636TIP3    H147399   4.759   5.603  14.146
 8636TIP3    H247400   4.771   5.708  14.256
 8637TIP3   OH247401   4.134   5.498  14.423
 8637TIP3    H147402   4.148   5.457  14.511
 8637TIP3    H247403   4.049   5.458  14.399
 8638TIP3   OH247404   5.076   5.533  13.941
 8638TIP3    H147405   5.119   5.456  13.896
 8638TIP3    H247406   5.079   5.505  14.035
 8639TIP3   OH247407   5.045   5.525  14.217
 8639TIP3    H147408   4.950   5.533  14.236
 8639TIP3    H247409   5.070   5.452  14.276
 8640TIP3   OH247410   5.345   4.430  15.421
 8640TIP3    H147411   5.299   4.476  15.350
 8640TIP3    H247412   5.345   4.338  15.392
 8641TIP3   OH247413   4.059   5.070  15.223
 8641TIP3    H147414   4.081   5.033  15.311
 8641TIP3    H247415   3.972   5.030  15.202
 8642TIP3   OH247416   4.325   3.917  14.820
 8642TIP3    H147417   4.235   3.906  14.782
 8642TIP3    H247418   4.315   4.001  14.866
 8643TIP3   OH247419   4.790   3.886  15.156
 8643TIP3    H147420   4.830   3.844  15.234
 8643TIP3    H247421   4.693   3.871  15.170
 8644TIP3   OH247422   5.120   4.267  15.245
 8644TIP3    H147423   5.065   4.248  15.324
 8644TIP3    H247424   5.102   4.360  15.221
 8645TIP3   OH247425   5.195   4.750  13.829
 8645TIP3    H147426   5.197   4.730  13.733
 8645TIP3    H247427   5.281   4.793  13.839
 8646TIP3   OH247428   4.755   4.142  13.886
 8646TIP3    H147429   4.725   4.137  13.979
 8646TIP3    H247430   4.725   4.053  13.856
 8647TIP3   OH247431   4.335   4.413  14.940
 8647TIP3    H147432   4.264   4.412  15.006
 8647TIP3    H247433   4.332   4.506  14.907
 8648TIP3   OH247434   4.332   4.430  14.428
 8648TIP3    H147435   4.239   4.401  14.417
 8648TIP3    H247436   4.372   4.397  14.345
 8649TIP3   OH247437   4.884   4.476  14.308
 8649TIP3    H147438   4.844   4.559  14.272
 8649TIP3    H247439   4.954   4.461  14.242
 8650TIP3   OH247440   4.791   4.498  15.452
 8650TIP3    H147441   4.738   4.421  15.483
 8650TIP3    H247442   4.875   4.484  15.498
 8651TIP3   OH247443   4.987   4.424  14.591
 8651TIP3    H147444   4.961   4.481  14.516
 8651TIP3    H247445   4.999   4.340  14.543
 8652TIP3   OH247446   4.100   4.442  15.114
 8652TIP3    H147447   4.104   4.482  15.202
 8652TIP3    H247448   4.055   4.358  15.131
 8653TIP3   OH247449   4.438   4.179  13.797
 8653TIP3    H147450   4.395   4.137  13.874
 8653TIP3    H247451   4.367   4.223  13.749
 8654TIP3   OH247452   3.765   4.153  14.508
 8654TIP3    H147453   3.832   4.149  14.579
 8654TIP3    H247454   3.810   4.113  14.432
 8655TIP3   OH247455   3.892   4.225  14.046
 8655TIP3    H147456   3.942   4.287  13.990
 8655TIP3    H247457   3.822   4.285  14.079
 8656TIP3   OH247458   4.909   4.585  15.049
 8656TIP3    H147459   4.945   4.518  14.989
 8656TIP3    H247460   4.863   4.531  15.117
 8657TIP3   OH247461   4.588   4.181  14.531
 8657TIP3    H147462   4.495   4.183  14.561
 8657TIP3    H247463   4.637   4.168  14.613
 8658TIP3   OH247464   4.070   4.338  14.417
 8658TIP3    H147465   3.981   4.352  14.379
 8658TIP3    H247466   4.099   4.254  14.378
 8659TIP3   OH247467   4.435   4.341  14.180
 8659TIP3    H147468   4.530   4.353  14.197
 8659TIP3    H247469   4.411   4.409  14.114
 8660TIP3   OH247470   5.029   4.104  14.856
 8660TIP3    H147471   4.960   4.112  14.925
 8660TIP3    H247472   4.978   4.082  14.776
 8661TIP3   OH247473   4.304   4.460  13.939
 8661TIP3    H147474   4.251   4.422  13.868
 8661TIP3    H247475   4.386   4.479  13.892
 8662TIP3   OH247476   5.350   5.669  15.489
 8662TIP3    H147477   5.377   5.708  15.404
 8662TIP3    H247478   5.422   5.701  15.546
 8663TIP3   OH247479   4.118   4.916  15.445
 8663TIP3    H147480   4.189   4.941  15.506
 8663TIP3    H247481   4.039   4.929  15.502
 8664TIP3   OH247482   4.717   4.457  14.720
 8664TIP3    H147483   4.776   4.403  14.666
 8664TIP3    H247484   4.703   4.403  14.799
 8665TIP3   OH247485   4.218   4.074  14.364
 8665TIP3    H147486   4.188   3.980  14.361
 8665TIP3    H247487   4.297   4.065  14.308
 8666TIP3   OH247488   4.581   4.291  14.961
 8666TIP3    H147489   4.498   4.342  14.971
 8666TIP3    H247490   4.636   4.325  15.035
 8667TIP3   OH247491   4.640   4.914  14.131
 8667TIP3    H147492   4.560   4.866  14.098
 8667TIP3    H247493   4.619   4.923  14.226
 8668TIP3   OH247494   5.356   4.831  15.011
 8668TIP3    H147495   5.414   4.879  14.950
 8668TIP3    H247496   5.271   4.839  14.964
 8669TIP3   OH247497   5.024   4.195  13.949
 8669TIP3    H147498   4.929   4.209  13.935
 8669TIP3    H247499   5.056   4.281  13.983
 8670TIP3   OH247500   4.789   4.937  15.255
 8670TIP3    H147501   4.754   4.897  15.335
 8670TIP3    H247502   4.765   5.030  15.264
 8671TIP3   OH247503   5.097   4.385  14.113
 8671TIP3    H147504   5.186   4.372  14.151
 8671TIP3    H247505   5.105   4.467  14.061
 8672TIP3   OH247506   4.150   4.850  14.711
 8672TIP3    H147507   4.221   4.844  14.644
 8672TIP3    H247508   4.157   4.765  14.756
 8673TIP3   OH247509   4.850   5.060  14.034
 8673TIP3    H147510   4.817   5.144  14.071
 8673TIP3    H247511   4.777   4.999  14.055
 8674TIP3   OH247512   3.849   4.693  15.238
 8674TIP3    H147513   3.869   4.649  15.323
 8674TIP3    H247514   3.788   4.630  15.195
 8675TIP3   OH247515   4.550   4.647  15.458
 8675TIP3    H147516   4.520   4.621  15.370
 8675TIP3    H247517   4.644   4.618  15.456
 8676TIP3   OH247518   5.017   5.181  15.249
 8676TIP3    H147519   4.925   5.200  15.226
 8676TIP3    H247520   5.016   5.210  15.342
 8677TIP3   OH247521   5.591   4.400  14.086
 8677TIP3    H147522   5.528   4.371  14.017
 8677TIP3    H247523   5.593   4.496  14.061
 8678TIP3   OH247524   5.585   4.986  15.371
 8678TIP3    H147525   5.496   5.008  15.333
 8678TIP3    H247526   5.640   4.982  15.291
 8679TIP3   OH247527   5.413   5.283  14.130
 8679TIP3    H147528   5.379   5.200  14.163
 8679TIP3    H247529   5.446   5.263  14.041
 8680TIP3   OH247530   5.135   4.765  14.838
 8680TIP3    H147531   5.041   4.742  14.830
 8680TIP3    H247532   5.178   4.688  14.798
 8681TIP3   OH247533   4.387   5.197  14.449
 8681TIP3    H147534   4.438   5.277  14.428
 8681TIP3    H247535   4.299   5.221  14.417
 8682TIP3   OH247536   3.964   4.682  13.906
 8682TIP3    H147537   4.023   4.748  13.946
 8682TIP3    H247538   3.875   4.714  13.933
 8683TIP3   OH247539   4.530   4.964  14.402
 8683TIP3    H147540   4.500   5.056  14.411
 8683TIP3    H247541   4.456   4.916  14.446
 8684TIP3   OH247542   4.575   5.381  15.041
 8684TIP3    H147543   4.619   5.464  15.014
 8684TIP3    H247544   4.636   5.349  15.110
 8685TIP3   OH247545   4.397   5.464  14.356
 8685TIP3    H147546   4.301   5.477  14.367
 8685TIP3    H247547   4.433   5.548  14.391
 8686TIP3   OH247548   4.930   4.985  15.005
 8686TIP3    H147549   4.893   4.964  15.094
 8686TIP3    H247550   4.992   4.912  14.988
 8687TIP3   OH247551   5.159   5.087  13.913
 8687TIP3    H147552   5.189   5.042  13.994
 8687TIP3    H247553   5.063   5.071  13.923
 8688TIP3   OH247554   5.206   5.441  15.255
 8688TIP3    H147555   5.140   5.390  15.204
 8688TIP3    H247556   5.227   5.511  15.188
 8689TIP3   OH247557   5.605   5.525  13.938
 8689TIP3    H147558   5.676   5.590  13.919
 8689TIP3    H247559   5.535   5.587  13.967
 8690TIP3   OH247560   4.014   4.167  15.193
 8690TIP3    H147561   3.923   4.201  15.189
 8690TIP3    H247562   4.003   4.081  15.238
 8691TIP3   OH247563   5.239   4.952  14.137
 8691TIP3    H147564   5.215   4.875  14.192
 8691TIP3    H247565   5.333   4.958  14.156
 8692TIP3   OH247566   3.977   5.346  15.036
 8692TIP3    H147567   4.004   5.253  15.036
 8692TIP3    H247568   4.002   5.374  15.125
 8693TIP3   OH247569   4.571   5.196  13.761
 8693TIP3    H147570   4.585   5.119  13.704
 8693TIP3    H247571   4.532   5.153  13.840
 8694TIP3   OH247572   4.453   5.149  14.007
 8694TIP3    H147573   4.476   5.098  14.085
 8694TIP3    H247574   4.459   5.242  14.039
 8695TIP3   OH247575   4.104   4.874  14.056
 8695TIP3    H147576   4.034   4.913  14.112
 8695TIP3    H247577   4.156   4.952  14.029
 8696TIP3   OH247578   4.887   4.143  15.086
 8696TIP3    H147579   4.958   4.149  15.151
 8696TIP3    H247580   4.849   4.055  15.105
 8697TIP3   OH247581   4.963   4.102  14.196
 8697TIP3    H147582   4.986   4.150  14.113
 8697TIP3    H247583   5.020   4.145  14.260
 8698TIP3   OH247584   4.732   5.317  14.079
 8698TIP3    H147585   4.650   5.370  14.085
 8698TIP3    H247586   4.785   5.370  14.017
 8699TIP3   OH247587   4.685   4.277  14.278
 8699TIP3    H147588   4.765   4.333  14.283
 8699TIP3    H247589   4.659   4.264  14.371
 8700TIP3   OH247590   4.740   4.378  15.197
 8700TIP3    H147591   4.749   4.434  15.276
 8700TIP3    H247592   4.806   4.308  15.207
 8701TIP3   OH247593   4.773   3.983  14.370
 8701TIP3    H147594   4.739   4.048  14.434
 8701TIP3    H247595   4.840   4.038  14.323
 8702TIP3   OH247596   4.469   5.420  14.080
 8702TIP3    H147597   4.481   5.503  14.026
 8702TIP3    H247598   4.444   5.456  14.168
 8703TIP3   OH247599   4.337   4.094  14.037
 8703TIP3    H147600   4.331   4.183  14.077
 8703TIP3    H247601   4.426   4.067  14.064
 8704TIP3   OH247602   5.359   4.166  15.282
 8704TIP3    H147603   5.266   4.196  15.269
 8704TIP3    H247604   5.389   4.165  15.189
 8705TIP3   OH247605   5.219   4.544  14.685
 8705TIP3    H147606   5.137   4.500  14.656
 8705TIP3    H247607   5.266   4.474  14.737
 8706TIP3   OH247608   4.161   5.136  13.944
 8706TIP3    H147609   4.225   5.202  13.973
 8706TIP3    H247610   4.212   5.091  13.874
 8707TIP3   OH247611   3.995   4.403  13.853
 8707TIP3    H147612   3.995   4.498  13.878
 8707TIP3    H247613   3.904   4.384  13.831
 8708TIP3   OH247614   5.326   5.468  14.851
 8708TIP3    H147615   5.315   5.537  14.783
 8708TIP3    H247616   5.422   5.476  14.869
 8709TIP3   OH247617   4.076   3.882  14.729
 8709TIP3    H147618   4.056   3.884  14.632
 8709TIP3    H247619   4.033   3.798  14.756
 8710TIP3   OH247620   3.971   5.274  14.344
 8710TIP3    H147621   3.886   5.320  14.342
 8710TIP3    H247622   4.021   5.323  14.277
 8711TIP3   OH247623   3.894   5.539  15.474
 8711TIP3    H147624   3.952   5.517  15.549
 8711TIP3    H247625   3.850   5.453  15.456
 8712TIP3   OH247626   4.357   5.428  15.637
 8712TIP3    H147627   4.436   5.381  15.668
 8712TIP3    H247628   4.357   5.404  15.542
 8713TIP3   OH247629   4.771   5.382  13.774
 8713TIP3    H147630   4.704   5.316  13.801
 8713TIP3    H247631   4.844   5.323  13.750
 8714TIP3   OH247632   5.012   5.268  15.506
 8714TIP3    H147633   4.979   5.180  15.535
 8714TIP3    H247634   5.088   5.281  15.566
 8715TIP3   OH247635   5.228   5.358  13.794
 8715TIP3    H147636   5.258   5.280  13.843
 8715TIP3    H247637   5.304   5.381  13.739
 8716TIP3   OH247638   3.885   4.916  15.572
 8716TIP3    H147639   3.902   4.825  15.540
 8716TIP3    H247640   3.810   4.943  15.516
 8717TIP3   OH247641   4.319   4.951  13.778
 8717TIP3    H147642   4.331   4.873  13.834
 8717TIP3    H247643   4.391   4.939  13.714
 8718TIP3   OH247644   4.554   4.914  15.512
 8718TIP3    H147645   4.521   4.944  15.426
 8718TIP3    H247646   4.565   4.817  15.502
 8719TIP3   OH247647   4.860   5.060  13.754
 8719TIP3    H147648   4.833   5.071  13.846
 8719TIP3    H247649   4.840   4.965  13.741
 8720TIP3   OH247650   5.125   4.902  15.251
 8720TIP3    H147651   5.203   4.962  15.243
 8720TIP3    H247652   5.054   4.967  15.255
 8721TIP3   OH247653   3.973   4.639  15.511
 8721TIP3    H147654   4.015   4.553  15.501
 8721TIP3    H247655   3.950   4.639  15.606
 8722TIP3   OH247656   4.438   4.752  14.016
 8722TIP3    H147657   4.390   4.699  14.081
 8722TIP3    H247658   4.466   4.683  13.951
 8723TIP3   OH247659   4.366   4.535  15.248
 8723TIP3    H147660   4.305   4.606  15.274
 8723TIP3    H247661   4.403   4.571  15.166
 8724TIP3   OH247662   4.545   4.574  13.839
 8724TIP3    H147663   4.528   4.562  13.743
 8724TIP3    H247664   4.642   4.581  13.844
 8725TIP3   OH247665   4.870   4.790  15.581
 8725TIP3    H147666   4.966   4.790  15.570
 8725TIP3    H247667   4.854   4.713  15.639
 8726TIP3   OH247668   5.481   4.807  13.782
 8726TIP3    H147669   5.459   4.768  13.696
 8726TIP3    H247670   5.488   4.903  13.761
 8727TIP3   OH247671   4.405   4.272  15.354
 8727TIP3    H147672   4.417   4.200  15.290
 8727TIP3    H247673   4.401   4.353  15.298
 8728TIP3   OH247674   4.445   4.110  15.108
 8728TIP3    H147675   4.497   4.156  15.038
 8728TIP3    H247676   4.356   4.101  15.066
 8729TIP3   OH247677   4.600   4.656  15.133
 8729TIP3    H147678   4.675   4.640  15.074
 8729TIP3    H247679   4.565   4.741  15.100
 8730TIP3   OH247680   5.039   4.433  15.630
 8730TIP3    H147681   5.063   4.340  15.623
 8730TIP3    H247682   5.126   4.477  15.631
 8731TIP3   OH247683   5.173   4.713  15.445
 8731TIP3    H147684   5.148   4.785  15.382
 8731TIP3    H247685   5.269   4.709  15.425
 8732TIP3   OH247686   4.252   4.396  15.547
 8732TIP3    H147687   4.174   4.340  15.527
 8732TIP3    H247688   4.317   4.360  15.483
 8733TIP3   OH247689   4.524   3.853  15.150
 8733TIP3    H147690   4.509   3.950  15.138
 8733TIP3    H247691   4.449   3.818  15.099
 8734TIP3   OH247692   4.652   4.286  15.508
 8734TIP3    H147693   4.622   4.265  15.598
 8734TIP3    H247694   4.572   4.267  15.454
 8735TIP3   OH247695   4.923   4.200  15.415
 8735TIP3    H147696   4.827   4.205  15.429
 8735TIP3    H247697   4.951   4.136  15.484
 8736TIP3   OH247698   5.077   4.064  15.609
 8736TIP3    H147699   5.077   3.966  15.613
 8736TIP3    H247700   5.056   4.091  15.701
 8737TIP3   OH247701   4.063   4.189  15.520
 8737TIP3    H147702   4.086   4.115  15.460
 8737TIP3    H247703   4.053   4.143  15.606
 8738TIP3   OH247704   4.545   3.790  15.418
 8738TIP3    H147705   4.615   3.721  15.414
 8738TIP3    H247706   4.536   3.809  15.323
 8739TIP3   OH247707   4.581   3.953  15.626
 8739TIP3    H147708   4.566   3.903  15.541
 8739TIP3    H247709   4.522   4.030  15.616
 8740TIP3   OH247710   4.530   5.644  13.944
 8740TIP3    H147711   4.627   5.656  13.952
 8740TIP3    H247712   4.513   5.707  13.874
 8741TIP3   OH247713   3.886   5.104  13.891
 8741TIP3    H147714   3.983   5.112  13.912
 8741TIP3    H247715   3.891   5.037  13.819
 8742TIP3   OH247716   3.762   5.642  14.391
 8742TIP3    H147717   3.691   5.594  14.343
 8742TIP3    H247718   3.791   5.576  14.455
 8743TIP3   OH247719   3.845   5.454  14.576
 8743TIP3    H147720   3.810   5.366  14.595
 8743TIP3    H247721   3.867   5.487  14.665
 8744TIP3   OH247722   5.598   5.534  14.871
 8744TIP3    H147723   5.600   5.551  14.967
 8744TIP3    H247724   5.668   5.592  14.840
 8745TIP3   OH247725   5.556   5.494  15.165
 8745TIP3    H147726   5.508   5.416  15.128
 8745TIP3    H247727   5.607   5.449  15.235
 8746TIP3   OH247728   5.401   5.065  15.631
 8746TIP3    H147729   5.311   5.062  15.670
 8746TIP3    H247730   5.438   5.145  15.676
 8747TIP3   OH247731   5.531   4.897  14.176
 8747TIP3    H147732   5.617   4.938  14.194
 8747TIP3    H247733   5.530   4.825  14.242
 8748TIP3   OH247734   5.568   4.705  14.363
 8748TIP3    H147735   5.494   4.654  14.403
 8748TIP3    H247736   5.628   4.720  14.439
 8749TIP3   OH247737   5.544   4.976  14.861
 8749TIP3    H147738   5.627   4.940  14.826
 8749TIP3    H247739   5.558   5.072  14.845
 8750TIP3   OH247740   5.398   5.266  15.090
 8750TIP3    H147741   5.329   5.300  15.149
 8750TIP3    H247742   5.343   5.225  15.019
 8751TIP3   OH247743   5.599   4.687  14.003
 8751TIP3    H147744   5.543   4.724  13.931
 8751TIP3    H247745   5.590   4.759  14.069
 8752TIP3   OH247746   5.437   4.412  13.856
 8752TIP3    H147747   5.441   4.480  13.787
 8752TIP3    H247748   5.415   4.330  13.806
 8753TIP3   OH247749   5.350   4.553  14.420
 8753TIP3    H147750   5.334   4.458  14.417
 8753TIP3    H247751   5.315   4.577  14.507
 8754TIP3   OH247752   3.850   4.762  14.825
 8754TIP3    H147753   3.869   4.753  14.729
 8754TIP3    H247754   3.939   4.746  14.862
 8755TIP3   OH247755   5.435   4.750  15.389
 8755TIP3    H147756   5.496   4.675  15.402
 8755TIP3    H247757   5.494   4.828  15.389
 8756TIP3   OH247758   5.585   4.540  15.456
 8756TIP3    H147759   5.497   4.499  15.436
 8756TIP3    H247760   5.643   4.463  15.446
 8757TIP3   OH247761   5.358   4.158  13.768
 8757TIP3    H147762   5.417   4.116  13.833
 8757TIP3    H247763   5.272   4.115  13.785
 8758TIP3   OH247764   5.316   4.312  14.263
 8758TIP3    H147765   5.347   4.220  14.278
 8758TIP3    H247766   5.397   4.353  14.230
 8759TIP3   OH247767   5.380   4.366  14.810
 8759TIP3    H147768   5.476   4.390  14.808
 8759TIP3    H247769   5.360   4.380  14.904
 8760TIP3   OH247770   5.387   4.439  15.088
 8760TIP3    H147771   5.299   4.468  15.122
 8760TIP3    H247772   5.430   4.525  15.066
 8761TIP3   OH247773   3.811   4.291  15.438
 8761TIP3    H147774   3.905   4.273  15.460
 8761TIP3    H247775   3.767   4.210  15.472
 8762TIP3   OH247776   5.613   3.842  15.621
 8762TIP3    H147777   5.649   3.776  15.560
 8762TIP3    H247778   5.625   3.926  15.573
 8763TIP3   OH247779   5.383   4.040  14.271
 8763TIP3    H147780   5.403   3.995  14.355
 8763TIP3    H247781   5.322   3.977  14.226
 8764TIP3   OH247782   3.932   4.121  14.726
 8764TIP3    H147783   3.978   4.039  14.753
 8764TIP3    H247784   3.984   4.191  14.766
 8765TIP3   OH247785   3.761   4.420  14.831
 8765TIP3    H147786   3.816   4.397  14.753
 8765TIP3    H247787   3.805   4.502  14.858
 8766TIP3   OH247788   5.566   4.054  15.458
 8766TIP3    H147789   5.472   4.080  15.454
 8766TIP3    H247790   5.571   3.999  15.378
 8767TIP3   OH247791   5.566   4.044  13.926
 8767TIP3    H147792   5.606   3.971  13.873
 8767TIP3    H247793   5.635   4.111  13.930
 8768TIP3   OH247794   3.797   4.047  14.238
 8768TIP3    H147795   3.703   4.065  14.223
 8768TIP3    H247796   3.840   4.096  14.166
 8769TIP3   OH247797   5.271   5.542  14.433
 8769TIP3    H147798   5.339   5.510  14.371
 8769TIP3    H247799   5.323   5.592  14.497
 8770TIP3   OH247800   3.792   3.915  15.069
 8770TIP3    H147801   3.725   3.894  15.135
 8770TIP3    H247802   3.746   3.981  15.013
 8771TIP3   OH247803   4.014   5.235  15.484
 8771TIP3    H147804   3.930   5.254  15.441
 8771TIP3    H247805   3.987   5.228  15.576
 8772TIP3   OH247806   4.305   5.332  15.111
 8772TIP3    H147807   4.270   5.418  15.083
 8772TIP3    H247808   4.398   5.342  15.081
 8773TIP3   OH247809   4.737   5.475  15.404
 8773TIP3    H147810   4.753   5.440  15.495
 8773TIP3    H247811   4.827   5.505  15.377
 8774TIP3   OH247812   4.967   5.602  15.332
 8774TIP3    H147813   5.040   5.542  15.309
 8774TIP3    H247814   5.005   5.644  15.412
 8775TIP3   OH247815   5.467   3.863  15.241
 8775TIP3    H147816   5.384   3.893  15.201
 8775TIP3    H247817   5.485   3.782  15.189
 8776TIP3   OH247818   4.048   5.657  15.113
 8776TIP3    H147819   3.975   5.706  15.071
 8776TIP3    H247820   4.014   5.636  15.201
 8777TIP3   OH247821   4.295   5.615  15.019
 8777TIP3    H147822   4.206   5.628  15.059
 8777TIP3    H247823   4.288   5.674  14.941
 8778TIP3   OH247824   4.765   5.606  14.936
 8778TIP3    H147825   4.719   5.661  14.871
 8778TIP3    H247826   4.780   5.670  15.009
 8779TIP3   OH247827   4.996   5.490  15.035
 8779TIP3    H147828   4.908   5.514  15.002
 8779TIP3    H247829   5.041   5.575  15.027
 8780TIP3   OH247830   5.254   5.646  15.061
 8780TIP3    H147831   5.244   5.742  15.038
 8780TIP3    H247832   5.275   5.609  14.973
 8781TIP3   OH247833   3.991   5.522  14.805
 8781TIP3    H147834   3.986   5.477  14.892
 8781TIP3    H247835   4.073   5.486  14.766
 8782TIP3   OH247836   4.201   5.393  14.671
 8782TIP3    H147837   4.183   5.300  14.692
 8782TIP3    H247838   4.286   5.407  14.717
 8783TIP3   OH247839   4.460   5.441  14.758
 8783TIP3    H147840   4.478   5.349  14.731
 8783TIP3    H247841   4.464   5.434  14.854
 8784TIP3   OH247842   4.807   4.006  14.673
 8784TIP3    H147843   4.739   3.941  14.698
 8784TIP3    H247844   4.863   3.954  14.613
 8785TIP3   OH247845   5.321   3.813  14.681
 8785TIP3    H147846   5.382   3.871  14.629
 8785TIP3    H247847   5.233   3.848  14.656
 8786TIP3   OH247848   5.489   3.934  14.509
 8786TIP3    H147849   5.557   3.878  14.465
 8786TIP3    H247850   5.537   4.020  14.518
 8787TIP3   OH247851   4.041   3.870  14.459
 8787TIP3    H147852   3.965   3.847  14.403
 8787TIP3    H247853   4.092   3.787  14.451
 8788TIP3   OH247854   3.918   3.845  14.029
 8788TIP3    H147855   3.971   3.909  13.978
 8788TIP3    H247856   3.864   3.903  14.084
 8789TIP3   OH247857   4.494   3.866  14.437
 8789TIP3    H147858   4.585   3.898  14.430
 8789TIP3    H247859   4.487   3.838  14.528
 8790TIP3   OH247860   5.060   3.864  14.599
 8790TIP3    H147861   5.059   3.874  14.503
 8790TIP3    H247862   5.024   3.773  14.612
 8791TIP3   OH247863   5.190   3.867  14.167
 8791TIP3    H147864   5.116   3.927  14.149
 8791TIP3    H247865   5.145   3.782  14.187
 8792TIP3   OH247866   3.913   5.440  14.129
 8792TIP3    H147867   3.846   5.439  14.059
 8792TIP3    H247868   3.912   5.535  14.150
 8793TIP3   OH247869   4.107   4.044  13.874
 8793TIP3    H147870   4.159   3.975  13.830
 8793TIP3    H247871   4.170   4.068  13.945
 8794TIP3   OH247872   4.610   4.065  14.121
 8794TIP3    H147873   4.629   4.004  14.194
 8794TIP3    H247874   4.610   4.150  14.169
 8795TIP3   OH247875   4.799   5.568  13.966
 8795TIP3    H147876   4.890   5.596  13.944
 8795TIP3    H247877   4.777   5.519  13.884
 8796TIP3   OH247878   5.471   5.521  14.236
 8796TIP3    H147879   5.451   5.444  14.178
 8796TIP3    H247880   5.464   5.595  14.172
 8797TIP3   OH247881   4.032   3.922  15.402
 8797TIP3    H147882   3.996   3.843  15.446
 8797TIP3    H247883   4.125   3.920  15.437
 8798TIP3   OH247884   4.234   3.860  15.562
 8798TIP3    H147885   4.323   3.826  15.541
 8798TIP3    H247886   4.195   3.781  15.606
 8799TIP3   OH247887   4.093   5.537  13.826
 8799TIP3    H147888   4.067   5.564  13.915
 8799TIP3    H247889   4.171   5.481  13.842
 8800TIP3   OH247890   5.074   3.788  15.579
 8800TIP3    H147891   5.084   3.745  15.666
 8800TIP3    H247892   5.166   3.789  15.546
 8801TIP3   OH247893   5.394   5.394  15.448
 8801TIP3    H147894   5.314   5.380  15.392
 8801TIP3    H247895   5.383   5.490  15.468
 8802TIP3   OH247896   6.855   4.770  14.454
 8802TIP3    H147897   6.842   4.869  14.445
 8802TIP3    H247898   6.776   4.758  14.395
 8803TIP3   OH247899   6.726   4.710  14.792
 8803TIP3    H147900   6.722   4.644  14.862
 8803TIP3    H247901   6.692   4.661  14.715
 8804TIP3   OH247902   5.960   4.675  14.949
 8804TIP3    H147903   5.968   4.608  15.020
 8804TIP3    H247904   6.034   4.733  14.970
 8805TIP3   OH247905   7.097   5.002  14.622
 8805TIP3    H147906   7.051   4.931  14.669
 8805TIP3    H247907   7.097   5.073  14.688
 8806TIP3   OH247908   6.053   5.120  14.801
 8806TIP3    H147909   6.020   5.034  14.767
 8806TIP3    H247910   6.149   5.101  14.805
 8807TIP3   OH247911   5.719   4.478  14.343
 8807TIP3    H147912   5.673   4.565  14.342
 8807TIP3    H247913   5.658   4.424  14.292
 8808TIP3   OH247914   5.787   4.699  14.560
 8808TIP3    H147915   5.813   4.618  14.607
 8808TIP3    H247916   5.859   4.709  14.495
 8809TIP3   OH247917   6.807   5.518  14.644
 8809TIP3    H147918   6.871   5.447  14.616
 8809TIP3    H247919   6.786   5.488  14.732
 8810TIP3   OH247920   6.562   4.949  14.838
 8810TIP3    H147921   6.596   4.887  14.772
 8810TIP3    H247922   6.641   4.964  14.892
 8811TIP3   OH247923   6.877   4.395  14.869
 8811TIP3    H147924   6.895   4.300  14.869
 8811TIP3    H247925   6.868   4.410  14.773
 8812TIP3   OH247926   6.191   4.204  14.593
 8812TIP3    H147927   6.200   4.288  14.546
 8812TIP3    H247928   6.149   4.147  14.525
 8813TIP3   OH247929   6.965   4.214  14.432
 8813TIP3    H147930   7.032   4.181  14.497
 8813TIP3    H247931   7.020   4.268  14.373
 8814TIP3   OH247932   5.853   4.445  14.667
 8814TIP3    H147933   5.921   4.389  14.711
 8814TIP3    H247934   5.862   4.414  14.576
 8815TIP3   OH247935   6.368   4.600  14.597
 8815TIP3    H147936   6.436   4.544  14.638
 8815TIP3    H247937   6.316   4.534  14.547
 8816TIP3   OH247938   6.080   4.094  14.998
 8816TIP3    H147939   6.053   4.150  14.922
 8816TIP3    H247940   6.011   4.118  15.065
 8817TIP3   OH247941   6.861   5.096  14.335
 8817TIP3    H147942   6.809   5.030  14.284
 8817TIP3    H247943   6.781   5.144  14.363
 8818TIP3   OH247944   6.333   4.859  15.023
 8818TIP3    H147945   6.261   4.923  15.042
 8818TIP3    H247946   6.403   4.918  14.994
 8819TIP3   OH247947   7.129   4.145  14.635
 8819TIP3    H147948   7.121   4.066  14.687
 8819TIP3    H247949   7.203   4.192  14.680
 8820TIP3   OH247950   6.036   4.281  14.798
 8820TIP3    H147951   6.099   4.348  14.832
 8820TIP3    H247952   6.089   4.238  14.727
 8821TIP3   OH247953   6.176   5.058  15.104
 8821TIP3    H147954   6.172   5.149  15.069
 8821TIP3    H247955   6.088   5.051  15.148
 8822TIP3   OH247956   5.785   5.022  14.184
 8822TIP3    H147957   5.759   5.053  14.095
 8822TIP3    H247958   5.792   5.106  14.233
 8823TIP3   OH247959   7.140   5.184  14.864
 8823TIP3    H147960   7.044   5.196  14.872
 8823TIP3    H247961   7.172   5.274  14.841
 8824TIP3   OH247962   7.170   4.022  14.988
 8824TIP3    H147963   7.097   4.086  14.990
 8824TIP3    H247964   7.241   4.068  14.941
 8825TIP3   OH247965   6.477   3.827  14.744
 8825TIP3    H147966   6.464   3.730  14.737
 8825TIP3    H247967   6.389   3.858  14.773
 8826TIP3   OH247968   6.971   5.364  14.520
 8826TIP3    H147969   7.014   5.293  14.467
 8826TIP3    H247970   7.012   5.443  14.478
 8827TIP3   OH247971   7.108   5.157  14.367
 8827TIP3    H147972   7.061   5.091  14.311
 8827TIP3    H247973   7.096   5.110  14.452
 8828TIP3   OH247974   7.236   5.025  15.224
 8828TIP3    H147975   7.267   4.959  15.159
 8828TIP3    H247976   7.275   5.104  15.183
 8829TIP3   OH247977   6.698   4.684  14.173
 8829TIP3    H147978   6.639   4.762  14.166
 8829TIP3    H247979   6.777   4.717  14.128
 8830TIP3   OH247980   6.711   4.559  13.894
 8830TIP3    H147981   6.780   4.560  13.963
 8830TIP3    H247982   6.744   4.490  13.836
 8831TIP3   OH247983   7.049   4.729  14.284
 8831TIP3    H147984   6.975   4.754  14.346
 8831TIP3    H247985   7.093   4.661  14.339
 8832TIP3   OH247986   7.037   4.543  15.197
 8832TIP3    H147987   7.042   4.623  15.251
 8832TIP3    H247988   6.977   4.575  15.128
 8833TIP3   OH247989   6.206   4.793  14.481
 8833TIP3    H147990   6.179   4.755  14.393
 8833TIP3    H247991   6.272   4.726  14.511
 8834TIP3   OH247992   6.342   5.134  14.748
 8834TIP3    H147993   6.340   5.079  14.668
 8834TIP3    H247994   6.420   5.097  14.793
 8835TIP3   OH247995   6.244   4.669  14.843
 8835TIP3    H147996   6.301   4.680  14.764
 8835TIP3    H247997   6.281   4.735  14.906
 8836TIP3   OH247998   6.880   5.224  14.914
 8836TIP3    H147999   6.856   5.288  14.981
 8836TIP3    H248000   6.859   5.138  14.958
 8837TIP3   OH248001   6.338   5.111  15.314
 8837TIP3    H148002   6.300   5.187  15.362
 8837TIP3    H248003   6.270   5.092  15.244
 8838TIP3   OH248004   6.940   4.642  14.052
 8838TIP3    H148005   6.990   4.665  14.134
 8838TIP3    H248006   6.977   4.698  13.981
 8839TIP3   OH248007   6.031   4.728  15.232
 8839TIP3    H148008   6.036   4.794  15.303
 8839TIP3    H248009   5.938   4.738  15.207
 8840TIP3   OH248010   6.706   5.322  14.401
 8840TIP3    H148011   6.751   5.350  14.481
 8840TIP3    H248012   6.650   5.395  14.377
 8841TIP3   OH248013   6.162   5.316  15.389
 8841TIP3    H148014   6.158   5.304  15.293
 8841TIP3    H248015   6.068   5.303  15.415
 8842TIP3   OH248016   7.284   3.816  14.029
 8842TIP3    H148017   7.199   3.839  14.071
 8842TIP3    H248018   7.320   3.898  13.998
 8843TIP3   OH248019   6.109   4.696  14.238
 8843TIP3    H148020   6.080   4.776  14.189
 8843TIP3    H248021   6.041   4.632  14.219
 8844TIP3   OH248022   5.717   4.938  15.126
 8844TIP3    H148023   5.670   4.931  15.041
 8844TIP3    H248024   5.722   4.844  15.150
 8845TIP3   OH248025   5.693   5.213  14.807
 8845TIP3    H148026   5.789   5.201  14.805
 8845TIP3    H248027   5.684   5.294  14.859
 8846TIP3   OH248028   6.612   5.237  15.262
 8846TIP3    H148029   6.619   5.321  15.313
 8846TIP3    H248030   6.524   5.202  15.288
 8847TIP3   OH248031   6.655   5.613  14.243
 8847TIP3    H148032   6.646   5.602  14.146
 8847TIP3    H248033   6.658   5.709  14.256
 8848TIP3   OH248034   6.019   5.498  14.423
 8848TIP3    H148035   6.034   5.457  14.511
 8848TIP3    H248036   5.934   5.458  14.399
 8849TIP3   OH248037   6.966   5.533  13.941
 8849TIP3    H148038   7.004   5.454  13.897
 8849TIP3    H248039   6.964   5.504  14.035
 8850TIP3   OH248040   6.931   5.526  14.218
 8850TIP3    H148041   6.835   5.533  14.236
 8850TIP3    H248042   6.956   5.452  14.276
 8851TIP3   OH248043   7.204   4.439  15.427
 8851TIP3    H148044   7.184   4.479  15.343
 8851TIP3    H248045   7.236   4.350  15.398
 8852TIP3   OH248046   5.944   5.070  15.223
 8852TIP3    H148047   5.967   5.033  15.311
 8852TIP3    H248048   5.857   5.030  15.202
 8853TIP3   OH248049   6.211   3.917  14.819
 8853TIP3    H148050   6.121   3.906  14.782
 8853TIP3    H248051   6.200   4.001  14.866
 8854TIP3   OH248052   6.675   3.886  15.156
 8854TIP3    H148053   6.715   3.844  15.234
 8854TIP3    H248054   6.578   3.871  15.170
 8855TIP3   OH248055   7.004   4.267  15.244
 8855TIP3    H148056   6.951   4.249  15.325
 8855TIP3    H248057   6.988   4.360  15.222
 8856TIP3   OH248058   7.081   4.747  13.828
 8856TIP3    H148059   7.082   4.728  13.731
 8856TIP3    H248060   7.165   4.793  13.838
 8857TIP3   OH248061   6.641   4.142  13.886
 8857TIP3    H148062   6.610   4.138  13.979
 8857TIP3    H248063   6.610   4.053  13.857
 8858TIP3   OH248064   6.221   4.413  14.940
 8858TIP3    H148065   6.149   4.412  15.006
 8858TIP3    H248066   6.218   4.506  14.907
 8859TIP3   OH248067   6.217   4.430  14.427
 8859TIP3    H148068   6.124   4.401  14.417
 8859TIP3    H248069   6.258   4.397  14.346
 8860TIP3   OH248070   6.771   4.476  14.308
 8860TIP3    H148071   6.730   4.559  14.273
 8860TIP3    H248072   6.840   4.461  14.242
 8861TIP3   OH248073   6.677   4.498  15.452
 8861TIP3    H148074   6.624   4.420  15.483
 8861TIP3    H248075   6.761   4.484  15.498
 8862TIP3   OH248076   6.873   4.425  14.592
 8862TIP3    H148077   6.848   4.481  14.517
 8862TIP3    H248078   6.884   4.340  14.544
 8863TIP3   OH248079   5.986   4.442  15.114
 8863TIP3    H148080   5.990   4.482  15.202
 8863TIP3    H248081   5.940   4.358  15.131
 8864TIP3   OH248082   6.324   4.182  13.798
 8864TIP3    H148083   6.281   4.136  13.873
 8864TIP3    H248084   6.254   4.221  13.745
 8865TIP3   OH248085   5.650   4.154  14.508
 8865TIP3    H148086   5.717   4.150  14.579
 8865TIP3    H248087   5.695   4.113  14.432
 8866TIP3   OH248088   5.779   4.226  14.045
 8866TIP3    H148089   5.812   4.296  13.991
 8866TIP3    H248090   5.704   4.280  14.082
 8867TIP3   OH248091   6.795   4.585  15.049
 8867TIP3    H148092   6.831   4.518  14.988
 8867TIP3    H248093   6.749   4.531  15.116
 8868TIP3   OH248094   6.473   4.180  14.531
 8868TIP3    H148095   6.380   4.183  14.561
 8868TIP3    H248096   6.523   4.168  14.613
 8869TIP3   OH248097   5.956   4.339  14.414
 8869TIP3    H148098   5.865   4.351  14.380
 8869TIP3    H248099   5.984   4.253  14.379
 8870TIP3   OH248100   6.319   4.340  14.178
 8870TIP3    H148101   6.414   4.352  14.198
 8870TIP3    H248102   6.298   4.411  14.115
 8871TIP3   OH248103   6.913   4.102  14.855
 8871TIP3    H148104   6.845   4.111  14.925
 8871TIP3    H248105   6.862   4.083  14.775
 8872TIP3   OH248106   6.187   4.454  13.938
 8872TIP3    H148107   6.139   4.426  13.860
 8872TIP3    H248108   6.271   4.480  13.895
 8873TIP3   OH248109   7.233   5.670  15.489
 8873TIP3    H148110   7.262   5.707  15.405
 8873TIP3    H248111   7.306   5.701  15.546
 8874TIP3   OH248112   6.004   4.916  15.445
 8874TIP3    H148113   6.074   4.941  15.506
 8874TIP3    H248114   5.925   4.929  15.502
 8875TIP3   OH248115   6.603   4.457  14.720
 8875TIP3    H148116   6.663   4.403  14.667
 8875TIP3    H248117   6.589   4.403  14.799
 8876TIP3   OH248118   6.102   4.073  14.360
 8876TIP3    H148119   6.074   3.979  14.362
 8876TIP3    H248120   6.184   4.066  14.309
 8877TIP3   OH248121   6.467   4.291  14.961
 8877TIP3    H148122   6.384   4.342  14.971
 8877TIP3    H248123   6.521   4.325  15.035
 8878TIP3   OH248124   6.505   4.923  14.109
 8878TIP3    H148125   6.436   4.858  14.096
 8878TIP3    H248126   6.512   4.923  14.210
 8879TIP3   OH248127   7.230   4.833  15.011
 8879TIP3    H148128   7.295   4.864  14.945
 8879TIP3    H248129   7.149   4.838  14.958
 8880TIP3   OH248130   6.909   4.194  13.948
 8880TIP3    H148131   6.814   4.208  13.935
 8880TIP3    H248132   6.939   4.281  13.983
 8881TIP3   OH248133   6.674   4.937  15.255
 8881TIP3    H148134   6.639   4.897  15.335
 8881TIP3    H248135   6.652   5.030  15.264
 8882TIP3   OH248136   6.982   4.385  14.110
 8882TIP3    H148137   7.070   4.373  14.151
 8882TIP3    H248138   6.989   4.469  14.061
 8883TIP3   OH248139   6.036   4.850  14.711
 8883TIP3    H148140   6.106   4.844  14.644
 8883TIP3    H248141   6.042   4.765  14.756
 8884TIP3   OH248142   6.734   5.061  14.028
 8884TIP3    H148143   6.703   5.143  14.073
 8884TIP3    H248144   6.664   4.999  14.058
 8885TIP3   OH248145   5.735   4.693  15.238
 8885TIP3    H148146   5.754   4.649  15.323
 8885TIP3    H248147   5.673   4.630  15.195
 8886TIP3   OH248148   6.436   4.647  15.458
 8886TIP3    H148149   6.406   4.621  15.370
 8886TIP3    H248150   6.529   4.618  15.457
 8887TIP3   OH248151   6.901   5.180  15.248
 8887TIP3    H148152   6.809   5.200  15.226
 8887TIP3    H248153   6.902   5.209  15.341
 8888TIP3   OH248154   7.292   5.282  14.129
 8888TIP3    H148155   7.261   5.199  14.165
 8888TIP3    H248156   7.331   5.262  14.044
 8889TIP3   OH248157   7.016   4.764  14.838
 8889TIP3    H148158   6.922   4.741  14.828
 8889TIP3    H248159   7.063   4.688  14.798
 8890TIP3   OH248160   6.272   5.199  14.452
 8890TIP3    H148161   6.325   5.277  14.428
 8890TIP3    H248162   6.185   5.220  14.416
 8891TIP3   OH248163   5.850   4.680  13.909
 8891TIP3    H148164   5.908   4.749  13.946
 8891TIP3    H248165   5.761   4.715  13.932
 8892TIP3   OH248166   6.396   4.965  14.401
 8892TIP3    H148167   6.383   5.060  14.413
 8892TIP3    H248168   6.332   4.915  14.451
 8893TIP3   OH248169   6.461   5.381  15.040
 8893TIP3    H148170   6.505   5.464  15.014
 8893TIP3    H248171   6.521   5.349  15.110
 8894TIP3   OH248172   6.283   5.464  14.356
 8894TIP3    H148173   6.186   5.477  14.367
 8894TIP3    H248174   6.319   5.548  14.391
 8895TIP3   OH248175   6.816   4.985  15.005
 8895TIP3    H148176   6.779   4.964  15.093
 8895TIP3    H248177   6.878   4.912  14.988
 8896TIP3   OH248178   7.045   5.087  13.913
 8896TIP3    H148179   7.073   5.043  13.995
 8896TIP3    H248180   6.949   5.072  13.923
 8897TIP3   OH248181   7.089   5.444  15.254
 8897TIP3    H148182   7.025   5.390  15.204
 8897TIP3    H248183   7.114   5.511  15.187
 8898TIP3   OH248184   5.900   4.167  15.193
 8898TIP3    H148185   5.809   4.201  15.189
 8898TIP3    H248186   5.889   4.081  15.238
 8899TIP3   OH248187   7.125   4.949  14.135
 8899TIP3    H148188   7.099   4.874  14.193
 8899TIP3    H248189   7.218   4.959  14.159
 8900TIP3   OH248190   5.862   5.346  15.036
 8900TIP3    H148191   5.889   5.253  15.036
 8900TIP3    H248192   5.888   5.374  15.125
 8901TIP3   OH248193   6.455   5.197  13.761
 8901TIP3    H148194   6.471   5.119  13.705
 8901TIP3    H248195   6.419   5.153  13.841
 8902TIP3   OH248196   6.338   5.150  14.007
 8902TIP3    H148197   6.363   5.097  14.084
 8902TIP3    H248198   6.345   5.242  14.039
 8903TIP3   OH248199   5.990   4.874  14.056
 8903TIP3    H148200   5.920   4.913  14.112
 8903TIP3    H248201   6.041   4.952  14.029
 8904TIP3   OH248202   6.772   4.143  15.087
 8904TIP3    H148203   6.844   4.149  15.150
 8904TIP3    H248204   6.734   4.054  15.106
 8905TIP3   OH248205   6.850   4.101  14.195
 8905TIP3    H148206   6.873   4.150  14.113
 8905TIP3    H248207   6.905   4.145  14.261
 8906TIP3   OH248208   6.617   5.318  14.078
 8906TIP3    H148209   6.535   5.369  14.085
 8906TIP3    H248210   6.671   5.370  14.017
 8907TIP3   OH248211   6.571   4.277  14.278
 8907TIP3    H148212   6.650   4.334  14.283
 8907TIP3    H248213   6.545   4.264  14.371
 8908TIP3   OH248214   6.625   4.377  15.197
 8908TIP3    H148215   6.635   4.435  15.275
 8908TIP3    H248216   6.692   4.308  15.207
 8909TIP3   OH248217   6.654   3.983  14.368
 8909TIP3    H148218   6.625   4.048  14.434
 8909TIP3    H248219   6.724   4.037  14.323
 8910TIP3   OH248220   6.355   5.421  14.079
 8910TIP3    H148221   6.366   5.503  14.025
 8910TIP3    H248222   6.330   5.456  14.168
 8911TIP3   OH248223   6.220   4.094  14.038
 8911TIP3    H148224   6.221   4.183  14.079
 8911TIP3    H248225   6.312   4.066  14.064
 8912TIP3   OH248226   7.242   4.161  15.275
 8912TIP3    H148227   7.150   4.196  15.269
 8912TIP3    H248228   7.275   4.169  15.186
 8913TIP3   OH248229   7.106   4.545  14.688
 8913TIP3    H148230   7.025   4.502  14.656
 8913TIP3    H248231   7.147   4.472  14.737
 8914TIP3   OH248232   6.046   5.136  13.944
 8914TIP3    H148233   6.111   5.201  13.973
 8914TIP3    H248234   6.098   5.091  13.874
 8915TIP3   OH248235   5.871   4.421  13.832
 8915TIP3    H148236   5.870   4.510  13.876
 8915TIP3    H248237   5.779   4.392  13.826
 8916TIP3   OH248238   7.215   5.469  14.851
 8916TIP3    H148239   7.199   5.538  14.784
 8916TIP3    H248240   7.309   5.478  14.871
 8917TIP3   OH248241   5.962   3.882  14.729
 8917TIP3    H148242   5.940   3.885  14.633
 8917TIP3    H248243   5.919   3.798  14.756
 8918TIP3   OH248244   5.857   5.274  14.344
 8918TIP3    H148245   5.772   5.320  14.342
 8918TIP3    H248246   5.907   5.323  14.277
 8919TIP3   OH248247   5.779   5.539  15.474
 8919TIP3    H148248   5.838   5.517  15.549
 8919TIP3    H248249   5.736   5.453  15.456
 8920TIP3   OH248250   6.243   5.428  15.637
 8920TIP3    H148251   6.321   5.381  15.668
 8920TIP3    H248252   6.242   5.403  15.542
 8921TIP3   OH248253   6.657   5.383  13.773
 8921TIP3    H148254   6.590   5.316  13.801
 8921TIP3    H248255   6.730   5.323  13.750
 8922TIP3   OH248256   6.899   5.268  15.507
 8922TIP3    H148257   6.866   5.180  15.535
 8922TIP3    H248258   6.974   5.281  15.567
 8923TIP3   OH248259   7.112   5.359  13.796
 8923TIP3    H148260   7.141   5.280  13.843
 8923TIP3    H248261   7.188   5.381  13.739
 8924TIP3   OH248262   5.771   4.916  15.572
 8924TIP3    H148263   5.787   4.825  15.540
 8924TIP3    H248264   5.696   4.943  15.516
 8925TIP3   OH248265   6.203   4.951  13.777
 8925TIP3    H148266   6.217   4.873  13.835
 8925TIP3    H248267   6.277   4.939  13.714
 8926TIP3   OH248268   6.440   4.914  15.512
 8926TIP3    H148269   6.407   4.944  15.426
 8926TIP3    H248270   6.451   4.817  15.502
 8927TIP3   OH248271   6.745   5.060  13.753
 8927TIP3    H148272   6.719   5.071  13.847
 8927TIP3    H248273   6.725   4.964  13.742
 8928TIP3   OH248274   7.010   4.900  15.248
 8928TIP3    H148275   7.087   4.961  15.241
 8928TIP3    H248276   6.940   4.966  15.256
 8929TIP3   OH248277   5.858   4.639  15.511
 8929TIP3    H148278   5.900   4.553  15.501
 8929TIP3    H248279   5.836   4.639  15.606
 8930TIP3   OH248280   6.320   4.751  14.014
 8930TIP3    H148281   6.277   4.699  14.083
 8930TIP3    H248282   6.354   4.683  13.952
 8931TIP3   OH248283   6.251   4.535  15.248
 8931TIP3    H148284   6.190   4.606  15.274
 8931TIP3    H248285   6.289   4.571  15.166
 8932TIP3   OH248286   6.429   4.572  13.839
 8932TIP3    H148287   6.415   4.564  13.742
 8932TIP3    H248288   6.527   4.581  13.845
 8933TIP3   OH248289   6.753   4.790  15.582
 8933TIP3    H148290   6.850   4.791  15.569
 8933TIP3    H248291   6.740   4.713  15.639
 8934TIP3   OH248292   6.291   4.272  15.354
 8934TIP3    H148293   6.302   4.200  15.290
 8934TIP3    H248294   6.287   4.353  15.298
 8935TIP3   OH248295   6.330   4.110  15.108
 8935TIP3    H148296   6.382   4.156  15.038
 8935TIP3    H248297   6.242   4.101  15.066
 8936TIP3   OH248298   6.486   4.656  15.133
 8936TIP3    H148299   6.561   4.640  15.074
 8936TIP3    H248300   6.450   4.741  15.100
 8937TIP3   OH248301   6.925   4.434  15.632
 8937TIP3    H148302   6.948   4.341  15.620
 8937TIP3    H248303   7.012   4.477  15.630
 8938TIP3   OH248304   7.055   4.714  15.443
 8938TIP3    H148305   7.033   4.787  15.382
 8938TIP3    H248306   7.152   4.709  15.426
 8939TIP3   OH248307   6.138   4.396  15.547
 8939TIP3    H148308   6.060   4.340  15.527
 8939TIP3    H248309   6.202   4.360  15.483
 8940TIP3   OH248310   6.409   3.853  15.150
 8940TIP3    H148311   6.394   3.950  15.138
 8940TIP3    H248312   6.334   3.818  15.099
 8941TIP3   OH248313   6.537   4.286  15.508
 8941TIP3    H148314   6.507   4.265  15.598
 8941TIP3    H248315   6.458   4.267  15.454
 8942TIP3   OH248316   6.807   4.200  15.415
 8942TIP3    H148317   6.711   4.205  15.430
 8942TIP3    H248318   6.837   4.137  15.483
 8943TIP3   OH248319   6.969   4.063  15.612
 8943TIP3    H148320   6.960   3.966  15.612
 8943TIP3    H248321   6.940   4.092  15.701
 8944TIP3   OH248322   5.949   4.189  15.520
 8944TIP3    H148323   5.971   4.115  15.460
 8944TIP3    H248324   5.939   4.143  15.606
 8945TIP3   OH248325   6.431   3.790  15.418
 8945TIP3    H148326   6.501   3.721  15.414
 8945TIP3    H248327   6.421   3.809  15.323
 8946TIP3   OH248328   6.466   3.953  15.626
 8946TIP3    H148329   6.451   3.903  15.541
 8946TIP3    H248330   6.408   4.030  15.616
 8947TIP3   OH248331   6.416   5.643  13.946
 8947TIP3    H148332   6.512   5.657  13.951
 8947TIP3    H248333   6.398   5.706  13.874
 8948TIP3   OH248334   5.772   5.104  13.891
 8948TIP3    H148335   5.868   5.112  13.912
 8948TIP3    H248336   5.777   5.037  13.819
 8949TIP3   OH248337   5.647   5.642  14.391
 8949TIP3    H148338   5.576   5.594  14.343
 8949TIP3    H248339   5.677   5.576  14.455
 8950TIP3   OH248340   5.730   5.454  14.576
 8950TIP3    H148341   5.695   5.366  14.595
 8950TIP3    H248342   5.753   5.487  14.665
 8951TIP3   OH248343   7.270   5.077  15.620
 8951TIP3    H148344   7.192   5.060  15.674
 8951TIP3    H248345   7.321   5.140  15.675
 8952TIP3   OH248346   7.282   5.261  15.093
 8952TIP3    H148347   7.215   5.302  15.150
 8952TIP3    H248348   7.229   5.224  15.019
 8953TIP3   OH248349   7.309   4.413  13.858
 8953TIP3    H148350   7.326   4.478  13.788
 8953TIP3    H248351   7.300   4.330  13.807
 8954TIP3   OH248352   7.204   4.559  14.421
 8954TIP3    H148353   7.217   4.463  14.424
 8954TIP3    H248354   7.198   4.581  14.516
 8955TIP3   OH248355   5.736   4.762  14.825
 8955TIP3    H148356   5.755   4.753  14.729
 8955TIP3    H248357   5.825   4.746  14.862
 8956TIP3   OH248358  -0.031   4.754  15.414
 8956TIP3    H148359   0.028   4.678  15.412
 8956TIP3    H248360   0.027   4.826  15.386
 8957TIP3   OH248361   7.245   4.159  13.769
 8957TIP3    H148362   7.302   4.115  13.832
 8957TIP3    H248363   7.160   4.114  13.785
 8958TIP3   OH248364   7.201   4.310  14.257
 8958TIP3    H148365   7.230   4.221  14.285
 8958TIP3    H248366   7.281   4.349  14.224
 8959TIP3   OH248367   7.228   4.318  14.801
 8959TIP3    H148368   7.323   4.334  14.790
 8959TIP3    H248369   7.231   4.367  14.886
 8960TIP3   OH248370   7.270   4.440  15.095
 8960TIP3    H148371   7.182   4.470  15.123
 8960TIP3    H248372   7.312   4.521  15.063
 8961TIP3   OH248373   5.697   4.291  15.438
 8961TIP3    H148374   5.791   4.273  15.460
 8961TIP3    H248375   5.652   4.210  15.472
 8962TIP3   OH248376   7.191   4.021  14.322
 8962TIP3    H148377   7.279   3.993  14.355
 8962TIP3    H248378   7.196   3.972  14.236
 8963TIP3   OH248379   5.817   4.120  14.726
 8963TIP3    H148380   5.864   4.039  14.753
 8963TIP3    H248381   5.870   4.191  14.766
 8964TIP3   OH248382   5.646   4.420  14.831
 8964TIP3    H148383   5.702   4.397  14.753
 8964TIP3    H248384   5.690   4.502  14.858
 8965TIP3   OH248385   5.683   4.048  14.238
 8965TIP3    H148386   5.588   4.064  14.224
 8965TIP3    H248387   5.724   4.095  14.165
 8966TIP3   OH248388   7.145   5.531  14.438
 8966TIP3    H148389   7.211   5.499  14.375
 8966TIP3    H248390   7.201   5.588  14.495
 8967TIP3   OH248391   5.678   3.914  15.069
 8967TIP3    H148392   5.610   3.894  15.135
 8967TIP3    H248393   5.632   3.981  15.013
 8968TIP3   OH248394   5.900   5.235  15.484
 8968TIP3    H148395   5.816   5.254  15.441
 8968TIP3    H248396   5.872   5.228  15.576
 8969TIP3   OH248397   6.191   5.332  15.112
 8969TIP3    H148398   6.155   5.418  15.083
 8969TIP3    H248399   6.283   5.342  15.081
 8970TIP3   OH248400   6.623   5.475  15.404
 8970TIP3    H148401   6.639   5.440  15.495
 8970TIP3    H248402   6.712   5.505  15.377
 8971TIP3   OH248403   6.855   5.602  15.332
 8971TIP3    H148404   6.928   5.542  15.309
 8971TIP3    H248405   6.891   5.644  15.413
 8972TIP3   OH248406   5.934   5.657  15.113
 8972TIP3    H148407   5.860   5.706  15.071
 8972TIP3    H248408   5.900   5.636  15.201
 8973TIP3   OH248409   6.181   5.615  15.019
 8973TIP3    H148410   6.091   5.628  15.059
 8973TIP3    H248411   6.174   5.674  14.941
 8974TIP3   OH248412   6.651   5.606  14.936
 8974TIP3    H148413   6.604   5.661  14.871
 8974TIP3    H248414   6.665   5.670  15.009
 8975TIP3   OH248415   6.883   5.489  15.035
 8975TIP3    H148416   6.794   5.514  15.003
 8975TIP3    H248417   6.926   5.576  15.027
 8976TIP3   OH248418   7.138   5.649  15.062
 8976TIP3    H148419   7.127   5.743  15.038
 8976TIP3    H248420   7.162   5.610  14.976
 8977TIP3   OH248421   5.877   5.522  14.806
 8977TIP3    H148422   5.871   5.477  14.892
 8977TIP3    H248423   5.959   5.486  14.766
 8978TIP3   OH248424   6.086   5.394  14.672
 8978TIP3    H148425   6.069   5.300  14.692
 8978TIP3    H248426   6.172   5.407  14.717
 8979TIP3   OH248427   6.343   5.442  14.758
 8979TIP3    H148428   6.363   5.350  14.731
 8979TIP3    H248429   6.351   5.435  14.854
 8980TIP3   OH248430   6.693   4.006  14.672
 8980TIP3    H148431   6.625   3.942  14.699
 8980TIP3    H248432   6.749   3.954  14.613
 8981TIP3   OH248433   7.208   3.812  14.682
 8981TIP3    H148434   7.264   3.874  14.634
 8981TIP3    H248435   7.119   3.847  14.659
 8982TIP3   OH248436   5.929   3.870  14.456
 8982TIP3    H148437   5.849   3.848  14.404
 8982TIP3    H248438   5.977   3.785  14.452
 8983TIP3   OH248439   5.809   3.847  14.031
 8983TIP3    H148440   5.854   3.910  13.974
 8983TIP3    H248441   5.747   3.901  14.083
 8984TIP3   OH248442   6.379   3.862  14.435
 8984TIP3    H148443   6.469   3.899  14.430
 8984TIP3    H248444   6.372   3.840  14.528
 8985TIP3   OH248445   6.948   3.863  14.598
 8985TIP3    H148446   6.945   3.875  14.503
 8985TIP3    H248447   6.910   3.772  14.611
 8986TIP3   OH248448   7.070   3.863  14.162
 8986TIP3    H148449   6.999   3.927  14.151
 8986TIP3    H248450   7.026   3.779  14.188
 8987TIP3   OH248451   5.799   5.440  14.129
 8987TIP3    H148452   5.731   5.439  14.059
 8987TIP3    H248453   5.799   5.535  14.149
 8988TIP3   OH248454   5.995   4.046  13.878
 8988TIP3    H148455   6.041   3.976  13.827
 8988TIP3    H248456   6.062   4.061  13.947
 8989TIP3   OH248457   6.492   4.065  14.121
 8989TIP3    H148458   6.517   4.006  14.194
 8989TIP3    H248459   6.498   4.151  14.169
 8990TIP3   OH248460   6.686   5.567  13.966
 8990TIP3    H148461   6.775   5.596  13.943
 8990TIP3    H248462   6.662   5.521  13.883
 8991TIP3   OH248463   5.918   3.922  15.402
 8991TIP3    H148464   5.882   3.843  15.446
 8991TIP3    H248465   6.010   3.920  15.437
 8992TIP3   OH248466   6.119   3.860  15.562
 8992TIP3    H148467   6.208   3.826  15.541
 8992TIP3    H248468   6.081   3.781  15.606
 8993TIP3   OH248469   5.976   5.533  13.827
 8993TIP3    H148470   5.954   5.565  13.915
 8993TIP3    H248471   6.058   5.482  13.841
 8994TIP3   OH248472   6.960   3.791  15.579
 8994TIP3    H148473   6.968   3.744  15.664
 8994TIP3    H248474   7.051   3.787  15.543
 8995TIP3   OH248475   7.272   5.391  15.454
 8995TIP3    H148476   7.200   5.379  15.390
 8995TIP3    H248477   7.266   5.489  15.467
 8996TIP3   OH248478   1.178   6.667  14.446
 8996TIP3    H148479   1.184   6.765  14.438
 8996TIP3    H248480   1.109   6.644  14.382
 8997TIP3   OH248481   1.068   6.595  14.793
 8997TIP3    H148482   1.066   6.529  14.864
 8997TIP3    H248483   1.035   6.546  14.716
 8998TIP3   OH248484   0.306   6.560  14.947
 8998TIP3    H148485   0.312   6.493  15.019
 8998TIP3    H248486   0.378   6.619  14.970
 8999TIP3   OH248487   1.438   6.888  14.622
 8999TIP3    H148488   1.394   6.817  14.669
 8999TIP3    H248489   1.439   6.961  14.686
 9000TIP3   OH248490   0.396   7.005  14.802
 9000TIP3    H148491   0.363   6.920  14.768
 9000TIP3    H248492   0.491   6.985  14.806
 9001TIP3   OH248493   0.079   6.365  14.324
 9001TIP3    H148494   0.025   6.445  14.347
 9001TIP3    H248495   0.007   6.310  14.300
 9002TIP3   OH248496   0.129   6.582  14.557
 9002TIP3    H148497   0.154   6.504  14.609
 9002TIP3    H248498   0.203   6.593  14.496
 9003TIP3   OH248499   0.904   6.835  14.838
 9003TIP3    H148500   0.939   6.771  14.773
 9003TIP3    H248501   0.984   6.851  14.892
 9004TIP3   OH248502   1.768   5.999  14.914
 9004TIP3    H148503   1.782   6.060  14.990
 9004TIP3    H248504   1.821   6.043  14.846
 9005TIP3   OH248505   1.222   6.281  14.870
 9005TIP3    H148506   1.237   6.185  14.869
 9005TIP3    H248507   1.212   6.296  14.774
 9006TIP3   OH248508   0.536   6.089  14.594
 9006TIP3    H148509   0.543   6.174  14.546
 9006TIP3    H248510   0.493   6.033  14.525
 9007TIP3   OH248511   1.307   6.099  14.430
 9007TIP3    H148512   1.374   6.067  14.496
 9007TIP3    H248513   1.363   6.155  14.374
 9008TIP3   OH248514   0.199   6.329  14.661
 9008TIP3    H148515   0.265   6.276  14.710
 9008TIP3    H248516   0.208   6.297  14.572
 9009TIP3   OH248517   0.713   6.486  14.595
 9009TIP3    H148518   0.778   6.429  14.639
 9009TIP3    H248519   0.659   6.419  14.548
 9010TIP3   OH248520   1.811   6.142  15.140
 9010TIP3    H148521   1.747   6.216  15.131
 9010TIP3    H248522   1.814   6.130  15.236
 9011TIP3   OH248523   0.423   5.980  14.998
 9011TIP3    H148524   0.396   6.036  14.922
 9011TIP3    H248525   0.354   6.003  15.064
 9012TIP3   OH248526   1.146   6.925  14.354
 9012TIP3    H148527   1.127   6.900  14.264
 9012TIP3    H248528   1.127   7.021  14.357
 9013TIP3   OH248529   0.677   6.744  15.024
 9013TIP3    H148530   0.604   6.807  15.041
 9013TIP3    H248531   0.746   6.804  14.994
 9014TIP3   OH248532   1.487   6.032  14.629
 9014TIP3    H148533   1.466   5.955  14.683
 9014TIP3    H248534   1.554   6.077  14.684
 9015TIP3   OH248535   0.378   6.164  14.798
 9015TIP3    H148536   0.440   6.233  14.832
 9015TIP3    H248537   0.433   6.124  14.727
 9016TIP3   OH248538   0.519   6.943  15.104
 9016TIP3    H148539   0.514   7.034  15.068
 9016TIP3    H248540   0.430   6.936  15.146
 9017TIP3   OH248541   0.129   6.911  14.182
 9017TIP3    H148542   0.103   6.939  14.093
 9017TIP3    H248543   0.137   6.994  14.233
 9018TIP3   OH248544   1.491   7.075  14.862
 9018TIP3    H148545   1.393   7.080  14.871
 9018TIP3    H248546   1.517   7.165  14.838
 9019TIP3   OH248547   1.522   5.901  14.998
 9019TIP3    H148548   1.448   5.964  14.990
 9019TIP3    H248549   1.592   5.944  14.944
 9020TIP3   OH248550   0.820   5.713  14.743
 9020TIP3    H148551   0.807   5.616  14.737
 9020TIP3    H248552   0.732   5.744  14.773
 9021TIP3   OH248553   1.314   7.238  14.514
 9021TIP3    H148554   1.362   7.169  14.461
 9021TIP3    H248555   1.353   7.317  14.477
 9022TIP3   OH248556   1.390   7.043  14.381
 9022TIP3    H148557   1.413   6.981  14.311
 9022TIP3    H248558   1.441   6.998  14.452
 9023TIP3   OH248559   1.599   6.902  15.218
 9023TIP3    H148560   1.613   6.838  15.145
 9023TIP3    H248561   1.620   6.987  15.177
 9024TIP3   OH248562   1.047   6.592  14.195
 9024TIP3    H148563   0.978   6.649  14.159
 9024TIP3    H248564   1.118   6.601  14.128
 9025TIP3   OH248565   1.054   6.446  13.896
 9025TIP3    H148566   1.125   6.445  13.962
 9025TIP3    H248567   1.086   6.377  13.836
 9026TIP3   OH248568   1.786   6.533  15.024
 9026TIP3    H148569   1.720   6.605  15.029
 9026TIP3    H248570   1.834   6.556  14.942
 9027TIP3   OH248571   1.389   6.611  14.286
 9027TIP3    H148572   1.317   6.639  14.348
 9027TIP3    H248573   1.439   6.546  14.338
 9028TIP3   OH248574   1.384   6.430  15.198
 9028TIP3    H148575   1.386   6.511  15.252
 9028TIP3    H248576   1.321   6.460  15.129
 9029TIP3   OH248577   0.555   6.681  14.478
 9029TIP3    H148578   0.520   6.640  14.395
 9029TIP3    H248579   0.615   6.610  14.512
 9030TIP3   OH248580   0.689   7.019  14.745
 9030TIP3    H148581   0.684   6.963  14.667
 9030TIP3    H248582   0.765   6.983  14.794
 9031TIP3   OH248583   0.588   6.554  14.843
 9031TIP3    H148584   0.644   6.566  14.764
 9031TIP3    H248585   0.624   6.621  14.906
 9032TIP3   OH248586   1.225   7.110  14.914
 9032TIP3    H148587   1.196   7.173  14.978
 9032TIP3    H248588   1.201   7.024  14.957
 9033TIP3   OH248589   0.681   6.998  15.314
 9033TIP3    H148590   0.642   7.073  15.362
 9033TIP3    H248591   0.613   6.978  15.244
 9034TIP3   OH248592   1.279   6.533  14.055
 9034TIP3    H148593   1.336   6.551  14.134
 9034TIP3    H248594   1.323   6.583  13.983
 9035TIP3   OH248595   0.375   6.612  15.238
 9035TIP3    H148596   0.379   6.684  15.302
 9035TIP3    H248597   0.284   6.624  15.203
 9036TIP3   OH248598   1.049   7.204  14.402
 9036TIP3    H148599   1.098   7.236  14.478
 9036TIP3    H248600   0.995   7.279  14.377
 9037TIP3   OH248601   0.504   7.204  15.387
 9037TIP3    H148602   0.499   7.189  15.291
 9037TIP3    H248603   0.411   7.188  15.414
 9038TIP3   OH248604   1.651   5.706  14.041
 9038TIP3    H148605   1.557   5.720  14.068
 9038TIP3    H248606   1.672   5.791  13.999
 9039TIP3   OH248607   0.452   6.582  14.239
 9039TIP3    H148608   0.423   6.661  14.188
 9039TIP3    H248609   0.385   6.517  14.218
 9040TIP3   OH248610   1.765   7.142  13.873
 9040TIP3    H148611   1.774   7.236  13.895
 9040TIP3    H248612   1.857   7.111  13.877
 9041TIP3   OH248613   0.098   6.816  15.107
 9041TIP3    H148614   0.025   6.820  15.042
 9041TIP3    H248615   0.070   6.732  15.148
 9042TIP3   OH248616   0.048   7.109  14.796
 9042TIP3    H148617   0.139   7.084  14.809
 9042TIP3    H248618   0.032   7.178  14.862
 9043TIP3   OH248619   1.857   7.167  15.378
 9043TIP3    H148620   1.848   7.072  15.372
 9043TIP3    H248621   1.770   7.194  15.416
 9044TIP3   OH248622   0.953   7.126  15.259
 9044TIP3    H148623   0.964   7.204  15.313
 9044TIP3    H248624   0.868   7.087  15.289
 9045TIP3   OH248625   1.574   6.316  15.422
 9045TIP3    H148626   1.528   6.362  15.350
 9045TIP3    H248627   1.574   6.224  15.391
 9046TIP3   OH248628   0.289   6.959  15.225
 9046TIP3    H148629   0.306   6.920  15.312
 9046TIP3    H248630   0.203   6.918  15.199
 9047TIP3   OH248631   0.555   5.803  14.819
 9047TIP3    H148632   0.465   5.793  14.782
 9047TIP3    H248633   0.544   5.887  14.866
 9048TIP3   OH248634   1.019   5.772  15.156
 9048TIP3    H148635   1.059   5.729  15.234
 9048TIP3    H248636   0.922   5.757  15.170
 9049TIP3   OH248637   1.349   6.153  15.245
 9049TIP3    H148638   1.294   6.134  15.324
 9049TIP3    H248639   1.331   6.245  15.221
 9050TIP3   OH248640   1.424   6.636  13.829
 9050TIP3    H148641   1.426   6.616  13.732
 9050TIP3    H248642   1.509   6.679  13.840
 9051TIP3   OH248643   0.984   6.027  13.886
 9051TIP3    H148644   0.953   6.023  13.978
 9051TIP3    H248645   0.953   5.939  13.856
 9052TIP3   OH248646   0.564   6.299  14.940
 9052TIP3    H148647   0.492   6.297  15.006
 9052TIP3    H248648   0.560   6.392  14.907
 9053TIP3   OH248649   0.561   6.316  14.428
 9053TIP3    H148650   0.468   6.287  14.417
 9053TIP3    H248651   0.601   6.283  14.346
 9054TIP3   OH248652   1.113   6.362  14.308
 9054TIP3    H148653   1.073   6.445  14.272
 9054TIP3    H248654   1.183   6.347  14.242
 9055TIP3   OH248655   1.020   6.383  15.452
 9055TIP3    H148656   0.966   6.306  15.483
 9055TIP3    H248657   1.104   6.370  15.498
 9056TIP3   OH248658   1.216   6.310  14.591
 9056TIP3    H148659   1.190   6.367  14.516
 9056TIP3    H248660   1.228   6.225  14.543
 9057TIP3   OH248661   0.331   6.327  15.115
 9057TIP3    H148662   0.332   6.368  15.202
 9057TIP3    H248663   0.283   6.244  15.130
 9058TIP3   OH248664   0.667   6.066  13.797
 9058TIP3    H148665   0.623   6.023  13.873
 9058TIP3    H248666   0.596   6.107  13.748
 9059TIP3   OH248667   0.012   6.054  14.498
 9059TIP3    H148668   0.061   6.033  14.579
 9059TIP3    H248669   0.044   5.994  14.431
 9060TIP3   OH248670   0.119   6.116  14.043
 9060TIP3    H148671   0.172   6.176  13.987
 9060TIP3    H248672   0.049   6.174  14.074
 9061TIP3   OH248673   1.138   6.471  15.049
 9061TIP3    H148674   1.174   6.403  14.989
 9061TIP3    H248675   1.092   6.417  15.117
 9062TIP3   OH248676   0.817   6.066  14.531
 9062TIP3    H148677   0.723   6.068  14.561
 9062TIP3    H248678   0.866   6.053  14.613
 9063TIP3   OH248679   0.303   6.224  14.415
 9063TIP3    H148680   0.213   6.238  14.380
 9063TIP3    H248681   0.327   6.138  14.377
 9064TIP3   OH248682   0.663   6.226  14.180
 9064TIP3    H148683   0.759   6.238  14.197
 9064TIP3    H248684   0.640   6.295  14.114
 9065TIP3   OH248685   1.258   5.990  14.856
 9065TIP3    H148686   1.189   5.997  14.925
 9065TIP3    H248687   1.207   5.968  14.776
 9066TIP3   OH248688   0.534   6.345  13.938
 9066TIP3    H148689   0.479   6.307  13.866
 9066TIP3    H248690   0.616   6.365  13.892
 9067TIP3   OH248691   0.347   6.797  15.447
 9067TIP3    H148692   0.418   6.829  15.505
 9067TIP3    H248693   0.269   6.821  15.501
 9068TIP3   OH248694   0.946   6.343  14.720
 9068TIP3    H148695   1.005   6.289  14.666
 9068TIP3    H248696   0.932   6.288  14.799
 9069TIP3   OH248697   0.447   5.958  14.363
 9069TIP3    H148698   0.416   5.866  14.360
 9069TIP3    H248699   0.527   5.953  14.308
 9070TIP3   OH248700   0.810   6.177  14.961
 9070TIP3    H148701   0.727   6.227  14.971
 9070TIP3    H248702   0.864   6.210  15.035
 9071TIP3   OH248703   0.867   6.799  14.131
 9071TIP3    H148704   0.788   6.751  14.098
 9071TIP3    H248705   0.847   6.809  14.226
 9072TIP3   OH248706   1.585   6.717  15.011
 9072TIP3    H148707   1.643   6.765  14.951
 9072TIP3    H248708   1.499   6.725  14.964
 9073TIP3   OH248709   1.253   6.081  13.949
 9073TIP3    H148710   1.157   6.095  13.935
 9073TIP3    H248711   1.285   6.167  13.983
 9074TIP3   OH248712   1.017   6.825  15.255
 9074TIP3    H148713   0.983   6.782  15.334
 9074TIP3    H248714   0.995   6.918  15.265
 9075TIP3   OH248715   1.325   6.271  14.113
 9075TIP3    H148716   1.415   6.257  14.151
 9075TIP3    H248717   1.334   6.352  14.061
 9076TIP3   OH248718   0.380   6.737  14.710
 9076TIP3    H148719   0.450   6.730  14.643
 9076TIP3    H248720   0.385   6.651  14.756
 9077TIP3   OH248721   1.080   6.946  14.035
 9077TIP3    H148722   1.046   7.030  14.070
 9077TIP3    H248723   1.006   6.885  14.056
 9078TIP3   OH248724   0.100   6.559  15.215
 9078TIP3    H148725   0.108   6.535  15.308
 9078TIP3    H248726   0.016   6.516  15.191
 9079TIP3   OH248727   0.778   6.532  15.459
 9079TIP3    H148728   0.750   6.507  15.370
 9079TIP3    H248729   0.872   6.504  15.457
 9080TIP3   OH248730   1.246   7.072  15.246
 9080TIP3    H148731   1.152   7.084  15.226
 9080TIP3    H248732   1.244   7.094  15.342
 9081TIP3   OH248733   1.816   6.286  14.089
 9081TIP3    H148734   1.759   6.255  14.016
 9081TIP3    H248735   1.823   6.381  14.061
 9082TIP3   OH248736   1.814   6.870  15.371
 9082TIP3    H148737   1.726   6.894  15.334
 9082TIP3    H248738   1.870   6.867  15.291
 9083TIP3   OH248739   1.638   7.176  14.122
 9083TIP3    H148740   1.613   7.092  14.163
 9083TIP3    H248741   1.677   7.149  14.038
 9084TIP3   OH248742   1.364   6.650  14.838
 9084TIP3    H148743   1.269   6.628  14.830
 9084TIP3    H248744   1.407   6.573  14.798
 9085TIP3   OH248745   0.619   7.080  14.447
 9085TIP3    H148746   0.666   7.162  14.427
 9085TIP3    H248747   0.529   7.104  14.418
 9086TIP3   OH248748   0.187   6.566  13.910
 9086TIP3    H148749   0.252   6.632  13.945
 9086TIP3    H248750   0.103   6.602  13.936
 9087TIP3   OH248751   0.760   6.849  14.402
 9087TIP3    H148752   0.730   6.942  14.411
 9087TIP3    H248753   0.685   6.803  14.446
 9088TIP3   OH248754   0.819   7.247  15.022
 9088TIP3    H148755   0.844   7.340  15.012
 9088TIP3    H248756   0.864   7.230  15.107
 9089TIP3   OH248757   0.596  -0.004  14.328
 9089TIP3    H148758   0.512   0.015  14.367
 9089TIP3    H248759   0.645   0.070  14.373
 9090TIP3   OH248760   1.160   6.871  15.006
 9090TIP3    H148761   1.122   6.848  15.094
 9090TIP3    H248762   1.220   6.797  14.988
 9091TIP3   OH248763   1.388   6.969  13.910
 9091TIP3    H148764   1.420   6.929  13.994
 9091TIP3    H248765   1.292   6.958  13.924
 9092TIP3   OH248766   1.432   7.322  15.254
 9092TIP3    H148767   1.365   7.273  15.205
 9092TIP3    H248768   1.453   7.396  15.193
 9093TIP3   OH248769   0.243   6.051  15.189
 9093TIP3    H148770   0.153   6.086  15.191
 9093TIP3    H248771   0.231   5.967  15.237
 9094TIP3   OH248772   1.464   6.820  14.121
 9094TIP3    H148773   1.442   6.760  14.194
 9094TIP3    H248774   1.552   6.849  14.156
 9095TIP3   OH248775   0.211   7.231  15.034
 9095TIP3    H148776   0.232   7.137  15.035
 9095TIP3    H248777   0.227   7.260  15.124
 9096TIP3   OH248778   0.799   7.081  13.760
 9096TIP3    H148779   0.812   7.002  13.704
 9096TIP3    H248780   0.762   7.040  13.841
 9097TIP3   OH248781   0.681   7.033  14.007
 9097TIP3    H148782   0.704   6.983  14.086
 9097TIP3    H248783   0.687   7.127  14.036
 9098TIP3   OH248784   0.331   6.758  14.054
 9098TIP3    H148785   0.264   6.798  14.113
 9098TIP3    H248786   0.384   6.837  14.028
 9099TIP3   OH248787   1.116   6.029  15.086
 9099TIP3    H148788   1.187   6.034  15.151
 9099TIP3    H248789   1.078   5.940  15.105
 9100TIP3   OH248790   1.192   5.987  14.196
 9100TIP3    H148791   1.215   6.035  14.113
 9100TIP3    H248792   1.249   6.031  14.260
 9101TIP3   OH248793   0.961   7.203  14.079
 9101TIP3    H148794   0.878   7.253  14.085
 9101TIP3    H248795   1.012   7.254  14.014
 9102TIP3   OH248796   0.914   6.162  14.278
 9102TIP3    H148797   0.994   6.218  14.283
 9102TIP3    H248798   0.888   6.149  14.371
 9103TIP3   OH248799   0.969   6.263  15.197
 9103TIP3    H148800   0.977   6.320  15.276
 9103TIP3    H248801   1.035   6.194  15.207
 9104TIP3   OH248802   1.000   5.868  14.369
 9104TIP3    H148803   0.967   5.933  14.434
 9104TIP3    H248804   1.068   5.923  14.323
 9105TIP3   OH248805   0.704  -0.033  14.078
 9105TIP3    H148806   0.709   0.049  14.026
 9105TIP3    H248807   0.672  -0.003  14.166
 9106TIP3   OH248808   0.566   5.977  14.038
 9106TIP3    H148809   0.560   6.068  14.076
 9106TIP3    H248810   0.657   5.953  14.064
 9107TIP3   OH248811   1.588   6.051  15.282
 9107TIP3    H148812   1.495   6.081  15.269
 9107TIP3    H248813   1.618   6.051  15.189
 9108TIP3   OH248814   1.448   6.430  14.685
 9108TIP3    H148815   1.366   6.386  14.656
 9108TIP3    H248816   1.495   6.360  14.736
 9109TIP3   OH248817   0.390   7.019  13.944
 9109TIP3    H148818   0.453   7.087  13.972
 9109TIP3    H248819   0.441   6.976  13.873
 9110TIP3   OH248820   0.229   6.289  13.853
 9110TIP3    H148821   0.224   6.383  13.878
 9110TIP3    H248822   0.137   6.268  13.830
 9111TIP3   OH248823   0.303   5.768  14.728
 9111TIP3    H148824   0.284   5.770  14.631
 9111TIP3    H248825   0.261   5.684  14.756
 9112TIP3   OH248826   0.206   7.156  14.352
 9112TIP3    H148827   0.120   7.201  14.343
 9112TIP3    H248828   0.249   7.209  14.282
 9113TIP3   OH248829   0.601   7.291  15.649
 9113TIP3    H148830   0.687   7.255  15.670
 9113TIP3    H248831   0.593   7.279  15.552
 9114TIP3   OH248832   1.001   7.264  13.780
 9114TIP3    H148833   0.932   7.199  13.800
 9114TIP3    H248834   1.074   7.210  13.748
 9115TIP3   OH248835   1.243   7.140  15.502
 9115TIP3    H148836   1.206   7.059  15.540
 9115TIP3    H248837   1.313   7.163  15.565
 9116TIP3   OH248838   1.464   7.239  13.801
 9116TIP3    H148839   1.492   7.159  13.847
 9116TIP3    H248840   1.537   7.263  13.741
 9117TIP3   OH248841   0.125   6.797  15.572
 9117TIP3    H148842   0.129   6.709  15.535
 9117TIP3    H248843   0.044   6.834  15.527
 9118TIP3   OH248844   0.548   6.838  13.777
 9118TIP3    H148845   0.560   6.760  13.834
 9118TIP3    H248846   0.620   6.825  13.714
 9119TIP3   OH248847   0.784   6.799  15.512
 9119TIP3    H148848   0.750   6.829  15.426
 9119TIP3    H248849   0.794   6.702  15.502
 9120TIP3   OH248850   1.090   6.945  13.754
 9120TIP3    H148851   1.060   6.958  13.846
 9120TIP3    H248852   1.069   6.850  13.742
 9121TIP3   OH248853   1.354   6.787  15.251
 9121TIP3    H148854   1.432   6.847  15.242
 9121TIP3    H248855   1.282   6.852  15.256
 9122TIP3   OH248856   0.188   6.527  15.480
 9122TIP3    H148857   0.237   6.443  15.481
 9122TIP3    H248858   0.149   6.543  15.567
 9123TIP3   OH248859   0.667   6.637  14.016
 9123TIP3    H148860   0.619   6.584  14.081
 9123TIP3    H248861   0.695   6.569  13.951
 9124TIP3   OH248862   0.594   6.420  15.249
 9124TIP3    H148863   0.533   6.492  15.273
 9124TIP3    H248864   0.632   6.455  15.166
 9125TIP3   OH248865   0.773   6.460  13.839
 9125TIP3    H148866   0.758   6.449  13.743
 9125TIP3    H248867   0.871   6.467  13.844
 9126TIP3   OH248868   1.099   6.675  15.581
 9126TIP3    H148869   1.195   6.676  15.570
 9126TIP3    H248870   1.083   6.599  15.639
 9127TIP3   OH248871   1.710   6.692  13.780
 9127TIP3    H148872   1.687   6.653  13.695
 9127TIP3    H248873   1.716   6.788  13.762
 9128TIP3   OH248874   0.632   6.159  15.355
 9128TIP3    H148875   0.645   6.086  15.291
 9128TIP3    H248876   0.629   6.238  15.298
 9129TIP3   OH248877   0.674   5.995  15.108
 9129TIP3    H148878   0.725   6.041  15.038
 9129TIP3    H248879   0.585   5.986  15.066
 9130TIP3   OH248880   0.829   6.542  15.133
 9130TIP3    H148881   0.904   6.526  15.074
 9130TIP3    H248882   0.793   6.626  15.100
 9131TIP3   OH248883   1.268   6.319  15.629
 9131TIP3    H148884   1.291   6.226  15.621
 9131TIP3    H248885   1.354   6.363  15.631
 9132TIP3   OH248886   1.402   6.599  15.445
 9132TIP3    H148887   1.377   6.671  15.383
 9132TIP3    H248888   1.498   6.594  15.425
 9133TIP3   OH248889   0.474   6.286  15.545
 9133TIP3    H148890   0.402   6.221  15.526
 9133TIP3    H248891   0.544   6.248  15.486
 9134TIP3   OH248892   0.753   5.739  15.150
 9134TIP3    H148893   0.738   5.836  15.138
 9134TIP3    H248894   0.678   5.703  15.099
 9135TIP3   OH248895   0.880   6.172  15.508
 9135TIP3    H148896   0.851   6.150  15.598
 9135TIP3    H248897   0.800   6.152  15.455
 9136TIP3   OH248898   1.152   6.085  15.415
 9136TIP3    H148899   1.055   6.091  15.429
 9136TIP3    H248900   1.179   6.022  15.484
 9137TIP3   OH248901   1.309   5.949  15.611
 9137TIP3    H148902   1.305   5.851  15.612
 9137TIP3    H248903   1.283   5.977  15.701
 9138TIP3   OH248904   0.296   6.075  15.521
 9138TIP3    H148905   0.315   6.002  15.459
 9138TIP3    H248906   0.283   6.026  15.605
 9139TIP3   OH248907   0.774   5.675  15.418
 9139TIP3    H148908   0.844   5.607  15.414
 9139TIP3    H248909   0.764   5.694  15.323
 9140TIP3   OH248910   0.809   5.838  15.626
 9140TIP3    H148911   0.794   5.789  15.541
 9140TIP3    H248912   0.751   5.916  15.616
 9141TIP3   OH248913   0.123   6.993  13.898
 9141TIP3    H148914   0.219   6.999  13.915
 9141TIP3    H248915   0.121   6.927  13.825
 9142TIP3   OH248916   0.078   7.336  14.572
 9142TIP3    H148917   0.036   7.251  14.594
 9142TIP3    H248918   0.093   7.371  14.661
 9143TIP3   OH248919   1.629   6.951  15.632
 9143TIP3    H148920   1.540   6.947  15.670
 9143TIP3    H248921   1.667   7.032  15.675
 9144TIP3   OH248922   1.781   6.756  14.159
 9144TIP3    H148923   1.840   6.825  14.195
 9144TIP3    H248924   1.758   6.711  14.243
 9145TIP3   OH248925   1.797   6.588  14.364
 9145TIP3    H148926   1.722   6.540  14.404
 9145TIP3    H248927   1.856   6.608  14.439
 9146TIP3   OH248928   1.773   6.862  14.865
 9146TIP3    H148929   1.855   6.826  14.825
 9146TIP3    H248930   1.786   6.957  14.845
 9147TIP3   OH248931   1.624   7.154  15.091
 9147TIP3    H148932   1.558   7.188  15.152
 9147TIP3    H248933   1.571   7.110  15.021
 9148TIP3   OH248934   1.828   6.570  13.999
 9148TIP3    H148935   1.771   6.611  13.931
 9148TIP3    H248936   1.819   6.643  14.068
 9149TIP3   OH248937   1.664   6.298  13.855
 9149TIP3    H148938   1.671   6.365  13.786
 9149TIP3    H248939   1.646   6.215  13.806
 9150TIP3   OH248940   1.578   6.437  14.420
 9150TIP3    H148941   1.563   6.342  14.418
 9150TIP3    H248942   1.544   6.464  14.507
 9151TIP3   OH248943   0.078   6.646  14.824
 9151TIP3    H148944   0.097   6.641  14.727
 9151TIP3    H248945   0.166   6.633  14.863
 9152TIP3   OH248946   1.663   6.636  15.388
 9152TIP3    H148947   1.724   6.560  15.402
 9152TIP3    H248948   1.723   6.713  15.388
 9153TIP3   OH248949   1.813   6.425  15.455
 9153TIP3    H148950   1.726   6.385  15.436
 9153TIP3    H248951   1.872   6.349  15.446
 9154TIP3   OH248952   1.587   6.043  13.768
 9154TIP3    H148953   1.647   6.001  13.833
 9154TIP3    H248954   1.502   6.001  13.786
 9155TIP3   OH248955   1.544   6.197  14.263
 9155TIP3    H148956   1.576   6.105  14.278
 9155TIP3    H248957   1.626   6.238  14.230
 9156TIP3   OH248958   1.609   6.252  14.810
 9156TIP3    H148959   1.705   6.276  14.808
 9156TIP3    H248960   1.589   6.266  14.904
 9157TIP3   OH248961   1.616   6.325  15.088
 9157TIP3    H148962   1.528   6.354  15.122
 9157TIP3    H248963   1.659   6.411  15.066
 9158TIP3   OH248964   0.059   6.170  15.443
 9158TIP3    H148965   0.149   6.148  15.465
 9158TIP3    H248966   0.000   6.096  15.473
 9159TIP3   OH248967   1.841   5.729  15.623
 9159TIP3    H148968   1.877   5.663  15.562
 9159TIP3    H248969   1.855   5.812  15.573
 9160TIP3   OH248970   1.612   5.925  14.271
 9160TIP3    H148971   1.632   5.880  14.355
 9160TIP3    H248972   1.551   5.863  14.226
 9161TIP3   OH248973   0.157   6.003  14.728
 9161TIP3    H148974   0.209   5.924  14.754
 9161TIP3    H248975   0.211   6.074  14.767
 9162TIP3   OH248976   0.063   6.350  14.869
 9162TIP3    H148977   0.059   6.315  14.777
 9162TIP3    H248978   0.034   6.439  14.849
 9163TIP3   OH248979   1.795   5.939  15.459
 9163TIP3    H148980   1.701   5.966  15.453
 9163TIP3    H248981   1.800   5.885  15.379
 9164TIP3   OH248982   1.794   5.929  13.926
 9164TIP3    H148983   1.836   5.858  13.874
 9164TIP3    H248984   1.864   5.996  13.931
 9165TIP3   OH248985   0.063   5.932  14.212
 9165TIP3    H148986  -0.032   5.952  14.214
 9165TIP3    H248987   0.090   5.998  14.147
 9166TIP3   OH248988   7.378   5.798  15.078
 9166TIP3    H148989   7.302   5.777  15.135
 9166TIP3    H248990   7.325   5.855  15.019
 9167TIP3   OH248991   0.243   7.125  15.484
 9167TIP3    H148992   0.158   7.138  15.441
 9167TIP3    H248993   0.215   7.111  15.576
 9168TIP3   OH248994   0.539   7.220  15.117
 9168TIP3    H148995   0.492   7.297  15.081
 9168TIP3    H248996   0.627   7.224  15.077
 9169TIP3   OH248997   1.696   5.749  15.242
 9169TIP3    H148998   1.613   5.779  15.201
 9169TIP3    H248999   1.714   5.668  15.189
 9170TIP3   OH249000   0.430   7.267  14.655
 9170TIP3    H149001   0.410   7.180  14.693
 9170TIP3    H249002   0.506   7.290  14.714
 9171TIP3   OH249003   0.646   7.276  14.774
 9171TIP3    H149004   0.709   7.218  14.730
 9171TIP3    H249005   0.689   7.314  14.851
 9172TIP3   OH249006   1.036   5.892  14.673
 9172TIP3    H149007   0.968   5.827  14.699
 9172TIP3    H249008   1.091   5.840  14.613
 9173TIP3   OH249009   1.549   5.698  14.681
 9173TIP3    H149010   1.611   5.757  14.629
 9173TIP3    H249011   1.462   5.733  14.656
 9174TIP3   OH249012   1.718   5.820  14.509
 9174TIP3    H149013   1.786   5.764  14.465
 9174TIP3    H249014   1.765   5.905  14.518
 9175TIP3   OH249015   0.270   5.754  14.457
 9175TIP3    H149016   0.193   5.732  14.401
 9175TIP3    H249017   0.322   5.671  14.450
 9176TIP3   OH249018   0.188   5.741  14.043
 9176TIP3    H149019   0.204   5.801  13.969
 9176TIP3    H249020   0.106   5.777  14.082
 9177TIP3   OH249021   0.722   5.747  14.435
 9177TIP3    H149022   0.812   5.784  14.430
 9177TIP3    H249023   0.716   5.726  14.528
 9178TIP3   OH249024   1.289   5.750  14.599
 9178TIP3    H149025   1.288   5.760  14.503
 9178TIP3    H249026   1.253   5.658  14.612
 9179TIP3   OH249027   1.419   5.753  14.167
 9179TIP3    H149028   1.345   5.813  14.149
 9179TIP3    H249029   1.374   5.667  14.187
 9180TIP3   OH249030   0.140  -0.032  14.167
 9180TIP3    H149031   0.089  -0.033  14.082
 9180TIP3    H249032   0.152   0.062  14.166
 9181TIP3   OH249033   0.335   5.926  13.878
 9181TIP3    H149034   0.388   5.862  13.827
 9181TIP3    H249035   0.399   5.954  13.945
 9182TIP3   OH249036   0.837   5.951  14.121
 9182TIP3    H149037   0.860   5.891  14.194
 9182TIP3    H249038   0.840   6.037  14.169
 9183TIP3   OH249039   0.258   5.811  15.406
 9183TIP3    H149040   0.225   5.728  15.445
 9183TIP3    H249041   0.351   5.806  15.437
 9184TIP3   OH249042   0.462   5.746  15.562
 9184TIP3    H149043   0.551   5.712  15.541
 9184TIP3    H249044   0.422   5.667  15.606
 9185TIP3   OH249045   1.302   5.675  15.580
 9185TIP3    H149046   1.313   5.630  15.666
 9185TIP3    H249047   1.394   5.674  15.545
 9186TIP3   OH249048   1.616   7.275  15.456
 9186TIP3    H149049   1.544   7.265  15.391
 9186TIP3    H249050   1.619   7.372  15.464
 9187TIP3   OH249051   3.066   6.667  14.445
 9187TIP3    H149052   3.068   6.766  14.439
 9187TIP3    H249053   2.995   6.644  14.382
 9188TIP3   OH249054   2.953   6.595  14.793
 9188TIP3    H149055   2.951   6.529  14.864
 9188TIP3    H249056   2.920   6.546  14.716
 9189TIP3   OH249057   2.189   6.560  14.948
 9189TIP3    H149058   2.197   6.493  15.020
 9189TIP3    H249059   2.263   6.619  14.970
 9190TIP3   OH249060   3.323   6.888  14.621
 9190TIP3    H149061   3.280   6.817  14.669
 9190TIP3    H249062   3.324   6.960  14.687
 9191TIP3   OH249063   2.284   7.005  14.802
 9191TIP3    H149064   2.250   6.920  14.767
 9191TIP3    H249065   2.379   6.985  14.806
 9192TIP3   OH249066   1.946   6.364  14.346
 9192TIP3    H149067   1.901   6.451  14.341
 9192TIP3    H249068   1.889   6.309  14.291
 9193TIP3   OH249069   2.017   6.585  14.560
 9193TIP3    H149070   2.042   6.503  14.608
 9193TIP3    H249071   2.088   6.594  14.495
 9194TIP3   OH249072   2.790   6.834  14.838
 9194TIP3    H149073   2.825   6.771  14.773
 9194TIP3    H249074   2.869   6.851  14.892
 9195TIP3   OH249075   3.653   5.999  14.914
 9195TIP3    H149076   3.668   6.060  14.990
 9195TIP3    H249077   3.706   6.043  14.846
 9196TIP3   OH249078   3.107   6.281  14.870
 9196TIP3    H149079   3.123   6.185  14.869
 9196TIP3    H249080   3.097   6.296  14.774
 9197TIP3   OH249081   2.420   6.090  14.593
 9197TIP3    H149082   2.429   6.174  14.546
 9197TIP3    H249083   2.378   6.033  14.525
 9198TIP3   OH249084   3.193   6.099  14.430
 9198TIP3    H149085   3.259   6.067  14.496
 9198TIP3    H249086   3.249   6.155  14.374
 9199TIP3   OH249087   2.082   6.330  14.667
 9199TIP3    H149088   2.149   6.275  14.711
 9199TIP3    H249089   2.091   6.300  14.576
 9200TIP3   OH249090   2.598   6.486  14.595
 9200TIP3    H149091   2.664   6.429  14.639
 9200TIP3    H249092   2.545   6.420  14.548
 9201TIP3   OH249093   3.697   6.142  15.140
 9201TIP3    H149094   3.632   6.216  15.131
 9201TIP3    H249095   3.699   6.130  15.236
 9202TIP3   OH249096   2.308   5.980  14.998
 9202TIP3    H149097   2.281   6.036  14.922
 9202TIP3    H249098   2.240   6.003  15.065
 9203TIP3   OH249099   3.041   6.928  14.352
 9203TIP3    H149100   3.012   6.900  14.265
 9203TIP3    H249101   3.010   7.021  14.357
 9204TIP3   OH249102   2.562   6.744  15.024
 9204TIP3    H149103   2.490   6.808  15.041
 9204TIP3    H249104   2.632   6.804  14.994
 9205TIP3   OH249105   3.372   6.032  14.629
 9205TIP3    H149106   3.351   5.955  14.683
 9205TIP3    H249107   3.440   6.077  14.684
 9206TIP3   OH249108   2.264   6.167  14.798
 9206TIP3    H149109   2.328   6.234  14.831
 9206TIP3    H249110   2.317   6.123  14.727
 9207TIP3   OH249111   2.406   6.943  15.105
 9207TIP3    H149112   2.401   7.033  15.068
 9207TIP3    H249113   2.316   6.937  15.147
 9208TIP3   OH249114   2.020   6.911  14.183
 9208TIP3    H149115   1.985   6.938  14.097
 9208TIP3    H249116   2.019   6.994  14.233
 9209TIP3   OH249117   3.377   7.075  14.861
 9209TIP3    H149118   3.279   7.078  14.870
 9209TIP3    H249119   3.402   7.165  14.838
 9210TIP3   OH249120   3.407   5.901  14.998
 9210TIP3    H149121   3.334   5.964  14.990
 9210TIP3    H249122   3.477   5.944  14.944
 9211TIP3   OH249123   2.706   5.713  14.744
 9211TIP3    H149124   2.692   5.616  14.737
 9211TIP3    H249125   2.618   5.744  14.773
 9212TIP3   OH249126   3.203   7.233  14.512
 9212TIP3    H149127   3.252   7.169  14.458
 9212TIP3    H249128   3.237   7.317  14.476
 9213TIP3   OH249129   3.322   7.042  14.369
 9213TIP3    H149130   3.292   6.973  14.308
 9213TIP3    H249131   3.325   6.995  14.454
 9214TIP3   OH249132   3.484   6.901  15.218
 9214TIP3    H149133   3.499   6.837  15.145
 9214TIP3    H249134   3.506   6.986  15.177
 9215TIP3   OH249135   2.934   6.593  14.196
 9215TIP3    H149136   2.863   6.649  14.159
 9215TIP3    H249137   3.004   6.601  14.128
 9216TIP3   OH249138   2.940   6.446  13.897
 9216TIP3    H149139   3.011   6.445  13.962
 9216TIP3    H249140   2.971   6.377  13.836
 9217TIP3   OH249141   3.672   6.533  15.024
 9217TIP3    H149142   3.606   6.605  15.029
 9217TIP3    H249143   3.720   6.556  14.942
 9218TIP3   OH249144   3.277   6.614  14.287
 9218TIP3    H149145   3.202   6.638  14.347
 9218TIP3    H249146   3.323   6.545  14.338
 9219TIP3   OH249147   3.270   6.430  15.198
 9219TIP3    H149148   3.271   6.511  15.252
 9219TIP3    H249149   3.206   6.460  15.129
 9220TIP3   OH249150   2.439   6.680  14.478
 9220TIP3    H149151   2.407   6.640  14.394
 9220TIP3    H249152   2.500   6.610  14.512
 9221TIP3   OH249153   2.573   7.019  14.746
 9221TIP3    H149154   2.570   6.964  14.668
 9221TIP3    H249155   2.650   6.983  14.794
 9222TIP3   OH249156   2.473   6.554  14.843
 9222TIP3    H149157   2.529   6.566  14.764
 9222TIP3    H249158   2.510   6.620  14.906
 9223TIP3   OH249159   3.113   7.111  14.915
 9223TIP3    H149160   3.080   7.173  14.979
 9223TIP3    H249161   3.087   7.025  14.956
 9224TIP3   OH249162   2.567   6.998  15.314
 9224TIP3    H149163   2.527   7.073  15.362
 9224TIP3    H249164   2.499   6.978  15.244
 9225TIP3   OH249165   3.164   6.532  14.055
 9225TIP3    H149166   3.221   6.549  14.134
 9225TIP3    H249167   3.208   6.582  13.982
 9226TIP3   OH249168   2.260   6.613  15.232
 9226TIP3    H149169   2.264   6.680  15.303
 9226TIP3    H249170   2.167   6.624  15.207
 9227TIP3   OH249171   2.935   7.204  14.402
 9227TIP3    H149172   2.983   7.236  14.479
 9227TIP3    H249173   2.880   7.279  14.377
 9228TIP3   OH249174   2.389   7.204  15.387
 9228TIP3    H149175   2.386   7.188  15.291
 9228TIP3    H249176   2.296   7.188  15.413
 9229TIP3   OH249177   3.536   5.706  14.041
 9229TIP3    H149178   3.442   5.720  14.068
 9229TIP3    H249179   3.558   5.791  13.999
 9230TIP3   OH249180   2.338   6.582  14.239
 9230TIP3    H149181   2.308   6.661  14.189
 9230TIP3    H249182   2.271   6.517  14.218
 9231TIP3   OH249183   3.650   7.142  13.876
 9231TIP3    H149184   3.660   7.237  13.894
 9231TIP3    H249185   3.743   7.111  13.876
 9232TIP3   OH249186   1.945   6.824  15.126
 9232TIP3    H149187   1.899   6.817  15.040
 9232TIP3    H249188   1.951   6.730  15.150
 9233TIP3   OH249189   1.924   7.101  14.805
 9233TIP3    H149190   2.019   7.087  14.805
 9233TIP3    H249191   1.913   7.179  14.862
 9234TIP3   OH249192   3.743   7.167  15.378
 9234TIP3    H149193   3.734   7.072  15.372
 9234TIP3    H249194   3.656   7.194  15.415
 9235TIP3   OH249195   2.839   7.126  15.259
 9235TIP3    H149196   2.850   7.204  15.313
 9235TIP3    H249197   2.754   7.087  15.289
 9236TIP3   OH249198   3.459   6.316  15.421
 9236TIP3    H149199   3.413   6.362  15.350
 9236TIP3    H249200   3.459   6.224  15.392
 9237TIP3   OH249201   2.173   6.956  15.224
 9237TIP3    H149202   2.195   6.918  15.312
 9237TIP3    H249203   2.087   6.916  15.201
 9238TIP3   OH249204   2.440   5.802  14.820
 9238TIP3    H149205   2.350   5.792  14.782
 9238TIP3    H249206   2.429   5.887  14.866
 9239TIP3   OH249207   2.904   5.772  15.156
 9239TIP3    H149208   2.944   5.729  15.234
 9239TIP3    H249209   2.807   5.757  15.170
 9240TIP3   OH249210   3.235   6.153  15.245
 9240TIP3    H149211   3.179   6.134  15.324
 9240TIP3    H249212   3.217   6.245  15.221
 9241TIP3   OH249213   3.309   6.636  13.829
 9241TIP3    H149214   3.311   6.615  13.733
 9241TIP3    H249215   3.396   6.679  13.839
 9242TIP3   OH249216   2.870   6.027  13.886
 9242TIP3    H149217   2.839   6.023  13.979
 9242TIP3    H249218   2.839   5.939  13.856
 9243TIP3   OH249219   2.450   6.299  14.940
 9243TIP3    H149220   2.378   6.297  15.006
 9243TIP3    H249221   2.447   6.392  14.907
 9244TIP3   OH249222   2.446   6.315  14.428
 9244TIP3    H149223   2.353   6.287  14.416
 9244TIP3    H249224   2.486   6.283  14.345
 9245TIP3   OH249225   2.999   6.362  14.308
 9245TIP3    H149226   2.958   6.445  14.272
 9245TIP3    H249227   3.068   6.347  14.242
 9246TIP3   OH249228   2.905   6.383  15.452
 9246TIP3    H149229   2.852   6.306  15.483
 9246TIP3    H249230   2.990   6.370  15.498
 9247TIP3   OH249231   3.101   6.310  14.591
 9247TIP3    H149232   3.076   6.367  14.516
 9247TIP3    H249233   3.114   6.225  14.543
 9248TIP3   OH249234   2.215   6.328  15.114
 9248TIP3    H149235   2.219   6.368  15.202
 9248TIP3    H249236   2.169   6.244  15.131
 9249TIP3   OH249237   2.553   6.066  13.797
 9249TIP3    H149238   2.508   6.023  13.873
 9249TIP3    H249239   2.481   6.107  13.748
 9250TIP3   OH249240   1.879   6.039  14.508
 9250TIP3    H149241   1.946   6.035  14.579
 9250TIP3    H249242   1.925   5.999  14.431
 9251TIP3   OH249243   2.007   6.110  14.046
 9251TIP3    H149244   2.056   6.173  13.989
 9251TIP3    H249245   1.937   6.171  14.079
 9252TIP3   OH249246   3.023   6.471  15.049
 9252TIP3    H149247   3.059   6.403  14.989
 9252TIP3    H249248   2.978   6.417  15.117
 9253TIP3   OH249249   2.702   6.066  14.531
 9253TIP3    H149250   2.609   6.068  14.561
 9253TIP3    H249251   2.752   6.053  14.613
 9254TIP3   OH249252   2.184   6.224  14.417
 9254TIP3    H149253   2.095   6.237  14.379
 9254TIP3    H249254   2.213   6.140  14.378
 9255TIP3   OH249255   2.549   6.226  14.180
 9255TIP3    H149256   2.644   6.238  14.197
 9255TIP3    H249257   2.526   6.295  14.114
 9256TIP3   OH249258   3.143   5.990  14.856
 9256TIP3    H149259   3.074   5.997  14.925
 9256TIP3    H249260   3.093   5.968  14.776
 9257TIP3   OH249261   2.418   6.345  13.939
 9257TIP3    H149262   2.365   6.307  13.867
 9257TIP3    H249263   2.501   6.365  13.892
 9258TIP3   OH249264   2.232   6.803  15.444
 9258TIP3    H149265   2.303   6.826  15.507
 9258TIP3    H249266   2.153   6.814  15.502
 9259TIP3   OH249267   2.832   6.343  14.720
 9259TIP3    H149268   2.891   6.289  14.666
 9259TIP3    H249269   2.818   6.289  14.799
 9260TIP3   OH249270   2.333   5.957  14.364
 9260TIP3    H149271   2.302   5.865  14.361
 9260TIP3    H249272   2.411   5.953  14.308
 9261TIP3   OH249273   2.696   6.177  14.961
 9261TIP3    H149274   2.612   6.227  14.971
 9261TIP3    H249275   2.750   6.210  15.035
 9262TIP3   OH249276   2.754   6.798  14.131
 9262TIP3    H149277   2.674   6.751  14.098
 9262TIP3    H249278   2.733   6.809  14.226
 9263TIP3   OH249279   3.470   6.717  15.011
 9263TIP3    H149280   3.529   6.765  14.950
 9263TIP3    H249281   3.385   6.725  14.964
 9264TIP3   OH249282   3.138   6.081  13.949
 9264TIP3    H149283   3.043   6.095  13.935
 9264TIP3    H249284   3.171   6.167  13.983
 9265TIP3   OH249285   2.902   6.825  15.255
 9265TIP3    H149286   2.869   6.782  15.334
 9265TIP3    H249287   2.880   6.918  15.265
 9266TIP3   OH249288   3.211   6.271  14.113
 9266TIP3    H149289   3.301   6.257  14.151
 9266TIP3    H249290   3.220   6.352  14.061
 9267TIP3   OH249291   2.265   6.736  14.711
 9267TIP3    H149292   2.335   6.730  14.644
 9267TIP3    H249293   2.271   6.650  14.756
 9268TIP3   OH249294   2.966   6.946  14.036
 9268TIP3    H149295   2.932   7.030  14.070
 9268TIP3    H249296   2.892   6.885  14.055
 9269TIP3   OH249297   1.964   6.579  15.238
 9269TIP3    H149298   1.984   6.534  15.323
 9269TIP3    H249299   1.902   6.516  15.196
 9270TIP3   OH249300   2.665   6.533  15.458
 9270TIP3    H149301   2.634   6.507  15.370
 9270TIP3    H249302   2.758   6.504  15.457
 9271TIP3   OH249303   3.132   7.072  15.246
 9271TIP3    H149304   3.038   7.084  15.226
 9271TIP3    H249305   3.129   7.094  15.342
 9272TIP3   OH249306   3.702   6.286  14.088
 9272TIP3    H149307   3.644   6.255  14.016
 9272TIP3    H249308   3.709   6.381  14.061
 9273TIP3   OH249309   3.700   6.870  15.370
 9273TIP3    H149310   3.611   6.894  15.334
 9273TIP3    H249311   3.755   6.868  15.290
 9274TIP3   OH249312   3.530   7.160  14.138
 9274TIP3    H149313   3.492   7.078  14.164
 9274TIP3    H249314   3.558   7.151  14.045
 9275TIP3   OH249315   3.249   6.650  14.838
 9275TIP3    H149316   3.155   6.628  14.830
 9275TIP3    H249317   3.293   6.573  14.798
 9276TIP3   OH249318   2.504   7.081  14.446
 9276TIP3    H149319   2.551   7.162  14.427
 9276TIP3    H249320   2.414   7.105  14.418
 9277TIP3   OH249321   2.078   6.568  13.906
 9277TIP3    H149322   2.137   6.633  13.947
 9277TIP3    H249323   1.990   6.599  13.933
 9278TIP3   OH249324   2.646   6.849  14.402
 9278TIP3    H149325   2.616   6.942  14.411
 9278TIP3    H249326   2.571   6.803  14.446
 9279TIP3   OH249327   2.704   7.247  15.022
 9279TIP3    H149328   2.729   7.340  15.012
 9279TIP3    H249329   2.749   7.230  15.107
 9280TIP3   OH249330   2.482  -0.004  14.328
 9280TIP3    H149331   2.398   0.015  14.367
 9280TIP3    H249332   2.530   0.069  14.373
 9281TIP3   OH249333   3.046   6.871  15.006
 9281TIP3    H149334   3.007   6.848  15.093
 9281TIP3    H249335   3.106   6.797  14.988
 9282TIP3   OH249336   3.273   6.970  13.911
 9282TIP3    H149337   3.304   6.929  13.995
 9282TIP3    H249338   3.177   6.958  13.923
 9283TIP3   OH249339   3.319   7.322  15.253
 9283TIP3    H149340   3.250   7.273  15.206
 9283TIP3    H249341   3.337   7.396  15.194
 9284TIP3   OH249342   2.129   6.052  15.193
 9284TIP3    H149343   2.038   6.087  15.189
 9284TIP3    H249344   2.117   5.967  15.238
 9285TIP3   OH249345   3.353   6.835  14.136
 9285TIP3    H149346   3.329   6.760  14.193
 9285TIP3    H249347   3.447   6.844  14.157
 9286TIP3   OH249348   2.091   7.229  15.036
 9286TIP3    H149349   2.118   7.137  15.037
 9286TIP3    H249350   2.114   7.261  15.125
 9287TIP3   OH249351   2.684   7.081  13.760
 9287TIP3    H149352   2.698   7.002  13.704
 9287TIP3    H249353   2.647   7.040  13.841
 9288TIP3   OH249354   2.567   7.033  14.007
 9288TIP3    H149355   2.590   6.983  14.086
 9288TIP3    H249356   2.574   7.127  14.036
 9289TIP3   OH249357   2.219   6.759  14.056
 9289TIP3    H149358   2.147   6.798  14.111
 9289TIP3    H249359   2.270   6.838  14.029
 9290TIP3   OH249360   3.001   6.029  15.086
 9290TIP3    H149361   3.072   6.034  15.151
 9290TIP3    H249362   2.963   5.940  15.105
 9291TIP3   OH249363   3.078   5.987  14.196
 9291TIP3    H149364   3.101   6.035  14.113
 9291TIP3    H249365   3.135   6.031  14.260
 9292TIP3   OH249366   2.846   7.203  14.079
 9292TIP3    H149367   2.764   7.253  14.085
 9292TIP3    H249368   2.897   7.254  14.014
 9293TIP3   OH249369   2.799   6.162  14.278
 9293TIP3    H149370   2.879   6.218  14.283
 9293TIP3    H249371   2.774   6.149  14.371
 9294TIP3   OH249372   2.854   6.263  15.197
 9294TIP3    H149373   2.863   6.320  15.276
 9294TIP3    H249374   2.920   6.194  15.207
 9295TIP3   OH249375   2.885   5.868  14.369
 9295TIP3    H149376   2.853   5.933  14.434
 9295TIP3    H249377   2.954   5.923  14.323
 9296TIP3   OH249378   2.589  -0.033  14.078
 9296TIP3    H149379   2.595   0.049  14.026
 9296TIP3    H249380   2.557  -0.002  14.165
 9297TIP3   OH249381   2.451   5.977  14.039
 9297TIP3    H149382   2.446   6.068  14.076
 9297TIP3    H249383   2.542   5.953  14.064
 9298TIP3   OH249384   3.474   6.051  15.282
 9298TIP3    H149385   3.380   6.081  15.269
 9298TIP3    H249386   3.504   6.051  15.189
 9299TIP3   OH249387   3.334   6.430  14.685
 9299TIP3    H149388   3.252   6.386  14.656
 9299TIP3    H249389   3.381   6.360  14.736
 9300TIP3   OH249390   2.274   7.021  13.943
 9300TIP3    H149391   2.339   7.087  13.973
 9300TIP3    H249392   2.326   6.976  13.873
 9301TIP3   OH249393   2.109   6.289  13.857
 9301TIP3    H149394   2.108   6.385  13.877
 9301TIP3    H249395   2.020   6.269  13.827
 9302TIP3   OH249396   2.191   5.768  14.729
 9302TIP3    H149397   2.169   5.770  14.633
 9302TIP3    H249398   2.147   5.684  14.756
 9303TIP3   OH249399   2.093   7.158  14.352
 9303TIP3    H149400   2.004   7.199  14.343
 9303TIP3    H249401   2.133   7.207  14.279
 9304TIP3   OH249402   2.490   7.295  15.648
 9304TIP3    H149403   2.573   7.254  15.670
 9304TIP3    H249404   2.479   7.279  15.552
 9305TIP3   OH249405   2.887   7.264  13.780
 9305TIP3    H149406   2.817   7.199  13.800
 9305TIP3    H249407   2.959   7.210  13.748
 9306TIP3   OH249408   3.129   7.140  15.501
 9306TIP3    H149409   3.091   7.059  15.540
 9306TIP3    H249410   3.199   7.163  15.565
 9307TIP3   OH249411   3.351   7.239  13.802
 9307TIP3    H149412   3.378   7.158  13.846
 9307TIP3    H249413   3.423   7.263  13.741
 9308TIP3   OH249414   2.000   6.802  15.570
 9308TIP3    H149415   2.016   6.710  15.541
 9308TIP3    H249416   1.925   6.831  15.516
 9309TIP3   OH249417   2.434   6.838  13.777
 9309TIP3    H149418   2.445   6.760  13.834
 9309TIP3    H249419   2.506   6.825  13.714
 9310TIP3   OH249420   2.669   6.799  15.512
 9310TIP3    H149421   2.635   6.829  15.426
 9310TIP3    H249422   2.679   6.701  15.502
 9311TIP3   OH249423   2.976   6.945  13.754
 9311TIP3    H149424   2.946   6.957  13.846
 9311TIP3    H249425   2.955   6.850  13.742
 9312TIP3   OH249426   3.240   6.787  15.251
 9312TIP3    H149427   3.317   6.847  15.242
 9312TIP3    H249428   3.168   6.852  15.256
 9313TIP3   OH249429   2.087   6.523  15.506
 9313TIP3    H149430   2.130   6.438  15.501
 9313TIP3    H249431   2.064   6.526  15.602
 9314TIP3   OH249432   2.552   6.637  14.016
 9314TIP3    H149433   2.504   6.585  14.081
 9314TIP3    H249434   2.581   6.569  13.951
 9315TIP3   OH249435   2.480   6.420  15.248
 9315TIP3    H149436   2.419   6.492  15.274
 9315TIP3    H249437   2.517   6.456  15.166
 9316TIP3   OH249438   2.659   6.460  13.839
 9316TIP3    H149439   2.643   6.449  13.743
 9316TIP3    H249440   2.757   6.467  13.844
 9317TIP3   OH249441   2.985   6.675  15.581
 9317TIP3    H149442   3.081   6.676  15.570
 9317TIP3    H249443   2.969   6.599  15.639
 9318TIP3   OH249444   3.595   6.692  13.782
 9318TIP3    H149445   3.573   6.653  13.696
 9318TIP3    H249446   3.602   6.788  13.761
 9319TIP3   OH249447   2.520   6.158  15.354
 9319TIP3    H149448   2.531   6.086  15.291
 9319TIP3    H249449   2.515   6.238  15.298
 9320TIP3   OH249450   2.559   5.995  15.108
 9320TIP3    H149451   2.611   6.041  15.038
 9320TIP3    H249452   2.471   5.986  15.066
 9321TIP3   OH249453   2.714   6.542  15.133
 9321TIP3    H149454   2.789   6.526  15.074
 9321TIP3    H249455   2.679   6.626  15.100
 9322TIP3   OH249456   3.153   6.319  15.629
 9322TIP3    H149457   3.176   6.226  15.621
 9322TIP3    H249458   3.240   6.363  15.631
 9323TIP3   OH249459   3.288   6.599  15.445
 9323TIP3    H149460   3.262   6.671  15.383
 9323TIP3    H249461   3.384   6.595  15.425
 9324TIP3   OH249462   2.367   6.281  15.547
 9324TIP3    H149463   2.288   6.226  15.527
 9324TIP3    H249464   2.431   6.245  15.483
 9325TIP3   OH249465   2.638   5.739  15.150
 9325TIP3    H149466   2.623   5.836  15.138
 9325TIP3    H249467   2.563   5.703  15.099
 9326TIP3   OH249468   2.766   6.172  15.508
 9326TIP3    H149469   2.736   6.150  15.598
 9326TIP3    H249470   2.687   6.152  15.454
 9327TIP3   OH249471   3.037   6.085  15.415
 9327TIP3    H149472   2.941   6.091  15.429
 9327TIP3    H249473   3.065   6.022  15.484
 9328TIP3   OH249474   3.195   5.949  15.611
 9328TIP3    H149475   3.190   5.851  15.612
 9328TIP3    H249476   3.168   5.977  15.701
 9329TIP3   OH249477   2.177   6.074  15.520
 9329TIP3    H149478   2.200   6.001  15.460
 9329TIP3    H249479   2.167   6.029  15.606
 9330TIP3   OH249480   2.660   5.675  15.418
 9330TIP3    H149481   2.730   5.607  15.414
 9330TIP3    H249482   2.650   5.694  15.323
 9331TIP3   OH249483   2.695   5.838  15.626
 9331TIP3    H149484   2.680   5.789  15.541
 9331TIP3    H249485   2.637   5.916  15.616
 9332TIP3   OH249486   2.003   6.992  13.887
 9332TIP3    H149487   2.097   6.997  13.914
 9332TIP3    H249488   2.006   6.922  13.819
 9333TIP3   OH249489   1.952   7.339  14.578
 9333TIP3    H149490   1.921   7.249  14.596
 9333TIP3    H249491   1.979   7.373  14.663
 9334TIP3   OH249492   3.516   6.950  15.633
 9334TIP3    H149493   3.426   6.947  15.670
 9334TIP3    H249494   3.553   7.031  15.676
 9335TIP3   OH249495   3.645   6.781  14.176
 9335TIP3    H149496   3.731   6.824  14.194
 9335TIP3    H249497   3.645   6.709  14.243
 9336TIP3   OH249498   3.683   6.590  14.363
 9336TIP3    H149499   3.608   6.540  14.403
 9336TIP3    H249500   3.742   6.606  14.439
 9337TIP3   OH249501   3.658   6.862  14.863
 9337TIP3    H149502   3.741   6.825  14.826
 9337TIP3    H249503   3.672   6.957  14.845
 9338TIP3   OH249504   3.510   7.158  15.088
 9338TIP3    H149505   3.444   7.185  15.153
 9338TIP3    H249506   3.457   7.108  15.022
 9339TIP3   OH249507   3.713   6.574  14.003
 9339TIP3    H149508   3.657   6.610  13.931
 9339TIP3    H249509   3.704   6.645  14.069
 9340TIP3   OH249510   3.549   6.298  13.855
 9340TIP3    H149511   3.556   6.365  13.786
 9340TIP3    H249512   3.531   6.216  13.806
 9341TIP3   OH249513   3.464   6.439  14.420
 9341TIP3    H149514   3.449   6.343  14.417
 9341TIP3    H249515   3.429   6.463  14.507
 9342TIP3   OH249516   1.965   6.648  14.825
 9342TIP3    H149517   1.984   6.639  14.729
 9342TIP3    H249518   2.054   6.631  14.862
 9343TIP3   OH249519   3.549   6.637  15.388
 9343TIP3    H149520   3.610   6.561  15.402
 9343TIP3    H249521   3.609   6.714  15.389
 9344TIP3   OH249522   3.699   6.426  15.455
 9344TIP3    H149523   3.612   6.385  15.436
 9344TIP3    H249524   3.758   6.349  15.446
 9345TIP3   OH249525   3.473   6.043  13.768
 9345TIP3    H149526   3.533   6.001  13.833
 9345TIP3    H249527   3.387   6.001  13.785
 9346TIP3   OH249528   3.430   6.197  14.263
 9346TIP3    H149529   3.462   6.105  14.278
 9346TIP3    H249530   3.511   6.238  14.230
 9347TIP3   OH249531   3.494   6.252  14.810
 9347TIP3    H149532   3.590   6.276  14.808
 9347TIP3    H249533   3.475   6.266  14.904
 9348TIP3   OH249534   3.501   6.325  15.088
 9348TIP3    H149535   3.413   6.354  15.122
 9348TIP3    H249536   3.544   6.411  15.066
 9349TIP3   OH249537   1.926   6.176  15.438
 9349TIP3    H149538   2.020   6.158  15.459
 9349TIP3    H249539   1.881   6.096  15.473
 9350TIP3   OH249540   3.727   5.729  15.623
 9350TIP3    H149541   3.762   5.663  15.562
 9350TIP3    H249542   3.740   5.812  15.573
 9351TIP3   OH249543   3.497   5.926  14.271
 9351TIP3    H149544   3.517   5.880  14.355
 9351TIP3    H249545   3.437   5.863  14.226
 9352TIP3   OH249546   2.046   6.006  14.726
 9352TIP3    H149547   2.093   5.924  14.753
 9352TIP3    H249548   2.099   6.076  14.766
 9353TIP3   OH249549   1.875   6.305  14.831
 9353TIP3    H149550   1.930   6.282  14.753
 9353TIP3    H249551   1.919   6.387  14.858
 9354TIP3   OH249552   3.680   5.939  15.459
 9354TIP3    H149553   3.586   5.966  15.453
 9354TIP3    H249554   3.686   5.885  15.379
 9355TIP3   OH249555   3.680   5.929  13.926
 9355TIP3    H149556   3.722   5.858  13.874
 9355TIP3    H249557   3.750   5.996  13.931
 9356TIP3   OH249558   1.911   5.933  14.238
 9356TIP3    H149559   1.817   5.951  14.223
 9356TIP3    H249560   1.954   5.981  14.166
 9357TIP3   OH249561   1.907   5.800  15.069
 9357TIP3    H149562   1.839   5.779  15.135
 9357TIP3    H249563   1.861   5.867  15.013
 9358TIP3   OH249564   2.127   7.122  15.483
 9358TIP3    H149565   2.042   7.140  15.440
 9358TIP3    H249566   2.103   7.112  15.576
 9359TIP3   OH249567   2.423   7.219  15.116
 9359TIP3    H149568   2.379   7.297  15.081
 9359TIP3    H249569   2.512   7.224  15.077
 9360TIP3   OH249570   3.582   5.749  15.242
 9360TIP3    H149571   3.499   5.779  15.201
 9360TIP3    H249572   3.600   5.668  15.189
 9361TIP3   OH249573   2.314   7.268  14.655
 9361TIP3    H149574   2.296   7.180  14.692
 9361TIP3    H249575   2.392   7.291  14.714
 9362TIP3   OH249576   2.532   7.276  14.774
 9362TIP3    H149577   2.594   7.218  14.730
 9362TIP3    H249578   2.575   7.314  14.851
 9363TIP3   OH249579   2.922   5.892  14.673
 9363TIP3    H149580   2.854   5.827  14.699
 9363TIP3    H249581   2.977   5.840  14.613
 9364TIP3   OH249582   3.435   5.698  14.681
 9364TIP3    H149583   3.497   5.757  14.629
 9364TIP3    H249584   3.347   5.733  14.656
 9365TIP3   OH249585   3.603   5.820  14.509
 9365TIP3    H149586   3.671   5.764  14.465
 9365TIP3    H249587   3.651   5.905  14.518
 9366TIP3   OH249588   2.157   5.755  14.456
 9366TIP3    H149589   2.078   5.733  14.404
 9366TIP3    H249590   2.206   5.670  14.452
 9367TIP3   OH249591   2.036   5.731  14.031
 9367TIP3    H149592   2.084   5.796  13.975
 9367TIP3    H249593   1.977   5.788  14.083
 9368TIP3   OH249594   2.608   5.747  14.435
 9368TIP3    H149595   2.698   5.784  14.430
 9368TIP3    H249596   2.601   5.726  14.528
 9369TIP3   OH249597   3.174   5.750  14.599
 9369TIP3    H149598   3.173   5.760  14.503
 9369TIP3    H249599   3.139   5.658  14.612
 9370TIP3   OH249600   3.304   5.753  14.167
 9370TIP3    H149601   3.230   5.813  14.149
 9370TIP3    H249602   3.259   5.667  14.187
 9371TIP3   OH249603   2.011  -0.039  14.163
 9371TIP3    H149604   1.967  -0.032  14.075
 9371TIP3    H249605   2.033   0.054  14.166
 9372TIP3   OH249606   2.220   5.925  13.879
 9372TIP3    H149607   2.272   5.863  13.827
 9372TIP3    H249608   2.286   5.956  13.944
 9373TIP3   OH249609   2.723   5.951  14.121
 9373TIP3    H149610   2.746   5.891  14.194
 9373TIP3    H249611   2.725   6.037  14.169
 9374TIP3   OH249612   2.147   5.808  15.402
 9374TIP3    H149613   2.111   5.729  15.446
 9374TIP3    H249614   2.239   5.806  15.437
 9375TIP3   OH249615   2.348   5.746  15.562
 9375TIP3    H149616   2.437   5.712  15.541
 9375TIP3    H249617   2.310   5.667  15.606
 9376TIP3   OH249618   3.188   5.675  15.580
 9376TIP3    H149619   3.198   5.630  15.666
 9376TIP3    H249620   3.280   5.674  15.545
 9377TIP3   OH249621   3.503   7.275  15.455
 9377TIP3    H149622   3.429   7.265  15.392
 9377TIP3    H249623   3.504   7.372  15.466
 9378TIP3   OH249624   4.953   6.669  14.442
 9378TIP3    H149625   4.952   6.768  14.444
 9378TIP3    H249626   4.871   6.649  14.395
 9379TIP3   OH249627   4.841   6.595  14.790
 9379TIP3    H149628   4.837   6.531  14.862
 9379TIP3    H249629   4.804   6.544  14.716
 9380TIP3   OH249630   4.075   6.560  14.949
 9380TIP3    H149631   4.083   6.493  15.020
 9380TIP3    H249632   4.149   6.619  14.970
 9381TIP3   OH249633   5.207   6.887  14.620
 9381TIP3    H149634   5.167   6.817  14.671
 9381TIP3    H249635   5.210   6.960  14.685
 9382TIP3   OH249636   4.170   7.005  14.802
 9382TIP3    H149637   4.135   6.920  14.767
 9382TIP3    H249638   4.264   6.985  14.806
 9383TIP3   OH249639   3.832   6.364  14.346
 9383TIP3    H149640   3.787   6.450  14.341
 9383TIP3    H249641   3.774   6.309  14.291
 9384TIP3   OH249642   3.901   6.585  14.560
 9384TIP3    H149643   3.927   6.504  14.607
 9384TIP3    H249644   3.973   6.594  14.495
 9385TIP3   OH249645   4.676   6.834  14.838
 9385TIP3    H149646   4.710   6.771  14.773
 9385TIP3    H249647   4.755   6.851  14.892
 9386TIP3   OH249648   5.539   5.999  14.914
 9386TIP3    H149649   5.553   6.060  14.990
 9386TIP3    H249650   5.592   6.043  14.846
 9387TIP3   OH249651   4.993   6.281  14.870
 9387TIP3    H149652   5.009   6.185  14.869
 9387TIP3    H249653   4.983   6.296  14.774
 9388TIP3   OH249654   4.306   6.090  14.593
 9388TIP3    H149655   4.314   6.174  14.546
 9388TIP3    H249656   4.264   6.033  14.525
 9389TIP3   OH249657   5.078   6.101  14.431
 9389TIP3    H149658   5.144   6.067  14.496
 9389TIP3    H249659   5.136   6.154  14.374
 9390TIP3   OH249660   3.968   6.330  14.667
 9390TIP3    H149661   4.035   6.275  14.711
 9390TIP3    H249662   3.976   6.300  14.576
 9391TIP3   OH249663   4.484   6.486  14.596
 9391TIP3    H149664   4.549   6.428  14.639
 9391TIP3    H249665   4.430   6.420  14.548
 9392TIP3   OH249666   5.582   6.142  15.140
 9392TIP3    H149667   5.518   6.216  15.131
 9392TIP3    H249668   5.585   6.130  15.236
 9393TIP3   OH249669   4.194   5.980  14.998
 9393TIP3    H149670   4.167   6.036  14.922
 9393TIP3    H249671   4.125   6.003  15.065
 9394TIP3   OH249672   4.926   6.926  14.351
 9394TIP3    H149673   4.896   6.903  14.263
 9394TIP3    H249674   4.897   7.020  14.359
 9395TIP3   OH249675   4.447   6.744  15.024
 9395TIP3    H149676   4.375   6.808  15.041
 9395TIP3    H249677   4.517   6.804  14.994
 9396TIP3   OH249678   5.258   6.032  14.629
 9396TIP3    H149679   5.237   5.955  14.683
 9396TIP3    H249680   5.325   6.077  14.684
 9397TIP3   OH249681   4.150   6.167  14.798
 9397TIP3    H149682   4.214   6.234  14.831
 9397TIP3    H249683   4.203   6.123  14.727
 9398TIP3   OH249684   4.291   6.943  15.105
 9398TIP3    H149685   4.287   7.033  15.068
 9398TIP3    H249686   4.202   6.937  15.147
 9399TIP3   OH249687   3.899   6.910  14.184
 9399TIP3    H149688   3.873   6.938  14.095
 9399TIP3    H249689   3.907   6.994  14.233
 9400TIP3   OH249690   5.262   7.075  14.860
 9400TIP3    H149691   5.165   7.080  14.871
 9400TIP3    H249692   5.289   7.166  14.839
 9401TIP3   OH249693   5.293   5.901  14.998
 9401TIP3    H149694   5.220   5.964  14.990
 9401TIP3    H249695   5.363   5.944  14.944
 9402TIP3   OH249696   4.591   5.713  14.744
 9402TIP3    H149697   4.578   5.616  14.737
 9402TIP3    H249698   4.503   5.744  14.773
 9403TIP3   OH249699   5.087   7.233  14.510
 9403TIP3    H149700   5.137   7.169  14.458
 9403TIP3    H249701   5.123   7.317  14.478
 9404TIP3   OH249702   5.208   7.042  14.369
 9404TIP3    H149703   5.178   6.973  14.308
 9404TIP3    H249704   5.211   6.996  14.454
 9405TIP3   OH249705   5.370   6.902  15.218
 9405TIP3    H149706   5.384   6.838  15.145
 9405TIP3    H249707   5.391   6.987  15.177
 9406TIP3   OH249708   4.795   6.585  14.181
 9406TIP3    H149709   4.734   6.656  14.152
 9406TIP3    H249710   4.868   6.599  14.118
 9407TIP3   OH249711   4.827   6.447  13.896
 9407TIP3    H149712   4.897   6.443  13.962
 9407TIP3    H249713   4.854   6.376  13.836
 9408TIP3   OH249714   5.557   6.533  15.023
 9408TIP3    H149715   5.491   6.605  15.029
 9408TIP3    H249716   5.605   6.556  14.942
 9409TIP3   OH249717   5.184   6.623  14.299
 9409TIP3    H149718   5.109   6.645  14.358
 9409TIP3    H249719   5.220   6.542  14.341
 9410TIP3   OH249720   5.155   6.430  15.198
 9410TIP3    H149721   5.157   6.511  15.252
 9410TIP3    H249722   5.092   6.460  15.129
 9411TIP3   OH249723   4.325   6.680  14.478
 9411TIP3    H149724   4.292   6.640  14.394
 9411TIP3    H249725   4.385   6.610  14.512
 9412TIP3   OH249726   4.459   7.020  14.746
 9412TIP3    H149727   4.455   6.964  14.668
 9412TIP3    H249728   4.535   6.983  14.794
 9413TIP3   OH249729   4.358   6.554  14.843
 9413TIP3    H149730   4.415   6.566  14.764
 9413TIP3    H249731   4.395   6.620  14.906
 9414TIP3   OH249732   4.996   7.110  14.914
 9414TIP3    H149733   4.968   7.173  14.978
 9414TIP3    H249734   4.972   7.024  14.957
 9415TIP3   OH249735   4.453   6.998  15.313
 9415TIP3    H149736   4.414   7.073  15.363
 9415TIP3    H249737   4.384   6.978  15.244
 9416TIP3   OH249738   5.051   6.535  14.054
 9416TIP3    H149739   5.120   6.544  14.123
 9416TIP3    H249740   5.094   6.581  13.978
 9417TIP3   OH249741   4.146   6.613  15.232
 9417TIP3    H149742   4.150   6.680  15.303
 9417TIP3    H249743   4.053   6.624  15.207
 9418TIP3   OH249744   4.820   7.204  14.402
 9418TIP3    H149745   4.869   7.236  14.478
 9418TIP3    H249746   4.766   7.279  14.376
 9419TIP3   OH249747   4.274   7.205  15.385
 9419TIP3    H149748   4.271   7.187  15.289
 9419TIP3    H249749   4.183   7.188  15.415
 9420TIP3   OH249750   5.422   5.706  14.041
 9420TIP3    H149751   5.328   5.719  14.068
 9420TIP3    H249752   5.443   5.791  13.999
 9421TIP3   OH249753   4.222   6.583  14.240
 9421TIP3    H149754   4.193   6.661  14.188
 9421TIP3    H249755   4.156   6.517  14.218
 9422TIP3   OH249756   5.536   7.142  13.876
 9422TIP3    H149757   5.546   7.237  13.894
 9422TIP3    H249758   5.628   7.111  13.876
 9423TIP3   OH249759   3.831   6.824  15.126
 9423TIP3    H149760   3.785   6.817  15.040
 9423TIP3    H249761   3.836   6.730  15.150
 9424TIP3   OH249762   3.809   7.103  14.804
 9424TIP3    H149763   3.904   7.086  14.805
 9424TIP3    H249764   3.801   7.178  14.863
 9425TIP3   OH249765   5.629   7.167  15.382
 9425TIP3    H149766   5.619   7.072  15.371
 9425TIP3    H249767   5.541   7.194  15.414
 9426TIP3   OH249768   4.724   7.126  15.260
 9426TIP3    H149769   4.735   7.204  15.314
 9426TIP3    H249770   4.640   7.087  15.291
 9427TIP3   OH249771   5.345   6.316  15.422
 9427TIP3    H149772   5.299   6.362  15.350
 9427TIP3    H249773   5.345   6.224  15.392
 9428TIP3   OH249774   4.059   6.957  15.224
 9428TIP3    H149775   4.081   6.918  15.311
 9428TIP3    H249776   3.973   6.916  15.201
 9429TIP3   OH249777   4.325   5.802  14.820
 9429TIP3    H149778   4.235   5.792  14.782
 9429TIP3    H249779   4.315   5.887  14.866
 9430TIP3   OH249780   4.790   5.772  15.156
 9430TIP3    H149781   4.830   5.729  15.234
 9430TIP3    H249782   4.693   5.757  15.170
 9431TIP3   OH249783   5.120   6.153  15.245
 9431TIP3    H149784   5.065   6.134  15.324
 9431TIP3    H249785   5.102   6.245  15.221
 9432TIP3   OH249786   5.196   6.633  13.830
 9432TIP3    H149787   5.198   6.618  13.733
 9432TIP3    H249788   5.281   6.680  13.839
 9433TIP3   OH249789   4.755   6.027  13.886
 9433TIP3    H149790   4.725   6.023  13.979
 9433TIP3    H249791   4.725   5.939  13.856
 9434TIP3   OH249792   4.335   6.299  14.940
 9434TIP3    H149793   4.264   6.297  15.006
 9434TIP3    H249794   4.332   6.392  14.907
 9435TIP3   OH249795   4.331   6.315  14.429
 9435TIP3    H149796   4.238   6.286  14.416
 9435TIP3    H249797   4.371   6.283  14.346
 9436TIP3   OH249798   4.891   6.370  14.310
 9436TIP3    H149799   4.834   6.438  14.270
 9436TIP3    H249800   4.952   6.340  14.240
 9437TIP3   OH249801   4.791   6.383  15.452
 9437TIP3    H149802   4.738   6.306  15.483
 9437TIP3    H249803   4.875   6.370  15.498
 9438TIP3   OH249804   4.988   6.310  14.590
 9438TIP3    H149805   4.961   6.366  14.516
 9438TIP3    H249806   4.999   6.224  14.545
 9439TIP3   OH249807   4.100   6.328  15.114
 9439TIP3    H149808   4.104   6.368  15.202
 9439TIP3    H249809   4.055   6.244  15.131
 9440TIP3   OH249810   4.439   6.066  13.797
 9440TIP3    H149811   4.394   6.023  13.873
 9440TIP3    H249812   4.367   6.107  13.748
 9441TIP3   OH249813   3.765   6.039  14.508
 9441TIP3    H149814   3.832   6.035  14.579
 9441TIP3    H249815   3.810   5.999  14.431
 9442TIP3   OH249816   3.892   6.110  14.046
 9442TIP3    H149817   3.941   6.172  13.989
 9442TIP3    H249818   3.822   6.171  14.079
 9443TIP3   OH249819   4.909   6.471  15.049
 9443TIP3    H149820   4.945   6.403  14.989
 9443TIP3    H249821   4.863   6.417  15.117
 9444TIP3   OH249822   4.588   6.066  14.531
 9444TIP3    H149823   4.495   6.068  14.561
 9444TIP3    H249824   4.637   6.053  14.613
 9445TIP3   OH249825   4.070   6.224  14.417
 9445TIP3    H149826   3.981   6.237  14.379
 9445TIP3    H249827   4.099   6.140  14.378
 9446TIP3   OH249828   4.434   6.226  14.179
 9446TIP3    H149829   4.529   6.238  14.197
 9446TIP3    H249830   4.411   6.295  14.114
 9447TIP3   OH249831   5.029   5.990  14.856
 9447TIP3    H149832   4.960   5.997  14.925
 9447TIP3    H249833   4.978   5.968  14.776
 9448TIP3   OH249834   4.303   6.345  13.939
 9448TIP3    H149835   4.250   6.307  13.867
 9448TIP3    H249836   4.386   6.365  13.892
 9449TIP3   OH249837   4.118   6.802  15.445
 9449TIP3    H149838   4.189   6.826  15.506
 9449TIP3    H249839   4.040   6.816  15.503
 9450TIP3   OH249840   4.718   6.343  14.719
 9450TIP3    H149841   4.776   6.287  14.667
 9450TIP3    H249842   4.703   6.289  14.798
 9451TIP3   OH249843   4.218   5.957  14.364
 9451TIP3    H149844   4.188   5.865  14.361
 9451TIP3    H249845   4.297   5.953  14.308
 9452TIP3   OH249846   4.581   6.177  14.961
 9452TIP3    H149847   4.498   6.227  14.971
 9452TIP3    H249848   4.636   6.210  15.035
 9453TIP3   OH249849   4.641   6.796  14.132
 9453TIP3    H149850   4.560   6.752  14.098
 9453TIP3    H249851   4.616   6.811  14.226
 9454TIP3   OH249852   5.356   6.717  15.011
 9454TIP3    H149853   5.414   6.765  14.950
 9454TIP3    H249854   5.271   6.725  14.964
 9455TIP3   OH249855   5.024   6.083  13.947
 9455TIP3    H149856   4.928   6.093  13.936
 9455TIP3    H249857   5.056   6.167  13.984
 9456TIP3   OH249858   4.788   6.824  15.254
 9456TIP3    H149859   4.754   6.782  15.334
 9456TIP3    H249860   4.766   6.917  15.265
 9457TIP3   OH249861   5.094   6.275  14.117
 9457TIP3    H149862   5.186   6.255  14.150
 9457TIP3    H249863   5.108   6.350  14.059
 9458TIP3   OH249864   4.150   6.736  14.711
 9458TIP3    H149865   4.221   6.730  14.644
 9458TIP3    H249866   4.157   6.650  14.756
 9459TIP3   OH249867   4.853   6.944  14.039
 9459TIP3    H149868   4.818   7.030  14.068
 9459TIP3    H249869   4.776   6.886  14.055
 9460TIP3   OH249870   3.849   6.578  15.238
 9460TIP3    H149871   3.869   6.534  15.323
 9460TIP3    H249872   3.788   6.516  15.195
 9461TIP3   OH249873   4.550   6.533  15.458
 9461TIP3    H149874   4.520   6.507  15.370
 9461TIP3    H249875   4.644   6.505  15.457
 9462TIP3   OH249876   5.017   7.072  15.245
 9462TIP3    H149877   4.923   7.084  15.226
 9462TIP3    H249878   5.015   7.094  15.342
 9463TIP3   OH249879   5.587   6.286  14.090
 9463TIP3    H149880   5.530   6.255  14.017
 9463TIP3    H249881   5.595   6.381  14.061
 9464TIP3   OH249882   5.585   6.870  15.370
 9464TIP3    H149883   5.497   6.894  15.334
 9464TIP3    H249884   5.641   6.868  15.290
 9465TIP3   OH249885   5.416   7.160  14.137
 9465TIP3    H149886   5.378   7.077  14.163
 9465TIP3    H249887   5.443   7.150  14.044
 9466TIP3   OH249888   5.135   6.651  14.839
 9466TIP3    H149889   5.041   6.628  14.831
 9466TIP3    H249890   5.178   6.573  14.799
 9467TIP3   OH249891   4.389   7.080  14.446
 9467TIP3    H149892   4.436   7.162  14.427
 9467TIP3    H249893   4.300   7.105  14.418
 9468TIP3   OH249894   3.964   6.567  13.906
 9468TIP3    H149895   4.023   6.633  13.947
 9468TIP3    H249896   3.875   6.600  13.933
 9469TIP3   OH249897   4.532   6.848  14.402
 9469TIP3    H149898   4.502   6.941  14.411
 9469TIP3    H249899   4.457   6.803  14.446
 9470TIP3   OH249900   4.590   7.246  15.022
 9470TIP3    H149901   4.616   7.339  15.012
 9470TIP3    H249902   4.634   7.229  15.107
 9471TIP3   OH249903   4.368  -0.004  14.328
 9471TIP3    H149904   4.284   0.015  14.367
 9471TIP3    H249905   4.416   0.069  14.373
 9472TIP3   OH249906   4.931   6.871  15.006
 9472TIP3    H149907   4.893   6.848  15.093
 9472TIP3    H249908   4.992   6.797  14.988
 9473TIP3   OH249909   5.159   6.969  13.911
 9473TIP3    H149910   5.191   6.930  13.995
 9473TIP3    H249911   5.063   6.959  13.922
 9474TIP3   OH249912   5.203   7.322  15.254
 9474TIP3    H149913   5.137   7.273  15.205
 9474TIP3    H249914   5.224   7.396  15.193
 9475TIP3   OH249915   4.014   6.052  15.193
 9475TIP3    H149916   3.923   6.087  15.189
 9475TIP3    H249917   4.003   5.967  15.238
 9476TIP3   OH249918   5.238   6.834  14.136
 9476TIP3    H149919   5.219   6.760  14.196
 9476TIP3    H249920   5.333   6.846  14.155
 9477TIP3   OH249921   3.975   7.229  15.037
 9477TIP3    H149922   4.004   7.137  15.036
 9477TIP3    H249923   4.001   7.260  15.125
 9478TIP3   OH249924   4.570   7.081  13.760
 9478TIP3    H149925   4.583   7.002  13.704
 9478TIP3    H249926   4.533   7.040  13.841
 9479TIP3   OH249927   4.452   7.034  14.007
 9479TIP3    H149928   4.475   6.984  14.086
 9479TIP3    H249929   4.460   7.127  14.036
 9480TIP3   OH249930   4.105   6.759  14.056
 9480TIP3    H149931   4.034   6.798  14.111
 9480TIP3    H249932   4.156   6.838  14.029
 9481TIP3   OH249933   4.887   6.029  15.086
 9481TIP3    H149934   4.958   6.034  15.151
 9481TIP3    H249935   4.849   5.940  15.105
 9482TIP3   OH249936   4.963   5.987  14.196
 9482TIP3    H149937   4.986   6.034  14.113
 9482TIP3    H249938   5.021   6.029  14.260
 9483TIP3   OH249939   4.732   7.203  14.079
 9483TIP3    H149940   4.649   7.253  14.085
 9483TIP3    H249941   4.783   7.254  14.014
 9484TIP3   OH249942   4.685   6.164  14.278
 9484TIP3    H149943   4.765   6.217  14.284
 9484TIP3    H249944   4.658   6.148  14.371
 9485TIP3   OH249945   4.740   6.263  15.197
 9485TIP3    H149946   4.749   6.320  15.276
 9485TIP3    H249947   4.806   6.194  15.207
 9486TIP3   OH249948   4.771   5.868  14.369
 9486TIP3    H149949   4.738   5.933  14.434
 9486TIP3    H249950   4.839   5.923  14.323
 9487TIP3   OH249951   4.475  -0.032  14.078
 9487TIP3    H149952   4.481   0.049  14.026
 9487TIP3    H249953   4.442  -0.002  14.165
 9488TIP3   OH249954   4.336   5.977  14.039
 9488TIP3    H149955   4.331   6.068  14.076
 9488TIP3    H249956   4.427   5.953  14.064
 9489TIP3   OH249957   5.359   6.051  15.282
 9489TIP3    H149958   5.266   6.081  15.269
 9489TIP3    H249959   5.389   6.051  15.189
 9490TIP3   OH249960   5.219   6.430  14.683
 9490TIP3    H149961   5.137   6.384  14.657
 9490TIP3    H249962   5.266   6.361  14.736
 9491TIP3   OH249963   4.159   7.021  13.943
 9491TIP3    H149964   4.224   7.087  13.972
 9491TIP3    H249965   4.211   6.977  13.873
 9492TIP3   OH249966   3.995   6.289  13.857
 9492TIP3    H149967   3.994   6.384  13.877
 9492TIP3    H249968   3.906   6.269  13.827
 9493TIP3   OH249969   4.076   5.768  14.729
 9493TIP3    H149970   4.055   5.770  14.633
 9493TIP3    H249971   4.033   5.684  14.756
 9494TIP3   OH249972   3.977   7.157  14.351
 9494TIP3    H149973   3.890   7.201  14.343
 9494TIP3    H249974   4.019   7.207  14.280
 9495TIP3   OH249975   4.358   7.279  15.638
 9495TIP3    H149976   4.450   7.263  15.672
 9495TIP3    H249977   4.368   7.279  15.542
 9496TIP3   OH249978   4.772   7.264  13.780
 9496TIP3    H149979   4.703   7.199  13.800
 9496TIP3    H249980   4.845   7.210  13.748
 9497TIP3   OH249981   5.017   7.138  15.500
 9497TIP3    H149982   4.976   7.060  15.540
 9497TIP3    H249983   5.083   7.164  15.566
 9498TIP3   OH249984   5.236   7.239  13.803
 9498TIP3    H149985   5.264   7.158  13.846
 9498TIP3    H249986   5.308   7.263  13.741
 9499TIP3   OH249987   3.885   6.802  15.572
 9499TIP3    H149988   3.901   6.711  15.540
 9499TIP3    H249989   3.811   6.831  15.516
 9500TIP3   OH249990   4.320   6.839  13.778
 9500TIP3    H149991   4.331   6.760  13.834
 9500TIP3    H249992   4.392   6.825  13.713
 9501TIP3   OH249993   4.555   6.797  15.511
 9501TIP3    H149994   4.521   6.829  15.426
 9501TIP3    H249995   4.565   6.700  15.501
 9502TIP3   OH249996   4.862   6.945  13.754
 9502TIP3    H149997   4.831   6.958  13.845
 9502TIP3    H249998   4.840   6.851  13.740
 9503TIP3   OH249999   5.125   6.787  15.251
 9503TIP3    H150000   5.203   6.847  15.242
 9503TIP3    H250001   5.054   6.852  15.256
 9504TIP3   OH250002   3.973   6.525  15.511
 9504TIP3    H150003   4.015   6.439  15.501
 9504TIP3    H250004   3.950   6.525  15.606
 9505TIP3   OH250005   4.441   6.637  14.017
 9505TIP3    H150006   4.390   6.585  14.081
 9505TIP3    H250007   4.466   6.569  13.951
 9506TIP3   OH250008   4.366   6.420  15.248
 9506TIP3    H150009   4.305   6.491  15.274
 9506TIP3    H250010   4.403   6.456  15.166
 9507TIP3   OH250011   4.545   6.459  13.838
 9507TIP3    H150012   4.529   6.449  13.743
 9507TIP3    H250013   4.642   6.467  13.843
 9508TIP3   OH250014   4.870   6.674  15.581
 9508TIP3    H150015   4.966   6.676  15.570
 9508TIP3    H250016   4.854   6.599  15.639
 9509TIP3   OH250017   5.480   6.692  13.781
 9509TIP3    H150018   5.459   6.653  13.695
 9509TIP3    H250019   5.488   6.788  13.761
 9510TIP3   OH250020   4.405   6.158  15.354
 9510TIP3    H150021   4.417   6.085  15.290
 9510TIP3    H250022   4.401   6.238  15.298
 9511TIP3   OH250023   4.445   5.995  15.108
 9511TIP3    H150024   4.497   6.041  15.038
 9511TIP3    H250025   4.356   5.986  15.066
 9512TIP3   OH250026   4.600   6.542  15.133
 9512TIP3    H150027   4.675   6.526  15.074
 9512TIP3    H250028   4.565   6.626  15.100
 9513TIP3   OH250029   5.039   6.319  15.629
 9513TIP3    H150030   5.062   6.226  15.621
 9513TIP3    H250031   5.126   6.363  15.631
 9514TIP3   OH250032   5.173   6.599  15.445
 9514TIP3    H150033   5.148   6.671  15.383
 9514TIP3    H250034   5.269   6.594  15.425
 9515TIP3   OH250035   4.252   6.281  15.547
 9515TIP3    H150036   4.174   6.225  15.527
 9515TIP3    H250037   4.317   6.246  15.483
 9516TIP3   OH250038   4.524   5.739  15.150
 9516TIP3    H150039   4.509   5.836  15.138
 9516TIP3    H250040   4.449   5.703  15.099
 9517TIP3   OH250041   4.652   6.172  15.508
 9517TIP3    H150042   4.622   6.150  15.598
 9517TIP3    H250043   4.572   6.152  15.454
 9518TIP3   OH250044   4.923   6.085  15.415
 9518TIP3    H150045   4.827   6.091  15.429
 9518TIP3    H250046   4.951   6.022  15.484
 9519TIP3   OH250047   5.080   5.949  15.611
 9519TIP3    H150048   5.076   5.851  15.612
 9519TIP3    H250049   5.054   5.977  15.701
 9520TIP3   OH250050   4.063   6.074  15.520
 9520TIP3    H150051   4.086   6.001  15.460
 9520TIP3    H250052   4.053   6.029  15.606
 9521TIP3   OH250053   4.545   5.675  15.418
 9521TIP3    H150054   4.615   5.607  15.414
 9521TIP3    H250055   4.536   5.694  15.323
 9522TIP3   OH250056   4.581   5.838  15.626
 9522TIP3    H150057   4.566   5.789  15.541
 9522TIP3    H250058   4.522   5.916  15.616
 9523TIP3   OH250059   3.888   6.991  13.889
 9523TIP3    H150060   3.983   6.997  13.913
 9523TIP3    H250061   3.892   6.922  13.819
 9524TIP3   OH250062   3.834   7.339  14.577
 9524TIP3    H150063   3.808   7.248  14.596
 9524TIP3    H250064   3.867   7.372  14.662
 9525TIP3   OH250065   5.403   6.950  15.634
 9525TIP3    H150066   5.311   6.947  15.669
 9525TIP3    H250067   5.436   7.032  15.675
 9526TIP3   OH250068   5.529   6.781  14.176
 9526TIP3    H150069   5.615   6.823  14.194
 9526TIP3    H250070   5.532   6.709  14.243
 9527TIP3   OH250071   5.567   6.590  14.363
 9527TIP3    H150072   5.494   6.539  14.404
 9527TIP3    H250073   5.628   6.606  14.439
 9528TIP3   OH250074   5.544   6.863  14.863
 9528TIP3    H150075   5.626   6.826  14.826
 9528TIP3    H250076   5.558   6.958  14.845
 9529TIP3   OH250077   5.395   7.154  15.091
 9529TIP3    H150078   5.329   7.188  15.152
 9529TIP3    H250079   5.342   7.110  15.021
 9530TIP3   OH250080   5.599   6.574  14.003
 9530TIP3    H150081   5.543   6.610  13.931
 9530TIP3    H250082   5.590   6.645  14.069
 9531TIP3   OH250083   5.431   6.299  13.855
 9531TIP3    H150084   5.444   6.366  13.787
 9531TIP3    H250085   5.419   6.215  13.807
 9532TIP3   OH250086   5.344   6.440  14.418
 9532TIP3    H150087   5.336   6.343  14.418
 9532TIP3    H250088   5.318   6.462  14.510
 9533TIP3   OH250089   3.850   6.648  14.825
 9533TIP3    H150090   3.869   6.639  14.729
 9533TIP3    H250091   3.939   6.631  14.862
 9534TIP3   OH250092   5.434   6.636  15.389
 9534TIP3    H150093   5.496   6.560  15.402
 9534TIP3    H250094   5.494   6.713  15.389
 9535TIP3   OH250095   5.585   6.425  15.455
 9535TIP3    H150096   5.497   6.385  15.436
 9535TIP3    H250097   5.643   6.348  15.446
 9536TIP3   OH250098   5.358   6.044  13.768
 9536TIP3    H150099   5.418   6.002  13.832
 9536TIP3    H250100   5.273   6.000  13.787
 9537TIP3   OH250101   5.314   6.199  14.262
 9537TIP3    H150102   5.346   6.107  14.278
 9537TIP3    H250103   5.397   6.238  14.230
 9538TIP3   OH250104   5.380   6.252  14.810
 9538TIP3    H150105   5.476   6.275  14.809
 9538TIP3    H250106   5.360   6.266  14.904
 9539TIP3   OH250107   5.387   6.325  15.088
 9539TIP3    H150108   5.299   6.354  15.122
 9539TIP3    H250109   5.430   6.411  15.066
 9540TIP3   OH250110   3.811   6.176  15.438
 9540TIP3    H150111   3.905   6.158  15.460
 9540TIP3    H250112   3.766   6.096  15.472
 9541TIP3   OH250113   5.612   5.729  15.623
 9541TIP3    H150114   5.648   5.663  15.562
 9541TIP3    H250115   5.626   5.812  15.573
 9542TIP3   OH250116   5.382   5.926  14.271
 9542TIP3    H150117   5.403   5.881  14.355
 9542TIP3    H250118   5.322   5.863  14.226
 9543TIP3   OH250119   3.932   6.006  14.726
 9543TIP3    H150120   3.978   5.925  14.753
 9543TIP3    H250121   3.984   6.076  14.766
 9544TIP3   OH250122   3.761   6.305  14.831
 9544TIP3    H150123   3.816   6.282  14.753
 9544TIP3    H250124   3.805   6.387  14.858
 9545TIP3   OH250125   5.566   5.939  15.459
 9545TIP3    H150126   5.472   5.966  15.453
 9545TIP3    H250127   5.572   5.885  15.379
 9546TIP3   OH250128   5.566   5.930  13.926
 9546TIP3    H150129   5.607   5.858  13.874
 9546TIP3    H250130   5.636   5.996  13.930
 9547TIP3   OH250131   3.797   5.933  14.238
 9547TIP3    H150132   3.703   5.951  14.223
 9547TIP3    H250133   3.840   5.981  14.166
 9548TIP3   OH250134   3.792   5.800  15.069
 9548TIP3    H150135   3.725   5.779  15.135
 9548TIP3    H250136   3.746   5.867  15.013
 9549TIP3   OH250137   4.013   7.123  15.484
 9549TIP3    H150138   3.928   7.140  15.440
 9549TIP3    H250139   3.987   7.111  15.576
 9550TIP3   OH250140   4.309   7.218  15.115
 9550TIP3    H150141   4.264   7.296  15.081
 9550TIP3    H250142   4.398   7.223  15.077
 9551TIP3   OH250143   5.467   5.749  15.242
 9551TIP3    H150144   5.384   5.779  15.201
 9551TIP3    H250145   5.485   5.668  15.189
 9552TIP3   OH250146   4.199   7.268  14.655
 9552TIP3    H150147   4.182   7.180  14.692
 9552TIP3    H250148   4.277   7.290  14.714
 9553TIP3   OH250149   4.417   7.277  14.774
 9553TIP3    H150150   4.479   7.219  14.730
 9553TIP3    H250151   4.461   7.313  14.852
 9554TIP3   OH250152   4.807   5.893  14.671
 9554TIP3    H150153   4.740   5.828  14.699
 9554TIP3    H250154   4.863   5.840  14.613
 9555TIP3   OH250155   5.321   5.698  14.681
 9555TIP3    H150156   5.382   5.757  14.629
 9555TIP3    H250157   5.233   5.733  14.656
 9556TIP3   OH250158   5.489   5.820  14.509
 9556TIP3    H150159   5.557   5.764  14.465
 9556TIP3    H250160   5.537   5.905  14.518
 9557TIP3   OH250161   4.043   5.755  14.456
 9557TIP3    H150162   3.964   5.733  14.404
 9557TIP3    H250163   4.091   5.670  14.452
 9558TIP3   OH250164   3.922   5.731  14.031
 9558TIP3    H150165   3.969   5.796  13.975
 9558TIP3    H250166   3.863   5.788  14.082
 9559TIP3   OH250167   4.493   5.747  14.435
 9559TIP3    H150168   4.583   5.784  14.430
 9559TIP3    H250169   4.487   5.726  14.528
 9560TIP3   OH250170   5.060   5.750  14.599
 9560TIP3    H150171   5.059   5.760  14.503
 9560TIP3    H250172   5.024   5.658  14.612
 9561TIP3   OH250173   5.190   5.753  14.167
 9561TIP3    H150174   5.116   5.813  14.150
 9561TIP3    H250175   5.145   5.667  14.187
 9562TIP3   OH250176   3.894  -0.039  14.163
 9562TIP3    H150177   3.853  -0.031  14.074
 9562TIP3    H250178   3.919   0.053  14.167
 9563TIP3   OH250179   4.105   5.925  13.879
 9563TIP3    H150180   4.158   5.863  13.827
 9563TIP3    H250181   4.172   5.956  13.944
 9564TIP3   OH250182   4.608   5.951  14.121
 9564TIP3    H150183   4.631   5.891  14.194
 9564TIP3    H250184   4.611   6.037  14.169
 9565TIP3   OH250185   4.032   5.808  15.402
 9565TIP3    H150186   3.996   5.729  15.446
 9565TIP3    H250187   4.125   5.806  15.437
 9566TIP3   OH250188   4.234   5.746  15.562
 9566TIP3    H150189   4.323   5.712  15.541
 9566TIP3    H250190   4.195   5.667  15.606
 9567TIP3   OH250191   5.074   5.675  15.580
 9567TIP3    H150192   5.084   5.630  15.666
 9567TIP3    H250193   5.165   5.674  15.545
 9568TIP3   OH250194   5.387   7.275  15.456
 9568TIP3    H150195   5.315   7.265  15.391
 9568TIP3    H250196   5.390   7.372  15.464
 9569TIP3   OH250197   6.837   6.667  14.445
 9569TIP3    H150198   6.840   6.765  14.438
 9569TIP3    H250199   6.766   6.644  14.382
 9570TIP3   OH250200   6.725   6.595  14.793
 9570TIP3    H150201   6.722   6.530  14.864
 9570TIP3    H250202   6.692   6.546  14.716
 9571TIP3   OH250203   5.960   6.560  14.949
 9571TIP3    H150204   5.968   6.493  15.020
 9571TIP3    H250205   6.034   6.619  14.970
 9572TIP3   OH250206   7.094   6.888  14.621
 9572TIP3    H150207   7.052   6.817  14.670
 9572TIP3    H250208   7.099   6.958  14.687
 9573TIP3   OH250209   6.055   7.005  14.802
 9573TIP3    H150210   6.021   6.920  14.767
 9573TIP3    H250211   6.150   6.985  14.806
 9574TIP3   OH250212   5.718   6.363  14.346
 9574TIP3    H150213   5.673   6.450  14.341
 9574TIP3    H250214   5.660   6.309  14.291
 9575TIP3   OH250215   5.787   6.585  14.560
 9575TIP3    H150216   5.813   6.504  14.607
 9575TIP3    H250217   5.859   6.594  14.495
 9576TIP3   OH250218   6.561   6.834  14.838
 9576TIP3    H150219   6.596   6.771  14.773
 9576TIP3    H250220   6.641   6.851  14.892
 9577TIP3   OH250221   6.878   6.281  14.869
 9577TIP3    H150222   6.895   6.185  14.869
 9577TIP3    H250223   6.868   6.296  14.773
 9578TIP3   OH250224   6.191   6.090  14.593
 9578TIP3    H150225   6.200   6.174  14.546
 9578TIP3    H250226   6.150   6.033  14.525
 9579TIP3   OH250227   6.965   6.101  14.431
 9579TIP3    H150228   7.031   6.067  14.496
 9579TIP3    H250229   7.020   6.154  14.373
 9580TIP3   OH250230   5.853   6.330  14.667
 9580TIP3    H150231   5.921   6.275  14.711
 9580TIP3    H250232   5.862   6.300  14.576
 9581TIP3   OH250233   6.370   6.486  14.596
 9581TIP3    H150234   6.435   6.428  14.639
 9581TIP3    H250235   6.316   6.420  14.548
 9582TIP3   OH250236   6.080   5.980  14.998
 9582TIP3    H150237   6.053   6.036  14.922
 9582TIP3    H250238   6.011   6.003  15.065
 9583TIP3   OH250239   6.810   6.927  14.353
 9583TIP3    H150240   6.783   6.899  14.265
 9583TIP3    H250241   6.781   7.020  14.357
 9584TIP3   OH250242   6.333   6.744  15.024
 9584TIP3    H150243   6.261   6.808  15.041
 9584TIP3    H250244   6.403   6.804  14.994
 9585TIP3   OH250245   7.129   6.031  14.635
 9585TIP3    H150246   7.121   5.951  14.687
 9585TIP3    H250247   7.203   6.077  14.680
 9586TIP3   OH250248   6.036   6.167  14.798
 9586TIP3    H150249   6.099   6.234  14.831
 9586TIP3    H250250   6.089   6.123  14.727
 9587TIP3   OH250251   6.177   6.943  15.104
 9587TIP3    H150252   6.172   7.033  15.068
 9587TIP3    H250253   6.087   6.937  15.147
 9588TIP3   OH250254   5.785   6.910  14.184
 9588TIP3    H150255   5.759   6.938  14.095
 9588TIP3    H250256   5.793   6.994  14.233
 9589TIP3   OH250257   7.141   7.071  14.863
 9589TIP3    H150258   7.045   7.080  14.872
 9589TIP3    H250259   7.172   7.160  14.839
 9590TIP3   OH250260   7.170   5.908  14.988
 9590TIP3    H150261   7.097   5.971  14.990
 9590TIP3    H250262   7.241   5.953  14.941
 9591TIP3   OH250263   6.477   5.713  14.744
 9591TIP3    H150264   6.464   5.616  14.737
 9591TIP3    H250265   6.389   5.744  14.773
 9592TIP3   OH250266   6.974   7.233  14.510
 9592TIP3    H150267   7.024   7.168  14.458
 9592TIP3    H250268   7.010   7.317  14.478
 9593TIP3   OH250269   7.093   7.041  14.368
 9593TIP3    H150270   7.064   6.972  14.308
 9593TIP3    H250271   7.098   6.994  14.453
 9594TIP3   OH250272   7.235   6.911  15.224
 9594TIP3    H150273   7.266   6.844  15.159
 9594TIP3    H250274   7.276   6.989  15.182
 9595TIP3   OH250275   6.705   6.593  14.196
 9595TIP3    H150276   6.634   6.649  14.159
 9595TIP3    H250277   6.775   6.601  14.128
 9596TIP3   OH250278   6.711   6.446  13.896
 9596TIP3    H150279   6.782   6.444  13.962
 9596TIP3    H250280   6.742   6.376  13.836
 9597TIP3   OH250281   7.047   6.615  14.286
 9597TIP3    H150282   6.974   6.639  14.347
 9597TIP3    H250283   7.094   6.546  14.339
 9598TIP3   OH250284   7.037   6.428  15.197
 9598TIP3    H150285   7.041   6.509  15.251
 9598TIP3    H250286   6.977   6.461  15.127
 9599TIP3   OH250287   6.210   6.680  14.478
 9599TIP3    H150288   6.178   6.640  14.394
 9599TIP3    H250289   6.271   6.610  14.512
 9600TIP3   OH250290   6.344   7.019  14.746
 9600TIP3    H150291   6.341   6.964  14.668
 9600TIP3    H250292   6.421   6.983  14.794
 9601TIP3   OH250293   6.244   6.554  14.843
 9601TIP3    H150294   6.301   6.566  14.764
 9601TIP3    H250295   6.281   6.620  14.906
 9602TIP3   OH250296   6.881   7.110  14.914
 9602TIP3    H150297   6.853   7.173  14.980
 9602TIP3    H250298   6.858   7.024  14.957
 9603TIP3   OH250299   6.338   6.998  15.314
 9603TIP3    H150300   6.299   7.073  15.362
 9603TIP3    H250301   6.270   6.978  15.244
 9604TIP3   OH250302   6.936   6.531  14.054
 9604TIP3    H150303   6.991   6.549  14.134
 9604TIP3    H250304   6.977   6.581  13.981
 9605TIP3   OH250305   6.031   6.613  15.232
 9605TIP3    H150306   6.036   6.680  15.303
 9605TIP3    H250307   5.938   6.624  15.207
 9606TIP3   OH250308   6.706   7.204  14.402
 9606TIP3    H150309   6.755   7.236  14.478
 9606TIP3    H250310   6.652   7.279  14.377
 9607TIP3   OH250311   6.160   7.204  15.388
 9607TIP3    H150312   6.158   7.188  15.291
 9607TIP3    H250313   6.067   7.188  15.413
 9608TIP3   OH250314   7.284   5.701  14.029
 9608TIP3    H150315   7.199   5.725  14.071
 9608TIP3    H250316   7.320   5.784  13.998
 9609TIP3   OH250317   6.108   6.583  14.240
 9609TIP3    H150318   6.079   6.661  14.188
 9609TIP3    H250319   6.042   6.517  14.218
 9610TIP3   OH250320   5.717   6.824  15.126
 9610TIP3    H150321   5.671   6.817  15.040
 9610TIP3    H250322   5.722   6.730  15.150
 9611TIP3   OH250323   5.695   7.101  14.805
 9611TIP3    H150324   5.790   7.087  14.805
 9611TIP3    H250325   5.685   7.179  14.862
 9612TIP3   OH250326   6.610   7.126  15.259
 9612TIP3    H150327   6.621   7.204  15.313
 9612TIP3    H250328   6.525   7.087  15.289
 9613TIP3   OH250329   7.206   6.327  15.426
 9613TIP3    H150330   7.182   6.364  15.342
 9613TIP3    H250331   7.234   6.235  15.398
 9614TIP3   OH250332   5.944   6.957  15.224
 9614TIP3    H150333   5.967   6.918  15.312
 9614TIP3    H250334   5.859   6.916  15.201
 9615TIP3   OH250335   6.211   5.802  14.820
 9615TIP3    H150336   6.121   5.792  14.782
 9615TIP3    H250337   6.200   5.887  14.866
 9616TIP3   OH250338   6.675   5.771  15.156
 9616TIP3    H150339   6.715   5.729  15.234
 9616TIP3    H250340   6.578   5.757  15.170
 9617TIP3   OH250341   7.004   6.153  15.244
 9617TIP3    H150342   6.951   6.134  15.325
 9617TIP3    H250343   6.988   6.245  15.222
 9618TIP3   OH250344   7.081   6.633  13.828
 9618TIP3    H150345   7.083   6.614  13.731
 9618TIP3    H250346   7.164   6.679  13.838
 9619TIP3   OH250347   6.644   6.029  13.889
 9619TIP3    H150348   6.610   6.023  13.980
 9619TIP3    H250349   6.611   5.941  13.856
 9620TIP3   OH250350   6.221   6.299  14.940
 9620TIP3    H150351   6.149   6.297  15.006
 9620TIP3    H250352   6.218   6.392  14.907
 9621TIP3   OH250353   6.218   6.315  14.428
 9621TIP3    H150354   6.125   6.287  14.416
 9621TIP3    H250355   6.257   6.283  14.345
 9622TIP3   OH250356   6.771   6.362  14.307
 9622TIP3    H150357   6.730   6.445  14.272
 9622TIP3    H250358   6.841   6.346  14.242
 9623TIP3   OH250359   6.677   6.383  15.452
 9623TIP3    H150360   6.624   6.306  15.483
 9623TIP3    H250361   6.761   6.370  15.498
 9624TIP3   OH250362   6.873   6.311  14.591
 9624TIP3    H150363   6.848   6.367  14.516
 9624TIP3    H250364   6.884   6.226  14.544
 9625TIP3   OH250365   5.986   6.328  15.114
 9625TIP3    H150366   5.990   6.368  15.202
 9625TIP3    H250367   5.940   6.244  15.131
 9626TIP3   OH250368   6.323   6.098  13.824
 9626TIP3    H150369   6.282   6.023  13.870
 9626TIP3    H250370   6.262   6.100  13.747
 9627TIP3   OH250371   5.650   6.039  14.508
 9627TIP3    H150372   5.717   6.035  14.579
 9627TIP3    H250373   5.696   5.999  14.431
 9628TIP3   OH250374   5.776   6.110  14.046
 9628TIP3    H150375   5.827   6.172  13.990
 9628TIP3    H250376   5.707   6.171  14.079
 9629TIP3   OH250377   6.794   6.470  15.049
 9629TIP3    H150378   6.831   6.403  14.988
 9629TIP3    H250379   6.749   6.417  15.117
 9630TIP3   OH250380   6.473   6.066  14.531
 9630TIP3    H150381   6.380   6.068  14.561
 9630TIP3    H250382   6.523   6.053  14.613
 9631TIP3   OH250383   5.956   6.224  14.417
 9631TIP3    H150384   5.866   6.237  14.379
 9631TIP3    H250385   5.984   6.140  14.377
 9632TIP3   OH250386   6.320   6.226  14.180
 9632TIP3    H150387   6.415   6.238  14.197
 9632TIP3    H250388   6.297   6.295  14.114
 9633TIP3   OH250389   6.913   5.988  14.855
 9633TIP3    H150390   6.845   5.997  14.925
 9633TIP3    H250391   6.862   5.969  14.775
 9634TIP3   OH250392   6.188   6.349  13.939
 9634TIP3    H150393   6.136   6.308  13.868
 9634TIP3    H250394   6.272   6.363  13.892
 9635TIP3   OH250395   6.004   6.802  15.445
 9635TIP3    H150396   6.074   6.826  15.507
 9635TIP3    H250397   5.925   6.814  15.501
 9636TIP3   OH250398   6.603   6.343  14.720
 9636TIP3    H150399   6.663   6.288  14.667
 9636TIP3    H250400   6.589   6.289  14.799
 9637TIP3   OH250401   6.104   5.957  14.364
 9637TIP3    H150402   6.073   5.865  14.361
 9637TIP3    H250403   6.183   5.953  14.308
 9638TIP3   OH250404   6.467   6.177  14.961
 9638TIP3    H150405   6.384   6.227  14.971
 9638TIP3    H250406   6.521   6.210  15.035
 9639TIP3   OH250407   6.525   6.798  14.131
 9639TIP3    H150408   6.445   6.751  14.098
 9639TIP3    H250409   6.504   6.809  14.226
 9640TIP3   OH250410   7.230   6.719  15.010
 9640TIP3    H150411   7.295   6.750  14.944
 9640TIP3    H250412   7.148   6.724  14.959
 9641TIP3   OH250413   6.910   6.080  13.948
 9641TIP3    H150414   6.814   6.094  13.935
 9641TIP3    H250415   6.939   6.167  13.983
 9642TIP3   OH250416   6.674   6.825  15.255
 9642TIP3    H150417   6.639   6.782  15.334
 9642TIP3    H250418   6.653   6.918  15.265
 9643TIP3   OH250419   6.981   6.271  14.110
 9643TIP3    H150420   7.069   6.258  14.151
 9643TIP3    H250421   6.989   6.354  14.061
 9644TIP3   OH250422   6.035   6.736  14.711
 9644TIP3    H150423   6.107   6.730  14.644
 9644TIP3    H250424   6.042   6.650  14.756
 9645TIP3   OH250425   6.736   6.946  14.035
 9645TIP3    H150426   6.703   7.030  14.070
 9645TIP3    H250427   6.662   6.885  14.056
 9646TIP3   OH250428   5.735   6.579  15.238
 9646TIP3    H150429   5.755   6.534  15.323
 9646TIP3    H250430   5.673   6.516  15.195
 9647TIP3   OH250431   6.436   6.533  15.458
 9647TIP3    H150432   6.406   6.507  15.370
 9647TIP3    H250433   6.529   6.504  15.457
 9648TIP3   OH250434   6.902   7.073  15.245
 9648TIP3    H150435   6.808   7.084  15.226
 9648TIP3    H250436   6.901   7.093  15.341
 9649TIP3   OH250437   7.283   7.157  14.130
 9649TIP3    H150438   7.261   7.073  14.166
 9649TIP3    H250439   7.328   7.147  14.046
 9650TIP3   OH250440   7.016   6.649  14.840
 9650TIP3    H150441   6.922   6.626  14.828
 9650TIP3    H250442   7.063   6.573  14.798
 9651TIP3   OH250443   6.275   7.081  14.446
 9651TIP3    H150444   6.322   7.162  14.427
 9651TIP3    H250445   6.185   7.105  14.418
 9652TIP3   OH250446   5.849   6.567  13.906
 9652TIP3    H150447   5.909   6.633  13.947
 9652TIP3    H250448   5.761   6.600  13.933
 9653TIP3   OH250449   6.417   6.849  14.402
 9653TIP3    H150450   6.387   6.942  14.411
 9653TIP3    H250451   6.342   6.803  14.446
 9654TIP3   OH250452   6.475   7.247  15.022
 9654TIP3    H150453   6.501   7.340  15.012
 9654TIP3    H250454   6.520   7.230  15.107
 9655TIP3   OH250455   6.253  -0.004  14.328
 9655TIP3    H150456   6.169   0.015  14.367
 9655TIP3    H250457   6.302   0.069  14.373
 9656TIP3   OH250458   6.818   6.871  15.007
 9656TIP3    H150459   6.778   6.848  15.093
 9656TIP3    H250460   6.877   6.796  14.988
 9657TIP3   OH250461   7.046   6.970  13.913
 9657TIP3    H150462   7.074   6.928  13.996
 9657TIP3    H250463   6.950   6.959  13.922
 9658TIP3   OH250464   7.089   7.327  15.255
 9658TIP3    H150465   7.024   7.274  15.206
 9658TIP3    H250466   7.112   7.397  15.193
 9659TIP3   OH250467   5.900   6.052  15.193
 9659TIP3    H150468   5.809   6.087  15.189
 9659TIP3    H250469   5.889   5.967  15.238
 9660TIP3   OH250470   7.124   6.833  14.136
 9660TIP3    H150471   7.099   6.758  14.195
 9660TIP3    H250472   7.218   6.845  14.159
 9661TIP3   OH250473   5.862   7.229  15.037
 9661TIP3    H150474   5.889   7.137  15.037
 9661TIP3    H250475   5.885   7.261  15.125
 9662TIP3   OH250476   6.455   7.081  13.760
 9662TIP3    H150477   6.469   7.002  13.704
 9662TIP3    H250478   6.418   7.040  13.841
 9663TIP3   OH250479   6.338   7.033  14.007
 9663TIP3    H150480   6.361   6.983  14.086
 9663TIP3    H250481   6.345   7.127  14.036
 9664TIP3   OH250482   5.990   6.759  14.056
 9664TIP3    H150483   5.920   6.798  14.111
 9664TIP3    H250484   6.041   6.838  14.029
 9665TIP3   OH250485   6.772   6.028  15.087
 9665TIP3    H150486   6.844   6.035  15.150
 9665TIP3    H250487   6.734   5.940  15.106
 9666TIP3   OH250488   6.850   5.987  14.196
 9666TIP3    H150489   6.873   6.035  14.114
 9666TIP3    H250490   6.906   6.030  14.261
 9667TIP3   OH250491   6.618   7.203  14.079
 9667TIP3    H150492   6.535   7.253  14.085
 9667TIP3    H250493   6.668   7.254  14.014
 9668TIP3   OH250494   6.570   6.162  14.277
 9668TIP3    H150495   6.650   6.218  14.282
 9668TIP3    H250496   6.545   6.149  14.370
 9669TIP3   OH250497   6.626   6.263  15.197
 9669TIP3    H150498   6.635   6.320  15.275
 9669TIP3    H250499   6.692   6.193  15.207
 9670TIP3   OH250500   6.654   5.869  14.368
 9670TIP3    H150501   6.625   5.933  14.434
 9670TIP3    H250502   6.724   5.922  14.323
 9671TIP3   OH250503   6.360  -0.033  14.078
 9671TIP3    H150504   6.366   0.049  14.026
 9671TIP3    H250505   6.328  -0.002  14.165
 9672TIP3   OH250506   6.220   5.975  14.043
 9672TIP3    H150507   6.217   6.068  14.074
 9672TIP3    H250508   6.313   5.953  14.062
 9673TIP3   OH250509   7.241   6.045  15.275
 9673TIP3    H150510   7.150   6.082  15.269
 9673TIP3    H250511   7.275   6.055  15.186
 9674TIP3   OH250512   7.106   6.430  14.688
 9674TIP3    H150513   7.024   6.387  14.656
 9674TIP3    H250514   7.147   6.357  14.737
 9675TIP3   OH250515   6.045   7.021  13.943
 9675TIP3    H150516   6.110   7.087  13.973
 9675TIP3    H250517   6.097   6.977  13.873
 9676TIP3   OH250518   5.880   6.288  13.856
 9676TIP3    H150519   5.880   6.384  13.877
 9676TIP3    H250520   5.791   6.269  13.827
 9677TIP3   OH250521   5.962   5.768  14.729
 9677TIP3    H150522   5.940   5.770  14.633
 9677TIP3    H250523   5.919   5.684  14.756
 9678TIP3   OH250524   5.863   7.156  14.351
 9678TIP3    H150525   5.776   7.201  14.343
 9678TIP3    H250526   5.905   7.207  14.280
 9679TIP3   OH250527   6.259   7.292  15.649
 9679TIP3    H150528   6.345   7.255  15.670
 9679TIP3    H250529   6.250   7.279  15.552
 9680TIP3   OH250530   6.658   7.264  13.779
 9680TIP3    H150531   6.589   7.199  13.800
 9680TIP3    H250532   6.731   7.209  13.748
 9681TIP3   OH250533   6.900   7.140  15.503
 9681TIP3    H150534   6.863   7.059  15.540
 9681TIP3    H250535   6.970   7.163  15.566
 9682TIP3   OH250536   7.124   7.242  13.804
 9682TIP3    H150537   7.146   7.158  13.845
 9682TIP3    H250538   7.194   7.261  13.739
 9683TIP3   OH250539   5.769   6.802  15.573
 9683TIP3    H150540   5.787   6.712  15.540
 9683TIP3    H250541   5.696   6.830  15.515
 9684TIP3   OH250542   6.205   6.838  13.777
 9684TIP3    H150543   6.217   6.760  13.834
 9684TIP3    H250544   6.277   6.825  13.714
 9685TIP3   OH250545   6.440   6.799  15.512
 9685TIP3    H150546   6.406   6.829  15.426
 9685TIP3    H250547   6.451   6.701  15.502
 9686TIP3   OH250548   6.747   6.945  13.754
 9686TIP3    H150549   6.718   6.957  13.846
 9686TIP3    H250550   6.726   6.850  13.742
 9687TIP3   OH250551   7.010   6.785  15.248
 9687TIP3    H150552   7.088   6.846  15.241
 9687TIP3    H250553   6.940   6.851  15.256
 9688TIP3   OH250554   5.859   6.525  15.511
 9688TIP3    H150555   5.900   6.439  15.501
 9688TIP3    H250556   5.835   6.525  15.606
 9689TIP3   OH250557   6.324   6.639  14.017
 9689TIP3    H150558   6.275   6.585  14.081
 9689TIP3    H250559   6.352   6.570  13.951
 9690TIP3   OH250560   6.251   6.420  15.248
 9690TIP3    H150561   6.191   6.491  15.274
 9690TIP3    H250562   6.289   6.456  15.166
 9691TIP3   OH250563   6.431   6.460  13.838
 9691TIP3    H150564   6.414   6.447  13.743
 9691TIP3    H250565   6.528   6.467  13.844
 9692TIP3   OH250566   6.753   6.675  15.582
 9692TIP3    H150567   6.850   6.676  15.569
 9692TIP3    H250568   6.740   6.598  15.639
 9693TIP3   OH250569   6.291   6.158  15.354
 9693TIP3    H150570   6.302   6.085  15.290
 9693TIP3    H250571   6.287   6.238  15.298
 9694TIP3   OH250572   6.330   5.995  15.108
 9694TIP3    H150573   6.382   6.041  15.038
 9694TIP3    H250574   6.242   5.986  15.066
 9695TIP3   OH250575   6.486   6.542  15.133
 9695TIP3    H150576   6.561   6.526  15.074
 9695TIP3    H250577   6.450   6.626  15.100
 9696TIP3   OH250578   6.925   6.320  15.632
 9696TIP3    H150579   6.948   6.227  15.620
 9696TIP3    H250580   7.012   6.363  15.630
 9697TIP3   OH250581   7.055   6.599  15.443
 9697TIP3    H150582   7.033   6.672  15.382
 9697TIP3    H250583   7.151   6.595  15.425
 9698TIP3   OH250584   6.138   6.281  15.547
 9698TIP3    H150585   6.060   6.225  15.527
 9698TIP3    H250586   6.202   6.246  15.483
 9699TIP3   OH250587   6.409   5.739  15.150
 9699TIP3    H150588   6.394   5.836  15.138
 9699TIP3    H250589   6.334   5.703  15.099
 9700TIP3   OH250590   6.537   6.172  15.508
 9700TIP3    H150591   6.507   6.150  15.598
 9700TIP3    H250592   6.458   6.152  15.454
 9701TIP3   OH250593   6.807   6.086  15.415
 9701TIP3    H150594   6.711   6.090  15.430
 9701TIP3    H250595   6.837   6.022  15.483
 9702TIP3   OH250596   6.969   5.949  15.611
 9702TIP3    H150597   6.960   5.851  15.612
 9702TIP3    H250598   6.940   5.978  15.701
 9703TIP3   OH250599   5.948   6.074  15.520
 9703TIP3    H150600   5.971   6.001  15.460
 9703TIP3    H250601   5.939   6.029  15.606
 9704TIP3   OH250602   6.431   5.675  15.418
 9704TIP3    H150603   6.501   5.607  15.414
 9704TIP3    H250604   6.421   5.694  15.323
 9705TIP3   OH250605   6.466   5.838  15.626
 9705TIP3    H150606   6.451   5.789  15.541
 9705TIP3    H250607   6.408   5.916  15.616
 9706TIP3   OH250608   5.773   6.991  13.889
 9706TIP3    H150609   5.869   6.997  13.913
 9706TIP3    H250610   5.777   6.922  13.819
 9707TIP3   OH250611   5.722   7.338  14.577
 9707TIP3    H150612   5.692   7.249  14.597
 9707TIP3    H250613   5.750   7.373  14.662
 9708TIP3   OH250614   7.271   6.962  15.620
 9708TIP3    H150615   7.192   6.946  15.673
 9708TIP3    H250616   7.321   7.024  15.676
 9709TIP3   OH250617   7.280   7.150  15.095
 9709TIP3    H150618   7.214   7.187  15.153
 9709TIP3    H250619   7.228   7.109  15.021
 9710TIP3   OH250620   7.309   6.299  13.858
 9710TIP3    H150621   7.326   6.363  13.788
 9710TIP3    H250622   7.300   6.216  13.807
 9711TIP3   OH250623   7.204   6.445  14.421
 9711TIP3    H150624   7.217   6.349  14.424
 9711TIP3    H250625   7.197   6.466  14.515
 9712TIP3   OH250626   5.735   6.647  14.825
 9712TIP3    H150627   5.755   6.639  14.729
 9712TIP3    H250628   5.825   6.631  14.862
 9713TIP3   OH250629  -0.033   6.641  15.416
 9713TIP3    H150630   0.026   6.564  15.407
 9713TIP3    H250631   0.025   6.713  15.384
 9714TIP3   OH250632   7.245   6.044  13.769
 9714TIP3    H150633   7.302   6.000  13.832
 9714TIP3    H250634   7.160   6.000  13.785
 9715TIP3   OH250635   7.201   6.195  14.257
 9715TIP3    H150636   7.230   6.107  14.285
 9715TIP3    H250637   7.281   6.234  14.224
 9716TIP3   OH250638   7.228   6.204  14.801
 9716TIP3    H150639   7.323   6.220  14.790
 9716TIP3    H250640   7.231   6.253  14.886
 9717TIP3   OH250641   7.271   6.326  15.096
 9717TIP3    H150642   7.182   6.355  15.123
 9717TIP3    H250643   7.312   6.406  15.063
 9718TIP3   OH250644   5.697   6.176  15.438
 9718TIP3    H150645   5.791   6.158  15.460
 9718TIP3    H250646   5.652   6.096  15.472
 9719TIP3   OH250647   7.191   5.907  14.322
 9719TIP3    H150648   7.279   5.879  14.355
 9719TIP3    H250649   7.196   5.858  14.236
 9720TIP3   OH250650   5.817   6.006  14.726
 9720TIP3    H150651   5.864   5.925  14.753
 9720TIP3    H250652   5.870   6.076  14.766
 9721TIP3   OH250653   5.646   6.305  14.831
 9721TIP3    H150654   5.702   6.282  14.753
 9721TIP3    H250655   5.690   6.387  14.858
 9722TIP3   OH250656   5.683   5.933  14.238
 9722TIP3    H150657   5.589   5.951  14.223
 9722TIP3    H250658   5.726   5.981  14.166
 9723TIP3   OH250659   5.678   5.800  15.069
 9723TIP3    H150660   5.610   5.779  15.135
 9723TIP3    H250661   5.632   5.867  15.013
 9724TIP3   OH250662   5.899   7.123  15.484
 9724TIP3    H150663   5.814   7.140  15.438
 9724TIP3    H250664   5.873   7.111  15.576
 9725TIP3   OH250665   6.194   7.219  15.116
 9725TIP3    H150666   6.150   7.297  15.081
 9725TIP3    H250667   6.283   7.224  15.077
 9726TIP3   OH250668   6.085   7.268  14.655
 9726TIP3    H150669   6.068   7.180  14.692
 9726TIP3    H250670   6.163   7.291  14.714
 9727TIP3   OH250671   6.303   7.276  14.774
 9727TIP3    H150672   6.366   7.218  14.730
 9727TIP3    H250673   6.346   7.314  14.851
 9728TIP3   OH250674   6.693   5.892  14.672
 9728TIP3    H150675   6.625   5.827  14.699
 9728TIP3    H250676   6.749   5.840  14.613
 9729TIP3   OH250677   7.208   5.698  14.682
 9729TIP3    H150678   7.264   5.759  14.634
 9729TIP3    H250679   7.119   5.732  14.659
 9730TIP3   OH250680   5.929   5.755  14.456
 9730TIP3    H150681   5.849   5.733  14.404
 9730TIP3    H250682   5.977   5.670  14.452
 9731TIP3   OH250683   5.808   5.731  14.031
 9731TIP3    H150684   5.856   5.796  13.975
 9731TIP3    H250685   5.749   5.788  14.082
 9732TIP3   OH250686   6.379   5.747  14.435
 9732TIP3    H150687   6.469   5.784  14.430
 9732TIP3    H250688   6.372   5.726  14.528
 9733TIP3   OH250689   6.948   5.748  14.598
 9733TIP3    H150690   6.945   5.760  14.503
 9733TIP3    H250691   6.910   5.658  14.611
 9734TIP3   OH250692   7.070   5.748  14.162
 9734TIP3    H150693   6.999   5.813  14.151
 9734TIP3    H250694   7.026   5.665  14.188
 9735TIP3   OH250695   5.779  -0.039  14.163
 9735TIP3    H150696   5.739  -0.031  14.074
 9735TIP3    H250697   5.805   0.053  14.167
 9736TIP3   OH250698   5.990   5.923  13.881
 9736TIP3    H150699   6.044   5.864  13.825
 9736TIP3    H250700   6.058   5.956  13.943
 9737TIP3   OH250701   6.494   5.950  14.122
 9737TIP3    H150702   6.517   5.891  14.195
 9737TIP3    H250703   6.497   6.037  14.169
 9738TIP3   OH250704   5.918   5.808  15.402
 9738TIP3    H150705   5.882   5.729  15.446
 9738TIP3    H250706   6.010   5.806  15.437
 9739TIP3   OH250707   6.119   5.746  15.562
 9739TIP3    H150708   6.208   5.712  15.541
 9739TIP3    H250709   6.081   5.667  15.606
 9740TIP3   OH250710   6.960   5.677  15.579
 9740TIP3    H150711   6.968   5.630  15.664
 9740TIP3    H250712   7.051   5.673  15.543
 9741TIP3   OH250713   7.277   7.280  15.455
 9741TIP3    H150714   7.204   7.262  15.392
 9741TIP3    H250715   7.272   7.376  15.465
 9742TIP3   OH250716   1.050   0.785  15.782
 9742TIP3    H150717   1.125   0.790  15.847
 9742TIP3    H250718   1.086   0.720  15.721
 9743TIP3   OH250719   1.271   0.858  15.930
 9743TIP3    H150720   1.319   0.885  16.012
 9743TIP3    H250721   1.310   0.920  15.866
 9744TIP3   OH250722   1.646   0.053  15.922
 9744TIP3    H150723   1.557   0.068  15.956
 9744TIP3    H250724   1.673   0.138  15.885
 9745TIP3   OH250725   1.764   1.486  15.759
 9745TIP3    H150726   1.777   1.579  15.783
 9745TIP3    H250727   1.857   1.457  15.762
 9746TIP3   OH250728   1.306   1.762  15.830
 9746TIP3    H150729   1.348   1.687  15.783
 9746TIP3    H250730   1.313   1.732  15.922
 9747TIP3   OH250731   1.427   0.978  15.714
 9747TIP3    H150732   1.424   0.957  15.617
 9747TIP3    H250733   1.512   1.022  15.721
 9748TIP3   OH250734   0.983   0.367  15.771
 9748TIP3    H150735   0.957   0.369  15.864
 9748TIP3    H250736   0.954   0.279  15.743
 9749TIP3   OH250737   0.667   0.415  15.685
 9749TIP3    H150738   0.624   0.365  15.758
 9749TIP3    H250739   0.598   0.447  15.629
 9750TIP3   OH250740   0.115   0.452  15.921
 9750TIP3    H150741   0.172   0.516  15.876
 9750TIP3    H250742   0.051   0.509  15.962
 9751TIP3   OH250743   0.535   0.680  15.825
 9751TIP3    H150744   0.480   0.658  15.752
 9751TIP3    H250745   0.616   0.710  15.780
 9752TIP3   OH250746   1.254   0.431  15.835
 9752TIP3    H150747   1.158   0.438  15.822
 9752TIP3    H250748   1.285   0.514  15.870
 9753TIP3   OH250749   1.079   1.287  15.920
 9753TIP3    H150750   1.044   1.371  15.952
 9753TIP3    H250751   1.007   1.226  15.940
 9754TIP3   OH250752   1.835   0.633  15.959
 9754TIP3    H150753   1.766   0.598  15.898
 9754TIP3    H250754   1.829   0.728  15.939
 9755TIP3   OH250755   0.187   0.910  15.791
 9755TIP3    H150756   0.252   0.973  15.834
 9755TIP3    H250757   0.104   0.947  15.820
 9756TIP3   OH250758   1.389   1.309  15.796
 9756TIP3    H150759   1.418   1.276  15.882
 9756TIP3    H250760   1.293   1.301  15.809
 9757TIP3   OH250761   1.832   1.754  15.819
 9757TIP3    H150762   1.908   1.815  15.811
 9757TIP3    H250763   1.764   1.815  15.855
 9758TIP3   OH250764   0.798   1.424  15.644
 9758TIP3    H150765   0.814   1.347  15.589
 9758TIP3    H250766   0.762   1.382  15.726
 9759TIP3   OH250767   0.683   1.376  15.888
 9759TIP3    H150768   0.700   1.329  15.971
 9759TIP3    H250769   0.689   1.468  15.921
 9760TIP3   OH250770   0.319   1.102  15.929
 9760TIP3    H150771   0.267   1.136  16.000
 9760TIP3    H250772   0.385   1.174  15.916
 9761TIP3   OH250773   0.915   1.512  15.894
 9761TIP3    H150774   0.866   1.575  15.950
 9761TIP3    H250775   0.991   1.572  15.887
 9762TIP3   OH250776   0.697   1.649  15.968
 9762TIP3    H150777   0.706   1.729  15.910
 9762TIP3    H250778   0.673   1.688  16.052
 9763TIP3   OH250779   0.554   0.301  15.900
 9763TIP3    H150780   0.536   0.384  15.948
 9763TIP3    H250781   0.643   0.292  15.939
 9764TIP3   OH250782   0.389   1.366  15.829
 9764TIP3    H150783   0.453   1.432  15.858
 9764TIP3    H250784   0.442   1.320  15.761
 9765TIP3   OH250785   0.227   0.635  15.737
 9765TIP3    H150786   0.220   0.728  15.766
 9765TIP3    H250787   0.134   0.612  15.720
 9766TIP3   OH250788   1.001   1.611  15.658
 9766TIP3    H150789   0.932   1.545  15.687
 9766TIP3    H250790   1.073   1.552  15.633
 9767TIP3   OH250791   1.457   1.587  15.677
 9767TIP3    H150792   1.486   1.510  15.728
 9767TIP3    H250793   1.535   1.609  15.623
 9768TIP3   OH250794   0.546   1.180  15.665
 9768TIP3    H150795   0.562   1.103  15.721
 9768TIP3    H250796   0.620   1.169  15.600
 9769TIP3   OH250797   1.090   1.288  15.640
 9769TIP3    H150798   1.062   1.299  15.732
 9769TIP3    H250799   1.068   1.192  15.625
 9770TIP3   OH250800   0.665   0.977  15.894
 9770TIP3    H150801   0.621   0.927  15.965
 9770TIP3    H250802   0.696   0.909  15.832
 9771TIP3   OH250803   0.773   0.797  15.724
 9771TIP3    H150804   0.760   0.792  15.628
 9771TIP3    H250805   0.871   0.811  15.731
 9772TIP3   OH250806   1.710   1.038  15.670
 9772TIP3    H150807   1.689   0.998  15.584
 9772TIP3    H250808   1.718   1.134  15.646
 9773TIP3   OH250809   0.762   1.872  15.832
 9773TIP3    H150810   0.859   1.883  15.838
 9773TIP3    H250811   0.741   1.934  15.760
 9774TIP3   OH250812   0.124   1.337  15.781
 9774TIP3    H150813   0.220   1.343  15.798
 9774TIP3    H250814   0.123   1.269  15.710
 9775TIP3   OH250815   1.833   0.910  15.878
 9775TIP3    H150816   1.779   0.951  15.808
 9775TIP3    H250817   1.828   0.977  15.950
 9776TIP3   OH250818   1.663   0.643  15.742
 9776TIP3    H150819   1.670   0.708  15.671
 9776TIP3    H250820   1.645   0.560  15.693
 9777TIP3   OH250821   1.587   0.387  15.657
 9777TIP3    H150822   1.648   0.343  15.718
 9777TIP3    H250823   1.502   0.343  15.674
 9778TIP3   OH250824   1.795   0.274  15.808
 9778TIP3    H150825   1.837   0.198  15.761
 9778TIP3    H250826   1.867   0.339  15.817
 9779TIP3   OH250827   0.188   0.088  15.925
 9779TIP3    H150828   0.201   0.150  15.855
 9779TIP3    H250829   0.107   0.120  15.969
 9780TIP3   OH250830   0.339   0.281  15.752
 9780TIP3    H150831   0.385   0.204  15.713
 9780TIP3    H250832   0.397   0.294  15.831
 9781TIP3   OH250833   1.026   1.804  15.843
 9781TIP3    H150834   1.119   1.826  15.828
 9781TIP3    H250835   1.007   1.747  15.766
 9782TIP3   OH250836   0.320   1.765  15.711
 9782TIP3    H150837   0.296   1.792  15.802
 9782TIP3    H250838   0.400   1.712  15.728
 9783TIP3   OH250839   2.936   0.785  15.782
 9783TIP3    H150840   3.010   0.790  15.847
 9783TIP3    H250841   2.972   0.720  15.721
 9784TIP3   OH250842   3.156   0.858  15.930
 9784TIP3    H150843   3.204   0.885  16.012
 9784TIP3    H250844   3.196   0.920  15.866
 9785TIP3   OH250845   3.532   0.053  15.922
 9785TIP3    H150846   3.443   0.068  15.956
 9785TIP3    H250847   3.558   0.138  15.885
 9786TIP3   OH250848   3.650   1.486  15.759
 9786TIP3    H150849   3.662   1.579  15.783
 9786TIP3    H250850   3.743   1.457  15.762
 9787TIP3   OH250851   3.191   1.762  15.830
 9787TIP3    H150852   3.233   1.687  15.783
 9787TIP3    H250853   3.198   1.732  15.922
 9788TIP3   OH250854   3.312   0.978  15.714
 9788TIP3    H150855   3.310   0.958  15.617
 9788TIP3    H250856   3.397   1.022  15.721
 9789TIP3   OH250857   2.869   0.367  15.771
 9789TIP3    H150858   2.842   0.369  15.863
 9789TIP3    H250859   2.839   0.279  15.743
 9790TIP3   OH250860   2.553   0.413  15.684
 9790TIP3    H150861   2.508   0.366  15.757
 9790TIP3    H250862   2.481   0.451  15.633
 9791TIP3   OH250863   2.004   0.448  15.923
 9791TIP3    H150864   2.058   0.514  15.874
 9791TIP3    H250865   1.938   0.509  15.961
 9792TIP3   OH250866   2.419   0.683  15.826
 9792TIP3    H150867   2.364   0.651  15.752
 9792TIP3    H250868   2.499   0.708  15.778
 9793TIP3   OH250869   3.140   0.431  15.835
 9793TIP3    H150870   3.044   0.438  15.822
 9793TIP3    H250871   3.171   0.514  15.870
 9794TIP3   OH250872   2.965   1.287  15.920
 9794TIP3    H150873   2.930   1.371  15.952
 9794TIP3    H250874   2.893   1.226  15.940
 9795TIP3   OH250875   3.720   0.633  15.959
 9795TIP3    H150876   3.652   0.598  15.898
 9795TIP3    H250877   3.714   0.728  15.939
 9796TIP3   OH250878   2.079   0.912  15.788
 9796TIP3    H150879   2.139   0.974  15.835
 9796TIP3    H250880   1.991   0.942  15.817
 9797TIP3   OH250881   3.274   1.310  15.796
 9797TIP3    H150882   3.304   1.276  15.882
 9797TIP3    H250883   3.178   1.301  15.809
 9798TIP3   OH250884   3.717   1.754  15.819
 9798TIP3    H150885   3.793   1.815  15.811
 9798TIP3    H250886   3.650   1.815  15.854
 9799TIP3   OH250887   2.683   1.424  15.644
 9799TIP3    H150888   2.699   1.346  15.589
 9799TIP3    H250889   2.648   1.382  15.726
 9800TIP3   OH250890   2.569   1.376  15.888
 9800TIP3    H150891   2.586   1.329  15.971
 9800TIP3    H250892   2.576   1.468  15.921
 9801TIP3   OH250893   2.205   1.104  15.931
 9801TIP3    H150894   2.149   1.137  16.000
 9801TIP3    H250895   2.271   1.175  15.917
 9802TIP3   OH250896   2.801   1.512  15.894
 9802TIP3    H150897   2.752   1.575  15.950
 9802TIP3    H250898   2.877   1.572  15.887
 9803TIP3   OH250899   2.582   1.648  15.968
 9803TIP3    H150900   2.592   1.728  15.910
 9803TIP3    H250901   2.559   1.687  16.053
 9804TIP3   OH250902   2.439   0.299  15.903
 9804TIP3    H150903   2.421   0.385  15.945
 9804TIP3    H250904   2.530   0.293  15.938
 9805TIP3   OH250905   2.276   1.366  15.829
 9805TIP3    H150906   2.340   1.431  15.858
 9805TIP3    H250907   2.328   1.320  15.761
 9806TIP3   OH250908   2.109   0.632  15.742
 9806TIP3    H150909   2.106   0.727  15.764
 9806TIP3    H250910   2.020   0.610  15.716
 9807TIP3   OH250911   2.886   1.611  15.658
 9807TIP3    H150912   2.818   1.545  15.687
 9807TIP3    H250913   2.959   1.552  15.633
 9808TIP3   OH250914   3.343   1.588  15.677
 9808TIP3    H150915   3.372   1.510  15.728
 9808TIP3    H250916   3.420   1.609  15.623
 9809TIP3   OH250917   2.432   1.179  15.664
 9809TIP3    H150918   2.447   1.102  15.721
 9809TIP3    H250919   2.506   1.169  15.600
 9810TIP3   OH250920   2.976   1.288  15.640
 9810TIP3    H150921   2.947   1.299  15.732
 9810TIP3    H250922   2.954   1.192  15.625
 9811TIP3   OH250923   2.552   0.978  15.895
 9811TIP3    H150924   2.506   0.927  15.964
 9811TIP3    H250925   2.580   0.909  15.832
 9812TIP3   OH250926   2.660   0.800  15.724
 9812TIP3    H150927   2.645   0.790  15.628
 9812TIP3    H250928   2.757   0.810  15.730
 9813TIP3   OH250929   3.595   1.038  15.671
 9813TIP3    H150930   3.574   0.998  15.584
 9813TIP3    H250931   3.604   1.134  15.646
 9814TIP3   OH250932   2.647   1.872  15.832
 9814TIP3    H150933   2.744   1.883  15.839
 9814TIP3    H250934   2.628   1.934  15.759
 9815TIP3   OH250935   2.000   1.332  15.775
 9815TIP3    H150936   2.096   1.342  15.798
 9815TIP3    H250937   2.006   1.265  15.705
 9816TIP3   OH250938   3.718   0.909  15.878
 9816TIP3    H150939   3.665   0.952  15.807
 9816TIP3    H250940   3.713   0.977  15.950
 9817TIP3   OH250941   3.549   0.643  15.742
 9817TIP3    H150942   3.556   0.708  15.671
 9817TIP3    H250943   3.531   0.560  15.693
 9818TIP3   OH250944   3.473   0.387  15.657
 9818TIP3    H150945   3.534   0.343  15.718
 9818TIP3    H250946   3.388   0.343  15.674
 9819TIP3   OH250947   3.681   0.274  15.808
 9819TIP3    H150948   3.723   0.198  15.761
 9819TIP3    H250949   3.753   0.339  15.817
 9820TIP3   OH250950   2.035   0.076  15.914
 9820TIP3    H150951   2.082   0.141  15.862
 9820TIP3    H250952   1.979   0.131  15.968
 9821TIP3   OH250953   2.219   0.270  15.759
 9821TIP3    H150954   2.273   0.207  15.710
 9821TIP3    H250955   2.281   0.298  15.829
 9822TIP3   OH250956   2.911   1.804  15.843
 9822TIP3    H150957   3.004   1.826  15.828
 9822TIP3    H250958   2.893   1.747  15.766
 9823TIP3   OH250959   2.210   1.768  15.710
 9823TIP3    H150960   2.182   1.791  15.801
 9823TIP3    H250961   2.287   1.710  15.727
 9824TIP3   OH250962   4.821   0.785  15.782
 9824TIP3    H150963   4.896   0.790  15.847
 9824TIP3    H250964   4.857   0.720  15.721
 9825TIP3   OH250965   5.042   0.858  15.930
 9825TIP3    H150966   5.090   0.885  16.012
 9825TIP3    H250967   5.081   0.920  15.866
 9826TIP3   OH250968   5.419   0.053  15.922
 9826TIP3    H150969   5.329   0.068  15.956
 9826TIP3    H250970   5.443   0.138  15.885
 9827TIP3   OH250971   5.535   1.486  15.759
 9827TIP3    H150972   5.548   1.579  15.782
 9827TIP3    H250973   5.628   1.457  15.762
 9828TIP3   OH250974   5.077   1.762  15.830
 9828TIP3    H150975   5.119   1.687  15.783
 9828TIP3    H250976   5.084   1.732  15.922
 9829TIP3   OH250977   5.198   0.977  15.714
 9829TIP3    H150978   5.195   0.957  15.617
 9829TIP3    H250979   5.283   1.023  15.721
 9830TIP3   OH250980   4.755   0.368  15.771
 9830TIP3    H150981   4.727   0.368  15.863
 9830TIP3    H250982   4.724   0.279  15.743
 9831TIP3   OH250983   4.439   0.415  15.685
 9831TIP3    H150984   4.395   0.365  15.756
 9831TIP3    H250985   4.366   0.449  15.633
 9832TIP3   OH250986   3.890   0.448  15.923
 9832TIP3    H150987   3.944   0.514  15.874
 9832TIP3    H250988   3.823   0.509  15.961
 9833TIP3   OH250989   4.305   0.682  15.826
 9833TIP3    H150990   4.249   0.651  15.752
 9833TIP3    H250991   4.385   0.709  15.777
 9834TIP3   OH250992   5.026   0.431  15.835
 9834TIP3    H150993   4.929   0.438  15.822
 9834TIP3    H250994   5.056   0.514  15.870
 9835TIP3   OH250995   4.851   1.287  15.921
 9835TIP3    H150996   4.815   1.371  15.952
 9835TIP3    H250997   4.779   1.226  15.940
 9836TIP3   OH250998   5.606   0.633  15.959
 9836TIP3    H150999   5.537   0.598  15.898
 9836TIP3    H251000   5.600   0.728  15.939
 9837TIP3   OH251001   3.964   0.912  15.788
 9837TIP3    H151002   4.025   0.974  15.835
 9837TIP3    H251003   3.876   0.942  15.817
 9838TIP3   OH251004   5.160   1.309  15.796
 9838TIP3    H151005   5.189   1.276  15.882
 9838TIP3    H251006   5.064   1.301  15.809
 9839TIP3   OH251007   5.603   1.754  15.819
 9839TIP3    H151008   5.679   1.815  15.811
 9839TIP3    H251009   5.536   1.815  15.855
 9840TIP3   OH251010   4.572   1.424  15.646
 9840TIP3    H151011   4.584   1.347  15.589
 9840TIP3    H251012   4.532   1.382  15.726
 9841TIP3   OH251013   4.455   1.377  15.889
 9841TIP3    H151014   4.472   1.329  15.972
 9841TIP3    H251015   4.462   1.469  15.922
 9842TIP3   OH251016   4.090   1.104  15.931
 9842TIP3    H151017   4.034   1.137  16.000
 9842TIP3    H251018   4.157   1.175  15.916
 9843TIP3   OH251019   4.686   1.512  15.894
 9843TIP3    H151020   4.637   1.575  15.950
 9843TIP3    H251021   4.763   1.572  15.887
 9844TIP3   OH251022   4.468   1.649  15.968
 9844TIP3    H151023   4.478   1.728  15.910
 9844TIP3    H251024   4.445   1.687  16.053
 9845TIP3   OH251025   4.324   0.303  15.901
 9845TIP3    H151026   4.308   0.386  15.947
 9845TIP3    H251027   4.414   0.290  15.937
 9846TIP3   OH251028   4.162   1.366  15.829
 9846TIP3    H151029   4.226   1.431  15.857
 9846TIP3    H251030   4.214   1.320  15.759
 9847TIP3   OH251031   3.995   0.631  15.742
 9847TIP3    H151032   3.992   0.727  15.764
 9847TIP3    H251033   3.905   0.611  15.715
 9848TIP3   OH251034   4.772   1.611  15.659
 9848TIP3    H151035   4.704   1.545  15.686
 9848TIP3    H251036   4.844   1.552  15.633
 9849TIP3   OH251037   5.228   1.587  15.678
 9849TIP3    H151038   5.258   1.510  15.728
 9849TIP3    H251039   5.305   1.609  15.623
 9850TIP3   OH251040   4.320   1.181  15.669
 9850TIP3    H151041   4.333   1.100  15.720
 9850TIP3    H251042   4.387   1.170  15.598
 9851TIP3   OH251043   4.861   1.288  15.640
 9851TIP3    H151044   4.833   1.299  15.732
 9851TIP3    H251045   4.840   1.192  15.625
 9852TIP3   OH251046   4.438   0.978  15.895
 9852TIP3    H151047   4.392   0.927  15.964
 9852TIP3    H251048   4.466   0.909  15.832
 9853TIP3   OH251049   4.546   0.800  15.724
 9853TIP3    H151050   4.530   0.791  15.628
 9853TIP3    H251051   4.643   0.810  15.730
 9854TIP3   OH251052   5.482   1.038  15.670
 9854TIP3    H151053   5.460   0.998  15.584
 9854TIP3    H251054   5.489   1.134  15.646
 9855TIP3   OH251055   4.532   1.873  15.833
 9855TIP3    H151056   4.630   1.883  15.839
 9855TIP3    H251057   4.513   1.934  15.759
 9856TIP3   OH251058   3.886   1.332  15.776
 9856TIP3    H151059   3.982   1.342  15.797
 9856TIP3    H251060   3.892   1.265  15.704
 9857TIP3   OH251061   5.604   0.910  15.878
 9857TIP3    H151062   5.550   0.951  15.808
 9857TIP3    H251063   5.599   0.977  15.950
 9858TIP3   OH251064   5.434   0.643  15.742
 9858TIP3    H151065   5.442   0.708  15.671
 9858TIP3    H251066   5.417   0.560  15.693
 9859TIP3   OH251067   5.358   0.387  15.657
 9859TIP3    H151068   5.419   0.343  15.718
 9859TIP3    H251069   5.273   0.343  15.674
 9860TIP3   OH251070   5.567   0.272  15.810
 9860TIP3    H151071   5.609   0.199  15.760
 9860TIP3    H251072   5.638   0.340  15.817
 9861TIP3   OH251073   3.921   0.074  15.913
 9861TIP3    H151074   3.968   0.141  15.863
 9861TIP3    H251075   3.866   0.130  15.968
 9862TIP3   OH251076   4.104   0.272  15.758
 9862TIP3    H151077   4.159   0.207  15.711
 9862TIP3    H251078   4.168   0.297  15.829
 9863TIP3   OH251079   4.797   1.804  15.843
 9863TIP3    H151080   4.890   1.826  15.828
 9863TIP3    H251081   4.778   1.747  15.766
 9864TIP3   OH251082   4.095   1.768  15.711
 9864TIP3    H151083   4.068   1.791  15.801
 9864TIP3    H251084   4.172   1.709  15.726
 9865TIP3   OH251085   6.707   0.785  15.782
 9865TIP3    H151086   6.781   0.790  15.846
 9865TIP3    H251087   6.743   0.720  15.721
 9866TIP3   OH251088   6.928   0.859  15.930
 9866TIP3    H151089   6.976   0.885  16.012
 9866TIP3    H251090   6.967   0.919  15.865
 9867TIP3   OH251091   7.279   0.050  15.907
 9867TIP3    H151092   7.203   0.072  15.961
 9867TIP3    H251093   7.323   0.132  15.886
 9868TIP3   OH251094   6.962   1.763  15.829
 9868TIP3    H151095   7.004   1.686  15.782
 9868TIP3    H251096   6.967   1.734  15.921
 9869TIP3   OH251097   7.085   0.976  15.714
 9869TIP3    H151098   7.082   0.956  15.617
 9869TIP3    H251099   7.168   1.023  15.722
 9870TIP3   OH251100   6.640   0.367  15.771
 9870TIP3    H151101   6.613   0.369  15.863
 9870TIP3    H251102   6.610   0.279  15.743
 9871TIP3   OH251103   6.325   0.413  15.684
 9871TIP3    H151104   6.279   0.366  15.757
 9871TIP3    H251105   6.252   0.451  15.633
 9872TIP3   OH251106   5.776   0.448  15.923
 9872TIP3    H151107   5.829   0.514  15.874
 9872TIP3    H251108   5.709   0.509  15.961
 9873TIP3   OH251109   6.190   0.683  15.826
 9873TIP3    H151110   6.135   0.651  15.752
 9873TIP3    H251111   6.271   0.708  15.778
 9874TIP3   OH251112   6.910   0.431  15.834
 9874TIP3    H151113   6.814   0.437  15.822
 9874TIP3    H251114   6.939   0.514  15.870
 9875TIP3   OH251115   6.736   1.287  15.920
 9875TIP3    H151116   6.701   1.371  15.952
 9875TIP3    H251117   6.664   1.226  15.940
 9876TIP3   OH251118   5.850   0.912  15.788
 9876TIP3    H151119   5.911   0.974  15.835
 9876TIP3    H251120   5.762   0.942  15.817
 9877TIP3   OH251121   7.044   1.310  15.797
 9877TIP3    H151122   7.072   1.276  15.882
 9877TIP3    H251123   6.948   1.300  15.808
 9878TIP3   OH251124   6.454   1.424  15.643
 9878TIP3    H151125   6.471   1.346  15.589
 9878TIP3    H251126   6.420   1.383  15.726
 9879TIP3   OH251127   6.340   1.376  15.887
 9879TIP3    H151128   6.357   1.330  15.972
 9879TIP3    H251129   6.347   1.467  15.922
 9880TIP3   OH251130   5.976   1.104  15.931
 9880TIP3    H151131   5.920   1.137  16.000
 9880TIP3    H251132   6.043   1.175  15.919
 9881TIP3   OH251133   6.572   1.512  15.893
 9881TIP3    H151134   6.523   1.574  15.951
 9881TIP3    H251135   6.648   1.572  15.887
 9882TIP3   OH251136   6.354   1.649  15.966
 9882TIP3    H151137   6.364   1.730  15.910
 9882TIP3    H251138   6.331   1.685  16.053
 9883TIP3   OH251139   6.210   0.299  15.903
 9883TIP3    H151140   6.192   0.385  15.945
 9883TIP3    H251141   6.301   0.293  15.938
 9884TIP3   OH251142   6.047   1.366  15.829
 9884TIP3    H151143   6.112   1.431  15.859
 9884TIP3    H251144   6.099   1.320  15.760
 9885TIP3   OH251145   5.881   0.632  15.742
 9885TIP3    H151146   5.878   0.727  15.764
 9885TIP3    H251147   5.791   0.610  15.716
 9886TIP3   OH251148   6.657   1.611  15.659
 9886TIP3    H151149   6.589   1.545  15.688
 9886TIP3    H251150   6.730   1.552  15.633
 9887TIP3   OH251151   7.113   1.589  15.679
 9887TIP3    H151152   7.142   1.510  15.727
 9887TIP3    H251153   7.189   1.609  15.621
 9888TIP3   OH251154   6.203   1.178  15.663
 9888TIP3    H151155   6.219   1.102  15.721
 9888TIP3    H251156   6.277   1.168  15.600
 9889TIP3   OH251157   6.747   1.288  15.641
 9889TIP3    H151158   6.718   1.299  15.733
 9889TIP3    H251159   6.725   1.193  15.625
 9890TIP3   OH251160   6.324   0.978  15.896
 9890TIP3    H151161   6.277   0.927  15.964
 9890TIP3    H251162   6.352   0.910  15.832
 9891TIP3   OH251163   6.431   0.800  15.724
 9891TIP3    H151164   6.416   0.790  15.628
 9891TIP3    H251165   6.528   0.810  15.730
 9892TIP3   OH251166   6.418   1.872  15.832
 9892TIP3    H151167   6.515   1.883  15.839
 9892TIP3    H251168   6.399   1.934  15.759
 9893TIP3   OH251169   5.772   1.333  15.775
 9893TIP3    H151170   5.867   1.342  15.798
 9893TIP3    H251171   5.778   1.265  15.705
 9894TIP3   OH251172   7.312   0.643  15.743
 9894TIP3    H151173   7.324   0.708  15.673
 9894TIP3    H251174   7.297   0.560  15.693
 9895TIP3   OH251175   7.246   0.386  15.656
 9895TIP3    H151176   7.302   0.344  15.722
 9895TIP3    H251177   7.159   0.343  15.672
 9896TIP3   OH251178   5.804   0.071  15.914
 9896TIP3    H151179   5.853   0.139  15.864
 9896TIP3    H251180   5.752   0.132  15.967
 9897TIP3   OH251181   5.989   0.268  15.761
 9897TIP3    H151182   6.045   0.208  15.709
 9897TIP3    H251183   6.052   0.298  15.829
 9898TIP3   OH251184   6.683   1.804  15.844
 9898TIP3    H151185   6.776   1.825  15.827
 9898TIP3    H251186   6.664   1.747  15.766
 9899TIP3   OH251187   5.980   1.767  15.710
 9899TIP3    H151188   5.953   1.791  15.800
 9899TIP3    H251189   6.058   1.710  15.726
 9900TIP3   OH251190   1.050   2.671  15.782
 9900TIP3    H151191   1.125   2.676  15.847
 9900TIP3    H251192   1.086   2.606  15.721
 9901TIP3   OH251193   1.271   2.744  15.930
 9901TIP3    H151194   1.319   2.771  16.012
 9901TIP3    H251195   1.310   2.805  15.866
 9902TIP3   OH251196   1.650   1.936  15.929
 9902TIP3    H151197   1.557   1.948  15.954
 9902TIP3    H251198   1.672   2.019  15.885
 9903TIP3   OH251199   1.764   3.371  15.759
 9903TIP3    H151200   1.777   3.465  15.783
 9903TIP3    H251201   1.857   3.343  15.762
 9904TIP3   OH251202   1.306   3.647  15.830
 9904TIP3    H151203   1.348   3.572  15.783
 9904TIP3    H251204   1.313   3.618  15.922
 9905TIP3   OH251205   1.427   2.863  15.714
 9905TIP3    H151206   1.424   2.843  15.617
 9905TIP3    H251207   1.512   2.908  15.721
 9906TIP3   OH251208   0.982   2.253  15.770
 9906TIP3    H151209   0.956   2.255  15.863
 9906TIP3    H251210   0.954   2.164  15.742
 9907TIP3   OH251211   0.668   2.295  15.684
 9907TIP3    H151212   0.622   2.252  15.758
 9907TIP3    H251213   0.597   2.336  15.633
 9908TIP3   OH251214   0.114   2.337  15.922
 9908TIP3    H151215   0.173   2.400  15.875
 9908TIP3    H251216   0.051   2.396  15.962
 9909TIP3   OH251217   0.533   2.569  15.826
 9909TIP3    H151218   0.478   2.536  15.752
 9909TIP3    H251219   0.614   2.594  15.778
 9910TIP3   OH251220   1.255   2.314  15.835
 9910TIP3    H151221   1.159   2.324  15.822
 9910TIP3    H251222   1.285   2.398  15.870
 9911TIP3   OH251223   1.079   3.173  15.920
 9911TIP3    H151224   1.044   3.256  15.952
 9911TIP3    H251225   1.007   3.112  15.940
 9912TIP3   OH251226   1.835   2.518  15.959
 9912TIP3    H151227   1.766   2.483  15.898
 9912TIP3    H251228   1.828   2.614  15.939
 9913TIP3   OH251229   0.187   2.797  15.790
 9913TIP3    H151230   0.252   2.858  15.834
 9913TIP3    H251231   0.103   2.832  15.821
 9914TIP3   OH251232   1.389   3.195  15.796
 9914TIP3    H151233   1.418   3.162  15.882
 9914TIP3    H251234   1.292   3.187  15.809
 9915TIP3   OH251235   1.832   3.640  15.819
 9915TIP3    H151236   1.908   3.701  15.811
 9915TIP3    H251237   1.764   3.701  15.854
 9916TIP3   OH251238   0.798   3.310  15.644
 9916TIP3    H151239   0.814   3.232  15.589
 9916TIP3    H251240   0.762   3.268  15.726
 9917TIP3   OH251241   0.683   3.262  15.888
 9917TIP3    H151242   0.700   3.215  15.971
 9917TIP3    H251243   0.689   3.354  15.921
 9918TIP3   OH251244   0.319   2.987  15.929
 9918TIP3    H151245   0.267   3.021  16.000
 9918TIP3    H251246   0.385   3.060  15.916
 9919TIP3   OH251247   0.915   3.397  15.894
 9919TIP3    H151248   0.866   3.461  15.950
 9919TIP3    H251249   0.991   3.457  15.887
 9920TIP3   OH251250   0.697   3.534  15.968
 9920TIP3    H151251   0.706   3.614  15.910
 9920TIP3    H251252   0.673   3.573  16.052
 9921TIP3   OH251253   0.553   2.188  15.903
 9921TIP3    H151254   0.535   2.273  15.946
 9921TIP3    H251255   0.643   2.177  15.939
 9922TIP3   OH251256   0.389   3.252  15.829
 9922TIP3    H151257   0.453   3.318  15.858
 9922TIP3    H251258   0.442   3.206  15.761
 9923TIP3   OH251259   0.230   2.518  15.737
 9923TIP3    H151260   0.224   2.611  15.764
 9923TIP3    H251261   0.138   2.495  15.718
 9924TIP3   OH251262   1.001   3.496  15.658
 9924TIP3    H151263   0.932   3.430  15.687
 9924TIP3    H251264   1.073   3.438  15.633
 9925TIP3   OH251265   1.457   3.473  15.677
 9925TIP3    H151266   1.486   3.396  15.728
 9925TIP3    H251267   1.534   3.495  15.623
 9926TIP3   OH251268   0.546   3.065  15.664
 9926TIP3    H151269   0.562   2.988  15.721
 9926TIP3    H251270   0.620   3.054  15.600
 9927TIP3   OH251271   1.090   3.173  15.640
 9927TIP3    H151272   1.062   3.185  15.732
 9927TIP3    H251273   1.068   3.078  15.625
 9928TIP3   OH251274   0.666   2.863  15.895
 9928TIP3    H151275   0.621   2.813  15.964
 9928TIP3    H251276   0.694   2.794  15.832
 9929TIP3   OH251277   0.774   2.685  15.724
 9929TIP3    H151278   0.759   2.676  15.628
 9929TIP3    H251279   0.871   2.696  15.730
 9930TIP3   OH251280   1.711   2.924  15.670
 9930TIP3    H151281   1.690   2.883  15.584
 9930TIP3    H251282   1.718   3.020  15.646
 9931TIP3   OH251283   0.762   3.758  15.832
 9931TIP3    H151284   0.859   3.769  15.838
 9931TIP3    H251285   0.741   3.819  15.760
 9932TIP3   OH251286   0.124   3.222  15.781
 9932TIP3    H151287   0.220   3.229  15.798
 9932TIP3    H251288   0.123   3.155  15.710
 9933TIP3   OH251289   1.832   2.795  15.878
 9933TIP3    H151290   1.779   2.837  15.807
 9933TIP3    H251291   1.828   2.862  15.950
 9934TIP3   OH251292   1.663   2.529  15.741
 9934TIP3    H151293   1.672   2.593  15.670
 9934TIP3    H251294   1.646   2.446  15.693
 9935TIP3   OH251295   1.587   2.272  15.655
 9935TIP3    H151296   1.648   2.229  15.718
 9935TIP3    H251297   1.502   2.229  15.674
 9936TIP3   OH251298   1.793   2.158  15.810
 9936TIP3    H151299   1.837   2.085  15.761
 9936TIP3    H251300   1.865   2.224  15.818
 9937TIP3   OH251301   0.186   1.975  15.925
 9937TIP3    H151302   0.204   2.036  15.855
 9937TIP3    H251303   0.105   2.008  15.967
 9938TIP3   OH251304   0.336   2.158  15.758
 9938TIP3    H151305   0.387   2.091  15.711
 9938TIP3    H251306   0.398   2.182  15.830
 9939TIP3   OH251307   1.026   3.689  15.844
 9939TIP3    H151308   1.119   3.711  15.828
 9939TIP3    H251309   1.007   3.632  15.766
 9940TIP3   OH251310   0.320   3.651  15.711
 9940TIP3    H151311   0.296   3.678  15.802
 9940TIP3    H251312   0.400   3.598  15.728
 9941TIP3   OH251313   2.936   2.671  15.782
 9941TIP3    H151314   3.010   2.676  15.847
 9941TIP3    H251315   2.972   2.606  15.721
 9942TIP3   OH251316   3.157   2.744  15.930
 9942TIP3    H151317   3.204   2.771  16.012
 9942TIP3    H251318   3.196   2.805  15.866
 9943TIP3   OH251319   3.536   1.936  15.929
 9943TIP3    H151320   3.443   1.948  15.954
 9943TIP3    H251321   3.557   2.019  15.885
 9944TIP3   OH251322   3.648   3.372  15.760
 9944TIP3    H151323   3.663   3.465  15.783
 9944TIP3    H251324   3.741   3.343  15.762
 9945TIP3   OH251325   3.184   3.640  15.831
 9945TIP3    H151326   3.238   3.575  15.780
 9945TIP3    H251327   3.204   3.624  15.924
 9946TIP3   OH251328   3.313   2.863  15.714
 9946TIP3    H151329   3.310   2.843  15.617
 9946TIP3    H251330   3.397   2.908  15.721
 9947TIP3   OH251331   2.868   2.253  15.770
 9947TIP3    H151332   2.842   2.255  15.863
 9947TIP3    H251333   2.840   2.164  15.742
 9948TIP3   OH251334   2.554   2.295  15.684
 9948TIP3    H151335   2.507   2.252  15.758
 9948TIP3    H251336   2.482   2.337  15.633
 9949TIP3   OH251337   2.003   2.331  15.922
 9949TIP3    H151338   2.057   2.399  15.875
 9949TIP3    H251339   1.938   2.394  15.961
 9950TIP3   OH251340   2.420   2.568  15.827
 9950TIP3    H151341   2.364   2.537  15.752
 9950TIP3    H251342   2.499   2.594  15.777
 9951TIP3   OH251343   3.140   2.314  15.835
 9951TIP3    H151344   3.045   2.324  15.822
 9951TIP3    H251345   3.171   2.398  15.870
 9952TIP3   OH251346   2.967   3.178  15.920
 9952TIP3    H151347   2.923   3.255  15.955
 9952TIP3    H251348   2.897   3.112  15.938
 9953TIP3   OH251349   3.720   2.519  15.959
 9953TIP3    H151350   3.652   2.483  15.898
 9953TIP3    H251351   3.714   2.614  15.940
 9954TIP3   OH251352   2.079   2.795  15.798
 9954TIP3    H151353   2.140   2.861  15.836
 9954TIP3    H251354   1.990   2.829  15.817
 9955TIP3   OH251355   3.271   3.203  15.800
 9955TIP3    H151356   3.305   3.159  15.880
 9955TIP3    H251357   3.177   3.180  15.807
 9956TIP3   OH251358   3.717   3.640  15.820
 9956TIP3    H151359   3.793   3.701  15.811
 9956TIP3    H251360   3.650   3.700  15.855
 9957TIP3   OH251361   2.684   3.310  15.645
 9957TIP3    H151362   2.699   3.232  15.589
 9957TIP3    H251363   2.647   3.268  15.725
 9958TIP3   OH251364   2.572   3.262  15.888
 9958TIP3    H151365   2.584   3.214  15.971
 9958TIP3    H251366   2.574   3.354  15.922
 9959TIP3   OH251367   2.205   2.990  15.931
 9959TIP3    H151368   2.149   3.023  16.001
 9959TIP3    H251369   2.271   3.061  15.917
 9960TIP3   OH251370   2.804   3.396  15.896
 9960TIP3    H151371   2.749   3.458  15.949
 9960TIP3    H251372   2.872   3.463  15.884
 9961TIP3   OH251373   2.586   3.535  15.968
 9961TIP3    H151374   2.592   3.615  15.910
 9961TIP3    H251375   2.558   3.573  16.052
 9962TIP3   OH251376   2.438   2.188  15.903
 9962TIP3    H151377   2.422   2.273  15.946
 9962TIP3    H251378   2.528   2.177  15.939
 9963TIP3   OH251379   2.275   3.254  15.827
 9963TIP3    H151380   2.341   3.317  15.859
 9963TIP3    H251381   2.329   3.205  15.762
 9964TIP3   OH251382   2.108   2.517  15.744
 9964TIP3    H151383   2.107   2.612  15.763
 9964TIP3    H251384   2.021   2.497  15.713
 9965TIP3   OH251385   2.889   3.495  15.664
 9965TIP3    H151386   2.817   3.431  15.684
 9965TIP3    H251387   2.957   3.437  15.629
 9966TIP3   OH251388   3.342   3.473  15.679
 9966TIP3    H151389   3.375   3.395  15.726
 9966TIP3    H251390   3.418   3.496  15.623
 9967TIP3   OH251391   2.433   3.065  15.665
 9967TIP3    H151392   2.447   2.987  15.720
 9967TIP3    H251393   2.505   3.054  15.600
 9968TIP3   OH251394   2.978   3.174  15.642
 9968TIP3    H151395   2.945   3.183  15.732
 9968TIP3    H251396   2.954   3.079  15.623
 9969TIP3   OH251397   2.553   2.863  15.896
 9969TIP3    H151398   2.506   2.813  15.964
 9969TIP3    H251399   2.580   2.795  15.832
 9970TIP3   OH251400   2.660   2.685  15.724
 9970TIP3    H151401   2.643   2.675  15.628
 9970TIP3    H251402   2.757   2.696  15.730
 9971TIP3   OH251403   3.596   2.924  15.671
 9971TIP3    H151404   3.574   2.883  15.584
 9971TIP3    H251405   3.603   3.019  15.646
 9972TIP3   OH251406   2.648   3.757  15.832
 9972TIP3    H151407   2.744   3.770  15.839
 9972TIP3    H251408   2.628   3.820  15.761
 9973TIP3   OH251409   2.000   3.218  15.776
 9973TIP3    H151410   2.096   3.226  15.799
 9973TIP3    H251411   2.006   3.151  15.705
 9974TIP3   OH251412   3.719   2.795  15.878
 9974TIP3    H151413   3.664   2.837  15.808
 9974TIP3    H251414   3.713   2.862  15.951
 9975TIP3   OH251415   3.549   2.529  15.742
 9975TIP3    H151416   3.556   2.593  15.671
 9975TIP3    H251417   3.531   2.446  15.693
 9976TIP3   OH251418   3.472   2.272  15.655
 9976TIP3    H151419   3.533   2.229  15.718
 9976TIP3    H251420   3.387   2.229  15.674
 9977TIP3   OH251421   3.679   2.159  15.810
 9977TIP3    H151422   3.723   2.085  15.761
 9977TIP3    H251423   3.751   2.224  15.818
 9978TIP3   OH251424   2.036   1.962  15.913
 9978TIP3    H151425   2.085   2.027  15.860
 9978TIP3    H251426   1.980   2.019  15.965
 9979TIP3   OH251427   2.221   2.155  15.760
 9979TIP3    H151428   2.273   2.091  15.710
 9979TIP3    H251429   2.284   2.183  15.830
 9980TIP3   OH251430   2.914   3.683  15.847
 9980TIP3    H151431   3.004   3.714  15.826
 9980TIP3    H251432   2.891   3.635  15.764
 9981TIP3   OH251433   2.210   3.653  15.709
 9981TIP3    H151434   2.182   3.677  15.799
 9981TIP3    H251435   2.287   3.596  15.729
 9982TIP3   OH251436   4.821   2.671  15.782
 9982TIP3    H151437   4.896   2.676  15.847
 9982TIP3    H251438   4.857   2.606  15.721
 9983TIP3   OH251439   5.042   2.744  15.930
 9983TIP3    H151440   5.090   2.771  16.012
 9983TIP3    H251441   5.081   2.805  15.866
 9984TIP3   OH251442   5.421   1.935  15.929
 9984TIP3    H151443   5.328   1.947  15.955
 9984TIP3    H251444   5.443   2.019  15.885
 9985TIP3   OH251445   5.535   3.371  15.759
 9985TIP3    H151446   5.548   3.465  15.783
 9985TIP3    H251447   5.629   3.342  15.762
 9986TIP3   OH251448   5.074   3.646  15.830
 9986TIP3    H151449   5.120   3.573  15.783
 9986TIP3    H251450   5.085   3.620  15.922
 9987TIP3   OH251451   5.198   2.863  15.714
 9987TIP3    H151452   5.195   2.843  15.617
 9987TIP3    H251453   5.283   2.908  15.721
 9988TIP3   OH251454   4.753   2.253  15.770
 9988TIP3    H151455   4.727   2.255  15.863
 9988TIP3    H251456   4.725   2.164  15.742
 9989TIP3   OH251457   4.439   2.295  15.684
 9989TIP3    H151458   4.393   2.252  15.758
 9989TIP3    H251459   4.368   2.336  15.633
 9990TIP3   OH251460   3.889   2.331  15.922
 9990TIP3    H151461   3.943   2.399  15.875
 9990TIP3    H251462   3.824   2.394  15.961
 9991TIP3   OH251463   4.305   2.569  15.826
 9991TIP3    H151464   4.249   2.536  15.752
 9991TIP3    H251465   4.385   2.594  15.778
 9992TIP3   OH251466   5.026   2.314  15.835
 9992TIP3    H151467   4.930   2.324  15.822
 9992TIP3    H251468   5.057   2.398  15.870
 9993TIP3   OH251469   4.851   3.172  15.920
 9993TIP3    H151470   4.815   3.256  15.952
 9993TIP3    H251471   4.779   3.112  15.940
 9994TIP3   OH251472   5.606   2.518  15.959
 9994TIP3    H151473   5.537   2.483  15.898
 9994TIP3    H251474   5.600   2.614  15.939
 9995TIP3   OH251475   3.964   2.798  15.788
 9995TIP3    H151476   4.025   2.859  15.835
 9995TIP3    H251477   3.876   2.828  15.817
 9996TIP3   OH251478   5.160   3.195  15.796
 9996TIP3    H151479   5.189   3.162  15.882
 9996TIP3    H251480   5.064   3.187  15.809
 9997TIP3   OH251481   5.605   3.638  15.818
 9997TIP3    H151482   5.679   3.702  15.811
 9997TIP3    H251483   5.536   3.699  15.854
 9998TIP3   OH251484   4.569   3.310  15.644
 9998TIP3    H151485   4.585   3.232  15.589
 9998TIP3    H251486   4.534   3.268  15.726
 9999TIP3   OH251487   4.454   3.262  15.888
 9999TIP3    H151488   4.471   3.215  15.971
 9999TIP3    H251489   4.462   3.354  15.921
10000TIP3   OH251490   4.090   2.990  15.931
10000TIP3    H151491   4.034   3.023  16.001
10000TIP3    H251492   4.157   3.060  15.917
10001TIP3   OH251493   4.686   3.397  15.894
10001TIP3    H151494   4.637   3.461  15.950
10001TIP3    H251495   4.763   3.457  15.887
10002TIP3   OH251496   4.468   3.534  15.968
10002TIP3    H151497   4.478   3.614  15.910
10002TIP3    H251498   4.445   3.573  16.053
10003TIP3   OH251499   4.324   2.188  15.903
10003TIP3    H151500   4.307   2.273  15.946
10003TIP3    H251501   4.414   2.177  15.939
10004TIP3   OH251502   4.161   3.251  15.829
10004TIP3    H151503   4.226   3.317  15.858
10004TIP3    H251504   4.214   3.205  15.761
10005TIP3   OH251505   3.995   2.518  15.742
10005TIP3    H151506   3.992   2.613  15.764
10005TIP3    H251507   3.906   2.496  15.716
10006TIP3   OH251508   4.772   3.496  15.658
10006TIP3    H151509   4.704   3.430  15.687
10006TIP3    H251510   4.844   3.438  15.633
10007TIP3   OH251511   5.228   3.473  15.677
10007TIP3    H151512   5.258   3.396  15.728
10007TIP3    H251513   5.306   3.495  15.623
10008TIP3   OH251514   4.318   3.065  15.664
10008TIP3    H151515   4.333   2.988  15.721
10008TIP3    H251516   4.391   3.054  15.600
10009TIP3   OH251517   4.862   3.173  15.640
10009TIP3    H151518   4.833   3.184  15.732
10009TIP3    H251519   4.839   3.078  15.625
10010TIP3   OH251520   4.438   2.863  15.895
10010TIP3    H151521   4.392   2.813  15.964
10010TIP3    H251522   4.466   2.794  15.832
10011TIP3   OH251523   4.546   2.685  15.724
10011TIP3    H151524   4.530   2.676  15.628
10011TIP3    H251525   4.643   2.696  15.730
10012TIP3   OH251526   5.482   2.924  15.670
10012TIP3    H151527   5.460   2.883  15.584
10012TIP3    H251528   5.489   3.019  15.646
10013TIP3   OH251529   4.532   3.758  15.832
10013TIP3    H151530   4.629   3.769  15.839
10013TIP3    H251531   4.514   3.819  15.759
10014TIP3   OH251532   3.886   3.218  15.776
10014TIP3    H151533   3.982   3.227  15.798
10014TIP3    H251534   3.892   3.151  15.705
10015TIP3   OH251535   5.604   2.795  15.878
10015TIP3    H151536   5.550   2.837  15.808
10015TIP3    H251537   5.599   2.862  15.950
10016TIP3   OH251538   5.434   2.529  15.742
10016TIP3    H151539   5.442   2.593  15.671
10016TIP3    H251540   5.417   2.446  15.693
10017TIP3   OH251541   5.358   2.272  15.655
10017TIP3    H151542   5.419   2.229  15.718
10017TIP3    H251543   5.273   2.229  15.674
10018TIP3   OH251544   5.565   2.159  15.810
10018TIP3    H151545   5.608   2.085  15.761
10018TIP3    H251546   5.636   2.224  15.818
10019TIP3   OH251547   3.921   1.962  15.913
10019TIP3    H151548   3.970   2.027  15.860
10019TIP3    H251549   3.865   2.019  15.965
10020TIP3   OH251550   4.106   2.156  15.760
10020TIP3    H151551   4.159   2.091  15.710
10020TIP3    H251552   4.170   2.183  15.830
10021TIP3   OH251553   4.797   3.689  15.843
10021TIP3    H151554   4.890   3.711  15.827
10021TIP3    H251555   4.778   3.632  15.766
10022TIP3   OH251556   4.095   3.653  15.710
10022TIP3    H151557   4.068   3.677  15.801
10022TIP3    H251558   4.172   3.596  15.727
10023TIP3   OH251559   6.707   2.671  15.782
10023TIP3    H151560   6.781   2.676  15.846
10023TIP3    H251561   6.743   2.606  15.721
10024TIP3   OH251562   6.928   2.744  15.930
10024TIP3    H151563   6.976   2.771  16.012
10024TIP3    H251564   6.968   2.805  15.865
10025TIP3   OH251565   7.279   1.931  15.914
10025TIP3    H151566   7.199   1.954  15.961
10025TIP3    H251567   7.320   2.014  15.885
10026TIP3   OH251568   6.962   3.648  15.829
10026TIP3    H151569   7.004   3.572  15.782
10026TIP3    H251570   6.967   3.619  15.921
10027TIP3   OH251571   7.085   2.862  15.714
10027TIP3    H151572   7.082   2.842  15.617
10027TIP3    H251573   7.168   2.908  15.722
10028TIP3   OH251574   6.639   2.253  15.770
10028TIP3    H151575   6.613   2.255  15.863
10028TIP3    H251576   6.611   2.164  15.742
10029TIP3   OH251577   6.325   2.295  15.684
10029TIP3    H151578   6.278   2.252  15.758
10029TIP3    H251579   6.253   2.336  15.633
10030TIP3   OH251580   5.775   2.331  15.922
10030TIP3    H151581   5.829   2.399  15.875
10030TIP3    H251582   5.709   2.394  15.961
10031TIP3   OH251583   6.190   2.569  15.826
10031TIP3    H151584   6.135   2.536  15.752
10031TIP3    H251585   6.271   2.594  15.778
10032TIP3   OH251586   6.911   2.314  15.835
10032TIP3    H151587   6.815   2.323  15.821
10032TIP3    H251588   6.939   2.398  15.870
10033TIP3   OH251589   6.736   3.172  15.920
10033TIP3    H151590   6.701   3.257  15.952
10033TIP3    H251591   6.664   3.112  15.940
10034TIP3   OH251592   5.850   2.798  15.788
10034TIP3    H151593   5.911   2.859  15.835
10034TIP3    H251594   5.762   2.828  15.817
10035TIP3   OH251595   7.044   3.196  15.797
10035TIP3    H151596   7.073   3.162  15.882
10035TIP3    H251597   6.948   3.186  15.808
10036TIP3   OH251598   6.454   3.310  15.644
10036TIP3    H151599   6.470   3.232  15.589
10036TIP3    H251600   6.419   3.268  15.726
10037TIP3   OH251601   6.340   3.262  15.888
10037TIP3    H151602   6.357   3.214  15.971
10037TIP3    H251603   6.347   3.354  15.921
10038TIP3   OH251604   5.976   2.990  15.931
10038TIP3    H151605   5.920   3.023  16.000
10038TIP3    H251606   6.042   3.060  15.917
10039TIP3   OH251607   6.572   3.397  15.894
10039TIP3    H151608   6.523   3.460  15.950
10039TIP3    H251609   6.648   3.457  15.887
10040TIP3   OH251610   6.354   3.534  15.968
10040TIP3    H151611   6.363   3.614  15.910
10040TIP3    H251612   6.331   3.573  16.053
10041TIP3   OH251613   6.210   2.188  15.903
10041TIP3    H151614   6.193   2.273  15.946
10041TIP3    H251615   6.300   2.177  15.939
10042TIP3   OH251616   6.047   3.251  15.829
10042TIP3    H151617   6.111   3.318  15.858
10042TIP3    H251618   6.099   3.206  15.761
10043TIP3   OH251619   5.881   2.518  15.742
10043TIP3    H151620   5.878   2.613  15.764
10043TIP3    H251621   5.791   2.496  15.716
10044TIP3   OH251622   6.658   3.496  15.658
10044TIP3    H151623   6.589   3.430  15.687
10044TIP3    H251624   6.730   3.438  15.633
10045TIP3   OH251625   7.113   3.474  15.679
10045TIP3    H151626   7.142   3.396  15.728
10045TIP3    H251627   7.190   3.494  15.622
10046TIP3   OH251628   6.204   3.065  15.664
10046TIP3    H151629   6.218   2.988  15.721
10046TIP3    H251630   6.277   3.054  15.600
10047TIP3   OH251631   6.747   3.173  15.640
10047TIP3    H151632   6.719   3.184  15.732
10047TIP3    H251633   6.725   3.078  15.625
10048TIP3   OH251634   6.323   2.863  15.895
10048TIP3    H151635   6.278   2.813  15.964
10048TIP3    H251636   6.351   2.794  15.832
10049TIP3   OH251637   6.431   2.685  15.724
10049TIP3    H151638   6.416   2.676  15.628
10049TIP3    H251639   6.528   2.696  15.730
10050TIP3   OH251640   6.418   3.758  15.832
10050TIP3    H151641   6.515   3.769  15.839
10050TIP3    H251642   6.399   3.819  15.759
10051TIP3   OH251643   5.772   3.218  15.775
10051TIP3    H151644   5.867   3.227  15.798
10051TIP3    H251645   5.778   3.151  15.705
10052TIP3   OH251646   7.308   2.529  15.744
10052TIP3    H151647   7.327   2.592  15.673
10052TIP3    H251648   7.299   2.445  15.694
10053TIP3   OH251649   7.244   2.272  15.655
10053TIP3    H151650   7.302   2.230  15.719
10053TIP3    H251651   7.159   2.229  15.672
10054TIP3   OH251652   5.807   1.962  15.913
10054TIP3    H151653   5.856   2.027  15.860
10054TIP3    H251654   5.751   2.019  15.965
10055TIP3   OH251655   5.992   2.156  15.760
10055TIP3    H151656   6.044   2.091  15.710
10055TIP3    H251657   6.055   2.183  15.830
10056TIP3   OH251658   6.683   3.689  15.844
10056TIP3    H151659   6.776   3.711  15.827
10056TIP3    H251660   6.664   3.632  15.766
10057TIP3   OH251661   5.981   3.653  15.710
10057TIP3    H151662   5.953   3.677  15.801
10057TIP3    H251663   6.058   3.596  15.727
10058TIP3   OH251664   1.050   4.556  15.782
10058TIP3    H151665   1.125   4.561  15.847
10058TIP3    H251666   1.086   4.491  15.721
10059TIP3   OH251667   1.271   4.629  15.930
10059TIP3    H151668   1.319   4.656  16.012
10059TIP3    H251669   1.310   4.691  15.866
10060TIP3   OH251670   1.650   3.821  15.929
10060TIP3    H151671   1.557   3.833  15.954
10060TIP3    H251672   1.672   3.905  15.885
10061TIP3   OH251673   1.764   5.257  15.759
10061TIP3    H151674   1.777   5.350  15.783
10061TIP3    H251675   1.857   5.228  15.762
10062TIP3   OH251676   1.306   5.533  15.830
10062TIP3    H151677   1.348   5.458  15.783
10062TIP3    H251678   1.313   5.504  15.922
10063TIP3   OH251679   1.427   4.749  15.714
10063TIP3    H151680   1.424   4.729  15.617
10063TIP3    H251681   1.512   4.794  15.721
10064TIP3   OH251682   0.982   4.138  15.770
10064TIP3    H151683   0.956   4.140  15.863
10064TIP3    H251684   0.954   4.049  15.742
10065TIP3   OH251685   0.668   4.181  15.684
10065TIP3    H151686   0.622   4.138  15.758
10065TIP3    H251687   0.597   4.222  15.633
10066TIP3   OH251688   0.114   4.223  15.922
10066TIP3    H151689   0.173   4.286  15.875
10066TIP3    H251690   0.051   4.281  15.962
10067TIP3   OH251691   0.533   4.455  15.826
10067TIP3    H151692   0.478   4.422  15.752
10067TIP3    H251693   0.614   4.479  15.778
10068TIP3   OH251694   1.255   4.199  15.835
10068TIP3    H151695   1.159   4.210  15.822
10068TIP3    H251696   1.285   4.283  15.870
10069TIP3   OH251697   1.079   5.058  15.920
10069TIP3    H151698   1.044   5.142  15.952
10069TIP3    H251699   1.007   4.997  15.940
10070TIP3   OH251700   1.835   4.404  15.959
10070TIP3    H151701   1.766   4.369  15.898
10070TIP3    H251702   1.828   4.500  15.939
10071TIP3   OH251703   0.187   4.683  15.790
10071TIP3    H151704   0.252   4.744  15.834
10071TIP3    H251705   0.103   4.718  15.821
10072TIP3   OH251706   1.389   5.081  15.796
10072TIP3    H151707   1.418   5.047  15.882
10072TIP3    H251708   1.292   5.072  15.809
10073TIP3   OH251709   1.832   5.526  15.819
10073TIP3    H151710   1.908   5.586  15.811
10073TIP3    H251711   1.764   5.586  15.854
10074TIP3   OH251712   0.798   5.195  15.644
10074TIP3    H151713   0.814   5.118  15.589
10074TIP3    H251714   0.762   5.153  15.726
10075TIP3   OH251715   0.683   5.147  15.888
10075TIP3    H151716   0.700   5.100  15.971
10075TIP3    H251717   0.689   5.239  15.921
10076TIP3   OH251718   0.319   4.873  15.929
10076TIP3    H151719   0.267   4.907  16.000
10076TIP3    H251720   0.385   4.946  15.916
10077TIP3   OH251721   0.915   5.283  15.894
10077TIP3    H151722   0.866   5.346  15.950
10077TIP3    H251723   0.991   5.343  15.887
10078TIP3   OH251724   0.697   5.420  15.968
10078TIP3    H151725   0.706   5.500  15.910
10078TIP3    H251726   0.673   5.459  16.052
10079TIP3   OH251727   0.553   4.074  15.903
10079TIP3    H151728   0.535   4.158  15.946
10079TIP3    H251729   0.643   4.063  15.939
10080TIP3   OH251730   0.389   5.137  15.829
10080TIP3    H151731   0.453   5.204  15.858
10080TIP3    H251732   0.442   5.091  15.761
10081TIP3   OH251733   0.230   4.404  15.737
10081TIP3    H151734   0.224   4.497  15.764
10081TIP3    H251735   0.138   4.381  15.718
10082TIP3   OH251736   1.001   5.382  15.658
10082TIP3    H151737   0.932   5.316  15.687
10082TIP3    H251738   1.073   5.323  15.633
10083TIP3   OH251739   1.457   5.359  15.677
10083TIP3    H151740   1.486   5.281  15.728
10083TIP3    H251741   1.535   5.381  15.623
10084TIP3   OH251742   0.546   4.951  15.664
10084TIP3    H151743   0.562   4.873  15.721
10084TIP3    H251744   0.620   4.940  15.600
10085TIP3   OH251745   1.090   5.059  15.640
10085TIP3    H151746   1.062   5.070  15.732
10085TIP3    H251747   1.068   4.964  15.625
10086TIP3   OH251748   0.666   4.749  15.895
10086TIP3    H151749   0.621   4.698  15.964
10086TIP3    H251750   0.694   4.680  15.832
10087TIP3   OH251751   0.774   4.571  15.724
10087TIP3    H151752   0.759   4.562  15.628
10087TIP3    H251753   0.871   4.581  15.730
10088TIP3   OH251754   1.710   4.810  15.670
10088TIP3    H151755   1.689   4.769  15.584
10088TIP3    H251756   1.718   4.905  15.646
10089TIP3   OH251757   0.762   5.643  15.832
10089TIP3    H151758   0.859   5.655  15.838
10089TIP3    H251759   0.741   5.705  15.760
10090TIP3   OH251760   0.124   5.108  15.781
10090TIP3    H151761   0.220   5.115  15.798
10090TIP3    H251762   0.123   5.040  15.710
10091TIP3   OH251763   1.833   4.681  15.878
10091TIP3    H151764   1.779   4.723  15.808
10091TIP3    H251765   1.828   4.748  15.950
10092TIP3   OH251766   1.663   4.414  15.742
10092TIP3    H151767   1.670   4.479  15.671
10092TIP3    H251768   1.645   4.331  15.693
10093TIP3   OH251769   1.587   4.158  15.655
10093TIP3    H151770   1.647   4.115  15.718
10093TIP3    H251771   1.502   4.115  15.674
10094TIP3   OH251772   1.793   4.044  15.810
10094TIP3    H151773   1.837   3.971  15.761
10094TIP3    H251774   1.865   4.110  15.818
10095TIP3   OH251775   0.186   3.860  15.925
10095TIP3    H151776   0.204   3.922  15.854
10095TIP3    H251777   0.105   3.894  15.967
10096TIP3   OH251778   0.336   4.044  15.758
10096TIP3    H151779   0.387   3.976  15.711
10096TIP3    H251780   0.398   4.068  15.830
10097TIP3   OH251781   1.026   5.575  15.843
10097TIP3    H151782   1.119   5.597  15.828
10097TIP3    H251783   1.007   5.518  15.766
10098TIP3   OH251784   0.320   5.537  15.711
10098TIP3    H151785   0.296   5.563  15.802
10098TIP3    H251786   0.400   5.483  15.728
10099TIP3   OH251787   2.936   4.556  15.782
10099TIP3    H151788   3.010   4.561  15.847
10099TIP3    H251789   2.972   4.491  15.721
10100TIP3   OH251790   3.156   4.629  15.930
10100TIP3    H151791   3.204   4.656  16.012
10100TIP3    H251792   3.196   4.691  15.866
10101TIP3   OH251793   3.534   3.821  15.927
10101TIP3    H151794   3.443   3.834  15.956
10101TIP3    H251795   3.557   3.905  15.885
10102TIP3   OH251796   3.650   5.257  15.759
10102TIP3    H151797   3.662   5.350  15.783
10102TIP3    H251798   3.743   5.228  15.762
10103TIP3   OH251799   3.191   5.533  15.830
10103TIP3    H151800   3.233   5.458  15.783
10103TIP3    H251801   3.198   5.504  15.922
10104TIP3   OH251802   3.312   4.749  15.714
10104TIP3    H151803   3.310   4.729  15.617
10104TIP3    H251804   3.397   4.794  15.721
10105TIP3   OH251805   2.868   4.138  15.770
10105TIP3    H151806   2.842   4.141  15.864
10105TIP3    H251807   2.840   4.049  15.742
10106TIP3   OH251808   2.554   4.181  15.684
10106TIP3    H151809   2.507   4.138  15.758
10106TIP3    H251810   2.482   4.222  15.633
10107TIP3   OH251811   2.003   4.217  15.922
10107TIP3    H151812   2.057   4.284  15.876
10107TIP3    H251813   1.938   4.279  15.961
10108TIP3   OH251814   2.419   4.454  15.826
10108TIP3    H151815   2.364   4.422  15.752
10108TIP3    H251816   2.499   4.479  15.778
10109TIP3   OH251817   3.140   4.199  15.835
10109TIP3    H151818   3.045   4.210  15.822
10109TIP3    H251819   3.171   4.283  15.870
10110TIP3   OH251820   2.965   5.058  15.920
10110TIP3    H151821   2.930   5.142  15.952
10110TIP3    H251822   2.893   4.997  15.940
10111TIP3   OH251823   3.720   4.404  15.959
10111TIP3    H151824   3.652   4.369  15.898
10111TIP3    H251825   3.714   4.500  15.939
10112TIP3   OH251826   2.079   4.683  15.788
10112TIP3    H151827   2.139   4.745  15.835
10112TIP3    H251828   1.991   4.713  15.817
10113TIP3   OH251829   3.274   5.081  15.796
10113TIP3    H151830   3.304   5.047  15.882
10113TIP3    H251831   3.178   5.072  15.809
10114TIP3   OH251832   3.717   5.526  15.819
10114TIP3    H151833   3.793   5.586  15.811
10114TIP3    H251834   3.650   5.586  15.855
10115TIP3   OH251835   2.683   5.195  15.644
10115TIP3    H151836   2.699   5.118  15.589
10115TIP3    H251837   2.648   5.154  15.726
10116TIP3   OH251838   2.569   5.148  15.888
10116TIP3    H151839   2.586   5.100  15.971
10116TIP3    H251840   2.576   5.239  15.921
10117TIP3   OH251841   2.205   4.875  15.931
10117TIP3    H151842   2.149   4.908  16.000
10117TIP3    H251843   2.271   4.946  15.917
10118TIP3   OH251844   2.801   5.283  15.894
10118TIP3    H151845   2.752   5.346  15.950
10118TIP3    H251846   2.877   5.343  15.887
10119TIP3   OH251847   2.582   5.420  15.968
10119TIP3    H151848   2.592   5.500  15.910
10119TIP3    H251849   2.559   5.458  16.053
10120TIP3   OH251850   2.438   4.074  15.902
10120TIP3    H151851   2.422   4.159  15.946
10120TIP3    H251852   2.528   4.063  15.939
10121TIP3   OH251853   2.276   5.137  15.829
10121TIP3    H151854   2.340   5.203  15.858
10121TIP3    H251855   2.328   5.091  15.761
10122TIP3   OH251856   2.109   4.403  15.742
10122TIP3    H151857   2.106   4.498  15.764
10122TIP3    H251858   2.020   4.382  15.716
10123TIP3   OH251859   2.886   5.382  15.658
10123TIP3    H151860   2.818   5.316  15.687
10123TIP3    H251861   2.959   5.323  15.633
10124TIP3   OH251862   3.343   5.359  15.677
10124TIP3    H151863   3.372   5.281  15.728
10124TIP3    H251864   3.420   5.381  15.623
10125TIP3   OH251865   2.432   4.950  15.664
10125TIP3    H151866   2.447   4.873  15.721
10125TIP3    H251867   2.506   4.940  15.600
10126TIP3   OH251868   2.976   5.059  15.640
10126TIP3    H151869   2.947   5.070  15.732
10126TIP3    H251870   2.954   4.964  15.625
10127TIP3   OH251871   2.552   4.749  15.895
10127TIP3    H151872   2.506   4.698  15.964
10127TIP3    H251873   2.580   4.680  15.832
10128TIP3   OH251874   2.660   4.571  15.724
10128TIP3    H151875   2.645   4.562  15.628
10128TIP3    H251876   2.757   4.581  15.730
10129TIP3   OH251877   3.596   4.810  15.670
10129TIP3    H151878   3.574   4.769  15.584
10129TIP3    H251879   3.603   4.905  15.646
10130TIP3   OH251880   2.647   5.644  15.832
10130TIP3    H151881   2.744   5.654  15.839
10130TIP3    H251882   2.628   5.705  15.759
10131TIP3   OH251883   2.000   5.104  15.775
10131TIP3    H151884   2.096   5.113  15.798
10131TIP3    H251885   2.006   5.036  15.705
10132TIP3   OH251886   3.719   4.681  15.878
10132TIP3    H151887   3.664   4.723  15.808
10132TIP3    H251888   3.713   4.748  15.950
10133TIP3   OH251889   3.549   4.414  15.742
10133TIP3    H151890   3.556   4.479  15.671
10133TIP3    H251891   3.531   4.331  15.693
10134TIP3   OH251892   3.472   4.158  15.655
10134TIP3    H151893   3.533   4.114  15.718
10134TIP3    H251894   3.387   4.115  15.674
10135TIP3   OH251895   3.679   4.044  15.810
10135TIP3    H151896   3.723   3.971  15.761
10135TIP3    H251897   3.751   4.110  15.818
10136TIP3   OH251898   2.035   3.848  15.913
10136TIP3    H151899   2.085   3.913  15.860
10136TIP3    H251900   1.980   3.905  15.965
10137TIP3   OH251901   2.221   4.042  15.760
10137TIP3    H151902   2.273   3.978  15.711
10137TIP3    H251903   2.284   4.069  15.830
10138TIP3   OH251904   2.911   5.575  15.843
10138TIP3    H151905   3.004   5.597  15.828
10138TIP3    H251906   2.893   5.518  15.766
10139TIP3   OH251907   2.210   5.539  15.710
10139TIP3    H151908   2.182   5.563  15.801
10139TIP3    H251909   2.287   5.481  15.727
10140TIP3   OH251910   4.821   4.556  15.782
10140TIP3    H151911   4.896   4.561  15.847
10140TIP3    H251912   4.857   4.491  15.721
10141TIP3   OH251913   5.042   4.629  15.930
10141TIP3    H151914   5.090   4.656  16.012
10141TIP3    H251915   5.081   4.691  15.866
10142TIP3   OH251916   5.417   3.800  15.908
10142TIP3    H151917   5.336   3.829  15.955
10142TIP3    H251918   5.442   3.893  15.890
10143TIP3   OH251919   5.535   5.257  15.759
10143TIP3    H151920   5.548   5.350  15.783
10143TIP3    H251921   5.628   5.228  15.762
10144TIP3   OH251922   5.077   5.533  15.830
10144TIP3    H151923   5.119   5.458  15.783
10144TIP3    H251924   5.084   5.504  15.922
10145TIP3   OH251925   5.198   4.749  15.714
10145TIP3    H151926   5.195   4.728  15.617
10145TIP3    H251927   5.283   4.794  15.721
10146TIP3   OH251928   4.753   4.138  15.770
10146TIP3    H151929   4.727   4.140  15.863
10146TIP3    H251930   4.725   4.049  15.742
10147TIP3   OH251931   4.439   4.181  15.684
10147TIP3    H151932   4.393   4.138  15.758
10147TIP3    H251933   4.368   4.222  15.633
10148TIP3   OH251934   3.889   4.217  15.922
10148TIP3    H151935   3.943   4.284  15.875
10148TIP3    H251936   3.824   4.279  15.961
10149TIP3   OH251937   4.305   4.454  15.826
10149TIP3    H151938   4.249   4.422  15.752
10149TIP3    H251939   4.385   4.479  15.778
10150TIP3   OH251940   5.025   4.201  15.833
10150TIP3    H151941   4.930   4.210  15.823
10150TIP3    H251942   5.057   4.283  15.871
10151TIP3   OH251943   4.851   5.058  15.920
10151TIP3    H151944   4.815   5.142  15.952
10151TIP3    H251945   4.779   4.997  15.940
10152TIP3   OH251946   5.607   4.405  15.958
10152TIP3    H151947   5.537   4.368  15.900
10152TIP3    H251948   5.598   4.500  15.939
10153TIP3   OH251949   3.964   4.683  15.788
10153TIP3    H151950   4.025   4.745  15.835
10153TIP3    H251951   3.876   4.713  15.817
10154TIP3   OH251952   5.160   5.081  15.796
10154TIP3    H151953   5.189   5.047  15.882
10154TIP3    H251954   5.064   5.072  15.809
10155TIP3   OH251955   5.603   5.526  15.819
10155TIP3    H151956   5.679   5.586  15.811
10155TIP3    H251957   5.536   5.586  15.855
10156TIP3   OH251958   4.569   5.195  15.644
10156TIP3    H151959   4.585   5.118  15.589
10156TIP3    H251960   4.534   5.154  15.726
10157TIP3   OH251961   4.454   5.148  15.888
10157TIP3    H151962   4.472   5.100  15.971
10157TIP3    H251963   4.462   5.239  15.921
10158TIP3   OH251964   4.090   4.875  15.931
10158TIP3    H151965   4.034   4.908  16.000
10158TIP3    H251966   4.157   4.946  15.917
10159TIP3   OH251967   4.686   5.283  15.894
10159TIP3    H151968   4.637   5.346  15.950
10159TIP3    H251969   4.763   5.343  15.887
10160TIP3   OH251970   4.468   5.420  15.968
10160TIP3    H151971   4.478   5.500  15.910
10160TIP3    H251972   4.445   5.458  16.053
10161TIP3   OH251973   4.324   4.074  15.903
10161TIP3    H151974   4.307   4.159  15.946
10161TIP3    H251975   4.414   4.063  15.939
10162TIP3   OH251976   4.161   5.137  15.829
10162TIP3    H151977   4.226   5.203  15.858
10162TIP3    H251978   4.214   5.091  15.761
10163TIP3   OH251979   3.995   4.403  15.742
10163TIP3    H151980   3.992   4.498  15.764
10163TIP3    H251981   3.906   4.382  15.716
10164TIP3   OH251982   4.772   5.382  15.658
10164TIP3    H151983   4.704   5.316  15.687
10164TIP3    H251984   4.844   5.323  15.633
10165TIP3   OH251985   5.228   5.359  15.677
10165TIP3    H151986   5.258   5.281  15.728
10165TIP3    H251987   5.306   5.381  15.623
10166TIP3   OH251988   4.318   4.950  15.664
10166TIP3    H151989   4.333   4.873  15.721
10166TIP3    H251990   4.391   4.940  15.600
10167TIP3   OH251991   4.862   5.059  15.640
10167TIP3    H151992   4.833   5.070  15.732
10167TIP3    H251993   4.839   4.964  15.625
10168TIP3   OH251994   4.438   4.749  15.895
10168TIP3    H151995   4.392   4.698  15.964
10168TIP3    H251996   4.466   4.680  15.832
10169TIP3   OH251997   4.546   4.571  15.724
10169TIP3    H151998   4.530   4.562  15.628
10169TIP3    H251999   4.643   4.581  15.730
10170TIP3   OH252000   5.482   4.810  15.670
10170TIP3    H152001   5.460   4.769  15.584
10170TIP3    H252002   5.489   4.905  15.646
10171TIP3   OH252003   4.532   5.644  15.832
10171TIP3    H152004   4.629   5.654  15.839
10171TIP3    H252005   4.513   5.705  15.759
10172TIP3   OH252006   3.886   5.104  15.775
10172TIP3    H152007   3.982   5.113  15.798
10172TIP3    H252008   3.892   5.036  15.705
10173TIP3   OH252009   5.604   4.681  15.878
10173TIP3    H152010   5.550   4.723  15.808
10173TIP3    H252011   5.599   4.748  15.950
10174TIP3   OH252012   5.435   4.415  15.742
10174TIP3    H152013   5.442   4.479  15.670
10174TIP3    H252014   5.416   4.331  15.695
10175TIP3   OH252015   5.358   4.157  15.653
10175TIP3    H152016   5.417   4.115  15.719
10175TIP3    H252017   5.274   4.115  15.676
10176TIP3   OH252018   5.568   4.046  15.801
10176TIP3    H152019   5.610   3.969  15.760
10176TIP3    H252020   5.638   4.110  15.819
10177TIP3   OH252021   3.921   3.848  15.913
10177TIP3    H152022   3.970   3.913  15.860
10177TIP3    H252023   3.865   3.905  15.965
10178TIP3   OH252024   4.106   4.041  15.760
10178TIP3    H152025   4.159   3.977  15.710
10178TIP3    H252026   4.170   4.068  15.830
10179TIP3   OH252027   4.797   5.575  15.843
10179TIP3    H152028   4.890   5.597  15.828
10179TIP3    H252029   4.778   5.518  15.766
10180TIP3   OH252030   4.095   5.539  15.710
10180TIP3    H152031   4.068   5.563  15.801
10180TIP3    H252032   4.172   5.481  15.727
10181TIP3   OH252033   6.707   4.556  15.782
10181TIP3    H152034   6.781   4.562  15.846
10181TIP3    H252035   6.743   4.491  15.721
10182TIP3   OH252036   6.928   4.630  15.930
10182TIP3    H152037   6.976   4.657  16.012
10182TIP3    H252038   6.968   4.691  15.865
10183TIP3   OH252039   7.279   3.817  15.914
10183TIP3    H152040   7.199   3.840  15.961
10183TIP3    H252041   7.320   3.900  15.885
10184TIP3   OH252042   6.962   5.534  15.829
10184TIP3    H152043   7.004   5.457  15.782
10184TIP3    H252044   6.967   5.505  15.921
10185TIP3   OH252045   7.085   4.747  15.714
10185TIP3    H152046   7.082   4.727  15.617
10185TIP3    H252047   7.168   4.794  15.722
10186TIP3   OH252048   6.639   4.138  15.770
10186TIP3    H152049   6.613   4.140  15.863
10186TIP3    H252050   6.611   4.049  15.742
10187TIP3   OH252051   6.325   4.181  15.684
10187TIP3    H152052   6.278   4.138  15.758
10187TIP3    H252053   6.253   4.222  15.633
10188TIP3   OH252054   5.776   4.217  15.923
10188TIP3    H152055   5.828   4.285  15.875
10188TIP3    H252056   5.708   4.278  15.961
10189TIP3   OH252057   6.190   4.454  15.826
10189TIP3    H152058   6.135   4.422  15.752
10189TIP3    H252059   6.271   4.479  15.778
10190TIP3   OH252060   6.911   4.199  15.835
10190TIP3    H152061   6.815   4.209  15.821
10190TIP3    H252062   6.939   4.284  15.870
10191TIP3   OH252063   6.736   5.058  15.920
10191TIP3    H152064   6.701   5.142  15.952
10191TIP3    H252065   6.664   4.997  15.940
10192TIP3   OH252066   5.850   4.684  15.788
10192TIP3    H152067   5.911   4.745  15.835
10192TIP3    H252068   5.762   4.713  15.817
10193TIP3   OH252069   7.044   5.081  15.797
10193TIP3    H152070   7.073   5.047  15.882
10193TIP3    H252071   6.948   5.072  15.808
10194TIP3   OH252072   6.454   5.195  15.644
10194TIP3    H152073   6.470   5.118  15.589
10194TIP3    H252074   6.419   5.153  15.726
10195TIP3   OH252075   6.340   5.148  15.888
10195TIP3    H152076   6.357   5.100  15.971
10195TIP3    H252077   6.347   5.239  15.921
10196TIP3   OH252078   5.976   4.875  15.931
10196TIP3    H152079   5.920   4.908  16.000
10196TIP3    H252080   6.043   4.946  15.917
10197TIP3   OH252081   6.572   5.283  15.894
10197TIP3    H152082   6.523   5.346  15.950
10197TIP3    H252083   6.648   5.343  15.887
10198TIP3   OH252084   6.354   5.420  15.968
10198TIP3    H152085   6.363   5.500  15.910
10198TIP3    H252086   6.331   5.458  16.053
10199TIP3   OH252087   6.210   4.074  15.903
10199TIP3    H152088   6.193   4.159  15.946
10199TIP3    H252089   6.300   4.063  15.939
10200TIP3   OH252090   6.047   5.137  15.829
10200TIP3    H152091   6.112   5.203  15.858
10200TIP3    H252092   6.099   5.091  15.761
10201TIP3   OH252093   5.881   4.403  15.742
10201TIP3    H152094   5.878   4.499  15.764
10201TIP3    H252095   5.792   4.382  15.715
10202TIP3   OH252096   6.658   5.382  15.658
10202TIP3    H152097   6.589   5.316  15.687
10202TIP3    H252098   6.730   5.323  15.633
10203TIP3   OH252099   7.113   5.360  15.679
10203TIP3    H152100   7.142   5.282  15.728
10203TIP3    H252101   7.190   5.380  15.622
10204TIP3   OH252102   6.204   4.950  15.664
10204TIP3    H152103   6.218   4.873  15.721
10204TIP3    H252104   6.277   4.940  15.600
10205TIP3   OH252105   6.747   5.059  15.640
10205TIP3    H152106   6.719   5.070  15.732
10205TIP3    H252107   6.725   4.964  15.625
10206TIP3   OH252108   6.323   4.749  15.895
10206TIP3    H152109   6.278   4.698  15.964
10206TIP3    H252110   6.352   4.680  15.831
10207TIP3   OH252111   6.431   4.571  15.724
10207TIP3    H152112   6.416   4.562  15.628
10207TIP3    H252113   6.528   4.581  15.730
10208TIP3   OH252114   6.418   5.644  15.832
10208TIP3    H152115   6.515   5.654  15.839
10208TIP3    H252116   6.399   5.705  15.759
10209TIP3   OH252117   5.772   5.104  15.775
10209TIP3    H152118   5.867   5.113  15.798
10209TIP3    H252119   5.778   5.036  15.705
10210TIP3   OH252120   7.308   4.415  15.743
10210TIP3    H152121   7.327   4.478  15.673
10210TIP3    H252122   7.299   4.330  15.694
10211TIP3   OH252123   7.244   4.157  15.655
10211TIP3    H152124   7.302   4.116  15.719
10211TIP3    H252125   7.159   4.114  15.672
10212TIP3   OH252126   5.808   3.848  15.914
10212TIP3    H152127   5.855   3.913  15.860
10212TIP3    H252128   5.750   3.904  15.965
10213TIP3   OH252129   5.992   4.041  15.760
10213TIP3    H152130   6.044   3.977  15.710
10213TIP3    H252131   6.055   4.068  15.830
10214TIP3   OH252132   6.683   5.575  15.844
10214TIP3    H152133   6.776   5.597  15.827
10214TIP3    H252134   6.664   5.518  15.766
10215TIP3   OH252135   5.981   5.539  15.710
10215TIP3    H152136   5.953   5.563  15.801
10215TIP3    H252137   6.058   5.481  15.727
10216TIP3   OH252138   1.050   6.442  15.782
10216TIP3    H152139   1.125   6.447  15.847
10216TIP3    H252140   1.086   6.377  15.721
10217TIP3   OH252141   1.271   6.515  15.930
10217TIP3    H152142   1.319   6.542  16.012
10217TIP3    H252143   1.310   6.577  15.866
10218TIP3   OH252144   1.650   5.707  15.929
10218TIP3    H152145   1.557   5.719  15.954
10218TIP3    H252146   1.672   5.791  15.885
10219TIP3   OH252147   1.765   7.143  15.757
10219TIP3    H152148   1.775   7.236  15.781
10219TIP3    H252149   1.858   7.112  15.761
10220TIP3   OH252150   1.427   6.634  15.714
10220TIP3    H152151   1.424   6.614  15.617
10220TIP3    H252152   1.512   6.679  15.721
10221TIP3   OH252153   0.982   6.024  15.770
10221TIP3    H152154   0.956   6.026  15.863
10221TIP3    H252155   0.954   5.935  15.742
10222TIP3   OH252156   0.668   6.067  15.684
10222TIP3    H152157   0.623   6.023  15.758
10222TIP3    H252158   0.597   6.105  15.633
10223TIP3   OH252159   0.113   6.109  15.920
10223TIP3    H152160   0.173   6.172  15.875
10223TIP3    H252161   0.051   6.165  15.964
10224TIP3   OH252162   0.529   6.346  15.823
10224TIP3    H152163   0.481   6.302  15.751
10224TIP3    H252164   0.615   6.364  15.780
10225TIP3   OH252165   1.255   6.085  15.835
10225TIP3    H152166   1.159   6.095  15.822
10225TIP3    H252167   1.285   6.169  15.870
10226TIP3   OH252168   1.080   6.943  15.921
10226TIP3    H152169   1.045   7.028  15.951
10226TIP3    H252170   1.007   6.883  15.941
10227TIP3   OH252171   1.834   6.288  15.959
10227TIP3    H152172   1.766   6.255  15.897
10227TIP3    H252173   1.829   6.384  15.940
10228TIP3   OH252174   0.183   6.573  15.809
10228TIP3    H152175   0.249   6.640  15.844
10228TIP3    H252176   0.097   6.613  15.828
10229TIP3   OH252177   1.390   6.963  15.796
10229TIP3    H152178   1.419   6.933  15.883
10229TIP3    H252179   1.293   6.959  15.809
10230TIP3   OH252180   0.797   7.080  15.644
10230TIP3    H152181   0.812   7.002  15.590
10230TIP3    H252182   0.763   7.040  15.727
10231TIP3   OH252183   0.682   7.032  15.889
10231TIP3    H152184   0.701   6.984  15.971
10231TIP3    H252185   0.688   7.124  15.920
10232TIP3   OH252186   0.319   6.759  15.927
10232TIP3    H152187   0.268   6.793  16.001
10232TIP3    H252188   0.385   6.833  15.917
10233TIP3   OH252189   0.918   7.166  15.900
10233TIP3    H152190   0.869   7.232  15.952
10233TIP3    H252191   0.993   7.227  15.886
10234TIP3   OH252192   0.700  -0.034  15.967
10234TIP3    H152193   0.706   0.045  15.911
10234TIP3    H252194   0.670  -0.000  16.052
10235TIP3   OH252195   0.553   5.959  15.903
10235TIP3    H152196   0.536   6.043  15.947
10235TIP3    H252197   0.643   5.948  15.939
10236TIP3   OH252198   0.390   7.021  15.829
10236TIP3    H152199   0.450   7.091  15.859
10236TIP3    H252200   0.444   6.978  15.760
10237TIP3   OH252201   0.229   6.285  15.736
10237TIP3    H152202   0.217   6.369  15.782
10237TIP3    H252203   0.136   6.260  15.720
10238TIP3   OH252204   1.000   7.265  15.664
10238TIP3    H152205   0.932   7.198  15.686
10238TIP3    H252206   1.073   7.211  15.634
10239TIP3   OH252207   1.465   7.239  15.685
10239TIP3    H152208   1.492   7.160  15.730
10239TIP3    H252209   1.538   7.263  15.626
10240TIP3   OH252210   0.545   6.835  15.662
10240TIP3    H152211   0.564   6.761  15.722
10240TIP3    H252212   0.621   6.827  15.600
10241TIP3   OH252213   1.091   6.944  15.641
10241TIP3    H152214   1.061   6.957  15.732
10241TIP3    H252215   1.069   6.849  15.626
10242TIP3   OH252216   0.665   6.634  15.894
10242TIP3    H152217   0.622   6.584  15.965
10242TIP3    H252218   0.697   6.565  15.833
10243TIP3   OH252219   0.772   6.457  15.724
10243TIP3    H152220   0.760   6.447  15.628
10243TIP3    H252221   0.870   6.467  15.731
10244TIP3   OH252222   1.711   6.695  15.671
10244TIP3    H152223   1.689   6.654  15.584
10244TIP3    H252224   1.718   6.790  15.646
10245TIP3   OH252225   0.125   6.993  15.781
10245TIP3    H152226   0.220   7.000  15.799
10245TIP3    H252227   0.122   6.926  15.710
10246TIP3   OH252228   1.830   6.565  15.880
10246TIP3    H152229   1.780   6.609  15.808
10246TIP3    H252230   1.829   6.634  15.950
10247TIP3   OH252231   1.663   6.300  15.742
10247TIP3    H152232   1.671   6.365  15.671
10247TIP3    H252233   1.645   6.217  15.693
10248TIP3   OH252234   1.587   6.043  15.655
10248TIP3    H152235   1.648   6.000  15.718
10248TIP3    H252236   1.502   6.000  15.674
10249TIP3   OH252237   1.793   5.930  15.810
10249TIP3    H152238   1.837   5.856  15.761
10249TIP3    H252239   1.865   5.995  15.818
10250TIP3   OH252240   0.186   5.746  15.925
10250TIP3    H152241   0.204   5.807  15.855
10250TIP3    H252242   0.105   5.779  15.967
10251TIP3   OH252243   0.336   5.932  15.757
10251TIP3    H152244   0.387   5.862  15.711
10251TIP3    H252245   0.399   5.952  15.830
10252TIP3   OH252246   2.936   6.442  15.782
10252TIP3    H152247   3.010   6.447  15.847
10252TIP3    H252248   2.971   6.377  15.721
10253TIP3   OH252249   3.156   6.515  15.930
10253TIP3    H152250   3.204   6.542  16.012
10253TIP3    H252251   3.196   6.577  15.866
10254TIP3   OH252252   3.536   5.707  15.929
10254TIP3    H152253   3.443   5.719  15.954
10254TIP3    H252254   3.557   5.791  15.885
10255TIP3   OH252255   3.652   7.143  15.757
10255TIP3    H152256   3.661   7.236  15.781
10255TIP3    H252257   3.744   7.112  15.762
10256TIP3   OH252258   3.312   6.634  15.714
10256TIP3    H152259   3.310   6.614  15.617
10256TIP3    H252260   3.397   6.679  15.721
10257TIP3   OH252261   2.868   6.024  15.770
10257TIP3    H152262   2.842   6.026  15.863
10257TIP3    H252263   2.840   5.935  15.742
10258TIP3   OH252264   2.554   6.066  15.684
10258TIP3    H152265   2.507   6.023  15.758
10258TIP3    H252266   2.482   6.107  15.633
10259TIP3   OH252267   2.003   6.102  15.921
10259TIP3    H152268   2.058   6.170  15.876
10259TIP3    H252269   1.939   6.165  15.961
10260TIP3   OH252270   2.422   6.335  15.824
10260TIP3    H152271   2.363   6.307  15.752
10260TIP3    H252272   2.500   6.365  15.777
10261TIP3   OH252273   3.140   6.085  15.835
10261TIP3    H152274   3.045   6.095  15.822
10261TIP3    H252275   3.171   6.169  15.870
10262TIP3   OH252276   2.966   6.943  15.921
10262TIP3    H152277   2.931   7.028  15.951
10262TIP3    H252278   2.893   6.884  15.941
10263TIP3   OH252279   3.720   6.290  15.959
10263TIP3    H152280   3.652   6.254  15.898
10263TIP3    H252281   3.714   6.385  15.939
10264TIP3   OH252282   2.057   6.572  15.754
10264TIP3    H152283   2.129   6.614  15.808
10264TIP3    H252284   1.986   6.594  15.814
10265TIP3   OH252285   3.275   6.963  15.796
10265TIP3    H152286   3.304   6.933  15.883
10265TIP3    H252287   3.179   6.959  15.809
10266TIP3   OH252288   2.683   7.080  15.644
10266TIP3    H152289   2.698   7.002  15.590
10266TIP3    H252290   2.648   7.040  15.727
10267TIP3   OH252291   2.571   7.034  15.888
10267TIP3    H152292   2.584   6.983  15.971
10267TIP3    H252293   2.576   7.125  15.921
10268TIP3   OH252294   2.201   6.876  15.960
10268TIP3    H152295   2.160   6.795  15.993
10268TIP3    H252296   2.277   6.830  15.916
10269TIP3   OH252297   2.804   7.165  15.901
10269TIP3    H152298   2.754   7.232  15.952
10269TIP3    H252299   2.879   7.227  15.886
10270TIP3   OH252300   2.589  -0.032  15.968
10270TIP3    H152301   2.592   0.046  15.911
10270TIP3    H252302   2.555  -0.001  16.051
10271TIP3   OH252303   2.438   5.960  15.903
10271TIP3    H152304   2.422   6.045  15.946
10271TIP3    H252305   2.528   5.948  15.939
10272TIP3   OH252306   2.280   7.059  15.796
10272TIP3    H152307   2.343   7.091  15.861
10272TIP3    H252308   2.327   6.980  15.763
10273TIP3   OH252309   2.109   6.289  15.742
10273TIP3    H152310   2.107   6.384  15.765
10273TIP3    H252311   2.020   6.268  15.716
10274TIP3   OH252312   2.885   7.265  15.664
10274TIP3    H152313   2.817   7.198  15.686
10274TIP3    H252314   2.959   7.211  15.634
10275TIP3   OH252315   3.350   7.239  15.685
10275TIP3    H152316   3.378   7.160  15.731
10275TIP3    H252317   3.424   7.263  15.626
10276TIP3   OH252318   2.434   6.837  15.664
10276TIP3    H152319   2.447   6.760  15.720
10276TIP3    H252320   2.506   6.825  15.600
10277TIP3   OH252321   2.977   6.944  15.641
10277TIP3    H152322   2.946   6.957  15.732
10277TIP3    H252323   2.954   6.849  15.626
10278TIP3   OH252324   2.556   6.634  15.895
10278TIP3    H152325   2.503   6.586  15.962
10278TIP3    H252326   2.580   6.565  15.831
10279TIP3   OH252327   2.659   6.457  15.724
10279TIP3    H152328   2.643   6.447  15.629
10279TIP3    H252329   2.756   6.467  15.730
10280TIP3   OH252330   3.596   6.694  15.670
10280TIP3    H152331   3.574   6.654  15.584
10280TIP3    H252332   3.603   6.790  15.646
10281TIP3   OH252333   2.002   6.992  15.773
10281TIP3    H152334   2.096   6.997  15.801
10281TIP3    H252335   2.007   6.922  15.706
10282TIP3   OH252336   3.719   6.567  15.878
10282TIP3    H152337   3.664   6.608  15.808
10282TIP3    H252338   3.713   6.633  15.950
10283TIP3   OH252339   3.549   6.300  15.742
10283TIP3    H152340   3.556   6.365  15.671
10283TIP3    H252341   3.531   6.217  15.693
10284TIP3   OH252342   3.472   6.043  15.655
10284TIP3    H152343   3.533   6.000  15.718
10284TIP3    H252344   3.387   6.000  15.674
10285TIP3   OH252345   3.679   5.930  15.810
10285TIP3    H152346   3.723   5.856  15.761
10285TIP3    H252347   3.751   5.995  15.818
10286TIP3   OH252348   2.036   5.734  15.913
10286TIP3    H152349   2.085   5.798  15.860
10286TIP3    H252350   1.980   5.790  15.965
10287TIP3   OH252351   2.221   5.927  15.760
10287TIP3    H152352   2.273   5.862  15.710
10287TIP3    H252353   2.284   5.954  15.830
10288TIP3   OH252354   4.822   6.442  15.782
10288TIP3    H152355   4.896   6.447  15.847
10288TIP3    H252356   4.857   6.377  15.720
10289TIP3   OH252357   5.042   6.515  15.930
10289TIP3    H152358   5.090   6.542  16.012
10289TIP3    H252359   5.081   6.577  15.866
10290TIP3   OH252360   5.421   5.707  15.928
10290TIP3    H152361   5.329   5.718  15.955
10290TIP3    H252362   5.443   5.791  15.885
10291TIP3   OH252363   5.540   7.142  15.766
10291TIP3    H152364   5.543   7.239  15.776
10291TIP3    H252365   5.630   7.112  15.751
10292TIP3   OH252366   5.198   6.634  15.714
10292TIP3    H152367   5.195   6.614  15.617
10292TIP3    H252368   5.283   6.679  15.721
10293TIP3   OH252369   4.753   6.024  15.770
10293TIP3    H152370   4.727   6.026  15.863
10293TIP3    H252371   4.725   5.935  15.742
10294TIP3   OH252372   4.439   6.066  15.684
10294TIP3    H152373   4.393   6.023  15.758
10294TIP3    H252374   4.368   6.107  15.633
10295TIP3   OH252375   3.889   6.102  15.922
10295TIP3    H152376   3.943   6.170  15.875
10295TIP3    H252377   3.824   6.165  15.961
10296TIP3   OH252378   4.305   6.340  15.826
10296TIP3    H152379   4.249   6.308  15.753
10296TIP3    H252380   4.385   6.365  15.778
10297TIP3   OH252381   5.026   6.085  15.835
10297TIP3    H152382   4.930   6.095  15.822
10297TIP3    H252383   5.057   6.169  15.870
10298TIP3   OH252384   4.859   6.928  15.921
10298TIP3    H152385   4.825   7.018  15.947
10298TIP3    H252386   4.778   6.880  15.939
10299TIP3   OH252387   5.606   6.290  15.959
10299TIP3    H152388   5.537   6.254  15.898
10299TIP3    H252389   5.600   6.385  15.939
10300TIP3   OH252390   3.964   6.569  15.788
10300TIP3    H152391   4.025   6.630  15.836
10300TIP3    H252392   3.876   6.599  15.817
10301TIP3   OH252393   5.160   6.964  15.796
10301TIP3    H152394   5.188   6.932  15.882
10301TIP3    H252395   5.063   6.959  15.809
10302TIP3   OH252396   4.567   7.070  15.636
10302TIP3    H152397   4.585   6.991  15.587
10302TIP3    H252398   4.535   7.041  15.724
10303TIP3   OH252399   4.450   7.026  15.892
10303TIP3    H152400   4.473   6.983  15.975
10303TIP3    H252401   4.462   7.120  15.914
10304TIP3   OH252402   4.090   6.762  15.930
10304TIP3    H152403   4.034   6.794  16.001
10304TIP3    H252404   4.157   6.833  15.917
10305TIP3   OH252405   4.732   7.134  15.938
10305TIP3    H152406   4.663   7.203  15.954
10305TIP3    H252407   4.774   7.211  15.892
10306TIP3   OH252408   4.388   0.028  16.012
10306TIP3    H152409   4.450   0.037  15.932
10306TIP3    H252410   4.455  -0.006  16.069
10307TIP3   OH252411   4.324   5.959  15.903
10307TIP3    H152412   4.307   6.044  15.946
10307TIP3    H252413   4.414   5.948  15.939
10308TIP3   OH252414   4.159   7.023  15.828
10308TIP3    H152415   4.224   7.089  15.858
10308TIP3    H252416   4.214   6.978  15.761
10309TIP3   OH252417   3.995   6.289  15.742
10309TIP3    H152418   3.992   6.384  15.764
10309TIP3    H252419   3.906   6.267  15.716
10310TIP3   OH252420   4.781   7.263  15.650
10310TIP3    H152421   4.707   7.209  15.685
10310TIP3    H252422   4.851   7.203  15.632
10311TIP3   OH252423   5.237   7.240  15.687
10311TIP3    H152424   5.262   7.159  15.730
10311TIP3    H252425   5.309   7.263  15.625
10312TIP3   OH252426   4.319   6.838  15.664
10312TIP3    H152427   4.334   6.761  15.721
10312TIP3    H252428   4.392   6.827  15.601
10313TIP3   OH252429   4.864   6.943  15.641
10313TIP3    H152430   4.832   6.957  15.731
10313TIP3    H252431   4.839   6.849  15.626
10314TIP3   OH252432   4.438   6.634  15.895
10314TIP3    H152433   4.392   6.584  15.964
10314TIP3    H252434   4.466   6.565  15.831
10315TIP3   OH252435   4.546   6.456  15.724
10315TIP3    H152436   4.530   6.447  15.628
10315TIP3    H252437   4.643   6.467  15.730
10316TIP3   OH252438   5.483   6.695  15.671
10316TIP3    H152439   5.460   6.654  15.585
10316TIP3    H252440   5.488   6.790  15.645
10317TIP3   OH252441   3.888   6.991  15.775
10317TIP3    H152442   3.983   6.998  15.799
10317TIP3    H252443   3.893   6.922  15.706
10318TIP3   OH252444   5.606   6.568  15.878
10318TIP3    H152445   5.549   6.607  15.808
10318TIP3    H252446   5.598   6.633  15.951
10319TIP3   OH252447   5.434   6.300  15.742
10319TIP3    H152448   5.442   6.365  15.671
10319TIP3    H252449   5.417   6.217  15.693
10320TIP3   OH252450   5.358   6.043  15.655
10320TIP3    H152451   5.419   6.000  15.718
10320TIP3    H252452   5.273   6.000  15.674
10321TIP3   OH252453   5.565   5.930  15.810
10321TIP3    H152454   5.608   5.856  15.761
10321TIP3    H252455   5.636   5.995  15.818
10322TIP3   OH252456   3.921   5.733  15.913
10322TIP3    H152457   3.970   5.798  15.860
10322TIP3    H252458   3.865   5.790  15.965
10323TIP3   OH252459   4.106   5.927  15.760
10323TIP3    H152460   4.159   5.862  15.710
10323TIP3    H252461   4.170   5.954  15.830
10324TIP3   OH252462   6.707   6.442  15.782
10324TIP3    H152463   6.781   6.447  15.846
10324TIP3    H252464   6.743   6.377  15.720
10325TIP3   OH252465   6.928   6.515  15.930
10325TIP3    H152466   6.976   6.542  16.012
10325TIP3    H252467   6.968   6.576  15.866
10326TIP3   OH252468   7.279   5.703  15.914
10326TIP3    H152469   7.199   5.726  15.961
10326TIP3    H252470   7.320   5.785  15.885
10327TIP3   OH252471   7.087   6.630  15.714
10327TIP3    H152472   7.081   6.614  15.616
10327TIP3    H252473   7.167   6.681  15.722
10328TIP3   OH252474   6.639   6.024  15.770
10328TIP3    H152475   6.613   6.026  15.863
10328TIP3    H252476   6.611   5.935  15.742
10329TIP3   OH252477   6.325   6.066  15.684
10329TIP3    H152478   6.278   6.023  15.758
10329TIP3    H252479   6.253   6.107  15.633
10330TIP3   OH252480   5.775   6.102  15.922
10330TIP3    H152481   5.829   6.170  15.875
10330TIP3    H252482   5.709   6.165  15.961
10331TIP3   OH252483   6.190   6.340  15.826
10331TIP3    H152484   6.135   6.308  15.753
10331TIP3    H252485   6.271   6.365  15.778
10332TIP3   OH252486   6.911   6.085  15.835
10332TIP3    H152487   6.815   6.094  15.822
10332TIP3    H252488   6.939   6.169  15.870
10333TIP3   OH252489   6.737   6.943  15.922
10333TIP3    H152490   6.701   7.029  15.951
10333TIP3    H252491   6.664   6.884  15.941
10334TIP3   OH252492   5.850   6.569  15.787
10334TIP3    H152493   5.911   6.629  15.836
10334TIP3    H252494   5.762   6.598  15.818
10335TIP3   OH252495   7.045   6.964  15.796
10335TIP3    H152496   7.073   6.932  15.882
10335TIP3    H252497   6.948   6.958  15.808
10336TIP3   OH252498   6.454   7.080  15.644
10336TIP3    H152499   6.469   7.002  15.590
10336TIP3    H252500   6.420   7.040  15.727
10337TIP3   OH252501   6.339   7.032  15.889
10337TIP3    H152502   6.357   6.984  15.972
10337TIP3    H252503   6.347   7.124  15.920
10338TIP3   OH252504   5.974   6.763  15.929
10338TIP3    H152505   5.921   6.793  16.002
10338TIP3    H252506   6.044   6.831  15.918
10339TIP3   OH252507   6.575   7.166  15.900
10339TIP3    H152508   6.526   7.232  15.952
10339TIP3    H252509   6.650   7.227  15.886
10340TIP3   OH252510   6.358  -0.034  15.967
10340TIP3    H152511   6.363   0.045  15.911
10340TIP3    H252512   6.327  -0.000  16.052
10341TIP3   OH252513   6.210   5.959  15.903
10341TIP3    H152514   6.193   6.044  15.946
10341TIP3    H252515   6.300   5.948  15.939
10342TIP3   OH252516   6.043   7.026  15.828
10342TIP3    H152517   6.111   7.088  15.858
10342TIP3    H252518   6.098   6.977  15.762
10343TIP3   OH252519   5.881   6.289  15.742
10343TIP3    H152520   5.878   6.384  15.764
10343TIP3    H252521   5.791   6.267  15.716
10344TIP3   OH252522   6.657   7.265  15.664
10344TIP3    H152523   6.589   7.198  15.686
10344TIP3    H252524   6.731   7.211  15.634
10345TIP3   OH252525   7.124   7.240  15.687
10345TIP3    H152526   7.147   7.159  15.732
10345TIP3    H252527   7.195   7.261  15.625
10346TIP3   OH252528   6.204   6.838  15.664
10346TIP3    H152529   6.218   6.760  15.720
10346TIP3    H252530   6.277   6.826  15.600
10347TIP3   OH252531   6.748   6.944  15.641
10347TIP3    H152532   6.718   6.957  15.732
10347TIP3    H252533   6.725   6.849  15.626
10348TIP3   OH252534   6.323   6.635  15.895
10348TIP3    H152535   6.278   6.584  15.964
10348TIP3    H252536   6.351   6.566  15.832
10349TIP3   OH252537   6.431   6.456  15.724
10349TIP3    H152538   6.416   6.447  15.628
10349TIP3    H252539   6.528   6.467  15.730
10350TIP3   OH252540   5.775   6.993  15.775
10350TIP3    H152541   5.872   6.994  15.795
10350TIP3    H252542   5.776   6.922  15.705
10351TIP3   OH252543   7.313   6.301  15.743
10351TIP3    H152544   7.321   6.363  15.671
10351TIP3    H252545   7.297   6.216  15.695
10352TIP3   OH252546   7.245   6.045  15.656
10352TIP3    H152547   7.302   6.000  15.719
10352TIP3    H252548   7.160   6.001  15.672
10353TIP3   OH252549   5.807   5.734  15.913
10353TIP3    H152550   5.856   5.798  15.860
10353TIP3    H252551   5.751   5.790  15.965
10354TIP3   OH252552   5.992   5.927  15.760
10354TIP3    H152553   6.044   5.862  15.710
10354TIP3    H252554   6.055   5.954  15.830
10355TIP3   OH252555   1.180   1.012   0.674
10355TIP3    H152556   1.182   1.109   0.667
10355TIP3    H252557   1.110   0.988   0.612
10356TIP3   OH252558   1.067   0.938   1.022
10356TIP3    H152559   1.066   0.873   1.093
10356TIP3    H252560   1.035   0.889   0.945
10357TIP3   OH252561   0.302   0.907   1.181
10357TIP3    H152562   0.315   0.834   1.245
10357TIP3    H252563   0.381   0.961   1.195
10358TIP3   OH252564   1.438   1.232   0.849
10358TIP3    H152565   1.395   1.161   0.898
10358TIP3    H252566   1.439   1.304   0.916
10359TIP3   OH252567   0.392   1.348   1.032
10359TIP3    H152568   0.364   1.262   0.995
10359TIP3    H252569   0.489   1.331   1.034
10360TIP3   OH252570   0.079   0.708   0.553
10360TIP3    H152571   0.025   0.788   0.576
10360TIP3    H252572   0.007   0.653   0.529
10361TIP3   OH252573   0.129   0.927   0.788
10361TIP3    H152574   0.154   0.847   0.837
10361TIP3    H252575   0.202   0.937   0.726
10362TIP3   OH252576   1.149   1.747   0.873
10362TIP3    H152577   1.213   1.677   0.845
10362TIP3    H252578   1.129   1.717   0.961
10363TIP3   OH252579   0.905   1.179   1.066
10363TIP3    H152580   0.939   1.114   1.002
10363TIP3    H252581   0.984   1.193   1.121
10364TIP3   OH252582   1.769   0.341   1.143
10364TIP3    H152583   1.782   0.404   1.218
10364TIP3    H252584   1.820   0.386   1.075
10365TIP3   OH252585   1.222   0.624   1.099
10365TIP3    H152586   1.237   0.527   1.098
10365TIP3    H252587   1.212   0.639   1.003
10366TIP3   OH252588   0.536   0.435   0.823
10366TIP3    H152589   0.544   0.519   0.774
10366TIP3    H252590   0.493   0.377   0.756
10367TIP3   OH252591   1.308   0.442   0.658
10367TIP3    H152592   1.374   0.411   0.725
10367TIP3    H252593   1.363   0.498   0.601
10368TIP3   OH252594   0.199   0.672   0.890
10368TIP3    H152595   0.265   0.619   0.939
10368TIP3    H252596   0.208   0.640   0.800
10369TIP3   OH252597   0.712   0.829   0.824
10369TIP3    H152598   0.778   0.772   0.867
10369TIP3    H252599   0.659   0.763   0.777
10370TIP3   OH252600   1.811   0.485   1.369
10370TIP3    H152601   1.747   0.558   1.360
10370TIP3    H252602   1.814   0.473   1.464
10371TIP3   OH252603   0.423   0.325   1.226
10371TIP3    H152604   0.396   0.379   1.150
10371TIP3    H252605   0.353   0.345   1.292
10372TIP3   OH252606   1.154   1.272   0.581
10372TIP3    H152607   1.125   1.243   0.493
10372TIP3    H252608   1.123   1.364   0.586
10373TIP3   OH252609   0.676   1.087   1.253
10373TIP3    H152610   0.605   1.152   1.270
10373TIP3    H252611   0.746   1.147   1.223
10374TIP3   OH252612   1.488   0.375   0.857
10374TIP3    H152613   1.465   0.299   0.912
10374TIP3    H252614   1.554   0.419   0.912
10375TIP3   OH252615   0.378   0.508   1.026
10375TIP3    H152616   0.441   0.576   1.060
10375TIP3    H252617   0.433   0.466   0.956
10376TIP3   OH252618   0.520   1.286   1.333
10376TIP3    H152619   0.516   1.377   1.298
10376TIP3    H252620   0.431   1.280   1.377
10377TIP3   OH252621   0.128   1.254   0.410
10377TIP3    H152622   0.104   1.282   0.321
10377TIP3    H252623   0.134   1.337   0.462
10378TIP3   OH252624   1.490   1.416   1.086
10378TIP3    H152625   1.393   1.426   1.099
10378TIP3    H252626   1.517   1.508   1.068
10379TIP3   OH252627   1.523   0.245   1.230
10379TIP3    H152628   1.449   0.306   1.218
10379TIP3    H252629   1.592   0.285   1.173
10380TIP3   OH252630   0.847   0.072   0.972
10380TIP3    H152631   0.828  -0.023   0.967
10380TIP3    H252632   0.755   0.096   0.994
10381TIP3   OH252633   1.315   1.594   0.747
10381TIP3    H152634   1.359   1.523   0.696
10381TIP3    H252635   1.355   1.674   0.706
10382TIP3   OH252636   1.435   1.387   0.597
10382TIP3    H152637   1.407   1.317   0.536
10382TIP3    H252638   1.439   1.338   0.682
10383TIP3   OH252639   1.599   1.245   1.447
10383TIP3    H152640   1.614   1.181   1.373
10383TIP3    H252641   1.618   1.331   1.405
10384TIP3   OH252642   1.048   0.936   0.422
10384TIP3    H152643   0.977   0.993   0.386
10384TIP3    H252644   1.118   0.944   0.355
10385TIP3   OH252645   1.050   0.784   0.132
10385TIP3    H152646   1.126   0.789   0.191
10385TIP3    H252647   1.084   0.724   0.066
10386TIP3   OH252648   1.787   0.876   1.252
10386TIP3    H152649   1.720   0.948   1.258
10386TIP3    H252650   1.834   0.899   1.171
10387TIP3   OH252651   1.391   0.958   0.517
10387TIP3    H152652   1.316   0.981   0.577
10387TIP3    H252653   1.437   0.888   0.567
10388TIP3   OH252654   1.384   0.773   1.427
10388TIP3    H152655   1.386   0.854   1.481
10388TIP3    H252656   1.321   0.803   1.358
10389TIP3   OH252657   0.555   1.024   0.707
10389TIP3    H152658   0.520   0.984   0.623
10389TIP3    H252659   0.615   0.953   0.741
10390TIP3   OH252660   0.687   1.363   0.975
10390TIP3    H152661   0.684   1.308   0.896
10390TIP3    H252662   0.764   1.326   1.022
10391TIP3   OH252663   0.587   0.898   1.073
10391TIP3    H152664   0.643   0.909   0.994
10391TIP3    H252665   0.625   0.964   1.134
10392TIP3   OH252666   1.225   1.453   1.143
10392TIP3    H152667   1.198   1.517   1.210
10392TIP3    H252668   1.202   1.368   1.186
10393TIP3   OH252669   0.681   1.339   1.542
10393TIP3    H152670   0.643   1.416   1.590
10393TIP3    H252671   0.613   1.321   1.473
10394TIP3   OH252672   1.279   0.874   0.284
10394TIP3    H152673   1.335   0.893   0.363
10394TIP3    H252674   1.320   0.927   0.214
10395TIP3   OH252675   0.380   0.963   1.462
10395TIP3    H152676   0.385   1.031   1.533
10395TIP3    H252677   0.293   0.982   1.425
10396TIP3   OH252678   1.050   1.548   0.630
10396TIP3    H152679   1.095   1.579   0.709
10396TIP3    H252680   0.994   1.623   0.605
10397TIP3   OH252681   0.506   1.544   1.618
10397TIP3    H152682   0.500   1.533   1.521
10397TIP3    H252683   0.412   1.532   1.644
10398TIP3   OH252684   1.651   0.059   0.268
10398TIP3    H152685   1.558   0.064   0.295
10398TIP3    H252686   1.671   0.141   0.224
10399TIP3   OH252687   0.453   0.926   0.468
10399TIP3    H152688   0.424   1.004   0.416
10399TIP3    H252689   0.385   0.861   0.447
10400TIP3   OH252690   1.761   1.484   0.109
10400TIP3    H152691   1.774   1.580   0.121
10400TIP3    H252692   1.854   1.456   0.101
10401TIP3   OH252693   0.098   1.162   1.332
10401TIP3    H152694   0.023   1.158   1.272
10401TIP3    H252695   0.069   1.079   1.377
10402TIP3   OH252696   0.050   1.458   1.020
10402TIP3    H152697   0.143   1.433   1.032
10402TIP3    H252698   0.035   1.527   1.086
10403TIP3   OH252699   1.859   1.511   1.604
10403TIP3    H152700   1.849   1.415   1.602
10403TIP3    H252701   1.772   1.536   1.644
10404TIP3   OH252702   0.955   1.466   1.491
10404TIP3    H152703   0.962   1.550   1.541
10404TIP3    H252704   0.868   1.431   1.516
10405TIP3   OH252705   0.997   1.840   0.471
10405TIP3    H152706   0.989   1.833   0.374
10405TIP3    H252707   1.001   1.937   0.486
10406TIP3   OH252708   0.363   1.727   0.651
10406TIP3    H152709   0.377   1.686   0.739
10406TIP3    H252710   0.279   1.686   0.626
10407TIP3   OH252711   1.301   1.760   0.169
10407TIP3    H152712   1.348   1.685   0.125
10407TIP3    H252713   1.308   1.734   0.263
10408TIP3   OH252714   1.274   1.754   0.447
10408TIP3    H152715   1.178   1.762   0.466
10408TIP3    H252716   1.299   1.681   0.505
10409TIP3   OH252717   1.573   0.659   1.653
10409TIP3    H152718   1.528   0.705   1.580
10409TIP3    H252719   1.574   0.568   1.621
10410TIP3   OH252720   0.288   1.299   1.452
10410TIP3    H152721   0.307   1.265   1.541
10410TIP3    H252722   0.201   1.261   1.430
10411TIP3   OH252723   0.549   0.158   1.055
10411TIP3    H152724   0.462   0.141   1.012
10411TIP3    H252725   0.538   0.241   1.099
10412TIP3   OH252726   1.017   0.114   1.386
10412TIP3    H152727   1.058   0.075   1.464
10412TIP3    H252728   0.922   0.102   1.401
10413TIP3   OH252729   1.349   0.494   1.474
10413TIP3    H152730   1.293   0.478   1.553
10413TIP3    H252731   1.332   0.587   1.450
10414TIP3   OH252732   1.433   0.988   0.064
10414TIP3    H152733   1.432   0.964  -0.031
10414TIP3    H252734   1.522   1.026   0.074
10415TIP3   OH252735   0.983   0.369   0.117
10415TIP3    H152736   0.955   0.367   0.210
10415TIP3    H252737   0.959   0.280   0.089
10416TIP3   OH252738   0.564   0.642   1.169
10416TIP3    H152739   0.493   0.640   1.235
10416TIP3    H252740   0.562   0.735   1.135
10417TIP3   OH252741   0.562   0.658   0.657
10417TIP3    H152742   0.468   0.630   0.645
10417TIP3    H252743   0.601   0.626   0.574
10418TIP3   OH252744   1.114   0.705   0.533
10418TIP3    H152745   1.072   0.788   0.502
10418TIP3    H252746   1.184   0.691   0.467
10419TIP3   OH252747   1.020   0.726   1.681
10419TIP3    H152748   0.966   0.650   1.712
10419TIP3    H252749   1.104   0.712   1.728
10420TIP3   OH252750   1.216   0.653   0.819
10420TIP3    H152751   1.190   0.710   0.745
10420TIP3    H252752   1.228   0.569   0.772
10421TIP3   OH252753   0.324   0.674   1.344
10421TIP3    H152754   0.344   0.701   1.433
10421TIP3    H252755   0.286   0.584   1.356
10422TIP3   OH252756   0.683   0.436   0.058
10422TIP3    H152757   0.631   0.370   0.107
10422TIP3    H252758   0.623   0.464  -0.011
10423TIP3   OH252759   0.011   0.396   0.726
10423TIP3    H152760   0.062   0.378   0.808
10423TIP3    H252761   0.045   0.338   0.659
10424TIP3   OH252762   0.123   0.462   0.279
10424TIP3    H152763   0.172   0.518   0.216
10424TIP3    H252764   0.050   0.518   0.303
10425TIP3   OH252765   1.138   0.814   1.278
10425TIP3    H152766   1.174   0.746   1.218
10425TIP3    H252767   1.092   0.760   1.345
10426TIP3   OH252768   0.817   0.408   0.759
10426TIP3    H152769   0.724   0.409   0.790
10426TIP3    H252770   0.866   0.398   0.842
10427TIP3   OH252771   0.304   0.566   0.643
10427TIP3    H152772   0.213   0.582   0.609
10427TIP3    H252773   0.328   0.480   0.605
10428TIP3   OH252774   0.663   0.570   0.409
10428TIP3    H152775   0.758   0.583   0.427
10428TIP3    H252776   0.640   0.637   0.342
10429TIP3   OH252777   1.258   0.332   1.084
10429TIP3    H152778   1.189   0.341   1.153
10429TIP3    H252779   1.208   0.311   1.004
10430TIP3   OH252780   0.533   0.688   0.167
10430TIP3    H152781   0.478   0.652   0.096
10430TIP3    H252782   0.616   0.709   0.122
10431TIP3   OH252783   1.580   1.898   1.716
10431TIP3    H152784   1.605   1.938   1.631
10431TIP3    H252785   1.651   1.931   1.773
10432TIP3   OH252786   0.347   1.142   1.671
10432TIP3    H152787   0.417   1.171   1.732
10432TIP3    H252788   0.271   1.162   1.731
10433TIP3   OH252789   0.946   0.685   0.949
10433TIP3    H152790   1.005   0.630   0.895
10433TIP3    H252791   0.932   0.632   1.028
10434TIP3   OH252792   0.447   0.304   0.591
10434TIP3    H152793   0.414   0.212   0.591
10434TIP3    H252794   0.526   0.296   0.537
10435TIP3   OH252795   0.810   0.520   1.190
10435TIP3    H152796   0.727   0.571   1.200
10435TIP3    H252797   0.865   0.553   1.264
10436TIP3   OH252798   0.869   1.142   0.361
10436TIP3    H152799   0.789   1.094   0.328
10436TIP3    H252800   0.848   1.151   0.456
10437TIP3   OH252801   1.585   1.060   1.240
10437TIP3    H152802   1.643   1.108   1.179
10437TIP3    H252803   1.499   1.068   1.193
10438TIP3   OH252804   1.254   0.427   0.178
10438TIP3    H152805   1.159   0.438   0.161
10438TIP3    H252806   1.285   0.512   0.213
10439TIP3   OH252807   1.017   1.166   1.484
10439TIP3    H152808   0.983   1.125   1.564
10439TIP3    H252809   0.994   1.259   1.493
10440TIP3   OH252810   1.325   0.615   0.345
10440TIP3    H152811   1.416   0.600   0.378
10440TIP3    H252812   1.333   0.695   0.291
10441TIP3   OH252813   0.378   1.080   0.939
10441TIP3    H152814   0.448   1.074   0.872
10441TIP3    H252815   0.386   0.994   0.983
10442TIP3   OH252816   1.079   1.289   0.264
10442TIP3    H152817   1.044   1.373   0.300
10442TIP3    H252818   1.005   1.227   0.283
10443TIP3   OH252819   0.063   0.920   1.432
10443TIP3    H152820   0.073   0.901   1.526
10443TIP3    H252821  -0.000   0.850   1.411
10444TIP3   OH252822   0.778   0.876   1.686
10444TIP3    H152823   0.750   0.850   1.598
10444TIP3    H252824   0.872   0.847   1.686
10445TIP3   OH252825   1.246   1.410   1.478
10445TIP3    H152826   1.154   1.429   1.455
10445TIP3    H252827   1.245   1.439   1.571
10446TIP3   OH252828   1.815   0.631   0.321
10446TIP3    H152829   1.758   0.597   0.249
10446TIP3    H252830   1.824   0.724   0.290
10447TIP3   OH252831   1.813   1.215   1.600
10447TIP3    H152832   1.725   1.237   1.562
10447TIP3    H252833   1.869   1.211   1.520
10448TIP3   OH252834   1.644   1.512   0.357
10448TIP3    H152835   1.607   1.429   0.391
10448TIP3    H252836   1.674   1.492   0.267
10449TIP3   OH252837   1.364   0.994   1.067
10449TIP3    H152838   1.269   0.971   1.059
10449TIP3    H252839   1.407   0.916   1.027
10450TIP3   OH252840   0.615   1.426   0.679
10450TIP3    H152841   0.667   1.506   0.657
10450TIP3    H252842   0.528   1.450   0.646
10451TIP3   OH252843   0.186   0.909   0.137
10451TIP3    H152844   0.251   0.973   0.173
10451TIP3    H252845   0.102   0.944   0.166
10452TIP3   OH252846   0.759   1.192   0.632
10452TIP3    H152847   0.729   1.285   0.639
10452TIP3    H252848   0.685   1.145   0.674
10453TIP3   OH252849   0.804   1.610   1.269
10453TIP3    H152850   0.848   1.692   1.242
10453TIP3    H252851   0.864   1.578   1.339
10454TIP3   OH252852   0.626   1.693   0.584
10454TIP3    H152853   0.530   1.706   0.596
10454TIP3    H252854   0.662   1.777   0.620
10455TIP3   OH252855   1.158   1.213   1.234
10455TIP3    H152856   1.122   1.193   1.322
10455TIP3    H252857   1.221   1.141   1.217
10456TIP3   OH252858   1.386   1.314   0.145
10456TIP3    H152859   1.417   1.269   0.226
10456TIP3    H252860   1.290   1.300   0.153
10457TIP3   OH252861   1.435   1.670   1.483
10457TIP3    H152862   1.368   1.619   1.433
10457TIP3    H252863   1.456   1.739   1.417
10458TIP3   OH252864   1.835   1.757   0.169
10458TIP3    H152865   1.906   1.819   0.146
10458TIP3    H252866   1.763   1.818   0.195
10459TIP3   OH252867   0.243   0.396   1.422
10459TIP3    H152868   0.152   0.427   1.420
10459TIP3    H252869   0.231   0.308   1.465
10460TIP3   OH252870   1.468   1.180   0.366
10460TIP3    H152871   1.444   1.102   0.420
10460TIP3    H252872   1.563   1.188   0.387
10461TIP3   OH252873   0.206   1.575   1.262
10461TIP3    H152874   0.234   1.482   1.265
10461TIP3    H252875   0.231   1.603   1.352
10462TIP3   OH252876   0.682   1.381   0.234
10462TIP3    H152877   0.704   1.326   0.311
10462TIP3    H252878   0.688   1.472   0.267
10463TIP3   OH252879   0.329   1.102   0.284
10463TIP3    H152880   0.263   1.142   0.344
10463TIP3    H252881   0.384   1.179   0.260
10464TIP3   OH252882   1.117   0.371   1.316
10464TIP3    H152883   1.188   0.378   1.380
10464TIP3    H252884   1.079   0.282   1.333
10465TIP3   OH252885   1.194   0.331   0.425
10465TIP3    H152886   1.215   0.380   0.343
10465TIP3    H252887   1.249   0.377   0.491
10466TIP3   OH252888   0.959   1.547   0.306
10466TIP3    H152889   0.878   1.598   0.315
10466TIP3    H252890   1.014   1.599   0.245
10467TIP3   OH252891   0.913   0.503   0.507
10467TIP3    H152892   0.993   0.560   0.509
10467TIP3    H252893   0.888   0.493   0.600
10468TIP3   OH252894   0.969   0.606   1.426
10468TIP3    H152895   0.977   0.663   1.504
10468TIP3    H252896   1.035   0.537   1.436
10469TIP3   OH252897   1.001   0.211   0.601
10469TIP3    H152898   0.967   0.278   0.662
10469TIP3    H252899   1.067   0.265   0.550
10470TIP3   OH252900   0.694   1.650   0.309
10470TIP3    H152901   0.711   1.733   0.259
10470TIP3    H252902   0.672   1.684   0.398
10471TIP3   OH252903   0.567   0.319   0.269
10471TIP3    H152904   0.559   0.410   0.304
10471TIP3    H252905   0.659   0.300   0.296
10472TIP3   OH252906   1.588   0.393   1.511
10472TIP3    H152907   1.495   0.424   1.498
10472TIP3    H252908   1.619   0.393   1.418
10473TIP3   OH252909   1.448   0.773   0.914
10473TIP3    H152910   1.366   0.729   0.884
10473TIP3    H252911   1.495   0.703   0.965
10474TIP3   OH252912   0.390   1.365   0.172
10474TIP3    H152913   0.454   1.430   0.202
10474TIP3    H252914   0.441   1.320   0.102
10475TIP3   OH252915   0.234   0.634   0.083
10475TIP3    H152916   0.225   0.728   0.107
10475TIP3    H252917   0.142   0.611   0.064
10476TIP3   OH252918   1.555   1.697   1.080
10476TIP3    H152919   1.544   1.766   1.011
10476TIP3    H252920   1.651   1.704   1.098
10477TIP3   OH252921   0.287   0.124   0.959
10477TIP3    H152922   0.285   0.114   0.861
10477TIP3    H252923   0.268   0.032   0.984
10478TIP3   OH252924   0.203   1.503   0.574
10478TIP3    H152925   0.116   1.547   0.570
10478TIP3    H252926   0.250   1.553   0.506
10479TIP3   OH252927   0.135   1.768   1.702
10479TIP3    H152928   0.185   1.743   1.781
10479TIP3    H252929   0.081   1.687   1.686
10480TIP3   OH252930   0.588   1.657   1.864
10480TIP3    H152931   0.665   1.609   1.897
10480TIP3    H252932   0.585   1.631   1.770
10481TIP3   OH252933   1.042   1.624   0.057
10481TIP3    H152934   0.958   1.574   0.057
10481TIP3    H252935   1.085   1.569  -0.008
10482TIP3   OH252936   1.241   1.497   1.738
10482TIP3    H152937   1.209   1.409   1.764
10482TIP3    H252938   1.317   1.509   1.798
10483TIP3   OH252939   1.458   1.590   0.024
10483TIP3    H152940   1.485   1.508   0.072
10483TIP3    H252941   1.535   1.610  -0.031
10484TIP3   OH252942   0.128   1.147   1.796
10484TIP3    H152943   0.129   1.053   1.774
10484TIP3    H252944   0.041   1.175   1.758
10485TIP3   OH252945   0.556   1.186   0.016
10485TIP3    H152946   0.561   1.102   0.064
10485TIP3    H252947   0.614   1.164  -0.060
10486TIP3   OH252948   0.784   1.144   1.741
10486TIP3    H152949   0.750   1.173   1.655
10486TIP3    H252950   0.794   1.046   1.731
10487TIP3   OH252951   1.354   1.131   1.480
10487TIP3    H152952   1.432   1.191   1.471
10487TIP3    H252953   1.282   1.195   1.484
10488TIP3   OH252954   0.200   0.863   1.735
10488TIP3    H152955   0.247   0.778   1.738
10488TIP3    H252956   0.180   0.870   1.831
10489TIP3   OH252957   0.668   0.983   0.244
10489TIP3    H152958   0.619   0.929   0.309
10489TIP3    H252959   0.697   0.914   0.180
10490TIP3   OH252960   0.590   0.762   1.475
10490TIP3    H152961   0.538   0.838   1.505
10490TIP3    H252962   0.634   0.799   1.395
10491TIP3   OH252963   0.775   0.801   0.068
10491TIP3    H152964   0.761   0.789  -0.027
10491TIP3    H252965   0.873   0.811   0.074
10492TIP3   OH252966   1.100   1.018   1.808
10492TIP3    H152967   1.196   1.020   1.800
10492TIP3    H252968   1.083   0.942   1.866
10493TIP3   OH252969   1.691   1.051  16.020
10493TIP3    H152970   1.685   0.999  15.937
10493TIP3    H252971   1.716   1.139  15.990
10494TIP3   OH252972   0.631   0.501   1.584
10494TIP3    H152973   0.647   0.428   1.521
10494TIP3    H252974   0.630   0.581   1.528
10495TIP3   OH252975   0.674   0.339   1.336
10495TIP3    H152976   0.726   0.386   1.267
10495TIP3    H252977   0.585   0.328   1.294
10496TIP3   OH252978   0.829   0.885   1.361
10496TIP3    H152979   0.904   0.869   1.303
10496TIP3    H252980   0.793   0.970   1.329
10497TIP3   OH252981   1.269   0.663   1.859
10497TIP3    H152982   1.291   0.570   1.849
10497TIP3    H252983   1.356   0.707   1.861
10498TIP3   OH252984   1.401   0.941   1.672
10498TIP3    H152985   1.376   1.014   1.612
10498TIP3    H252986   1.497   0.938   1.654
10499TIP3   OH252987   0.473   0.630   1.769
10499TIP3    H152988   0.401   0.564   1.757
10499TIP3    H252989   0.545   0.589   1.716
10500TIP3   OH252990   0.744   0.095   1.394
10500TIP3    H152991   0.737   0.190   1.368
10500TIP3    H252992   0.680   0.054   1.333
10501TIP3   OH252993   0.880   0.515   1.737
10501TIP3    H152994   0.851   0.490   1.826
10501TIP3    H252995   0.800   0.495   1.684
10502TIP3   OH252996   1.151   0.433   1.646
10502TIP3    H152997   1.055   0.433   1.658
10502TIP3    H252998   1.179   0.366   1.712
10503TIP3   OH252999   1.313   0.296   1.840
10503TIP3    H153000   1.304   0.198   1.840
10503TIP3    H253001   1.283   0.320   1.929
10504TIP3   OH253002   0.294   0.416   1.747
10504TIP3    H153003   0.316   0.342   1.688
10504TIP3    H253004   0.284   0.370   1.833
10505TIP3   OH253005   0.773   7.358   1.645
10505TIP3    H153006   0.843   7.292   1.649
10505TIP3    H253007   0.765   7.383   1.551
10506TIP3   OH253008   0.811   0.186   1.852
10506TIP3    H153009   0.796   0.132   1.772
10506TIP3    H253010   0.750   0.260   1.845
10507TIP3   OH253011   0.759   1.871   0.169
10507TIP3    H153012   0.856   1.885   0.181
10507TIP3    H253013   0.737   1.938   0.105
10508TIP3   OH253014   0.118   1.332   0.123
10508TIP3    H153015   0.214   1.343   0.144
10508TIP3    H253016   0.121   1.271   0.048
10509TIP3   OH253017   7.353   1.879   0.612
10509TIP3    H153018   7.271   1.846   0.571
10509TIP3    H253019   7.369   1.811   0.682
10510TIP3   OH253020   0.069   1.685   0.802
10510TIP3    H153021   0.040   1.595   0.823
10510TIP3    H253022   0.098   1.717   0.889
10511TIP3   OH253023   1.827   1.763   1.100
10511TIP3    H153024   1.829   1.780   1.196
10511TIP3    H253025   1.897   1.820   1.069
10512TIP3   OH253026   1.784   1.722   1.394
10512TIP3    H153027   1.737   1.645   1.357
10512TIP3    H253028   1.836   1.678   1.464
10513TIP3   OH253029   1.629   1.296   1.860
10513TIP3    H153030   1.539   1.290   1.898
10513TIP3    H253031   1.666   1.375   1.903
10514TIP3   OH253032   1.761   1.126   0.405
10514TIP3    H153033   1.846   1.167   0.424
10514TIP3    H253034   1.759   1.054   0.472
10515TIP3   OH253035   1.797   0.934   0.592
10515TIP3    H153036   1.723   0.883   0.631
10515TIP3    H253037   1.857   0.949   0.668
10516TIP3   OH253038   1.773   1.205   1.090
10516TIP3    H153039   1.855   1.168   1.055
10516TIP3    H253040   1.787   1.301   1.074
10517TIP3   OH253041   1.627   1.495   1.318
10517TIP3    H153042   1.558   1.529   1.378
10517TIP3    H253043   1.572   1.454   1.248
10518TIP3   OH253044   1.827   0.918   0.232
10518TIP3    H153045   1.769   0.954   0.162
10518TIP3    H253046   1.820   0.989   0.299
10519TIP3   OH253047   1.626   0.643   0.094
10519TIP3    H153048   1.667   0.704   0.031
10519TIP3    H253049   1.645   0.561   0.046
10520TIP3   OH253050   1.578   0.782   0.649
10520TIP3    H153051   1.563   0.687   0.646
10520TIP3    H253052   1.544   0.806   0.736
10521TIP3   OH253053   0.077   0.993   1.054
10521TIP3    H153054   0.096   0.983   0.957
10521TIP3    H253055   0.167   0.975   1.090
10522TIP3   OH253056   1.663   0.979   1.616
10522TIP3    H153057   1.724   0.904   1.632
10522TIP3    H253058   1.723   1.057   1.618
10523TIP3   OH253059   1.814   0.769   1.683
10523TIP3    H153060   1.726   0.728   1.666
10523TIP3    H253061   1.872   0.691   1.675
10524TIP3   OH253062   1.545   0.542   0.495
10524TIP3    H153063   1.576   0.449   0.506
10524TIP3    H253064   1.624   0.582   0.457
10525TIP3   OH253065   1.608   0.597   1.038
10525TIP3    H153066   1.705   0.619   1.037
10525TIP3    H253067   1.589   0.608   1.133
10526TIP3   OH253068   1.615   0.669   1.317
10526TIP3    H153069   1.527   0.697   1.351
10526TIP3    H253070   1.658   0.754   1.295
10527TIP3   OH253071   0.059   0.514   1.668
10527TIP3    H153072   0.148   0.490   1.696
10527TIP3    H253073   0.001   0.441   1.702
10528TIP3   OH253074   1.846   0.069   1.853
10528TIP3    H153075   1.875   0.004   1.789
10528TIP3    H253076   1.852   0.154   1.804
10529TIP3   OH253077   1.611   0.268   0.499
10529TIP3    H153078   1.630   0.222   0.583
10529TIP3    H253079   1.551   0.204   0.454
10530TIP3   OH253080   0.157   0.352   0.954
10530TIP3    H153081   0.207   0.270   0.981
10530TIP3    H253082   0.212   0.418   0.996
10531TIP3   OH253083   0.063   0.694   1.098
10531TIP3    H153084   0.059   0.657   1.006
10531TIP3    H253085   0.033   0.781   1.076
10532TIP3   OH253086   1.797   0.280   1.686
10532TIP3    H153087   1.703   0.307   1.682
10532TIP3    H253088   1.801   0.225   1.607
10533TIP3   OH253089   1.795   0.276   0.152
10533TIP3    H153090   1.837   0.201   0.106
10533TIP3    H253091   1.867   0.340   0.156
10534TIP3   OH253092   0.065   0.272   0.444
10534TIP3    H153093  -0.030   0.295   0.443
10534TIP3    H253094   0.089   0.337   0.376
10535TIP3   OH253095   1.499   1.771   0.662
10535TIP3    H153096   1.567   1.739   0.599
10535TIP3    H253097   1.552   1.821   0.726
10536TIP3   OH253098   7.375   0.142   1.308
10536TIP3    H153099   7.301   0.119   1.364
10536TIP3    H253100   7.325   0.198   1.246
10537TIP3   OH253101   0.244   1.464   1.716
10537TIP3    H153102   0.161   1.483   1.670
10537TIP3    H253103   0.215   1.454   1.807
10538TIP3   OH253104   0.535   1.562   1.341
10538TIP3    H153105   0.496   1.646   1.312
10538TIP3    H253106   0.627   1.572   1.309
10539TIP3   OH253107   0.966   1.704   1.632
10539TIP3    H153108   0.982   1.669   1.723
10539TIP3    H253109   1.055   1.734   1.605
10540TIP3   OH253110   1.196   1.831   1.561
10540TIP3    H153111   1.269   1.771   1.537
10540TIP3    H253112   1.234   1.873   1.641
10541TIP3   OH253113   1.698   0.094   1.469
10541TIP3    H153114   1.614   0.125   1.432
10541TIP3    H253115   1.715   0.013   1.418
10542TIP3   OH253116   0.278   1.887   1.343
10542TIP3    H153117   0.203   1.933   1.301
10542TIP3    H253118   0.241   1.865   1.430
10543TIP3   OH253119   0.524   1.845   1.248
10543TIP3    H153120   0.435   1.858   1.288
10543TIP3    H253121   0.518   1.903   1.170
10544TIP3   OH253122   0.994   1.835   1.164
10544TIP3    H153123   0.948   1.890   1.099
10544TIP3    H253124   1.008   1.898   1.238
10545TIP3   OH253125   1.225   1.718   1.264
10545TIP3    H153126   1.137   1.743   1.231
10545TIP3    H253127   1.270   1.804   1.255
10546TIP3   OH253128   1.483   1.875   1.290
10546TIP3    H153129   1.473   1.971   1.267
10546TIP3    H253130   1.503   1.838   1.202
10547TIP3   OH253131   0.217   1.748   1.033
10547TIP3    H153132   0.217   1.707   1.122
10547TIP3    H253133   0.301   1.715   0.995
10548TIP3   OH253134   0.431   1.622   0.899
10548TIP3    H153135   0.412   1.529   0.921
10548TIP3    H253136   0.515   1.636   0.946
10549TIP3   OH253137   0.688   1.670   0.987
10549TIP3    H153138   0.706   1.578   0.960
10549TIP3    H253139   0.694   1.664   1.083
10550TIP3   OH253140   1.034   0.241   0.899
10550TIP3    H153141   0.970   0.172   0.928
10550TIP3    H253142   1.094   0.187   0.845
10551TIP3   OH253143   1.549   0.044   0.911
10551TIP3    H153144   1.610   0.098   0.857
10551TIP3    H253145   1.462   0.076   0.886
10552TIP3   OH253146   1.719   0.164   0.736
10552TIP3    H153147   1.786   0.107   0.695
10552TIP3    H253148   1.766   0.250   0.746
10553TIP3   OH253149   0.279   0.103   0.672
10553TIP3    H153150   0.193   0.075   0.637
10553TIP3    H253151   0.317   0.015   0.687
10554TIP3   OH253152   0.160   0.117   0.208
10554TIP3    H153153   0.227   0.181   0.190
10554TIP3    H253154   0.110   0.140   0.290
10555TIP3   OH253155   0.748   0.129   0.696
10555TIP3    H153156   0.842   0.131   0.671
10555TIP3    H253157   0.732   0.065   0.766
10556TIP3   OH253158   1.273   0.114   0.832
10556TIP3    H153159   1.287   0.111   0.737
10556TIP3    H253160   1.260   0.016   0.844
10557TIP3   OH253161   1.417   0.097   0.402
10557TIP3    H153162   1.346   0.157   0.376
10557TIP3    H253163   1.375   0.010   0.409
10558TIP3   OH253164   0.155   1.675   0.351
10558TIP3    H153165   0.077   1.669   0.292
10558TIP3    H253166   0.143   1.767   0.377
10559TIP3   OH253167   0.338   0.274   0.103
10559TIP3    H153168   0.385   0.206   0.055
10559TIP3    H253169   0.400   0.299   0.173
10560TIP3   OH253170   0.831   0.292   0.352
10560TIP3    H153171   0.864   0.236   0.425
10560TIP3    H253172   0.840   0.379   0.397
10561TIP3   OH253173   1.025   1.821   0.201
10561TIP3    H153174   1.120   1.828   0.178
10561TIP3    H253175   1.007   1.757   0.128
10562TIP3   OH253176   1.700   1.750   0.464
10562TIP3    H153177   1.679   1.673   0.406
10562TIP3    H253178   1.692   1.825   0.401
10563TIP3   OH253179   0.254   0.155   1.630
10563TIP3    H153180   0.224   0.074   1.674
10563TIP3    H253181   0.348   0.152   1.663
10564TIP3   OH253182   0.444   0.104   1.782
10564TIP3    H153183   0.538   0.076   1.773
10564TIP3    H253184   0.424   0.020   1.830
10565TIP3   OH253185   0.329   1.765   0.054
10565TIP3    H153186   0.296   1.794   0.140
10565TIP3    H253187   0.402   1.709   0.075
10566TIP3   OH253188   1.298   7.384   1.805
10566TIP3    H153189   1.306   7.325   1.883
10566TIP3    H253190   1.387   7.364   1.771
10567TIP3   OH253191   1.623   1.623   1.674
10567TIP3    H153192   1.542   1.609   1.621
10567TIP3    H253193   1.612   1.718   1.696
10568TIP3   OH253194   3.066   1.012   0.674
10568TIP3    H153195   3.068   1.109   0.667
10568TIP3    H253196   2.995   0.988   0.612
10569TIP3   OH253197   2.953   0.938   1.022
10569TIP3    H153198   2.951   0.873   1.093
10569TIP3    H253199   2.920   0.889   0.945
10570TIP3   OH253200   2.189   0.904   1.177
10570TIP3    H153201   2.197   0.837   1.249
10570TIP3    H253202   2.263   0.962   1.199
10571TIP3   OH253203   3.323   1.232   0.849
10571TIP3    H153204   3.280   1.161   0.898
10571TIP3    H253205   3.324   1.304   0.916
10572TIP3   OH253206   2.282   1.349   1.030
10572TIP3    H153207   2.249   1.263   0.995
10572TIP3    H253208   2.377   1.330   1.034
10573TIP3   OH253209   1.946   0.707   0.575
10573TIP3    H153210   1.901   0.794   0.570
10573TIP3    H253211   1.889   0.652   0.520
10574TIP3   OH253212   2.016   0.928   0.788
10574TIP3    H153213   2.041   0.847   0.836
10574TIP3    H253214   2.088   0.937   0.724
10575TIP3   OH253215   3.035   1.747   0.873
10575TIP3    H153216   3.099   1.677   0.845
10575TIP3    H253217   3.014   1.717   0.961
10576TIP3   OH253218   2.791   1.179   1.066
10576TIP3    H153219   2.825   1.114   1.002
10576TIP3    H253220   2.870   1.193   1.121
10577TIP3   OH253221   3.655   0.341   1.143
10577TIP3    H153222   3.667   0.404   1.218
10577TIP3    H253223   3.706   0.386   1.075
10578TIP3   OH253224   3.108   0.624   1.099
10578TIP3    H153225   3.123   0.527   1.098
10578TIP3    H253226   3.097   0.639   1.003
10579TIP3   OH253227   2.420   0.435   0.822
10579TIP3    H153228   2.429   0.519   0.774
10579TIP3    H253229   2.378   0.377   0.756
10580TIP3   OH253230   3.194   0.442   0.658
10580TIP3    H153231   3.259   0.411   0.725
10580TIP3    H253232   3.249   0.498   0.601
10581TIP3   OH253233   2.082   0.674   0.896
10581TIP3    H153234   2.149   0.618   0.940
10581TIP3    H253235   2.090   0.643   0.804
10582TIP3   OH253236   2.598   0.829   0.824
10582TIP3    H153237   2.664   0.772   0.867
10582TIP3    H253238   2.544   0.763   0.777
10583TIP3   OH253239   3.696   0.485   1.369
10583TIP3    H153240   3.632   0.558   1.360
10583TIP3    H253241   3.700   0.473   1.464
10584TIP3   OH253242   2.309   0.326   1.227
10584TIP3    H153243   2.280   0.379   1.151
10584TIP3    H253244   2.239   0.346   1.293
10585TIP3   OH253245   3.040   1.272   0.581
10585TIP3    H153246   3.011   1.243   0.493
10585TIP3    H253247   3.008   1.364   0.586
10586TIP3   OH253248   2.562   1.088   1.252
10586TIP3    H153249   2.490   1.152   1.270
10586TIP3    H253250   2.632   1.147   1.223
10587TIP3   OH253251   3.373   0.375   0.857
10587TIP3    H153252   3.351   0.299   0.912
10587TIP3    H253253   3.440   0.419   0.912
10588TIP3   OH253254   2.264   0.511   1.026
10588TIP3    H153255   2.328   0.577   1.061
10588TIP3    H253256   2.318   0.466   0.956
10589TIP3   OH253257   2.405   1.287   1.333
10589TIP3    H153258   2.401   1.378   1.298
10589TIP3    H253259   2.317   1.280   1.377
10590TIP3   OH253260   2.013   1.250   0.412
10590TIP3    H153261   1.989   1.281   0.322
10590TIP3    H253262   2.020   1.335   0.461
10591TIP3   OH253263   3.376   1.416   1.086
10591TIP3    H153264   3.279   1.426   1.099
10591TIP3    H253265   3.402   1.508   1.068
10592TIP3   OH253266   3.408   0.245   1.230
10592TIP3    H153267   3.334   0.306   1.218
10592TIP3    H253268   3.477   0.285   1.173
10593TIP3   OH253269   2.732   0.071   0.972
10593TIP3    H153270   2.713  -0.023   0.967
10593TIP3    H253271   2.640   0.096   0.994
10594TIP3   OH253272   3.201   1.594   0.747
10594TIP3    H153273   3.244   1.523   0.696
10594TIP3    H253274   3.240   1.674   0.706
10595TIP3   OH253275   3.321   1.387   0.597
10595TIP3    H153276   3.292   1.317   0.536
10595TIP3    H253277   3.325   1.338   0.682
10596TIP3   OH253278   3.485   1.245   1.447
10596TIP3    H153279   3.499   1.181   1.373
10596TIP3    H253280   3.504   1.331   1.405
10597TIP3   OH253281   2.933   0.936   0.422
10597TIP3    H153282   2.863   0.993   0.385
10597TIP3    H253283   3.003   0.944   0.355
10598TIP3   OH253284   2.935   0.784   0.132
10598TIP3    H153285   3.011   0.789   0.191
10598TIP3    H253286   2.970   0.724   0.066
10599TIP3   OH253287   3.672   0.876   1.252
10599TIP3    H153288   3.606   0.948   1.258
10599TIP3    H253289   3.720   0.899   1.171
10600TIP3   OH253290   3.276   0.958   0.517
10600TIP3    H153291   3.202   0.981   0.577
10600TIP3    H253292   3.323   0.888   0.567
10601TIP3   OH253293   3.270   0.773   1.427
10601TIP3    H153294   3.271   0.854   1.481
10601TIP3    H253295   3.206   0.803   1.358
10602TIP3   OH253296   2.439   1.024   0.707
10602TIP3    H153297   2.407   0.984   0.623
10602TIP3    H253298   2.500   0.953   0.741
10603TIP3   OH253299   2.572   1.363   0.975
10603TIP3    H153300   2.569   1.308   0.896
10603TIP3    H253301   2.649   1.326   1.022
10604TIP3   OH253302   2.473   0.897   1.072
10604TIP3    H153303   2.530   0.909   0.993
10604TIP3    H253304   2.510   0.964   1.134
10605TIP3   OH253305   3.111   1.453   1.143
10605TIP3    H153306   3.084   1.517   1.210
10605TIP3    H253307   3.087   1.368   1.186
10606TIP3   OH253308   2.567   1.339   1.543
10606TIP3    H153309   2.528   1.416   1.590
10606TIP3    H253310   2.499   1.321   1.473
10607TIP3   OH253311   3.164   0.874   0.284
10607TIP3    H153312   3.220   0.893   0.363
10607TIP3    H253313   3.206   0.927   0.214
10608TIP3   OH253314   2.260   0.956   1.460
10608TIP3    H153315   2.264   1.023   1.532
10608TIP3    H253316   2.167   0.967   1.435
10609TIP3   OH253317   2.935   1.548   0.630
10609TIP3    H153318   2.981   1.579   0.709
10609TIP3    H253319   2.880   1.623   0.605
10610TIP3   OH253320   2.391   1.545   1.618
10610TIP3    H153321   2.387   1.533   1.522
10610TIP3    H253322   2.297   1.532   1.644
10611TIP3   OH253323   3.537   0.059   0.268
10611TIP3    H153324   3.443   0.064   0.296
10611TIP3    H253325   3.557   0.141   0.224
10612TIP3   OH253326   2.337   0.926   0.468
10612TIP3    H153327   2.308   1.004   0.416
10612TIP3    H253328   2.271   0.860   0.447
10613TIP3   OH253329   3.646   1.484   0.109
10613TIP3    H153330   3.660   1.580   0.121
10613TIP3    H253331   3.739   1.456   0.101
10614TIP3   OH253332   1.946   1.168   1.355
10614TIP3    H153333   1.899   1.160   1.270
10614TIP3    H253334   1.951   1.073   1.379
10615TIP3   OH253335   1.921   1.441   1.036
10615TIP3    H153336   2.017   1.429   1.034
10615TIP3    H253337   1.913   1.522   1.088
10616TIP3   OH253338   3.745   1.511   1.604
10616TIP3    H153339   3.734   1.415   1.602
10616TIP3    H253340   3.658   1.536   1.644
10617TIP3   OH253341   2.841   1.466   1.491
10617TIP3    H153342   2.848   1.550   1.541
10617TIP3    H253343   2.753   1.431   1.516
10618TIP3   OH253344   2.882   1.840   0.471
10618TIP3    H153345   2.875   1.833   0.374
10618TIP3    H253346   2.887   1.937   0.486
10619TIP3   OH253347   2.248   1.727   0.652
10619TIP3    H153348   2.262   1.686   0.740
10619TIP3    H253349   2.163   1.687   0.628
10620TIP3   OH253350   3.187   1.760   0.169
10620TIP3    H153351   3.233   1.685   0.125
10620TIP3    H253352   3.194   1.734   0.263
10621TIP3   OH253353   3.159   1.754   0.447
10621TIP3    H153354   3.064   1.762   0.466
10621TIP3    H253355   3.185   1.681   0.505
10622TIP3   OH253356   3.459   0.659   1.653
10622TIP3    H153357   3.414   0.705   1.580
10622TIP3    H253358   3.460   0.568   1.621
10623TIP3   OH253359   2.173   1.299   1.452
10623TIP3    H153360   2.195   1.262   1.540
10623TIP3    H253361   2.086   1.259   1.430
10624TIP3   OH253362   2.435   0.158   1.054
10624TIP3    H153363   2.348   0.141   1.012
10624TIP3    H253364   2.423   0.241   1.099
10625TIP3   OH253365   2.903   0.114   1.386
10625TIP3    H153366   2.944   0.075   1.464
10625TIP3    H253367   2.807   0.102   1.401
10626TIP3   OH253368   3.234   0.494   1.474
10626TIP3    H153369   3.179   0.478   1.553
10626TIP3    H253370   3.218   0.587   1.450
10627TIP3   OH253371   3.319   0.988   0.064
10627TIP3    H153372   3.318   0.964  -0.031
10627TIP3    H253373   3.408   1.026   0.074
10628TIP3   OH253374   2.869   0.369   0.117
10628TIP3    H153375   2.841   0.367   0.210
10628TIP3    H253376   2.844   0.280   0.089
10629TIP3   OH253377   2.450   0.642   1.169
10629TIP3    H153378   2.378   0.641   1.235
10629TIP3    H253379   2.447   0.735   1.136
10630TIP3   OH253380   2.446   0.658   0.657
10630TIP3    H153381   2.353   0.630   0.645
10630TIP3    H253382   2.486   0.626   0.574
10631TIP3   OH253383   2.999   0.705   0.533
10631TIP3    H153384   2.958   0.788   0.502
10631TIP3    H253385   3.070   0.691   0.467
10632TIP3   OH253386   2.906   0.726   1.681
10632TIP3    H153387   2.852   0.650   1.712
10632TIP3    H253388   2.990   0.712   1.728
10633TIP3   OH253389   3.101   0.653   0.819
10633TIP3    H153390   3.076   0.710   0.745
10633TIP3    H253391   3.114   0.569   0.772
10634TIP3   OH253392   2.215   0.671   1.343
10634TIP3    H153393   2.219   0.711   1.431
10634TIP3    H253394   2.170   0.587   1.360
10635TIP3   OH253395   2.569   0.436   0.059
10635TIP3    H153396   2.516   0.369   0.106
10635TIP3    H253397   2.510   0.465  -0.011
10636TIP3   OH253398   1.880   0.384   0.736
10636TIP3    H153399   1.947   0.379   0.807
10636TIP3    H253400   1.924   0.342   0.660
10637TIP3   OH253401   2.009   0.457   0.280
10637TIP3    H153402   2.056   0.516   0.217
10637TIP3    H253403   1.936   0.515   0.308
10638TIP3   OH253404   3.023   0.814   1.278
10638TIP3    H153405   3.059   0.746   1.218
10638TIP3    H253406   2.978   0.760   1.345
10639TIP3   OH253407   2.703   0.408   0.759
10639TIP3    H153408   2.609   0.409   0.790
10639TIP3    H253409   2.752   0.398   0.842
10640TIP3   OH253410   2.185   0.565   0.646
10640TIP3    H153411   2.096   0.580   0.608
10640TIP3    H253412   2.214   0.481   0.607
10641TIP3   OH253413   2.549   0.570   0.409
10641TIP3    H153414   2.644   0.583   0.427
10641TIP3    H253415   2.526   0.637   0.342
10642TIP3   OH253416   3.144   0.332   1.084
10642TIP3    H153417   3.074   0.341   1.153
10642TIP3    H253418   3.093   0.311   1.004
10643TIP3   OH253419   2.418   0.688   0.168
10643TIP3    H153420   2.362   0.652   0.097
10643TIP3    H253421   2.500   0.708   0.121
10644TIP3   OH253422   3.465   1.898   1.716
10644TIP3    H153423   3.491   1.938   1.631
10644TIP3    H253424   3.536   1.931   1.773
10645TIP3   OH253425   2.232   1.145   1.673
10645TIP3    H153426   2.304   1.170   1.733
10645TIP3    H253427   2.153   1.158   1.731
10646TIP3   OH253428   2.832   0.685   0.949
10646TIP3    H153429   2.890   0.630   0.895
10646TIP3    H253430   2.817   0.632   1.028
10647TIP3   OH253431   2.332   0.303   0.592
10647TIP3    H153432   2.300   0.211   0.591
10647TIP3    H253433   2.411   0.296   0.537
10648TIP3   OH253434   2.695   0.520   1.190
10648TIP3    H153435   2.612   0.570   1.200
10648TIP3    H253436   2.750   0.553   1.264
10649TIP3   OH253437   2.754   1.142   0.361
10649TIP3    H153438   2.675   1.094   0.328
10649TIP3    H253439   2.734   1.151   0.456
10650TIP3   OH253440   3.470   1.060   1.240
10650TIP3    H153441   3.529   1.108   1.179
10650TIP3    H253442   3.385   1.068   1.193
10651TIP3   OH253443   3.140   0.427   0.178
10651TIP3    H153444   3.045   0.438   0.161
10651TIP3    H253445   3.170   0.512   0.213
10652TIP3   OH253446   2.903   1.166   1.484
10652TIP3    H153447   2.869   1.125   1.564
10652TIP3    H253448   2.880   1.259   1.493
10653TIP3   OH253449   3.211   0.615   0.345
10653TIP3    H153450   3.301   0.600   0.378
10653TIP3    H253451   3.219   0.695   0.291
10654TIP3   OH253452   2.264   1.079   0.939
10654TIP3    H153453   2.335   1.073   0.872
10654TIP3    H253454   2.271   0.993   0.985
10655TIP3   OH253455   2.965   1.289   0.264
10655TIP3    H153456   2.929   1.373   0.300
10655TIP3    H253457   2.891   1.227   0.283
10656TIP3   OH253458   1.964   0.922   1.467
10656TIP3    H153459   1.983   0.877   1.551
10656TIP3    H253460   1.902   0.859   1.424
10657TIP3   OH253461   2.665   0.877   1.686
10657TIP3    H153462   2.635   0.850   1.598
10657TIP3    H253463   2.758   0.847   1.685
10658TIP3   OH253464   3.132   1.410   1.478
10658TIP3    H153465   3.039   1.429   1.455
10658TIP3    H253466   3.130   1.439   1.571
10659TIP3   OH253467   3.700   0.631   0.321
10659TIP3    H153468   3.644   0.597   0.249
10659TIP3    H253469   3.710   0.724   0.290
10660TIP3   OH253470   3.699   1.215   1.600
10660TIP3    H153471   3.610   1.237   1.562
10660TIP3    H253472   3.755   1.211   1.520
10661TIP3   OH253473   3.529   1.512   0.357
10661TIP3    H153474   3.493   1.429   0.391
10661TIP3    H253475   3.559   1.492   0.267
10662TIP3   OH253476   3.249   0.994   1.067
10662TIP3    H153477   3.155   0.971   1.059
10662TIP3    H253478   3.293   0.916   1.027
10663TIP3   OH253479   2.502   1.426   0.678
10663TIP3    H153480   2.552   1.506   0.657
10663TIP3    H253481   2.414   1.450   0.646
10664TIP3   OH253482   2.076   0.912   0.132
10664TIP3    H153483   2.138   0.974   0.175
10664TIP3    H253484   1.989   0.941   0.164
10665TIP3   OH253485   2.645   1.192   0.632
10665TIP3    H153486   2.615   1.285   0.639
10665TIP3    H253487   2.570   1.145   0.675
10666TIP3   OH253488   2.690   1.610   1.269
10666TIP3    H153489   2.733   1.692   1.242
10666TIP3    H253490   2.750   1.578   1.339
10667TIP3   OH253491   2.512   1.693   0.584
10667TIP3    H153492   2.415   1.706   0.596
10667TIP3    H253493   2.547   1.777   0.620
10668TIP3   OH253494   3.044   1.213   1.234
10668TIP3    H153495   3.008   1.193   1.322
10668TIP3    H253496   3.106   1.141   1.217
10669TIP3   OH253497   3.271   1.314   0.145
10669TIP3    H153498   3.302   1.269   0.226
10669TIP3    H253499   3.175   1.300   0.153
10670TIP3   OH253500   3.320   1.670   1.483
10670TIP3    H153501   3.254   1.619   1.433
10670TIP3    H253502   3.342   1.739   1.417
10671TIP3   OH253503   3.720   1.757   0.169
10671TIP3    H153504   3.792   1.819   0.146
10671TIP3    H253505   3.648   1.818   0.195
10672TIP3   OH253506   2.129   0.394   1.423
10672TIP3    H153507   2.038   0.429   1.418
10672TIP3    H253508   2.116   0.307   1.465
10673TIP3   OH253509   3.354   1.180   0.366
10673TIP3    H153510   3.329   1.102   0.420
10673TIP3    H253511   3.448   1.188   0.387
10674TIP3   OH253512   2.091   1.575   1.264
10674TIP3    H153513   2.118   1.481   1.265
10674TIP3    H253514   2.117   1.602   1.353
10675TIP3   OH253515   2.568   1.381   0.234
10675TIP3    H153516   2.589   1.326   0.311
10675TIP3    H253517   2.573   1.472   0.267
10676TIP3   OH253518   2.217   1.103   0.286
10676TIP3    H153519   2.148   1.143   0.344
10676TIP3    H253520   2.270   1.180   0.260
10677TIP3   OH253521   3.002   0.370   1.316
10677TIP3    H153522   3.074   0.378   1.380
10677TIP3    H253523   2.965   0.281   1.333
10678TIP3   OH253524   3.080   0.331   0.425
10678TIP3    H153525   3.101   0.380   0.343
10678TIP3    H253526   3.134   0.377   0.491
10679TIP3   OH253527   2.845   1.547   0.306
10679TIP3    H153528   2.763   1.598   0.315
10679TIP3    H253529   2.899   1.599   0.245
10680TIP3   OH253530   2.799   0.503   0.507
10680TIP3    H153531   2.878   0.560   0.509
10680TIP3    H253532   2.774   0.493   0.600
10681TIP3   OH253533   2.854   0.606   1.425
10681TIP3    H153534   2.863   0.663   1.504
10681TIP3    H253535   2.920   0.537   1.436
10682TIP3   OH253536   2.887   0.211   0.601
10682TIP3    H153537   2.853   0.278   0.662
10682TIP3    H253538   2.952   0.265   0.550
10683TIP3   OH253539   2.580   1.650   0.309
10683TIP3    H153540   2.598   1.733   0.259
10683TIP3    H253541   2.558   1.684   0.398
10684TIP3   OH253542   2.452   0.319   0.268
10684TIP3    H153543   2.445   0.410   0.304
10684TIP3    H253544   2.544   0.300   0.295
10685TIP3   OH253545   3.473   0.393   1.511
10685TIP3    H153546   3.381   0.424   1.498
10685TIP3    H253547   3.504   0.393   1.418
10686TIP3   OH253548   3.334   0.773   0.914
10686TIP3    H153549   3.252   0.729   0.884
10686TIP3    H253550   3.381   0.703   0.965
10687TIP3   OH253551   2.276   1.365   0.172
10687TIP3    H153552   2.340   1.430   0.203
10687TIP3    H253553   2.327   1.320   0.102
10688TIP3   OH253554   2.114   0.633   0.091
10688TIP3    H153555   2.108   0.730   0.103
10688TIP3    H253556   2.026   0.611   0.058
10689TIP3   OH253557   3.441   1.697   1.080
10689TIP3    H153558   3.430   1.766   1.011
10689TIP3    H253559   3.537   1.704   1.098
10690TIP3   OH253560   2.172   0.125   0.961
10690TIP3    H153561   2.170   0.115   0.863
10690TIP3    H253562   2.154   0.032   0.984
10691TIP3   OH253563   2.086   1.503   0.573
10691TIP3    H153564   2.001   1.549   0.571
10691TIP3    H253565   2.135   1.551   0.506
10692TIP3   OH253566   2.008   1.767   1.703
10692TIP3    H153567   2.067   1.746   1.778
10692TIP3    H253568   1.965   1.682   1.684
10693TIP3   OH253569   2.473   1.659   1.865
10693TIP3    H153570   2.550   1.610   1.897
10693TIP3    H253571   2.471   1.633   1.770
10694TIP3   OH253572   2.927   1.624   0.057
10694TIP3    H153573   2.844   1.573   0.057
10694TIP3    H253574   2.971   1.569  -0.008
10695TIP3   OH253575   3.127   1.497   1.738
10695TIP3    H153576   3.094   1.409   1.764
10695TIP3    H253577   3.202   1.509   1.798
10696TIP3   OH253578   3.344   1.590   0.024
10696TIP3    H153579   3.371   1.508   0.072
10696TIP3    H253580   3.421   1.610  -0.031
10697TIP3   OH253581   2.000   1.146   1.801
10697TIP3    H153582   2.016   1.055   1.771
10697TIP3    H253583   1.924   1.172   1.746
10698TIP3   OH253584   2.442   1.186   0.016
10698TIP3    H153585   2.447   1.102   0.064
10698TIP3    H253586   2.500   1.164  -0.060
10699TIP3   OH253587   2.669   1.144   1.741
10699TIP3    H153588   2.635   1.173   1.654
10699TIP3    H253589   2.679   1.046   1.731
10700TIP3   OH253590   3.240   1.131   1.480
10700TIP3    H153591   3.317   1.191   1.471
10700TIP3    H253592   3.168   1.195   1.484
10701TIP3   OH253593   2.089   0.868   1.740
10701TIP3    H153594   2.129   0.781   1.730
10701TIP3    H253595   2.064   0.868   1.834
10702TIP3   OH253596   2.553   0.983   0.244
10702TIP3    H153597   2.505   0.929   0.309
10702TIP3    H253598   2.583   0.914   0.180
10703TIP3   OH253599   2.480   0.763   1.477
10703TIP3    H153600   2.419   0.835   1.503
10703TIP3    H253601   2.517   0.799   1.395
10704TIP3   OH253602   2.661   0.800   0.068
10704TIP3    H153603   2.646   0.788  -0.027
10704TIP3    H253604   2.759   0.811   0.074
10705TIP3   OH253605   2.986   1.018   1.808
10705TIP3    H153606   3.082   1.020   1.800
10705TIP3    H253607   2.969   0.942   1.866
10706TIP3   OH253608   3.577   1.051  16.020
10706TIP3    H153609   3.570   0.999  15.937
10706TIP3    H253610   3.602   1.139  15.990
10707TIP3   OH253611   2.519   0.501   1.584
10707TIP3    H153612   2.531   0.429   1.520
10707TIP3    H253613   2.515   0.581   1.528
10708TIP3   OH253614   2.559   0.339   1.336
10708TIP3    H153615   2.611   0.386   1.267
10708TIP3    H253616   2.470   0.328   1.294
10709TIP3   OH253617   2.714   0.885   1.361
10709TIP3    H153618   2.790   0.869   1.303
10709TIP3    H253619   2.679   0.970   1.329
10710TIP3   OH253620   3.154   0.663   1.859
10710TIP3    H153621   3.177   0.570   1.849
10710TIP3    H253622   3.241   0.707   1.861
10711TIP3   OH253623   3.287   0.941   1.672
10711TIP3    H153624   3.262   1.014   1.612
10711TIP3    H253625   3.383   0.938   1.654
10712TIP3   OH253626   2.365   0.625   1.775
10712TIP3    H153627   2.288   0.567   1.756
10712TIP3    H253628   2.432   0.589   1.713
10713TIP3   OH253629   2.630   0.095   1.394
10713TIP3    H153630   2.623   0.190   1.368
10713TIP3    H253631   2.566   0.054   1.333
10714TIP3   OH253632   2.765   0.515   1.737
10714TIP3    H153633   2.736   0.490   1.826
10714TIP3    H253634   2.686   0.495   1.684
10715TIP3   OH253635   3.037   0.433   1.646
10715TIP3    H153636   2.940   0.433   1.658
10715TIP3    H253637   3.065   0.366   1.712
10716TIP3   OH253638   3.199   0.296   1.840
10716TIP3    H153639   3.189   0.198   1.839
10716TIP3    H253640   3.168   0.320   1.929
10717TIP3   OH253641   2.175   0.416   1.748
10717TIP3    H153642   2.201   0.343   1.689
10717TIP3    H253643   2.168   0.371   1.834
10718TIP3   OH253644   2.659   7.358   1.645
10718TIP3    H153645   2.728   7.292   1.649
10718TIP3    H253646   2.651   7.384   1.551
10719TIP3   OH253647   2.697   0.186   1.852
10719TIP3    H153648   2.682   0.132   1.772
10719TIP3    H253649   2.636   0.260   1.845
10720TIP3   OH253650   2.644   1.872   0.170
10720TIP3    H153651   2.741   1.885   0.181
10720TIP3    H253652   2.625   1.939   0.104
10721TIP3   OH253653   2.002   1.334   0.119
10721TIP3    H153654   2.097   1.344   0.143
10721TIP3    H253655   2.006   1.271   0.047
10722TIP3   OH253656   1.876   1.871   0.620
10722TIP3    H153657   1.805   1.823   0.571
10722TIP3    H253658   1.905   1.805   0.684
10723TIP3   OH253659   1.959   1.683   0.805
10723TIP3    H153660   1.924   1.595   0.824
10723TIP3    H253661   1.981   1.716   0.893
10724TIP3   OH253662   3.712   1.763   1.100
10724TIP3    H153663   3.714   1.780   1.196
10724TIP3    H253664   3.783   1.820   1.069
10725TIP3   OH253665   3.670   1.722   1.394
10725TIP3    H153666   3.622   1.645   1.357
10725TIP3    H253667   3.721   1.678   1.464
10726TIP3   OH253668   3.514   1.296   1.860
10726TIP3    H153669   3.425   1.290   1.898
10726TIP3    H253670   3.552   1.375   1.903
10727TIP3   OH253671   3.646   1.126   0.405
10727TIP3    H153672   3.732   1.167   0.424
10727TIP3    H253673   3.645   1.054   0.472
10728TIP3   OH253674   3.682   0.934   0.592
10728TIP3    H153675   3.608   0.883   0.631
10728TIP3    H253676   3.742   0.949   0.668
10729TIP3   OH253677   3.658   1.205   1.090
10729TIP3    H153678   3.741   1.168   1.055
10729TIP3    H253679   3.672   1.301   1.074
10730TIP3   OH253680   3.513   1.495   1.318
10730TIP3    H153681   3.444   1.529   1.378
10730TIP3    H253682   3.458   1.454   1.248
10731TIP3   OH253683   3.713   0.918   0.232
10731TIP3    H153684   3.655   0.954   0.162
10731TIP3    H253685   3.705   0.989   0.299
10732TIP3   OH253686   3.511   0.643   0.094
10732TIP3    H153687   3.552   0.704   0.030
10732TIP3    H253688   3.531   0.561   0.046
10733TIP3   OH253689   3.464   0.782   0.649
10733TIP3    H153690   3.449   0.687   0.646
10733TIP3    H253691   3.429   0.806   0.736
10734TIP3   OH253692   1.965   0.990   1.054
10734TIP3    H153693   1.984   0.982   0.958
10734TIP3    H253694   2.054   0.975   1.091
10735TIP3   OH253695   3.549   0.979   1.616
10735TIP3    H153696   3.610   0.904   1.632
10735TIP3    H253697   3.608   1.057   1.618
10736TIP3   OH253698   3.700   0.769   1.683
10736TIP3    H153699   3.612   0.728   1.666
10736TIP3    H253700   3.758   0.691   1.675
10737TIP3   OH253701   3.431   0.542   0.495
10737TIP3    H153702   3.461   0.449   0.506
10737TIP3    H253703   3.510   0.582   0.457
10738TIP3   OH253704   3.494   0.597   1.038
10738TIP3    H153705   3.590   0.619   1.037
10738TIP3    H253706   3.475   0.608   1.133
10739TIP3   OH253707   3.501   0.669   1.317
10739TIP3    H153708   3.413   0.697   1.351
10739TIP3    H253709   3.544   0.754   1.295
10740TIP3   OH253710   1.925   0.522   1.668
10740TIP3    H153711   2.019   0.500   1.689
10740TIP3    H253712   1.881   0.440   1.699
10741TIP3   OH253713   3.732   0.070   1.853
10741TIP3    H153714   3.761   0.005   1.789
10741TIP3    H253715   3.737   0.154   1.804
10742TIP3   OH253716   3.497   0.268   0.499
10742TIP3    H153717   3.516   0.222   0.583
10742TIP3    H253718   3.437   0.204   0.454
10743TIP3   OH253719   2.044   0.351   0.953
10743TIP3    H153720   2.092   0.270   0.982
10743TIP3    H253721   2.099   0.419   0.995
10744TIP3   OH253722   1.875   0.649   1.060
10744TIP3    H153723   1.931   0.626   0.982
10744TIP3    H253724   1.919   0.731   1.086
10745TIP3   OH253725   3.682   0.280   1.686
10745TIP3    H153726   3.588   0.307   1.682
10745TIP3    H253727   3.686   0.225   1.607
10746TIP3   OH253728   3.681   0.276   0.152
10746TIP3    H153729   3.723   0.201   0.106
10746TIP3    H253730   3.753   0.340   0.156
10747TIP3   OH253731   1.912   0.273   0.467
10747TIP3    H153732   1.818   0.295   0.452
10747TIP3    H253733   1.953   0.324   0.395
10748TIP3   OH253734   3.385   1.771   0.662
10748TIP3    H153735   3.453   1.739   0.599
10748TIP3    H253736   3.437   1.821   0.726
10749TIP3   OH253737   1.907   0.145   1.297
10749TIP3    H153738   1.840   0.124   1.364
10749TIP3    H253739   1.861   0.210   1.240
10750TIP3   OH253740   2.129   1.462   1.713
10750TIP3    H153741   2.045   1.483   1.668
10750TIP3    H253742   2.102   1.455   1.805
10751TIP3   OH253743   2.420   1.561   1.340
10751TIP3    H153744   2.384   1.646   1.312
10751TIP3    H253745   2.512   1.571   1.309
10752TIP3   OH253746   2.852   1.704   1.632
10752TIP3    H153747   2.868   1.669   1.723
10752TIP3    H253748   2.941   1.734   1.605
10753TIP3   OH253749   3.082   1.831   1.561
10753TIP3    H153750   3.154   1.771   1.537
10753TIP3    H253751   3.119   1.873   1.641
10754TIP3   OH253752   3.583   0.094   1.469
10754TIP3    H153753   3.499   0.125   1.432
10754TIP3    H253754   3.601   0.013   1.418
10755TIP3   OH253755   2.162   1.886   1.341
10755TIP3    H153756   2.089   1.934   1.300
10755TIP3    H253757   2.129   1.865   1.430
10756TIP3   OH253758   2.410   1.844   1.248
10756TIP3    H153759   2.320   1.857   1.287
10756TIP3    H253760   2.403   1.903   1.170
10757TIP3   OH253761   2.880   1.835   1.164
10757TIP3    H153762   2.833   1.890   1.099
10757TIP3    H253763   2.894   1.898   1.238
10758TIP3   OH253764   3.110   1.718   1.264
10758TIP3    H153765   3.023   1.743   1.231
10758TIP3    H253766   3.156   1.804   1.255
10759TIP3   OH253767   3.369   1.875   1.290
10759TIP3    H153768   3.359   1.971   1.267
10759TIP3    H253769   3.389   1.838   1.202
10760TIP3   OH253770   2.106   1.751   1.034
10760TIP3    H153771   2.100   1.706   1.121
10760TIP3    H253772   2.188   1.715   0.995
10761TIP3   OH253773   2.315   1.622   0.900
10761TIP3    H153774   2.298   1.529   0.921
10761TIP3    H253775   2.401   1.636   0.946
10762TIP3   OH253776   2.574   1.670   0.987
10762TIP3    H153777   2.592   1.578   0.960
10762TIP3    H253778   2.579   1.664   1.083
10763TIP3   OH253779   2.920   0.241   0.899
10763TIP3    H153780   2.855   0.172   0.928
10763TIP3    H253781   2.979   0.187   0.845
10764TIP3   OH253782   3.434   0.044   0.911
10764TIP3    H153783   3.496   0.098   0.857
10764TIP3    H253784   3.347   0.076   0.886
10765TIP3   OH253785   3.605   0.165   0.736
10765TIP3    H153786   3.672   0.107   0.695
10765TIP3    H253787   3.652   0.250   0.746
10766TIP3   OH253788   2.161   0.102   0.675
10766TIP3    H153789   2.076   0.075   0.636
10766TIP3    H253790   2.202   0.015   0.688
10767TIP3   OH253791   2.011   0.118   0.206
10767TIP3    H153792   2.098   0.161   0.196
10767TIP3    H253793   1.980   0.140   0.296
10768TIP3   OH253794   2.634   0.129   0.696
10768TIP3    H153795   2.728   0.131   0.671
10768TIP3    H253796   2.617   0.065   0.766
10769TIP3   OH253797   3.159   0.114   0.832
10769TIP3    H153798   3.173   0.111   0.737
10769TIP3    H253799   3.146   0.016   0.844
10770TIP3   OH253800   3.303   0.097   0.402
10770TIP3    H153801   3.231   0.157   0.376
10770TIP3    H253802   3.261   0.010   0.409
10771TIP3   OH253803   2.029   1.669   0.356
10771TIP3    H153804   1.960   1.669   0.287
10771TIP3    H253805   2.028   1.764   0.378
10772TIP3   OH253806   2.221   0.265   0.109
10772TIP3    H153807   2.272   0.208   0.052
10772TIP3    H253808   2.286   0.300   0.172
10773TIP3   OH253809   2.717   0.292   0.352
10773TIP3    H153810   2.749   0.236   0.425
10773TIP3    H253811   2.726   0.379   0.397
10774TIP3   OH253812   2.910   1.821   0.201
10774TIP3    H153813   3.006   1.828   0.178
10774TIP3    H253814   2.893   1.757   0.128
10775TIP3   OH253815   3.586   1.750   0.464
10775TIP3    H153816   3.565   1.673   0.406
10775TIP3    H253817   3.577   1.825   0.401
10776TIP3   OH253818   2.142   0.151   1.627
10776TIP3    H153819   2.110   0.074   1.674
10776TIP3    H253820   2.235   0.150   1.663
10777TIP3   OH253821   2.330   0.104   1.783
10777TIP3    H153822   2.424   0.076   1.774
10777TIP3    H253823   2.311   0.020   1.830
10778TIP3   OH253824   2.212   1.765   0.054
10778TIP3    H153825   2.182   1.793   0.142
10778TIP3    H253826   2.287   1.710   0.073
10779TIP3   OH253827   3.184   7.384   1.806
10779TIP3    H153828   3.192   7.323   1.883
10779TIP3    H253829   3.272   7.363   1.771
10780TIP3   OH253830   3.509   1.623   1.674
10780TIP3    H153831   3.428   1.609   1.621
10780TIP3    H253832   3.497   1.718   1.696
10781TIP3   OH253833   4.952   1.011   0.673
10781TIP3    H153834   4.953   1.109   0.668
10781TIP3    H253835   4.881   0.988   0.612
10782TIP3   OH253836   4.839   0.938   1.022
10782TIP3    H153837   4.837   0.873   1.093
10782TIP3    H253838   4.806   0.889   0.945
10783TIP3   OH253839   4.075   0.904   1.177
10783TIP3    H153840   4.083   0.837   1.249
10783TIP3    H253841   4.149   0.962   1.199
10784TIP3   OH253842   5.212   1.231   0.850
10784TIP3    H153843   5.165   1.161   0.898
10784TIP3    H253844   5.208   1.304   0.915
10785TIP3   OH253845   4.168   1.349   1.030
10785TIP3    H153846   4.135   1.263   0.995
10785TIP3    H253847   4.264   1.330   1.033
10786TIP3   OH253848   3.832   0.707   0.575
10786TIP3    H153849   3.787   0.794   0.570
10786TIP3    H253850   3.774   0.652   0.520
10787TIP3   OH253851   3.901   0.928   0.788
10787TIP3    H153852   3.927   0.847   0.836
10787TIP3    H253853   3.973   0.937   0.724
10788TIP3   OH253854   4.939   1.764   0.881
10788TIP3    H153855   4.979   1.681   0.844
10788TIP3    H253856   4.896   1.717   0.954
10789TIP3   OH253857   4.675   1.176   1.067
10789TIP3    H153858   4.711   1.115   1.002
10789TIP3    H253859   4.756   1.196   1.119
10790TIP3   OH253860   5.540   0.341   1.143
10790TIP3    H153861   5.553   0.404   1.218
10790TIP3    H253862   5.591   0.386   1.075
10791TIP3   OH253863   4.993   0.624   1.099
10791TIP3    H153864   5.008   0.527   1.098
10791TIP3    H253865   4.983   0.639   1.003
10792TIP3   OH253866   4.306   0.435   0.822
10792TIP3    H153867   4.315   0.519   0.774
10792TIP3    H253868   4.264   0.377   0.756
10793TIP3   OH253869   5.079   0.442   0.658
10793TIP3    H153870   5.145   0.411   0.725
10793TIP3    H253871   5.134   0.498   0.601
10794TIP3   OH253872   3.968   0.674   0.896
10794TIP3    H153873   4.035   0.618   0.940
10794TIP3    H253874   3.976   0.643   0.804
10795TIP3   OH253875   4.484   0.829   0.824
10795TIP3    H153876   4.549   0.772   0.867
10795TIP3    H253877   4.430   0.763   0.777
10796TIP3   OH253878   5.581   0.483   1.368
10796TIP3    H153879   5.519   0.559   1.361
10796TIP3    H253880   5.586   0.476   1.465
10797TIP3   OH253881   4.195   0.326   1.227
10797TIP3    H153882   4.166   0.379   1.151
10797TIP3    H253883   4.124   0.346   1.293
10798TIP3   OH253884   4.927   1.271   0.580
10798TIP3    H153885   4.896   1.244   0.493
10798TIP3    H253886   4.894   1.364   0.588
10799TIP3   OH253887   4.447   1.088   1.252
10799TIP3    H153888   4.375   1.152   1.270
10799TIP3    H253889   4.518   1.148   1.222
10800TIP3   OH253890   5.259   0.375   0.857
10800TIP3    H153891   5.236   0.299   0.912
10800TIP3    H253892   5.326   0.419   0.912
10801TIP3   OH253893   4.150   0.511   1.026
10801TIP3    H153894   4.214   0.577   1.061
10801TIP3    H253895   4.204   0.466   0.956
10802TIP3   OH253896   4.291   1.287   1.333
10802TIP3    H153897   4.287   1.378   1.298
10802TIP3    H253898   4.202   1.280   1.377
10803TIP3   OH253899   3.898   1.250   0.412
10803TIP3    H153900   3.875   1.281   0.322
10803TIP3    H253901   3.905   1.335   0.461
10804TIP3   OH253902   5.263   1.415   1.088
10804TIP3    H153903   5.165   1.425   1.099
10804TIP3    H253904   5.287   1.508   1.068
10805TIP3   OH253905   5.294   0.245   1.230
10805TIP3    H153906   5.220   0.306   1.218
10805TIP3    H253907   5.363   0.285   1.173
10806TIP3   OH253908   4.618   0.071   0.972
10806TIP3    H153909   4.599  -0.023   0.967
10806TIP3    H253910   4.526   0.096   0.994
10807TIP3   OH253911   5.090   1.595   0.748
10807TIP3    H153912   5.129   1.523   0.696
10807TIP3    H253913   5.125   1.675   0.706
10808TIP3   OH253914   5.209   1.386   0.596
10808TIP3    H153915   5.176   1.317   0.537
10808TIP3    H253916   5.209   1.339   0.682
10809TIP3   OH253917   5.371   1.245   1.447
10809TIP3    H153918   5.385   1.181   1.373
10809TIP3    H253919   5.389   1.331   1.406
10810TIP3   OH253920   4.819   0.936   0.422
10810TIP3    H153921   4.749   0.993   0.385
10810TIP3    H253922   4.889   0.944   0.355
10811TIP3   OH253923   4.821   0.784   0.132
10811TIP3    H153924   4.897   0.789   0.191
10811TIP3    H253925   4.855   0.723   0.066
10812TIP3   OH253926   5.558   0.877   1.252
10812TIP3    H153927   5.491   0.948   1.258
10812TIP3    H253928   5.606   0.900   1.170
10813TIP3   OH253929   5.162   0.958   0.517
10813TIP3    H153930   5.088   0.981   0.577
10813TIP3    H253931   5.209   0.888   0.567
10814TIP3   OH253932   5.156   0.773   1.427
10814TIP3    H153933   5.158   0.854   1.481
10814TIP3    H253934   5.092   0.803   1.358
10815TIP3   OH253935   4.325   1.023   0.707
10815TIP3    H153936   4.292   0.984   0.623
10815TIP3    H253937   4.385   0.953   0.741
10816TIP3   OH253938   4.453   1.359   0.978
10816TIP3    H153939   4.457   1.309   0.896
10816TIP3    H253940   4.536   1.328   1.020
10817TIP3   OH253941   4.359   0.897   1.072
10817TIP3    H153942   4.415   0.909   0.993
10817TIP3    H253943   4.395   0.964   1.134
10818TIP3   OH253944   5.002   1.453   1.147
10818TIP3    H153945   4.968   1.517   1.209
10818TIP3    H253946   4.971   1.367   1.185
10819TIP3   OH253947   4.452   1.339   1.543
10819TIP3    H153948   4.414   1.416   1.590
10819TIP3    H253949   4.385   1.321   1.473
10820TIP3   OH253950   5.050   0.874   0.284
10820TIP3    H153951   5.106   0.893   0.363
10820TIP3    H253952   5.091   0.927   0.214
10821TIP3   OH253953   4.146   0.956   1.460
10821TIP3    H153954   4.150   1.023   1.532
10821TIP3    H253955   4.053   0.967   1.435
10822TIP3   OH253956   4.837   1.563   0.586
10822TIP3    H153957   4.867   1.568   0.680
10822TIP3    H253958   4.761   1.620   0.600
10823TIP3   OH253959   4.276   1.545   1.618
10823TIP3    H153960   4.272   1.533   1.521
10823TIP3    H253961   4.183   1.532   1.643
10824TIP3   OH253962   5.423   0.057   0.266
10824TIP3    H153963   5.330   0.063   0.296
10824TIP3    H253964   5.442   0.142   0.225
10825TIP3   OH253965   4.223   0.926   0.468
10825TIP3    H153966   4.194   1.004   0.416
10825TIP3    H253967   4.156   0.860   0.447
10826TIP3   OH253968   5.532   1.484   0.109
10826TIP3    H153969   5.545   1.580   0.121
10826TIP3    H253970   5.625   1.456   0.101
10827TIP3   OH253971   3.832   1.168   1.355
10827TIP3    H153972   3.785   1.160   1.270
10827TIP3    H253973   3.836   1.073   1.379
10828TIP3   OH253974   3.807   1.441   1.036
10828TIP3    H153975   3.903   1.430   1.034
10828TIP3    H253976   3.798   1.522   1.088
10829TIP3   OH253977   5.631   1.511   1.604
10829TIP3    H153978   5.620   1.415   1.602
10829TIP3    H253979   5.544   1.536   1.644
10830TIP3   OH253980   4.726   1.466   1.491
10830TIP3    H153981   4.733   1.550   1.541
10830TIP3    H253982   4.639   1.431   1.516
10831TIP3   OH253983   4.767   1.841   0.470
10831TIP3    H153984   4.761   1.833   0.374
10831TIP3    H253985   4.772   1.937   0.486
10832TIP3   OH253986   4.134   1.727   0.652
10832TIP3    H153987   4.148   1.686   0.740
10832TIP3    H253988   4.049   1.687   0.628
10833TIP3   OH253989   5.072   1.760   0.169
10833TIP3    H153990   5.118   1.685   0.126
10833TIP3    H253991   5.079   1.734   0.263
10834TIP3   OH253992   5.046   1.755   0.446
10834TIP3    H153993   4.950   1.760   0.466
10834TIP3    H253994   5.069   1.681   0.505
10835TIP3   OH253995   5.333   0.657   1.657
10835TIP3    H153996   5.302   0.706   1.580
10835TIP3    H253997   5.347   0.569   1.621
10836TIP3   OH253998   4.059   1.299   1.452
10836TIP3    H153999   4.081   1.262   1.540
10836TIP3    H254000   3.972   1.259   1.430
10837TIP3   OH254001   4.321   0.158   1.054
10837TIP3    H154002   4.234   0.141   1.012
10837TIP3    H254003   4.309   0.241   1.099
10838TIP3   OH254004   4.789   0.114   1.386
10838TIP3    H154005   4.830   0.075   1.463
10838TIP3    H254006   4.693   0.102   1.401
10839TIP3   OH254007   5.120   0.494   1.473
10839TIP3    H154008   5.065   0.479   1.554
10839TIP3    H254009   5.103   0.587   1.449
10840TIP3   OH254010   5.205   0.988   0.064
10840TIP3    H154011   5.203   0.964  -0.031
10840TIP3    H254012   5.293   1.026   0.074
10841TIP3   OH254013   4.755   0.368   0.117
10841TIP3    H154014   4.726   0.366   0.210
10841TIP3    H254015   4.729   0.280   0.088
10842TIP3   OH254016   4.335   0.642   1.169
10842TIP3    H154017   4.264   0.641   1.235
10842TIP3    H254018   4.332   0.735   1.136
10843TIP3   OH254019   4.332   0.658   0.657
10843TIP3    H154020   4.239   0.630   0.645
10843TIP3    H254021   4.372   0.626   0.574
10844TIP3   OH254022   4.885   0.705   0.533
10844TIP3    H154023   4.843   0.788   0.502
10844TIP3    H254024   4.955   0.691   0.468
10845TIP3   OH254025   4.791   0.726   1.681
10845TIP3    H154026   4.737   0.650   1.712
10845TIP3    H254027   4.875   0.712   1.728
10846TIP3   OH254028   4.987   0.653   0.819
10846TIP3    H154029   4.961   0.710   0.745
10846TIP3    H254030   4.999   0.569   0.772
10847TIP3   OH254031   4.101   0.671   1.343
10847TIP3    H154032   4.104   0.711   1.431
10847TIP3    H254033   4.055   0.587   1.360
10848TIP3   OH254034   4.454   0.439   0.061
10848TIP3    H154035   4.403   0.368   0.105
10848TIP3    H254036   4.396   0.463  -0.012
10849TIP3   OH254037   3.766   0.384   0.736
10849TIP3    H154038   3.832   0.379   0.807
10849TIP3    H254039   3.810   0.342   0.660
10850TIP3   OH254040   3.895   0.457   0.280
10850TIP3    H154041   3.942   0.516   0.217
10850TIP3    H254042   3.822   0.515   0.308
10851TIP3   OH254043   4.909   0.814   1.278
10851TIP3    H154044   4.945   0.746   1.218
10851TIP3    H254045   4.863   0.760   1.345
10852TIP3   OH254046   4.588   0.408   0.759
10852TIP3    H154047   4.495   0.409   0.790
10852TIP3    H254048   4.637   0.398   0.842
10853TIP3   OH254049   4.070   0.565   0.646
10853TIP3    H154050   3.981   0.580   0.608
10853TIP3    H254051   4.099   0.481   0.607
10854TIP3   OH254052   4.435   0.570   0.409
10854TIP3    H154053   4.530   0.583   0.427
10854TIP3    H254054   4.411   0.637   0.342
10855TIP3   OH254055   5.030   0.332   1.084
10855TIP3    H154056   4.960   0.341   1.153
10855TIP3    H254057   4.979   0.311   1.004
10856TIP3   OH254058   4.304   0.688   0.168
10856TIP3    H154059   4.248   0.652   0.097
10856TIP3    H254060   4.386   0.708   0.121
10857TIP3   OH254061   5.351   1.898   1.716
10857TIP3    H154062   5.377   1.938   1.631
10857TIP3    H254063   5.422   1.931   1.773
10858TIP3   OH254064   4.117   1.145   1.673
10858TIP3    H154065   4.189   1.170   1.733
10858TIP3    H254066   4.039   1.158   1.731
10859TIP3   OH254067   4.718   0.685   0.949
10859TIP3    H154068   4.776   0.630   0.895
10859TIP3    H254069   4.703   0.632   1.028
10860TIP3   OH254070   4.218   0.303   0.592
10860TIP3    H154071   4.186   0.211   0.591
10860TIP3    H254072   4.297   0.296   0.537
10861TIP3   OH254073   4.581   0.520   1.190
10861TIP3    H154074   4.498   0.570   1.200
10861TIP3    H254075   4.636   0.553   1.264
10862TIP3   OH254076   4.640   1.143   0.362
10862TIP3    H154077   4.561   1.095   0.328
10862TIP3    H254078   4.620   1.153   0.457
10863TIP3   OH254079   5.356   1.060   1.241
10863TIP3    H154080   5.415   1.107   1.180
10863TIP3    H254081   5.271   1.068   1.192
10864TIP3   OH254082   5.026   0.427   0.178
10864TIP3    H154083   4.931   0.438   0.161
10864TIP3    H254084   5.056   0.512   0.213
10865TIP3   OH254085   4.788   1.166   1.484
10865TIP3    H154086   4.754   1.125   1.564
10865TIP3    H254087   4.765   1.259   1.493
10866TIP3   OH254088   5.096   0.614   0.345
10866TIP3    H154089   5.187   0.600   0.378
10866TIP3    H254090   5.104   0.695   0.292
10867TIP3   OH254091   4.150   1.079   0.939
10867TIP3    H154092   4.221   1.073   0.872
10867TIP3    H254093   4.157   0.993   0.985
10868TIP3   OH254094   4.850   1.289   0.264
10868TIP3    H154095   4.815   1.373   0.301
10868TIP3    H254096   4.776   1.227   0.283
10869TIP3   OH254097   3.849   0.922   1.467
10869TIP3    H154098   3.869   0.877   1.551
10869TIP3    H254099   3.788   0.859   1.424
10870TIP3   OH254100   4.551   0.877   1.686
10870TIP3    H154101   4.520   0.850   1.598
10870TIP3    H254102   4.644   0.847   1.685
10871TIP3   OH254103   5.017   1.410   1.478
10871TIP3    H154104   4.925   1.429   1.455
10871TIP3    H254105   5.016   1.439   1.571
10872TIP3   OH254106   5.586   0.631   0.321
10872TIP3    H154107   5.530   0.597   0.249
10872TIP3    H254108   5.595   0.724   0.290
10873TIP3   OH254109   5.585   1.217   1.600
10873TIP3    H154110   5.496   1.236   1.562
10873TIP3    H254111   5.640   1.210   1.520
10874TIP3   OH254112   5.415   1.513   0.357
10874TIP3    H154113   5.378   1.430   0.391
10874TIP3    H254114   5.445   1.492   0.267
10875TIP3   OH254115   5.135   0.994   1.067
10875TIP3    H154116   5.041   0.971   1.059
10875TIP3    H254117   5.178   0.916   1.027
10876TIP3   OH254118   4.386   1.425   0.677
10876TIP3    H154119   4.439   1.505   0.658
10876TIP3    H254120   4.299   1.451   0.646
10877TIP3   OH254121   3.962   0.912   0.132
10877TIP3    H154122   4.024   0.974   0.175
10877TIP3    H254123   3.875   0.941   0.164
10878TIP3   OH254124   4.529   1.192   0.630
10878TIP3    H154125   4.502   1.286   0.640
10878TIP3    H254126   4.456   1.146   0.676
10879TIP3   OH254127   4.574   1.611   1.272
10879TIP3    H154128   4.620   1.691   1.240
10879TIP3    H254129   4.637   1.577   1.337
10880TIP3   OH254130   4.398   1.694   0.583
10880TIP3    H154131   4.301   1.706   0.597
10880TIP3    H254132   4.434   1.776   0.621
10881TIP3   OH254133   4.931   1.213   1.235
10881TIP3    H154134   4.893   1.193   1.322
10881TIP3    H254135   4.992   1.141   1.216
10882TIP3   OH254136   5.157   1.314   0.145
10882TIP3    H154137   5.187   1.270   0.226
10882TIP3    H254138   5.061   1.300   0.152
10883TIP3   OH254139   5.206   1.670   1.483
10883TIP3    H154140   5.140   1.619   1.433
10883TIP3    H254141   5.227   1.739   1.417
10884TIP3   OH254142   5.606   1.757   0.169
10884TIP3    H154143   5.677   1.819   0.146
10884TIP3    H254144   5.534   1.818   0.195
10885TIP3   OH254145   4.014   0.394   1.423
10885TIP3    H154146   3.924   0.429   1.418
10885TIP3    H254147   4.002   0.307   1.465
10886TIP3   OH254148   5.240   1.179   0.365
10886TIP3    H154149   5.215   1.102   0.420
10886TIP3    H254150   5.334   1.188   0.387
10887TIP3   OH254151   3.976   1.575   1.265
10887TIP3    H154152   4.004   1.482   1.265
10887TIP3    H254153   4.002   1.602   1.353
10888TIP3   OH254154   4.453   1.380   0.233
10888TIP3    H154155   4.475   1.326   0.310
10888TIP3    H254156   4.459   1.472   0.266
10889TIP3   OH254157   4.102   1.103   0.287
10889TIP3    H154158   4.034   1.143   0.344
10889TIP3    H254159   4.156   1.180   0.260
10890TIP3   OH254160   4.887   0.370   1.316
10890TIP3    H154161   4.959   0.378   1.380
10890TIP3    H254162   4.850   0.281   1.333
10891TIP3   OH254163   4.965   0.331   0.425
10891TIP3    H154164   4.987   0.380   0.343
10891TIP3    H254165   5.020   0.377   0.491
10892TIP3   OH254166   4.728   1.545   0.301
10892TIP3    H154167   4.649   1.599   0.317
10892TIP3    H254168   4.785   1.599   0.245
10893TIP3   OH254169   4.685   0.502   0.507
10893TIP3    H154170   4.764   0.560   0.509
10893TIP3    H254171   4.660   0.493   0.600
10894TIP3   OH254172   4.740   0.606   1.425
10894TIP3    H154173   4.749   0.663   1.504
10894TIP3    H254174   4.806   0.537   1.436
10895TIP3   OH254175   4.772   0.211   0.601
10895TIP3    H154176   4.738   0.278   0.663
10895TIP3    H254177   4.838   0.265   0.550
10896TIP3   OH254178   4.465   1.650   0.309
10896TIP3    H154179   4.483   1.733   0.259
10896TIP3    H254180   4.444   1.684   0.398
10897TIP3   OH254181   4.337   0.319   0.269
10897TIP3    H154182   4.330   0.410   0.304
10897TIP3    H254183   4.429   0.300   0.295
10898TIP3   OH254184   5.358   0.391   1.510
10898TIP3    H154185   5.266   0.424   1.498
10898TIP3    H254186   5.390   0.394   1.418
10899TIP3   OH254187   5.219   0.773   0.914
10899TIP3    H154188   5.137   0.729   0.884
10899TIP3    H254189   5.266   0.703   0.965
10900TIP3   OH254190   4.161   1.365   0.172
10900TIP3    H154191   4.226   1.430   0.202
10900TIP3    H254192   4.214   1.320   0.102
10901TIP3   OH254193   3.999   0.633   0.091
10901TIP3    H154194   3.994   0.730   0.103
10901TIP3    H254195   3.911   0.611   0.058
10902TIP3   OH254196   5.326   1.697   1.080
10902TIP3    H154197   5.315   1.766   1.011
10902TIP3    H254198   5.422   1.705   1.098
10903TIP3   OH254199   4.057   0.125   0.961
10903TIP3    H154200   4.056   0.115   0.863
10903TIP3    H254201   4.040   0.032   0.984
10904TIP3   OH254202   3.971   1.503   0.573
10904TIP3    H154203   3.886   1.549   0.571
10904TIP3    H254204   4.021   1.551   0.506
10905TIP3   OH254205   3.894   1.767   1.703
10905TIP3    H154206   3.953   1.746   1.778
10905TIP3    H254207   3.851   1.682   1.684
10906TIP3   OH254208   4.359   1.659   1.865
10906TIP3    H154209   4.435   1.610   1.897
10906TIP3    H254210   4.357   1.633   1.771
10907TIP3   OH254211   4.813   1.625   0.057
10907TIP3    H154212   4.729   1.574   0.057
10907TIP3    H254213   4.856   1.569  -0.008
10908TIP3   OH254214   5.012   1.497   1.738
10908TIP3    H154215   4.980   1.409   1.765
10908TIP3    H254216   5.088   1.509   1.798
10909TIP3   OH254217   5.230   1.590   0.024
10909TIP3    H154218   5.256   1.508   0.072
10909TIP3    H254219   5.306   1.610  -0.031
10910TIP3   OH254220   3.886   1.146   1.801
10910TIP3    H154221   3.901   1.055   1.771
10910TIP3    H254222   3.810   1.172   1.746
10911TIP3   OH254223   4.328   1.186   0.017
10911TIP3    H154224   4.333   1.102   0.064
10911TIP3    H254225   4.385   1.164  -0.060
10912TIP3   OH254226   4.555   1.144   1.741
10912TIP3    H154227   4.521   1.173   1.654
10912TIP3    H254228   4.565   1.046   1.731
10913TIP3   OH254229   5.125   1.131   1.480
10913TIP3    H154230   5.203   1.191   1.471
10913TIP3    H254231   5.054   1.195   1.484
10914TIP3   OH254232   3.974   0.868   1.740
10914TIP3    H154233   4.015   0.781   1.730
10914TIP3    H254234   3.949   0.868   1.834
10915TIP3   OH254235   4.439   0.983   0.244
10915TIP3    H154236   4.390   0.929   0.309
10915TIP3    H254237   4.468   0.914   0.180
10916TIP3   OH254238   4.366   0.763   1.477
10916TIP3    H154239   4.305   0.835   1.503
10916TIP3    H254240   4.403   0.799   1.395
10917TIP3   OH254241   4.547   0.800   0.068
10917TIP3    H154242   4.532   0.788  -0.027
10917TIP3    H254243   4.644   0.811   0.074
10918TIP3   OH254244   4.871   1.018   1.808
10918TIP3    H154245   4.968   1.020   1.800
10918TIP3    H254246   4.855   0.943   1.866
10919TIP3   OH254247   5.462   1.051  16.020
10919TIP3    H154248   5.456   0.999  15.937
10919TIP3    H254249   5.487   1.139  15.990
10920TIP3   OH254250   4.405   0.501   1.584
10920TIP3    H154251   4.417   0.429   1.520
10920TIP3    H254252   4.401   0.581   1.528
10921TIP3   OH254253   4.445   0.339   1.336
10921TIP3    H154254   4.497   0.386   1.267
10921TIP3    H254255   4.356   0.328   1.294
10922TIP3   OH254256   4.600   0.885   1.361
10922TIP3    H154257   4.675   0.869   1.303
10922TIP3    H254258   4.565   0.970   1.329
10923TIP3   OH254259   5.040   0.664   1.859
10923TIP3    H154260   5.064   0.570   1.849
10923TIP3    H254261   5.128   0.707   1.860
10924TIP3   OH254262   5.173   0.941   1.672
10924TIP3    H154263   5.149   1.015   1.611
10924TIP3    H254264   5.269   0.938   1.655
10925TIP3   OH254265   4.251   0.625   1.775
10925TIP3    H154266   4.174   0.568   1.756
10925TIP3    H254267   4.317   0.589   1.713
10926TIP3   OH254268   4.515   0.095   1.395
10926TIP3    H154269   4.509   0.190   1.369
10926TIP3    H254270   4.451   0.054   1.333
10927TIP3   OH254271   4.651   0.513   1.736
10927TIP3    H154272   4.621   0.493   1.826
10927TIP3    H254273   4.572   0.496   1.683
10928TIP3   OH254274   4.923   0.434   1.645
10928TIP3    H154275   4.826   0.434   1.657
10928TIP3    H254276   4.952   0.368   1.711
10929TIP3   OH254277   5.083   0.297   1.840
10929TIP3    H154278   5.078   0.199   1.838
10929TIP3    H254279   5.056   0.322   1.930
10930TIP3   OH254280   4.060   0.416   1.748
10930TIP3    H154281   4.087   0.343   1.689
10930TIP3    H254282   4.054   0.371   1.834
10931TIP3   OH254283   4.548   7.359   1.649
10931TIP3    H154284   4.614   7.291   1.644
10931TIP3    H254285   4.535   7.384   1.554
10932TIP3   OH254286   4.581   0.183   1.854
10932TIP3    H154287   4.568   0.137   1.767
10932TIP3    H254288   4.524   0.262   1.843
10933TIP3   OH254289   4.529   1.872   0.170
10933TIP3    H154290   4.627   1.885   0.181
10933TIP3    H254291   4.510   1.939   0.104
10934TIP3   OH254292   3.887   1.334   0.120
10934TIP3    H154293   3.983   1.344   0.143
10934TIP3    H254294   3.892   1.271   0.047
10935TIP3   OH254295   3.762   1.871   0.620
10935TIP3    H154296   3.691   1.823   0.571
10935TIP3    H254297   3.791   1.805   0.684
10936TIP3   OH254298   3.845   1.683   0.805
10936TIP3    H154299   3.810   1.595   0.824
10936TIP3    H254300   3.867   1.716   0.893
10937TIP3   OH254301   5.598   1.763   1.100
10937TIP3    H154302   5.600   1.780   1.196
10937TIP3    H254303   5.668   1.820   1.069
10938TIP3   OH254304   5.555   1.722   1.394
10938TIP3    H154305   5.508   1.645   1.357
10938TIP3    H254306   5.607   1.678   1.464
10939TIP3   OH254307   5.399   1.299   1.856
10939TIP3    H154308   5.312   1.289   1.898
10939TIP3    H254309   5.438   1.374   1.903
10940TIP3   OH254310   5.532   1.126   0.405
10940TIP3    H154311   5.617   1.167   0.424
10940TIP3    H254312   5.530   1.054   0.472
10941TIP3   OH254313   5.568   0.934   0.592
10941TIP3    H154314   5.494   0.883   0.631
10941TIP3    H254315   5.628   0.949   0.668
10942TIP3   OH254316   5.544   1.205   1.090
10942TIP3    H154317   5.627   1.168   1.054
10942TIP3    H254318   5.557   1.301   1.074
10943TIP3   OH254319   5.398   1.495   1.319
10943TIP3    H154320   5.329   1.529   1.378
10943TIP3    H254321   5.343   1.454   1.248
10944TIP3   OH254322   5.598   0.918   0.232
10944TIP3    H154323   5.541   0.954   0.162
10944TIP3    H254324   5.591   0.989   0.299
10945TIP3   OH254325   5.397   0.643   0.094
10945TIP3    H154326   5.438   0.704   0.031
10945TIP3    H254327   5.416   0.562   0.046
10946TIP3   OH254328   5.350   0.782   0.649
10946TIP3    H154329   5.334   0.687   0.646
10946TIP3    H254330   5.315   0.806   0.737
10947TIP3   OH254331   3.850   0.990   1.054
10947TIP3    H154332   3.869   0.982   0.958
10947TIP3    H254333   3.939   0.975   1.091
10948TIP3   OH254334   5.434   0.979   1.615
10948TIP3    H154335   5.494   0.903   1.631
10948TIP3    H254336   5.494   1.055   1.619
10949TIP3   OH254337   5.575   0.734   1.592
10949TIP3    H154338   5.501   0.733   1.656
10949TIP3    H254339   5.637   0.703   1.662
10950TIP3   OH254340   5.316   0.542   0.495
10950TIP3    H154341   5.347   0.449   0.506
10950TIP3    H254342   5.395   0.582   0.457
10951TIP3   OH254343   5.380   0.597   1.039
10951TIP3    H154344   5.476   0.619   1.038
10951TIP3    H254345   5.361   0.609   1.134
10952TIP3   OH254346   5.385   0.669   1.314
10952TIP3    H154347   5.299   0.698   1.351
10952TIP3    H254348   5.431   0.754   1.297
10953TIP3   OH254349   3.811   0.522   1.668
10953TIP3    H154350   3.904   0.500   1.689
10953TIP3    H254351   3.766   0.440   1.699
10954TIP3   OH254352   5.625   0.067   1.856
10954TIP3    H154353   5.643   0.006   1.783
10954TIP3    H254354   5.621   0.152   1.806
10955TIP3   OH254355   5.383   0.268   0.499
10955TIP3    H154356   5.402   0.222   0.583
10955TIP3    H254357   5.322   0.204   0.454
10956TIP3   OH254358   3.930   0.351   0.953
10956TIP3    H154359   3.977   0.270   0.982
10956TIP3    H254360   3.984   0.419   0.995
10957TIP3   OH254361   3.761   0.649   1.060
10957TIP3    H154362   3.816   0.626   0.982
10957TIP3    H254363   3.805   0.731   1.086
10958TIP3   OH254364   5.567   0.274   1.688
10958TIP3    H154365   5.475   0.308   1.683
10958TIP3    H254366   5.572   0.225   1.605
10959TIP3   OH254367   5.567   0.275   0.152
10959TIP3    H154368   5.609   0.202   0.106
10959TIP3    H254369   5.638   0.341   0.156
10960TIP3   OH254370   3.798   0.272   0.467
10960TIP3    H154371   3.704   0.295   0.452
10960TIP3    H254372   3.839   0.324   0.395
10961TIP3   OH254373   5.272   1.772   0.660
10961TIP3    H154374   5.340   1.739   0.599
10961TIP3    H254375   5.324   1.821   0.726
10962TIP3   OH254376   3.792   0.145   1.298
10962TIP3    H154377   3.726   0.124   1.364
10962TIP3    H254378   3.746   0.209   1.240
10963TIP3   OH254379   4.014   1.462   1.713
10963TIP3    H154380   3.930   1.483   1.668
10963TIP3    H254381   3.987   1.455   1.805
10964TIP3   OH254382   4.306   1.561   1.340
10964TIP3    H154383   4.270   1.646   1.312
10964TIP3    H254384   4.398   1.571   1.309
10965TIP3   OH254385   4.737   1.704   1.632
10965TIP3    H154386   4.754   1.669   1.723
10965TIP3    H254387   4.827   1.734   1.605
10966TIP3   OH254388   4.967   1.831   1.561
10966TIP3    H154389   5.040   1.771   1.537
10966TIP3    H254390   5.005   1.873   1.641
10967TIP3   OH254391   5.468   0.094   1.470
10967TIP3    H154392   5.385   0.125   1.432
10967TIP3    H254393   5.487   0.013   1.418
10968TIP3   OH254394   4.048   1.886   1.341
10968TIP3    H154395   3.975   1.934   1.300
10968TIP3    H254396   4.014   1.865   1.430
10969TIP3   OH254397   4.295   1.844   1.248
10969TIP3    H154398   4.206   1.857   1.287
10969TIP3    H254399   4.288   1.903   1.170
10970TIP3   OH254400   4.764   1.835   1.167
10970TIP3    H154401   4.720   1.890   1.100
10970TIP3    H254402   4.780   1.899   1.239
10971TIP3   OH254403   4.995   1.719   1.268
10971TIP3    H154404   4.909   1.741   1.229
10971TIP3    H254405   5.041   1.804   1.254
10972TIP3   OH254406   5.254   1.875   1.290
10972TIP3    H154407   5.244   1.971   1.267
10972TIP3    H254408   5.274   1.838   1.202
10973TIP3   OH254409   3.991   1.751   1.034
10973TIP3    H154410   3.986   1.705   1.121
10973TIP3    H254411   4.073   1.715   0.995
10974TIP3   OH254412   4.200   1.622   0.900
10974TIP3    H154413   4.183   1.529   0.921
10974TIP3    H254414   4.287   1.636   0.945
10975TIP3   OH254415   4.455   1.669   0.987
10975TIP3    H154416   4.481   1.580   0.959
10975TIP3    H254417   4.466   1.662   1.083
10976TIP3   OH254418   4.805   0.241   0.899
10976TIP3    H154419   4.741   0.172   0.928
10976TIP3    H254420   4.865   0.187   0.845
10977TIP3   OH254421   5.320   0.041   0.910
10977TIP3    H154422   5.382   0.097   0.857
10977TIP3    H254423   5.233   0.076   0.886
10978TIP3   OH254424   5.490   0.165   0.736
10978TIP3    H154425   5.558   0.109   0.695
10978TIP3    H254426   5.537   0.250   0.746
10979TIP3   OH254427   4.047   0.102   0.675
10979TIP3    H154428   3.962   0.075   0.636
10979TIP3    H254429   4.088   0.015   0.688
10980TIP3   OH254430   3.895   0.118   0.207
10980TIP3    H154431   3.983   0.160   0.196
10980TIP3    H254432   3.866   0.141   0.297
10981TIP3   OH254433   4.519   0.130   0.696
10981TIP3    H154434   4.614   0.131   0.671
10981TIP3    H254435   4.503   0.065   0.766
10982TIP3   OH254436   5.045   0.114   0.832
10982TIP3    H154437   5.058   0.112   0.737
10982TIP3    H254438   5.031   0.016   0.844
10983TIP3   OH254439   5.189   0.097   0.401
10983TIP3    H154440   5.117   0.157   0.376
10983TIP3    H254441   5.147   0.010   0.409
10984TIP3   OH254442   3.914   1.669   0.356
10984TIP3    H154443   3.845   1.669   0.287
10984TIP3    H254444   3.914   1.764   0.378
10985TIP3   OH254445   4.107   0.265   0.108
10985TIP3    H154446   4.160   0.207   0.052
10985TIP3    H254447   4.172   0.300   0.172
10986TIP3   OH254448   4.603   0.291   0.352
10986TIP3    H154449   4.635   0.236   0.425
10986TIP3    H254450   4.611   0.379   0.397
10987TIP3   OH254451   4.796   1.822   0.201
10987TIP3    H154452   4.891   1.827   0.178
10987TIP3    H254453   4.778   1.757   0.128
10988TIP3   OH254454   5.471   1.750   0.464
10988TIP3    H154455   5.450   1.673   0.406
10988TIP3    H254456   5.463   1.825   0.401
10989TIP3   OH254457   4.027   0.151   1.627
10989TIP3    H154458   3.996   0.074   1.674
10989TIP3    H254459   4.120   0.151   1.663
10990TIP3   OH254460   4.215   0.104   1.784
10990TIP3    H154461   4.308   0.076   1.770
10990TIP3    H254462   4.194   0.020   1.829
10991TIP3   OH254463   4.097   1.765   0.054
10991TIP3    H154464   4.067   1.793   0.142
10991TIP3    H254465   4.172   1.710   0.073
10992TIP3   OH254466   5.068   7.384   1.809
10992TIP3    H154467   5.081   7.321   1.883
10992TIP3    H254468   5.156   7.365   1.770
10993TIP3   OH254469   5.394   1.623   1.674
10993TIP3    H154470   5.314   1.609   1.621
10993TIP3    H254471   5.383   1.718   1.696
10994TIP3   OH254472   6.837   1.011   0.674
10994TIP3    H154473   6.840   1.109   0.667
10994TIP3    H254474   6.767   0.988   0.611
10995TIP3   OH254475   6.724   0.940   1.022
10995TIP3    H154476   6.723   0.873   1.092
10995TIP3    H254477   6.692   0.889   0.945
10996TIP3   OH254478   5.962   0.903   1.175
10996TIP3    H154479   5.968   0.837   1.248
10996TIP3    H254480   6.035   0.962   1.199
10997TIP3   OH254481   7.100   1.230   0.853
10997TIP3    H154482   7.050   1.160   0.897
10997TIP3    H254483   7.094   1.304   0.915
10998TIP3   OH254484   6.054   1.349   1.030
10998TIP3    H154485   6.020   1.264   0.996
10998TIP3    H254486   6.149   1.329   1.033
10999TIP3   OH254487   5.717   0.707   0.575
10999TIP3    H154488   5.672   0.793   0.570
10999TIP3    H254489   5.660   0.652   0.519
11000TIP3   OH254490   5.787   0.928   0.788
11000TIP3    H154491   5.813   0.847   0.836
11000TIP3    H254492   5.859   0.937   0.724
11001TIP3   OH254493   6.807   1.746   0.873
11001TIP3    H154494   6.872   1.677   0.844
11001TIP3    H254495   6.787   1.717   0.961
11002TIP3   OH254496   6.564   1.184   1.066
11002TIP3    H154497   6.594   1.115   1.003
11002TIP3    H254498   6.643   1.189   1.121
11003TIP3   OH254499   6.878   0.624   1.098
11003TIP3    H154500   6.895   0.527   1.098
11003TIP3    H254501   6.868   0.639   1.002
11004TIP3   OH254502   6.192   0.435   0.822
11004TIP3    H154503   6.200   0.519   0.774
11004TIP3    H254504   6.149   0.377   0.756
11005TIP3   OH254505   6.965   0.443   0.659
11005TIP3    H154506   7.032   0.411   0.725
11005TIP3    H254507   7.020   0.497   0.601
11006TIP3   OH254508   5.853   0.674   0.896
11006TIP3    H154509   5.921   0.618   0.940
11006TIP3    H254510   5.862   0.643   0.804
11007TIP3   OH254511   6.370   0.829   0.824
11007TIP3    H154512   6.435   0.772   0.867
11007TIP3    H254513   6.316   0.763   0.777
11008TIP3   OH254514   6.080   0.326   1.227
11008TIP3    H154515   6.051   0.379   1.151
11008TIP3    H254516   6.010   0.346   1.293
11009TIP3   OH254517   6.810   1.271   0.581
11009TIP3    H154518   6.782   1.243   0.492
11009TIP3    H254519   6.779   1.364   0.586
11010TIP3   OH254520   6.333   1.088   1.253
11010TIP3    H154521   6.260   1.151   1.270
11010TIP3    H254522   6.403   1.147   1.222
11011TIP3   OH254523   7.128   0.375   0.864
11011TIP3    H154524   7.120   0.295   0.915
11011TIP3    H254525   7.203   0.419   0.909
11012TIP3   OH254526   6.035   0.511   1.026
11012TIP3    H154527   6.099   0.577   1.061
11012TIP3    H254528   6.089   0.466   0.956
11013TIP3   OH254529   6.177   1.287   1.333
11013TIP3    H154530   6.170   1.378   1.298
11013TIP3    H254531   6.088   1.279   1.377
11014TIP3   OH254532   5.783   1.250   0.412
11014TIP3    H154533   5.761   1.281   0.322
11014TIP3    H254534   5.792   1.335   0.461
11015TIP3   OH254535   7.127   1.422   1.073
11015TIP3    H154536   7.034   1.433   1.101
11015TIP3    H254537   7.164   1.514   1.066
11016TIP3   OH254538   7.169   0.255   1.221
11016TIP3    H154539   7.096   0.317   1.217
11016TIP3    H254540   7.241   0.294   1.170
11017TIP3   OH254541   6.504   0.071   0.972
11017TIP3    H154542   6.484  -0.023   0.967
11017TIP3    H254543   6.411   0.096   0.994
11018TIP3   OH254544   6.971   1.591   0.749
11018TIP3    H154545   7.015   1.522   0.696
11018TIP3    H254546   7.011   1.671   0.708
11019TIP3   OH254547   7.092   1.385   0.596
11019TIP3    H154548   7.063   1.315   0.536
11019TIP3    H254549   7.096   1.337   0.681
11020TIP3   OH254550   7.235   1.254   1.451
11020TIP3    H154551   7.266   1.185   1.389
11020TIP3    H254552   7.276   1.335   1.416
11021TIP3   OH254553   6.705   0.935   0.422
11021TIP3    H154554   6.634   0.993   0.386
11021TIP3    H254555   6.775   0.944   0.355
11022TIP3   OH254556   6.707   0.784   0.132
11022TIP3    H154557   6.783   0.789   0.191
11022TIP3    H254558   6.741   0.723   0.066
11023TIP3   OH254559   7.047   0.959   0.515
11023TIP3    H154560   6.974   0.982   0.577
11023TIP3    H254561   7.094   0.890   0.568
11024TIP3   OH254562   7.039   0.772   1.426
11024TIP3    H154563   7.041   0.852   1.480
11024TIP3    H254564   6.978   0.803   1.357
11025TIP3   OH254565   6.210   1.023   0.709
11025TIP3    H154566   6.177   0.984   0.624
11025TIP3    H254567   6.272   0.954   0.740
11026TIP3   OH254568   6.346   1.364   0.979
11026TIP3    H154569   6.338   1.311   0.896
11026TIP3    H254570   6.421   1.322   1.021
11027TIP3   OH254571   6.245   0.897   1.072
11027TIP3    H154572   6.301   0.910   0.993
11027TIP3    H254573   6.281   0.964   1.134
11028TIP3   OH254574   6.872   1.454   1.143
11028TIP3    H154575   6.862   1.519   1.213
11028TIP3    H254576   6.860   1.366   1.187
11029TIP3   OH254577   6.340   1.342   1.539
11029TIP3    H154578   6.299   1.414   1.591
11029TIP3    H254579   6.269   1.320   1.474
11030TIP3   OH254580   6.937   0.873   0.283
11030TIP3    H154581   6.991   0.893   0.363
11030TIP3    H254582   6.976   0.928   0.213
11031TIP3   OH254583   6.032   0.958   1.459
11031TIP3    H154584   6.035   1.022   1.532
11031TIP3    H254585   5.938   0.966   1.436
11032TIP3   OH254586   6.708   1.548   0.631
11032TIP3    H154587   6.752   1.580   0.710
11032TIP3    H254588   6.650   1.621   0.605
11033TIP3   OH254589   6.162   1.544   1.618
11033TIP3    H154590   6.157   1.533   1.521
11033TIP3    H254591   6.069   1.532   1.644
11034TIP3   OH254592   7.272   0.051   0.248
11034TIP3    H154593   7.196   0.069   0.305
11034TIP3    H254594   7.318   0.132   0.226
11035TIP3   OH254595   6.108   0.925   0.468
11035TIP3    H154596   6.080   1.004   0.417
11035TIP3    H254597   6.041   0.860   0.446
11036TIP3   OH254598   5.717   1.167   1.355
11036TIP3    H154599   5.671   1.160   1.270
11036TIP3    H254600   5.722   1.072   1.380
11037TIP3   OH254601   5.693   1.441   1.036
11037TIP3    H154602   5.789   1.430   1.033
11037TIP3    H254603   5.684   1.522   1.088
11038TIP3   OH254604   6.608   1.469   1.482
11038TIP3    H154605   6.620   1.548   1.542
11038TIP3    H254606   6.525   1.431   1.519
11039TIP3   OH254607   6.656   1.842   0.471
11039TIP3    H154608   6.645   1.832   0.374
11039TIP3    H254609   6.659   1.938   0.486
11040TIP3   OH254610   6.018   1.730   0.653
11040TIP3    H154611   6.035   1.685   0.739
11040TIP3    H254612   5.936   1.685   0.626
11041TIP3   OH254613   6.960   1.760   0.169
11041TIP3    H154614   7.004   1.684   0.125
11041TIP3    H254615   6.964   1.734   0.263
11042TIP3   OH254616   6.932   1.755   0.447
11042TIP3    H154617   6.836   1.762   0.465
11042TIP3    H254618   6.957   1.681   0.505
11043TIP3   OH254619   7.208   0.671   1.656
11043TIP3    H154620   7.179   0.706   1.572
11043TIP3    H254621   7.235   0.579   1.629
11044TIP3   OH254622   5.944   1.299   1.452
11044TIP3    H154623   5.967   1.262   1.540
11044TIP3    H254624   5.857   1.259   1.430
11045TIP3   OH254625   6.206   0.158   1.055
11045TIP3    H154626   6.119   0.141   1.012
11045TIP3    H254627   6.194   0.241   1.099
11046TIP3   OH254628   6.673   0.114   1.387
11046TIP3    H154629   6.715   0.075   1.464
11046TIP3    H254630   6.578   0.102   1.401
11047TIP3   OH254631   7.004   0.493   1.474
11047TIP3    H154632   6.950   0.479   1.554
11047TIP3    H254633   6.989   0.587   1.451
11048TIP3   OH254634   7.093   0.986   0.063
11048TIP3    H154635   7.089   0.965  -0.033
11048TIP3    H254636   7.177   1.028   0.071
11049TIP3   OH254637   6.640   0.369   0.117
11049TIP3    H154638   6.612   0.367   0.210
11049TIP3    H254639   6.615   0.280   0.089
11050TIP3   OH254640   6.221   0.642   1.169
11050TIP3    H154641   6.149   0.641   1.235
11050TIP3    H254642   6.218   0.735   1.136
11051TIP3   OH254643   6.218   0.658   0.657
11051TIP3    H154644   6.125   0.630   0.645
11051TIP3    H254645   6.257   0.626   0.574
11052TIP3   OH254646   6.771   0.705   0.534
11052TIP3    H154647   6.729   0.788   0.502
11052TIP3    H254648   6.841   0.690   0.468
11053TIP3   OH254649   6.677   0.726   1.680
11053TIP3    H154650   6.624   0.650   1.712
11053TIP3    H254651   6.761   0.713   1.728
11054TIP3   OH254652   6.873   0.655   0.820
11054TIP3    H154653   6.848   0.710   0.745
11054TIP3    H254654   6.885   0.569   0.773
11055TIP3   OH254655   5.986   0.671   1.343
11055TIP3    H154656   5.989   0.711   1.432
11055TIP3    H254657   5.941   0.587   1.359
11056TIP3   OH254658   6.341   0.436   0.059
11056TIP3    H154659   6.287   0.370   0.106
11056TIP3    H254660   6.281   0.465  -0.011
11057TIP3   OH254661   5.651   0.384   0.736
11057TIP3    H154662   5.718   0.379   0.807
11057TIP3    H254663   5.696   0.342   0.660
11058TIP3   OH254664   5.780   0.457   0.280
11058TIP3    H154665   5.828   0.516   0.217
11058TIP3    H254666   5.708   0.516   0.308
11059TIP3   OH254667   6.795   0.813   1.278
11059TIP3    H154668   6.831   0.746   1.217
11059TIP3    H254669   6.749   0.760   1.345
11060TIP3   OH254670   6.474   0.408   0.759
11060TIP3    H154671   6.380   0.409   0.790
11060TIP3    H254672   6.523   0.398   0.842
11061TIP3   OH254673   5.956   0.565   0.646
11061TIP3    H154674   5.867   0.580   0.608
11061TIP3    H254675   5.985   0.481   0.607
11062TIP3   OH254676   6.320   0.570   0.409
11062TIP3    H154677   6.415   0.583   0.427
11062TIP3    H254678   6.297   0.637   0.342
11063TIP3   OH254679   6.913   0.332   1.084
11063TIP3    H154680   6.844   0.341   1.153
11063TIP3    H254681   6.863   0.312   1.003
11064TIP3   OH254682   6.189   0.688   0.168
11064TIP3    H154683   6.133   0.652   0.097
11064TIP3    H254684   6.272   0.708   0.121
11065TIP3   OH254685   7.233   1.899   1.716
11065TIP3    H154686   7.263   1.936   1.632
11065TIP3    H254687   7.306   1.929   1.773
11066TIP3   OH254688   6.004   1.147   1.672
11066TIP3    H154689   6.075   1.170   1.734
11066TIP3    H254690   5.925   1.156   1.731
11067TIP3   OH254691   6.604   0.685   0.949
11067TIP3    H154692   6.663   0.630   0.896
11067TIP3    H254693   6.589   0.632   1.028
11068TIP3   OH254694   6.103   0.303   0.592
11068TIP3    H154695   6.071   0.211   0.591
11068TIP3    H254696   6.182   0.296   0.537
11069TIP3   OH254697   6.467   0.520   1.190
11069TIP3    H154698   6.383   0.570   1.200
11069TIP3    H254699   6.521   0.553   1.264
11070TIP3   OH254700   6.528   1.138   0.361
11070TIP3    H154701   6.445   1.097   0.328
11070TIP3    H254702   6.504   1.154   0.455
11071TIP3   OH254703   7.229   1.071   1.239
11071TIP3    H154704   7.297   1.084   1.170
11071TIP3    H254705   7.147   1.063   1.187
11072TIP3   OH254706   6.911   0.426   0.177
11072TIP3    H154707   6.816   0.437   0.161
11072TIP3    H254708   6.940   0.512   0.212
11073TIP3   OH254709   6.672   1.167   1.482
11073TIP3    H154710   6.641   1.124   1.564
11073TIP3    H254711   6.653   1.260   1.496
11074TIP3   OH254712   6.982   0.614   0.341
11074TIP3    H154713   7.070   0.600   0.380
11074TIP3    H254714   6.988   0.698   0.292
11075TIP3   OH254715   6.036   1.079   0.939
11075TIP3    H154716   6.107   1.074   0.872
11075TIP3    H254717   6.042   0.993   0.985
11076TIP3   OH254718   6.737   1.288   0.264
11076TIP3    H154719   6.700   1.372   0.299
11076TIP3    H254720   6.662   1.228   0.282
11077TIP3   OH254721   5.736   0.922   1.466
11077TIP3    H154722   5.753   0.877   1.551
11077TIP3    H254723   5.673   0.859   1.427
11078TIP3   OH254724   6.436   0.877   1.686
11078TIP3    H154725   6.406   0.850   1.598
11078TIP3    H254726   6.530   0.847   1.685
11079TIP3   OH254727   6.901   1.410   1.475
11079TIP3    H154728   6.809   1.428   1.457
11079TIP3    H254729   6.904   1.437   1.570
11080TIP3   OH254730   7.292   1.511   0.358
11080TIP3    H154731   7.261   1.428   0.393
11080TIP3    H254732   7.329   1.493   0.271
11081TIP3   OH254733   7.018   0.993   1.068
11081TIP3    H154734   6.923   0.970   1.057
11081TIP3    H254735   7.062   0.916   1.027
11082TIP3   OH254736   6.269   1.433   0.703
11082TIP3    H154737   6.323   1.500   0.655
11082TIP3    H254738   6.192   1.444   0.643
11083TIP3   OH254739   5.847   0.912   0.132
11083TIP3    H154740   5.909   0.974   0.175
11083TIP3    H254741   5.760   0.941   0.164
11084TIP3   OH254742   6.418   1.192   0.636
11084TIP3    H154743   6.386   1.284   0.636
11084TIP3    H254744   6.340   1.146   0.673
11085TIP3   OH254745   6.451   1.624   1.278
11085TIP3    H154746   6.499   1.702   1.244
11085TIP3    H254747   6.508   1.590   1.349
11086TIP3   OH254748   6.284   1.696   0.588
11086TIP3    H154749   6.187   1.704   0.595
11086TIP3    H254750   6.318   1.780   0.621
11087TIP3   OH254751   6.817   1.216   1.235
11087TIP3    H154752   6.779   1.191   1.322
11087TIP3    H254753   6.876   1.140   1.216
11088TIP3   OH254754   7.042   1.314   0.145
11088TIP3    H154755   7.073   1.270   0.226
11088TIP3    H254756   6.946   1.301   0.153
11089TIP3   OH254757   7.090   1.670   1.481
11089TIP3    H154758   7.024   1.619   1.433
11089TIP3    H254759   7.113   1.740   1.417
11090TIP3   OH254760   5.900   0.394   1.424
11090TIP3    H154761   5.809   0.429   1.418
11090TIP3    H254762   5.887   0.307   1.465
11091TIP3   OH254763   7.126   1.179   0.367
11091TIP3    H154764   7.099   1.101   0.422
11091TIP3    H254765   7.219   1.188   0.389
11092TIP3   OH254766   5.862   1.575   1.264
11092TIP3    H154767   5.889   1.481   1.265
11092TIP3    H254768   5.888   1.602   1.353
11093TIP3   OH254769   6.379   1.373   0.197
11093TIP3    H154770   6.363   1.327   0.283
11093TIP3    H254771   6.349   1.456   0.242
11094TIP3   OH254772   5.987   1.103   0.285
11094TIP3    H154773   5.921   1.144   0.344
11094TIP3    H254774   6.042   1.180   0.262
11095TIP3   OH254775   6.772   0.370   1.316
11095TIP3    H154776   6.845   0.378   1.379
11095TIP3    H254777   6.735   0.281   1.333
11096TIP3   OH254778   6.851   0.331   0.425
11096TIP3    H154779   6.872   0.380   0.343
11096TIP3    H254780   6.905   0.376   0.491
11097TIP3   OH254781   6.619   1.548   0.308
11097TIP3    H154782   6.533   1.596   0.315
11097TIP3    H254783   6.670   1.599   0.244
11098TIP3   OH254784   6.570   0.502   0.507
11098TIP3    H154785   6.649   0.560   0.509
11098TIP3    H254786   6.545   0.493   0.600
11099TIP3   OH254787   6.626   0.605   1.425
11099TIP3    H154788   6.635   0.663   1.504
11099TIP3    H254789   6.692   0.536   1.436
11100TIP3   OH254790   6.656   0.211   0.600
11100TIP3    H154791   6.625   0.278   0.663
11100TIP3    H254792   6.723   0.264   0.550
11101TIP3   OH254793   6.362   1.661   0.304
11101TIP3    H154794   6.369   1.745   0.257
11101TIP3    H254795   6.329   1.681   0.394
11102TIP3   OH254796   6.223   0.319   0.268
11102TIP3    H154797   6.216   0.410   0.304
11102TIP3    H254798   6.315   0.300   0.295
11103TIP3   OH254799   7.243   0.390   1.504
11103TIP3    H154800   7.151   0.423   1.497
11103TIP3    H254801   7.274   0.394   1.414
11104TIP3   OH254802   7.106   0.774   0.917
11104TIP3    H154803   7.024   0.731   0.885
11104TIP3    H254804   7.147   0.701   0.966
11105TIP3   OH254805   6.044   1.368   0.167
11105TIP3    H154806   6.110   1.427   0.208
11105TIP3    H254807   6.100   1.320   0.103
11106TIP3   OH254808   5.885   0.633   0.091
11106TIP3    H154809   5.880   0.730   0.103
11106TIP3    H254810   5.797   0.611   0.058
11107TIP3   OH254811   7.216   1.695   1.079
11107TIP3    H154812   7.198   1.767   1.014
11107TIP3    H254813   7.309   1.710   1.099
11108TIP3   OH254814   5.943   0.125   0.961
11108TIP3    H154815   5.941   0.115   0.863
11108TIP3    H254816   5.926   0.032   0.984
11109TIP3   OH254817   5.855   1.503   0.574
11109TIP3    H154818   5.771   1.551   0.569
11109TIP3    H254819   5.908   1.549   0.507
11110TIP3   OH254820   5.779   1.767   1.703
11110TIP3    H154821   5.838   1.745   1.778
11110TIP3    H254822   5.737   1.682   1.684
11111TIP3   OH254823   6.244   1.659   1.864
11111TIP3    H154824   6.321   1.610   1.897
11111TIP3    H254825   6.242   1.633   1.770
11112TIP3   OH254826   6.698   1.624   0.058
11112TIP3    H154827   6.614   1.573   0.058
11112TIP3    H254828   6.741   1.569  -0.008
11113TIP3   OH254829   6.899   1.497   1.738
11113TIP3    H154830   6.867   1.409   1.765
11113TIP3    H254831   6.974   1.509   1.799
11114TIP3   OH254832   7.112   1.587   0.024
11114TIP3    H154833   7.140   1.508   0.072
11114TIP3    H254834   7.189   1.614  -0.028
11115TIP3   OH254835   5.773   1.148   1.800
11115TIP3    H154836   5.785   1.054   1.773
11115TIP3    H254837   5.695   1.171   1.747
11116TIP3   OH254838   6.211   1.185   0.014
11116TIP3    H154839   6.219   1.103   0.065
11116TIP3    H254840   6.272   1.165  -0.059
11117TIP3   OH254841   6.441   1.144   1.742
11117TIP3    H154842   6.406   1.172   1.655
11117TIP3    H254843   6.451   1.046   1.731
11118TIP3   OH254844   7.010   1.129   1.474
11118TIP3    H154845   7.087   1.191   1.472
11118TIP3    H254846   6.939   1.193   1.486
11119TIP3   OH254847   5.872   0.871   1.740
11119TIP3    H154848   5.899   0.779   1.730
11119TIP3    H254849   5.829   0.867   1.828
11120TIP3   OH254850   6.325   0.982   0.244
11120TIP3    H154851   6.276   0.930   0.310
11120TIP3    H254852   6.354   0.913   0.180
11121TIP3   OH254853   6.251   0.763   1.477
11121TIP3    H154854   6.191   0.835   1.503
11121TIP3    H254855   6.289   0.799   1.395
11122TIP3   OH254856   6.432   0.798   0.067
11122TIP3    H154857   6.417   0.788  -0.028
11122TIP3    H254858   6.530   0.812   0.074
11123TIP3   OH254859   6.754   1.018   1.809
11123TIP3    H154860   6.851   1.020   1.800
11123TIP3    H254861   6.740   0.941   1.866
11124TIP3   OH254862   6.290   0.500   1.584
11124TIP3    H154863   6.302   0.429   1.520
11124TIP3    H254864   6.287   0.581   1.528
11125TIP3   OH254865   6.330   0.339   1.336
11125TIP3    H154866   6.383   0.386   1.267
11125TIP3    H254867   6.241   0.328   1.294
11126TIP3   OH254868   6.486   0.885   1.361
11126TIP3    H154869   6.561   0.869   1.303
11126TIP3    H254870   6.449   0.969   1.329
11127TIP3   OH254871   6.925   0.664   1.859
11127TIP3    H154872   6.948   0.571   1.848
11127TIP3    H254873   7.013   0.706   1.859
11128TIP3   OH254874   7.055   0.941   1.670
11128TIP3    H154875   7.032   1.016   1.612
11128TIP3    H254876   7.152   0.939   1.656
11129TIP3   OH254877   6.137   0.624   1.775
11129TIP3    H154878   6.059   0.569   1.756
11129TIP3    H254879   6.203   0.589   1.713
11130TIP3   OH254880   6.401   0.095   1.394
11130TIP3    H154881   6.394   0.190   1.368
11130TIP3    H254882   6.337   0.054   1.333
11131TIP3   OH254883   6.536   0.516   1.737
11131TIP3    H154884   6.508   0.490   1.827
11131TIP3    H254885   6.457   0.495   1.684
11132TIP3   OH254886   6.807   0.433   1.647
11132TIP3    H154887   6.710   0.432   1.658
11132TIP3    H254888   6.837   0.367   1.712
11133TIP3   OH254889   6.975   0.296   1.842
11133TIP3    H154890   6.959   0.198   1.840
11133TIP3    H254891   6.938   0.321   1.929
11134TIP3   OH254892   5.948   0.416   1.747
11134TIP3    H154893   5.973   0.343   1.688
11134TIP3    H254894   5.940   0.372   1.833
11135TIP3   OH254895   6.429   7.358   1.645
11135TIP3    H154896   6.500   7.293   1.649
11135TIP3    H254897   6.422   7.384   1.551
11136TIP3   OH254898   6.468   0.185   1.853
11136TIP3    H154899   6.453   0.132   1.771
11136TIP3    H254900   6.407   0.260   1.845
11137TIP3   OH254901   6.415   1.875   0.168
11137TIP3    H154902   6.513   1.885   0.181
11137TIP3    H254903   6.397   1.941   0.102
11138TIP3   OH254904   5.773   1.334   0.119
11138TIP3    H154905   5.868   1.343   0.143
11138TIP3    H254906   5.778   1.271   0.046
11139TIP3   OH254907   5.647   1.871   0.620
11139TIP3    H154908   5.576   1.823   0.571
11139TIP3    H254909   5.677   1.805   0.684
11140TIP3   OH254910   5.730   1.683   0.805
11140TIP3    H154911   5.695   1.595   0.824
11140TIP3    H254912   5.752   1.716   0.893
11141TIP3   OH254913   7.270   1.305   1.849
11141TIP3    H154914   7.192   1.290   1.904
11141TIP3    H254915   7.321   1.369   1.900
11142TIP3   OH254916   7.281   1.486   1.319
11142TIP3    H154917   7.219   1.533   1.381
11142TIP3    H254918   7.219   1.460   1.251
11143TIP3   OH254919   7.312   0.641   0.088
11143TIP3    H154920   7.327   0.709   0.020
11143TIP3    H254921   7.295   0.560   0.041
11144TIP3   OH254922   7.204   0.788   0.650
11144TIP3    H154923   7.217   0.692   0.653
11144TIP3    H254924   7.197   0.810   0.744
11145TIP3   OH254925   5.736   0.991   1.054
11145TIP3    H154926   5.755   0.982   0.958
11145TIP3    H254927   5.825   0.975   1.091
11146TIP3   OH254928  -0.029   0.984   1.657
11146TIP3    H154929   0.025   0.905   1.648
11146TIP3    H254930   0.024   1.057   1.619
11147TIP3   OH254931   7.202   0.538   0.487
11147TIP3    H154932   7.230   0.449   0.514
11147TIP3    H254933   7.281   0.577   0.451
11148TIP3   OH254934   7.227   0.549   1.028
11148TIP3    H154935   7.323   0.563   1.019
11148TIP3    H254936   7.230   0.595   1.114
11149TIP3   OH254937   7.274   0.671   1.330
11149TIP3    H154938   7.182   0.697   1.350
11149TIP3    H254939   7.309   0.749   1.287
11150TIP3   OH254940   5.699   0.515   1.665
11150TIP3    H154941   5.791   0.499   1.691
11150TIP3    H254942   5.652   0.438   1.701
11151TIP3   OH254943   7.191   0.251   0.550
11151TIP3    H154944   7.278   0.220   0.584
11151TIP3    H254945   7.193   0.202   0.465
11152TIP3   OH254946   5.815   0.351   0.953
11152TIP3    H154947   5.863   0.270   0.982
11152TIP3    H254948   5.870   0.419   0.995
11153TIP3   OH254949   5.646   0.649   1.058
11153TIP3    H154950   5.702   0.626   0.981
11153TIP3    H254951   5.690   0.730   1.087
11154TIP3   OH254952   5.683   0.272   0.466
11154TIP3    H154953   5.589   0.295   0.452
11154TIP3    H254954   5.724   0.324   0.396
11155TIP3   OH254955   7.145   1.759   0.667
11155TIP3    H154956   7.211   1.728   0.604
11155TIP3    H254957   7.200   1.817   0.724
11156TIP3   OH254958   5.678   0.145   1.297
11156TIP3    H154959   5.611   0.124   1.364
11156TIP3    H254960   5.632   0.210   1.240
11157TIP3   OH254961   5.900   1.462   1.713
11157TIP3    H154962   5.816   1.483   1.669
11157TIP3    H254963   5.873   1.455   1.805
11158TIP3   OH254964   6.190   1.560   1.339
11158TIP3    H154965   6.154   1.646   1.313
11158TIP3    H254966   6.282   1.574   1.310
11159TIP3   OH254967   6.624   1.701   1.630
11159TIP3    H154968   6.639   1.670   1.723
11159TIP3    H254969   6.712   1.735   1.606
11160TIP3   OH254970   6.854   1.830   1.560
11160TIP3    H154971   6.929   1.771   1.538
11160TIP3    H254972   6.890   1.873   1.641
11161TIP3   OH254973   5.933   1.887   1.341
11161TIP3    H154974   5.860   1.935   1.300
11161TIP3    H254975   5.900   1.865   1.430
11162TIP3   OH254976   6.181   1.843   1.247
11162TIP3    H154977   6.092   1.856   1.287
11162TIP3    H254978   6.174   1.903   1.170
11163TIP3   OH254979   6.648   1.832   1.166
11163TIP3    H154980   6.605   1.889   1.100
11163TIP3    H254981   6.665   1.898   1.237
11164TIP3   OH254982   6.882   1.715   1.262
11164TIP3    H154983   6.795   1.745   1.231
11164TIP3    H254984   6.927   1.802   1.257
11165TIP3   OH254985   7.138   1.878   1.291
11165TIP3    H154986   7.127   1.972   1.267
11165TIP3    H254987   7.161   1.840   1.204
11166TIP3   OH254988   5.877   1.751   1.034
11166TIP3    H154989   5.871   1.705   1.121
11166TIP3    H254990   5.959   1.715   0.995
11167TIP3   OH254991   6.084   1.623   0.902
11167TIP3    H154992   6.070   1.528   0.919
11167TIP3    H254993   6.172   1.636   0.944
11168TIP3   OH254994   6.348   1.670   0.986
11168TIP3    H154995   6.360   1.578   0.957
11168TIP3    H254996   6.347   1.664   1.083
11169TIP3   OH254997   6.691   0.241   0.899
11169TIP3    H154998   6.627   0.172   0.927
11169TIP3    H254999   6.751   0.187   0.845
11170TIP3   OH255000   7.198   0.049   0.921
11170TIP3    H155001   7.263   0.094   0.863
11170TIP3    H255002   7.114   0.078   0.885
11171TIP3   OH255003   5.932   0.102   0.675
11171TIP3    H155004   5.847   0.075   0.636
11171TIP3    H255005   5.973   0.015   0.688
11172TIP3   OH255006   5.783   0.117   0.206
11172TIP3    H155007   5.869   0.162   0.197
11172TIP3    H255008   5.752   0.141   0.296
11173TIP3   OH255009   6.405   0.129   0.696
11173TIP3    H155010   6.499   0.131   0.671
11173TIP3    H255011   6.389   0.065   0.766
11174TIP3   OH255012   6.932   0.113   0.832
11174TIP3    H155013   6.944   0.113   0.737
11174TIP3    H255014   6.918   0.015   0.843
11175TIP3   OH255015   7.068   0.093   0.392
11175TIP3    H155016   6.999   0.158   0.376
11175TIP3    H255017   7.027   0.009   0.411
11176TIP3   OH255018   5.798   1.669   0.357
11176TIP3    H155019   5.731   1.669   0.286
11176TIP3    H255020   5.800   1.764   0.378
11177TIP3   OH255021   5.991   0.263   0.109
11177TIP3    H155022   6.045   0.209   0.052
11177TIP3    H255023   6.056   0.300   0.171
11178TIP3   OH255024   6.488   0.292   0.352
11178TIP3    H155025   6.521   0.236   0.425
11178TIP3    H255026   6.497   0.379   0.397
11179TIP3   OH255027   6.682   1.822   0.201
11179TIP3    H155028   6.777   1.828   0.178
11179TIP3    H255029   6.664   1.757   0.128
11180TIP3   OH255030   5.913   0.152   1.628
11180TIP3    H155031   5.882   0.074   1.673
11180TIP3    H255032   6.006   0.151   1.662
11181TIP3   OH255033   6.102   0.105   1.784
11181TIP3    H155034   6.196   0.078   1.772
11181TIP3    H255035   6.084   0.020   1.829
11182TIP3   OH255036   5.983   1.766   0.054
11182TIP3    H155037   5.953   1.792   0.142
11182TIP3    H255038   6.058   1.709   0.074
11183TIP3   OH255039   6.957   7.385   1.805
11183TIP3    H155040   6.963   7.324   1.882
11183TIP3    H255041   7.044   7.363   1.769
11184TIP3   OH255042   7.272   1.620   1.683
11184TIP3    H155043   7.199   1.608   1.620
11184TIP3    H255044   7.267   1.718   1.696
11185TIP3   OH255045   1.180   2.897   0.674
11185TIP3    H155046   1.182   2.995   0.667
11185TIP3    H255047   1.110   2.873   0.612
11186TIP3   OH255048   1.067   2.824   1.022
11186TIP3    H155049   1.066   2.758   1.093
11186TIP3    H255050   1.035   2.775   0.945
11187TIP3   OH255051   0.306   2.788   1.176
11187TIP3    H155052   0.312   2.722   1.248
11187TIP3    H255053   0.378   2.848   1.199
11188TIP3   OH255054   1.438   3.118   0.849
11188TIP3    H155055   1.395   3.047   0.898
11188TIP3    H255056   1.439   3.189   0.916
11189TIP3   OH255057   0.394   3.234   1.030
11189TIP3    H155058   0.362   3.149   0.996
11189TIP3    H255059   0.490   3.215   1.034
11190TIP3   OH255060   0.079   2.594   0.553
11190TIP3    H155061   0.025   2.673   0.576
11190TIP3    H255062   0.007   2.539   0.529
11191TIP3   OH255063   0.129   2.811   0.786
11191TIP3    H155064   0.154   2.733   0.838
11191TIP3    H255065   0.203   2.822   0.725
11192TIP3   OH255066   1.143   3.630   0.871
11192TIP3    H155067   1.213   3.564   0.846
11192TIP3    H255068   1.131   3.604   0.962
11193TIP3   OH255069   0.905   3.065   1.066
11193TIP3    H155070   0.939   3.000   1.002
11193TIP3    H255071   0.984   3.079   1.121
11194TIP3   OH255072   1.768   2.228   1.143
11194TIP3    H155073   1.782   2.289   1.219
11194TIP3    H255074   1.821   2.272   1.075
11195TIP3   OH255075   1.222   2.510   1.099
11195TIP3    H155076   1.237   2.414   1.098
11195TIP3    H255077   1.212   2.525   1.002
11196TIP3   OH255078   0.536   2.318   0.823
11196TIP3    H155079   0.543   2.402   0.775
11196TIP3    H255080   0.493   2.262   0.754
11197TIP3   OH255081   1.308   2.328   0.659
11197TIP3    H155082   1.374   2.296   0.725
11197TIP3    H255083   1.363   2.383   0.602
11198TIP3   OH255084   0.199   2.558   0.890
11198TIP3    H155085   0.265   2.505   0.939
11198TIP3    H255086   0.208   2.526   0.800
11199TIP3   OH255087   0.713   2.715   0.824
11199TIP3    H155088   0.778   2.657   0.867
11199TIP3    H255089   0.659   2.648   0.777
11200TIP3   OH255090   1.811   2.371   1.369
11200TIP3    H155091   1.747   2.445   1.359
11200TIP3    H255092   1.814   2.359   1.464
11201TIP3   OH255093   0.423   2.209   1.226
11201TIP3    H155094   0.396   2.265   1.151
11201TIP3    H255095   0.354   2.232   1.293
11202TIP3   OH255096   1.153   3.158   0.581
11202TIP3    H155097   1.126   3.128   0.493
11202TIP3    H255098   1.123   3.250   0.585
11203TIP3   OH255099   0.677   2.973   1.252
11203TIP3    H155100   0.604   3.036   1.270
11203TIP3    H255101   0.747   3.033   1.222
11204TIP3   OH255102   1.487   2.261   0.858
11204TIP3    H155103   1.466   2.184   0.912
11204TIP3    H255104   1.554   2.305   0.913
11205TIP3   OH255105   0.378   2.393   1.027
11205TIP3    H155106   0.440   2.462   1.061
11205TIP3    H255107   0.433   2.352   0.956
11206TIP3   OH255108   0.519   3.172   1.332
11206TIP3    H155109   0.514   3.263   1.298
11206TIP3    H255110   0.431   3.165   1.376
11207TIP3   OH255111   0.128   3.140   0.410
11207TIP3    H155112   0.104   3.167   0.321
11207TIP3    H255113   0.134   3.222   0.462
11208TIP3   OH255114   1.490   3.301   1.086
11208TIP3    H155115   1.393   3.311   1.100
11208TIP3    H255116   1.517   3.393   1.068
11209TIP3   OH255117   1.522   2.130   1.226
11209TIP3    H155118   1.448   2.193   1.219
11209TIP3    H255119   1.592   2.172   1.173
11210TIP3   OH255120   0.820   1.941   0.972
11210TIP3    H155121   0.807   1.845   0.966
11210TIP3    H255122   0.732   1.972   1.002
11211TIP3   OH255123   1.312   3.480   0.745
11211TIP3    H155124   1.359   3.409   0.697
11211TIP3    H255125   1.356   3.559   0.707
11212TIP3   OH255126   1.435   3.272   0.597
11212TIP3    H155127   1.407   3.202   0.536
11212TIP3    H255128   1.439   3.224   0.682
11213TIP3   OH255129   1.599   3.130   1.447
11213TIP3    H155130   1.614   3.067   1.373
11213TIP3    H255131   1.618   3.216   1.405
11214TIP3   OH255132   1.048   2.822   0.422
11214TIP3    H155133   0.977   2.879   0.385
11214TIP3    H255134   1.118   2.829   0.355
11215TIP3   OH255135   1.050   2.670   0.132
11215TIP3    H155136   1.126   2.674   0.191
11215TIP3    H255137   1.084   2.609   0.066
11216TIP3   OH255138   1.786   2.762   1.252
11216TIP3    H155139   1.720   2.834   1.258
11216TIP3    H255140   1.834   2.785   1.171
11217TIP3   OH255141   1.391   2.844   0.517
11217TIP3    H155142   1.316   2.867   0.577
11217TIP3    H255143   1.437   2.774   0.567
11218TIP3   OH255144   1.384   2.659   1.427
11218TIP3    H155145   1.386   2.740   1.481
11218TIP3    H255146   1.321   2.689   1.358
11219TIP3   OH255147   0.555   2.909   0.707
11219TIP3    H155148   0.520   2.869   0.624
11219TIP3    H255149   0.615   2.839   0.741
11220TIP3   OH255150   0.689   3.251   0.973
11220TIP3    H155151   0.683   3.192   0.897
11220TIP3    H255152   0.763   3.211   1.022
11221TIP3   OH255153   0.588   2.783   1.072
11221TIP3    H155154   0.644   2.795   0.993
11221TIP3    H255155   0.624   2.850   1.135
11222TIP3   OH255156   1.227   3.339   1.143
11222TIP3    H155157   1.198   3.402   1.209
11222TIP3    H255158   1.202   3.253   1.186
11223TIP3   OH255159   0.679   3.223   1.545
11223TIP3    H155160   0.644   3.303   1.589
11223TIP3    H255161   0.614   3.208   1.472
11224TIP3   OH255162   1.279   2.759   0.284
11224TIP3    H155163   1.335   2.779   0.363
11224TIP3    H255164   1.320   2.813   0.214
11225TIP3   OH255165   0.376   2.842   1.465
11225TIP3    H155166   0.378   2.913   1.531
11225TIP3    H255167   0.284   2.852   1.433
11226TIP3   OH255168   1.043   3.434   0.636
11226TIP3    H155169   1.099   3.464   0.709
11226TIP3    H255170   1.001   3.510   0.597
11227TIP3   OH255171   0.506   3.430   1.618
11227TIP3    H155172   0.499   3.419   1.521
11227TIP3    H255173   0.412   3.418   1.644
11228TIP3   OH255174   1.651   1.936   0.272
11228TIP3    H155175   1.556   1.948   0.295
11228TIP3    H255176   1.671   2.020   0.228
11229TIP3   OH255177   0.453   2.811   0.468
11229TIP3    H155178   0.424   2.889   0.416
11229TIP3    H255179   0.385   2.746   0.447
11230TIP3   OH255180   1.761   3.370   0.109
11230TIP3    H155181   1.774   3.466   0.121
11230TIP3    H255182   1.854   3.342   0.101
11231TIP3   OH255183   0.098   3.044   1.336
11231TIP3    H155184   0.024   3.049   1.271
11231TIP3    H255185   0.070   2.960   1.377
11232TIP3   OH255186   0.047   3.337   1.023
11232TIP3    H155187   0.138   3.312   1.036
11232TIP3    H255188   0.030   3.403   1.091
11233TIP3   OH255189   1.859   3.397   1.604
11233TIP3    H155190   1.849   3.301   1.602
11233TIP3    H255191   1.772   3.421   1.644
11234TIP3   OH255192   0.955   3.351   1.491
11234TIP3    H155193   0.962   3.436   1.541
11234TIP3    H255194   0.868   3.317   1.517
11235TIP3   OH255195   0.993   3.726   0.474
11235TIP3    H155196   0.991   3.719   0.375
11235TIP3    H255197   1.003   3.823   0.485
11236TIP3   OH255198   0.363   3.613   0.652
11236TIP3    H155199   0.376   3.570   0.738
11236TIP3    H255200   0.279   3.573   0.626
11237TIP3   OH255201   1.301   3.646   0.169
11237TIP3    H155202   1.348   3.571   0.124
11237TIP3    H255203   1.308   3.620   0.263
11238TIP3   OH255204   1.273   3.640   0.448
11238TIP3    H155205   1.178   3.647   0.465
11238TIP3    H255206   1.300   3.566   0.504
11239TIP3   OH255207   1.573   2.544   1.652
11239TIP3    H155208   1.528   2.590   1.580
11239TIP3    H255209   1.574   2.453   1.621
11240TIP3   OH255210   0.288   3.187   1.453
11240TIP3    H155211   0.306   3.148   1.540
11240TIP3    H255212   0.202   3.146   1.429
11241TIP3   OH255213   0.555   2.031   1.048
11241TIP3    H155214   0.465   2.021   1.011
11241TIP3    H255215   0.544   2.116   1.095
11242TIP3   OH255216   1.019   2.000   1.385
11242TIP3    H155217   1.059   1.958   1.463
11242TIP3    H255218   0.922   1.986   1.399
11243TIP3   OH255219   1.349   2.382   1.474
11243TIP3    H155220   1.294   2.363   1.553
11243TIP3    H255221   1.331   2.474   1.450
11244TIP3   OH255222   1.433   2.873   0.064
11244TIP3    H155223   1.432   2.849  -0.031
11244TIP3    H255224   1.522   2.911   0.073
11245TIP3   OH255225   0.983   2.256   0.117
11245TIP3    H155226   0.954   2.252   0.210
11245TIP3    H255227   0.958   2.167   0.088
11246TIP3   OH255228   0.564   2.528   1.168
11246TIP3    H155229   0.492   2.526   1.235
11246TIP3    H255230   0.560   2.621   1.136
11247TIP3   OH255231   0.561   2.544   0.657
11247TIP3    H155232   0.468   2.516   0.645
11247TIP3    H255233   0.601   2.512   0.574
11248TIP3   OH255234   1.113   2.590   0.534
11248TIP3    H155235   1.072   2.673   0.502
11248TIP3    H255236   1.184   2.576   0.468
11249TIP3   OH255237   1.020   2.611   1.681
11249TIP3    H155238   0.966   2.535   1.712
11249TIP3    H255239   1.104   2.598   1.728
11250TIP3   OH255240   1.216   2.539   0.819
11250TIP3    H155241   1.190   2.596   0.745
11250TIP3    H255242   1.228   2.454   0.772
11251TIP3   OH255243   0.332   2.555   1.343
11251TIP3    H155244   0.332   2.597   1.431
11251TIP3    H255245   0.283   2.473   1.359
11252TIP3   OH255246   0.685   2.322   0.059
11252TIP3    H155247   0.631   2.256   0.107
11252TIP3    H255248   0.624   2.350  -0.011
11253TIP3   OH255249   0.012   2.283   0.727
11253TIP3    H155250   0.061   2.262   0.808
11253TIP3    H255251   0.044   2.223   0.660
11254TIP3   OH255252   0.122   2.348   0.277
11254TIP3    H155253   0.173   2.404   0.215
11254TIP3    H255254   0.050   2.404   0.303
11255TIP3   OH255255   1.138   2.699   1.278
11255TIP3    H155256   1.174   2.632   1.218
11255TIP3    H255257   1.092   2.646   1.345
11256TIP3   OH255258   0.817   2.295   0.759
11256TIP3    H155259   0.724   2.297   0.789
11256TIP3    H255260   0.866   2.282   0.842
11257TIP3   OH255261   0.303   2.453   0.643
11257TIP3    H155262   0.213   2.467   0.608
11257TIP3    H255263   0.327   2.367   0.605
11258TIP3   OH255264   0.663   2.457   0.410
11258TIP3    H155265   0.758   2.467   0.427
11258TIP3    H255266   0.640   2.523   0.342
11259TIP3   OH255267   1.258   2.219   1.085
11259TIP3    H155268   1.189   2.226   1.154
11259TIP3    H255269   1.207   2.196   1.005
11260TIP3   OH255270   0.534   2.574   0.167
11260TIP3    H155271   0.478   2.538   0.097
11260TIP3    H255272   0.616   2.594   0.120
11261TIP3   OH255273   1.580   3.784   1.716
11261TIP3    H155274   1.605   3.824   1.631
11261TIP3    H255275   1.651   3.817   1.773
11262TIP3   OH255276   0.349   3.026   1.675
11262TIP3    H155277   0.418   3.062   1.730
11262TIP3    H255278   0.268   3.047   1.729
11263TIP3   OH255279   0.946   2.571   0.949
11263TIP3    H155280   1.005   2.518   0.895
11263TIP3    H255281   0.932   2.517   1.028
11264TIP3   OH255282   0.447   2.187   0.593
11264TIP3    H155283   0.416   2.094   0.589
11264TIP3    H255284   0.527   2.181   0.537
11265TIP3   OH255285   0.810   2.406   1.190
11265TIP3    H155286   0.727   2.456   1.200
11265TIP3    H255287   0.864   2.439   1.264
11266TIP3   OH255288   0.869   3.028   0.361
11266TIP3    H155289   0.789   2.980   0.328
11266TIP3    H255290   0.849   3.037   0.456
11267TIP3   OH255291   1.585   2.946   1.240
11267TIP3    H155292   1.643   2.993   1.179
11267TIP3    H255293   1.499   2.953   1.193
11268TIP3   OH255294   1.254   2.311   0.179
11268TIP3    H155295   1.160   2.324   0.162
11268TIP3    H255296   1.285   2.397   0.212
11269TIP3   OH255297   1.017   3.052   1.484
11269TIP3    H155298   0.983   3.011   1.564
11269TIP3    H255299   0.993   3.145   1.494
11270TIP3   OH255300   1.325   2.500   0.345
11270TIP3    H155301   1.416   2.486   0.378
11270TIP3    H255302   1.333   2.581   0.291
11271TIP3   OH255303   0.380   2.966   0.939
11271TIP3    H155304   0.450   2.958   0.872
11271TIP3    H255305   0.385   2.880   0.984
11272TIP3   OH255306   1.079   3.174   0.263
11272TIP3    H155307   1.045   3.258   0.299
11272TIP3    H255308   1.005   3.113   0.283
11273TIP3   OH255309   0.100   2.787   1.443
11273TIP3    H155310   0.107   2.763   1.537
11273TIP3    H255311   0.017   2.745   1.421
11274TIP3   OH255312   0.778   2.763   1.687
11274TIP3    H155313   0.750   2.735   1.598
11274TIP3    H255314   0.872   2.733   1.685
11275TIP3   OH255315   1.246   3.295   1.478
11275TIP3    H155316   1.154   3.314   1.455
11275TIP3    H255317   1.245   3.324   1.571
11276TIP3   OH255318   1.815   2.515   0.320
11276TIP3    H155319   1.758   2.483   0.249
11276TIP3    H255320   1.824   2.609   0.290
11277TIP3   OH255321   1.813   3.101   1.600
11277TIP3    H155322   1.725   3.123   1.562
11277TIP3    H255323   1.869   3.097   1.520
11278TIP3   OH255324   1.643   3.398   0.357
11278TIP3    H155325   1.607   3.315   0.391
11278TIP3    H255326   1.674   3.378   0.267
11279TIP3   OH255327   1.364   2.879   1.067
11279TIP3    H155328   1.269   2.857   1.059
11279TIP3    H255329   1.407   2.802   1.027
11280TIP3   OH255330   0.615   3.312   0.680
11280TIP3    H155331   0.665   3.390   0.655
11280TIP3    H255332   0.527   3.333   0.646
11281TIP3   OH255333   0.186   2.795   0.137
11281TIP3    H155334   0.251   2.859   0.173
11281TIP3    H255335   0.102   2.829   0.166
11282TIP3   OH255336   0.760   3.079   0.633
11282TIP3    H155337   0.728   3.170   0.639
11282TIP3    H255338   0.686   3.030   0.674
11283TIP3   OH255339   0.805   3.496   1.267
11283TIP3    H155340   0.848   3.579   1.243
11283TIP3    H255341   0.864   3.463   1.338
11284TIP3   OH255342   0.630   3.579   0.591
11284TIP3    H155343   0.531   3.589   0.595
11284TIP3    H255344   0.655   3.669   0.617
11285TIP3   OH255345   1.159   3.099   1.234
11285TIP3    H155346   1.122   3.078   1.322
11285TIP3    H255347   1.221   3.027   1.217
11286TIP3   OH255348   1.386   3.200   0.145
11286TIP3    H155349   1.417   3.155   0.226
11286TIP3    H255350   1.290   3.185   0.153
11287TIP3   OH255351   1.435   3.556   1.483
11287TIP3    H155352   1.368   3.505   1.433
11287TIP3    H255353   1.456   3.625   1.417
11288TIP3   OH255354   1.835   3.642   0.169
11288TIP3    H155355   1.906   3.704   0.146
11288TIP3    H255356   1.763   3.703   0.195
11289TIP3   OH255357   0.243   2.280   1.418
11289TIP3    H155358   0.153   2.316   1.420
11289TIP3    H255359   0.231   2.196   1.466
11290TIP3   OH255360   1.468   3.065   0.366
11290TIP3    H155361   1.444   2.987   0.420
11290TIP3    H255362   1.563   3.073   0.387
11291TIP3   OH255363   0.209   3.465   1.261
11291TIP3    H155364   0.230   3.369   1.263
11291TIP3    H255365   0.230   3.486   1.353
11292TIP3   OH255366   0.682   3.266   0.233
11292TIP3    H155367   0.703   3.211   0.310
11292TIP3    H255368   0.687   3.357   0.266
11293TIP3   OH255369   0.329   2.988   0.284
11293TIP3    H155370   0.263   3.028   0.344
11293TIP3    H255371   0.384   3.065   0.260
11294TIP3   OH255372   1.116   2.257   1.315
11294TIP3    H155373   1.187   2.263   1.380
11294TIP3    H255374   1.078   2.169   1.334
11295TIP3   OH255375   1.191   2.218   0.425
11295TIP3    H155376   1.216   2.265   0.343
11295TIP3    H255377   1.250   2.259   0.490
11296TIP3   OH255378   0.960   3.434   0.309
11296TIP3    H155379   0.877   3.483   0.313
11296TIP3    H255380   1.014   3.483   0.244
11297TIP3   OH255381   0.913   2.391   0.507
11297TIP3    H155382   0.993   2.447   0.510
11297TIP3    H255383   0.888   2.378   0.600
11298TIP3   OH255384   0.969   2.492   1.426
11298TIP3    H155385   0.977   2.549   1.504
11298TIP3    H255386   1.035   2.423   1.436
11299TIP3   OH255387   1.000   2.097   0.597
11299TIP3    H155388   0.967   2.162   0.662
11299TIP3    H255389   1.068   2.152   0.551
11300TIP3   OH255390   0.697   3.536   0.311
11300TIP3    H155391   0.710   3.618   0.258
11300TIP3    H255392   0.670   3.571   0.397
11301TIP3   OH255393   0.567   2.206   0.269
11301TIP3    H155394   0.559   2.297   0.305
11301TIP3    H255395   0.657   2.183   0.297
11302TIP3   OH255396   1.588   2.280   1.511
11302TIP3    H155397   1.495   2.310   1.498
11302TIP3    H255398   1.618   2.280   1.418
11303TIP3   OH255399   1.448   2.658   0.914
11303TIP3    H155400   1.366   2.614   0.884
11303TIP3    H255401   1.495   2.589   0.965
11304TIP3   OH255402   0.390   3.251   0.173
11304TIP3    H155403   0.454   3.316   0.202
11304TIP3    H255404   0.441   3.206   0.102
11305TIP3   OH255405   0.233   2.518   0.088
11305TIP3    H155406   0.225   2.613   0.105
11305TIP3    H255407   0.143   2.496   0.062
11306TIP3   OH255408   1.555   3.583   1.080
11306TIP3    H155409   1.544   3.652   1.011
11306TIP3    H255410   1.651   3.590   1.098
11307TIP3   OH255411   0.304   1.997   0.957
11307TIP3    H155412   0.284   1.999   0.860
11307TIP3    H255413   0.261   1.913   0.984
11308TIP3   OH255414   0.203   3.388   0.574
11308TIP3    H155415   0.116   3.432   0.570
11308TIP3    H255416   0.250   3.438   0.506
11309TIP3   OH255417   0.135   3.653   1.701
11309TIP3    H155418   0.185   3.629   1.781
11309TIP3    H255419   0.081   3.572   1.686
11310TIP3   OH255420   0.588   3.543   1.864
11310TIP3    H155421   0.665   3.495   1.897
11310TIP3    H255422   0.586   3.517   1.770
11311TIP3   OH255423   1.042   3.510   0.057
11311TIP3    H155424   0.958   3.459   0.057
11311TIP3    H255425   1.085   3.455  -0.008
11312TIP3   OH255426   1.241   3.383   1.738
11312TIP3    H155427   1.209   3.294   1.765
11312TIP3    H255428   1.317   3.395   1.798
11313TIP3   OH255429   1.458   3.475   0.024
11313TIP3    H155430   1.485   3.394   0.072
11313TIP3    H255431   1.535   3.496  -0.031
11314TIP3   OH255432   0.127   3.030   1.798
11314TIP3    H155433   0.129   2.937   1.770
11314TIP3    H255434   0.042   3.060   1.757
11315TIP3   OH255435   0.556   3.072   0.016
11315TIP3    H155436   0.561   2.988   0.064
11315TIP3    H255437   0.614   3.050  -0.059
11316TIP3   OH255438   0.780   3.029   1.742
11316TIP3    H155439   0.752   3.060   1.654
11316TIP3    H255440   0.796   2.933   1.730
11317TIP3   OH255441   1.354   3.016   1.480
11317TIP3    H155442   1.432   3.076   1.471
11317TIP3    H255443   1.282   3.081   1.484
11318TIP3   OH255444   0.201   2.752   1.740
11318TIP3    H155445   0.243   2.665   1.729
11318TIP3    H255446   0.177   2.751   1.834
11319TIP3   OH255447   0.668   2.868   0.244
11319TIP3    H155448   0.619   2.815   0.309
11319TIP3    H255449   0.697   2.799   0.180
11320TIP3   OH255450   0.595   2.651   1.479
11320TIP3    H155451   0.532   2.720   1.502
11320TIP3    H255452   0.632   2.684   1.395
11321TIP3   OH255453   0.774   2.686   0.068
11321TIP3    H155454   0.760   2.673  -0.027
11321TIP3    H255455   0.872   2.696   0.074
11322TIP3   OH255456   1.100   2.903   1.808
11322TIP3    H155457   1.196   2.905   1.800
11322TIP3    H255458   1.083   2.828   1.866
11323TIP3   OH255459   1.691   2.936  16.020
11323TIP3    H155460   1.685   2.885  15.937
11323TIP3    H255461   1.716   3.024  15.990
11324TIP3   OH255462   0.634   2.386   1.584
11324TIP3    H155463   0.645   2.314   1.519
11324TIP3    H255464   0.628   2.467   1.528
11325TIP3   OH255465   0.674   2.224   1.337
11325TIP3    H155466   0.725   2.270   1.267
11325TIP3    H255467   0.585   2.215   1.295
11326TIP3   OH255468   0.829   2.771   1.361
11326TIP3    H155469   0.904   2.755   1.303
11326TIP3    H255470   0.793   2.855   1.329
11327TIP3   OH255471   1.269   2.549   1.859
11327TIP3    H155472   1.291   2.455   1.849
11327TIP3    H255473   1.356   2.592   1.861
11328TIP3   OH255474   1.401   2.827   1.672
11328TIP3    H155475   1.376   2.900   1.612
11328TIP3    H255476   1.497   2.824   1.654
11329TIP3   OH255477   0.477   2.513   1.774
11329TIP3    H155478   0.401   2.452   1.756
11329TIP3    H255479   0.544   2.475   1.714
11330TIP3   OH255480   0.753   1.968   1.378
11330TIP3    H155481   0.738   2.065   1.367
11330TIP3    H255482   0.678   1.932   1.327
11331TIP3   OH255483   0.880   2.401   1.737
11331TIP3    H155484   0.850   2.378   1.827
11331TIP3    H255485   0.801   2.381   1.684
11332TIP3   OH255486   1.152   2.314   1.645
11332TIP3    H155487   1.055   2.319   1.657
11332TIP3    H255488   1.180   2.251   1.713
11333TIP3   OH255489   1.312   2.177   1.839
11333TIP3    H155490   1.305   2.080   1.841
11333TIP3    H255491   1.284   2.206   1.928
11334TIP3   OH255492   0.295   2.303   1.748
11334TIP3    H155493   0.315   2.229   1.688
11334TIP3    H255494   0.282   2.257   1.834
11335TIP3   OH255495   0.774   1.904   1.647
11335TIP3    H155496   0.844   1.836   1.643
11335TIP3    H255497   0.764   1.923   1.551
11336TIP3   OH255498   0.811   2.068   1.855
11336TIP3    H155499   0.794   2.018   1.771
11336TIP3    H255500   0.750   2.144   1.846
11337TIP3   OH255501   0.759   3.756   0.170
11337TIP3    H155502   0.856   3.771   0.180
11337TIP3    H255503   0.737   3.823   0.105
11338TIP3   OH255504   0.118   3.218   0.123
11338TIP3    H155505   0.214   3.229   0.144
11338TIP3    H255506   0.121   3.157   0.048
11339TIP3   OH255507   7.352   3.766   0.614
11339TIP3    H155508   7.271   3.732   0.571
11339TIP3    H255509   7.369   3.695   0.681
11340TIP3   OH255510   0.068   3.572   0.802
11340TIP3    H155511   0.040   3.480   0.823
11340TIP3    H255512   0.096   3.600   0.890
11341TIP3   OH255513   1.827   3.648   1.100
11341TIP3    H155514   1.829   3.666   1.196
11341TIP3    H255515   1.897   3.706   1.069
11342TIP3   OH255516   1.784   3.608   1.394
11342TIP3    H155517   1.737   3.531   1.357
11342TIP3    H255518   1.836   3.564   1.464
11343TIP3   OH255519   1.629   3.181   1.860
11343TIP3    H155520   1.539   3.176   1.898
11343TIP3    H255521   1.666   3.260   1.903
11344TIP3   OH255522   1.761   3.012   0.405
11344TIP3    H155523   1.846   3.053   0.424
11344TIP3    H255524   1.759   2.939   0.472
11345TIP3   OH255525   1.797   2.819   0.592
11345TIP3    H155526   1.723   2.768   0.631
11345TIP3    H255527   1.857   2.835   0.668
11346TIP3   OH255528   1.773   3.091   1.090
11346TIP3    H155529   1.855   3.054   1.055
11346TIP3    H255530   1.787   3.187   1.074
11347TIP3   OH255531   1.627   3.381   1.319
11347TIP3    H155532   1.558   3.414   1.378
11347TIP3    H255533   1.572   3.339   1.248
11348TIP3   OH255534   1.827   2.804   0.232
11348TIP3    H155535   1.769   2.840   0.162
11348TIP3    H255536   1.820   2.874   0.299
11349TIP3   OH255537   1.626   2.529   0.095
11349TIP3    H155538   1.667   2.590   0.031
11349TIP3    H255539   1.645   2.447   0.047
11350TIP3   OH255540   1.578   2.668   0.649
11350TIP3    H155541   1.563   2.572   0.646
11350TIP3    H255542   1.544   2.692   0.736
11351TIP3   OH255543   0.078   2.875   1.052
11351TIP3    H155544   0.097   2.869   0.956
11351TIP3    H255545   0.166   2.861   1.092
11352TIP3   OH255546   1.663   2.865   1.616
11352TIP3    H155547   1.724   2.789   1.632
11352TIP3    H255548   1.723   2.942   1.618
11353TIP3   OH255549   1.814   2.654   1.683
11353TIP3    H155550   1.726   2.614   1.666
11353TIP3    H255551   1.872   2.577   1.675
11354TIP3   OH255552   1.545   2.427   0.495
11354TIP3    H155553   1.576   2.334   0.507
11354TIP3    H255554   1.624   2.467   0.457
11355TIP3   OH255555   1.609   2.481   1.039
11355TIP3    H155556   1.705   2.504   1.037
11355TIP3    H255557   1.589   2.495   1.133
11356TIP3   OH255558   1.615   2.553   1.318
11356TIP3    H155559   1.528   2.583   1.351
11356TIP3    H255560   1.658   2.640   1.295
11357TIP3   OH255561   0.058   2.398   1.669
11357TIP3    H155562   0.148   2.380   1.695
11357TIP3    H255563   0.000   2.325   1.703
11358TIP3   OH255564   1.842   1.957   1.853
11358TIP3    H155565   1.877   1.892   1.790
11358TIP3    H255566   1.854   2.040   1.802
11359TIP3   OH255567   1.612   2.154   0.499
11359TIP3    H155568   1.632   2.109   0.583
11359TIP3    H255569   1.550   2.092   0.454
11360TIP3   OH255570   0.157   2.232   0.956
11360TIP3    H155571   0.209   2.153   0.982
11360TIP3    H255572   0.211   2.303   0.996
11361TIP3   OH255573   0.063   2.579   1.097
11361TIP3    H155574   0.059   2.544   1.005
11361TIP3    H255575   0.034   2.668   1.078
11362TIP3   OH255576   1.795   2.168   1.688
11362TIP3    H155577   1.701   2.195   1.682
11362TIP3    H255578   1.800   2.114   1.607
11363TIP3   OH255579   1.796   2.159   0.156
11363TIP3    H155580   1.836   2.089   0.105
11363TIP3    H255581   1.866   2.226   0.156
11364TIP3   OH255582   0.063   2.163   0.444
11364TIP3    H155583  -0.032   2.181   0.442
11364TIP3    H255584   0.089   2.225   0.374
11365TIP3   OH255585   1.499   3.656   0.662
11365TIP3    H155586   1.567   3.625   0.599
11365TIP3    H255587   1.552   3.706   0.726
11366TIP3   OH255588   7.378   2.026   1.307
11366TIP3    H155589   7.302   2.005   1.364
11366TIP3    H255590   7.325   2.084   1.248
11367TIP3   OH255591   0.244   3.349   1.716
11367TIP3    H155592   0.162   3.368   1.669
11367TIP3    H255593   0.214   3.341   1.806
11368TIP3   OH255594   0.535   3.448   1.341
11368TIP3    H155595   0.496   3.532   1.312
11368TIP3    H255596   0.627   3.458   1.309
11369TIP3   OH255597   0.966   3.589   1.632
11369TIP3    H155598   0.982   3.554   1.723
11369TIP3    H255599   1.055   3.620   1.605
11370TIP3   OH255600   1.196   3.716   1.561
11370TIP3    H155601   1.269   3.656   1.537
11370TIP3    H255602   1.234   3.759   1.641
11371TIP3   OH255603   1.696   1.978   1.471
11371TIP3    H155604   1.613   2.007   1.430
11371TIP3    H255605   1.714   1.897   1.418
11372TIP3   OH255606   0.278   3.773   1.342
11372TIP3    H155607   0.201   3.817   1.304
11372TIP3    H255608   0.243   3.750   1.430
11373TIP3   OH255609   0.524   3.730   1.247
11373TIP3    H155610   0.436   3.743   1.289
11373TIP3    H255611   0.518   3.789   1.170
11374TIP3   OH255612   0.994   3.721   1.164
11374TIP3    H155613   0.947   3.777   1.100
11374TIP3    H255614   1.009   3.783   1.238
11375TIP3   OH255615   1.225   3.604   1.264
11375TIP3    H155616   1.137   3.629   1.232
11375TIP3    H255617   1.270   3.690   1.255
11376TIP3   OH255618   1.483   3.761   1.290
11376TIP3    H155619   1.473   3.856   1.267
11376TIP3    H255620   1.503   3.724   1.202
11377TIP3   OH255621   0.220   3.641   1.035
11377TIP3    H155622   0.216   3.591   1.120
11377TIP3    H255623   0.299   3.599   0.995
11378TIP3   OH255624   0.431   3.509   0.899
11378TIP3    H155625   0.410   3.415   0.921
11378TIP3    H255626   0.515   3.520   0.948
11379TIP3   OH255627   0.693   3.556   0.983
11379TIP3    H155628   0.704   3.461   0.962
11379TIP3    H255629   0.692   3.551   1.081
11380TIP3   OH255630   1.036   2.121   0.901
11380TIP3    H155631   0.968   2.057   0.928
11380TIP3    H255632   1.091   2.069   0.842
11381TIP3   OH255633   1.549   1.927   0.910
11381TIP3    H155634   1.611   1.985   0.858
11381TIP3    H255635   1.462   1.962   0.885
11382TIP3   OH255636   1.718   2.048   0.739
11382TIP3    H155637   1.785   1.993   0.693
11382TIP3    H255638   1.765   2.134   0.746
11383TIP3   OH255639   0.270   1.983   0.686
11383TIP3    H155640   0.193   1.961   0.630
11383TIP3    H255641   0.322   1.900   0.679
11384TIP3   OH255642   0.189   1.971   0.274
11384TIP3    H155643   0.203   2.028   0.197
11384TIP3    H255644   0.104   2.005   0.311
11385TIP3   OH255645   0.722   1.976   0.664
11385TIP3    H155646   0.812   2.013   0.659
11385TIP3    H255647   0.716   1.955   0.757
11386TIP3   OH255648   1.289   1.978   0.828
11386TIP3    H155649   1.288   1.988   0.732
11386TIP3    H255650   1.253   1.887   0.840
11387TIP3   OH255651   1.418   1.981   0.395
11387TIP3    H155652   1.345   2.042   0.377
11387TIP3    H255653   1.373   1.896   0.413
11388TIP3   OH255654   0.155   3.560   0.351
11388TIP3    H155655   0.077   3.554   0.292
11388TIP3    H255656   0.143   3.652   0.377
11389TIP3   OH255657   0.334   2.153   0.108
11389TIP3    H155658   0.386   2.091   0.055
11389TIP3    H255659   0.399   2.184   0.173
11390TIP3   OH255660   0.837   2.179   0.350
11390TIP3    H155661   0.861   2.120   0.424
11390TIP3    H255662   0.840   2.265   0.398
11391TIP3   OH255663   1.025   3.706   0.204
11391TIP3    H155664   1.119   3.713   0.179
11391TIP3    H255665   1.007   3.643   0.129
11392TIP3   OH255666   1.700   3.636   0.464
11392TIP3    H155667   1.679   3.559   0.406
11392TIP3    H255668   1.692   3.710   0.401
11393TIP3   OH255669   0.258   2.040   1.636
11393TIP3    H155670   0.225   1.957   1.674
11393TIP3    H255671   0.352   2.035   1.666
11394TIP3   OH255672   0.462   1.975   1.793
11394TIP3    H155673   0.551   1.941   1.772
11394TIP3    H255674   0.423   1.895   1.835
11395TIP3   OH255675   0.329   3.651   0.054
11395TIP3    H155676   0.296   3.680   0.140
11395TIP3    H255677   0.402   3.595   0.075
11396TIP3   OH255678   1.302   1.905   1.809
11396TIP3    H155679   1.312   1.858   1.894
11396TIP3    H255680   1.394   1.902   1.774
11397TIP3   OH255681   1.623   3.509   1.674
11397TIP3    H155682   1.542   3.495   1.621
11397TIP3    H255683   1.612   3.604   1.696
11398TIP3   OH255684   3.066   2.897   0.674
11398TIP3    H155685   3.068   2.995   0.666
11398TIP3    H255686   2.995   2.873   0.612
11399TIP3   OH255687   2.953   2.824   1.022
11399TIP3    H155688   2.951   2.758   1.093
11399TIP3    H255689   2.920   2.775   0.945
11400TIP3   OH255690   2.189   2.789   1.177
11400TIP3    H155691   2.197   2.722   1.249
11400TIP3    H255692   2.263   2.848   1.199
11401TIP3   OH255693   3.323   3.119   0.850
11401TIP3    H155694   3.281   3.047   0.897
11401TIP3    H255695   3.323   3.189   0.918
11402TIP3   OH255696   2.282   3.234   1.030
11402TIP3    H155697   2.249   3.149   0.995
11402TIP3    H255698   2.377   3.215   1.034
11403TIP3   OH255699   1.946   2.592   0.575
11403TIP3    H155700   1.901   2.679   0.570
11403TIP3    H255701   1.889   2.538   0.519
11404TIP3   OH255702   2.016   2.814   0.788
11404TIP3    H155703   2.041   2.733   0.836
11404TIP3    H255704   2.088   2.823   0.724
11405TIP3   OH255705   3.034   3.633   0.873
11405TIP3    H155706   3.098   3.562   0.846
11405TIP3    H255707   3.014   3.603   0.962
11406TIP3   OH255708   2.791   3.065   1.066
11406TIP3    H155709   2.825   3.000   1.002
11406TIP3    H255710   2.870   3.079   1.121
11407TIP3   OH255711   3.653   2.228   1.143
11407TIP3    H155712   3.668   2.289   1.219
11407TIP3    H255713   3.706   2.272   1.075
11408TIP3   OH255714   3.108   2.510   1.099
11408TIP3    H155715   3.123   2.414   1.098
11408TIP3    H255716   3.097   2.525   1.002
11409TIP3   OH255717   2.420   2.318   0.822
11409TIP3    H155718   2.429   2.403   0.775
11409TIP3    H255719   2.378   2.261   0.754
11410TIP3   OH255720   3.193   2.328   0.659
11410TIP3    H155721   3.259   2.296   0.725
11410TIP3    H255722   3.249   2.383   0.602
11411TIP3   OH255723   2.082   2.559   0.896
11411TIP3    H155724   2.149   2.504   0.940
11411TIP3    H255725   2.091   2.529   0.804
11412TIP3   OH255726   2.598   2.715   0.824
11412TIP3    H155727   2.664   2.657   0.867
11412TIP3    H255728   2.544   2.648   0.777
11413TIP3   OH255729   3.697   2.371   1.369
11413TIP3    H155730   3.632   2.445   1.359
11413TIP3    H255731   3.699   2.359   1.464
11414TIP3   OH255732   2.308   2.208   1.227
11414TIP3    H155733   2.281   2.265   1.151
11414TIP3    H255734   2.240   2.232   1.294
11415TIP3   OH255735   3.040   3.157   0.581
11415TIP3    H155736   3.012   3.129   0.493
11415TIP3    H255737   3.008   3.250   0.586
11416TIP3   OH255738   2.562   2.973   1.252
11416TIP3    H155739   2.490   3.037   1.270
11416TIP3    H255740   2.632   3.033   1.223
11417TIP3   OH255741   3.372   2.261   0.858
11417TIP3    H155742   3.351   2.184   0.912
11417TIP3    H255743   3.440   2.305   0.913
11418TIP3   OH255744   2.264   2.395   1.027
11418TIP3    H155745   2.328   2.463   1.060
11418TIP3    H255746   2.317   2.352   0.956
11419TIP3   OH255747   2.405   3.172   1.333
11419TIP3    H155748   2.401   3.263   1.298
11419TIP3    H255749   2.317   3.165   1.377
11420TIP3   OH255750   2.013   3.136   0.412
11420TIP3    H155751   1.989   3.167   0.322
11420TIP3    H255752   2.020   3.220   0.461
11421TIP3   OH255753   3.376   3.301   1.084
11421TIP3    H155754   3.279   3.311   1.100
11421TIP3    H255755   3.402   3.394   1.070
11422TIP3   OH255756   3.407   2.130   1.226
11422TIP3    H155757   3.334   2.193   1.219
11422TIP3    H255758   3.477   2.172   1.173
11423TIP3   OH255759   2.706   1.941   0.972
11423TIP3    H155760   2.692   1.845   0.966
11423TIP3    H255761   2.618   1.972   1.002
11424TIP3   OH255762   3.204   3.479   0.748
11424TIP3    H155763   3.243   3.407   0.695
11424TIP3    H255764   3.238   3.561   0.706
11425TIP3   OH255765   3.321   3.274   0.599
11425TIP3    H155766   3.294   3.204   0.536
11425TIP3    H255767   3.325   3.223   0.681
11426TIP3   OH255768   3.485   3.130   1.447
11426TIP3    H155769   3.499   3.067   1.373
11426TIP3    H255770   3.504   3.216   1.405
11427TIP3   OH255771   2.933   2.822   0.423
11427TIP3    H155772   2.863   2.879   0.385
11427TIP3    H255773   3.003   2.829   0.355
11428TIP3   OH255774   2.935   2.670   0.132
11428TIP3    H155775   3.011   2.674   0.191
11428TIP3    H255776   2.970   2.609   0.066
11429TIP3   OH255777   3.672   2.762   1.252
11429TIP3    H155778   3.606   2.834   1.258
11429TIP3    H255779   3.720   2.785   1.171
11430TIP3   OH255780   3.275   2.842   0.517
11430TIP3    H155781   3.201   2.867   0.578
11430TIP3    H255782   3.323   2.774   0.567
11431TIP3   OH255783   3.270   2.659   1.427
11431TIP3    H155784   3.271   2.740   1.481
11431TIP3    H255785   3.206   2.689   1.358
11432TIP3   OH255786   2.439   2.909   0.707
11432TIP3    H155787   2.407   2.869   0.623
11432TIP3    H255788   2.500   2.839   0.741
11433TIP3   OH255789   2.572   3.249   0.975
11433TIP3    H155790   2.569   3.193   0.896
11433TIP3    H255791   2.649   3.212   1.022
11434TIP3   OH255792   2.473   2.783   1.072
11434TIP3    H155793   2.529   2.794   0.993
11434TIP3    H255794   2.510   2.849   1.134
11435TIP3   OH255795   3.111   3.339   1.143
11435TIP3    H155796   3.084   3.402   1.210
11435TIP3    H255797   3.087   3.253   1.186
11436TIP3   OH255798   2.567   3.225   1.543
11436TIP3    H155799   2.528   3.301   1.590
11436TIP3    H255800   2.499   3.207   1.473
11437TIP3   OH255801   3.164   2.759   0.284
11437TIP3    H155802   3.220   2.779   0.363
11437TIP3    H255803   3.205   2.813   0.214
11438TIP3   OH255804   2.260   2.842   1.460
11438TIP3    H155805   2.264   2.909   1.532
11438TIP3    H255806   2.167   2.852   1.435
11439TIP3   OH255807   2.936   3.434   0.630
11439TIP3    H155808   2.980   3.465   0.709
11439TIP3    H255809   2.880   3.509   0.605
11440TIP3   OH255810   2.391   3.430   1.618
11440TIP3    H155811   2.387   3.419   1.522
11440TIP3    H255812   2.297   3.418   1.644
11441TIP3   OH255813   3.537   1.936   0.272
11441TIP3    H155814   3.442   1.948   0.295
11441TIP3    H255815   3.557   2.020   0.228
11442TIP3   OH255816   2.337   2.812   0.468
11442TIP3    H155817   2.308   2.889   0.416
11442TIP3    H255818   2.271   2.746   0.447
11443TIP3   OH255819   3.644   3.371   0.106
11443TIP3    H155820   3.661   3.465   0.122
11443TIP3    H255821   3.737   3.340   0.103
11444TIP3   OH255822   1.946   3.053   1.355
11444TIP3    H155823   1.899   3.045   1.270
11444TIP3    H255824   1.951   2.958   1.379
11445TIP3   OH255825   1.921   3.327   1.036
11445TIP3    H155826   2.017   3.315   1.034
11445TIP3    H255827   1.913   3.408   1.088
11446TIP3   OH255828   3.745   3.396   1.604
11446TIP3    H155829   3.734   3.300   1.602
11446TIP3    H255830   3.658   3.421   1.644
11447TIP3   OH255831   2.841   3.351   1.491
11447TIP3    H155832   2.848   3.436   1.541
11447TIP3    H255833   2.753   3.317   1.516
11448TIP3   OH255834   2.883   3.726   0.471
11448TIP3    H155835   2.874   3.719   0.374
11448TIP3    H255836   2.887   3.823   0.486
11449TIP3   OH255837   2.248   3.613   0.652
11449TIP3    H155838   2.262   3.572   0.740
11449TIP3    H255839   2.163   3.573   0.628
11450TIP3   OH255840   3.184   3.643   0.167
11450TIP3    H155841   3.237   3.571   0.127
11450TIP3    H255842   3.193   3.622   0.263
11451TIP3   OH255843   3.160   3.639   0.445
11451TIP3    H155844   3.065   3.648   0.466
11451TIP3    H255845   3.183   3.565   0.504
11452TIP3   OH255846   3.459   2.544   1.652
11452TIP3    H155847   3.414   2.590   1.580
11452TIP3    H255848   3.459   2.453   1.621
11453TIP3   OH255849   2.173   3.185   1.452
11453TIP3    H155850   2.195   3.148   1.540
11453TIP3    H255851   2.086   3.145   1.430
11454TIP3   OH255852   2.440   2.031   1.049
11454TIP3    H155853   2.350   2.020   1.011
11454TIP3    H255854   2.429   2.115   1.095
11455TIP3   OH255855   2.904   2.000   1.385
11455TIP3    H155856   2.944   1.958   1.463
11455TIP3    H255857   2.807   1.986   1.399
11456TIP3   OH255858   3.235   2.382   1.474
11456TIP3    H155859   3.179   2.363   1.553
11456TIP3    H255860   3.217   2.474   1.450
11457TIP3   OH255861   3.319   2.873   0.064
11457TIP3    H155862   3.318   2.849  -0.031
11457TIP3    H255863   3.407   2.912   0.074
11458TIP3   OH255864   2.868   2.256   0.117
11458TIP3    H155865   2.840   2.252   0.210
11458TIP3    H255866   2.844   2.167   0.088
11459TIP3   OH255867   2.450   2.528   1.169
11459TIP3    H155868   2.378   2.526   1.235
11459TIP3    H255869   2.447   2.620   1.136
11460TIP3   OH255870   2.446   2.544   0.657
11460TIP3    H155871   2.353   2.515   0.645
11460TIP3    H255872   2.486   2.512   0.574
11461TIP3   OH255873   2.999   2.590   0.534
11461TIP3    H155874   2.958   2.673   0.502
11461TIP3    H255875   3.069   2.576   0.468
11462TIP3   OH255876   2.906   2.611   1.680
11462TIP3    H155877   2.852   2.535   1.712
11462TIP3    H255878   2.990   2.598   1.728
11463TIP3   OH255879   3.101   2.539   0.819
11463TIP3    H155880   3.076   2.596   0.745
11463TIP3    H255881   3.114   2.454   0.772
11464TIP3   OH255882   2.215   2.557   1.343
11464TIP3    H155883   2.219   2.597   1.431
11464TIP3    H255884   2.169   2.473   1.360
11465TIP3   OH255885   2.571   2.322   0.060
11465TIP3    H155886   2.516   2.256   0.107
11465TIP3    H255887   2.511   2.350  -0.011
11466TIP3   OH255888   1.879   2.268   0.737
11466TIP3    H155889   1.946   2.264   0.808
11466TIP3    H255890   1.925   2.228   0.660
11467TIP3   OH255891   2.007   2.341   0.276
11467TIP3    H155892   2.057   2.401   0.216
11467TIP3    H255893   1.937   2.401   0.306
11468TIP3   OH255894   3.023   2.699   1.278
11468TIP3    H155895   3.059   2.632   1.217
11468TIP3    H255896   2.978   2.646   1.345
11469TIP3   OH255897   2.703   2.295   0.759
11469TIP3    H155898   2.610   2.297   0.789
11469TIP3    H255899   2.752   2.282   0.842
11470TIP3   OH255900   2.184   2.453   0.646
11470TIP3    H155901   2.095   2.466   0.608
11470TIP3    H255902   2.213   2.369   0.606
11471TIP3   OH255903   2.548   2.457   0.410
11471TIP3    H155904   2.644   2.467   0.427
11471TIP3    H255905   2.526   2.523   0.342
11472TIP3   OH255906   3.143   2.219   1.085
11472TIP3    H155907   3.074   2.226   1.154
11472TIP3    H255908   3.093   2.196   1.005
11473TIP3   OH255909   2.418   2.574   0.168
11473TIP3    H155910   2.362   2.537   0.097
11473TIP3    H255911   2.500   2.594   0.120
11474TIP3   OH255912   3.465   3.784   1.716
11474TIP3    H155913   3.491   3.824   1.631
11474TIP3    H255914   3.536   3.817   1.773
11475TIP3   OH255915   2.232   3.030   1.673
11475TIP3    H155916   2.304   3.056   1.733
11475TIP3    H255917   2.153   3.043   1.731
11476TIP3   OH255918   2.832   2.572   0.949
11476TIP3    H155919   2.891   2.517   0.895
11476TIP3    H255920   2.818   2.517   1.028
11477TIP3   OH255921   2.333   2.186   0.593
11477TIP3    H155922   2.302   2.094   0.590
11477TIP3    H255923   2.411   2.181   0.537
11478TIP3   OH255924   2.696   2.406   1.190
11478TIP3    H155925   2.612   2.456   1.200
11478TIP3    H255926   2.750   2.439   1.264
11479TIP3   OH255927   2.754   3.028   0.361
11479TIP3    H155928   2.675   2.980   0.328
11479TIP3    H255929   2.734   3.037   0.456
11480TIP3   OH255930   3.470   2.946   1.240
11480TIP3    H155931   3.529   2.993   1.179
11480TIP3    H255932   3.385   2.953   1.193
11481TIP3   OH255933   3.140   2.311   0.178
11481TIP3    H155934   3.045   2.324   0.162
11481TIP3    H255935   3.171   2.397   0.212
11482TIP3   OH255936   2.903   3.052   1.484
11482TIP3    H155937   2.869   3.011   1.564
11482TIP3    H255938   2.880   3.145   1.493
11483TIP3   OH255939   3.211   2.501   0.345
11483TIP3    H155940   3.302   2.486   0.378
11483TIP3    H255941   3.220   2.581   0.292
11484TIP3   OH255942   2.264   2.965   0.939
11484TIP3    H155943   2.335   2.959   0.872
11484TIP3    H255944   2.271   2.879   0.985
11485TIP3   OH255945   2.963   3.175   0.261
11485TIP3    H155946   2.930   3.258   0.302
11485TIP3    H255947   2.891   3.112   0.284
11486TIP3   OH255948   1.964   2.807   1.467
11486TIP3    H155949   1.983   2.763   1.551
11486TIP3    H255950   1.902   2.745   1.424
11487TIP3   OH255951   2.665   2.762   1.686
11487TIP3    H155952   2.635   2.735   1.598
11487TIP3    H255953   2.758   2.732   1.685
11488TIP3   OH255954   3.132   3.296   1.478
11488TIP3    H155955   3.039   3.314   1.455
11488TIP3    H255956   3.130   3.324   1.571
11489TIP3   OH255957   3.701   2.515   0.320
11489TIP3    H155958   3.644   2.482   0.249
11489TIP3    H255959   3.710   2.609   0.290
11490TIP3   OH255960   3.699   3.101   1.600
11490TIP3    H155961   3.610   3.123   1.562
11490TIP3    H255962   3.755   3.097   1.520
11491TIP3   OH255963   3.493   3.415   0.343
11491TIP3    H155964   3.498   3.326   0.389
11491TIP3    H255965   3.559   3.385   0.275
11492TIP3   OH255966   3.249   2.879   1.067
11492TIP3    H155967   3.155   2.857   1.059
11492TIP3    H255968   3.293   2.802   1.027
11493TIP3   OH255969   2.502   3.311   0.678
11493TIP3    H155970   2.552   3.391   0.657
11493TIP3    H255971   2.414   3.335   0.646
11494TIP3   OH255972   2.076   2.798   0.134
11494TIP3    H155973   2.138   2.860   0.175
11494TIP3    H255974   1.989   2.827   0.164
11495TIP3   OH255975   2.645   3.078   0.632
11495TIP3    H155976   2.615   3.171   0.639
11495TIP3    H255977   2.570   3.030   0.675
11496TIP3   OH255978   2.690   3.496   1.269
11496TIP3    H155979   2.733   3.578   1.242
11496TIP3    H255980   2.750   3.463   1.339
11497TIP3   OH255981   2.512   3.579   0.584
11497TIP3    H155982   2.415   3.592   0.596
11497TIP3    H255983   2.547   3.662   0.620
11498TIP3   OH255984   3.044   3.099   1.234
11498TIP3    H155985   3.008   3.078   1.322
11498TIP3    H255986   3.106   3.027   1.217
11499TIP3   OH255987   3.269   3.200   0.143
11499TIP3    H155988   3.305   3.157   0.224
11499TIP3    H255989   3.175   3.183   0.156
11500TIP3   OH255990   3.320   3.556   1.483
11500TIP3    H155991   3.254   3.505   1.433
11500TIP3    H255992   3.342   3.625   1.417
11501TIP3   OH255993   3.721   3.642   0.171
11501TIP3    H155994   3.792   3.704   0.145
11501TIP3    H255995   3.649   3.703   0.194
11502TIP3   OH255996   2.129   2.281   1.421
11502TIP3    H155997   2.038   2.315   1.418
11502TIP3    H255998   2.117   2.196   1.467
11503TIP3   OH255999   3.353   3.066   0.367
11503TIP3    H156000   3.330   2.988   0.421
11503TIP3    H256001   3.449   3.074   0.386
11504TIP3   OH256002   2.091   3.460   1.264
11504TIP3    H156003   2.118   3.367   1.265
11504TIP3    H256004   2.117   3.488   1.353
11505TIP3   OH256005   2.568   3.266   0.234
11505TIP3    H156006   2.590   3.212   0.311
11505TIP3    H256007   2.573   3.358   0.267
11506TIP3   OH256008   2.217   2.989   0.286
11506TIP3    H156009   2.148   3.028   0.343
11506TIP3    H256010   2.270   3.066   0.260
11507TIP3   OH256011   3.001   2.257   1.315
11507TIP3    H156012   3.072   2.263   1.380
11507TIP3    H256013   2.963   2.169   1.334
11508TIP3   OH256014   3.076   2.218   0.425
11508TIP3    H156015   3.102   2.265   0.343
11508TIP3    H256016   3.135   2.259   0.490
11509TIP3   OH256017   2.845   3.431   0.304
11509TIP3    H156018   2.763   3.484   0.316
11509TIP3    H256019   2.899   3.486   0.246
11510TIP3   OH256020   2.799   2.391   0.507
11510TIP3    H156021   2.879   2.447   0.510
11510TIP3    H256022   2.773   2.378   0.600
11511TIP3   OH256023   2.854   2.492   1.426
11511TIP3    H156024   2.863   2.549   1.504
11511TIP3    H256025   2.920   2.423   1.436
11512TIP3   OH256026   2.886   2.097   0.597
11512TIP3    H156027   2.853   2.162   0.662
11512TIP3    H256028   2.954   2.152   0.551
11513TIP3   OH256029   2.580   3.536   0.309
11513TIP3    H156030   2.598   3.618   0.259
11513TIP3    H256031   2.558   3.569   0.398
11514TIP3   OH256032   2.451   2.206   0.269
11514TIP3    H156033   2.445   2.297   0.305
11514TIP3    H256034   2.542   2.183   0.297
11515TIP3   OH256035   3.474   2.280   1.511
11515TIP3    H156036   3.380   2.310   1.498
11515TIP3    H256037   3.504   2.280   1.418
11516TIP3   OH256038   3.334   2.659   0.913
11516TIP3    H156039   3.252   2.615   0.884
11516TIP3    H256040   3.381   2.589   0.965
11517TIP3   OH256041   2.276   3.251   0.172
11517TIP3    H156042   2.340   3.315   0.203
11517TIP3    H256043   2.328   3.206   0.102
11518TIP3   OH256044   2.113   2.519   0.091
11518TIP3    H156045   2.109   2.615   0.102
11518TIP3    H256046   2.026   2.497   0.057
11519TIP3   OH256047   3.441   3.582   1.077
11519TIP3    H156048   3.429   3.654   1.013
11519TIP3    H256049   3.536   3.591   1.099
11520TIP3   OH256050   2.191   1.996   0.958
11520TIP3    H156051   2.169   1.999   0.862
11520TIP3    H256052   2.147   1.913   0.985
11521TIP3   OH256053   2.086   3.388   0.573
11521TIP3    H156054   2.001   3.435   0.571
11521TIP3    H256055   2.135   3.437   0.506
11522TIP3   OH256056   2.008   3.653   1.703
11522TIP3    H156057   2.067   3.631   1.778
11522TIP3    H256058   1.965   3.568   1.684
11523TIP3   OH256059   2.473   3.545   1.865
11523TIP3    H156060   2.550   3.496   1.897
11523TIP3    H256061   2.471   3.518   1.770
11524TIP3   OH256062   2.929   3.509   0.059
11524TIP3    H156063   2.841   3.463   0.061
11524TIP3    H256064   2.957   3.451  -0.008
11525TIP3   OH256065   3.127   3.383   1.738
11525TIP3    H156066   3.094   3.294   1.764
11525TIP3    H256067   3.202   3.395   1.798
11526TIP3   OH256068   3.338   3.470   0.018
11526TIP3    H156069   3.373   3.396   0.074
11526TIP3    H256070   3.421   3.496  -0.027
11527TIP3   OH256071   2.000   3.031   1.801
11527TIP3    H156072   2.016   2.940   1.771
11527TIP3    H256073   1.924   3.058   1.746
11528TIP3   OH256074   2.442   3.072   0.016
11528TIP3    H156075   2.447   2.988   0.064
11528TIP3    H256076   2.500   3.050  -0.060
11529TIP3   OH256077   2.669   3.029   1.741
11529TIP3    H156078   2.635   3.059   1.654
11529TIP3    H256079   2.679   2.932   1.731
11530TIP3   OH256080   3.240   3.016   1.480
11530TIP3    H156081   3.317   3.076   1.471
11530TIP3    H256082   3.168   3.081   1.484
11531TIP3   OH256083   2.089   2.753   1.740
11531TIP3    H156084   2.130   2.667   1.730
11531TIP3    H256085   2.064   2.753   1.834
11532TIP3   OH256086   2.553   2.868   0.244
11532TIP3    H156087   2.505   2.815   0.310
11532TIP3    H256088   2.582   2.799   0.180
11533TIP3   OH256089   2.480   2.649   1.477
11533TIP3    H156090   2.419   2.720   1.503
11533TIP3    H256091   2.517   2.685   1.395
11534TIP3   OH256092   2.661   2.685   0.068
11534TIP3    H156093   2.646   2.672  -0.027
11534TIP3    H256094   2.759   2.696   0.074
11535TIP3   OH256095   2.986   2.903   1.808
11535TIP3    H156096   3.082   2.905   1.800
11535TIP3    H256097   2.969   2.828   1.866
11536TIP3   OH256098   3.576   2.936  16.019
11536TIP3    H156099   3.570   2.885  15.936
11536TIP3    H256100   3.602   3.024  15.992
11537TIP3   OH256101   2.519   2.386   1.584
11537TIP3    H156102   2.531   2.314   1.519
11537TIP3    H256103   2.515   2.467   1.528
11538TIP3   OH256104   2.559   2.224   1.337
11538TIP3    H156105   2.611   2.270   1.267
11538TIP3    H256106   2.471   2.215   1.295
11539TIP3   OH256107   2.714   2.771   1.361
11539TIP3    H156108   2.790   2.755   1.303
11539TIP3    H256109   2.679   2.855   1.329
11540TIP3   OH256110   3.154   2.549   1.859
11540TIP3    H156111   3.177   2.455   1.849
11540TIP3    H256112   3.241   2.592   1.861
11541TIP3   OH256113   3.287   2.827   1.672
11541TIP3    H156114   3.262   2.900   1.612
11541TIP3    H256115   3.383   2.824   1.654
11542TIP3   OH256116   2.365   2.510   1.775
11542TIP3    H156117   2.288   2.453   1.756
11542TIP3    H256118   2.431   2.474   1.713
11543TIP3   OH256119   2.639   1.968   1.377
11543TIP3    H156120   2.623   2.065   1.367
11543TIP3    H256121   2.563   1.932   1.327
11544TIP3   OH256122   2.766   2.401   1.737
11544TIP3    H156123   2.736   2.378   1.827
11544TIP3    H256124   2.686   2.381   1.684
11545TIP3   OH256125   3.037   2.314   1.645
11545TIP3    H156126   2.941   2.319   1.657
11545TIP3    H256127   3.065   2.251   1.713
11546TIP3   OH256128   3.197   2.177   1.839
11546TIP3    H156129   3.190   2.080   1.841
11546TIP3    H256130   3.169   2.206   1.928
11547TIP3   OH256131   2.175   2.303   1.748
11547TIP3    H156132   2.200   2.230   1.688
11547TIP3    H256133   2.167   2.258   1.834
11548TIP3   OH256134   2.660   1.904   1.647
11548TIP3    H156135   2.729   1.836   1.643
11548TIP3    H256136   2.649   1.923   1.551
11549TIP3   OH256137   2.696   2.068   1.855
11549TIP3    H156138   2.680   2.018   1.771
11549TIP3    H256139   2.636   2.144   1.846
11550TIP3   OH256140   2.643   3.757   0.169
11550TIP3    H156141   2.740   3.772   0.182
11550TIP3    H256142   2.624   3.824   0.104
11551TIP3   OH256143   2.001   3.220   0.120
11551TIP3    H156144   2.097   3.229   0.143
11551TIP3    H256145   2.006   3.157   0.047
11552TIP3   OH256146   1.876   3.757   0.620
11552TIP3    H156147   1.806   3.708   0.571
11552TIP3    H256148   1.905   3.690   0.684
11553TIP3   OH256149   1.959   3.568   0.805
11553TIP3    H156150   1.924   3.480   0.824
11553TIP3    H256151   1.981   3.602   0.893
11554TIP3   OH256152   3.712   3.648   1.098
11554TIP3    H156153   3.714   3.665   1.194
11554TIP3    H256154   3.783   3.706   1.070
11555TIP3   OH256155   3.670   3.608   1.394
11555TIP3    H156156   3.622   3.531   1.357
11555TIP3    H256157   3.721   3.564   1.464
11556TIP3   OH256158   3.514   3.181   1.860
11556TIP3    H156159   3.425   3.176   1.898
11556TIP3    H256160   3.552   3.260   1.903
11557TIP3   OH256161   3.647   2.975   0.395
11557TIP3    H156162   3.712   3.045   0.417
11557TIP3    H256163   3.644   2.929   0.481
11558TIP3   OH256164   3.684   2.815   0.594
11558TIP3    H156165   3.607   2.768   0.633
11558TIP3    H256166   3.742   2.835   0.669
11559TIP3   OH256167   3.658   3.091   1.090
11559TIP3    H156168   3.741   3.054   1.055
11559TIP3    H256169   3.672   3.186   1.075
11560TIP3   OH256170   3.513   3.381   1.318
11560TIP3    H156171   3.444   3.414   1.378
11560TIP3    H256172   3.458   3.339   1.248
11561TIP3   OH256173   3.714   2.800   0.228
11561TIP3    H156174   3.655   2.841   0.162
11561TIP3    H256175   3.705   2.871   0.298
11562TIP3   OH256176   3.511   2.529   0.095
11562TIP3    H156177   3.552   2.590   0.031
11562TIP3    H256178   3.531   2.447   0.047
11563TIP3   OH256179   3.464   2.668   0.649
11563TIP3    H156180   3.449   2.572   0.646
11563TIP3    H256181   3.429   2.691   0.736
11564TIP3   OH256182   1.965   2.876   1.054
11564TIP3    H156183   1.984   2.868   0.958
11564TIP3    H256184   2.054   2.860   1.091
11565TIP3   OH256185   3.549   2.865   1.616
11565TIP3    H156186   3.610   2.789   1.632
11565TIP3    H256187   3.609   2.942   1.618
11566TIP3   OH256188   3.700   2.654   1.683
11566TIP3    H156189   3.612   2.614   1.666
11566TIP3    H256190   3.758   2.577   1.675
11567TIP3   OH256191   3.430   2.426   0.496
11567TIP3    H156192   3.462   2.333   0.507
11567TIP3    H256193   3.509   2.467   0.457
11568TIP3   OH256194   3.494   2.481   1.039
11568TIP3    H156195   3.590   2.504   1.037
11568TIP3    H256196   3.475   2.495   1.133
11569TIP3   OH256197   3.501   2.553   1.318
11569TIP3    H156198   3.413   2.583   1.351
11569TIP3    H256199   3.544   2.640   1.295
11570TIP3   OH256200   1.925   2.406   1.668
11570TIP3    H156201   2.019   2.387   1.689
11570TIP3    H256202   1.881   2.324   1.700
11571TIP3   OH256203   3.727   1.957   1.853
11571TIP3    H156204   3.763   1.892   1.790
11571TIP3    H256205   3.740   2.040   1.802
11572TIP3   OH256206   3.497   2.154   0.499
11572TIP3    H156207   3.517   2.109   0.583
11572TIP3    H256208   3.436   2.092   0.454
11573TIP3   OH256209   2.046   2.235   0.954
11573TIP3    H156210   2.093   2.153   0.982
11573TIP3    H256211   2.099   2.305   0.995
11574TIP3   OH256212   1.875   2.534   1.060
11574TIP3    H156213   1.931   2.511   0.982
11574TIP3    H256214   1.919   2.616   1.086
11575TIP3   OH256215   3.680   2.168   1.688
11575TIP3    H156216   3.586   2.195   1.682
11575TIP3    H256217   3.686   2.114   1.607
11576TIP3   OH256218   3.682   2.159   0.156
11576TIP3    H156219   3.722   2.089   0.105
11576TIP3    H256220   3.752   2.226   0.156
11577TIP3   OH256221   1.910   2.162   0.466
11577TIP3    H156222   1.817   2.181   0.451
11577TIP3    H256223   1.954   2.210   0.395
11578TIP3   OH256224   3.386   3.654   0.665
11578TIP3    H156225   3.446   3.634   0.592
11578TIP3    H256226   3.435   3.712   0.726
11579TIP3   OH256227   1.907   2.029   1.297
11579TIP3    H156228   1.839   2.008   1.364
11579TIP3    H256229   1.861   2.095   1.242
11580TIP3   OH256230   2.129   3.348   1.713
11580TIP3    H156231   2.045   3.369   1.668
11580TIP3    H256232   2.102   3.341   1.805
11581TIP3   OH256233   2.420   3.447   1.340
11581TIP3    H156234   2.384   3.532   1.312
11581TIP3    H256235   2.512   3.457   1.309
11582TIP3   OH256236   2.852   3.589   1.632
11582TIP3    H156237   2.868   3.554   1.723
11582TIP3    H256238   2.941   3.620   1.605
11583TIP3   OH256239   3.082   3.716   1.561
11583TIP3    H156240   3.154   3.656   1.537
11583TIP3    H256241   3.119   3.759   1.641
11584TIP3   OH256242   3.582   1.978   1.471
11584TIP3    H156243   3.499   2.007   1.430
11584TIP3    H256244   3.600   1.897   1.418
11585TIP3   OH256245   2.162   3.772   1.341
11585TIP3    H156246   2.089   3.820   1.300
11585TIP3    H256247   2.129   3.751   1.430
11586TIP3   OH256248   2.410   3.730   1.248
11586TIP3    H156249   2.320   3.742   1.287
11586TIP3    H256250   2.403   3.788   1.170
11587TIP3   OH256251   2.880   3.721   1.164
11587TIP3    H156252   2.833   3.776   1.099
11587TIP3    H256253   2.894   3.784   1.238
11588TIP3   OH256254   3.110   3.604   1.264
11588TIP3    H156255   3.023   3.629   1.231
11588TIP3    H256256   3.156   3.690   1.256
11589TIP3   OH256257   3.368   3.760   1.290
11589TIP3    H156258   3.359   3.856   1.267
11589TIP3    H256259   3.389   3.723   1.202
11590TIP3   OH256260   2.106   3.636   1.034
11590TIP3    H156261   2.100   3.591   1.121
11590TIP3    H256262   2.188   3.600   0.995
11591TIP3   OH256263   2.315   3.508   0.900
11591TIP3    H156264   2.298   3.414   0.921
11591TIP3    H256265   2.401   3.522   0.946
11592TIP3   OH256266   2.574   3.556   0.987
11592TIP3    H156267   2.592   3.464   0.960
11592TIP3    H256268   2.579   3.550   1.083
11593TIP3   OH256269   2.922   2.121   0.901
11593TIP3    H156270   2.854   2.056   0.928
11593TIP3    H256271   2.977   2.069   0.842
11594TIP3   OH256272   3.435   1.927   0.910
11594TIP3    H156273   3.497   1.985   0.858
11594TIP3    H256274   3.347   1.962   0.885
11595TIP3   OH256275   3.603   2.048   0.739
11595TIP3    H156276   3.671   1.993   0.693
11595TIP3    H256277   3.651   2.134   0.746
11596TIP3   OH256278   2.157   1.984   0.685
11596TIP3    H156279   2.078   1.962   0.633
11596TIP3    H256280   2.205   1.899   0.681
11597TIP3   OH256281   2.035   1.960   0.261
11597TIP3    H156282   2.083   2.024   0.204
11597TIP3    H256283   1.977   2.017   0.314
11598TIP3   OH256284   2.608   1.976   0.664
11598TIP3    H156285   2.698   2.013   0.659
11598TIP3    H256286   2.601   1.955   0.757
11599TIP3   OH256287   3.174   1.978   0.828
11599TIP3    H156288   3.173   1.988   0.732
11599TIP3    H256289   3.139   1.887   0.840
11600TIP3   OH256290   3.304   1.981   0.395
11600TIP3    H156291   3.231   2.042   0.377
11600TIP3    H256292   3.259   1.896   0.413
11601TIP3   OH256293   2.029   3.555   0.356
11601TIP3    H156294   1.960   3.555   0.287
11601TIP3    H256295   2.028   3.649   0.378
11602TIP3   OH256296   2.220   2.148   0.111
11602TIP3    H156297   2.273   2.092   0.055
11602TIP3    H256298   2.286   2.186   0.172
11603TIP3   OH256299   2.723   2.179   0.350
11603TIP3    H156300   2.747   2.120   0.424
11603TIP3    H256301   2.726   2.265   0.398
11604TIP3   OH256302   2.911   3.706   0.201
11604TIP3    H156303   3.006   3.715   0.179
11604TIP3    H256304   2.892   3.643   0.128
11605TIP3   OH256305   3.587   3.639   0.457
11605TIP3    H156306   3.564   3.563   0.397
11605TIP3    H256307   3.578   3.714   0.392
11606TIP3   OH256308   2.147   2.037   1.631
11606TIP3    H156309   2.111   1.958   1.675
11606TIP3    H256310   2.240   2.035   1.667
11607TIP3   OH256311   2.348   1.974   1.792
11607TIP3    H156312   2.437   1.941   1.772
11607TIP3    H256313   2.310   1.895   1.835
11608TIP3   OH256314   2.212   3.651   0.054
11608TIP3    H156315   2.182   3.679   0.142
11608TIP3    H256316   2.287   3.595   0.073
11609TIP3   OH256317   3.188   1.905   1.809
11609TIP3    H156318   3.198   1.858   1.894
11609TIP3    H256319   3.279   1.902   1.774
11610TIP3   OH256320   3.509   3.509   1.674
11610TIP3    H156321   3.428   3.495   1.621
11610TIP3    H256322   3.497   3.604   1.696
11611TIP3   OH256323   4.951   2.897   0.674
11611TIP3    H156324   4.953   2.995   0.667
11611TIP3    H256325   4.881   2.873   0.612
11612TIP3   OH256326   4.839   2.824   1.022
11612TIP3    H156327   4.837   2.758   1.093
11612TIP3    H256328   4.806   2.775   0.945
11613TIP3   OH256329   4.075   2.789   1.177
11613TIP3    H156330   4.083   2.722   1.249
11613TIP3    H256331   4.149   2.848   1.199
11614TIP3   OH256332   5.209   3.118   0.849
11614TIP3    H156333   5.166   3.047   0.898
11614TIP3    H256334   5.210   3.189   0.916
11615TIP3   OH256335   4.167   3.234   1.030
11615TIP3    H156336   4.135   3.149   0.996
11615TIP3    H256337   4.263   3.215   1.034
11616TIP3   OH256338   3.832   2.592   0.575
11616TIP3    H156339   3.787   2.680   0.570
11616TIP3    H256340   3.774   2.538   0.519
11617TIP3   OH256341   3.902   2.814   0.789
11617TIP3    H156342   3.928   2.732   0.836
11617TIP3    H256343   3.972   2.824   0.724
11618TIP3   OH256344   4.920   3.633   0.873
11618TIP3    H156345   4.984   3.563   0.845
11618TIP3    H256346   4.900   3.602   0.961
11619TIP3   OH256347   4.677   3.065   1.066
11619TIP3    H156348   4.711   3.000   1.002
11619TIP3    H256349   4.756   3.079   1.121
11620TIP3   OH256350   5.539   2.228   1.143
11620TIP3    H156351   5.553   2.289   1.219
11620TIP3    H256352   5.592   2.272   1.075
11621TIP3   OH256353   4.993   2.510   1.099
11621TIP3    H156354   5.009   2.414   1.098
11621TIP3    H256355   4.983   2.525   1.002
11622TIP3   OH256356   4.306   2.318   0.822
11622TIP3    H156357   4.314   2.403   0.775
11622TIP3    H256358   4.264   2.261   0.754
11623TIP3   OH256359   5.079   2.328   0.659
11623TIP3    H156360   5.145   2.295   0.725
11623TIP3    H256361   5.135   2.383   0.602
11624TIP3   OH256362   3.968   2.559   0.896
11624TIP3    H156363   4.035   2.504   0.940
11624TIP3    H256364   3.976   2.529   0.804
11625TIP3   OH256365   4.484   2.715   0.824
11625TIP3    H156366   4.549   2.657   0.867
11625TIP3    H256367   4.430   2.648   0.777
11626TIP3   OH256368   5.582   2.371   1.369
11626TIP3    H156369   5.518   2.445   1.359
11626TIP3    H256370   5.585   2.359   1.464
11627TIP3   OH256371   4.194   2.208   1.227
11627TIP3    H156372   4.167   2.265   1.151
11627TIP3    H256373   4.125   2.232   1.294
11628TIP3   OH256374   4.925   3.157   0.581
11628TIP3    H156375   4.896   3.128   0.493
11628TIP3    H256376   4.894   3.250   0.586
11629TIP3   OH256377   4.447   2.973   1.252
11629TIP3    H156378   4.375   3.037   1.270
11629TIP3    H256379   4.518   3.033   1.223
11630TIP3   OH256380   5.258   2.262   0.858
11630TIP3    H156381   5.237   2.184   0.911
11630TIP3    H256382   5.326   2.306   0.913
11631TIP3   OH256383   4.150   2.395   1.027
11631TIP3    H156384   4.214   2.463   1.060
11631TIP3    H256385   4.203   2.352   0.956
11632TIP3   OH256386   4.291   3.172   1.333
11632TIP3    H156387   4.287   3.263   1.298
11632TIP3    H256388   4.202   3.165   1.377
11633TIP3   OH256389   3.941   3.137   0.405
11633TIP3    H156390   3.878   3.159   0.332
11633TIP3    H256391   3.907   3.211   0.460
11634TIP3   OH256392   5.261   3.301   1.086
11634TIP3    H156393   5.165   3.311   1.099
11634TIP3    H256394   5.288   3.393   1.068
11635TIP3   OH256395   5.293   2.130   1.226
11635TIP3    H156396   5.220   2.193   1.219
11635TIP3    H256397   5.363   2.172   1.173
11636TIP3   OH256398   4.591   1.942   0.973
11636TIP3    H156399   4.580   1.845   0.965
11636TIP3    H256400   4.503   1.971   1.002
11637TIP3   OH256401   5.086   3.480   0.747
11637TIP3    H156402   5.130   3.408   0.696
11637TIP3    H256403   5.126   3.560   0.706
11638TIP3   OH256404   5.206   3.272   0.597
11638TIP3    H156405   5.178   3.202   0.536
11638TIP3    H256406   5.210   3.224   0.682
11639TIP3   OH256407   5.370   3.130   1.447
11639TIP3    H156408   5.385   3.067   1.373
11639TIP3    H256409   5.389   3.216   1.405
11640TIP3   OH256410   4.819   2.822   0.422
11640TIP3    H156411   4.748   2.879   0.385
11640TIP3    H256412   4.889   2.829   0.355
11641TIP3   OH256413   4.821   2.670   0.132
11641TIP3    H156414   4.897   2.674   0.191
11641TIP3    H256415   4.855   2.609   0.066
11642TIP3   OH256416   5.558   2.762   1.252
11642TIP3    H156417   5.491   2.834   1.258
11642TIP3    H256418   5.605   2.785   1.171
11643TIP3   OH256419   5.162   2.844   0.517
11643TIP3    H156420   5.088   2.867   0.577
11643TIP3    H256421   5.209   2.774   0.567
11644TIP3   OH256422   5.155   2.659   1.427
11644TIP3    H156423   5.157   2.740   1.481
11644TIP3    H256424   5.092   2.689   1.358
11645TIP3   OH256425   4.325   2.909   0.707
11645TIP3    H156426   4.292   2.869   0.623
11645TIP3    H256427   4.386   2.839   0.741
11646TIP3   OH256428   4.458   3.249   0.975
11646TIP3    H156429   4.455   3.193   0.896
11646TIP3    H256430   4.535   3.211   1.022
11647TIP3   OH256431   4.359   2.783   1.072
11647TIP3    H156432   4.415   2.794   0.993
11647TIP3    H256433   4.395   2.849   1.134
11648TIP3   OH256434   4.997   3.339   1.143
11648TIP3    H156435   4.969   3.402   1.210
11648TIP3    H256436   4.973   3.253   1.186
11649TIP3   OH256437   4.452   3.225   1.543
11649TIP3    H156438   4.414   3.301   1.590
11649TIP3    H256439   4.385   3.207   1.473
11650TIP3   OH256440   5.050   2.759   0.284
11650TIP3    H156441   5.106   2.779   0.363
11650TIP3    H256442   5.091   2.813   0.214
11651TIP3   OH256443   4.146   2.842   1.460
11651TIP3    H156444   4.150   2.909   1.531
11651TIP3    H256445   4.053   2.852   1.435
11652TIP3   OH256446   4.821   3.434   0.630
11652TIP3    H156447   4.866   3.465   0.709
11652TIP3    H256448   4.766   3.509   0.605
11653TIP3   OH256449   4.276   3.430   1.618
11653TIP3    H156450   4.272   3.419   1.522
11653TIP3    H256451   4.183   3.418   1.644
11654TIP3   OH256452   5.422   1.936   0.272
11654TIP3    H156453   5.327   1.948   0.295
11654TIP3    H256454   5.443   2.020   0.228
11655TIP3   OH256455   4.223   2.811   0.469
11655TIP3    H156456   4.194   2.889   0.416
11655TIP3    H256457   4.156   2.746   0.446
11656TIP3   OH256458   5.532   3.370   0.109
11656TIP3    H156459   5.545   3.466   0.121
11656TIP3    H256460   5.625   3.342   0.101
11657TIP3   OH256461   3.831   3.053   1.355
11657TIP3    H156462   3.785   3.046   1.269
11657TIP3    H256463   3.836   2.958   1.379
11658TIP3   OH256464   3.807   3.329   1.033
11658TIP3    H156465   3.902   3.314   1.035
11658TIP3    H256466   3.798   3.407   1.089
11659TIP3   OH256467   5.631   3.397   1.604
11659TIP3    H156468   5.620   3.301   1.602
11659TIP3    H256469   5.544   3.421   1.644
11660TIP3   OH256470   4.726   3.351   1.491
11660TIP3    H156471   4.733   3.436   1.541
11660TIP3    H256472   4.639   3.317   1.516
11661TIP3   OH256473   4.768   3.726   0.471
11661TIP3    H156474   4.761   3.719   0.374
11661TIP3    H256475   4.772   3.822   0.486
11662TIP3   OH256476   4.132   3.613   0.652
11662TIP3    H156477   4.149   3.572   0.740
11662TIP3    H256478   4.049   3.571   0.627
11663TIP3   OH256479   5.070   3.644   0.169
11663TIP3    H156480   5.119   3.572   0.125
11663TIP3    H256481   5.080   3.620   0.263
11664TIP3   OH256482   5.045   3.640   0.447
11664TIP3    H156483   4.949   3.647   0.466
11664TIP3    H256484   5.070   3.566   0.505
11665TIP3   OH256485   5.345   2.544   1.652
11665TIP3    H156486   5.299   2.590   1.580
11665TIP3    H256487   5.345   2.453   1.621
11666TIP3   OH256488   4.059   3.185   1.452
11666TIP3    H156489   4.081   3.148   1.540
11666TIP3    H256490   3.972   3.145   1.431
11667TIP3   OH256491   4.325   2.031   1.049
11667TIP3    H156492   4.235   2.020   1.011
11667TIP3    H256493   4.315   2.115   1.095
11668TIP3   OH256494   4.790   2.001   1.385
11668TIP3    H156495   4.830   1.958   1.463
11668TIP3    H256496   4.693   1.986   1.399
11669TIP3   OH256497   5.120   2.382   1.474
11669TIP3    H156498   5.065   2.363   1.553
11669TIP3    H256499   5.102   2.474   1.450
11670TIP3   OH256500   5.205   2.873   0.064
11670TIP3    H156501   5.203   2.849  -0.031
11670TIP3    H256502   5.293   2.911   0.073
11671TIP3   OH256503   4.754   2.256   0.117
11671TIP3    H156504   4.725   2.252   0.210
11671TIP3    H256505   4.729   2.167   0.088
11672TIP3   OH256506   4.335   2.528   1.169
11672TIP3    H156507   4.264   2.526   1.235
11672TIP3    H256508   4.332   2.620   1.136
11673TIP3   OH256509   4.332   2.544   0.657
11673TIP3    H156510   4.239   2.516   0.645
11673TIP3    H256511   4.372   2.512   0.574
11674TIP3   OH256512   4.885   2.590   0.534
11674TIP3    H156513   4.843   2.673   0.502
11674TIP3    H256514   4.955   2.576   0.468
11675TIP3   OH256515   4.792   2.611   1.680
11675TIP3    H156516   4.737   2.535   1.712
11675TIP3    H256517   4.875   2.598   1.728
11676TIP3   OH256518   4.987   2.539   0.819
11676TIP3    H156519   4.961   2.596   0.745
11676TIP3    H256520   4.999   2.454   0.772
11677TIP3   OH256521   4.100   2.557   1.343
11677TIP3    H156522   4.104   2.597   1.431
11677TIP3    H256523   4.055   2.473   1.360
11678TIP3   OH256524   4.456   2.322   0.060
11678TIP3    H156525   4.402   2.256   0.107
11678TIP3    H256526   4.396   2.350  -0.011
11679TIP3   OH256527   3.765   2.268   0.737
11679TIP3    H156528   3.832   2.264   0.808
11679TIP3    H256529   3.810   2.228   0.660
11680TIP3   OH256530   3.893   2.341   0.276
11680TIP3    H156531   3.943   2.401   0.216
11680TIP3    H256532   3.823   2.401   0.307
11681TIP3   OH256533   4.909   2.699   1.278
11681TIP3    H156534   4.945   2.632   1.217
11681TIP3    H256535   4.863   2.646   1.345
11682TIP3   OH256536   4.588   2.295   0.759
11682TIP3    H156537   4.495   2.297   0.789
11682TIP3    H256538   4.637   2.282   0.842
11683TIP3   OH256539   4.070   2.453   0.646
11683TIP3    H156540   3.981   2.466   0.608
11683TIP3    H256541   4.099   2.369   0.606
11684TIP3   OH256542   4.434   2.457   0.410
11684TIP3    H156543   4.530   2.467   0.427
11684TIP3    H256544   4.411   2.523   0.342
11685TIP3   OH256545   5.029   2.219   1.085
11685TIP3    H156546   4.960   2.226   1.154
11685TIP3    H256547   4.978   2.196   1.005
11686TIP3   OH256548   4.304   2.574   0.168
11686TIP3    H156549   4.248   2.538   0.097
11686TIP3    H256550   4.386   2.594   0.121
11687TIP3   OH256551   5.351   3.784   1.716
11687TIP3    H156552   5.377   3.824   1.631
11687TIP3    H256553   5.422   3.817   1.773
11688TIP3   OH256554   4.117   3.030   1.673
11688TIP3    H156555   4.189   3.056   1.733
11688TIP3    H256556   4.039   3.043   1.731
11689TIP3   OH256557   4.717   2.572   0.949
11689TIP3    H156558   4.776   2.517   0.895
11689TIP3    H256559   4.703   2.517   1.028
11690TIP3   OH256560   4.218   2.186   0.593
11690TIP3    H156561   4.187   2.094   0.590
11690TIP3    H256562   4.297   2.181   0.537
11691TIP3   OH256563   4.581   2.406   1.190
11691TIP3    H156564   4.498   2.456   1.200
11691TIP3    H256565   4.636   2.439   1.264
11692TIP3   OH256566   4.640   3.028   0.361
11692TIP3    H156567   4.561   2.980   0.328
11692TIP3    H256568   4.620   3.037   0.456
11693TIP3   OH256569   5.356   2.946   1.240
11693TIP3    H156570   5.414   2.993   1.179
11693TIP3    H256571   5.271   2.953   1.193
11694TIP3   OH256572   5.026   2.311   0.179
11694TIP3    H156573   4.931   2.324   0.162
11694TIP3    H256574   5.056   2.397   0.212
11695TIP3   OH256575   4.788   3.052   1.484
11695TIP3    H156576   4.754   3.011   1.564
11695TIP3    H256577   4.765   3.145   1.493
11696TIP3   OH256578   5.096   2.500   0.345
11696TIP3    H156579   5.187   2.486   0.378
11696TIP3    H256580   5.104   2.581   0.291
11697TIP3   OH256581   4.151   2.965   0.941
11697TIP3    H156582   4.221   2.958   0.873
11697TIP3    H256583   4.157   2.879   0.985
11698TIP3   OH256584   4.850   3.174   0.264
11698TIP3    H156585   4.815   3.258   0.300
11698TIP3    H256586   4.776   3.113   0.283
11699TIP3   OH256587   3.849   2.807   1.467
11699TIP3    H156588   3.869   2.763   1.551
11699TIP3    H256589   3.788   2.745   1.424
11700TIP3   OH256590   4.551   2.762   1.686
11700TIP3    H156591   4.520   2.735   1.598
11700TIP3    H256592   4.644   2.732   1.685
11701TIP3   OH256593   5.018   3.296   1.478
11701TIP3    H156594   4.925   3.314   1.455
11701TIP3    H256595   5.016   3.324   1.571
11702TIP3   OH256596   5.587   2.515   0.320
11702TIP3    H156597   5.529   2.482   0.249
11702TIP3    H256598   5.595   2.609   0.290
11703TIP3   OH256599   5.585   3.101   1.600
11703TIP3    H156600   5.496   3.123   1.562
11703TIP3    H256601   5.640   3.097   1.520
11704TIP3   OH256602   5.415   3.398   0.357
11704TIP3    H156603   5.379   3.315   0.391
11704TIP3    H256604   5.445   3.378   0.267
11705TIP3   OH256605   5.135   2.879   1.067
11705TIP3    H156606   5.041   2.857   1.059
11705TIP3    H256607   5.178   2.802   1.027
11706TIP3   OH256608   4.387   3.311   0.678
11706TIP3    H156609   4.438   3.392   0.657
11706TIP3    H256610   4.299   3.335   0.646
11707TIP3   OH256611   3.962   2.798   0.132
11707TIP3    H156612   4.023   2.861   0.176
11707TIP3    H256613   3.875   2.828   0.164
11708TIP3   OH256614   4.530   3.078   0.632
11708TIP3    H156615   4.501   3.171   0.639
11708TIP3    H256616   4.455   3.031   0.674
11709TIP3   OH256617   4.575   3.496   1.269
11709TIP3    H156618   4.619   3.578   1.242
11709TIP3    H256619   4.635   3.463   1.339
11710TIP3   OH256620   4.397   3.579   0.584
11710TIP3    H156621   4.300   3.592   0.596
11710TIP3    H256622   4.433   3.662   0.620
11711TIP3   OH256623   4.930   3.099   1.234
11711TIP3    H156624   4.893   3.078   1.322
11711TIP3    H256625   4.992   3.027   1.217
11712TIP3   OH256626   5.157   3.200   0.145
11712TIP3    H156627   5.188   3.155   0.226
11712TIP3    H256628   5.061   3.185   0.153
11713TIP3   OH256629   5.206   3.556   1.483
11713TIP3    H156630   5.140   3.505   1.433
11713TIP3    H256631   5.227   3.625   1.417
11714TIP3   OH256632   5.607   3.641   0.171
11714TIP3    H156633   5.677   3.705   0.146
11714TIP3    H256634   5.534   3.703   0.194
11715TIP3   OH256635   4.014   2.281   1.421
11715TIP3    H156636   3.923   2.315   1.418
11715TIP3    H256637   4.003   2.196   1.467
11716TIP3   OH256638   5.239   3.065   0.366
11716TIP3    H156639   5.215   2.987   0.420
11716TIP3    H256640   5.334   3.073   0.387
11717TIP3   OH256641   3.977   3.460   1.264
11717TIP3    H156642   4.004   3.367   1.265
11717TIP3    H256643   4.002   3.488   1.353
11718TIP3   OH256644   4.454   3.266   0.233
11718TIP3    H156645   4.475   3.212   0.311
11718TIP3    H256646   4.458   3.358   0.267
11719TIP3   OH256647   4.106   2.986   0.284
11719TIP3    H156648   4.035   3.028   0.341
11719TIP3    H256649   4.155   3.066   0.260
11720TIP3   OH256650   4.887   2.257   1.315
11720TIP3    H156651   4.958   2.263   1.380
11720TIP3    H256652   4.849   2.169   1.334
11721TIP3   OH256653   4.962   2.218   0.425
11721TIP3    H156654   4.987   2.265   0.343
11721TIP3    H256655   5.021   2.259   0.490
11722TIP3   OH256656   4.731   3.432   0.306
11722TIP3    H156657   4.649   3.484   0.315
11722TIP3    H256658   4.785   3.484   0.245
11723TIP3   OH256659   4.684   2.391   0.507
11723TIP3    H156660   4.764   2.447   0.510
11723TIP3    H256661   4.659   2.378   0.600
11724TIP3   OH256662   4.740   2.492   1.426
11724TIP3    H156663   4.749   2.549   1.504
11724TIP3    H256664   4.806   2.423   1.436
11725TIP3   OH256665   4.771   2.097   0.597
11725TIP3    H156666   4.738   2.162   0.661
11725TIP3    H256667   4.840   2.151   0.551
11726TIP3   OH256668   4.466   3.536   0.309
11726TIP3    H156669   4.483   3.618   0.259
11726TIP3    H256670   4.444   3.569   0.398
11727TIP3   OH256671   4.337   2.206   0.269
11727TIP3    H156672   4.330   2.297   0.305
11727TIP3    H256673   4.428   2.183   0.297
11728TIP3   OH256674   5.359   2.280   1.511
11728TIP3    H156675   5.266   2.310   1.498
11728TIP3    H256676   5.389   2.280   1.418
11729TIP3   OH256677   5.219   2.658   0.914
11729TIP3    H156678   5.137   2.614   0.884
11729TIP3    H256679   5.266   2.589   0.965
11730TIP3   OH256680   4.162   3.251   0.171
11730TIP3    H156681   4.225   3.316   0.204
11730TIP3    H256682   4.214   3.206   0.102
11731TIP3   OH256683   3.999   2.519   0.091
11731TIP3    H156684   3.993   2.615   0.104
11731TIP3    H256685   3.911   2.497   0.058
11732TIP3   OH256686   5.326   3.583   1.080
11732TIP3    H156687   5.315   3.652   1.011
11732TIP3    H256688   5.422   3.590   1.098
11733TIP3   OH256689   4.076   1.996   0.958
11733TIP3    H156690   4.055   1.999   0.862
11733TIP3    H256691   4.033   1.913   0.985
11734TIP3   OH256692   3.974   3.394   0.578
11734TIP3    H156693   3.886   3.431   0.567
11734TIP3    H256694   4.021   3.436   0.505
11735TIP3   OH256695   3.894   3.653   1.703
11735TIP3    H156696   3.953   3.631   1.778
11735TIP3    H256697   3.851   3.568   1.685
11736TIP3   OH256698   4.359   3.545   1.865
11736TIP3    H156699   4.435   3.496   1.897
11736TIP3    H256700   4.357   3.518   1.770
11737TIP3   OH256701   4.813   3.510   0.057
11737TIP3    H156702   4.729   3.459   0.057
11737TIP3    H256703   4.856   3.455  -0.008
11738TIP3   OH256704   5.012   3.383   1.738
11738TIP3    H156705   4.980   3.294   1.764
11738TIP3    H256706   5.088   3.395   1.798
11739TIP3   OH256707   5.229   3.473   0.023
11739TIP3    H156708   5.257   3.393   0.072
11739TIP3    H256709   5.306   3.497  -0.030
11740TIP3   OH256710   3.886   3.031   1.801
11740TIP3    H156711   3.901   2.940   1.771
11740TIP3    H256712   3.810   3.058   1.746
11741TIP3   OH256713   4.328   3.072   0.016
11741TIP3    H156714   4.332   2.988   0.064
11741TIP3    H256715   4.386   3.050  -0.060
11742TIP3   OH256716   4.555   3.029   1.741
11742TIP3    H156717   4.521   3.059   1.654
11742TIP3    H256718   4.565   2.932   1.731
11743TIP3   OH256719   5.125   3.016   1.480
11743TIP3    H156720   5.203   3.076   1.471
11743TIP3    H256721   5.054   3.081   1.484
11744TIP3   OH256722   3.974   2.753   1.740
11744TIP3    H156723   4.015   2.667   1.730
11744TIP3    H256724   3.949   2.753   1.834
11745TIP3   OH256725   4.440   2.868   0.244
11745TIP3    H156726   4.390   2.815   0.309
11745TIP3    H256727   4.468   2.799   0.180
11746TIP3   OH256728   4.366   2.649   1.477
11746TIP3    H156729   4.305   2.720   1.503
11746TIP3    H256730   4.403   2.685   1.395
11747TIP3   OH256731   4.547   2.685   0.068
11747TIP3    H156732   4.532   2.673  -0.027
11747TIP3    H256733   4.644   2.696   0.074
11748TIP3   OH256734   4.871   2.903   1.808
11748TIP3    H156735   4.967   2.905   1.800
11748TIP3    H256736   4.854   2.828   1.866
11749TIP3   OH256737   5.463   2.936  16.020
11749TIP3    H156738   5.456   2.885  15.937
11749TIP3    H256739   5.487   3.024  15.990
11750TIP3   OH256740   4.405   2.386   1.584
11750TIP3    H156741   4.417   2.314   1.519
11750TIP3    H256742   4.401   2.467   1.528
11751TIP3   OH256743   4.445   2.224   1.337
11751TIP3    H156744   4.497   2.270   1.267
11751TIP3    H256745   4.356   2.215   1.295
11752TIP3   OH256746   4.600   2.771   1.361
11752TIP3    H156747   4.675   2.755   1.303
11752TIP3    H256748   4.565   2.855   1.329
11753TIP3   OH256749   5.040   2.549   1.859
11753TIP3    H156750   5.062   2.455   1.849
11753TIP3    H256751   5.127   2.592   1.861
11754TIP3   OH256752   5.172   2.827   1.672
11754TIP3    H156753   5.148   2.900   1.612
11754TIP3    H256754   5.269   2.824   1.654
11755TIP3   OH256755   4.251   2.510   1.775
11755TIP3    H156756   4.174   2.453   1.756
11755TIP3    H256757   4.317   2.474   1.713
11756TIP3   OH256758   4.524   1.968   1.378
11756TIP3    H156759   4.509   2.065   1.367
11756TIP3    H256760   4.449   1.932   1.327
11757TIP3   OH256761   4.651   2.401   1.737
11757TIP3    H156762   4.622   2.378   1.827
11757TIP3    H256763   4.572   2.381   1.684
11758TIP3   OH256764   4.923   2.314   1.645
11758TIP3    H156765   4.827   2.319   1.657
11758TIP3    H256766   4.951   2.251   1.713
11759TIP3   OH256767   5.083   2.177   1.839
11759TIP3    H156768   5.076   2.080   1.841
11759TIP3    H256769   5.055   2.206   1.928
11760TIP3   OH256770   4.061   2.303   1.748
11760TIP3    H156771   4.086   2.230   1.688
11760TIP3    H256772   4.053   2.258   1.834
11761TIP3   OH256773   4.545   1.904   1.647
11761TIP3    H156774   4.615   1.836   1.643
11761TIP3    H256775   4.535   1.923   1.551
11762TIP3   OH256776   4.582   2.068   1.855
11762TIP3    H156777   4.566   2.018   1.771
11762TIP3    H256778   4.521   2.144   1.846
11763TIP3   OH256779   4.530   3.757   0.170
11763TIP3    H156780   4.627   3.771   0.181
11763TIP3    H256781   4.510   3.824   0.104
11764TIP3   OH256782   3.889   3.222   0.115
11764TIP3    H156783   3.982   3.228   0.145
11764TIP3    H256784   3.892   3.155   0.047
11765TIP3   OH256785   3.760   3.757   0.621
11765TIP3    H156786   3.693   3.711   0.567
11765TIP3    H256787   3.794   3.691   0.684
11766TIP3   OH256788   3.838   3.570   0.805
11766TIP3    H156789   3.814   3.478   0.825
11766TIP3    H256790   3.869   3.602   0.893
11767TIP3   OH256791   5.598   3.648   1.100
11767TIP3    H156792   5.600   3.666   1.196
11767TIP3    H256793   5.668   3.706   1.069
11768TIP3   OH256794   5.556   3.608   1.394
11768TIP3    H156795   5.508   3.531   1.357
11768TIP3    H256796   5.607   3.564   1.464
11769TIP3   OH256797   5.400   3.181   1.860
11769TIP3    H156798   5.311   3.176   1.898
11769TIP3    H256799   5.438   3.260   1.903
11770TIP3   OH256800   5.532   3.012   0.405
11770TIP3    H156801   5.617   3.053   0.424
11770TIP3    H256802   5.530   2.939   0.472
11771TIP3   OH256803   5.568   2.819   0.592
11771TIP3    H156804   5.494   2.768   0.631
11771TIP3    H256805   5.628   2.835   0.668
11772TIP3   OH256806   5.544   3.091   1.090
11772TIP3    H156807   5.627   3.054   1.055
11772TIP3    H256808   5.558   3.187   1.074
11773TIP3   OH256809   5.398   3.380   1.319
11773TIP3    H156810   5.329   3.414   1.378
11773TIP3    H256811   5.343   3.339   1.248
11774TIP3   OH256812   5.598   2.804   0.232
11774TIP3    H156813   5.541   2.840   0.162
11774TIP3    H256814   5.591   2.874   0.299
11775TIP3   OH256815   5.397   2.529   0.095
11775TIP3    H156816   5.438   2.590   0.030
11775TIP3    H256817   5.416   2.447   0.047
11776TIP3   OH256818   5.350   2.668   0.649
11776TIP3    H156819   5.334   2.572   0.646
11776TIP3    H256820   5.315   2.692   0.736
11777TIP3   OH256821   3.850   2.876   1.054
11777TIP3    H156822   3.869   2.868   0.958
11777TIP3    H256823   3.939   2.860   1.091
11778TIP3   OH256824   5.435   2.865   1.616
11778TIP3    H156825   5.496   2.789   1.632
11778TIP3    H256826   5.494   2.942   1.618
11779TIP3   OH256827   5.585   2.654   1.683
11779TIP3    H156828   5.497   2.614   1.666
11779TIP3    H256829   5.643   2.577   1.675
11780TIP3   OH256830   5.316   2.427   0.495
11780TIP3    H156831   5.347   2.334   0.507
11780TIP3    H256832   5.395   2.467   0.457
11781TIP3   OH256833   5.380   2.481   1.039
11781TIP3    H156834   5.476   2.504   1.037
11781TIP3    H256835   5.360   2.495   1.133
11782TIP3   OH256836   5.387   2.553   1.318
11782TIP3    H156837   5.299   2.583   1.351
11782TIP3    H256838   5.430   2.640   1.295
11783TIP3   OH256839   3.811   2.406   1.668
11783TIP3    H156840   3.905   2.387   1.689
11783TIP3    H256841   3.766   2.324   1.700
11784TIP3   OH256842   5.613   1.957   1.853
11784TIP3    H156843   5.648   1.892   1.790
11784TIP3    H256844   5.626   2.040   1.802
11785TIP3   OH256845   5.383   2.154   0.499
11785TIP3    H156846   5.403   2.109   0.583
11785TIP3    H256847   5.322   2.092   0.454
11786TIP3   OH256848   3.932   2.235   0.954
11786TIP3    H156849   3.978   2.153   0.982
11786TIP3    H256850   3.984   2.305   0.995
11787TIP3   OH256851   3.761   2.534   1.060
11787TIP3    H156852   3.816   2.511   0.982
11787TIP3    H256853   3.805   2.616   1.086
11788TIP3   OH256854   5.566   2.168   1.688
11788TIP3    H156855   5.472   2.195   1.682
11788TIP3    H256856   5.572   2.114   1.607
11789TIP3   OH256857   5.567   2.159   0.156
11789TIP3    H156858   5.607   2.089   0.105
11789TIP3    H256859   5.637   2.226   0.156
11790TIP3   OH256860   3.796   2.162   0.466
11790TIP3    H156861   3.702   2.181   0.451
11790TIP3    H256862   3.840   2.210   0.395
11791TIP3   OH256863   5.271   3.656   0.661
11791TIP3    H156864   5.339   3.625   0.599
11791TIP3    H256865   5.323   3.706   0.726
11792TIP3   OH256866   3.792   2.029   1.297
11792TIP3    H156867   3.725   2.008   1.364
11792TIP3    H256868   3.746   2.095   1.242
11793TIP3   OH256869   4.014   3.347   1.713
11793TIP3    H156870   3.930   3.369   1.668
11793TIP3    H256871   3.987   3.341   1.805
11794TIP3   OH256872   4.305   3.447   1.340
11794TIP3    H156873   4.270   3.532   1.312
11794TIP3    H256874   4.398   3.457   1.309
11795TIP3   OH256875   4.737   3.589   1.632
11795TIP3    H156876   4.754   3.554   1.723
11795TIP3    H256877   4.827   3.620   1.605
11796TIP3   OH256878   4.967   3.716   1.561
11796TIP3    H156879   5.040   3.656   1.537
11796TIP3    H256880   5.005   3.759   1.641
11797TIP3   OH256881   5.467   1.978   1.471
11797TIP3    H156882   5.384   2.007   1.430
11797TIP3    H256883   5.485   1.897   1.418
11798TIP3   OH256884   4.048   3.771   1.341
11798TIP3    H156885   3.975   3.820   1.300
11798TIP3    H256886   4.015   3.751   1.430
11799TIP3   OH256887   4.295   3.730   1.248
11799TIP3    H156888   4.206   3.743   1.287
11799TIP3    H256889   4.288   3.788   1.170
11800TIP3   OH256890   4.765   3.721   1.165
11800TIP3    H156891   4.719   3.776   1.099
11800TIP3    H256892   4.780   3.784   1.238
11801TIP3   OH256893   4.996   3.604   1.264
11801TIP3    H156894   4.908   3.629   1.231
11801TIP3    H256895   5.041   3.690   1.255
11802TIP3   OH256896   5.254   3.761   1.290
11802TIP3    H156897   5.244   3.856   1.267
11802TIP3    H256898   5.274   3.724   1.202
11803TIP3   OH256899   3.989   3.635   1.033
11803TIP3    H156900   3.985   3.592   1.121
11803TIP3    H256901   4.073   3.600   0.995
11804TIP3   OH256902   4.201   3.508   0.900
11804TIP3    H156903   4.183   3.414   0.921
11804TIP3    H256904   4.286   3.522   0.946
11805TIP3   OH256905   4.459   3.556   0.987
11805TIP3    H156906   4.477   3.464   0.960
11805TIP3    H256907   4.465   3.550   1.083
11806TIP3   OH256908   4.807   2.121   0.900
11806TIP3    H156909   4.740   2.057   0.928
11806TIP3    H256910   4.863   2.068   0.842
11807TIP3   OH256911   5.321   1.927   0.910
11807TIP3    H156912   5.382   1.985   0.858
11807TIP3    H256913   5.233   1.962   0.885
11808TIP3   OH256914   5.489   2.048   0.739
11808TIP3    H156915   5.557   1.993   0.693
11808TIP3    H256916   5.536   2.134   0.746
11809TIP3   OH256917   4.043   1.984   0.685
11809TIP3    H156918   3.964   1.962   0.633
11809TIP3    H256919   4.091   1.899   0.681
11810TIP3   OH256920   3.921   1.960   0.261
11810TIP3    H156921   3.969   2.024   0.204
11810TIP3    H256922   3.862   2.017   0.314
11811TIP3   OH256923   4.493   1.978   0.664
11811TIP3    H156924   4.584   2.012   0.659
11811TIP3    H256925   4.488   1.953   0.757
11812TIP3   OH256926   5.063   1.982   0.827
11812TIP3    H156927   5.059   1.988   0.731
11812TIP3    H256928   5.025   1.890   0.842
11813TIP3   OH256929   5.190   1.982   0.394
11813TIP3    H156930   5.116   2.042   0.377
11813TIP3    H256931   5.145   1.896   0.413
11814TIP3   OH256932   3.914   3.556   0.358
11814TIP3    H156933   3.847   3.554   0.286
11814TIP3    H256934   3.915   3.651   0.376
11815TIP3   OH256935   4.106   2.148   0.111
11815TIP3    H156936   4.159   2.092   0.055
11815TIP3    H256937   4.171   2.186   0.172
11816TIP3   OH256938   4.608   2.179   0.350
11816TIP3    H156939   4.632   2.120   0.424
11816TIP3    H256940   4.611   2.265   0.398
11817TIP3   OH256941   4.796   3.707   0.201
11817TIP3    H156942   4.892   3.714   0.178
11817TIP3    H256943   4.779   3.643   0.128
11818TIP3   OH256944   5.471   3.636   0.464
11818TIP3    H156945   5.450   3.559   0.406
11818TIP3    H256946   5.463   3.711   0.400
11819TIP3   OH256947   4.033   2.037   1.631
11819TIP3    H156948   3.996   1.958   1.675
11819TIP3    H256949   4.125   2.035   1.667
11820TIP3   OH256950   4.233   1.974   1.792
11820TIP3    H156951   4.323   1.941   1.772
11820TIP3    H256952   4.196   1.895   1.835
11821TIP3   OH256953   4.098   3.652   0.054
11821TIP3    H156954   4.067   3.679   0.142
11821TIP3    H256955   4.172   3.595   0.073
11822TIP3   OH256956   5.074   1.905   1.809
11822TIP3    H156957   5.083   1.858   1.894
11822TIP3    H256958   5.165   1.902   1.774
11823TIP3   OH256959   5.394   3.509   1.674
11823TIP3    H156960   5.314   3.495   1.621
11823TIP3    H256961   5.383   3.604   1.696
11824TIP3   OH256962   6.837   2.897   0.674
11824TIP3    H156963   6.839   2.995   0.667
11824TIP3    H256964   6.767   2.873   0.611
11825TIP3   OH256965   6.725   2.824   1.022
11825TIP3    H156966   6.722   2.758   1.092
11825TIP3    H256967   6.692   2.774   0.945
11826TIP3   OH256968   5.960   2.789   1.177
11826TIP3    H156969   5.968   2.722   1.249
11826TIP3    H256970   6.034   2.848   1.199
11827TIP3   OH256971   7.094   3.117   0.850
11827TIP3    H156972   7.052   3.045   0.899
11827TIP3    H256973   7.098   3.187   0.917
11828TIP3   OH256974   6.053   3.234   1.030
11828TIP3    H156975   6.020   3.149   0.995
11828TIP3    H256976   6.148   3.215   1.034
11829TIP3   OH256977   5.717   2.592   0.575
11829TIP3    H156978   5.672   2.679   0.570
11829TIP3    H256979   5.660   2.538   0.520
11830TIP3   OH256980   5.787   2.814   0.788
11830TIP3    H156981   5.813   2.733   0.836
11830TIP3    H256982   5.859   2.823   0.724
11831TIP3   OH256983   6.808   3.633   0.873
11831TIP3    H156984   6.871   3.562   0.845
11831TIP3    H256985   6.786   3.602   0.961
11832TIP3   OH256986   6.562   3.065   1.066
11832TIP3    H156987   6.596   3.000   1.002
11832TIP3    H256988   6.641   3.079   1.121
11833TIP3   OH256989   6.878   2.510   1.098
11833TIP3    H156990   6.895   2.414   1.098
11833TIP3    H256991   6.868   2.525   1.002
11834TIP3   OH256992   6.191   2.318   0.822
11834TIP3    H156993   6.200   2.403   0.775
11834TIP3    H256994   6.150   2.261   0.754
11835TIP3   OH256995   6.965   2.330   0.660
11835TIP3    H156996   7.031   2.296   0.725
11835TIP3    H256997   7.020   2.383   0.602
11836TIP3   OH256998   5.853   2.559   0.896
11836TIP3    H156999   5.921   2.504   0.940
11836TIP3    H257000   5.862   2.529   0.804
11837TIP3   OH257001   6.370   2.715   0.824
11837TIP3    H157002   6.435   2.657   0.867
11837TIP3    H257003   6.316   2.648   0.777
11838TIP3   OH257004   6.080   2.208   1.226
11838TIP3    H157005   6.053   2.265   1.151
11838TIP3    H257006   6.011   2.232   1.294
11839TIP3   OH257007   6.809   3.156   0.581
11839TIP3    H157008   6.783   3.129   0.492
11839TIP3    H257009   6.780   3.250   0.586
11840TIP3   OH257010   6.333   2.973   1.252
11840TIP3    H157011   6.261   3.037   1.270
11840TIP3    H257012   6.403   3.033   1.223
11841TIP3   OH257013   7.129   2.260   0.864
11841TIP3    H157014   7.121   2.180   0.915
11841TIP3    H257015   7.203   2.306   0.909
11842TIP3   OH257016   6.036   2.395   1.027
11842TIP3    H157017   6.099   2.463   1.060
11842TIP3    H257018   6.089   2.352   0.956
11843TIP3   OH257019   6.176   3.172   1.333
11843TIP3    H157020   6.172   3.263   1.298
11843TIP3    H257021   6.088   3.165   1.377
11844TIP3   OH257022   5.784   3.136   0.412
11844TIP3    H157023   5.760   3.167   0.322
11844TIP3    H257024   5.791   3.221   0.461
11845TIP3   OH257025   7.140   3.298   1.091
11845TIP3    H157026   7.044   3.311   1.101
11845TIP3    H257027   7.172   3.388   1.070
11846TIP3   OH257028   7.170   2.136   1.216
11846TIP3    H157029   7.097   2.200   1.219
11846TIP3    H257030   7.241   2.182   1.170
11847TIP3   OH257031   6.477   1.940   0.974
11847TIP3    H157032   6.462   1.845   0.965
11847TIP3    H257033   6.389   1.973   1.001
11848TIP3   OH257034   6.969   3.477   0.747
11848TIP3    H157035   7.016   3.408   0.697
11848TIP3    H257036   7.011   3.557   0.708
11849TIP3   OH257037   7.091   3.271   0.595
11849TIP3    H157038   7.063   3.200   0.536
11849TIP3    H257039   7.096   3.223   0.681
11850TIP3   OH257040   7.236   3.139   1.453
11850TIP3    H157041   7.267   3.073   1.388
11850TIP3    H257042   7.275   3.219   1.412
11851TIP3   OH257043   6.704   2.822   0.422
11851TIP3    H157044   6.634   2.879   0.385
11851TIP3    H257045   6.775   2.829   0.355
11852TIP3   OH257046   6.707   2.670   0.132
11852TIP3    H157047   6.783   2.674   0.192
11852TIP3    H257048   6.741   2.609   0.066
11853TIP3   OH257049   7.047   2.844   0.515
11853TIP3    H157050   6.974   2.868   0.577
11853TIP3    H257051   7.094   2.776   0.568
11854TIP3   OH257052   7.038   2.657   1.427
11854TIP3    H157053   7.042   2.738   1.480
11854TIP3    H257054   6.977   2.689   1.357
11855TIP3   OH257055   6.210   2.909   0.707
11855TIP3    H157056   6.178   2.869   0.623
11855TIP3    H257057   6.271   2.839   0.741
11856TIP3   OH257058   6.343   3.249   0.975
11856TIP3    H157059   6.340   3.193   0.896
11856TIP3    H257060   6.421   3.212   1.022
11857TIP3   OH257061   6.244   2.783   1.072
11857TIP3    H157062   6.301   2.794   0.993
11857TIP3    H257063   6.281   2.849   1.134
11858TIP3   OH257064   6.880   3.339   1.142
11858TIP3    H157065   6.856   3.402   1.210
11858TIP3    H257066   6.859   3.253   1.186
11859TIP3   OH257067   6.338   3.225   1.542
11859TIP3    H157068   6.300   3.301   1.590
11859TIP3    H257069   6.270   3.207   1.473
11860TIP3   OH257070   6.937   2.758   0.283
11860TIP3    H157071   6.991   2.779   0.363
11860TIP3    H257072   6.976   2.813   0.213
11861TIP3   OH257073   6.031   2.842   1.460
11861TIP3    H157074   6.036   2.909   1.532
11861TIP3    H257075   5.938   2.852   1.435
11862TIP3   OH257076   6.706   3.434   0.630
11862TIP3    H157077   6.751   3.465   0.710
11862TIP3    H257078   6.651   3.509   0.605
11863TIP3   OH257079   6.162   3.430   1.618
11863TIP3    H157080   6.158   3.419   1.522
11863TIP3    H257081   6.068   3.418   1.644
11864TIP3   OH257082   7.284   1.929   0.262
11864TIP3    H157083   7.198   1.954   0.300
11864TIP3    H257084   7.319   2.011   0.227
11865TIP3   OH257085   6.108   2.812   0.468
11865TIP3    H157086   6.079   2.889   0.416
11865TIP3    H257087   6.042   2.746   0.447
11866TIP3   OH257088   5.717   3.053   1.355
11866TIP3    H157089   5.670   3.045   1.269
11866TIP3    H257090   5.722   2.958   1.379
11867TIP3   OH257091   5.693   3.327   1.036
11867TIP3    H157092   5.788   3.315   1.034
11867TIP3    H257093   5.684   3.408   1.088
11868TIP3   OH257094   6.612   3.352   1.491
11868TIP3    H157095   6.619   3.436   1.541
11868TIP3    H257096   6.524   3.317   1.516
11869TIP3   OH257097   6.654   3.726   0.471
11869TIP3    H157098   6.646   3.719   0.374
11869TIP3    H257099   6.659   3.823   0.486
11870TIP3   OH257100   6.020   3.613   0.652
11870TIP3    H157101   6.034   3.572   0.740
11870TIP3    H257102   5.934   3.573   0.628
11871TIP3   OH257103   6.961   3.646   0.169
11871TIP3    H157104   7.004   3.570   0.125
11871TIP3    H257105   6.964   3.620   0.263
11872TIP3   OH257106   6.931   3.640   0.447
11872TIP3    H157107   6.835   3.647   0.465
11872TIP3    H257108   6.957   3.567   0.505
11873TIP3   OH257109   7.204   2.553   1.657
11873TIP3    H157110   7.184   2.593   1.572
11873TIP3    H257111   7.236   2.464   1.627
11874TIP3   OH257112   5.944   3.185   1.452
11874TIP3    H157113   5.967   3.148   1.540
11874TIP3    H257114   5.857   3.145   1.430
11875TIP3   OH257115   6.211   2.031   1.048
11875TIP3    H157116   6.121   2.020   1.011
11875TIP3    H257117   6.200   2.115   1.095
11876TIP3   OH257118   6.675   1.997   1.384
11876TIP3    H157119   6.715   1.960   1.464
11876TIP3    H257120   6.578   1.987   1.400
11877TIP3   OH257121   7.004   2.381   1.473
11877TIP3    H157122   6.951   2.363   1.554
11877TIP3    H257123   6.988   2.474   1.451
11878TIP3   OH257124   7.093   2.871   0.063
11878TIP3    H157125   7.089   2.850  -0.033
11878TIP3    H257126   7.177   2.914   0.070
11879TIP3   OH257127   6.639   2.255   0.117
11879TIP3    H157128   6.611   2.252   0.210
11879TIP3    H257129   6.615   2.167   0.088
11880TIP3   OH257130   6.221   2.528   1.169
11880TIP3    H157131   6.149   2.526   1.235
11880TIP3    H257132   6.218   2.620   1.136
11881TIP3   OH257133   6.217   2.544   0.657
11881TIP3    H157134   6.125   2.515   0.645
11881TIP3    H257135   6.257   2.512   0.574
11882TIP3   OH257136   6.771   2.590   0.534
11882TIP3    H157137   6.729   2.673   0.502
11882TIP3    H257138   6.841   2.575   0.468
11883TIP3   OH257139   6.677   2.612   1.681
11883TIP3    H157140   6.624   2.535   1.712
11883TIP3    H257141   6.761   2.598   1.728
11884TIP3   OH257142   6.873   2.540   0.820
11884TIP3    H157143   6.848   2.596   0.745
11884TIP3    H257144   6.884   2.455   0.773
11885TIP3   OH257145   5.986   2.557   1.343
11885TIP3    H157146   5.990   2.597   1.431
11885TIP3    H257147   5.940   2.473   1.360
11886TIP3   OH257148   6.342   2.322   0.060
11886TIP3    H157149   6.288   2.256   0.107
11886TIP3    H257150   6.282   2.350  -0.011
11887TIP3   OH257151   5.650   2.268   0.737
11887TIP3    H157152   5.717   2.264   0.808
11887TIP3    H257153   5.696   2.228   0.660
11888TIP3   OH257154   5.779   2.341   0.276
11888TIP3    H157155   5.828   2.401   0.217
11888TIP3    H257156   5.708   2.401   0.307
11889TIP3   OH257157   6.795   2.699   1.278
11889TIP3    H157158   6.831   2.632   1.217
11889TIP3    H257159   6.749   2.646   1.345
11890TIP3   OH257160   6.474   2.295   0.759
11890TIP3    H157161   6.380   2.297   0.789
11890TIP3    H257162   6.523   2.282   0.842
11891TIP3   OH257163   5.956   2.453   0.646
11891TIP3    H157164   5.866   2.466   0.608
11891TIP3    H257165   5.984   2.369   0.606
11892TIP3   OH257166   6.319   2.457   0.410
11892TIP3    H157167   6.415   2.467   0.427
11892TIP3    H257168   6.297   2.523   0.342
11893TIP3   OH257169   6.913   2.216   1.084
11893TIP3    H157170   6.845   2.226   1.154
11893TIP3    H257171   6.862   2.198   1.004
11894TIP3   OH257172   6.189   2.574   0.168
11894TIP3    H157173   6.133   2.538   0.097
11894TIP3    H257174   6.272   2.594   0.121
11895TIP3   OH257175   7.233   3.784   1.717
11895TIP3    H157176   7.263   3.822   1.632
11895TIP3    H257177   7.306   3.815   1.773
11896TIP3   OH257178   6.003   3.030   1.673
11896TIP3    H157179   6.075   3.055   1.734
11896TIP3    H257180   5.925   3.043   1.731
11897TIP3   OH257181   6.603   2.571   0.949
11897TIP3    H157182   6.663   2.517   0.896
11897TIP3    H257183   6.589   2.517   1.028
11898TIP3   OH257184   6.104   2.186   0.593
11898TIP3    H157185   6.073   2.094   0.590
11898TIP3    H257186   6.183   2.180   0.537
11899TIP3   OH257187   6.467   2.405   1.190
11899TIP3    H157188   6.384   2.456   1.200
11899TIP3    H257189   6.521   2.439   1.264
11900TIP3   OH257190   6.525   3.028   0.361
11900TIP3    H157191   6.446   2.980   0.328
11900TIP3    H257192   6.505   3.037   0.456
11901TIP3   OH257193   7.231   2.947   1.240
11901TIP3    H157194   7.295   2.978   1.173
11901TIP3    H257195   7.149   2.952   1.188
11902TIP3   OH257196   6.911   2.311   0.177
11902TIP3    H157197   6.816   2.323   0.161
11902TIP3    H257198   6.940   2.397   0.211
11903TIP3   OH257199   6.674   3.052   1.483
11903TIP3    H157200   6.640   3.011   1.564
11903TIP3    H257201   6.652   3.145   1.493
11904TIP3   OH257202   6.982   2.500   0.341
11904TIP3    H157203   7.070   2.487   0.380
11904TIP3    H257204   6.988   2.584   0.292
11905TIP3   OH257205   6.036   2.965   0.939
11905TIP3    H157206   6.106   2.959   0.872
11905TIP3    H257207   6.042   2.879   0.985
11906TIP3   OH257208   6.736   3.174   0.264
11906TIP3    H157209   6.701   3.258   0.300
11906TIP3    H257210   6.662   3.113   0.283
11907TIP3   OH257211   5.735   2.807   1.467
11907TIP3    H157212   5.754   2.763   1.552
11907TIP3    H257213   5.674   2.745   1.424
11908TIP3   OH257214   6.436   2.762   1.686
11908TIP3    H157215   6.406   2.735   1.598
11908TIP3    H257216   6.530   2.732   1.685
11909TIP3   OH257217   6.901   3.294   1.477
11909TIP3    H157218   6.809   3.314   1.455
11909TIP3    H257219   6.902   3.324   1.570
11910TIP3   OH257220   7.292   3.397   0.358
11910TIP3    H157221   7.261   3.314   0.393
11910TIP3    H257222   7.329   3.379   0.271
11911TIP3   OH257223   7.016   2.878   1.068
11911TIP3    H157224   6.922   2.855   1.057
11911TIP3    H257225   7.063   2.802   1.027
11912TIP3   OH257226   6.273   3.311   0.678
11912TIP3    H157227   6.324   3.392   0.657
11912TIP3    H257228   6.185   3.335   0.646
11913TIP3   OH257229   5.847   2.798   0.132
11913TIP3    H157230   5.909   2.860   0.175
11913TIP3    H257231   5.760   2.827   0.164
11914TIP3   OH257232   6.416   3.078   0.632
11914TIP3    H157233   6.386   3.171   0.639
11914TIP3    H257234   6.342   3.030   0.675
11915TIP3   OH257235   6.461   3.496   1.269
11915TIP3    H157236   6.505   3.578   1.242
11915TIP3    H257237   6.521   3.463   1.339
11916TIP3   OH257238   6.284   3.579   0.585
11916TIP3    H157239   6.187   3.592   0.596
11916TIP3    H257240   6.319   3.662   0.621
11917TIP3   OH257241   6.816   3.099   1.234
11917TIP3    H157242   6.779   3.078   1.322
11917TIP3    H257243   6.878   3.026   1.217
11918TIP3   OH257244   7.043   3.200   0.145
11918TIP3    H157245   7.073   3.155   0.226
11918TIP3    H257246   6.947   3.186   0.153
11919TIP3   OH257247   7.089   3.558   1.483
11919TIP3    H157248   7.025   3.504   1.433
11919TIP3    H257249   7.114   3.625   1.416
11920TIP3   OH257250   5.900   2.281   1.421
11920TIP3    H157251   5.810   2.315   1.418
11920TIP3    H257252   5.889   2.196   1.467
11921TIP3   OH257253   7.125   3.064   0.366
11921TIP3    H157254   7.099   2.987   0.421
11921TIP3    H257255   7.219   3.073   0.389
11922TIP3   OH257256   5.862   3.460   1.264
11922TIP3    H157257   5.889   3.367   1.265
11922TIP3    H257258   5.888   3.488   1.353
11923TIP3   OH257259   6.339   3.266   0.234
11923TIP3    H157260   6.361   3.212   0.311
11923TIP3    H257261   6.345   3.358   0.267
11924TIP3   OH257262   5.988   2.989   0.286
11924TIP3    H157263   5.919   3.029   0.344
11924TIP3    H257264   6.041   3.066   0.260
11925TIP3   OH257265   6.771   2.257   1.315
11925TIP3    H157266   6.844   2.263   1.379
11925TIP3    H257267   6.734   2.169   1.334
11926TIP3   OH257268   6.848   2.217   0.425
11926TIP3    H157269   6.874   2.265   0.343
11926TIP3    H257270   6.906   2.258   0.490
11927TIP3   OH257271   6.616   3.432   0.306
11927TIP3    H157272   6.534   3.484   0.315
11927TIP3    H257273   6.671   3.484   0.245
11928TIP3   OH257274   6.570   2.391   0.507
11928TIP3    H157275   6.650   2.447   0.510
11928TIP3    H257276   6.545   2.378   0.600
11929TIP3   OH257277   6.625   2.491   1.425
11929TIP3    H157278   6.635   2.549   1.504
11929TIP3    H257279   6.692   2.422   1.436
11930TIP3   OH257280   6.654   2.097   0.596
11930TIP3    H157281   6.624   2.163   0.661
11930TIP3    H257282   6.724   2.151   0.551
11931TIP3   OH257283   6.351   3.536   0.309
11931TIP3    H157284   6.368   3.619   0.259
11931TIP3    H257285   6.330   3.569   0.398
11932TIP3   OH257286   6.223   2.206   0.270
11932TIP3    H157287   6.216   2.297   0.305
11932TIP3    H257288   6.314   2.183   0.297
11933TIP3   OH257289   7.242   2.275   1.504
11933TIP3    H157290   7.150   2.311   1.498
11933TIP3    H257291   7.275   2.283   1.415
11934TIP3   OH257292   7.106   2.659   0.917
11934TIP3    H157293   7.024   2.616   0.885
11934TIP3    H257294   7.147   2.586   0.965
11935TIP3   OH257295   6.047   3.251   0.172
11935TIP3    H157296   6.110   3.316   0.203
11935TIP3    H257297   6.099   3.206   0.102
11936TIP3   OH257298   5.885   2.519   0.091
11936TIP3    H157299   5.880   2.615   0.103
11936TIP3    H257300   5.797   2.497   0.058
11937TIP3   OH257301   7.216   3.584   1.080
11937TIP3    H157302   7.198   3.652   1.013
11937TIP3    H257303   7.309   3.591   1.099
11938TIP3   OH257304   5.962   1.996   0.958
11938TIP3    H157305   5.940   1.999   0.862
11938TIP3    H257306   5.919   1.913   0.984
11939TIP3   OH257307   5.857   3.388   0.573
11939TIP3    H157308   5.771   3.435   0.570
11939TIP3    H257309   5.906   3.437   0.506
11940TIP3   OH257310   5.779   3.653   1.703
11940TIP3    H157311   5.838   3.631   1.777
11940TIP3    H257312   5.736   3.568   1.684
11941TIP3   OH257313   6.244   3.545   1.865
11941TIP3    H157314   6.321   3.496   1.897
11941TIP3    H257315   6.242   3.518   1.770
11942TIP3   OH257316   6.699   3.510   0.057
11942TIP3    H157317   6.615   3.459   0.057
11942TIP3    H257318   6.742   3.455  -0.008
11943TIP3   OH257319   6.899   3.383   1.738
11943TIP3    H157320   6.867   3.294   1.765
11943TIP3    H257321   6.974   3.395   1.799
11944TIP3   OH257322   7.112   3.473   0.024
11944TIP3    H157323   7.140   3.393   0.072
11944TIP3    H257324   7.189   3.500  -0.028
11945TIP3   OH257325   5.771   3.031   1.801
11945TIP3    H157326   5.787   2.940   1.771
11945TIP3    H257327   5.695   3.058   1.746
11946TIP3   OH257328   6.213   3.072   0.016
11946TIP3    H157329   6.218   2.988   0.064
11946TIP3    H257330   6.271   3.050  -0.060
11947TIP3   OH257331   6.441   3.029   1.741
11947TIP3    H157332   6.407   3.059   1.654
11947TIP3    H257333   6.451   2.932   1.731
11948TIP3   OH257334   7.010   3.014   1.477
11948TIP3    H157335   7.087   3.076   1.470
11948TIP3    H257336   6.940   3.080   1.484
11949TIP3   OH257337   5.860   2.753   1.740
11949TIP3    H157338   5.901   2.667   1.730
11949TIP3    H257339   5.835   2.753   1.834
11950TIP3   OH257340   6.325   2.868   0.244
11950TIP3    H157341   6.276   2.815   0.309
11950TIP3    H257342   6.354   2.799   0.180
11951TIP3   OH257343   6.251   2.649   1.477
11951TIP3    H157344   6.191   2.720   1.503
11951TIP3    H257345   6.289   2.685   1.395
11952TIP3   OH257346   6.432   2.685   0.068
11952TIP3    H157347   6.418   2.674  -0.027
11952TIP3    H257348   6.530   2.696   0.074
11953TIP3   OH257349   6.754   2.904   1.809
11953TIP3    H157350   6.851   2.906   1.799
11953TIP3    H257351   6.740   2.827   1.866
11954TIP3   OH257352   6.290   2.386   1.584
11954TIP3    H157353   6.302   2.314   1.519
11954TIP3    H257354   6.287   2.467   1.528
11955TIP3   OH257355   6.330   2.224   1.337
11955TIP3    H157356   6.382   2.270   1.267
11955TIP3    H257357   6.242   2.215   1.295
11956TIP3   OH257358   6.486   2.771   1.361
11956TIP3    H157359   6.561   2.755   1.303
11956TIP3    H257360   6.450   2.855   1.329
11957TIP3   OH257361   6.925   2.550   1.859
11957TIP3    H157362   6.949   2.457   1.848
11957TIP3    H257363   7.013   2.592   1.859
11958TIP3   OH257364   7.055   2.827   1.671
11958TIP3    H157365   7.033   2.901   1.611
11958TIP3    H257366   7.152   2.824   1.655
11959TIP3   OH257367   6.136   2.511   1.775
11959TIP3    H157368   6.059   2.453   1.756
11959TIP3    H257369   6.203   2.474   1.713
11960TIP3   OH257370   6.410   1.967   1.377
11960TIP3    H157371   6.395   2.064   1.367
11960TIP3    H257372   6.333   1.933   1.328
11961TIP3   OH257373   6.537   2.401   1.737
11961TIP3    H157374   6.507   2.378   1.827
11961TIP3    H257375   6.458   2.381   1.684
11962TIP3   OH257376   6.807   2.315   1.645
11962TIP3    H157377   6.711   2.319   1.658
11962TIP3    H257378   6.837   2.251   1.712
11963TIP3   OH257379   6.973   2.177   1.841
11963TIP3    H157380   6.960   2.080   1.841
11963TIP3    H257381   6.940   2.207   1.928
11964TIP3   OH257382   5.946   2.303   1.748
11964TIP3    H157383   5.971   2.230   1.688
11964TIP3    H257384   5.938   2.258   1.834
11965TIP3   OH257385   6.431   1.905   1.647
11965TIP3    H157386   6.500   1.836   1.644
11965TIP3    H257387   6.420   1.924   1.552
11966TIP3   OH257388   6.468   2.068   1.855
11966TIP3    H157389   6.451   2.018   1.771
11966TIP3    H257390   6.407   2.144   1.846
11967TIP3   OH257391   6.415   3.757   0.170
11967TIP3    H157392   6.512   3.771   0.181
11967TIP3    H257393   6.396   3.824   0.104
11968TIP3   OH257394   5.773   3.219   0.119
11968TIP3    H157395   5.868   3.229   0.143
11968TIP3    H257396   5.778   3.157   0.047
11969TIP3   OH257397   5.647   3.757   0.620
11969TIP3    H157398   5.577   3.709   0.571
11969TIP3    H257399   5.677   3.690   0.684
11970TIP3   OH257400   5.730   3.568   0.805
11970TIP3    H157401   5.695   3.480   0.824
11970TIP3    H257402   5.753   3.601   0.893
11971TIP3   OH257403   7.270   3.190   1.849
11971TIP3    H157404   7.192   3.175   1.903
11971TIP3    H257405   7.320   3.255   1.900
11972TIP3   OH257406   7.282   3.375   1.322
11972TIP3    H157407   7.215   3.416   1.379
11972TIP3    H257408   7.228   3.339   1.248
11973TIP3   OH257409   7.312   2.526   0.088
11973TIP3    H157410   7.328   2.594   0.019
11973TIP3    H257411   7.296   2.445   0.040
11974TIP3   OH257412   7.204   2.674   0.650
11974TIP3    H157413   7.217   2.578   0.653
11974TIP3    H257414   7.197   2.695   0.744
11975TIP3   OH257415   5.736   2.876   1.054
11975TIP3    H157416   5.755   2.868   0.958
11975TIP3    H257417   5.825   2.860   1.091
11976TIP3   OH257418  -0.030   2.869   1.645
11976TIP3    H157419   0.028   2.791   1.639
11976TIP3    H257420   0.027   2.941   1.614
11977TIP3   OH257421   7.201   2.425   0.487
11977TIP3    H157422   7.230   2.336   0.514
11977TIP3    H257423   7.281   2.463   0.451
11978TIP3   OH257424   7.228   2.433   1.030
11978TIP3    H157425   7.323   2.449   1.019
11978TIP3    H257426   7.231   2.482   1.115
11979TIP3   OH257427   7.270   2.554   1.324
11979TIP3    H157428   7.182   2.584   1.352
11979TIP3    H257429   7.312   2.635   1.291
11980TIP3   OH257430   5.697   2.406   1.668
11980TIP3    H157431   5.791   2.387   1.689
11980TIP3    H257432   5.652   2.324   1.700
11981TIP3   OH257433   7.191   2.135   0.551
11981TIP3    H157434   7.279   2.108   0.583
11981TIP3    H257435   7.195   2.086   0.465
11982TIP3   OH257436   5.817   2.235   0.954
11982TIP3    H157437   5.864   2.153   0.982
11982TIP3    H257438   5.870   2.305   0.995
11983TIP3   OH257439   5.646   2.534   1.060
11983TIP3    H157440   5.702   2.511   0.982
11983TIP3    H257441   5.690   2.616   1.086
11984TIP3   OH257442   5.682   2.162   0.466
11984TIP3    H157443   5.588   2.181   0.451
11984TIP3    H257444   5.725   2.210   0.395
11985TIP3   OH257445   7.144   3.644   0.667
11985TIP3    H157446   7.211   3.614   0.604
11985TIP3    H257447   7.200   3.702   0.723
11986TIP3   OH257448   5.678   2.029   1.297
11986TIP3    H157449   5.610   2.008   1.364
11986TIP3    H257450   5.632   2.095   1.242
11987TIP3   OH257451   5.900   3.348   1.713
11987TIP3    H157452   5.816   3.369   1.669
11987TIP3    H257453   5.873   3.341   1.805
11988TIP3   OH257454   6.191   3.447   1.340
11988TIP3    H157455   6.155   3.532   1.312
11988TIP3    H257456   6.283   3.457   1.309
11989TIP3   OH257457   6.623   3.589   1.632
11989TIP3    H157458   6.639   3.554   1.723
11989TIP3    H257459   6.712   3.620   1.605
11990TIP3   OH257460   6.855   3.717   1.561
11990TIP3    H157461   6.928   3.656   1.538
11990TIP3    H257462   6.891   3.759   1.642
11991TIP3   OH257463   5.934   3.772   1.341
11991TIP3    H157464   5.860   3.820   1.300
11991TIP3    H257465   5.900   3.751   1.430
11992TIP3   OH257466   6.181   3.730   1.248
11992TIP3    H157467   6.091   3.742   1.287
11992TIP3    H257468   6.174   3.788   1.170
11993TIP3   OH257469   6.651   3.721   1.164
11993TIP3    H157470   6.604   3.776   1.099
11993TIP3    H257471   6.665   3.784   1.238
11994TIP3   OH257472   6.883   3.604   1.263
11994TIP3    H157473   6.794   3.628   1.231
11994TIP3    H257474   6.926   3.690   1.256
11995TIP3   OH257475   7.141   3.764   1.291
11995TIP3    H157476   7.124   3.858   1.268
11995TIP3    H257477   7.160   3.723   1.204
11996TIP3   OH257478   5.877   3.636   1.034
11996TIP3    H157479   5.871   3.591   1.121
11996TIP3    H257480   5.959   3.600   0.995
11997TIP3   OH257481   6.087   3.508   0.900
11997TIP3    H157482   6.069   3.414   0.921
11997TIP3    H257483   6.172   3.522   0.946
11998TIP3   OH257484   6.343   3.556   0.986
11998TIP3    H157485   6.363   3.464   0.960
11998TIP3    H257486   6.351   3.550   1.083
11999TIP3   OH257487   6.693   2.121   0.900
11999TIP3    H157488   6.626   2.057   0.927
11999TIP3    H257489   6.749   2.069   0.841
12000TIP3   OH257490   7.208   1.927   0.911
12000TIP3    H157491   7.264   1.988   0.862
12000TIP3    H257492   7.119   1.961   0.887
12001TIP3   OH257493   5.929   1.984   0.685
12001TIP3    H157494   5.849   1.962   0.633
12001TIP3    H257495   5.977   1.899   0.681
12002TIP3   OH257496   5.806   1.960   0.261
12002TIP3    H157497   5.855   2.024   0.204
12002TIP3    H257498   5.748   2.017   0.314
12003TIP3   OH257499   6.379   1.976   0.664
12003TIP3    H157500   6.469   2.013   0.659
12003TIP3    H257501   6.372   1.955   0.757
12004TIP3   OH257502   6.948   1.977   0.827
12004TIP3    H157503   6.945   1.989   0.731
12004TIP3    H257504   6.910   1.887   0.840
12005TIP3   OH257505   7.070   1.977   0.388
12005TIP3    H157506   6.999   2.042   0.379
12005TIP3    H257507   7.026   1.894   0.414
12006TIP3   OH257508   5.800   3.555   0.357
12006TIP3    H157509   5.731   3.554   0.287
12006TIP3    H257510   5.799   3.649   0.378
12007TIP3   OH257511   5.991   2.148   0.111
12007TIP3    H157512   6.045   2.092   0.055
12007TIP3    H257513   6.057   2.186   0.172
12008TIP3   OH257514   6.494   2.179   0.350
12008TIP3    H157515   6.518   2.120   0.424
12008TIP3    H257516   6.497   2.265   0.398
12009TIP3   OH257517   6.682   3.707   0.201
12009TIP3    H157518   6.777   3.713   0.178
12009TIP3    H257519   6.664   3.642   0.128
12010TIP3   OH257520   5.919   2.037   1.631
12010TIP3    H157521   5.882   1.958   1.675
12010TIP3    H257522   6.011   2.035   1.667
12011TIP3   OH257523   6.119   1.975   1.792
12011TIP3    H157524   6.209   1.941   1.772
12011TIP3    H257525   6.081   1.895   1.835
12012TIP3   OH257526   5.983   3.651   0.054
12012TIP3    H157527   5.953   3.679   0.141
12012TIP3    H257528   6.058   3.595   0.073
12013TIP3   OH257529   6.959   1.906   1.808
12013TIP3    H157530   6.968   1.859   1.893
12013TIP3    H257531   7.050   1.902   1.772
12014TIP3   OH257532   7.272   3.505   1.682
12014TIP3    H157533   7.199   3.493   1.618
12014TIP3    H257534   7.267   3.603   1.696
12015TIP3   OH257535   1.179   4.784   0.676
12015TIP3    H157536   1.182   4.881   0.664
12015TIP3    H257537   1.111   4.758   0.611
12016TIP3   OH257538   1.067   4.711   1.022
12016TIP3    H157539   1.066   4.644   1.092
12016TIP3    H257540   1.035   4.660   0.946
12017TIP3   OH257541   0.306   4.674   1.176
12017TIP3    H157542   0.312   4.607   1.248
12017TIP3    H257543   0.378   4.734   1.199
12018TIP3   OH257544   1.430   5.006   0.849
12018TIP3    H157545   1.400   4.929   0.899
12018TIP3    H257546   1.444   5.074   0.918
12019TIP3   OH257547   0.394   5.120   1.030
12019TIP3    H157548   0.362   5.035   0.996
12019TIP3    H257549   0.490   5.101   1.034
12020TIP3   OH257550   0.079   4.479   0.553
12020TIP3    H157551   0.025   4.559   0.576
12020TIP3    H257552   0.007   4.424   0.529
12021TIP3   OH257553   0.130   4.698   0.786
12021TIP3    H157554   0.153   4.620   0.838
12021TIP3    H257555   0.203   4.708   0.725
12022TIP3   OH257556   1.147   5.516   0.873
12022TIP3    H157557   1.214   5.450   0.844
12022TIP3    H257558   1.129   5.491   0.963
12023TIP3   OH257559   0.910   4.957   1.061
12023TIP3    H157560   0.937   4.882   1.004
12023TIP3    H257561   0.983   4.960   1.125
12024TIP3   OH257562   1.768   4.113   1.143
12024TIP3    H157563   1.782   4.174   1.219
12024TIP3    H257564   1.821   4.158   1.075
12025TIP3   OH257565   1.222   4.396   1.099
12025TIP3    H157566   1.237   4.299   1.098
12025TIP3    H257567   1.212   4.411   1.002
12026TIP3   OH257568   0.533   4.203   0.824
12026TIP3    H157569   0.544   4.288   0.775
12026TIP3    H257570   0.494   4.147   0.753
12027TIP3   OH257571   1.308   4.213   0.659
12027TIP3    H157572   1.374   4.182   0.725
12027TIP3    H257573   1.363   4.269   0.602
12028TIP3   OH257574   0.198   4.441   0.890
12028TIP3    H157575   0.267   4.391   0.938
12028TIP3    H257576   0.209   4.413   0.800
12029TIP3   OH257577   0.713   4.601   0.824
12029TIP3    H157578   0.778   4.543   0.867
12029TIP3    H257579   0.659   4.534   0.777
12030TIP3   OH257580   1.811   4.257   1.369
12030TIP3    H157581   1.747   4.330   1.359
12030TIP3    H257582   1.814   4.245   1.464
12031TIP3   OH257583   0.419   4.090   1.224
12031TIP3    H157584   0.399   4.153   1.152
12031TIP3    H257585   0.355   4.119   1.295
12032TIP3   OH257586   1.153   5.043   0.584
12032TIP3    H157587   1.127   5.014   0.494
12032TIP3    H257588   1.122   5.137   0.583
12033TIP3   OH257589   0.676   4.858   1.252
12033TIP3    H157590   0.603   4.922   1.270
12033TIP3    H257591   0.746   4.919   1.223
12034TIP3   OH257592   1.487   4.147   0.858
12034TIP3    H157593   1.466   4.070   0.912
12034TIP3    H257594   1.554   4.191   0.913
12035TIP3   OH257595   0.379   4.276   1.029
12035TIP3    H157596   0.439   4.348   1.061
12035TIP3    H257597   0.434   4.239   0.955
12036TIP3   OH257598   0.519   5.058   1.332
12036TIP3    H157599   0.514   5.149   1.298
12036TIP3    H257600   0.430   5.050   1.376
12037TIP3   OH257601   0.128   5.026   0.410
12037TIP3    H157602   0.104   5.053   0.321
12037TIP3    H257603   0.135   5.108   0.463
12038TIP3   OH257604   1.488   5.186   1.083
12038TIP3    H157605   1.394   5.199   1.103
12038TIP3    H257606   1.519   5.279   1.069
12039TIP3   OH257607   1.522   4.016   1.226
12039TIP3    H157608   1.448   4.079   1.219
12039TIP3    H257609   1.592   4.058   1.173
12040TIP3   OH257610   0.819   3.826   0.967
12040TIP3    H157611   0.805   3.730   0.971
12040TIP3    H257612   0.734   3.859   1.003
12041TIP3   OH257613   1.315   5.364   0.748
12041TIP3    H157614   1.360   5.295   0.694
12041TIP3    H257615   1.354   5.445   0.707
12042TIP3   OH257616   1.432   5.158   0.598
12042TIP3    H157617   1.408   5.088   0.535
12042TIP3    H257618   1.441   5.108   0.681
12043TIP3   OH257619   1.599   5.016   1.447
12043TIP3    H157620   1.613   4.953   1.373
12043TIP3    H257621   1.618   5.102   1.406
12044TIP3   OH257622   1.048   4.708   0.422
12044TIP3    H157623   0.977   4.764   0.385
12044TIP3    H257624   1.118   4.715   0.355
12045TIP3   OH257625   1.050   4.556   0.132
12045TIP3    H157626   1.126   4.560   0.191
12045TIP3    H257627   1.084   4.495   0.066
12046TIP3   OH257628   1.786   4.648   1.252
12046TIP3    H157629   1.720   4.720   1.258
12046TIP3    H257630   1.834   4.671   1.171
12047TIP3   OH257631   1.391   4.729   0.517
12047TIP3    H157632   1.316   4.752   0.577
12047TIP3    H257633   1.437   4.660   0.567
12048TIP3   OH257634   1.384   4.544   1.427
12048TIP3    H157635   1.386   4.625   1.481
12048TIP3    H257636   1.321   4.575   1.358
12049TIP3   OH257637   0.555   4.795   0.707
12049TIP3    H157638   0.520   4.755   0.624
12049TIP3    H257639   0.615   4.725   0.741
12050TIP3   OH257640   0.689   5.136   0.974
12050TIP3    H157641   0.682   5.079   0.896
12050TIP3    H257642   0.763   5.096   1.023
12051TIP3   OH257643   0.588   4.669   1.072
12051TIP3    H157644   0.644   4.680   0.993
12051TIP3    H257645   0.624   4.735   1.134
12052TIP3   OH257646   1.224   5.223   1.143
12052TIP3    H157647   1.200   5.289   1.211
12052TIP3    H257648   1.203   5.140   1.193
12053TIP3   OH257649   0.681   5.110   1.543
12053TIP3    H157650   0.643   5.187   1.590
12053TIP3    H257651   0.613   5.092   1.473
12054TIP3   OH257652   1.279   4.645   0.284
12054TIP3    H157653   1.335   4.664   0.363
12054TIP3    H257654   1.320   4.698   0.214
12055TIP3   OH257655   0.376   4.728   1.463
12055TIP3    H157656   0.379   4.797   1.532
12055TIP3    H257657   0.283   4.738   1.434
12056TIP3   OH257658   1.049   5.318   0.633
12056TIP3    H157659   1.095   5.354   0.709
12056TIP3    H257660   0.995   5.393   0.604
12057TIP3   OH257661   0.506   5.315   1.618
12057TIP3    H157662   0.499   5.304   1.521
12057TIP3    H257663   0.412   5.304   1.644
12058TIP3   OH257664   1.651   3.821   0.272
12058TIP3    H157665   1.556   3.834   0.295
12058TIP3    H257666   1.671   3.906   0.228
12059TIP3   OH257667   0.453   4.697   0.468
12059TIP3    H157668   0.424   4.775   0.416
12059TIP3    H257669   0.385   4.632   0.447
12060TIP3   OH257670   1.761   5.255   0.109
12060TIP3    H157671   1.774   5.351   0.121
12060TIP3    H257672   1.854   5.227   0.101
12061TIP3   OH257673   0.098   4.930   1.336
12061TIP3    H157674   0.024   4.934   1.271
12061TIP3    H257675   0.070   4.846   1.377
12062TIP3   OH257676   0.047   5.223   1.024
12062TIP3    H157677   0.138   5.198   1.036
12062TIP3    H257678   0.030   5.290   1.090
12063TIP3   OH257679   1.859   5.283   1.604
12063TIP3    H157680   1.849   5.186   1.602
12063TIP3    H257681   1.772   5.307   1.644
12064TIP3   OH257682   0.955   5.237   1.489
12064TIP3    H157683   0.962   5.321   1.540
12064TIP3    H257684   0.868   5.203   1.515
12065TIP3   OH257685   0.997   5.611   0.471
12065TIP3    H157686   0.989   5.604   0.374
12065TIP3    H257687   1.000   5.708   0.487
12066TIP3   OH257688   0.364   5.497   0.650
12066TIP3    H157689   0.378   5.459   0.739
12066TIP3    H257690   0.278   5.458   0.627
12067TIP3   OH257691   1.301   5.531   0.169
12067TIP3    H157692   1.348   5.457   0.125
12067TIP3    H257693   1.308   5.506   0.263
12068TIP3   OH257694   1.274   5.526   0.447
12068TIP3    H157695   1.178   5.533   0.466
12068TIP3    H257696   1.300   5.452   0.504
12069TIP3   OH257697   1.573   4.430   1.652
12069TIP3    H157698   1.528   4.476   1.580
12069TIP3    H257699   1.574   4.338   1.621
12070TIP3   OH257700   0.288   5.073   1.453
12070TIP3    H157701   0.306   5.034   1.540
12070TIP3    H257702   0.202   5.032   1.429
12071TIP3   OH257703   0.555   3.916   1.047
12071TIP3    H157704   0.465   3.907   1.010
12071TIP3    H257705   0.546   4.001   1.095
12072TIP3   OH257706   1.019   3.886   1.385
12072TIP3    H157707   1.059   3.844   1.463
12072TIP3    H257708   0.922   3.872   1.399
12073TIP3   OH257709   1.349   4.267   1.474
12073TIP3    H157710   1.294   4.248   1.553
12073TIP3    H257711   1.331   4.360   1.450
12074TIP3   OH257712   1.433   4.759   0.064
12074TIP3    H157713   1.432   4.735  -0.031
12074TIP3    H257714   1.522   4.797   0.073
12075TIP3   OH257715   0.983   4.141   0.117
12075TIP3    H157716   0.954   4.137   0.210
12075TIP3    H257717   0.958   4.053   0.088
12076TIP3   OH257718   0.564   4.413   1.168
12076TIP3    H157719   0.493   4.412   1.235
12076TIP3    H257720   0.561   4.507   1.136
12077TIP3   OH257721   0.562   4.428   0.658
12077TIP3    H157722   0.468   4.402   0.645
12077TIP3    H257723   0.601   4.397   0.574
12078TIP3   OH257724   1.114   4.476   0.534
12078TIP3    H157725   1.072   4.559   0.502
12078TIP3    H257726   1.184   4.462   0.468
12079TIP3   OH257727   1.020   4.497   1.681
12079TIP3    H157728   0.966   4.421   1.712
12079TIP3    H257729   1.104   4.484   1.728
12080TIP3   OH257730   1.216   4.424   0.819
12080TIP3    H157731   1.190   4.481   0.745
12080TIP3    H257732   1.228   4.340   0.772
12081TIP3   OH257733   0.332   4.440   1.343
12081TIP3    H157734   0.332   4.482   1.430
12081TIP3    H257735   0.283   4.359   1.360
12082TIP3   OH257736   0.685   4.207   0.060
12082TIP3    H157737   0.631   4.141   0.107
12082TIP3    H257738   0.624   4.235  -0.011
12083TIP3   OH257739   0.010   4.166   0.727
12083TIP3    H157740   0.063   4.150   0.806
12083TIP3    H257741   0.044   4.109   0.658
12084TIP3   OH257742   0.123   4.234   0.277
12084TIP3    H157743   0.173   4.289   0.215
12084TIP3    H257744   0.050   4.289   0.302
12085TIP3   OH257745   1.138   4.585   1.278
12085TIP3    H157746   1.174   4.517   1.218
12085TIP3    H257747   1.092   4.531   1.345
12086TIP3   OH257748   0.817   4.177   0.759
12086TIP3    H157749   0.724   4.184   0.789
12086TIP3    H257750   0.866   4.169   0.842
12087TIP3   OH257751   0.302   4.337   0.645
12087TIP3    H157752   0.213   4.352   0.608
12087TIP3    H257753   0.327   4.253   0.604
12088TIP3   OH257754   0.663   4.343   0.410
12088TIP3    H157755   0.758   4.353   0.427
12088TIP3    H257756   0.640   4.408   0.342
12089TIP3   OH257757   1.258   4.104   1.085
12089TIP3    H157758   1.189   4.112   1.154
12089TIP3    H257759   1.207   4.082   1.005
12090TIP3   OH257760   0.534   4.459   0.167
12090TIP3    H157761   0.478   4.424   0.097
12090TIP3    H257762   0.616   4.480   0.120
12091TIP3   OH257763   1.580   5.668   1.716
12091TIP3    H157764   1.605   5.709   1.631
12091TIP3    H257765   1.651   5.702   1.773
12092TIP3   OH257766   0.347   4.915   1.672
12092TIP3    H157767   0.418   4.941   1.733
12092TIP3    H257768   0.269   4.931   1.731
12093TIP3   OH257769   0.945   4.457   0.949
12093TIP3    H157770   1.005   4.403   0.895
12093TIP3    H257771   0.932   4.403   1.028
12094TIP3   OH257772   0.447   4.072   0.594
12094TIP3    H157773   0.415   3.980   0.588
12094TIP3    H257774   0.525   4.068   0.537
12095TIP3   OH257775   0.810   4.291   1.190
12095TIP3    H157776   0.727   4.342   1.200
12095TIP3    H257777   0.864   4.325   1.264
12096TIP3   OH257778   0.869   4.913   0.361
12096TIP3    H157779   0.789   4.866   0.328
12096TIP3    H257780   0.849   4.923   0.456
12097TIP3   OH257781   1.584   4.832   1.240
12097TIP3    H157782   1.644   4.878   1.179
12097TIP3    H257783   1.499   4.838   1.192
12098TIP3   OH257784   1.255   4.197   0.179
12098TIP3    H157785   1.160   4.209   0.162
12098TIP3    H257786   1.285   4.282   0.212
12099TIP3   OH257787   1.017   4.938   1.482
12099TIP3    H157788   0.984   4.897   1.563
12099TIP3    H257789   0.994   5.030   1.494
12100TIP3   OH257790   1.325   4.386   0.345
12100TIP3    H157791   1.416   4.371   0.378
12100TIP3    H257792   1.333   4.466   0.291
12101TIP3   OH257793   0.380   4.851   0.939
12101TIP3    H157794   0.450   4.844   0.872
12101TIP3    H257795   0.386   4.766   0.985
12102TIP3   OH257796   1.079   5.060   0.264
12102TIP3    H157797   1.044   5.144   0.300
12102TIP3    H257798   1.005   4.998   0.283
12103TIP3   OH257799   0.101   4.672   1.443
12103TIP3    H157800   0.108   4.649   1.538
12103TIP3    H257801   0.017   4.630   1.421
12104TIP3   OH257802   0.779   4.648   1.686
12104TIP3    H157803   0.749   4.621   1.598
12104TIP3    H257804   0.873   4.618   1.685
12105TIP3   OH257805   1.246   5.181   1.476
12105TIP3    H157806   1.153   5.200   1.456
12105TIP3    H257807   1.245   5.209   1.570
12106TIP3   OH257808   1.816   4.401   0.320
12106TIP3    H157809   1.758   4.368   0.249
12106TIP3    H257810   1.824   4.494   0.290
12107TIP3   OH257811   1.813   4.986   1.600
12107TIP3    H157812   1.725   5.008   1.562
12107TIP3    H257813   1.869   4.982   1.520
12108TIP3   OH257814   1.643   5.283   0.357
12108TIP3    H157815   1.607   5.200   0.391
12108TIP3    H257816   1.674   5.263   0.267
12109TIP3   OH257817   1.363   4.767   1.065
12109TIP3    H157818   1.270   4.740   1.059
12109TIP3    H257819   1.407   4.688   1.028
12110TIP3   OH257820   0.616   5.198   0.678
12110TIP3    H157821   0.665   5.278   0.657
12110TIP3    H257822   0.528   5.221   0.646
12111TIP3   OH257823   0.186   4.681   0.137
12111TIP3    H157824   0.251   4.745   0.173
12111TIP3    H257825   0.102   4.715   0.166
12112TIP3   OH257826   0.761   4.964   0.635
12112TIP3    H157827   0.728   5.056   0.638
12112TIP3    H257828   0.685   4.916   0.674
12113TIP3   OH257829   0.806   5.380   1.267
12113TIP3    H157830   0.847   5.465   1.243
12113TIP3    H257831   0.863   5.350   1.340
12114TIP3   OH257832   0.626   5.464   0.585
12114TIP3    H157833   0.530   5.479   0.597
12114TIP3    H257834   0.662   5.548   0.621
12115TIP3   OH257835   1.158   4.985   1.229
12115TIP3    H157836   1.123   4.966   1.320
12115TIP3    H257837   1.221   4.911   1.219
12116TIP3   OH257838   1.386   5.086   0.145
12116TIP3    H157839   1.417   5.041   0.226
12116TIP3    H257840   1.290   5.071   0.152
12117TIP3   OH257841   1.435   5.442   1.484
12117TIP3    H157842   1.369   5.391   1.434
12117TIP3    H257843   1.456   5.511   1.417
12118TIP3   OH257844   1.835   5.528   0.169
12118TIP3    H157845   1.906   5.590   0.146
12118TIP3    H257846   1.763   5.589   0.195
12119TIP3   OH257847   0.241   4.163   1.414
12119TIP3    H157848   0.153   4.203   1.423
12119TIP3    H257849   0.232   4.082   1.468
12120TIP3   OH257850   1.468   4.951   0.367
12120TIP3    H157851   1.444   4.873   0.420
12120TIP3    H257852   1.563   4.959   0.387
12121TIP3   OH257853   0.208   5.347   1.262
12121TIP3    H157854   0.231   5.253   1.264
12121TIP3    H257855   0.231   5.373   1.352
12122TIP3   OH257856   0.682   5.152   0.234
12122TIP3    H157857   0.704   5.097   0.311
12122TIP3    H257858   0.688   5.244   0.267
12123TIP3   OH257859   0.329   4.873   0.284
12123TIP3    H157860   0.263   4.914   0.344
12123TIP3    H257861   0.384   4.950   0.260
12124TIP3   OH257862   1.116   4.143   1.315
12124TIP3    H157863   1.187   4.149   1.380
12124TIP3    H257864   1.078   4.055   1.334
12125TIP3   OH257865   1.191   4.104   0.425
12125TIP3    H157866   1.216   4.150   0.343
12125TIP3    H257867   1.250   4.145   0.490
12126TIP3   OH257868   0.960   5.317   0.305
12126TIP3    H157869   0.878   5.369   0.315
12126TIP3    H257870   1.014   5.370   0.245
12127TIP3   OH257871   0.913   4.276   0.507
12127TIP3    H157872   0.993   4.332   0.510
12127TIP3    H257873   0.887   4.263   0.599
12128TIP3   OH257874   0.969   4.378   1.426
12128TIP3    H157875   0.977   4.435   1.504
12128TIP3    H257876   1.035   4.308   1.436
12129TIP3   OH257877   0.999   3.981   0.598
12129TIP3    H157878   0.968   4.048   0.662
12129TIP3    H257879   1.068   4.037   0.551
12130TIP3   OH257880   0.694   5.422   0.309
12130TIP3    H157881   0.711   5.504   0.259
12130TIP3    H257882   0.672   5.456   0.398
12131TIP3   OH257883   0.566   4.092   0.269
12131TIP3    H157884   0.559   4.183   0.305
12131TIP3    H257885   0.657   4.069   0.297
12132TIP3   OH257886   1.588   4.166   1.511
12132TIP3    H157887   1.495   4.196   1.498
12132TIP3    H257888   1.618   4.165   1.418
12133TIP3   OH257889   1.448   4.544   0.914
12133TIP3    H157890   1.366   4.500   0.884
12133TIP3    H257891   1.495   4.474   0.965
12134TIP3   OH257892   0.390   5.136   0.172
12134TIP3    H157893   0.454   5.202   0.203
12134TIP3    H257894   0.441   5.091   0.102
12135TIP3   OH257895   0.233   4.404   0.088
12135TIP3    H157896   0.225   4.499   0.105
12135TIP3    H257897   0.143   4.382   0.062
12136TIP3   OH257898   1.554   5.467   1.079
12136TIP3    H157899   1.545   5.538   1.012
12136TIP3    H257900   1.650   5.475   1.098
12137TIP3   OH257901   0.298   3.884   0.957
12137TIP3    H157902   0.288   3.882   0.858
12137TIP3    H257903   0.268   3.793   0.980
12138TIP3   OH257904   0.202   5.274   0.574
12138TIP3    H157905   0.116   5.318   0.570
12138TIP3    H257906   0.250   5.324   0.506
12139TIP3   OH257907   0.134   5.539   1.702
12139TIP3    H157908   0.185   5.514   1.781
12139TIP3    H257909   0.081   5.458   1.687
12140TIP3   OH257910   0.589   5.429   1.864
12140TIP3    H157911   0.665   5.380   1.897
12140TIP3    H257912   0.585   5.403   1.770
12141TIP3   OH257913   1.042   5.395   0.057
12141TIP3    H157914   0.958   5.345   0.057
12141TIP3    H257915   1.085   5.341  -0.008
12142TIP3   OH257916   1.241   5.268   1.737
12142TIP3    H157917   1.209   5.180   1.765
12142TIP3    H257918   1.317   5.280   1.798
12143TIP3   OH257919   1.458   5.361   0.024
12143TIP3    H157920   1.485   5.280   0.072
12143TIP3    H257921   1.535   5.381  -0.031
12144TIP3   OH257922   0.126   4.917   1.798
12144TIP3    H157923   0.131   4.823   1.772
12144TIP3    H257924   0.042   4.945   1.756
12145TIP3   OH257925   0.556   4.957   0.016
12145TIP3    H157926   0.561   4.874   0.064
12145TIP3    H257927   0.614   4.936  -0.059
12146TIP3   OH257928   0.784   4.915   1.741
12146TIP3    H157929   0.750   4.944   1.655
12146TIP3    H257930   0.794   4.818   1.731
12147TIP3   OH257931   1.354   4.902   1.480
12147TIP3    H157932   1.432   4.962   1.471
12147TIP3    H257933   1.283   4.966   1.486
12148TIP3   OH257934   0.198   4.638   1.739
12148TIP3    H157935   0.245   4.552   1.731
12148TIP3    H257936   0.181   4.640   1.835
12149TIP3   OH257937   0.668   4.754   0.244
12149TIP3    H157938   0.619   4.701   0.309
12149TIP3    H257939   0.697   4.685   0.180
12150TIP3   OH257940   0.594   4.535   1.477
12150TIP3    H157941   0.533   4.606   1.504
12150TIP3    H257942   0.632   4.571   1.395
12151TIP3   OH257943   0.774   4.571   0.068
12151TIP3    H157944   0.760   4.559  -0.027
12151TIP3    H257945   0.872   4.582   0.074
12152TIP3   OH257946   1.100   4.789   1.808
12152TIP3    H157947   1.196   4.791   1.801
12152TIP3    H257948   1.083   4.713   1.866
12153TIP3   OH257949   1.691   4.822  16.020
12153TIP3    H157950   1.685   4.770  15.937
12153TIP3    H257951   1.716   4.910  15.990
12154TIP3   OH257952   0.634   4.272   1.584
12154TIP3    H157953   0.645   4.200   1.519
12154TIP3    H257954   0.628   4.352   1.528
12155TIP3   OH257955   0.674   4.110   1.337
12155TIP3    H157956   0.726   4.156   1.267
12155TIP3    H257957   0.586   4.101   1.295
12156TIP3   OH257958   0.829   4.656   1.361
12156TIP3    H157959   0.904   4.640   1.303
12156TIP3    H257960   0.793   4.741   1.329
12157TIP3   OH257961   1.269   4.435   1.859
12157TIP3    H157962   1.291   4.341   1.849
12157TIP3    H257963   1.356   4.478   1.861
12158TIP3   OH257964   1.401   4.712   1.672
12158TIP3    H157965   1.376   4.786   1.612
12158TIP3    H257966   1.497   4.709   1.654
12159TIP3   OH257967   0.477   4.397   1.774
12159TIP3    H157968   0.401   4.338   1.756
12159TIP3    H257969   0.545   4.360   1.714
12160TIP3   OH257970   0.753   3.853   1.378
12160TIP3    H157971   0.738   3.950   1.367
12160TIP3    H257972   0.677   3.818   1.327
12161TIP3   OH257973   0.880   4.286   1.737
12161TIP3    H157974   0.850   4.264   1.827
12161TIP3    H257975   0.801   4.266   1.684
12162TIP3   OH257976   1.152   4.200   1.645
12162TIP3    H157977   1.055   4.205   1.657
12162TIP3    H257978   1.180   4.137   1.713
12163TIP3   OH257979   1.312   4.063   1.839
12163TIP3    H157980   1.305   3.966   1.841
12163TIP3    H257981   1.284   4.092   1.928
12164TIP3   OH257982   0.295   4.188   1.748
12164TIP3    H157983   0.315   4.115   1.688
12164TIP3    H257984   0.282   4.142   1.834
12165TIP3   OH257985   0.774   3.790   1.647
12165TIP3    H157986   0.844   3.721   1.644
12165TIP3    H257987   0.764   3.809   1.551
12166TIP3   OH257988   0.811   3.954   1.855
12166TIP3    H157989   0.794   3.904   1.771
12166TIP3    H257990   0.750   4.030   1.846
12167TIP3   OH257991   0.759   5.642   0.169
12167TIP3    H157992   0.856   5.657   0.181
12167TIP3    H257993   0.737   5.710   0.105
12168TIP3   OH257994   0.118   5.104   0.123
12168TIP3    H157995   0.214   5.115   0.144
12168TIP3    H257996   0.121   5.042   0.048
12169TIP3   OH257997   7.352   5.650   0.612
12169TIP3    H157998   7.270   5.617   0.571
12169TIP3    H257999   7.370   5.583   0.682
12170TIP3   OH258000   0.068   5.456   0.801
12170TIP3    H158001   0.039   5.366   0.824
12170TIP3    H258002   0.097   5.488   0.889
12171TIP3   OH258003   1.827   5.534   1.100
12171TIP3    H158004   1.829   5.551   1.196
12171TIP3    H258005   1.897   5.592   1.069
12172TIP3   OH258006   1.784   5.493   1.394
12172TIP3    H158007   1.737   5.416   1.357
12172TIP3    H258008   1.836   5.449   1.464
12173TIP3   OH258009   1.629   5.067   1.860
12173TIP3    H158010   1.539   5.062   1.898
12173TIP3    H258011   1.667   5.146   1.903
12174TIP3   OH258012   1.761   4.897   0.405
12174TIP3    H158013   1.846   4.938   0.424
12174TIP3    H258014   1.759   4.825   0.472
12175TIP3   OH258015   1.797   4.705   0.592
12175TIP3    H158016   1.723   4.654   0.631
12175TIP3    H258017   1.857   4.720   0.668
12176TIP3   OH258018   1.773   4.977   1.090
12176TIP3    H158019   1.855   4.939   1.055
12176TIP3    H258020   1.787   5.072   1.074
12177TIP3   OH258021   1.627   5.267   1.319
12177TIP3    H158022   1.558   5.300   1.378
12177TIP3    H258023   1.573   5.225   1.249
12178TIP3   OH258024   1.827   4.690   0.232
12178TIP3    H158025   1.769   4.725   0.162
12178TIP3    H258026   1.820   4.760   0.299
12179TIP3   OH258027   1.626   4.414   0.095
12179TIP3    H158028   1.667   4.475   0.030
12179TIP3    H258029   1.645   4.333   0.047
12180TIP3   OH258030   1.578   4.553   0.649
12180TIP3    H158031   1.563   4.458   0.646
12180TIP3    H258032   1.544   4.577   0.736
12181TIP3   OH258033   0.078   4.761   1.052
12181TIP3    H158034   0.098   4.755   0.956
12181TIP3    H258035   0.166   4.747   1.092
12182TIP3   OH258036   1.663   4.750   1.616
12182TIP3    H158037   1.724   4.675   1.632
12182TIP3    H258038   1.723   4.828   1.618
12183TIP3   OH258039   1.814   4.540   1.683
12183TIP3    H158040   1.726   4.499   1.666
12183TIP3    H258041   1.872   4.462   1.675
12184TIP3   OH258042   1.545   4.312   0.495
12184TIP3    H158043   1.576   4.219   0.507
12184TIP3    H258044   1.624   4.353   0.457
12185TIP3   OH258045   1.609   4.366   1.039
12185TIP3    H158046   1.705   4.390   1.037
12185TIP3    H258047   1.589   4.380   1.133
12186TIP3   OH258048   1.616   4.439   1.318
12186TIP3    H158049   1.528   4.468   1.351
12186TIP3    H258050   1.658   4.525   1.295
12187TIP3   OH258051   0.058   4.283   1.669
12187TIP3    H158052   0.148   4.265   1.695
12187TIP3    H258053   0.000   4.211   1.704
12188TIP3   OH258054   1.842   3.843   1.853
12188TIP3    H158055   1.877   3.777   1.790
12188TIP3    H258056   1.854   3.925   1.802
12189TIP3   OH258057   1.612   4.039   0.499
12189TIP3    H158058   1.632   3.995   0.583
12189TIP3    H258059   1.551   3.977   0.454
12190TIP3   OH258060   0.161   4.128   0.948
12190TIP3    H158061   0.224   4.055   0.960
12190TIP3    H258062   0.213   4.199   0.993
12191TIP3   OH258063   0.063   4.464   1.097
12191TIP3    H158064   0.059   4.431   1.004
12191TIP3    H258065   0.034   4.553   1.079
12192TIP3   OH258066   1.795   4.054   1.688
12192TIP3    H158067   1.701   4.080   1.682
12192TIP3    H258068   1.800   3.999   1.607
12193TIP3   OH258069   1.796   4.045   0.156
12193TIP3    H158070   1.836   3.974   0.105
12193TIP3    H258071   1.866   4.111   0.156
12194TIP3   OH258072   0.063   4.048   0.444
12194TIP3    H158073  -0.032   4.067   0.442
12194TIP3    H258074   0.089   4.111   0.374
12195TIP3   OH258075   1.499   5.541   0.662
12195TIP3    H158076   1.567   5.510   0.599
12195TIP3    H258077   1.552   5.592   0.726
12196TIP3   OH258078   7.379   3.912   1.300
12196TIP3    H158079   7.306   3.890   1.363
12196TIP3    H258080   7.319   3.972   1.251
12197TIP3   OH258081   0.244   5.235   1.716
12197TIP3    H158082   0.161   5.254   1.670
12197TIP3    H258083   0.215   5.225   1.806
12198TIP3   OH258084   0.535   5.333   1.341
12198TIP3    H158085   0.496   5.417   1.312
12198TIP3    H258086   0.627   5.343   1.309
12199TIP3   OH258087   0.967   5.475   1.632
12199TIP3    H158088   0.983   5.440   1.723
12199TIP3    H258089   1.056   5.505   1.606
12200TIP3   OH258090   1.196   5.602   1.561
12200TIP3    H158091   1.269   5.542   1.537
12200TIP3    H258092   1.233   5.644   1.641
12201TIP3   OH258093   1.696   3.863   1.471
12201TIP3    H158094   1.613   3.893   1.430
12201TIP3    H258095   1.714   3.783   1.418
12202TIP3   OH258096   0.278   5.658   1.343
12202TIP3    H158097   0.204   5.704   1.300
12202TIP3    H258098   0.241   5.636   1.430
12203TIP3   OH258099   0.523   5.606   1.252
12203TIP3    H158100   0.434   5.629   1.288
12203TIP3    H258101   0.520   5.670   1.175
12204TIP3   OH258102   0.995   5.606   1.163
12204TIP3    H158103   0.946   5.662   1.100
12204TIP3    H258104   1.009   5.668   1.238
12205TIP3   OH258105   1.225   5.488   1.261
12205TIP3    H158106   1.137   5.516   1.232
12205TIP3    H258107   1.270   5.575   1.256
12206TIP3   OH258108   1.483   5.646   1.290
12206TIP3    H158109   1.473   5.742   1.267
12206TIP3    H258110   1.503   5.609   1.202
12207TIP3   OH258111   0.216   5.519   1.033
12207TIP3    H158112   0.217   5.479   1.122
12207TIP3    H258113   0.300   5.487   0.995
12208TIP3   OH258114   0.429   5.391   0.899
12208TIP3    H158115   0.412   5.298   0.922
12208TIP3    H258116   0.514   5.409   0.945
12209TIP3   OH258117   0.690   5.440   0.986
12209TIP3    H158118   0.705   5.349   0.959
12209TIP3    H258119   0.693   5.436   1.083
12210TIP3   OH258120   1.035   4.006   0.899
12210TIP3    H158121   0.969   3.942   0.929
12210TIP3    H258122   1.093   3.955   0.842
12211TIP3   OH258123   1.549   3.813   0.909
12211TIP3    H158124   1.611   3.871   0.858
12211TIP3    H258125   1.462   3.848   0.885
12212TIP3   OH258126   1.718   3.934   0.739
12212TIP3    H158127   1.785   3.878   0.693
12212TIP3    H258128   1.765   4.020   0.746
12213TIP3   OH258129   0.268   3.867   0.689
12213TIP3    H158130   0.194   3.847   0.628
12213TIP3    H258131   0.321   3.786   0.678
12214TIP3   OH258132   0.189   3.856   0.275
12214TIP3    H158133   0.203   3.913   0.197
12214TIP3    H258134   0.104   3.891   0.311
12215TIP3   OH258135   0.728   3.851   0.665
12215TIP3    H158136   0.811   3.903   0.659
12215TIP3    H258137   0.713   3.847   0.759
12216TIP3   OH258138   1.286   3.864   0.828
12216TIP3    H158139   1.289   3.875   0.732
12216TIP3    H258140   1.255   3.772   0.840
12217TIP3   OH258141   1.418   3.867   0.395
12217TIP3    H158142   1.345   3.928   0.377
12217TIP3    H258143   1.373   3.781   0.413
12218TIP3   OH258144   0.155   5.446   0.351
12218TIP3    H158145   0.077   5.440   0.292
12218TIP3    H258146   0.143   5.538   0.377
12219TIP3   OH258147   0.334   4.039   0.108
12219TIP3    H158148   0.386   3.976   0.055
12219TIP3    H258149   0.399   4.069   0.173
12220TIP3   OH258150   0.837   4.063   0.350
12220TIP3    H158151   0.861   4.006   0.424
12220TIP3    H258152   0.840   4.150   0.398
12221TIP3   OH258153   1.025   5.592   0.201
12221TIP3    H158154   1.120   5.599   0.178
12221TIP3    H258155   1.007   5.528   0.128
12222TIP3   OH258156   1.700   5.522   0.464
12222TIP3    H158157   1.679   5.444   0.406
12222TIP3    H258158   1.692   5.596   0.401
12223TIP3   OH258159   0.258   3.925   1.633
12223TIP3    H158160   0.225   3.843   1.673
12223TIP3    H258161   0.351   3.921   1.666
12224TIP3   OH258162   0.461   3.860   1.792
12224TIP3    H158163   0.551   3.827   1.772
12224TIP3    H258164   0.423   3.781   1.835
12225TIP3   OH258165   0.329   5.536   0.054
12225TIP3    H158166   0.296   5.565   0.141
12225TIP3    H258167   0.402   5.480   0.075
12226TIP3   OH258168   1.302   3.791   1.809
12226TIP3    H158169   1.312   3.744   1.894
12226TIP3    H258170   1.394   3.788   1.774
12227TIP3   OH258171   1.623   5.395   1.675
12227TIP3    H158172   1.542   5.380   1.621
12227TIP3    H258173   1.612   5.490   1.696
12228TIP3   OH258174   3.066   4.783   0.674
12228TIP3    H158175   3.068   4.881   0.667
12228TIP3    H258176   2.995   4.759   0.612
12229TIP3   OH258177   2.953   4.710   1.022
12229TIP3    H158178   2.952   4.644   1.092
12229TIP3    H258179   2.920   4.660   0.945
12230TIP3   OH258180   2.189   4.675   1.177
12230TIP3    H158181   2.197   4.608   1.249
12230TIP3    H258182   2.263   4.733   1.199
12231TIP3   OH258183   3.321   5.005   0.848
12231TIP3    H158184   3.282   4.931   0.898
12231TIP3    H258185   3.325   5.074   0.917
12232TIP3   OH258186   2.282   5.120   1.030
12232TIP3    H158187   2.249   5.034   0.995
12232TIP3    H258188   2.377   5.101   1.034
12233TIP3   OH258189   1.946   4.478   0.575
12233TIP3    H158190   1.901   4.565   0.570
12233TIP3    H258191   1.889   4.424   0.520
12234TIP3   OH258192   2.016   4.699   0.788
12234TIP3    H158193   2.041   4.618   0.836
12234TIP3    H258194   2.088   4.709   0.724
12235TIP3   OH258195   3.035   5.518   0.873
12235TIP3    H158196   3.099   5.448   0.845
12235TIP3    H258197   3.014   5.488   0.961
12236TIP3   OH258198   2.791   4.950   1.066
12236TIP3    H158199   2.825   4.885   1.002
12236TIP3    H258200   2.870   4.965   1.121
12237TIP3   OH258201   3.654   4.112   1.143
12237TIP3    H158202   3.668   4.175   1.218
12237TIP3    H258203   3.706   4.159   1.076
12238TIP3   OH258204   3.108   4.395   1.098
12238TIP3    H158205   3.123   4.299   1.098
12238TIP3    H258206   3.097   4.410   1.002
12239TIP3   OH258207   2.420   4.204   0.822
12239TIP3    H158208   2.429   4.288   0.775
12239TIP3    H258209   2.378   4.147   0.754
12240TIP3   OH258210   3.193   4.213   0.659
12240TIP3    H158211   3.259   4.182   0.725
12240TIP3    H258212   3.249   4.269   0.602
12241TIP3   OH258213   2.082   4.445   0.896
12241TIP3    H158214   2.149   4.389   0.940
12241TIP3    H258215   2.091   4.414   0.804
12242TIP3   OH258216   2.598   4.601   0.824
12242TIP3    H158217   2.664   4.543   0.867
12242TIP3    H258218   2.544   4.534   0.777
12243TIP3   OH258219   3.696   4.256   1.370
12243TIP3    H158220   3.633   4.330   1.359
12243TIP3    H258221   3.699   4.245   1.466
12244TIP3   OH258222   2.308   4.094   1.227
12244TIP3    H158223   2.281   4.150   1.151
12244TIP3    H258224   2.240   4.118   1.294
12245TIP3   OH258225   3.040   5.043   0.581
12245TIP3    H158226   3.011   5.014   0.493
12245TIP3    H258227   3.008   5.136   0.586
12246TIP3   OH258228   2.562   4.859   1.252
12246TIP3    H158229   2.490   4.923   1.270
12246TIP3    H258230   2.632   4.919   1.223
12247TIP3   OH258231   3.372   4.146   0.858
12247TIP3    H158232   3.352   4.069   0.912
12247TIP3    H258233   3.440   4.192   0.913
12248TIP3   OH258234   2.264   4.281   1.027
12248TIP3    H158235   2.328   4.348   1.060
12248TIP3    H258236   2.317   4.238   0.956
12249TIP3   OH258237   2.405   5.058   1.333
12249TIP3    H158238   2.401   5.149   1.298
12249TIP3    H258239   2.317   5.051   1.377
12250TIP3   OH258240   2.013   5.022   0.412
12250TIP3    H158241   1.989   5.052   0.322
12250TIP3    H258242   2.020   5.106   0.461
12251TIP3   OH258243   3.376   5.187   1.086
12251TIP3    H158244   3.279   5.197   1.099
12251TIP3    H258245   3.402   5.279   1.068
12252TIP3   OH258246   3.407   4.016   1.226
12252TIP3    H158247   3.334   4.079   1.219
12252TIP3    H258248   3.478   4.058   1.173
12253TIP3   OH258249   2.706   3.827   0.972
12253TIP3    H158250   2.692   3.730   0.966
12253TIP3    H258251   2.618   3.858   1.002
12254TIP3   OH258252   3.201   5.365   0.747
12254TIP3    H158253   3.244   5.294   0.696
12254TIP3    H258254   3.240   5.445   0.706
12255TIP3   OH258255   3.321   5.158   0.597
12255TIP3    H158256   3.292   5.088   0.536
12255TIP3    H258257   3.325   5.109   0.682
12256TIP3   OH258258   3.485   5.016   1.447
12256TIP3    H158259   3.500   4.952   1.373
12256TIP3    H258260   3.504   5.101   1.405
12257TIP3   OH258261   2.933   4.707   0.422
12257TIP3    H158262   2.863   4.764   0.385
12257TIP3    H258263   3.003   4.715   0.355
12258TIP3   OH258264   2.935   4.556   0.132
12258TIP3    H158265   3.011   4.560   0.191
12258TIP3    H258266   2.970   4.495   0.066
12259TIP3   OH258267   3.674   4.657   1.276
12259TIP3    H158268   3.602   4.720   1.260
12259TIP3    H258269   3.713   4.664   1.185
12260TIP3   OH258270   3.277   4.729   0.517
12260TIP3    H158271   3.202   4.752   0.577
12260TIP3    H258272   3.324   4.660   0.568
12261TIP3   OH258273   3.269   4.544   1.429
12261TIP3    H158274   3.271   4.625   1.482
12261TIP3    H258275   3.208   4.575   1.358
12262TIP3   OH258276   2.439   4.794   0.707
12262TIP3    H158277   2.407   4.755   0.623
12262TIP3    H258278   2.500   4.725   0.741
12263TIP3   OH258279   2.572   5.134   0.975
12263TIP3    H158280   2.569   5.079   0.896
12263TIP3    H258281   2.649   5.097   1.022
12264TIP3   OH258282   2.473   4.668   1.072
12264TIP3    H158283   2.529   4.680   0.993
12264TIP3    H258284   2.510   4.735   1.134
12265TIP3   OH258285   3.111   5.225   1.143
12265TIP3    H158286   3.084   5.288   1.210
12265TIP3    H258287   3.088   5.139   1.186
12266TIP3   OH258288   2.567   5.111   1.543
12266TIP3    H158289   2.528   5.187   1.590
12266TIP3    H258290   2.499   5.092   1.473
12267TIP3   OH258291   3.164   4.645   0.284
12267TIP3    H158292   3.220   4.664   0.363
12267TIP3    H258293   3.206   4.698   0.214
12268TIP3   OH258294   2.260   4.728   1.460
12268TIP3    H158295   2.264   4.794   1.532
12268TIP3    H258296   2.167   4.738   1.435
12269TIP3   OH258297   2.935   5.319   0.630
12269TIP3    H158298   2.981   5.350   0.709
12269TIP3    H258299   2.880   5.394   0.605
12270TIP3   OH258300   2.391   5.316   1.618
12270TIP3    H158301   2.387   5.304   1.522
12270TIP3    H258302   2.297   5.303   1.644
12271TIP3   OH258303   3.536   3.822   0.272
12271TIP3    H158304   3.441   3.835   0.294
12271TIP3    H258305   3.558   3.906   0.228
12272TIP3   OH258306   2.337   4.697   0.468
12272TIP3    H158307   2.308   4.775   0.416
12272TIP3    H258308   2.271   4.631   0.447
12273TIP3   OH258309   3.646   5.255   0.109
12273TIP3    H158310   3.660   5.351   0.121
12273TIP3    H258311   3.739   5.227   0.101
12274TIP3   OH258312   1.946   4.939   1.355
12274TIP3    H158313   1.899   4.931   1.270
12274TIP3    H258314   1.951   4.844   1.379
12275TIP3   OH258315   1.922   5.213   1.036
12275TIP3    H158316   2.017   5.201   1.034
12275TIP3    H258317   1.913   5.294   1.088
12276TIP3   OH258318   3.745   5.283   1.604
12276TIP3    H158319   3.734   5.186   1.602
12276TIP3    H258320   3.658   5.307   1.644
12277TIP3   OH258321   2.841   5.237   1.491
12277TIP3    H158322   2.848   5.321   1.541
12277TIP3    H258323   2.753   5.202   1.516
12278TIP3   OH258324   2.882   5.612   0.471
12278TIP3    H158325   2.875   5.604   0.374
12278TIP3    H258326   2.887   5.708   0.486
12279TIP3   OH258327   2.248   5.498   0.652
12279TIP3    H158328   2.262   5.457   0.740
12279TIP3    H258329   2.163   5.458   0.628
12280TIP3   OH258330   3.187   5.531   0.169
12280TIP3    H158331   3.233   5.457   0.125
12280TIP3    H258332   3.194   5.506   0.263
12281TIP3   OH258333   3.159   5.525   0.447
12281TIP3    H158334   3.064   5.533   0.466
12281TIP3    H258335   3.185   5.452   0.505
12282TIP3   OH258336   3.459   4.430   1.653
12282TIP3    H158337   3.414   4.476   1.580
12282TIP3    H258338   3.459   4.338   1.621
12283TIP3   OH258339   2.173   5.070   1.452
12283TIP3    H158340   2.195   5.033   1.540
12283TIP3    H258341   2.086   5.030   1.430
12284TIP3   OH258342   2.440   3.917   1.049
12284TIP3    H158343   2.350   3.906   1.011
12284TIP3    H258344   2.429   4.001   1.095
12285TIP3   OH258345   2.904   3.886   1.385
12285TIP3    H158346   2.944   3.844   1.463
12285TIP3    H258347   2.807   3.872   1.399
12286TIP3   OH258348   3.235   4.267   1.474
12286TIP3    H158349   3.179   4.248   1.553
12286TIP3    H258350   3.217   4.360   1.450
12287TIP3   OH258351   3.319   4.759   0.064
12287TIP3    H158352   3.318   4.735  -0.031
12287TIP3    H258353   3.408   4.797   0.074
12288TIP3   OH258354   2.868   4.141   0.117
12288TIP3    H158355   2.840   4.137   0.210
12288TIP3    H258356   2.844   4.053   0.088
12289TIP3   OH258357   2.450   4.413   1.169
12289TIP3    H158358   2.378   4.412   1.235
12289TIP3    H258359   2.447   4.506   1.136
12290TIP3   OH258360   2.446   4.430   0.657
12290TIP3    H158361   2.353   4.401   0.645
12290TIP3    H258362   2.486   4.397   0.574
12291TIP3   OH258363   2.999   4.476   0.534
12291TIP3    H158364   2.958   4.559   0.502
12291TIP3    H258365   3.069   4.462   0.468
12292TIP3   OH258366   2.906   4.497   1.681
12292TIP3    H158367   2.852   4.421   1.712
12292TIP3    H258368   2.990   4.484   1.728
12293TIP3   OH258369   3.101   4.424   0.819
12293TIP3    H158370   3.076   4.481   0.745
12293TIP3    H258371   3.114   4.340   0.772
12294TIP3   OH258372   2.215   4.442   1.343
12294TIP3    H158373   2.219   4.482   1.431
12294TIP3    H258374   2.169   4.358   1.360
12295TIP3   OH258375   2.571   4.207   0.059
12295TIP3    H158376   2.516   4.141   0.107
12295TIP3    H258377   2.510   4.236  -0.011
12296TIP3   OH258378   1.879   4.153   0.737
12296TIP3    H158379   1.946   4.149   0.808
12296TIP3    H258380   1.925   4.113   0.660
12297TIP3   OH258381   2.007   4.226   0.276
12297TIP3    H158382   2.057   4.286   0.217
12297TIP3    H258383   1.937   4.286   0.307
12298TIP3   OH258384   3.023   4.585   1.278
12298TIP3    H158385   3.059   4.517   1.218
12298TIP3    H258386   2.978   4.531   1.345
12299TIP3   OH258387   2.703   4.180   0.759
12299TIP3    H158388   2.610   4.183   0.789
12299TIP3    H258389   2.752   4.168   0.842
12300TIP3   OH258390   2.184   4.338   0.646
12300TIP3    H158391   2.095   4.352   0.608
12300TIP3    H258392   2.213   4.254   0.606
12301TIP3   OH258393   2.548   4.343   0.410
12301TIP3    H158394   2.644   4.353   0.427
12301TIP3    H258395   2.526   4.408   0.342
12302TIP3   OH258396   3.144   4.103   1.084
12302TIP3    H158397   3.075   4.112   1.154
12302TIP3    H258398   3.093   4.082   1.005
12303TIP3   OH258399   2.418   4.459   0.168
12303TIP3    H158400   2.362   4.423   0.097
12303TIP3    H258401   2.500   4.479   0.121
12304TIP3   OH258402   3.465   5.669   1.716
12304TIP3    H158403   3.491   5.709   1.631
12304TIP3    H258404   3.536   5.702   1.773
12305TIP3   OH258405   2.232   4.916   1.673
12305TIP3    H158406   2.304   4.941   1.733
12305TIP3    H258407   2.153   4.929   1.731
12306TIP3   OH258408   2.832   4.457   0.949
12306TIP3    H158409   2.891   4.403   0.895
12306TIP3    H258410   2.818   4.403   1.028
12307TIP3   OH258411   2.333   4.072   0.593
12307TIP3    H158412   2.302   3.979   0.590
12307TIP3    H258413   2.411   4.067   0.537
12308TIP3   OH258414   2.696   4.291   1.190
12308TIP3    H158415   2.612   4.342   1.200
12308TIP3    H258416   2.750   4.325   1.264
12309TIP3   OH258417   2.754   4.913   0.361
12309TIP3    H158418   2.675   4.866   0.328
12309TIP3    H258419   2.734   4.923   0.456
12310TIP3   OH258420   3.468   4.834   1.242
12310TIP3    H158421   3.530   4.876   1.178
12310TIP3    H258422   3.385   4.839   1.191
12311TIP3   OH258423   3.140   4.197   0.178
12311TIP3    H158424   3.045   4.209   0.162
12311TIP3    H258425   3.171   4.282   0.212
12312TIP3   OH258426   2.903   4.937   1.484
12312TIP3    H158427   2.869   4.897   1.564
12312TIP3    H258428   2.880   5.030   1.493
12313TIP3   OH258429   3.211   4.386   0.345
12313TIP3    H158430   3.302   4.371   0.378
12313TIP3    H258431   3.219   4.466   0.292
12314TIP3   OH258432   2.264   4.850   0.939
12314TIP3    H158433   2.335   4.844   0.872
12314TIP3    H258434   2.271   4.765   0.985
12315TIP3   OH258435   2.965   5.060   0.264
12315TIP3    H158436   2.929   5.144   0.300
12315TIP3    H258437   2.891   4.998   0.283
12316TIP3   OH258438   1.964   4.693   1.467
12316TIP3    H158439   1.983   4.649   1.551
12316TIP3    H258440   1.902   4.630   1.424
12317TIP3   OH258441   2.665   4.648   1.686
12317TIP3    H158442   2.635   4.621   1.598
12317TIP3    H258443   2.758   4.618   1.685
12318TIP3   OH258444   3.132   5.181   1.478
12318TIP3    H158445   3.039   5.200   1.455
12318TIP3    H258446   3.130   5.210   1.571
12319TIP3   OH258447   3.701   4.401   0.320
12319TIP3    H158448   3.644   4.368   0.249
12319TIP3    H258449   3.710   4.494   0.290
12320TIP3   OH258450   3.699   4.987   1.600
12320TIP3    H158451   3.610   5.008   1.562
12320TIP3    H258452   3.755   4.982   1.519
12321TIP3   OH258453   3.529   5.284   0.357
12321TIP3    H158454   3.493   5.201   0.391
12321TIP3    H258455   3.559   5.263   0.267
12322TIP3   OH258456   3.248   4.765   1.067
12322TIP3    H158457   3.155   4.741   1.058
12322TIP3    H258458   3.294   4.688   1.027
12323TIP3   OH258459   2.502   5.197   0.678
12323TIP3    H158460   2.552   5.277   0.657
12323TIP3    H258461   2.414   5.221   0.646
12324TIP3   OH258462   2.076   4.684   0.132
12324TIP3    H158463   2.138   4.745   0.175
12324TIP3    H258464   1.989   4.713   0.164
12325TIP3   OH258465   2.645   4.963   0.632
12325TIP3    H158466   2.615   5.056   0.639
12325TIP3    H258467   2.570   4.916   0.675
12326TIP3   OH258468   2.690   5.381   1.269
12326TIP3    H158469   2.733   5.464   1.242
12326TIP3    H258470   2.750   5.349   1.339
12327TIP3   OH258471   2.512   5.464   0.584
12327TIP3    H158472   2.415   5.477   0.596
12327TIP3    H258473   2.547   5.548   0.620
12328TIP3   OH258474   3.044   4.985   1.234
12328TIP3    H158475   3.008   4.964   1.322
12328TIP3    H258476   3.106   4.912   1.217
12329TIP3   OH258477   3.271   5.086   0.145
12329TIP3    H158478   3.302   5.041   0.226
12329TIP3    H258479   3.175   5.071   0.153
12330TIP3   OH258480   3.320   5.441   1.483
12330TIP3    H158481   3.254   5.390   1.433
12330TIP3    H258482   3.342   5.511   1.417
12331TIP3   OH258483   3.720   5.528   0.169
12331TIP3    H158484   3.792   5.590   0.146
12331TIP3    H258485   3.648   5.589   0.195
12332TIP3   OH258486   2.129   4.167   1.421
12332TIP3    H158487   2.038   4.201   1.418
12332TIP3    H258488   2.117   4.081   1.467
12333TIP3   OH258489   3.354   4.951   0.366
12333TIP3    H158490   3.329   4.873   0.420
12333TIP3    H258491   3.448   4.959   0.387
12334TIP3   OH258492   2.091   5.346   1.264
12334TIP3    H158493   2.118   5.253   1.265
12334TIP3    H258494   2.117   5.374   1.353
12335TIP3   OH258495   2.568   5.152   0.234
12335TIP3    H158496   2.589   5.097   0.311
12335TIP3    H258497   2.573   5.244   0.267
12336TIP3   OH258498   2.217   4.875   0.286
12336TIP3    H158499   2.148   4.914   0.344
12336TIP3    H258500   2.270   4.952   0.260
12337TIP3   OH258501   3.001   4.143   1.315
12337TIP3    H158502   3.072   4.149   1.380
12337TIP3    H258503   2.963   4.055   1.334
12338TIP3   OH258504   3.076   4.104   0.425
12338TIP3    H158505   3.102   4.150   0.343
12338TIP3    H258506   3.135   4.145   0.490
12339TIP3   OH258507   2.845   5.318   0.306
12339TIP3    H158508   2.763   5.370   0.315
12339TIP3    H258509   2.899   5.370   0.245
12340TIP3   OH258510   2.799   4.276   0.507
12340TIP3    H158511   2.879   4.332   0.510
12340TIP3    H258512   2.773   4.264   0.600
12341TIP3   OH258513   2.854   4.378   1.426
12341TIP3    H158514   2.863   4.435   1.504
12341TIP3    H258515   2.920   4.308   1.436
12342TIP3   OH258516   2.887   3.982   0.598
12342TIP3    H158517   2.853   4.047   0.662
12342TIP3    H258518   2.954   4.037   0.551
12343TIP3   OH258519   2.580   5.421   0.309
12343TIP3    H158520   2.598   5.504   0.259
12343TIP3    H258521   2.558   5.455   0.398
12344TIP3   OH258522   2.451   4.092   0.269
12344TIP3    H158523   2.445   4.183   0.305
12344TIP3    H258524   2.542   4.069   0.297
12345TIP3   OH258525   3.474   4.165   1.511
12345TIP3    H158526   3.380   4.196   1.498
12345TIP3    H258527   3.504   4.165   1.418
12346TIP3   OH258528   3.332   4.544   0.914
12346TIP3    H158529   3.252   4.499   0.884
12346TIP3    H258530   3.383   4.476   0.965
12347TIP3   OH258531   2.276   5.137   0.172
12347TIP3    H158532   2.340   5.201   0.203
12347TIP3    H258533   2.327   5.091   0.102
12348TIP3   OH258534   2.113   4.404   0.091
12348TIP3    H158535   2.109   4.500   0.103
12348TIP3    H258536   2.025   4.382   0.058
12349TIP3   OH258537   3.440   5.468   1.080
12349TIP3    H158538   3.430   5.537   1.011
12349TIP3    H258539   3.537   5.476   1.098
12350TIP3   OH258540   2.191   3.882   0.958
12350TIP3    H158541   2.169   3.885   0.862
12350TIP3    H258542   2.147   3.798   0.985
12351TIP3   OH258543   2.086   5.274   0.573
12351TIP3    H158544   2.001   5.320   0.571
12351TIP3    H258545   2.135   5.323   0.506
12352TIP3   OH258546   2.008   5.539   1.703
12352TIP3    H158547   2.067   5.517   1.778
12352TIP3    H258548   1.965   5.453   1.684
12353TIP3   OH258549   2.473   5.430   1.865
12353TIP3    H158550   2.550   5.381   1.897
12353TIP3    H258551   2.471   5.404   1.770
12354TIP3   OH258552   2.927   5.395   0.057
12354TIP3    H158553   2.844   5.345   0.057
12354TIP3    H258554   2.971   5.341  -0.008
12355TIP3   OH258555   3.127   5.268   1.738
12355TIP3    H158556   3.094   5.180   1.764
12355TIP3    H258557   3.202   5.280   1.798
12356TIP3   OH258558   3.344   5.361   0.024
12356TIP3    H158559   3.371   5.280   0.072
12356TIP3    H258560   3.421   5.381  -0.031
12357TIP3   OH258561   2.000   4.917   1.801
12357TIP3    H158562   2.016   4.826   1.771
12357TIP3    H258563   1.924   4.943   1.746
12358TIP3   OH258564   2.442   4.957   0.016
12358TIP3    H158565   2.447   4.874   0.064
12358TIP3    H258566   2.500   4.936  -0.059
12359TIP3   OH258567   2.669   4.915   1.741
12359TIP3    H158568   2.635   4.944   1.654
12359TIP3    H258569   2.679   4.818   1.731
12360TIP3   OH258570   3.240   4.902   1.480
12360TIP3    H158571   3.317   4.962   1.471
12360TIP3    H258572   3.168   4.967   1.484
12361TIP3   OH258573   2.089   4.639   1.740
12361TIP3    H158574   2.130   4.552   1.730
12361TIP3    H258575   2.064   4.639   1.834
12362TIP3   OH258576   2.553   4.754   0.244
12362TIP3    H158577   2.505   4.701   0.309
12362TIP3    H258578   2.583   4.685   0.180
12363TIP3   OH258579   2.480   4.535   1.477
12363TIP3    H158580   2.419   4.606   1.503
12363TIP3    H258581   2.517   4.571   1.395
12364TIP3   OH258582   2.661   4.571   0.068
12364TIP3    H158583   2.646   4.559  -0.027
12364TIP3    H258584   2.759   4.582   0.074
12365TIP3   OH258585   2.986   4.789   1.808
12365TIP3    H158586   3.082   4.791   1.800
12365TIP3    H258587   2.969   4.713   1.866
12366TIP3   OH258588   3.577   4.822  16.020
12366TIP3    H158589   3.570   4.770  15.937
12366TIP3    H258590   3.602   4.910  15.990
12367TIP3   OH258591   2.519   4.272   1.584
12367TIP3    H158592   2.531   4.200   1.519
12367TIP3    H258593   2.515   4.352   1.528
12368TIP3   OH258594   2.559   4.110   1.337
12368TIP3    H158595   2.611   4.156   1.267
12368TIP3    H258596   2.471   4.101   1.295
12369TIP3   OH258597   2.714   4.656   1.361
12369TIP3    H158598   2.790   4.640   1.303
12369TIP3    H258599   2.679   4.741   1.329
12370TIP3   OH258600   3.154   4.435   1.859
12370TIP3    H158601   3.177   4.341   1.849
12370TIP3    H258602   3.241   4.478   1.861
12371TIP3   OH258603   3.287   4.713   1.672
12371TIP3    H158604   3.262   4.786   1.612
12371TIP3    H258605   3.384   4.709   1.654
12372TIP3   OH258606   2.365   4.396   1.775
12372TIP3    H158607   2.288   4.339   1.756
12372TIP3    H258608   2.431   4.360   1.713
12373TIP3   OH258609   2.639   3.854   1.377
12373TIP3    H158610   2.623   3.950   1.367
12373TIP3    H258611   2.563   3.818   1.327
12374TIP3   OH258612   2.766   4.287   1.737
12374TIP3    H158613   2.736   4.264   1.827
12374TIP3    H258614   2.686   4.266   1.684
12375TIP3   OH258615   3.037   4.200   1.645
12375TIP3    H158616   2.941   4.205   1.657
12375TIP3    H258617   3.065   4.137   1.713
12376TIP3   OH258618   3.197   4.063   1.839
12376TIP3    H158619   3.190   3.966   1.841
12376TIP3    H258620   3.169   4.092   1.928
12377TIP3   OH258621   2.175   4.189   1.748
12377TIP3    H158622   2.200   4.116   1.688
12377TIP3    H258623   2.167   4.143   1.834
12378TIP3   OH258624   2.660   3.790   1.647
12378TIP3    H158625   2.729   3.721   1.643
12378TIP3    H258626   2.649   3.809   1.551
12379TIP3   OH258627   2.696   3.954   1.855
12379TIP3    H158628   2.680   3.904   1.771
12379TIP3    H258629   2.636   4.030   1.846
12380TIP3   OH258630   2.644   5.643   0.170
12380TIP3    H158631   2.741   5.656   0.181
12380TIP3    H258632   2.625   5.710   0.104
12381TIP3   OH258633   2.002   5.105   0.119
12381TIP3    H158634   2.097   5.115   0.143
12381TIP3    H258635   2.006   5.042   0.047
12382TIP3   OH258636   1.876   5.642   0.619
12382TIP3    H158637   1.805   5.594   0.571
12382TIP3    H258638   1.905   5.576   0.684
12383TIP3   OH258639   1.959   5.454   0.805
12383TIP3    H158640   1.924   5.366   0.824
12383TIP3    H258641   1.981   5.487   0.893
12384TIP3   OH258642   3.712   5.534   1.099
12384TIP3    H158643   3.714   5.551   1.195
12384TIP3    H258644   3.783   5.592   1.069
12385TIP3   OH258645   3.670   5.494   1.394
12385TIP3    H158646   3.622   5.417   1.357
12385TIP3    H258647   3.721   5.449   1.464
12386TIP3   OH258648   3.514   5.067   1.860
12386TIP3    H158649   3.425   5.062   1.898
12386TIP3    H258650   3.552   5.146   1.903
12387TIP3   OH258651   3.646   4.897   0.405
12387TIP3    H158652   3.732   4.938   0.424
12387TIP3    H258653   3.645   4.825   0.473
12388TIP3   OH258654   3.683   4.705   0.591
12388TIP3    H158655   3.609   4.654   0.633
12388TIP3    H258656   3.742   4.720   0.668
12389TIP3   OH258657   3.658   4.976   1.091
12389TIP3    H158658   3.740   4.937   1.055
12389TIP3    H258659   3.673   5.071   1.073
12390TIP3   OH258660   3.513   5.266   1.319
12390TIP3    H158661   3.444   5.300   1.378
12390TIP3    H258662   3.458   5.225   1.248
12391TIP3   OH258663   3.713   4.690   0.232
12391TIP3    H158664   3.655   4.725   0.162
12391TIP3    H258665   3.705   4.760   0.299
12392TIP3   OH258666   3.511   4.414   0.094
12392TIP3    H158667   3.552   4.475   0.030
12392TIP3    H258668   3.531   4.333   0.047
12393TIP3   OH258669   3.462   4.554   0.647
12393TIP3    H158670   3.450   4.458   0.648
12393TIP3    H258671   3.433   4.578   0.737
12394TIP3   OH258672   1.965   4.762   1.054
12394TIP3    H158673   1.984   4.753   0.958
12394TIP3    H258674   2.054   4.746   1.091
12395TIP3   OH258675   3.549   4.750   1.616
12395TIP3    H158676   3.610   4.675   1.631
12395TIP3    H258677   3.609   4.828   1.618
12396TIP3   OH258678   3.700   4.540   1.683
12396TIP3    H158679   3.612   4.499   1.666
12396TIP3    H258680   3.758   4.462   1.674
12397TIP3   OH258681   3.431   4.312   0.495
12397TIP3    H158682   3.462   4.220   0.506
12397TIP3    H258683   3.509   4.353   0.457
12398TIP3   OH258684   3.494   4.360   1.040
12398TIP3    H158685   3.586   4.394   1.034
12398TIP3    H258686   3.475   4.382   1.132
12399TIP3   OH258687   3.502   4.439   1.319
12399TIP3    H158688   3.414   4.469   1.350
12399TIP3    H258689   3.545   4.525   1.294
12400TIP3   OH258690   1.925   4.291   1.668
12400TIP3    H158691   2.019   4.273   1.689
12400TIP3    H258692   1.881   4.210   1.700
12401TIP3   OH258693   3.727   3.843   1.852
12401TIP3    H158694   3.763   3.777   1.790
12401TIP3    H258695   3.740   3.925   1.802
12402TIP3   OH258696   3.498   4.038   0.498
12402TIP3    H158697   3.517   3.996   0.584
12402TIP3    H258698   3.435   3.978   0.454
12403TIP3   OH258699   2.046   4.120   0.954
12403TIP3    H158700   2.093   4.039   0.982
12403TIP3    H258701   2.099   4.191   0.995
12404TIP3   OH258702   1.875   4.420   1.060
12404TIP3    H158703   1.931   4.397   0.982
12404TIP3    H258704   1.919   4.502   1.086
12405TIP3   OH258705   3.681   4.054   1.688
12405TIP3    H158706   3.587   4.080   1.682
12405TIP3    H258707   3.686   3.999   1.607
12406TIP3   OH258708   3.681   4.045   0.156
12406TIP3    H158709   3.722   3.974   0.105
12406TIP3    H258710   3.752   4.111   0.156
12407TIP3   OH258711   1.910   4.047   0.466
12407TIP3    H158712   1.817   4.067   0.451
12407TIP3    H258713   1.954   4.095   0.395
12408TIP3   OH258714   3.385   5.542   0.662
12408TIP3    H158715   3.453   5.510   0.599
12408TIP3    H258716   3.437   5.592   0.726
12409TIP3   OH258717   1.907   3.915   1.297
12409TIP3    H158718   1.839   3.894   1.364
12409TIP3    H258719   1.861   3.981   1.242
12410TIP3   OH258720   2.129   5.233   1.713
12410TIP3    H158721   2.045   5.254   1.668
12410TIP3    H258722   2.102   5.227   1.805
12411TIP3   OH258723   2.420   5.332   1.340
12411TIP3    H158724   2.384   5.418   1.312
12411TIP3    H258725   2.512   5.342   1.309
12412TIP3   OH258726   2.852   5.475   1.632
12412TIP3    H158727   2.868   5.440   1.723
12412TIP3    H258728   2.941   5.505   1.605
12413TIP3   OH258729   3.082   5.602   1.561
12413TIP3    H158730   3.154   5.542   1.537
12413TIP3    H258731   3.119   5.644   1.641
12414TIP3   OH258732   3.582   3.863   1.471
12414TIP3    H158733   3.499   3.893   1.430
12414TIP3    H258734   3.600   3.783   1.418
12415TIP3   OH258735   2.162   5.657   1.341
12415TIP3    H158736   2.089   5.706   1.300
12415TIP3    H258737   2.129   5.636   1.430
12416TIP3   OH258738   2.410   5.615   1.248
12416TIP3    H158739   2.320   5.628   1.287
12416TIP3    H258740   2.403   5.674   1.170
12417TIP3   OH258741   2.880   5.606   1.164
12417TIP3    H158742   2.833   5.661   1.099
12417TIP3    H258743   2.894   5.670   1.238
12418TIP3   OH258744   3.110   5.490   1.264
12418TIP3    H158745   3.023   5.514   1.231
12418TIP3    H258746   3.156   5.575   1.255
12419TIP3   OH258747   3.369   5.646   1.290
12419TIP3    H158748   3.359   5.742   1.267
12419TIP3    H258749   3.389   5.609   1.202
12420TIP3   OH258750   2.106   5.522   1.034
12420TIP3    H158751   2.100   5.477   1.121
12420TIP3    H258752   2.188   5.486   0.995
12421TIP3   OH258753   2.315   5.393   0.900
12421TIP3    H158754   2.298   5.300   0.921
12421TIP3    H258755   2.401   5.407   0.946
12422TIP3   OH258756   2.574   5.441   0.987
12422TIP3    H158757   2.592   5.349   0.960
12422TIP3    H258758   2.579   5.435   1.083
12423TIP3   OH258759   2.922   4.007   0.901
12423TIP3    H158760   2.854   3.942   0.928
12423TIP3    H258761   2.977   3.954   0.842
12424TIP3   OH258762   3.435   3.810   0.906
12424TIP3    H158763   3.497   3.873   0.860
12424TIP3    H258764   3.347   3.849   0.887
12425TIP3   OH258765   3.602   3.932   0.737
12425TIP3    H158766   3.673   3.879   0.693
12425TIP3    H258767   3.649   4.018   0.747
12426TIP3   OH258768   2.157   3.870   0.685
12426TIP3    H158769   2.078   3.848   0.633
12426TIP3    H258770   2.205   3.785   0.681
12427TIP3   OH258771   2.035   3.846   0.261
12427TIP3    H158772   2.083   3.909   0.204
12427TIP3    H258773   1.977   3.902   0.314
12428TIP3   OH258774   2.608   3.862   0.664
12428TIP3    H158775   2.698   3.899   0.659
12428TIP3    H258776   2.601   3.840   0.757
12429TIP3   OH258777   3.177   3.863   0.827
12429TIP3    H158778   3.172   3.875   0.732
12429TIP3    H258779   3.137   3.773   0.841
12430TIP3   OH258780   3.305   3.866   0.396
12430TIP3    H158781   3.232   3.927   0.377
12430TIP3    H258782   3.257   3.781   0.413
12431TIP3   OH258783   2.029   5.440   0.356
12431TIP3    H158784   1.960   5.440   0.287
12431TIP3    H258785   2.028   5.535   0.378
12432TIP3   OH258786   2.220   4.033   0.111
12432TIP3    H158787   2.273   3.977   0.055
12432TIP3    H258788   2.286   4.071   0.172
12433TIP3   OH258789   2.723   4.064   0.350
12433TIP3    H158790   2.747   4.006   0.424
12433TIP3    H258791   2.726   4.151   0.398
12434TIP3   OH258792   2.910   5.593   0.201
12434TIP3    H158793   3.006   5.599   0.178
12434TIP3    H258794   2.893   5.528   0.128
12435TIP3   OH258795   3.586   5.522   0.464
12435TIP3    H158796   3.565   5.444   0.406
12435TIP3    H258797   3.577   5.596   0.401
12436TIP3   OH258798   2.147   3.923   1.631
12436TIP3    H158799   2.111   3.843   1.675
12436TIP3    H258800   2.240   3.920   1.667
12437TIP3   OH258801   2.348   3.860   1.792
12437TIP3    H158802   2.437   3.827   1.772
12437TIP3    H258803   2.310   3.780   1.835
12438TIP3   OH258804   2.212   5.537   0.054
12438TIP3    H158805   2.182   5.564   0.142
12438TIP3    H258806   2.287   5.481   0.073
12439TIP3   OH258807   3.188   3.791   1.809
12439TIP3    H158808   3.198   3.744   1.894
12439TIP3    H258809   3.279   3.788   1.774
12440TIP3   OH258810   3.509   5.395   1.674
12440TIP3    H158811   3.428   5.380   1.621
12440TIP3    H258812   3.497   5.490   1.696
12441TIP3   OH258813   4.951   4.783   0.674
12441TIP3    H158814   4.953   4.881   0.667
12441TIP3    H258815   4.881   4.759   0.612
12442TIP3   OH258816   4.839   4.710   1.022
12442TIP3    H158817   4.837   4.644   1.093
12442TIP3    H258818   4.806   4.660   0.945
12443TIP3   OH258819   4.077   4.673   1.177
12443TIP3    H158820   4.082   4.607   1.249
12443TIP3    H258821   4.148   4.734   1.199
12444TIP3   OH258822   5.209   5.003   0.849
12444TIP3    H158823   5.166   4.932   0.898
12444TIP3    H258824   5.210   5.075   0.916
12445TIP3   OH258825   4.168   5.120   1.030
12445TIP3    H158826   4.134   5.034   0.996
12445TIP3    H258827   4.263   5.101   1.034
12446TIP3   OH258828   3.833   4.478   0.572
12446TIP3    H158829   3.787   4.565   0.572
12446TIP3    H258830   3.773   4.424   0.520
12447TIP3   OH258831   3.903   4.700   0.785
12447TIP3    H158832   3.924   4.620   0.837
12447TIP3    H258833   3.976   4.708   0.724
12448TIP3   OH258834   4.913   5.508   0.871
12448TIP3    H158835   4.986   5.447   0.845
12448TIP3    H258836   4.901   5.488   0.963
12449TIP3   OH258837   4.677   4.950   1.066
12449TIP3    H158838   4.711   4.885   1.002
12449TIP3    H258839   4.756   4.965   1.121
12450TIP3   OH258840   5.539   4.113   1.143
12450TIP3    H158841   5.553   4.174   1.219
12450TIP3    H258842   5.592   4.158   1.075
12451TIP3   OH258843   4.993   4.396   1.099
12451TIP3    H158844   5.009   4.299   1.098
12451TIP3    H258845   4.983   4.411   1.002
12452TIP3   OH258846   4.307   4.204   0.821
12452TIP3    H158847   4.314   4.288   0.775
12452TIP3    H258848   4.264   4.147   0.754
12453TIP3   OH258849   5.079   4.213   0.659
12453TIP3    H158850   5.145   4.182   0.725
12453TIP3    H258851   5.134   4.269   0.602
12454TIP3   OH258852   3.972   4.447   0.893
12454TIP3    H158853   4.034   4.389   0.941
12454TIP3    H258854   3.976   4.414   0.803
12455TIP3   OH258855   4.484   4.601   0.824
12455TIP3    H158856   4.549   4.543   0.867
12455TIP3    H258857   4.430   4.534   0.777
12456TIP3   OH258858   5.582   4.257   1.369
12456TIP3    H158859   5.518   4.330   1.359
12456TIP3    H258860   5.585   4.245   1.464
12457TIP3   OH258861   4.194   4.094   1.227
12457TIP3    H158862   4.167   4.150   1.151
12457TIP3    H258863   4.125   4.118   1.294
12458TIP3   OH258864   4.925   5.043   0.581
12458TIP3    H158865   4.896   5.014   0.493
12458TIP3    H258866   4.894   5.136   0.586
12459TIP3   OH258867   4.447   4.859   1.252
12459TIP3    H158868   4.375   4.923   1.270
12459TIP3    H258869   4.518   4.918   1.223
12460TIP3   OH258870   5.258   4.147   0.858
12460TIP3    H158871   5.237   4.069   0.912
12460TIP3    H258872   5.325   4.191   0.913
12461TIP3   OH258873   4.152   4.279   1.028
12461TIP3    H158874   4.214   4.348   1.060
12461TIP3    H258875   4.204   4.237   0.955
12462TIP3   OH258876   4.291   5.058   1.333
12462TIP3    H158877   4.286   5.149   1.297
12462TIP3    H258878   4.202   5.051   1.377
12463TIP3   OH258879   3.898   5.022   0.412
12463TIP3    H158880   3.875   5.052   0.322
12463TIP3    H258881   3.905   5.106   0.461
12464TIP3   OH258882   5.261   5.187   1.086
12464TIP3    H158883   5.165   5.197   1.099
12464TIP3    H258884   5.288   5.279   1.068
12465TIP3   OH258885   5.293   4.016   1.226
12465TIP3    H158886   5.219   4.079   1.219
12465TIP3    H258887   5.363   4.058   1.173
12466TIP3   OH258888   4.591   3.827   0.972
12466TIP3    H158889   4.578   3.730   0.966
12466TIP3    H258890   4.503   3.858   1.002
12467TIP3   OH258891   5.086   5.364   0.747
12467TIP3    H158892   5.131   5.295   0.695
12467TIP3    H258893   5.126   5.446   0.707
12468TIP3   OH258894   5.206   5.158   0.597
12468TIP3    H158895   5.178   5.088   0.536
12468TIP3    H258896   5.211   5.109   0.682
12469TIP3   OH258897   5.370   5.016   1.447
12469TIP3    H158898   5.385   4.953   1.373
12469TIP3    H258899   5.389   5.102   1.405
12470TIP3   OH258900   4.819   4.707   0.422
12470TIP3    H158901   4.748   4.764   0.385
12470TIP3    H258902   4.889   4.715   0.355
12471TIP3   OH258903   4.821   4.556   0.132
12471TIP3    H158904   4.897   4.560   0.191
12471TIP3    H258905   4.855   4.495   0.066
12472TIP3   OH258906   5.558   4.647   1.252
12472TIP3    H158907   5.491   4.719   1.258
12472TIP3    H258908   5.605   4.671   1.171
12473TIP3   OH258909   5.162   4.729   0.517
12473TIP3    H158910   5.088   4.752   0.577
12473TIP3    H258911   5.209   4.660   0.567
12474TIP3   OH258912   5.155   4.544   1.427
12474TIP3    H158913   5.157   4.625   1.481
12474TIP3    H258914   5.092   4.575   1.358
12475TIP3   OH258915   4.325   4.795   0.707
12475TIP3    H158916   4.291   4.755   0.624
12475TIP3    H258917   4.385   4.725   0.741
12476TIP3   OH258918   4.457   5.134   0.975
12476TIP3    H158919   4.455   5.079   0.896
12476TIP3    H258920   4.535   5.097   1.022
12477TIP3   OH258921   4.359   4.668   1.072
12477TIP3    H158922   4.415   4.680   0.993
12477TIP3    H258923   4.395   4.735   1.134
12478TIP3   OH258924   4.997   5.224   1.143
12478TIP3    H158925   4.969   5.288   1.209
12478TIP3    H258926   4.972   5.138   1.187
12479TIP3   OH258927   4.452   5.111   1.543
12479TIP3    H158928   4.414   5.187   1.590
12479TIP3    H258929   4.385   5.092   1.473
12480TIP3   OH258930   5.050   4.645   0.284
12480TIP3    H158931   5.106   4.664   0.363
12480TIP3    H258932   5.091   4.699   0.214
12481TIP3   OH258933   4.145   4.727   1.460
12481TIP3    H158934   4.150   4.794   1.532
12481TIP3    H258935   4.052   4.738   1.435
12482TIP3   OH258936   4.821   5.320   0.630
12482TIP3    H158937   4.867   5.351   0.709
12482TIP3    H258938   4.765   5.394   0.606
12483TIP3   OH258939   4.276   5.316   1.618
12483TIP3    H158940   4.272   5.304   1.522
12483TIP3    H258941   4.183   5.303   1.644
12484TIP3   OH258942   5.423   3.821   0.275
12484TIP3    H158943   5.327   3.834   0.293
12484TIP3    H258944   5.441   3.905   0.226
12485TIP3   OH258945   4.223   4.697   0.468
12485TIP3    H158946   4.194   4.775   0.416
12485TIP3    H258947   4.156   4.631   0.447
12486TIP3   OH258948   5.532   5.256   0.109
12486TIP3    H158949   5.545   5.352   0.122
12486TIP3    H258950   5.625   5.227   0.101
12487TIP3   OH258951   3.831   4.939   1.356
12487TIP3    H158952   3.786   4.930   1.269
12487TIP3    H258953   3.836   4.843   1.377
12488TIP3   OH258954   3.807   5.213   1.036
12488TIP3    H158955   3.903   5.200   1.034
12488TIP3    H258956   3.798   5.294   1.088
12489TIP3   OH258957   5.631   5.283   1.604
12489TIP3    H158958   5.620   5.186   1.602
12489TIP3    H258959   5.544   5.307   1.644
12490TIP3   OH258960   4.726   5.237   1.491
12490TIP3    H158961   4.733   5.321   1.541
12490TIP3    H258962   4.639   5.202   1.516
12491TIP3   OH258963   4.766   5.611   0.470
12491TIP3    H158964   4.762   5.605   0.373
12491TIP3    H258965   4.774   5.708   0.487
12492TIP3   OH258966   4.134   5.498   0.652
12492TIP3    H158967   4.148   5.457   0.740
12492TIP3    H258968   4.049   5.458   0.628
12493TIP3   OH258969   5.072   5.531   0.169
12493TIP3    H158970   5.119   5.457   0.125
12493TIP3    H258971   5.080   5.507   0.263
12494TIP3   OH258972   5.044   5.522   0.443
12494TIP3    H158973   4.950   5.534   0.467
12494TIP3    H258974   5.071   5.454   0.506
12495TIP3   OH258975   5.345   4.430   1.652
12495TIP3    H158976   5.299   4.476   1.580
12495TIP3    H258977   5.345   4.338   1.621
12496TIP3   OH258978   4.059   5.072   1.452
12496TIP3    H158979   4.081   5.033   1.539
12496TIP3    H258980   3.972   5.031   1.430
12497TIP3   OH258981   4.326   3.917   1.049
12497TIP3    H158982   4.235   3.906   1.011
12497TIP3    H258983   4.315   4.001   1.095
12498TIP3   OH258984   4.790   3.886   1.385
12498TIP3    H158985   4.830   3.844   1.463
12498TIP3    H258986   4.693   3.872   1.399
12499TIP3   OH258987   5.120   4.267   1.474
12499TIP3    H158988   5.065   4.248   1.553
12499TIP3    H258989   5.102   4.360   1.450
12500TIP3   OH258990   5.205   4.759   0.064
12500TIP3    H158991   5.203   4.735  -0.031
12500TIP3    H258992   5.293   4.797   0.074
12501TIP3   OH258993   4.754   4.141   0.117
12501TIP3    H158994   4.725   4.137   0.210
12501TIP3    H258995   4.729   4.052   0.088
12502TIP3   OH258996   4.336   4.413   1.168
12502TIP3    H158997   4.264   4.412   1.234
12502TIP3    H258998   4.332   4.506   1.135
12503TIP3   OH258999   4.332   4.430   0.657
12503TIP3    H159000   4.239   4.401   0.645
12503TIP3    H259001   4.372   4.397   0.574
12504TIP3   OH259002   4.885   4.476   0.534
12504TIP3    H159003   4.843   4.559   0.502
12504TIP3    H259004   4.955   4.462   0.468
12505TIP3   OH259005   4.791   4.497   1.681
12505TIP3    H159006   4.736   4.421   1.713
12505TIP3    H259007   4.875   4.483   1.728
12506TIP3   OH259008   4.987   4.424   0.819
12506TIP3    H159009   4.961   4.481   0.745
12506TIP3    H259010   4.999   4.340   0.772
12507TIP3   OH259011   4.103   4.441   1.344
12507TIP3    H159012   4.104   4.482   1.432
12507TIP3    H259013   4.054   4.359   1.359
12508TIP3   OH259014   4.456   4.207   0.060
12508TIP3    H159015   4.402   4.141   0.107
12508TIP3    H259016   4.396   4.236  -0.011
12509TIP3   OH259017   3.764   4.151   0.736
12509TIP3    H159018   3.831   4.151   0.808
12509TIP3    H259019   3.811   4.112   0.660
12510TIP3   OH259020   3.893   4.226   0.276
12510TIP3    H159021   3.943   4.286   0.217
12510TIP3    H259022   3.823   4.287   0.306
12511TIP3   OH259023   4.909   4.585   1.278
12511TIP3    H159024   4.945   4.517   1.217
12511TIP3    H259025   4.863   4.531   1.345
12512TIP3   OH259026   4.589   4.180   0.759
12512TIP3    H159027   4.495   4.183   0.789
12512TIP3    H259028   4.637   4.168   0.842
12513TIP3   OH259029   4.071   4.338   0.645
12513TIP3    H159030   3.980   4.352   0.609
12513TIP3    H259031   4.099   4.254   0.606
12514TIP3   OH259032   4.434   4.343   0.410
12514TIP3    H159033   4.530   4.353   0.427
12514TIP3    H259034   4.411   4.408   0.342
12515TIP3   OH259035   5.029   4.104   1.085
12515TIP3    H159036   4.960   4.112   1.154
12515TIP3    H259037   4.978   4.082   1.005
12516TIP3   OH259038   4.304   4.459   0.168
12516TIP3    H159039   4.248   4.423   0.097
12516TIP3    H259040   4.386   4.479   0.121
12517TIP3   OH259041   5.351   5.669   1.716
12517TIP3    H159042   5.377   5.709   1.631
12517TIP3    H259043   5.422   5.702   1.773
12518TIP3   OH259044   4.117   4.917   1.673
12518TIP3    H159045   4.189   4.941   1.733
12518TIP3    H259046   4.039   4.929   1.731
12519TIP3   OH259047   4.718   4.457   0.949
12519TIP3    H159048   4.776   4.403   0.895
12519TIP3    H259049   4.703   4.403   1.028
12520TIP3   OH259050   4.218   4.072   0.593
12520TIP3    H159051   4.187   3.979   0.590
12520TIP3    H259052   4.297   4.067   0.537
12521TIP3   OH259053   4.581   4.291   1.190
12521TIP3    H159054   4.498   4.342   1.200
12521TIP3    H259055   4.636   4.325   1.264
12522TIP3   OH259056   4.640   4.913   0.361
12522TIP3    H159057   4.561   4.866   0.328
12522TIP3    H259058   4.620   4.923   0.456
12523TIP3   OH259059   5.356   4.831   1.240
12523TIP3    H159060   5.414   4.879   1.179
12523TIP3    H259061   5.271   4.839   1.193
12524TIP3   OH259062   5.025   4.196   0.180
12524TIP3    H159063   4.931   4.209   0.161
12524TIP3    H259064   5.057   4.282   0.211
12525TIP3   OH259065   4.789   4.937   1.484
12525TIP3    H159066   4.754   4.897   1.564
12525TIP3    H259067   4.765   5.030   1.493
12526TIP3   OH259068   5.095   4.388   0.348
12526TIP3    H159069   5.187   4.370   0.377
12526TIP3    H259070   5.105   4.465   0.290
12527TIP3   OH259071   4.152   4.851   0.939
12527TIP3    H159072   4.221   4.843   0.872
12527TIP3    H259073   4.155   4.764   0.985
12528TIP3   OH259074   4.850   5.060   0.264
12528TIP3    H159075   4.815   5.144   0.300
12528TIP3    H259076   4.776   4.998   0.283
12529TIP3   OH259077   3.851   4.693   1.469
12529TIP3    H159078   3.869   4.647   1.553
12529TIP3    H259079   3.788   4.633   1.422
12530TIP3   OH259080   4.552   4.649   1.686
12530TIP3    H159081   4.520   4.621   1.598
12530TIP3    H259082   4.645   4.618   1.685
12531TIP3   OH259083   5.018   5.181   1.478
12531TIP3    H159084   4.925   5.200   1.455
12531TIP3    H259085   5.016   5.210   1.571
12532TIP3   OH259086   5.587   4.401   0.320
12532TIP3    H159087   5.530   4.367   0.249
12532TIP3    H259088   5.595   4.494   0.289
12533TIP3   OH259089   5.585   4.986   1.600
12533TIP3    H159090   5.496   5.008   1.562
12533TIP3    H259091   5.640   4.982   1.520
12534TIP3   OH259092   5.415   5.284   0.357
12534TIP3    H159093   5.379   5.201   0.391
12534TIP3    H259094   5.445   5.263   0.267
12535TIP3   OH259095   5.135   4.765   1.067
12535TIP3    H159096   5.041   4.742   1.059
12535TIP3    H259097   5.178   4.687   1.027
12536TIP3   OH259098   4.387   5.197   0.678
12536TIP3    H159099   4.438   5.277   0.657
12536TIP3    H259100   4.299   5.221   0.646
12537TIP3   OH259101   3.962   4.684   0.132
12537TIP3    H159102   4.024   4.745   0.175
12537TIP3    H259103   3.875   4.713   0.164
12538TIP3   OH259104   4.530   4.963   0.632
12538TIP3    H159105   4.500   5.056   0.639
12538TIP3    H259106   4.456   4.916   0.675
12539TIP3   OH259107   4.575   5.381   1.269
12539TIP3    H159108   4.619   5.464   1.243
12539TIP3    H259109   4.635   5.349   1.339
12540TIP3   OH259110   4.397   5.464   0.584
12540TIP3    H159111   4.301   5.477   0.596
12540TIP3    H259112   4.433   5.548   0.620
12541TIP3   OH259113   4.930   4.985   1.234
12541TIP3    H159114   4.893   4.964   1.322
12541TIP3    H259115   4.992   4.912   1.217
12542TIP3   OH259116   5.157   5.086   0.145
12542TIP3    H159117   5.188   5.041   0.226
12542TIP3    H259118   5.061   5.071   0.153
12543TIP3   OH259119   5.206   5.441   1.483
12543TIP3    H159120   5.140   5.390   1.433
12543TIP3    H259121   5.227   5.511   1.417
12544TIP3   OH259122   5.606   5.528   0.169
12544TIP3    H159123   5.677   5.590   0.146
12544TIP3    H259124   5.534   5.589   0.195
12545TIP3   OH259125   4.014   4.166   1.422
12545TIP3    H159126   3.923   4.201   1.418
12545TIP3    H259127   4.004   4.082   1.468
12546TIP3   OH259128   5.239   4.951   0.366
12546TIP3    H159129   5.215   4.873   0.420
12546TIP3    H259130   5.334   4.959   0.387
12547TIP3   OH259131   3.977   5.347   1.265
12547TIP3    H159132   4.004   5.253   1.265
12547TIP3    H259133   4.003   5.374   1.354
12548TIP3   OH259134   4.453   5.152   0.234
12548TIP3    H159135   4.475   5.097   0.311
12548TIP3    H259136   4.459   5.244   0.267
12549TIP3   OH259137   4.102   4.875   0.286
12549TIP3    H159138   4.034   4.914   0.344
12549TIP3    H259139   4.156   4.952   0.260
12550TIP3   OH259140   4.887   4.143   1.315
12550TIP3    H159141   4.958   4.149   1.380
12550TIP3    H259142   4.849   4.055   1.334
12551TIP3   OH259143   4.960   4.105   0.426
12551TIP3    H159144   4.988   4.149   0.343
12551TIP3    H259145   5.022   4.144   0.489
12552TIP3   OH259146   4.731   5.318   0.306
12552TIP3    H159147   4.649   5.370   0.315
12552TIP3    H259148   4.785   5.370   0.245
12553TIP3   OH259149   4.684   4.277   0.507
12553TIP3    H159150   4.764   4.332   0.510
12553TIP3    H259151   4.659   4.264   0.600
12554TIP3   OH259152   4.743   4.379   1.422
12554TIP3    H159153   4.748   4.434   1.503
12554TIP3    H259154   4.806   4.307   1.437
12555TIP3   OH259155   4.771   3.983   0.597
12555TIP3    H159156   4.738   4.048   0.661
12555TIP3    H259157   4.840   4.037   0.551
12556TIP3   OH259158   4.466   5.421   0.309
12556TIP3    H159159   4.483   5.504   0.259
12556TIP3    H259160   4.444   5.455   0.398
12557TIP3   OH259161   4.337   4.092   0.269
12557TIP3    H159162   4.330   4.183   0.305
12557TIP3    H259163   4.428   4.069   0.297
12558TIP3   OH259164   5.359   4.166   1.511
12558TIP3    H159165   5.266   4.196   1.498
12558TIP3    H259166   5.389   4.165   1.418
12559TIP3   OH259167   5.219   4.544   0.914
12559TIP3    H159168   5.137   4.500   0.884
12559TIP3    H259169   5.266   4.474   0.965
12560TIP3   OH259170   4.161   5.137   0.172
12560TIP3    H159171   4.226   5.201   0.203
12560TIP3    H259172   4.213   5.091   0.102
12561TIP3   OH259173   3.999   4.404   0.091
12561TIP3    H159174   3.994   4.500   0.103
12561TIP3    H259175   3.911   4.382   0.058
12562TIP3   OH259176   5.326   5.468   1.080
12562TIP3    H159177   5.315   5.538   1.011
12562TIP3    H259178   5.422   5.476   1.097
12563TIP3   OH259179   4.078   3.880   0.958
12563TIP3    H159180   4.054   3.885   0.862
12563TIP3    H259181   4.033   3.798   0.984
12564TIP3   OH259182   3.971   5.274   0.573
12564TIP3    H159183   3.886   5.320   0.571
12564TIP3    H259184   4.021   5.323   0.506
12565TIP3   OH259185   3.894   5.540   1.703
12565TIP3    H159186   3.952   5.516   1.778
12565TIP3    H259187   3.851   5.454   1.684
12566TIP3   OH259188   4.360   5.432   1.864
12566TIP3    H159189   4.435   5.380   1.897
12566TIP3    H259190   4.357   5.402   1.771
12567TIP3   OH259191   4.813   5.395   0.057
12567TIP3    H159192   4.729   5.345   0.057
12567TIP3    H259193   4.856   5.341  -0.008
12568TIP3   OH259194   5.012   5.268   1.737
12568TIP3    H159195   4.980   5.180   1.764
12568TIP3    H259196   5.088   5.281   1.798
12569TIP3   OH259197   5.230   5.361   0.024
12569TIP3    H159198   5.256   5.280   0.072
12569TIP3    H259199   5.306   5.381  -0.031
12570TIP3   OH259200   3.886   4.917   1.801
12570TIP3    H159201   3.901   4.825   1.771
12570TIP3    H259202   3.810   4.943   1.746
12571TIP3   OH259203   4.328   4.957   0.016
12571TIP3    H159204   4.332   4.874   0.064
12571TIP3    H259205   4.386   4.936  -0.060
12572TIP3   OH259206   4.557   4.917   1.740
12572TIP3    H159207   4.521   4.945   1.654
12572TIP3    H259208   4.565   4.819   1.731
12573TIP3   OH259209   5.125   4.902   1.480
12573TIP3    H159210   5.203   4.962   1.471
12573TIP3    H259211   5.054   4.967   1.484
12574TIP3   OH259212   3.971   4.640   1.739
12574TIP3    H159213   4.015   4.554   1.729
12574TIP3    H259214   3.951   4.638   1.834
12575TIP3   OH259215   4.439   4.754   0.244
12575TIP3    H159216   4.390   4.701   0.309
12575TIP3    H259217   4.468   4.685   0.180
12576TIP3   OH259218   4.366   4.536   1.475
12576TIP3    H159219   4.305   4.606   1.503
12576TIP3    H259220   4.403   4.571   1.393
12577TIP3   OH259221   4.547   4.571   0.068
12577TIP3    H159222   4.532   4.559  -0.027
12577TIP3    H259223   4.644   4.582   0.074
12578TIP3   OH259224   4.871   4.789   1.808
12578TIP3    H159225   4.967   4.791   1.800
12578TIP3    H259226   4.854   4.713   1.866
12579TIP3   OH259227   5.463   4.822  16.020
12579TIP3    H159228   5.456   4.770  15.937
12579TIP3    H259229   5.487   4.910  15.990
12580TIP3   OH259230   4.406   4.271   1.583
12580TIP3    H159231   4.417   4.200   1.519
12580TIP3    H259232   4.400   4.352   1.529
12581TIP3   OH259233   4.445   4.110   1.337
12581TIP3    H159234   4.497   4.156   1.267
12581TIP3    H259235   4.356   4.101   1.295
12582TIP3   OH259236   4.601   4.657   1.360
12582TIP3    H159237   4.676   4.641   1.302
12582TIP3    H259238   4.565   4.741   1.329
12583TIP3   OH259239   5.040   4.435   1.859
12583TIP3    H159240   5.062   4.341   1.849
12583TIP3    H259241   5.127   4.478   1.861
12584TIP3   OH259242   5.173   4.713   1.673
12584TIP3    H159243   5.148   4.786   1.612
12584TIP3    H259244   5.269   4.709   1.654
12585TIP3   OH259245   4.242   4.414   1.750
12585TIP3    H159246   4.177   4.341   1.762
12585TIP3    H259247   4.316   4.360   1.716
12586TIP3   OH259248   4.524   3.854   1.378
12586TIP3    H159249   4.509   3.950   1.367
12586TIP3    H259250   4.449   3.818   1.327
12587TIP3   OH259251   4.652   4.287   1.735
12587TIP3    H159252   4.622   4.263   1.826
12587TIP3    H259253   4.572   4.266   1.685
12588TIP3   OH259254   4.923   4.200   1.645
12588TIP3    H159255   4.827   4.205   1.657
12588TIP3    H259256   4.952   4.137   1.712
12589TIP3   OH259257   5.083   4.063   1.839
12589TIP3    H159258   5.076   3.966   1.841
12589TIP3    H259259   5.054   4.092   1.928
12590TIP3   OH259260   4.051   4.186   1.741
12590TIP3    H159261   4.089   4.114   1.689
12590TIP3    H259262   4.057   4.149   1.832
12591TIP3   OH259263   4.545   3.790   1.646
12591TIP3    H159264   4.615   3.721   1.643
12591TIP3    H259265   4.535   3.808   1.551
12592TIP3   OH259266   4.585   3.946   1.854
12592TIP3    H159267   4.565   3.902   1.769
12592TIP3    H259268   4.527   4.026   1.848
12593TIP3   OH259269   4.529   5.643   0.170
12593TIP3    H159270   4.627   5.656   0.181
12593TIP3    H259271   4.510   5.710   0.104
12594TIP3   OH259272   3.887   5.105   0.119
12594TIP3    H159273   3.983   5.115   0.143
12594TIP3    H259274   3.892   5.042   0.047
12595TIP3   OH259275   3.762   5.642   0.619
12595TIP3    H159276   3.691   5.594   0.571
12595TIP3    H259277   3.791   5.576   0.684
12596TIP3   OH259278   3.845   5.454   0.805
12596TIP3    H159279   3.810   5.366   0.824
12596TIP3    H259280   3.867   5.487   0.893
12597TIP3   OH259281   5.598   5.534   1.100
12597TIP3    H159282   5.600   5.551   1.196
12597TIP3    H259283   5.668   5.592   1.069
12598TIP3   OH259284   5.556   5.494   1.394
12598TIP3    H159285   5.508   5.417   1.357
12598TIP3    H259286   5.607   5.449   1.464
12599TIP3   OH259287   5.400   5.067   1.860
12599TIP3    H159288   5.311   5.062   1.898
12599TIP3    H259289   5.438   5.146   1.903
12600TIP3   OH259290   5.532   4.897   0.405
12600TIP3    H159291   5.617   4.938   0.424
12600TIP3    H259292   5.530   4.825   0.472
12601TIP3   OH259293   5.568   4.705   0.592
12601TIP3    H159294   5.494   4.654   0.631
12601TIP3    H259295   5.628   4.720   0.668
12602TIP3   OH259296   5.544   4.976   1.090
12602TIP3    H159297   5.627   4.939   1.055
12602TIP3    H259298   5.558   5.072   1.074
12603TIP3   OH259299   5.398   5.266   1.319
12603TIP3    H159300   5.329   5.300   1.378
12603TIP3    H259301   5.343   5.225   1.248
12604TIP3   OH259302   5.598   4.690   0.232
12604TIP3    H159303   5.541   4.725   0.162
12604TIP3    H259304   5.591   4.760   0.299
12605TIP3   OH259305   5.398   4.416   0.095
12605TIP3    H159306   5.438   4.474   0.029
12605TIP3    H259307   5.414   4.331   0.048
12606TIP3   OH259308   5.350   4.554   0.649
12606TIP3    H159309   5.334   4.458   0.646
12606TIP3    H259310   5.315   4.577   0.736
12607TIP3   OH259311   3.879   4.803   1.050
12607TIP3    H159312   3.866   4.754   0.964
12607TIP3    H259313   3.943   4.743   1.092
12608TIP3   OH259314   5.435   4.750   1.616
12608TIP3    H159315   5.496   4.675   1.632
12608TIP3    H259316   5.494   4.828   1.618
12609TIP3   OH259317   5.585   4.540   1.683
12609TIP3    H159318   5.497   4.499   1.666
12609TIP3    H259319   5.643   4.462   1.675
12610TIP3   OH259320   5.317   4.313   0.498
12610TIP3    H159321   5.347   4.219   0.505
12610TIP3    H259322   5.395   4.352   0.456
12611TIP3   OH259323   5.380   4.366   1.039
12611TIP3    H159324   5.476   4.390   1.037
12611TIP3    H259325   5.360   4.380   1.133
12612TIP3   OH259326   5.387   4.439   1.318
12612TIP3    H159327   5.299   4.468   1.351
12612TIP3    H259328   5.430   4.525   1.295
12613TIP3   OH259329   3.810   4.292   1.668
12613TIP3    H159330   3.905   4.273   1.689
12613TIP3    H259331   3.767   4.210   1.701
12614TIP3   OH259332   5.613   3.843   1.853
12614TIP3    H159333   5.648   3.777   1.790
12614TIP3    H259334   5.626   3.925   1.802
12615TIP3   OH259335   5.381   4.040   0.501
12615TIP3    H159336   5.403   3.994   0.583
12615TIP3    H259337   5.322   3.978   0.453
12616TIP3   OH259338   3.933   4.118   0.952
12616TIP3    H159339   3.979   4.038   0.983
12616TIP3    H259340   3.982   4.190   0.996
12617TIP3   OH259341   3.795   4.378   1.076
12617TIP3    H159342   3.814   4.390   0.981
12617TIP3    H259343   3.800   4.474   1.091
12618TIP3   OH259344   5.566   4.054   1.688
12618TIP3    H159345   5.472   4.080   1.682
12618TIP3    H259346   5.572   3.999   1.607
12619TIP3   OH259347   5.603   4.036   0.187
12619TIP3    H159348   5.602   3.981   0.106
12619TIP3    H259349   5.640   4.117   0.152
12620TIP3   OH259350   3.795   4.046   0.466
12620TIP3    H159351   3.702   4.068   0.451
12620TIP3    H259352   3.840   4.095   0.396
12621TIP3   OH259353   5.271   5.536   0.662
12621TIP3    H159354   5.340   5.511   0.598
12621TIP3    H259355   5.320   5.596   0.723
12622TIP3   OH259356   3.793   3.915   1.297
12622TIP3    H159357   3.725   3.895   1.364
12622TIP3    H259358   3.747   3.981   1.242
12623TIP3   OH259359   4.014   5.233   1.713
12623TIP3    H159360   3.930   5.254   1.669
12623TIP3    H259361   3.987   5.226   1.805
12624TIP3   OH259362   4.305   5.333   1.341
12624TIP3    H159363   4.270   5.418   1.312
12624TIP3    H259364   4.398   5.342   1.309
12625TIP3   OH259365   4.737   5.475   1.632
12625TIP3    H159366   4.754   5.440   1.723
12625TIP3    H259367   4.827   5.505   1.605
12626TIP3   OH259368   4.967   5.602   1.561
12626TIP3    H159369   5.040   5.542   1.537
12626TIP3    H259370   5.005   5.644   1.641
12627TIP3   OH259371   5.467   3.863   1.471
12627TIP3    H159372   5.384   3.893   1.430
12627TIP3    H259373   5.485   3.783   1.418
12628TIP3   OH259374   4.048   5.657   1.341
12628TIP3    H159375   3.975   5.706   1.300
12628TIP3    H259376   4.013   5.635   1.429
12629TIP3   OH259377   4.295   5.615   1.248
12629TIP3    H159378   4.206   5.628   1.287
12629TIP3    H259379   4.288   5.674   1.170
12630TIP3   OH259380   4.765   5.606   1.165
12630TIP3    H159381   4.719   5.661   1.099
12630TIP3    H259382   4.780   5.670   1.238
12631TIP3   OH259383   4.996   5.490   1.264
12631TIP3    H159384   4.908   5.514   1.231
12631TIP3    H259385   5.041   5.575   1.255
12632TIP3   OH259386   5.254   5.647   1.289
12632TIP3    H159387   5.244   5.742   1.265
12632TIP3    H259388   5.274   5.610   1.201
12633TIP3   OH259389   3.991   5.522   1.034
12633TIP3    H159390   3.986   5.477   1.121
12633TIP3    H259391   4.073   5.486   0.995
12634TIP3   OH259392   4.201   5.393   0.900
12634TIP3    H159393   4.183   5.300   0.921
12634TIP3    H259394   4.287   5.407   0.946
12635TIP3   OH259395   4.460   5.441   0.987
12635TIP3    H159396   4.478   5.349   0.960
12635TIP3    H259397   4.465   5.435   1.083
12636TIP3   OH259398   4.807   4.007   0.901
12636TIP3    H159399   4.740   3.942   0.928
12636TIP3    H259400   4.863   3.954   0.842
12637TIP3   OH259401   5.321   3.813   0.910
12637TIP3    H159402   5.382   3.871   0.858
12637TIP3    H259403   5.233   3.848   0.885
12638TIP3   OH259404   5.489   3.933   0.740
12638TIP3    H159405   5.557   3.878   0.694
12638TIP3    H259406   5.536   4.019   0.746
12639TIP3   OH259407   4.042   3.869   0.686
12639TIP3    H159408   3.964   3.848   0.632
12639TIP3    H259409   4.092   3.785   0.681
12640TIP3   OH259410   3.920   3.845   0.261
12640TIP3    H159411   3.969   3.909   0.204
12640TIP3    H259412   3.863   3.904   0.313
12641TIP3   OH259413   4.493   3.861   0.664
12641TIP3    H159414   4.583   3.899   0.659
12641TIP3    H259415   4.487   3.840   0.757
12642TIP3   OH259416   5.060   3.864   0.828
12642TIP3    H159417   5.059   3.874   0.732
12642TIP3    H259418   5.024   3.773   0.841
12643TIP3   OH259419   5.189   3.867   0.398
12643TIP3    H159420   5.117   3.928   0.375
12643TIP3    H259421   5.144   3.781   0.412
12644TIP3   OH259422   3.914   5.440   0.356
12644TIP3    H159423   3.845   5.440   0.287
12644TIP3    H259424   3.914   5.535   0.378
12645TIP3   OH259425   4.106   4.033   0.111
12645TIP3    H159426   4.159   3.977   0.055
12645TIP3    H259427   4.171   4.071   0.172
12646TIP3   OH259428   4.608   4.064   0.350
12646TIP3    H159429   4.632   4.006   0.424
12646TIP3    H259430   4.611   4.150   0.398
12647TIP3   OH259431   4.796   5.593   0.201
12647TIP3    H159432   4.891   5.599   0.178
12647TIP3    H259433   4.779   5.528   0.128
12648TIP3   OH259434   5.472   5.521   0.464
12648TIP3    H159435   5.449   5.445   0.406
12648TIP3    H259436   5.462   5.597   0.402
12649TIP3   OH259437   4.033   3.922   1.629
12649TIP3    H159438   3.997   3.844   1.676
12649TIP3    H259439   4.125   3.921   1.668
12650TIP3   OH259440   4.233   3.859   1.789
12650TIP3    H159441   4.324   3.828   1.773
12650TIP3    H259442   4.196   3.782   1.836
12651TIP3   OH259443   4.097   5.537   0.054
12651TIP3    H159444   4.067   5.564   0.142
12651TIP3    H259445   4.172   5.481   0.073
12652TIP3   OH259446   5.073   3.791   1.809
12652TIP3    H159447   5.083   3.744   1.894
12652TIP3    H259448   5.165   3.788   1.774
12653TIP3   OH259449   5.394   5.395   1.674
12653TIP3    H159450   5.314   5.380   1.621
12653TIP3    H259451   5.383   5.490   1.696
12654TIP3   OH259452   6.837   4.782   0.674
12654TIP3    H159453   6.839   4.880   0.667
12654TIP3    H259454   6.767   4.759   0.611
12655TIP3   OH259455   6.725   4.710   1.022
12655TIP3    H159456   6.722   4.644   1.092
12655TIP3    H259457   6.692   4.660   0.945
12656TIP3   OH259458   5.960   4.675   1.177
12656TIP3    H159459   5.968   4.608   1.249
12656TIP3    H259460   6.034   4.733   1.199
12657TIP3   OH259461   7.094   5.002   0.850
12657TIP3    H159462   7.052   4.931   0.899
12657TIP3    H259463   7.098   5.073   0.917
12658TIP3   OH259464   6.053   5.120   1.030
12658TIP3    H159465   6.020   5.034   0.995
12658TIP3    H259466   6.148   5.101   1.034
12659TIP3   OH259467   5.717   4.478   0.575
12659TIP3    H159468   5.672   4.565   0.570
12659TIP3    H259469   5.660   4.424   0.519
12660TIP3   OH259470   5.787   4.699   0.788
12660TIP3    H159471   5.813   4.618   0.836
12660TIP3    H259472   5.859   4.709   0.724
12661TIP3   OH259473   6.808   5.519   0.873
12661TIP3    H159474   6.871   5.448   0.845
12661TIP3    H259475   6.786   5.488   0.961
12662TIP3   OH259476   6.562   4.950   1.066
12662TIP3    H159477   6.596   4.885   1.002
12662TIP3    H259478   6.641   4.965   1.121
12663TIP3   OH259479   6.878   4.395   1.098
12663TIP3    H159480   6.895   4.300   1.098
12663TIP3    H259481   6.868   4.410   1.002
12664TIP3   OH259482   6.191   4.204   0.822
12664TIP3    H159483   6.200   4.288   0.775
12664TIP3    H259484   6.150   4.147   0.754
12665TIP3   OH259485   6.965   4.216   0.660
12665TIP3    H159486   7.032   4.182   0.725
12665TIP3    H259487   7.020   4.268   0.602
12666TIP3   OH259488   5.853   4.445   0.896
12666TIP3    H159489   5.921   4.389   0.940
12666TIP3    H259490   5.862   4.414   0.804
12667TIP3   OH259491   6.370   4.601   0.824
12667TIP3    H159492   6.435   4.543   0.867
12667TIP3    H259493   6.316   4.534   0.777
12668TIP3   OH259494   6.080   4.094   1.227
12668TIP3    H159495   6.053   4.150   1.151
12668TIP3    H259496   6.011   4.118   1.294
12669TIP3   OH259497   6.809   5.042   0.581
12669TIP3    H159498   6.783   5.014   0.492
12669TIP3    H259499   6.780   5.135   0.586
12670TIP3   OH259500   6.333   4.859   1.252
12670TIP3    H159501   6.261   4.923   1.270
12670TIP3    H259502   6.403   4.919   1.223
12671TIP3   OH259503   7.130   4.144   0.864
12671TIP3    H159504   7.118   4.066   0.916
12671TIP3    H259505   7.202   4.193   0.909
12672TIP3   OH259506   6.036   4.281   1.027
12672TIP3    H159507   6.099   4.348   1.060
12672TIP3    H259508   6.089   4.238   0.956
12673TIP3   OH259509   6.176   5.058   1.333
12673TIP3    H159510   6.172   5.149   1.298
12673TIP3    H259511   6.088   5.051   1.377
12674TIP3   OH259512   5.784   5.022   0.412
12674TIP3    H159513   5.760   5.052   0.322
12674TIP3    H259514   5.791   5.106   0.461
12675TIP3   OH259515   7.139   5.183   1.091
12675TIP3    H159516   7.044   5.196   1.101
12675TIP3    H259517   7.172   5.273   1.069
12676TIP3   OH259518   7.171   4.022   1.214
12676TIP3    H159519   7.096   4.084   1.220
12676TIP3    H259520   7.239   4.072   1.170
12677TIP3   OH259521   6.477   3.827   0.972
12677TIP3    H159522   6.464   3.730   0.966
12677TIP3    H259523   6.389   3.858   1.002
12678TIP3   OH259524   6.969   5.363   0.747
12678TIP3    H159525   7.016   5.293   0.697
12678TIP3    H259526   7.011   5.443   0.708
12679TIP3   OH259527   7.091   5.157   0.595
12679TIP3    H159528   7.063   5.086   0.536
12679TIP3    H259529   7.096   5.109   0.681
12680TIP3   OH259530   7.236   5.025   1.453
12680TIP3    H159531   7.267   4.959   1.388
12680TIP3    H259532   7.275   5.104   1.412
12681TIP3   OH259533   6.704   4.707   0.422
12681TIP3    H159534   6.634   4.764   0.385
12681TIP3    H259535   6.775   4.715   0.355
12682TIP3   OH259536   6.707   4.555   0.132
12682TIP3    H159537   6.783   4.560   0.192
12682TIP3    H259538   6.741   4.494   0.066
12683TIP3   OH259539   7.047   4.730   0.515
12683TIP3    H159540   6.974   4.754   0.577
12683TIP3    H259541   7.094   4.661   0.568
12684TIP3   OH259542   7.037   4.543   1.426
12684TIP3    H159543   7.042   4.623   1.480
12684TIP3    H259544   6.977   4.575   1.356
12685TIP3   OH259545   6.210   4.794   0.707
12685TIP3    H159546   6.178   4.755   0.623
12685TIP3    H259547   6.271   4.725   0.741
12686TIP3   OH259548   6.343   5.134   0.975
12686TIP3    H159549   6.340   5.079   0.896
12686TIP3    H259550   6.421   5.097   1.022
12687TIP3   OH259551   6.244   4.668   1.072
12687TIP3    H159552   6.301   4.680   0.993
12687TIP3    H259553   6.281   4.735   1.134
12688TIP3   OH259554   6.880   5.225   1.142
12688TIP3    H159555   6.856   5.288   1.210
12688TIP3    H259556   6.859   5.139   1.186
12689TIP3   OH259557   6.338   5.111   1.542
12689TIP3    H159558   6.300   5.187   1.590
12689TIP3    H259559   6.270   5.092   1.473
12690TIP3   OH259560   6.937   4.644   0.283
12690TIP3    H159561   6.991   4.665   0.363
12690TIP3    H259562   6.976   4.699   0.213
12691TIP3   OH259563   6.031   4.728   1.460
12691TIP3    H159564   6.036   4.794   1.532
12691TIP3    H259565   5.938   4.738   1.435
12692TIP3   OH259566   6.706   5.319   0.630
12692TIP3    H159567   6.751   5.350   0.710
12692TIP3    H259568   6.651   5.394   0.605
12693TIP3   OH259569   6.162   5.316   1.618
12693TIP3    H159570   6.158   5.304   1.522
12693TIP3    H259571   6.068   5.303   1.644
12694TIP3   OH259572   7.284   3.814   0.263
12694TIP3    H159573   7.198   3.839   0.300
12694TIP3    H259574   7.319   3.896   0.227
12695TIP3   OH259575   6.108   4.697   0.468
12695TIP3    H159576   6.079   4.775   0.416
12695TIP3    H259577   6.042   4.631   0.447
12696TIP3   OH259578   5.717   4.939   1.355
12696TIP3    H159579   5.670   4.931   1.270
12696TIP3    H259580   5.722   4.844   1.379
12697TIP3   OH259581   5.693   5.213   1.035
12697TIP3    H159582   5.788   5.201   1.034
12697TIP3    H259583   5.684   5.294   1.088
12698TIP3   OH259584   6.612   5.237   1.491
12698TIP3    H159585   6.619   5.321   1.541
12698TIP3    H259586   6.524   5.202   1.516
12699TIP3   OH259587   6.654   5.612   0.471
12699TIP3    H159588   6.646   5.604   0.374
12699TIP3    H259589   6.659   5.708   0.486
12700TIP3   OH259590   6.020   5.498   0.652
12700TIP3    H159591   6.034   5.457   0.740
12700TIP3    H259592   5.934   5.458   0.628
12701TIP3   OH259593   6.961   5.532   0.169
12701TIP3    H159594   7.004   5.455   0.125
12701TIP3    H259595   6.964   5.505   0.263
12702TIP3   OH259596   6.931   5.526   0.447
12702TIP3    H159597   6.835   5.533   0.465
12702TIP3    H259598   6.957   5.453   0.505
12703TIP3   OH259599   7.204   4.439   1.657
12703TIP3    H159600   7.184   4.479   1.572
12703TIP3    H259601   7.236   4.349   1.627
12704TIP3   OH259602   5.944   5.070   1.452
12704TIP3    H159603   5.967   5.033   1.540
12704TIP3    H259604   5.857   5.030   1.430
12705TIP3   OH259605   6.211   3.917   1.049
12705TIP3    H159606   6.121   3.906   1.011
12705TIP3    H259607   6.200   4.001   1.095
12706TIP3   OH259608   6.675   3.886   1.385
12706TIP3    H159609   6.715   3.844   1.463
12706TIP3    H259610   6.578   3.871   1.399
12707TIP3   OH259611   7.004   4.267   1.473
12707TIP3    H159612   6.951   4.249   1.554
12707TIP3    H259613   6.988   4.360   1.451
12708TIP3   OH259614   7.093   4.757   0.063
12708TIP3    H159615   7.089   4.736  -0.033
12708TIP3    H259616   7.177   4.799   0.070
12709TIP3   OH259617   6.639   4.141   0.117
12709TIP3    H159618   6.611   4.137   0.210
12709TIP3    H259619   6.615   4.053   0.088
12710TIP3   OH259620   6.221   4.413   1.169
12710TIP3    H159621   6.149   4.412   1.235
12710TIP3    H259622   6.218   4.506   1.136
12711TIP3   OH259623   6.217   4.430   0.657
12711TIP3    H159624   6.125   4.401   0.645
12711TIP3    H259625   6.257   4.397   0.574
12712TIP3   OH259626   6.771   4.476   0.534
12712TIP3    H159627   6.729   4.559   0.502
12712TIP3    H259628   6.841   4.461   0.468
12713TIP3   OH259629   6.677   4.497   1.681
12713TIP3    H159630   6.624   4.421   1.712
12713TIP3    H259631   6.761   4.484   1.728
12714TIP3   OH259632   6.873   4.426   0.820
12714TIP3    H159633   6.848   4.481   0.745
12714TIP3    H259634   6.884   4.340   0.773
12715TIP3   OH259635   5.986   4.442   1.343
12715TIP3    H159636   5.990   4.482   1.431
12715TIP3    H259637   5.940   4.358   1.360
12716TIP3   OH259638   6.342   4.207   0.060
12716TIP3    H159639   6.288   4.141   0.107
12716TIP3    H259640   6.282   4.236  -0.011
12717TIP3   OH259641   5.650   4.153   0.737
12717TIP3    H159642   5.717   4.149   0.808
12717TIP3    H259643   5.696   4.113   0.660
12718TIP3   OH259644   5.783   4.230   0.280
12718TIP3    H159645   5.828   4.287   0.215
12718TIP3    H259646   5.707   4.285   0.305
12719TIP3   OH259647   6.794   4.585   1.278
12719TIP3    H159648   6.831   4.517   1.217
12719TIP3    H259649   6.749   4.531   1.345
12720TIP3   OH259650   6.474   4.180   0.760
12720TIP3    H159651   6.380   4.183   0.790
12720TIP3    H259652   6.523   4.168   0.842
12721TIP3   OH259653   5.955   4.338   0.646
12721TIP3    H159654   5.866   4.351   0.607
12721TIP3    H259655   5.984   4.254   0.606
12722TIP3   OH259656   6.319   4.343   0.410
12722TIP3    H159657   6.415   4.353   0.427
12722TIP3    H259658   6.297   4.408   0.342
12723TIP3   OH259659   6.915   4.103   1.084
12723TIP3    H159660   6.846   4.111   1.154
12723TIP3    H259661   6.863   4.083   1.004
12724TIP3   OH259662   6.189   4.459   0.168
12724TIP3    H159663   6.133   4.423   0.097
12724TIP3    H259664   6.272   4.479   0.121
12725TIP3   OH259665   7.233   5.670   1.717
12725TIP3    H159666   7.263   5.707   1.632
12725TIP3    H259667   7.306   5.700   1.773
12726TIP3   OH259668   6.003   4.916   1.673
12726TIP3    H159669   6.075   4.941   1.733
12726TIP3    H259670   5.925   4.929   1.731
12727TIP3   OH259671   6.603   4.457   0.949
12727TIP3    H159672   6.663   4.403   0.896
12727TIP3    H259673   6.589   4.403   1.028
12728TIP3   OH259674   6.104   4.072   0.593
12728TIP3    H159675   6.073   3.979   0.590
12728TIP3    H259676   6.183   4.067   0.537
12729TIP3   OH259677   6.467   4.291   1.190
12729TIP3    H159678   6.384   4.342   1.200
12729TIP3    H259679   6.521   4.325   1.264
12730TIP3   OH259680   6.525   4.913   0.361
12730TIP3    H159681   6.446   4.866   0.328
12730TIP3    H259682   6.505   4.923   0.456
12731TIP3   OH259683   7.231   4.833   1.240
12731TIP3    H159684   7.295   4.864   1.173
12731TIP3    H259685   7.149   4.838   1.188
12732TIP3   OH259686   6.911   4.196   0.177
12732TIP3    H159687   6.816   4.208   0.161
12732TIP3    H259688   6.940   4.283   0.211
12733TIP3   OH259689   6.674   4.937   1.483
12733TIP3    H159690   6.640   4.897   1.564
12733TIP3    H259691   6.652   5.030   1.493
12734TIP3   OH259692   6.982   4.386   0.341
12734TIP3    H159693   7.070   4.372   0.380
12734TIP3    H259694   6.988   4.469   0.292
12735TIP3   OH259695   6.036   4.850   0.939
12735TIP3    H159696   6.106   4.844   0.872
12735TIP3    H259697   6.042   4.765   0.985
12736TIP3   OH259698   6.736   5.060   0.264
12736TIP3    H159699   6.701   5.144   0.300
12736TIP3    H259700   6.662   4.998   0.283
12737TIP3   OH259701   5.735   4.693   1.467
12737TIP3    H159702   5.754   4.649   1.551
12737TIP3    H259703   5.673   4.630   1.423
12738TIP3   OH259704   6.436   4.648   1.686
12738TIP3    H159705   6.406   4.621   1.598
12738TIP3    H259706   6.530   4.618   1.685
12739TIP3   OH259707   6.901   5.180   1.477
12739TIP3    H159708   6.809   5.200   1.455
12739TIP3    H259709   6.902   5.210   1.570
12740TIP3   OH259710   7.292   5.283   0.358
12740TIP3    H159711   7.261   5.199   0.393
12740TIP3    H259712   7.329   5.264   0.271
12741TIP3   OH259713   7.016   4.763   1.068
12741TIP3    H159714   6.922   4.741   1.057
12741TIP3    H259715   7.063   4.688   1.027
12742TIP3   OH259716   6.273   5.197   0.678
12742TIP3    H159717   6.324   5.277   0.657
12742TIP3    H259718   6.185   5.221   0.646
12743TIP3   OH259719   5.847   4.684   0.132
12743TIP3    H159720   5.909   4.745   0.175
12743TIP3    H259721   5.760   4.713   0.164
12744TIP3   OH259722   6.416   4.963   0.632
12744TIP3    H159723   6.386   5.056   0.639
12744TIP3    H259724   6.342   4.916   0.675
12745TIP3   OH259725   6.461   5.381   1.269
12745TIP3    H159726   6.505   5.464   1.242
12745TIP3    H259727   6.521   5.349   1.339
12746TIP3   OH259728   6.284   5.464   0.585
12746TIP3    H159729   6.187   5.477   0.596
12746TIP3    H259730   6.319   5.548   0.621
12747TIP3   OH259731   6.816   4.985   1.234
12747TIP3    H159732   6.779   4.964   1.322
12747TIP3    H259733   6.878   4.912   1.217
12748TIP3   OH259734   7.043   5.085   0.145
12748TIP3    H159735   7.073   5.041   0.226
12748TIP3    H259736   6.947   5.072   0.153
12749TIP3   OH259737   7.089   5.444   1.483
12749TIP3    H159738   7.025   5.390   1.433
12749TIP3    H259739   7.114   5.511   1.416
12750TIP3   OH259740   5.900   4.167   1.421
12750TIP3    H159741   5.809   4.201   1.418
12750TIP3    H259742   5.889   4.081   1.467
12751TIP3   OH259743   7.125   4.950   0.366
12751TIP3    H159744   7.099   4.873   0.421
12751TIP3    H259745   7.219   4.959   0.389
12752TIP3   OH259746   5.862   5.346   1.264
12752TIP3    H159747   5.889   5.253   1.265
12752TIP3    H259748   5.888   5.374   1.353
12753TIP3   OH259749   6.339   5.152   0.234
12753TIP3    H159750   6.361   5.097   0.311
12753TIP3    H259751   6.345   5.244   0.267
12754TIP3   OH259752   5.988   4.875   0.286
12754TIP3    H159753   5.919   4.914   0.344
12754TIP3    H259754   6.041   4.952   0.260
12755TIP3   OH259755   6.772   4.142   1.315
12755TIP3    H159756   6.844   4.149   1.379
12755TIP3    H259757   6.734   4.054   1.334
12756TIP3   OH259758   6.849   4.103   0.424
12756TIP3    H159759   6.874   4.151   0.343
12756TIP3    H259760   6.906   4.144   0.490
12757TIP3   OH259761   6.616   5.318   0.306
12757TIP3    H159762   6.534   5.370   0.315
12757TIP3    H259763   6.671   5.370   0.245
12758TIP3   OH259764   6.570   4.276   0.507
12758TIP3    H159765   6.650   4.332   0.510
12758TIP3    H259766   6.545   4.264   0.600
12759TIP3   OH259767   6.625   4.377   1.425
12759TIP3    H159768   6.635   4.435   1.504
12759TIP3    H259769   6.692   4.308   1.436
12760TIP3   OH259770   6.655   3.983   0.596
12760TIP3    H159771   6.625   4.047   0.662
12760TIP3    H259772   6.724   4.037   0.551
12761TIP3   OH259773   6.351   5.421   0.309
12761TIP3    H159774   6.368   5.504   0.259
12761TIP3    H259775   6.330   5.455   0.398
12762TIP3   OH259776   6.223   4.092   0.269
12762TIP3    H159777   6.216   4.183   0.305
12762TIP3    H259778   6.313   4.069   0.297
12763TIP3   OH259779   7.242   4.160   1.503
12763TIP3    H159780   7.150   4.197   1.499
12763TIP3    H259781   7.275   4.171   1.414
12764TIP3   OH259782   7.106   4.545   0.917
12764TIP3    H159783   7.024   4.502   0.885
12764TIP3    H259784   7.147   4.472   0.966
12765TIP3   OH259785   6.047   5.137   0.172
12765TIP3    H159786   6.112   5.201   0.203
12765TIP3    H259787   6.099   5.091   0.102
12766TIP3   OH259788   5.884   4.404   0.090
12766TIP3    H159789   5.880   4.500   0.103
12766TIP3    H259790   5.796   4.381   0.058
12767TIP3   OH259791   7.215   5.469   1.080
12767TIP3    H159792   7.199   5.538   1.013
12767TIP3    H259793   7.309   5.479   1.100
12768TIP3   OH259794   5.962   3.882   0.958
12768TIP3    H159795   5.940   3.885   0.862
12768TIP3    H259796   5.919   3.798   0.985
12769TIP3   OH259797   5.857   5.274   0.573
12769TIP3    H159798   5.772   5.320   0.571
12769TIP3    H259799   5.906   5.323   0.506
12770TIP3   OH259800   5.779   5.539   1.703
12770TIP3    H159801   5.838   5.517   1.778
12770TIP3    H259802   5.736   5.453   1.684
12771TIP3   OH259803   6.244   5.430   1.865
12771TIP3    H159804   6.321   5.381   1.897
12771TIP3    H259805   6.242   5.404   1.770
12772TIP3   OH259806   6.699   5.395   0.057
12772TIP3    H159807   6.615   5.345   0.057
12772TIP3    H259808   6.742   5.341  -0.008
12773TIP3   OH259809   6.899   5.268   1.738
12773TIP3    H159810   6.867   5.180   1.765
12773TIP3    H259811   6.974   5.280   1.799
12774TIP3   OH259812   7.112   5.358   0.024
12774TIP3    H159813   7.140   5.279   0.072
12774TIP3    H259814   7.189   5.385  -0.028
12775TIP3   OH259815   5.771   4.917   1.801
12775TIP3    H159816   5.787   4.826   1.771
12775TIP3    H259817   5.695   4.943   1.746
12776TIP3   OH259818   6.213   4.957   0.016
12776TIP3    H159819   6.218   4.874   0.064
12776TIP3    H259820   6.271   4.936  -0.060
12777TIP3   OH259821   6.441   4.915   1.741
12777TIP3    H159822   6.407   4.944   1.654
12777TIP3    H259823   6.451   4.818   1.731
12778TIP3   OH259824   7.010   4.900   1.477
12778TIP3    H159825   7.087   4.961   1.470
12778TIP3    H259826   6.940   4.966   1.484
12779TIP3   OH259827   5.860   4.639   1.740
12779TIP3    H159828   5.901   4.552   1.730
12779TIP3    H259829   5.835   4.639   1.834
12780TIP3   OH259830   6.325   4.754   0.244
12780TIP3    H159831   6.276   4.701   0.309
12780TIP3    H259832   6.354   4.685   0.180
12781TIP3   OH259833   6.251   4.535   1.477
12781TIP3    H159834   6.191   4.606   1.503
12781TIP3    H259835   6.289   4.571   1.395
12782TIP3   OH259836   6.432   4.571   0.068
12782TIP3    H159837   6.418   4.559  -0.027
12782TIP3    H259838   6.530   4.582   0.074
12783TIP3   OH259839   6.754   4.789   1.808
12783TIP3    H159840   6.851   4.791   1.799
12783TIP3    H259841   6.740   4.713   1.866
12784TIP3   OH259842   6.290   4.272   1.584
12784TIP3    H159843   6.302   4.200   1.519
12784TIP3    H259844   6.287   4.352   1.528
12785TIP3   OH259845   6.330   4.110   1.337
12785TIP3    H159846   6.382   4.156   1.267
12785TIP3    H259847   6.242   4.101   1.295
12786TIP3   OH259848   6.485   4.656   1.361
12786TIP3    H159849   6.561   4.640   1.303
12786TIP3    H259850   6.450   4.741   1.329
12787TIP3   OH259851   6.925   4.435   1.859
12787TIP3    H159852   6.949   4.342   1.848
12787TIP3    H259853   7.013   4.478   1.859
12788TIP3   OH259854   7.055   4.713   1.671
12788TIP3    H159855   7.033   4.787   1.611
12788TIP3    H259856   7.152   4.709   1.655
12789TIP3   OH259857   6.136   4.396   1.775
12789TIP3    H159858   6.059   4.339   1.756
12789TIP3    H259859   6.203   4.360   1.713
12790TIP3   OH259860   6.410   3.854   1.377
12790TIP3    H159861   6.394   3.950   1.367
12790TIP3    H259862   6.334   3.818   1.327
12791TIP3   OH259863   6.537   4.287   1.737
12791TIP3    H159864   6.507   4.264   1.827
12791TIP3    H259865   6.458   4.266   1.684
12792TIP3   OH259866   6.807   4.200   1.645
12792TIP3    H159867   6.711   4.205   1.658
12792TIP3    H259868   6.837   4.137   1.712
12793TIP3   OH259869   6.974   4.063   1.841
12793TIP3    H159870   6.960   3.966   1.841
12793TIP3    H259871   6.940   4.093   1.928
12794TIP3   OH259872   5.946   4.189   1.748
12794TIP3    H159873   5.971   4.116   1.688
12794TIP3    H259874   5.938   4.143   1.834
12795TIP3   OH259875   6.431   3.790   1.647
12795TIP3    H159876   6.501   3.721   1.643
12795TIP3    H259877   6.421   3.809   1.551
12796TIP3   OH259878   6.468   3.954   1.855
12796TIP3    H159879   6.451   3.904   1.771
12796TIP3    H259880   6.407   4.030   1.846
12797TIP3   OH259881   6.415   5.643   0.170
12797TIP3    H159882   6.512   5.656   0.181
12797TIP3    H259883   6.396   5.710   0.104
12798TIP3   OH259884   5.773   5.105   0.119
12798TIP3    H159885   5.868   5.115   0.143
12798TIP3    H259886   5.778   5.042   0.047
12799TIP3   OH259887   5.649   5.642   0.618
12799TIP3    H159888   5.576   5.595   0.572
12799TIP3    H259889   5.675   5.576   0.685
12800TIP3   OH259890   5.730   5.454   0.805
12800TIP3    H159891   5.695   5.366   0.824
12800TIP3    H259892   5.753   5.487   0.893
12801TIP3   OH259893   7.269   5.076   1.849
12801TIP3    H159894   7.191   5.060   1.903
12801TIP3    H259895   7.321   5.140   1.900
12802TIP3   OH259896   7.282   5.261   1.322
12802TIP3    H159897   7.215   5.302   1.379
12802TIP3    H259898   7.229   5.224   1.248
12803TIP3   OH259899   7.312   4.411   0.088
12803TIP3    H159900   7.328   4.479   0.019
12803TIP3    H259901   7.296   4.331   0.040
12804TIP3   OH259902   7.203   4.560   0.649
12804TIP3    H159903   7.217   4.464   0.652
12804TIP3    H259904   7.197   4.581   0.744
12805TIP3   OH259905   5.736   4.762   1.054
12805TIP3    H159906   5.755   4.753   0.958
12805TIP3    H259907   5.825   4.746   1.091
12806TIP3   OH259908  -0.031   4.754   1.643
12806TIP3    H159909   0.028   4.678   1.641
12806TIP3    H259910   0.028   4.826   1.615
12807TIP3   OH259911   7.201   4.311   0.487
12807TIP3    H159912   7.230   4.221   0.514
12807TIP3    H259913   7.281   4.348   0.451
12808TIP3   OH259914   7.229   4.315   1.031
12808TIP3    H159915   7.323   4.336   1.018
12808TIP3    H259916   7.231   4.368   1.114
12809TIP3   OH259917   7.270   4.439   1.323
12809TIP3    H159918   7.183   4.469   1.351
12809TIP3    H259919   7.312   4.520   1.291
12810TIP3   OH259920   5.697   4.291   1.668
12810TIP3    H159921   5.791   4.273   1.689
12810TIP3    H259922   5.652   4.210   1.700
12811TIP3   OH259923   7.191   4.020   0.552
12811TIP3    H159924   7.280   3.993   0.582
12811TIP3    H259925   7.195   3.972   0.465
12812TIP3   OH259926   5.817   4.121   0.954
12812TIP3    H159927   5.864   4.039   0.982
12812TIP3    H259928   5.870   4.191   0.995
12813TIP3   OH259929   5.646   4.420   1.060
12813TIP3    H159930   5.702   4.397   0.982
12813TIP3    H259931   5.690   4.502   1.086
12814TIP3   OH259932   5.682   4.049   0.469
12814TIP3    H159933   5.589   4.065   0.449
12814TIP3    H259934   5.724   4.094   0.394
12815TIP3   OH259935   7.145   5.530   0.667
12815TIP3    H159936   7.211   5.500   0.604
12815TIP3    H259937   7.200   5.588   0.724
12816TIP3   OH259938   5.678   3.915   1.297
12816TIP3    H159939   5.610   3.894   1.364
12816TIP3    H259940   5.632   3.981   1.242
12817TIP3   OH259941   5.900   5.233   1.713
12817TIP3    H159942   5.816   5.254   1.669
12817TIP3    H259943   5.873   5.227   1.805
12818TIP3   OH259944   6.191   5.332   1.340
12818TIP3    H159945   6.155   5.418   1.312
12818TIP3    H259946   6.283   5.342   1.309
12819TIP3   OH259947   6.623   5.475   1.632
12819TIP3    H159948   6.639   5.440   1.723
12819TIP3    H259949   6.712   5.505   1.605
12820TIP3   OH259950   6.855   5.602   1.561
12820TIP3    H159951   6.927   5.542   1.538
12820TIP3    H259952   6.891   5.644   1.642
12821TIP3   OH259953   5.934   5.657   1.341
12821TIP3    H159954   5.860   5.706   1.300
12821TIP3    H259955   5.900   5.636   1.430
12822TIP3   OH259956   6.181   5.615   1.248
12822TIP3    H159957   6.091   5.628   1.287
12822TIP3    H259958   6.174   5.674   1.170
12823TIP3   OH259959   6.651   5.606   1.164
12823TIP3    H159960   6.604   5.661   1.099
12823TIP3    H259961   6.665   5.670   1.238
12824TIP3   OH259962   6.883   5.489   1.263
12824TIP3    H159963   6.794   5.514   1.231
12824TIP3    H259964   6.926   5.576   1.256
12825TIP3   OH259965   7.138   5.649   1.290
12825TIP3    H159966   7.128   5.744   1.266
12825TIP3    H259967   7.162   5.610   1.205
12826TIP3   OH259968   5.877   5.522   1.034
12826TIP3    H159969   5.871   5.477   1.121
12826TIP3    H259970   5.959   5.486   0.995
12827TIP3   OH259971   6.087   5.393   0.900
12827TIP3    H159972   6.069   5.300   0.921
12827TIP3    H259973   6.172   5.407   0.946
12828TIP3   OH259974   6.343   5.442   0.986
12828TIP3    H159975   6.363   5.350   0.960
12828TIP3    H259976   6.351   5.435   1.083
12829TIP3   OH259977   6.693   4.007   0.900
12829TIP3    H159978   6.625   3.942   0.927
12829TIP3    H259979   6.749   3.955   0.841
12830TIP3   OH259980   7.210   3.816   0.915
12830TIP3    H159981   7.262   3.873   0.857
12830TIP3    H259982   7.119   3.845   0.888
12831TIP3   OH259983   5.929   3.870   0.685
12831TIP3    H159984   5.849   3.848   0.632
12831TIP3    H259985   5.977   3.785   0.681
12832TIP3   OH259986   5.810   3.845   0.263
12832TIP3    H159987   5.853   3.909   0.203
12832TIP3    H259988   5.746   3.902   0.311
12833TIP3   OH259989   6.379   3.861   0.664
12833TIP3    H159990   6.469   3.899   0.659
12833TIP3    H259991   6.372   3.840   0.757
12834TIP3   OH259992   6.950   3.862   0.828
12834TIP3    H159993   6.945   3.875   0.732
12834TIP3    H259994   6.910   3.773   0.840
12835TIP3   OH259995   7.070   3.863   0.388
12835TIP3    H159996   6.999   3.928   0.379
12835TIP3    H259997   7.026   3.779   0.414
12836TIP3   OH259998   5.800   5.440   0.356
12836TIP3    H159999   5.731   5.440   0.287
12836TIP3    H260000   5.799   5.535   0.378
12837TIP3   OH260001   5.992   4.033   0.111
12837TIP3    H160002   6.045   3.977   0.055
12837TIP3    H260003   6.057   4.071   0.173
12838TIP3   OH260004   6.494   4.064   0.350
12838TIP3    H160005   6.518   4.006   0.424
12838TIP3    H260006   6.497   4.150   0.398
12839TIP3   OH260007   6.682   5.593   0.201
12839TIP3    H160008   6.777   5.599   0.178
12839TIP3    H260009   6.664   5.528   0.128
12840TIP3   OH260010   5.919   3.923   1.631
12840TIP3    H160011   5.882   3.843   1.675
12840TIP3    H260012   6.011   3.920   1.667
12841TIP3   OH260013   6.119   3.860   1.792
12841TIP3    H160014   6.209   3.827   1.772
12841TIP3    H260015   6.081   3.780   1.835
12842TIP3   OH260016   5.983   5.537   0.054
12842TIP3    H160017   5.953   5.564   0.142
12842TIP3    H260018   6.058   5.481   0.073
12843TIP3   OH260019   6.959   3.792   1.808
12843TIP3    H160020   6.968   3.744   1.893
12843TIP3    H260021   7.050   3.788   1.772
12844TIP3   OH260022   7.272   5.391   1.682
12844TIP3    H160023   7.199   5.379   1.618
12844TIP3    H260024   7.267   5.489   1.696
12845TIP3   OH260025   1.180   6.667   0.674
12845TIP3    H160026   1.182   6.766   0.667
12845TIP3    H260027   1.109   6.644   0.611
12846TIP3   OH260028   1.067   6.595   1.022
12846TIP3    H160029   1.066   6.529   1.093
12846TIP3    H260030   1.034   6.545   0.945
12847TIP3   OH260031   0.306   6.560   1.176
12847TIP3    H160032   0.312   6.493   1.248
12847TIP3    H260033   0.378   6.619   1.199
12848TIP3   OH260034   1.438   6.888   0.850
12848TIP3    H160035   1.394   6.817   0.898
12848TIP3    H260036   1.439   6.961   0.915
12849TIP3   OH260037   0.397   7.005   1.031
12849TIP3    H160038   0.363   6.920   0.996
12849TIP3    H260039   0.491   6.985   1.035
12850TIP3   OH260040   0.073   6.364   0.561
12850TIP3    H160041   0.024   6.447   0.574
12850TIP3    H260042   0.006   6.309   0.527
12851TIP3   OH260043   0.130   6.584   0.788
12851TIP3    H160044   0.154   6.504   0.837
12851TIP3    H260045   0.203   6.591   0.724
12852TIP3   OH260046   0.904   6.835   1.067
12852TIP3    H160047   0.939   6.771   1.002
12852TIP3    H260048   0.984   6.851   1.120
12853TIP3   OH260049   1.768   5.999   1.143
12853TIP3    H160050   1.782   6.060   1.219
12853TIP3    H260051   1.821   6.043   1.075
12854TIP3   OH260052   1.222   6.281   1.097
12854TIP3    H160053   1.237   6.185   1.099
12854TIP3    H260054   1.212   6.296   1.001
12855TIP3   OH260055   0.534   6.108   0.825
12855TIP3    H160056   0.542   6.184   0.765
12855TIP3    H260057   0.498   6.036   0.764
12856TIP3   OH260058   1.308   6.099   0.659
12856TIP3    H160059   1.374   6.067   0.725
12856TIP3    H260060   1.363   6.155   0.602
12857TIP3   OH260061   0.199   6.330   0.892
12857TIP3    H160062   0.265   6.274   0.938
12857TIP3    H260063   0.209   6.295   0.801
12858TIP3   OH260064   0.713   6.486   0.824
12858TIP3    H160065   0.777   6.428   0.867
12858TIP3    H260066   0.658   6.420   0.776
12859TIP3   OH260067   1.811   6.143   1.369
12859TIP3    H160068   1.746   6.216   1.360
12859TIP3    H260069   1.814   6.130   1.464
12860TIP3   OH260070   0.424   5.985   1.230
12860TIP3    H160071   0.396   6.034   1.150
12860TIP3    H260072   0.351   6.004   1.294
12861TIP3   OH260073   1.155   6.928   0.581
12861TIP3    H160074   1.126   6.900   0.493
12861TIP3    H260075   1.124   7.021   0.586
12862TIP3   OH260076   0.677   6.744   1.253
12862TIP3    H160077   0.603   6.807   1.270
12862TIP3    H260078   0.746   6.804   1.223
12863TIP3   OH260079   1.487   6.032   0.858
12863TIP3    H160080   1.466   5.955   0.912
12863TIP3    H260081   1.554   6.077   0.913
12864TIP3   OH260082   0.378   6.164   1.030
12864TIP3    H160083   0.441   6.233   1.061
12864TIP3    H260084   0.431   6.124   0.955
12865TIP3   OH260085   0.519   6.943   1.332
12865TIP3    H160086   0.514   7.034   1.297
12865TIP3    H260087   0.430   6.936   1.374
12866TIP3   OH260088   0.129   6.911   0.412
12866TIP3    H160089   0.105   6.939   0.322
12866TIP3    H260090   0.137   6.994   0.463
12867TIP3   OH260091   1.491   7.075   1.089
12867TIP3    H160092   1.394   7.080   1.099
12867TIP3    H260093   1.517   7.166   1.067
12868TIP3   OH260094   1.522   5.901   1.226
12868TIP3    H160095   1.448   5.964   1.219
12868TIP3    H260096   1.592   5.944   1.173
12869TIP3   OH260097   0.821   5.713   0.975
12869TIP3    H160098   0.805   5.617   0.964
12869TIP3    H260099   0.732   5.745   0.998
12870TIP3   OH260100   1.315   7.233   0.738
12870TIP3    H160101   1.366   7.169   0.687
12870TIP3    H260102   1.352   7.317   0.707
12871TIP3   OH260103   1.436   7.042   0.597
12871TIP3    H160104   1.406   6.973   0.536
12871TIP3    H260105   1.439   6.994   0.682
12872TIP3   OH260106   1.597   6.901   1.447
12872TIP3    H160107   1.614   6.838   1.374
12872TIP3    H260108   1.620   6.986   1.405
12873TIP3   OH260109   1.048   6.593   0.422
12873TIP3    H160110   0.978   6.650   0.385
12873TIP3    H260111   1.118   6.601   0.355
12874TIP3   OH260112   1.050   6.441   0.132
12874TIP3    H160113   1.126   6.446   0.191
12874TIP3    H260114   1.084   6.380   0.066
12875TIP3   OH260115   1.787   6.533   1.253
12875TIP3    H160116   1.720   6.605   1.258
12875TIP3    H260117   1.834   6.556   1.171
12876TIP3   OH260118   1.391   6.615   0.517
12876TIP3    H160119   1.316   6.638   0.577
12876TIP3    H260120   1.437   6.546   0.566
12877TIP3   OH260121   1.395   6.438   1.412
12877TIP3    H160122   1.383   6.505   1.482
12877TIP3    H260123   1.318   6.460   1.357
12878TIP3   OH260124   0.556   6.683   0.707
12878TIP3    H160125   0.519   6.641   0.625
12878TIP3    H260126   0.613   6.610   0.740
12879TIP3   OH260127   0.689   7.019   0.974
12879TIP3    H160128   0.684   6.963   0.896
12879TIP3    H260129   0.765   6.983   1.023
12880TIP3   OH260130   0.588   6.555   1.072
12880TIP3    H160131   0.645   6.567   0.994
12880TIP3    H260132   0.624   6.621   1.135
12881TIP3   OH260133   1.225   7.110   1.143
12881TIP3    H160134   1.196   7.173   1.207
12881TIP3    H260135   1.201   7.024   1.186
12882TIP3   OH260136   0.681   6.998   1.542
12882TIP3    H160137   0.642   7.073   1.591
12882TIP3    H260138   0.613   6.978   1.473
12883TIP3   OH260139   1.279   6.530   0.284
12883TIP3    H160140   1.335   6.550   0.363
12883TIP3    H260141   1.320   6.584   0.214
12884TIP3   OH260142   0.376   6.614   1.463
12884TIP3    H160143   0.379   6.683   1.532
12884TIP3    H260144   0.283   6.623   1.434
12885TIP3   OH260145   1.048   7.204   0.632
12885TIP3    H160146   1.098   7.236   0.707
12885TIP3    H260147   0.995   7.279   0.604
12886TIP3   OH260148   0.504   7.204   1.616
12886TIP3    H160149   0.499   7.188   1.519
12886TIP3    H260150   0.411   7.189   1.644
12887TIP3   OH260151   1.651   5.707   0.272
12887TIP3    H160152   1.556   5.719   0.295
12887TIP3    H260153   1.671   5.792   0.228
12888TIP3   OH260154   0.461   6.602   0.467
12888TIP3    H160155   0.420   6.667   0.411
12888TIP3    H260156   0.398   6.525   0.452
12889TIP3   OH260157   1.764   7.140   0.109
12889TIP3    H160158   1.772   7.235   0.122
12889TIP3    H260159   1.856   7.112   0.101
12890TIP3   OH260160   0.098   6.816   1.336
12890TIP3    H160161   0.025   6.820   1.271
12890TIP3    H260162   0.070   6.732   1.377
12891TIP3   OH260163   0.048   7.110   1.025
12891TIP3    H160164   0.139   7.084   1.038
12891TIP3    H260165   0.032   7.178   1.091
12892TIP3   OH260166   1.857   7.167   1.606
12892TIP3    H160167   1.849   7.072   1.600
12892TIP3    H260168   1.771   7.195   1.644
12893TIP3   OH260169   0.953   7.126   1.488
12893TIP3    H160170   0.964   7.205   1.541
12893TIP3    H260171   0.868   7.087   1.518
12894TIP3   OH260172   1.581   6.318   1.649
12894TIP3    H160173   1.525   6.360   1.582
12894TIP3    H260174   1.572   6.225   1.623
12895TIP3   OH260175   0.289   6.959   1.454
12895TIP3    H160176   0.306   6.919   1.541
12895TIP3    H260177   0.203   6.918   1.428
12896TIP3   OH260178   0.542   5.797   1.095
12896TIP3    H160179   0.480   5.789   1.017
12896TIP3    H260180   0.546   5.892   1.094
12897TIP3   OH260181   1.019   5.771   1.385
12897TIP3    H160182   1.059   5.730   1.463
12897TIP3    H260183   0.922   5.757   1.400
12898TIP3   OH260184   1.348   6.147   1.465
12898TIP3    H160185   1.298   6.136   1.551
12898TIP3    H260186   1.333   6.243   1.453
12899TIP3   OH260187   1.433   6.644   0.064
12899TIP3    H160188   1.432   6.620  -0.031
12899TIP3    H260189   1.522   6.682   0.074
12900TIP3   OH260190   0.983   6.027   0.117
12900TIP3    H160191   0.954   6.023   0.210
12900TIP3    H260192   0.958   5.938   0.088
12901TIP3   OH260193   0.565   6.301   1.170
12901TIP3    H160194   0.492   6.297   1.235
12901TIP3    H260195   0.560   6.393   1.137
12902TIP3   OH260196   0.568   6.312   0.662
12902TIP3    H160197   0.473   6.293   0.644
12902TIP3    H260198   0.600   6.284   0.575
12903TIP3   OH260199   1.114   6.361   0.534
12903TIP3    H160200   1.072   6.445   0.502
12903TIP3    H260201   1.184   6.347   0.468
12904TIP3   OH260202   0.994   6.393   1.692
12904TIP3    H160203   0.959   6.303   1.711
12904TIP3    H260204   1.088   6.376   1.718
12905TIP3   OH260205   1.216   6.310   0.819
12905TIP3    H160206   1.190   6.367   0.745
12905TIP3    H260207   1.228   6.225   0.772
12906TIP3   OH260208   0.331   6.326   1.344
12906TIP3    H160209   0.332   6.368   1.431
12906TIP3    H260210   0.284   6.243   1.359
12907TIP3   OH260211   0.687   6.092   0.057
12907TIP3    H160212   0.631   6.029   0.108
12907TIP3    H260213   0.624   6.121  -0.010
12908TIP3   OH260214   0.006   6.050   0.728
12908TIP3    H160215   0.062   6.035   0.806
12908TIP3    H260216   0.047   5.997   0.660
12909TIP3   OH260217   0.119   6.116   0.272
12909TIP3    H160218   0.175   6.176   0.218
12909TIP3    H260219   0.052   6.175   0.305
12910TIP3   OH260220   1.136   6.471   1.276
12910TIP3    H160221   1.174   6.402   1.219
12910TIP3    H260222   1.094   6.418   1.346
12911TIP3   OH260223   0.818   6.070   0.760
12911TIP3    H160224   0.723   6.066   0.788
12911TIP3    H260225   0.864   6.052   0.842
12912TIP3   OH260226   0.271   6.184   0.681
12912TIP3    H160227   0.221   6.238   0.615
12912TIP3    H260228   0.328   6.142   0.613
12913TIP3   OH260229   0.666   6.225   0.406
12913TIP3    H160230   0.759   6.241   0.427
12913TIP3    H260231   0.637   6.295   0.344
12914TIP3   OH260232   1.258   5.990   1.084
12914TIP3    H160233   1.189   5.997   1.154
12914TIP3    H260234   1.207   5.968   1.005
12915TIP3   OH260235   0.534   6.346   0.165
12915TIP3    H160236   0.477   6.308   0.098
12915TIP3    H260237   0.617   6.365   0.120
12916TIP3   OH260238   0.347   6.802   1.672
12916TIP3    H160239   0.418   6.826   1.733
12916TIP3    H260240   0.269   6.818   1.731
12917TIP3   OH260241   0.945   6.342   0.949
12917TIP3    H160242   1.005   6.289   0.895
12917TIP3    H260243   0.932   6.288   1.028
12918TIP3   OH260244   0.441   5.962   0.578
12918TIP3    H160245   0.418   5.868   0.594
12918TIP3    H260246   0.528   5.952   0.539
12919TIP3   OH260247   0.812   6.178   1.192
12919TIP3    H160248   0.727   6.226   1.200
12919TIP3    H260249   0.865   6.211   1.266
12920TIP3   OH260250   0.869   6.800   0.361
12920TIP3    H160251   0.790   6.752   0.328
12920TIP3    H260252   0.848   6.809   0.456
12921TIP3   OH260253   1.584   6.718   1.242
12921TIP3    H160254   1.643   6.765   1.180
12921TIP3    H260255   1.499   6.724   1.193
12922TIP3   OH260256   1.254   6.082   0.179
12922TIP3    H160257   1.160   6.095   0.162
12922TIP3    H260258   1.285   6.168   0.212
12923TIP3   OH260259   1.019   6.827   1.485
12923TIP3    H160260   0.981   6.781   1.562
12923TIP3    H260261   0.992   6.918   1.493
12924TIP3   OH260262   1.325   6.272   0.345
12924TIP3    H160263   1.416   6.257   0.378
12924TIP3    H260264   1.333   6.352   0.291
12925TIP3   OH260265   0.380   6.735   0.938
12925TIP3    H160266   0.450   6.729   0.871
12925TIP3    H260267   0.386   6.649   0.983
12926TIP3   OH260268   1.080   6.947   0.264
12926TIP3    H160269   1.045   7.030   0.300
12926TIP3    H260270   1.006   6.885   0.283
12927TIP3   OH260271   0.101   6.558   1.444
12927TIP3    H160272   0.108   6.535   1.538
12927TIP3    H260273   0.017   6.516   1.421
12928TIP3   OH260274   0.778   6.535   1.687
12928TIP3    H160275   0.750   6.506   1.599
12928TIP3    H260276   0.871   6.502   1.686
12929TIP3   OH260277   1.246   7.069   1.476
12929TIP3    H160278   1.153   7.084   1.454
12929TIP3    H260279   1.243   7.096   1.570
12930TIP3   OH260280   1.816   6.286   0.320
12930TIP3    H160281   1.758   6.254   0.249
12930TIP3    H260282   1.825   6.380   0.290
12931TIP3   OH260283   1.813   6.869   1.599
12931TIP3    H160284   1.726   6.895   1.561
12931TIP3    H260285   1.870   6.868   1.519
12932TIP3   OH260286   1.647   7.159   0.365
12932TIP3    H160287   1.606   7.078   0.391
12932TIP3    H260288   1.671   7.150   0.271
12933TIP3   OH260289   1.364   6.651   1.067
12933TIP3    H160290   1.269   6.628   1.058
12933TIP3    H260291   1.407   6.573   1.027
12934TIP3   OH260292   0.619   7.080   0.676
12934TIP3    H160293   0.666   7.162   0.656
12934TIP3    H260294   0.530   7.104   0.647
12935TIP3   OH260295   0.185   6.570   0.130
12935TIP3    H160296   0.251   6.627   0.175
12935TIP3    H260297   0.103   6.599   0.169
12936TIP3   OH260298   0.760   6.849   0.632
12936TIP3    H160299   0.730   6.941   0.639
12936TIP3    H260300   0.685   6.802   0.674
12937TIP3   OH260301   0.819   7.247   1.251
12937TIP3    H160302   0.844   7.340   1.241
12937TIP3    H260303   0.864   7.230   1.336
12938TIP3   OH260304   0.596  -0.004   0.556
12938TIP3    H160305   0.512   0.015   0.596
12938TIP3    H260306   0.644   0.069   0.602
12939TIP3   OH260307   1.161   6.871   1.235
12939TIP3    H160308   1.121   6.849   1.321
12939TIP3    H260309   1.220   6.797   1.215
12940TIP3   OH260310   1.386   6.966   0.144
12940TIP3    H160311   1.418   6.927   0.227
12940TIP3    H260312   1.290   6.957   0.153
12941TIP3   OH260313   1.432   7.322   1.483
12941TIP3    H160314   1.365   7.273   1.434
12941TIP3    H260315   1.453   7.396   1.422
12942TIP3   OH260316   0.243   6.051   1.419
12942TIP3    H160317   0.153   6.086   1.419
12942TIP3    H260318   0.231   5.967   1.466
12943TIP3   OH260319   1.469   6.834   0.366
12943TIP3    H160320   1.444   6.758   0.422
12943TIP3    H260321   1.563   6.845   0.388
12944TIP3   OH260322   0.211   7.231   1.263
12944TIP3    H160323   0.232   7.137   1.264
12944TIP3    H260324   0.227   7.260   1.353
12945TIP3   OH260325   0.683   7.037   0.233
12945TIP3    H160326   0.703   6.983   0.311
12945TIP3    H260327   0.688   7.128   0.267
12946TIP3   OH260328   0.328   6.759   0.281
12946TIP3    H160329   0.263   6.797   0.344
12946TIP3    H260330   0.384   6.836   0.260
12947TIP3   OH260331   1.116   6.027   1.312
12947TIP3    H160332   1.186   6.036   1.379
12947TIP3    H260333   1.078   5.941   1.335
12948TIP3   OH260334   1.191   5.989   0.425
12948TIP3    H160335   1.216   6.036   0.343
12948TIP3    H260336   1.250   6.030   0.490
12949TIP3   OH260337   0.960   7.203   0.309
12949TIP3    H160338   0.877   7.252   0.314
12949TIP3    H260339   1.013   7.254   0.245
12950TIP3   OH260340   0.916   6.161   0.506
12950TIP3    H160341   0.995   6.219   0.510
12950TIP3    H260342   0.887   6.149   0.599
12951TIP3   OH260343   0.968   6.263   1.427
12951TIP3    H160344   0.979   6.321   1.505
12951TIP3    H260345   1.036   6.195   1.437
12952TIP3   OH260346   1.002   5.868   0.597
12952TIP3    H160347   0.967   5.933   0.661
12952TIP3    H260348   1.069   5.924   0.551
12953TIP3   OH260349   0.702  -0.032   0.304
12953TIP3    H160350   0.711   0.052   0.260
12953TIP3    H260351   0.672  -0.004   0.393
12954TIP3   OH260352   0.568   5.977   0.266
12954TIP3    H160353   0.557   6.067   0.307
12954TIP3    H260354   0.657   5.955   0.299
12955TIP3   OH260355   1.589   6.051   1.510
12955TIP3    H160356   1.496   6.082   1.499
12955TIP3    H260357   1.618   6.051   1.418
12956TIP3   OH260358   1.448   6.430   0.914
12956TIP3    H160359   1.366   6.386   0.885
12956TIP3    H260360   1.495   6.360   0.965
12957TIP3   OH260361   0.392   7.018   0.175
12957TIP3    H160362   0.452   7.089   0.201
12957TIP3    H260363   0.441   6.978   0.101
12958TIP3   OH260364   0.233   6.291   0.081
12958TIP3    H160365   0.225   6.384   0.109
12958TIP3    H260366   0.142   6.267   0.065
12959TIP3   OH260367   0.285   5.770   0.964
12959TIP3    H160368   0.289   5.770   0.865
12959TIP3    H260369   0.261   5.679   0.984
12960TIP3   OH260370   0.207   7.156   0.581
12960TIP3    H160371   0.120   7.201   0.571
12960TIP3    H260372   0.248   7.208   0.510
12961TIP3   OH260373   0.601   7.289   1.875
12961TIP3    H160374   0.686   7.257   1.900
12961TIP3    H260375   0.594   7.278   1.778
12962TIP3   OH260376   1.035   7.295   0.061
12962TIP3    H160377   0.956   7.237   0.058
12962TIP3    H260378   1.081   7.238  -0.002
12963TIP3   OH260379   1.247   7.137   1.729
12963TIP3    H160380   1.204   7.061   1.770
12963TIP3    H260381   1.313   7.165   1.795
12964TIP3   OH260382   1.457   7.243   0.026
12964TIP3    H160383   1.485   7.163   0.074
12964TIP3    H260384   1.535   7.263  -0.029
12965TIP3   OH260385   0.126   6.802   1.798
12965TIP3    H160386   0.131   6.708   1.771
12965TIP3    H260387   0.042   6.832   1.757
12966TIP3   OH260388   0.554   6.840   0.016
12966TIP3    H160389   0.563   6.758   0.065
12966TIP3    H260390   0.615   6.821  -0.058
12967TIP3   OH260391   0.788   6.800   1.740
12967TIP3    H160392   0.750   6.829   1.655
12967TIP3    H260393   0.794   6.701   1.731
12968TIP3   OH260394   1.355   6.790   1.489
12968TIP3    H160395   1.432   6.847   1.468
12968TIP3    H260396   1.281   6.852   1.481
12969TIP3   OH260397   0.198   6.523   1.739
12969TIP3    H160398   0.245   6.438   1.731
12969TIP3    H260399   0.181   6.525   1.834
12970TIP3   OH260400   0.669   6.640   0.244
12970TIP3    H160401   0.619   6.587   0.309
12970TIP3    H260402   0.696   6.570   0.181
12971TIP3   OH260403   0.594   6.420   1.477
12971TIP3    H160404   0.533   6.491   1.503
12971TIP3    H260405   0.632   6.456   1.395
12972TIP3   OH260406   0.776   6.458   0.067
12972TIP3    H160407   0.762   6.445  -0.027
12972TIP3    H260408   0.873   6.467   0.074
12973TIP3   OH260409   1.101   6.678   1.811
12973TIP3    H160410   1.194   6.668   1.799
12973TIP3    H260411   1.080   6.598   1.864
12974TIP3   OH260412   1.689   6.708  16.020
12974TIP3    H160413   1.685   6.656  15.937
12974TIP3    H260414   1.717   6.796  15.990
12975TIP3   OH260415   0.634   6.157   1.584
12975TIP3    H160416   0.645   6.086   1.519
12975TIP3    H260417   0.628   6.238   1.528
12976TIP3   OH260418   0.674   5.997   1.337
12976TIP3    H160419   0.725   6.041   1.266
12976TIP3    H260420   0.585   5.985   1.294
12977TIP3   OH260421   0.827   6.542   1.360
12977TIP3    H160422   0.905   6.526   1.304
12977TIP3    H260423   0.793   6.627   1.329
12978TIP3   OH260424   1.297   6.305   1.932
12978TIP3    H160425   1.286   6.237   1.862
12978TIP3    H260426   1.347   6.361   1.870
12979TIP3   OH260427   1.408   6.610   1.677
12979TIP3    H160428   1.377   6.664   1.601
12979TIP3    H260429   1.500   6.589   1.650
12980TIP3   OH260430   0.477   6.283   1.774
12980TIP3    H160431   0.401   6.224   1.756
12980TIP3    H260432   0.545   6.246   1.714
12981TIP3   OH260433   0.753   5.739   1.377
12981TIP3    H160434   0.737   5.836   1.366
12981TIP3    H260435   0.678   5.704   1.326
12982TIP3   OH260436   0.880   6.169   1.737
12982TIP3    H160437   0.851   6.149   1.828
12982TIP3    H260438   0.800   6.152   1.684
12983TIP3   OH260439   1.147   6.070   1.637
12983TIP3    H160440   1.055   6.092   1.659
12983TIP3    H260441   1.180   6.024   1.715
12984TIP3   OH260442   1.313   5.948   1.840
12984TIP3    H160443   1.304   5.851   1.841
12984TIP3    H260444   1.284   5.979   1.928
12985TIP3   OH260445   0.295   6.074   1.748
12985TIP3    H160446   0.315   6.000   1.688
12985TIP3    H260447   0.282   6.028   1.834
12986TIP3   OH260448   0.774   5.676   1.647
12986TIP3    H160449   0.844   5.607   1.644
12986TIP3    H260450   0.764   5.694   1.551
12987TIP3   OH260451   0.811   5.839   1.855
12987TIP3    H160452   0.794   5.790   1.771
12987TIP3    H260453   0.750   5.915   1.846
12988TIP3   OH260454   0.118   6.987   0.125
12988TIP3    H160455   0.214   7.001   0.144
12988TIP3    H260456   0.120   6.930   0.047
12989TIP3   OH260457   0.078   7.336   0.800
12989TIP3    H160458   0.036   7.251   0.822
12989TIP3    H260459   0.093   7.371   0.890
12990TIP3   OH260460   1.627   6.951   1.859
12990TIP3    H160461   1.541   6.950   1.903
12990TIP3    H260462   1.669   7.030   1.901
12991TIP3   OH260463   1.760   6.781   0.405
12991TIP3    H160464   1.846   6.824   0.424
12991TIP3    H260465   1.760   6.710   0.472
12992TIP3   OH260466   1.797   6.591   0.592
12992TIP3    H160467   1.723   6.539   0.630
12992TIP3    H260468   1.857   6.606   0.668
12993TIP3   OH260469   1.773   6.862   1.092
12993TIP3    H160470   1.855   6.826   1.055
12993TIP3    H260471   1.786   6.958   1.074
12994TIP3   OH260472   1.624   7.154   1.320
12994TIP3    H160473   1.558   7.188   1.381
12994TIP3    H260474   1.571   7.110   1.250
12995TIP3   OH260475   1.814   6.572   0.236
12995TIP3    H160476   1.769   6.614   0.161
12995TIP3    H260477   1.821   6.646   0.299
12996TIP3   OH260478   1.625   6.300   0.095
12996TIP3    H160479   1.667   6.361   0.031
12996TIP3    H260480   1.645   6.219   0.047
12997TIP3   OH260481   1.578   6.439   0.649
12997TIP3    H160482   1.563   6.344   0.646
12997TIP3    H260483   1.544   6.463   0.736
12998TIP3   OH260484   0.078   6.647   1.052
12998TIP3    H160485   0.097   6.640   0.956
12998TIP3    H260486   0.166   6.633   1.091
12999TIP3   OH260487   1.662   6.636   1.619
12999TIP3    H160488   1.723   6.560   1.631
12999TIP3    H260489   1.724   6.712   1.617
13000TIP3   OH260490   1.815   6.426   1.683
13000TIP3    H160491   1.727   6.385   1.666
13000TIP3    H260492   1.872   6.349   1.675
13001TIP3   OH260493   1.545   6.198   0.495
13001TIP3    H160494   1.576   6.105   0.507
13001TIP3    H260495   1.624   6.239   0.457
13002TIP3   OH260496   1.609   6.252   1.039
13002TIP3    H160497   1.705   6.276   1.037
13002TIP3    H260498   1.589   6.266   1.133
13003TIP3   OH260499   1.616   6.324   1.316
13003TIP3    H160500   1.528   6.353   1.351
13003TIP3    H260501   1.658   6.411   1.296
13004TIP3   OH260502   0.058   6.169   1.669
13004TIP3    H160503   0.148   6.151   1.695
13004TIP3    H260504   0.000   6.097   1.704
13005TIP3   OH260505   1.842   5.728   1.853
13005TIP3    H160506   1.877   5.663   1.790
13005TIP3    H260507   1.854   5.811   1.802
13006TIP3   OH260508   1.612   5.925   0.499
13006TIP3    H160509   1.632   5.880   0.583
13006TIP3    H260510   1.550   5.863   0.454
13007TIP3   OH260511   0.155   6.003   0.960
13007TIP3    H160512   0.210   5.924   0.980
13007TIP3    H260513   0.213   6.073   0.994
13008TIP3   OH260514   0.061   6.351   1.098
13008TIP3    H160515   0.059   6.315   1.006
13008TIP3    H260516   0.034   6.439   1.078
13009TIP3   OH260517   1.795   5.939   1.688
13009TIP3    H160518   1.701   5.967   1.681
13009TIP3    H260519   1.800   5.885   1.607
13010TIP3   OH260520   1.796   5.931   0.156
13010TIP3    H160521   1.836   5.860   0.105
13010TIP3    H260522   1.866   5.998   0.156
13011TIP3   OH260523   0.062   5.931   0.442
13011TIP3    H160524  -0.032   5.954   0.442
13011TIP3    H260525   0.090   5.997   0.376
13012TIP3   OH260526   7.378   5.798   1.307
13012TIP3    H160527   7.302   5.777   1.364
13012TIP3    H260528   7.326   5.855   1.247
13013TIP3   OH260529   0.243   7.122   1.715
13013TIP3    H160530   0.159   7.139   1.669
13013TIP3    H260531   0.214   7.112   1.806
13014TIP3   OH260532   0.539   7.220   1.346
13014TIP3    H160533   0.492   7.297   1.310
13014TIP3    H260534   0.627   7.224   1.306
13015TIP3   OH260535   1.696   5.749   1.471
13015TIP3    H160536   1.613   5.779   1.430
13015TIP3    H260537   1.714   5.668   1.418
13016TIP3   OH260538   0.430   7.267   0.884
13016TIP3    H160539   0.410   7.180   0.921
13016TIP3    H260540   0.506   7.290   0.943
13017TIP3   OH260541   0.646   7.276   1.003
13017TIP3    H160542   0.709   7.218   0.959
13017TIP3    H260543   0.689   7.314   1.080
13018TIP3   OH260544   1.038   5.892   0.902
13018TIP3    H160545   0.968   5.829   0.927
13018TIP3    H260546   1.091   5.840   0.841
13019TIP3   OH260547   1.549   5.698   0.910
13019TIP3    H160548   1.611   5.757   0.858
13019TIP3    H260549   1.462   5.733   0.885
13020TIP3   OH260550   1.718   5.820   0.739
13020TIP3    H160551   1.786   5.764   0.693
13020TIP3    H260552   1.765   5.905   0.746
13021TIP3   OH260553   0.266   5.753   0.685
13021TIP3    H160554   0.192   5.730   0.628
13021TIP3    H260555   0.323   5.674   0.681
13022TIP3   OH260556   0.188   5.741   0.274
13022TIP3    H160557   0.203   5.799   0.197
13022TIP3    H260558   0.104   5.776   0.311
13023TIP3   OH260559   0.741   5.732   0.654
13023TIP3    H160560   0.817   5.789   0.660
13023TIP3    H260561   0.709   5.732   0.748
13024TIP3   OH260562   1.289   5.750   0.828
13024TIP3    H160563   1.288   5.760   0.732
13024TIP3    H260564   1.253   5.659   0.840
13025TIP3   OH260565   1.418   5.753   0.395
13025TIP3    H160566   1.345   5.813   0.377
13025TIP3    H260567   1.373   5.667   0.413
13026TIP3   OH260568   0.140  -0.032   0.397
13026TIP3    H160569   0.089  -0.034   0.311
13026TIP3    H260570   0.152   0.061   0.393
13027TIP3   OH260571   0.334   5.923   0.107
13027TIP3    H160572   0.387   5.861   0.055
13027TIP3    H260573   0.398   5.956   0.174
13028TIP3   OH260574   0.839   5.950   0.349
13028TIP3    H160575   0.860   5.891   0.424
13028TIP3    H260576   0.838   6.036   0.399
13029TIP3   OH260577   0.258   5.812   1.635
13029TIP3    H160578   0.225   5.729   1.674
13029TIP3    H260579   0.352   5.806   1.666
13030TIP3   OH260580   0.461   5.745   1.792
13030TIP3    H160581   0.551   5.713   1.772
13030TIP3    H260582   0.423   5.666   1.835
13031TIP3   OH260583   1.302   5.676   1.809
13031TIP3    H160584   1.312   5.630   1.894
13031TIP3    H260585   1.394   5.674   1.774
13032TIP3   OH260586   1.615   7.273   1.685
13032TIP3    H160587   1.544   7.266   1.618
13032TIP3    H260588   1.620   7.370   1.694
13033TIP3   OH260589   3.065   6.667   0.674
13033TIP3    H160590   3.068   6.765   0.667
13033TIP3    H260591   2.995   6.644   0.611
13034TIP3   OH260592   2.953   6.595   1.022
13034TIP3    H160593   2.951   6.529   1.093
13034TIP3    H260594   2.920   6.546   0.945
13035TIP3   OH260595   2.189   6.560   1.177
13035TIP3    H160596   2.197   6.493   1.249
13035TIP3    H260597   2.263   6.619   1.199
13036TIP3   OH260598   3.323   6.888   0.850
13036TIP3    H160599   3.280   6.817   0.898
13036TIP3    H260600   3.324   6.960   0.916
13037TIP3   OH260601   2.284   7.005   1.031
13037TIP3    H160602   2.250   6.920   0.996
13037TIP3    H260603   2.379   6.985   1.035
13038TIP3   OH260604   1.946   6.363   0.576
13038TIP3    H160605   1.901   6.450   0.570
13038TIP3    H260606   1.889   6.309   0.519
13039TIP3   OH260607   2.016   6.585   0.788
13039TIP3    H160608   2.041   6.504   0.836
13039TIP3    H260609   2.088   6.594   0.724
13040TIP3   OH260610   2.790   6.834   1.067
13040TIP3    H160611   2.825   6.771   1.002
13040TIP3    H260612   2.869   6.851   1.120
13041TIP3   OH260613   3.653   5.999   1.143
13041TIP3    H160614   3.668   6.060   1.219
13041TIP3    H260615   3.706   6.043   1.075
13042TIP3   OH260616   3.107   6.281   1.099
13042TIP3    H160617   3.123   6.185   1.098
13042TIP3    H260618   3.097   6.296   1.002
13043TIP3   OH260619   2.420   6.090   0.822
13043TIP3    H160620   2.429   6.174   0.775
13043TIP3    H260621   2.378   6.033   0.754
13044TIP3   OH260622   3.193   6.099   0.659
13044TIP3    H160623   3.259   6.067   0.725
13044TIP3    H260624   3.249   6.155   0.602
13045TIP3   OH260625   2.082   6.331   0.896
13045TIP3    H160626   2.149   6.275   0.940
13045TIP3    H260627   2.091   6.300   0.804
13046TIP3   OH260628   2.598   6.486   0.825
13046TIP3    H160629   2.664   6.428   0.868
13046TIP3    H260630   2.545   6.420   0.777
13047TIP3   OH260631   3.696   6.143   1.369
13047TIP3    H160632   3.631   6.216   1.359
13047TIP3    H260633   3.699   6.130   1.464
13048TIP3   OH260634   2.308   5.980   1.227
13048TIP3    H160635   2.281   6.036   1.151
13048TIP3    H260636   2.240   6.003   1.294
13049TIP3   OH260637   3.040   6.928   0.581
13049TIP3    H160638   3.012   6.900   0.493
13049TIP3    H260639   3.010   7.021   0.586
13050TIP3   OH260640   2.562   6.744   1.253
13050TIP3    H160641   2.490   6.808   1.270
13050TIP3    H260642   2.632   6.804   1.223
13051TIP3   OH260643   3.372   6.032   0.858
13051TIP3    H160644   3.351   5.955   0.912
13051TIP3    H260645   3.440   6.077   0.913
13052TIP3   OH260646   2.264   6.167   1.027
13052TIP3    H160647   2.328   6.234   1.060
13052TIP3    H260648   2.317   6.123   0.956
13053TIP3   OH260649   2.405   6.943   1.333
13053TIP3    H160650   2.401   7.033   1.297
13053TIP3    H260651   2.316   6.937   1.376
13054TIP3   OH260652   2.011   6.911   0.413
13054TIP3    H160653   1.990   6.937   0.322
13054TIP3    H260654   2.021   6.995   0.461
13055TIP3   OH260655   3.377   7.075   1.089
13055TIP3    H160656   3.279   7.080   1.099
13055TIP3    H260657   3.403   7.166   1.067
13056TIP3   OH260658   3.407   5.901   1.226
13056TIP3    H160659   3.334   5.964   1.219
13056TIP3    H260660   3.477   5.944   1.173
13057TIP3   OH260661   2.706   5.713   0.972
13057TIP3    H160662   2.692   5.616   0.966
13057TIP3    H260663   2.618   5.744   1.002
13058TIP3   OH260664   3.201   7.233   0.738
13058TIP3    H160665   3.252   7.169   0.687
13058TIP3    H260666   3.238   7.317   0.707
13059TIP3   OH260667   3.321   7.042   0.597
13059TIP3    H160668   3.292   6.973   0.536
13059TIP3    H260669   3.325   6.994   0.682
13060TIP3   OH260670   3.484   6.902   1.447
13060TIP3    H160671   3.499   6.838   1.374
13060TIP3    H260672   3.505   6.987   1.405
13061TIP3   OH260673   2.933   6.593   0.422
13061TIP3    H160674   2.863   6.650   0.385
13061TIP3    H260675   3.003   6.601   0.355
13062TIP3   OH260676   2.935   6.441   0.132
13062TIP3    H160677   3.011   6.445   0.191
13062TIP3    H260678   2.970   6.380   0.066
13063TIP3   OH260679   3.672   6.533   1.252
13063TIP3    H160680   3.606   6.605   1.258
13063TIP3    H260681   3.720   6.556   1.171
13064TIP3   OH260682   3.276   6.615   0.517
13064TIP3    H160683   3.202   6.638   0.577
13064TIP3    H260684   3.323   6.546   0.566
13065TIP3   OH260685   3.270   6.430   1.427
13065TIP3    H160686   3.271   6.511   1.481
13065TIP3    H260687   3.206   6.460   1.358
13066TIP3   OH260688   2.439   6.680   0.707
13066TIP3    H160689   2.406   6.641   0.622
13066TIP3    H260690   2.500   6.610   0.741
13067TIP3   OH260691   2.573   7.019   0.975
13067TIP3    H160692   2.570   6.964   0.896
13067TIP3    H260693   2.650   6.983   1.023
13068TIP3   OH260694   2.473   6.554   1.072
13068TIP3    H160695   2.529   6.566   0.993
13068TIP3    H260696   2.510   6.620   1.134
13069TIP3   OH260697   3.111   7.110   1.143
13069TIP3    H160698   3.082   7.173   1.207
13069TIP3    H260699   3.086   7.024   1.186
13070TIP3   OH260700   2.567   6.998   1.542
13070TIP3    H160701   2.527   7.073   1.591
13070TIP3    H260702   2.499   6.978   1.473
13071TIP3   OH260703   3.164   6.530   0.284
13071TIP3    H160704   3.220   6.550   0.363
13071TIP3    H260705   3.206   6.584   0.214
13072TIP3   OH260706   2.260   6.613   1.460
13072TIP3    H160707   2.264   6.680   1.532
13072TIP3    H260708   2.167   6.624   1.435
13073TIP3   OH260709   2.934   7.204   0.632
13073TIP3    H160710   2.983   7.236   0.707
13073TIP3    H260711   2.881   7.279   0.604
13074TIP3   OH260712   2.389   7.204   1.616
13074TIP3    H160713   2.386   7.188   1.520
13074TIP3    H260714   2.296   7.189   1.643
13075TIP3   OH260715   3.536   5.707   0.272
13075TIP3    H160716   3.442   5.719   0.295
13075TIP3    H260717   3.557   5.792   0.228
13076TIP3   OH260718   2.337   6.583   0.469
13076TIP3    H160719   2.308   6.660   0.414
13076TIP3    H260720   2.271   6.517   0.446
13077TIP3   OH260721   3.650   7.139   0.110
13077TIP3    H160722   3.656   7.235   0.122
13077TIP3    H260723   3.742   7.112   0.101
13078TIP3   OH260724   1.945   6.825   1.355
13078TIP3    H160725   1.900   6.817   1.269
13078TIP3    H260726   1.951   6.730   1.379
13079TIP3   OH260727   1.924   7.101   1.034
13079TIP3    H160728   2.019   7.087   1.034
13079TIP3    H260729   1.913   7.179   1.090
13080TIP3   OH260730   3.743   7.167   1.606
13080TIP3    H160731   3.733   7.071   1.600
13080TIP3    H260732   3.656   7.194   1.644
13081TIP3   OH260733   2.839   7.126   1.488
13081TIP3    H160734   2.850   7.205   1.541
13081TIP3    H260735   2.754   7.087   1.518
13082TIP3   OH260736   3.459   6.316   1.652
13082TIP3    H160737   3.414   6.362   1.580
13082TIP3    H260738   3.459   6.224   1.621
13083TIP3   OH260739   2.173   6.957   1.453
13083TIP3    H160740   2.195   6.918   1.540
13083TIP3    H260741   2.087   6.916   1.430
13084TIP3   OH260742   2.440   5.802   1.049
13084TIP3    H160743   2.350   5.792   1.011
13084TIP3    H260744   2.429   5.887   1.095
13085TIP3   OH260745   2.904   5.772   1.385
13085TIP3    H160746   2.944   5.729   1.463
13085TIP3    H260747   2.807   5.757   1.399
13086TIP3   OH260748   3.235   6.153   1.474
13086TIP3    H160749   3.179   6.134   1.553
13086TIP3    H260750   3.217   6.245   1.450
13087TIP3   OH260751   3.319   6.644   0.064
13087TIP3    H160752   3.317   6.620  -0.031
13087TIP3    H260753   3.407   6.682   0.074
13088TIP3   OH260754   2.868   6.027   0.117
13088TIP3    H160755   2.840   6.023   0.210
13088TIP3    H260756   2.844   5.938   0.088
13089TIP3   OH260757   2.450   6.299   1.169
13089TIP3    H160758   2.378   6.297   1.235
13089TIP3    H260759   2.447   6.392   1.136
13090TIP3   OH260760   2.446   6.315   0.657
13090TIP3    H160761   2.353   6.287   0.645
13090TIP3    H260762   2.486   6.283   0.574
13091TIP3   OH260763   2.999   6.361   0.534
13091TIP3    H160764   2.958   6.445   0.502
13091TIP3    H260765   3.069   6.347   0.468
13092TIP3   OH260766   2.906   6.383   1.680
13092TIP3    H160767   2.852   6.307   1.712
13092TIP3    H260768   2.990   6.369   1.728
13093TIP3   OH260769   3.101   6.310   0.819
13093TIP3    H160770   3.076   6.367   0.745
13093TIP3    H260771   3.114   6.225   0.772
13094TIP3   OH260772   2.215   6.328   1.343
13094TIP3    H160773   2.219   6.368   1.431
13094TIP3    H260774   2.169   6.244   1.360
13095TIP3   OH260775   2.571   6.093   0.060
13095TIP3    H160776   2.516   6.027   0.107
13095TIP3    H260777   2.510   6.123  -0.010
13096TIP3   OH260778   1.879   6.039   0.737
13096TIP3    H160779   1.946   6.035   0.808
13096TIP3    H260780   1.925   5.999   0.660
13097TIP3   OH260781   2.008   6.112   0.275
13097TIP3    H160782   2.057   6.173   0.217
13097TIP3    H260783   1.937   6.172   0.307
13098TIP3   OH260784   3.023   6.471   1.278
13098TIP3    H160785   3.059   6.403   1.218
13098TIP3    H260786   2.978   6.417   1.345
13099TIP3   OH260787   2.703   6.066   0.759
13099TIP3    H160788   2.610   6.068   0.789
13099TIP3    H260789   2.752   6.053   0.842
13100TIP3   OH260790   2.184   6.223   0.647
13100TIP3    H160791   2.096   6.237   0.608
13100TIP3    H260792   2.213   6.140   0.606
13101TIP3   OH260793   2.548   6.229   0.410
13101TIP3    H160794   2.644   6.239   0.427
13101TIP3    H260795   2.525   6.294   0.341
13102TIP3   OH260796   3.143   5.990   1.085
13102TIP3    H160797   3.074   5.997   1.154
13102TIP3    H260798   3.093   5.968   1.005
13103TIP3   OH260799   2.420   6.342   0.169
13103TIP3    H160800   2.362   6.311   0.097
13103TIP3    H260801   2.500   6.365   0.121
13104TIP3   OH260802   2.232   6.802   1.673
13104TIP3    H160803   2.304   6.826   1.734
13104TIP3    H260804   2.154   6.815   1.732
13105TIP3   OH260805   2.832   6.343   0.949
13105TIP3    H160806   2.891   6.289   0.895
13105TIP3    H260807   2.818   6.289   1.028
13106TIP3   OH260808   2.333   5.957   0.593
13106TIP3    H160809   2.302   5.865   0.590
13106TIP3    H260810   2.412   5.952   0.537
13107TIP3   OH260811   2.696   6.177   1.190
13107TIP3    H160812   2.612   6.227   1.200
13107TIP3    H260813   2.750   6.210   1.264
13108TIP3   OH260814   2.754   6.800   0.361
13108TIP3    H160815   2.675   6.751   0.327
13108TIP3    H260816   2.734   6.809   0.456
13109TIP3   OH260817   3.470   6.717   1.240
13109TIP3    H160818   3.529   6.765   1.179
13109TIP3    H260819   3.385   6.725   1.193
13110TIP3   OH260820   3.140   6.082   0.179
13110TIP3    H160821   3.045   6.095   0.162
13110TIP3    H260822   3.171   6.168   0.212
13111TIP3   OH260823   2.902   6.825   1.484
13111TIP3    H160824   2.869   6.782   1.563
13111TIP3    H260825   2.880   6.918   1.494
13112TIP3   OH260826   3.211   6.272   0.345
13112TIP3    H160827   3.302   6.257   0.378
13112TIP3    H260828   3.219   6.352   0.291
13113TIP3   OH260829   2.265   6.736   0.939
13113TIP3    H160830   2.335   6.730   0.872
13113TIP3    H260831   2.271   6.650   0.985
13114TIP3   OH260832   2.966   6.947   0.264
13114TIP3    H160833   2.930   7.030   0.299
13114TIP3    H260834   2.891   6.885   0.283
13115TIP3   OH260835   1.964   6.578   1.466
13115TIP3    H160836   1.983   6.534   1.552
13115TIP3    H260837   1.903   6.516   1.424
13116TIP3   OH260838   2.665   6.533   1.686
13116TIP3    H160839   2.635   6.507   1.598
13116TIP3    H260840   2.758   6.504   1.685
13117TIP3   OH260841   3.132   7.072   1.475
13117TIP3    H160842   3.038   7.084   1.455
13117TIP3    H260843   3.129   7.094   1.571
13118TIP3   OH260844   3.701   6.286   0.320
13118TIP3    H160845   3.644   6.254   0.249
13118TIP3    H260846   3.710   6.380   0.290
13119TIP3   OH260847   3.700   6.869   1.599
13119TIP3    H160848   3.611   6.894   1.562
13119TIP3    H260849   3.755   6.868   1.519
13120TIP3   OH260850   3.533   7.159   0.365
13120TIP3    H160851   3.491   7.078   0.391
13120TIP3    H260852   3.557   7.150   0.271
13121TIP3   OH260853   3.249   6.650   1.067
13121TIP3    H160854   3.155   6.628   1.058
13121TIP3    H260855   3.293   6.573   1.027
13122TIP3   OH260856   2.504   7.081   0.675
13122TIP3    H160857   2.551   7.162   0.656
13122TIP3    H260858   2.414   7.104   0.647
13123TIP3   OH260859   2.062   6.553   0.185
13123TIP3    H160860   2.132   6.620   0.170
13123TIP3    H260861   1.982   6.603   0.164
13124TIP3   OH260862   2.646   6.849   0.632
13124TIP3    H160863   2.616   6.942   0.639
13124TIP3    H260864   2.571   6.803   0.675
13125TIP3   OH260865   2.704   7.247   1.251
13125TIP3    H160866   2.729   7.340   1.241
13125TIP3    H260867   2.749   7.230   1.336
13126TIP3   OH260868   2.481  -0.004   0.555
13126TIP3    H160869   2.398   0.014   0.596
13126TIP3    H260870   2.530   0.069   0.602
13127TIP3   OH260871   3.046   6.871   1.235
13127TIP3    H160872   3.007   6.848   1.322
13127TIP3    H260873   3.106   6.797   1.217
13128TIP3   OH260874   3.271   6.966   0.144
13128TIP3    H160875   3.303   6.927   0.227
13128TIP3    H260876   3.175   6.957   0.153
13129TIP3   OH260877   3.318   7.322   1.483
13129TIP3    H160878   3.251   7.273   1.434
13129TIP3    H260879   3.339   7.396   1.422
13130TIP3   OH260880   2.129   6.052   1.421
13130TIP3    H160881   2.038   6.087   1.418
13130TIP3    H260882   2.117   5.967   1.467
13131TIP3   OH260883   3.354   6.835   0.366
13131TIP3    H160884   3.329   6.758   0.422
13131TIP3    H260885   3.448   6.845   0.388
13132TIP3   OH260886   2.091   7.229   1.265
13132TIP3    H160887   2.118   7.137   1.265
13132TIP3    H260888   2.114   7.261   1.353
13133TIP3   OH260889   2.569   7.037   0.233
13133TIP3    H160890   2.589   6.983   0.311
13133TIP3    H260891   2.574   7.128   0.267
13134TIP3   OH260892   2.219   6.761   0.290
13134TIP3    H160893   2.148   6.799   0.343
13134TIP3    H260894   2.270   6.838   0.258
13135TIP3   OH260895   3.001   6.029   1.315
13135TIP3    H160896   3.072   6.034   1.380
13135TIP3    H260897   2.963   5.940   1.334
13136TIP3   OH260898   3.076   5.989   0.425
13136TIP3    H160899   3.102   6.036   0.343
13136TIP3    H260900   3.135   6.030   0.490
13137TIP3   OH260901   2.845   7.203   0.309
13137TIP3    H160902   2.762   7.252   0.314
13137TIP3    H260903   2.899   7.254   0.245
13138TIP3   OH260904   2.799   6.162   0.507
13138TIP3    H160905   2.879   6.218   0.510
13138TIP3    H260906   2.773   6.149   0.600
13139TIP3   OH260907   2.854   6.263   1.426
13139TIP3    H160908   2.863   6.320   1.504
13139TIP3    H260909   2.920   6.194   1.436
13140TIP3   OH260910   2.886   5.868   0.597
13140TIP3    H160911   2.853   5.933   0.662
13140TIP3    H260912   2.954   5.923   0.551
13141TIP3   OH260913   2.587  -0.031   0.304
13141TIP3    H160914   2.598   0.052   0.260
13141TIP3    H260915   2.557  -0.004   0.393
13142TIP3   OH260916   2.451   5.977   0.269
13142TIP3    H160917   2.445   6.068   0.305
13142TIP3    H260918   2.542   5.954   0.297
13143TIP3   OH260919   3.474   6.051   1.510
13143TIP3    H160920   3.380   6.081   1.498
13143TIP3    H260921   3.504   6.051   1.418
13144TIP3   OH260922   3.334   6.430   0.914
13144TIP3    H160923   3.252   6.385   0.885
13144TIP3    H260924   3.381   6.360   0.965
13145TIP3   OH260925   2.278   7.021   0.179
13145TIP3    H160926   2.341   7.089   0.200
13145TIP3    H260927   2.321   6.978   0.101
13146TIP3   OH260928   2.113   6.289   0.090
13146TIP3    H160929   2.110   6.386   0.103
13146TIP3    H260930   2.025   6.269   0.058
13147TIP3   OH260931   2.191   5.768   0.958
13147TIP3    H160932   2.169   5.770   0.862
13147TIP3    H260933   2.147   5.684   0.985
13148TIP3   OH260934   2.092   7.156   0.580
13148TIP3    H160935   2.004   7.201   0.572
13148TIP3    H260936   2.133   7.207   0.508
13149TIP3   OH260937   2.487   7.289   1.875
13149TIP3    H160938   2.573   7.257   1.900
13149TIP3    H260939   2.481   7.279   1.778
13150TIP3   OH260940   2.921   7.295   0.061
13150TIP3    H160941   2.842   7.237   0.058
13150TIP3    H260942   2.967   7.238  -0.002
13151TIP3   OH260943   3.130   7.139   1.730
13151TIP3    H160944   3.092   7.059   1.769
13151TIP3    H260945   3.199   7.163   1.795
13152TIP3   OH260946   3.343   7.243   0.026
13152TIP3    H160947   3.370   7.164   0.074
13152TIP3    H260948   3.421   7.263  -0.029
13153TIP3   OH260949   2.000   6.803   1.802
13153TIP3    H160950   2.015   6.711   1.771
13153TIP3    H260951   1.926   6.831   1.746
13154TIP3   OH260952   2.458   6.843   0.024
13154TIP3    H160953   2.445   6.755   0.063
13154TIP3    H260954   2.501   6.818  -0.060
13155TIP3   OH260955   2.670   6.800   1.741
13155TIP3    H160956   2.635   6.829   1.655
13155TIP3    H260957   2.680   6.702   1.731
13156TIP3   OH260958   3.240   6.787   1.480
13156TIP3    H160959   3.317   6.847   1.471
13156TIP3    H260960   3.168   6.852   1.484
13157TIP3   OH260961   2.088   6.525   1.740
13157TIP3    H160962   2.129   6.438   1.730
13157TIP3    H260963   2.064   6.524   1.834
13158TIP3   OH260964   2.557   6.639   0.246
13158TIP3    H160965   2.503   6.587   0.308
13158TIP3    H260966   2.581   6.571   0.179
13159TIP3   OH260967   2.480   6.420   1.477
13159TIP3    H160968   2.419   6.491   1.503
13159TIP3    H260969   2.517   6.456   1.395
13160TIP3   OH260970   2.661   6.456   0.068
13160TIP3    H160971   2.645   6.445  -0.027
13160TIP3    H260972   2.758   6.468   0.074
13161TIP3   OH260973   2.985   6.674   1.808
13161TIP3    H160974   3.082   6.677   1.800
13161TIP3    H260975   2.969   6.599   1.866
13162TIP3   OH260976   3.577   6.708  16.020
13162TIP3    H160977   3.570   6.656  15.937
13162TIP3    H260978   3.601   6.796  15.990
13163TIP3   OH260979   2.519   6.158   1.584
13163TIP3    H160980   2.531   6.085   1.519
13163TIP3    H260981   2.515   6.238   1.528
13164TIP3   OH260982   2.559   5.995   1.337
13164TIP3    H160983   2.611   6.041   1.267
13164TIP3    H260984   2.471   5.986   1.295
13165TIP3   OH260985   2.714   6.542   1.361
13165TIP3    H160986   2.790   6.526   1.303
13165TIP3    H260987   2.679   6.626   1.329
13166TIP3   OH260988   3.154   6.320   1.859
13166TIP3    H160989   3.177   6.226   1.849
13166TIP3    H260990   3.241   6.364   1.861
13167TIP3   OH260991   3.287   6.598   1.672
13167TIP3    H160992   3.262   6.671   1.612
13167TIP3    H260993   3.383   6.595   1.654
13168TIP3   OH260994   2.365   6.282   1.775
13168TIP3    H160995   2.288   6.224   1.756
13168TIP3    H260996   2.431   6.246   1.713
13169TIP3   OH260997   2.639   5.739   1.377
13169TIP3    H160998   2.623   5.836   1.367
13169TIP3    H260999   2.563   5.703   1.327
13170TIP3   OH261000   2.766   6.172   1.737
13170TIP3    H161001   2.736   6.149   1.827
13170TIP3    H261002   2.686   6.152   1.684
13171TIP3   OH261003   3.037   6.086   1.645
13171TIP3    H161004   2.941   6.090   1.657
13171TIP3    H261005   3.065   6.022   1.713
13172TIP3   OH261006   3.197   5.949   1.839
13172TIP3    H161007   3.190   5.851   1.841
13172TIP3    H261008   3.169   5.977   1.928
13173TIP3   OH261009   2.175   6.074   1.748
13173TIP3    H161010   2.200   6.001   1.688
13173TIP3    H261011   2.167   6.029   1.834
13174TIP3   OH261012   2.660   5.676   1.647
13174TIP3    H161013   2.729   5.607   1.643
13174TIP3    H261014   2.649   5.694   1.551
13175TIP3   OH261015   2.696   5.839   1.855
13175TIP3    H161016   2.680   5.790   1.771
13175TIP3    H261017   2.636   5.915   1.846
13176TIP3   OH261018   2.001   6.988   0.122
13176TIP3    H161019   2.097   6.998   0.142
13176TIP3    H261020   2.011   6.927   0.047
13177TIP3   OH261021   1.950   7.338   0.806
13177TIP3    H161022   1.921   7.249   0.826
13177TIP3    H261023   1.979   7.373   0.891
13178TIP3   OH261024   3.515   6.951   1.860
13178TIP3    H161025   3.425   6.947   1.898
13178TIP3    H261026   3.553   7.032   1.902
13179TIP3   OH261027   3.646   6.781   0.404
13179TIP3    H161028   3.731   6.824   0.424
13179TIP3    H261029   3.645   6.710   0.472
13180TIP3   OH261030   3.683   6.591   0.592
13180TIP3    H161031   3.608   6.540   0.631
13180TIP3    H261032   3.742   6.606   0.668
13181TIP3   OH261033   3.658   6.863   1.092
13181TIP3    H161034   3.741   6.826   1.055
13181TIP3    H261035   3.672   6.958   1.074
13182TIP3   OH261036   3.510   7.154   1.320
13182TIP3    H161037   3.444   7.188   1.381
13182TIP3    H261038   3.457   7.110   1.250
13183TIP3   OH261039   3.713   6.575   0.232
13183TIP3    H161040   3.655   6.612   0.162
13183TIP3    H261041   3.705   6.646   0.299
13184TIP3   OH261042   3.511   6.300   0.095
13184TIP3    H161043   3.552   6.361   0.030
13184TIP3    H261044   3.531   6.218   0.047
13185TIP3   OH261045   3.464   6.439   0.649
13185TIP3    H161046   3.449   6.343   0.646
13185TIP3    H261047   3.429   6.463   0.736
13186TIP3   OH261048   1.965   6.648   1.054
13186TIP3    H161049   1.984   6.639   0.958
13186TIP3    H261050   2.054   6.631   1.091
13187TIP3   OH261051   3.549   6.636   1.616
13187TIP3    H161052   3.610   6.561   1.632
13187TIP3    H261053   3.609   6.713   1.618
13188TIP3   OH261054   3.700   6.425   1.683
13188TIP3    H161055   3.612   6.385   1.666
13188TIP3    H261056   3.758   6.348   1.674
13189TIP3   OH261057   3.431   6.198   0.495
13189TIP3    H161058   3.462   6.105   0.507
13189TIP3    H261059   3.510   6.239   0.457
13190TIP3   OH261060   3.494   6.252   1.039
13190TIP3    H161061   3.590   6.276   1.037
13190TIP3    H261062   3.475   6.266   1.133
13191TIP3   OH261063   3.501   6.325   1.318
13191TIP3    H161064   3.413   6.354   1.351
13191TIP3    H261065   3.544   6.411   1.295
13192TIP3   OH261066   1.926   6.177   1.668
13192TIP3    H161067   2.020   6.158   1.689
13192TIP3    H261068   1.881   6.095   1.700
13193TIP3   OH261069   3.727   5.728   1.853
13193TIP3    H161070   3.763   5.663   1.790
13193TIP3    H261071   3.738   5.811   1.802
13194TIP3   OH261072   3.497   5.925   0.499
13194TIP3    H161073   3.517   5.880   0.583
13194TIP3    H261074   3.436   5.863   0.454
13195TIP3   OH261075   2.046   6.006   0.954
13195TIP3    H161076   2.093   5.925   0.982
13195TIP3    H261077   2.099   6.076   0.995
13196TIP3   OH261078   1.875   6.305   1.060
13196TIP3    H161079   1.930   6.282   0.982
13196TIP3    H261080   1.919   6.387   1.086
13197TIP3   OH261081   3.680   5.939   1.688
13197TIP3    H161082   3.586   5.966   1.682
13197TIP3    H261083   3.686   5.885   1.607
13198TIP3   OH261084   3.682   5.931   0.156
13198TIP3    H161085   3.722   5.860   0.105
13198TIP3    H261086   3.752   5.997   0.156
13199TIP3   OH261087   1.910   5.933   0.466
13199TIP3    H161088   1.817   5.952   0.451
13199TIP3    H261089   1.954   5.981   0.395
13200TIP3   OH261090   1.907   5.800   1.297
13200TIP3    H161091   1.839   5.779   1.364
13200TIP3    H261092   1.861   5.866   1.242
13201TIP3   OH261093   2.127   7.123   1.713
13201TIP3    H161094   2.043   7.139   1.667
13201TIP3    H261095   2.102   7.111   1.805
13202TIP3   OH261096   2.423   7.219   1.345
13202TIP3    H161097   2.379   7.297   1.310
13202TIP3    H261098   2.512   7.224   1.306
13203TIP3   OH261099   3.582   5.749   1.471
13203TIP3    H161100   3.499   5.779   1.430
13203TIP3    H261101   3.600   5.668   1.418
13204TIP3   OH261102   2.314   7.268   0.884
13204TIP3    H161103   2.296   7.180   0.921
13204TIP3    H261104   2.392   7.291   0.943
13205TIP3   OH261105   2.532   7.276   1.002
13205TIP3    H161106   2.594   7.218   0.959
13205TIP3    H261107   2.575   7.314   1.080
13206TIP3   OH261108   2.922   5.892   0.901
13206TIP3    H161109   2.854   5.828   0.928
13206TIP3    H261110   2.977   5.840   0.842
13207TIP3   OH261111   3.435   5.698   0.910
13207TIP3    H161112   3.497   5.757   0.858
13207TIP3    H261113   3.347   5.733   0.885
13208TIP3   OH261114   3.603   5.820   0.739
13208TIP3    H161115   3.671   5.764   0.693
13208TIP3    H261116   3.651   5.905   0.746
13209TIP3   OH261117   2.157   5.755   0.685
13209TIP3    H161118   2.078   5.733   0.633
13209TIP3    H261119   2.205   5.670   0.681
13210TIP3   OH261120   2.035   5.731   0.261
13210TIP3    H161121   2.083   5.795   0.204
13210TIP3    H261122   1.977   5.788   0.314
13211TIP3   OH261123   2.608   5.747   0.664
13211TIP3    H161124   2.698   5.784   0.659
13211TIP3    H261125   2.601   5.726   0.757
13212TIP3   OH261126   3.174   5.750   0.828
13212TIP3    H161127   3.173   5.760   0.732
13212TIP3    H261128   3.139   5.658   0.840
13213TIP3   OH261129   3.304   5.752   0.395
13213TIP3    H161130   3.231   5.813   0.377
13213TIP3    H261131   3.259   5.667   0.413
13214TIP3   OH261132   2.008  -0.038   0.393
13214TIP3    H161133   1.968  -0.031   0.304
13214TIP3    H261134   2.034   0.054   0.394
13215TIP3   OH261135   2.220   5.919   0.111
13215TIP3    H161136   2.273   5.863   0.055
13215TIP3    H261137   2.286   5.957   0.172
13216TIP3   OH261138   2.723   5.950   0.350
13216TIP3    H161139   2.747   5.891   0.424
13216TIP3    H261140   2.726   6.036   0.398
13217TIP3   OH261141   2.147   5.808   1.631
13217TIP3    H161142   2.111   5.729   1.675
13217TIP3    H261143   2.240   5.806   1.667
13218TIP3   OH261144   2.348   5.746   1.792
13218TIP3    H161145   2.437   5.713   1.772
13218TIP3    H261146   2.310   5.666   1.835
13219TIP3   OH261147   3.188   5.676   1.809
13219TIP3    H161148   3.198   5.629   1.894
13219TIP3    H261149   3.279   5.674   1.774
13220TIP3   OH261150   3.501   7.275   1.684
13220TIP3    H161151   3.429   7.265   1.619
13220TIP3    H261152   3.506   7.371   1.694
13221TIP3   OH261153   4.953   6.668   0.673
13221TIP3    H161154   4.952   6.766   0.667
13221TIP3    H261155   4.882   6.644   0.612
13222TIP3   OH261156   4.838   6.595   1.022
13222TIP3    H161157   4.837   6.529   1.093
13222TIP3    H261158   4.806   6.546   0.945
13223TIP3   OH261159   4.075   6.560   1.177
13223TIP3    H161160   4.083   6.493   1.249
13223TIP3    H261161   4.149   6.619   1.199
13224TIP3   OH261162   5.216   6.887   0.850
13224TIP3    H161163   5.165   6.819   0.897
13224TIP3    H261164   5.208   6.960   0.915
13225TIP3   OH261165   4.169   7.005   1.031
13225TIP3    H161166   4.135   6.920   0.996
13225TIP3    H261167   4.264   6.985   1.035
13226TIP3   OH261168   3.832   6.364   0.575
13226TIP3    H161169   3.787   6.450   0.570
13226TIP3    H261170   3.774   6.309   0.520
13227TIP3   OH261171   3.901   6.585   0.789
13227TIP3    H161172   3.927   6.504   0.836
13227TIP3    H261173   3.973   6.594   0.724
13228TIP3   OH261174   4.676   6.835   1.067
13228TIP3    H161175   4.710   6.771   1.002
13228TIP3    H261176   4.755   6.851   1.120
13229TIP3   OH261177   5.540   5.999   1.144
13229TIP3    H161178   5.553   6.061   1.219
13229TIP3    H261179   5.591   6.043   1.075
13230TIP3   OH261180   4.993   6.281   1.098
13230TIP3    H161181   5.009   6.184   1.097
13230TIP3    H261182   4.983   6.295   1.002
13231TIP3   OH261183   4.306   6.090   0.822
13231TIP3    H161184   4.314   6.174   0.775
13231TIP3    H261185   4.264   6.033   0.754
13232TIP3   OH261186   5.076   6.111   0.663
13232TIP3    H161187   5.141   6.063   0.721
13232TIP3    H261188   5.136   6.153   0.601
13233TIP3   OH261189   3.968   6.330   0.896
13233TIP3    H161190   4.035   6.275   0.940
13233TIP3    H261191   3.976   6.300   0.804
13234TIP3   OH261192   4.484   6.486   0.824
13234TIP3    H161193   4.549   6.429   0.867
13234TIP3    H261194   4.430   6.420   0.777
13235TIP3   OH261195   5.582   6.143   1.369
13235TIP3    H161196   5.518   6.216   1.360
13235TIP3    H261197   5.585   6.130   1.465
13236TIP3   OH261198   4.194   5.980   1.228
13236TIP3    H161199   4.167   6.036   1.152
13236TIP3    H261200   4.125   6.003   1.293
13237TIP3   OH261201   4.929   6.928   0.581
13237TIP3    H161202   4.897   6.899   0.494
13237TIP3    H261203   4.894   7.020   0.586
13238TIP3   OH261204   4.447   6.744   1.253
13238TIP3    H161205   4.375   6.808   1.270
13238TIP3    H261206   4.517   6.804   1.223
13239TIP3   OH261207   5.254   6.053   0.877
13239TIP3    H161208   5.240   5.960   0.904
13239TIP3    H261209   5.335   6.079   0.920
13240TIP3   OH261210   4.150   6.167   1.027
13240TIP3    H161211   4.214   6.234   1.060
13240TIP3    H261212   4.203   6.123   0.956
13241TIP3   OH261213   4.291   6.943   1.333
13241TIP3    H161214   4.287   7.033   1.297
13241TIP3    H261215   4.202   6.937   1.376
13242TIP3   OH261216   3.898   6.910   0.412
13242TIP3    H161217   3.874   6.939   0.322
13242TIP3    H261218   3.907   6.995   0.461
13243TIP3   OH261219   5.262   7.074   1.086
13243TIP3    H161220   5.165   7.080   1.101
13243TIP3    H261221   5.288   7.166   1.069
13244TIP3   OH261222   5.294   5.903   1.229
13244TIP3    H161223   5.219   5.963   1.217
13244TIP3    H261224   5.362   5.943   1.172
13245TIP3   OH261225   4.591   5.713   0.973
13245TIP3    H161226   4.578   5.616   0.966
13245TIP3    H261227   4.503   5.744   1.002
13246TIP3   OH261228   5.088   7.232   0.739
13246TIP3    H161229   5.137   7.170   0.686
13246TIP3    H261230   5.122   7.317   0.707
13247TIP3   OH261231   5.216   7.038   0.597
13247TIP3    H161232   5.174   6.975   0.535
13247TIP3    H261233   5.204   6.996   0.684
13248TIP3   OH261234   5.370   6.902   1.446
13248TIP3    H161235   5.385   6.837   1.374
13248TIP3    H261236   5.391   6.987   1.405
13249TIP3   OH261237   4.819   6.594   0.422
13249TIP3    H161238   4.748   6.650   0.385
13249TIP3    H261239   4.889   6.601   0.355
13250TIP3   OH261240   4.821   6.441   0.132
13250TIP3    H161241   4.897   6.446   0.191
13250TIP3    H261242   4.855   6.380   0.066
13251TIP3   OH261243   5.558   6.533   1.253
13251TIP3    H161244   5.491   6.605   1.258
13251TIP3    H261245   5.606   6.556   1.172
13252TIP3   OH261246   5.165   6.618   0.520
13252TIP3    H161247   5.086   6.637   0.576
13252TIP3    H261248   5.207   6.543   0.566
13253TIP3   OH261249   5.155   6.430   1.427
13253TIP3    H161250   5.157   6.511   1.481
13253TIP3    H261251   5.092   6.460   1.358
13254TIP3   OH261252   4.325   6.680   0.707
13254TIP3    H161253   4.292   6.640   0.623
13254TIP3    H261254   4.386   6.610   0.741
13255TIP3   OH261255   4.459   7.019   0.975
13255TIP3    H161256   4.455   6.964   0.896
13255TIP3    H261257   4.535   6.983   1.023
13256TIP3   OH261258   4.359   6.554   1.072
13256TIP3    H161259   4.415   6.566   0.993
13256TIP3    H261260   4.395   6.620   1.134
13257TIP3   OH261261   4.997   7.110   1.143
13257TIP3    H161262   4.967   7.173   1.207
13257TIP3    H261263   4.972   7.024   1.186
13258TIP3   OH261264   4.453   6.999   1.543
13258TIP3    H161265   4.412   7.074   1.591
13258TIP3    H261266   4.385   6.978   1.473
13259TIP3   OH261267   5.049   6.531   0.284
13259TIP3    H161268   5.105   6.549   0.363
13259TIP3    H261269   5.091   6.584   0.214
13260TIP3   OH261270   4.146   6.613   1.460
13260TIP3    H161271   4.150   6.680   1.531
13260TIP3    H261272   4.053   6.624   1.435
13261TIP3   OH261273   4.820   7.204   0.632
13261TIP3    H161274   4.869   7.236   0.707
13261TIP3    H261275   4.766   7.279   0.604
13262TIP3   OH261276   4.275   7.205   1.618
13262TIP3    H161277   4.272   7.188   1.521
13262TIP3    H261278   4.181   7.189   1.642
13263TIP3   OH261279   5.423   5.706   0.268
13263TIP3    H161280   5.329   5.719   0.296
13263TIP3    H261281   5.442   5.792   0.229
13264TIP3   OH261282   4.223   6.583   0.468
13264TIP3    H161283   4.194   6.661   0.416
13264TIP3    H261284   4.156   6.517   0.447
13265TIP3   OH261285   5.538   7.141   0.101
13265TIP3    H161286   5.539   7.235   0.126
13265TIP3    H261287   5.627   7.110   0.114
13266TIP3   OH261288   3.831   6.824   1.355
13266TIP3    H161289   3.785   6.817   1.269
13266TIP3    H261290   3.836   6.730   1.379
13267TIP3   OH261291   3.809   7.101   1.033
13267TIP3    H161292   3.905   7.087   1.034
13267TIP3    H261293   3.799   7.179   1.090
13268TIP3   OH261294   5.630   7.166   1.613
13268TIP3    H161295   5.618   7.071   1.598
13268TIP3    H261296   5.540   7.194   1.642
13269TIP3   OH261297   4.724   7.125   1.489
13269TIP3    H161298   4.736   7.205   1.540
13269TIP3    H261299   4.639   7.086   1.517
13270TIP3   OH261300   5.345   6.316   1.652
13270TIP3    H161301   5.299   6.362   1.580
13270TIP3    H261302   5.345   6.224   1.621
13271TIP3   OH261303   4.059   6.957   1.453
13271TIP3    H161304   4.081   6.918   1.540
13271TIP3    H261305   3.973   6.916   1.430
13272TIP3   OH261306   4.325   5.802   1.049
13272TIP3    H161307   4.235   5.792   1.011
13272TIP3    H261308   4.315   5.887   1.095
13273TIP3   OH261309   4.790   5.772   1.386
13273TIP3    H161310   4.830   5.729   1.464
13273TIP3    H261311   4.693   5.757   1.399
13274TIP3   OH261312   5.120   6.153   1.473
13274TIP3    H161313   5.065   6.134   1.553
13274TIP3    H261314   5.102   6.245   1.450
13275TIP3   OH261315   5.205   6.645   0.064
13275TIP3    H161316   5.203   6.620  -0.031
13275TIP3    H261317   5.293   6.682   0.074
13276TIP3   OH261318   4.754   6.027   0.117
13276TIP3    H161319   4.725   6.023   0.210
13276TIP3    H261320   4.729   5.938   0.088
13277TIP3   OH261321   4.335   6.299   1.169
13277TIP3    H161322   4.264   6.297   1.235
13277TIP3    H261323   4.332   6.392   1.136
13278TIP3   OH261324   4.332   6.315   0.657
13278TIP3    H161325   4.239   6.287   0.645
13278TIP3    H261326   4.372   6.283   0.574
13279TIP3   OH261327   4.885   6.362   0.533
13279TIP3    H161328   4.843   6.445   0.502
13279TIP3    H261329   4.955   6.347   0.468
13280TIP3   OH261330   4.792   6.383   1.680
13280TIP3    H161331   4.738   6.307   1.712
13280TIP3    H261332   4.875   6.369   1.728
13281TIP3   OH261333   4.985   6.311   0.820
13281TIP3    H161334   4.962   6.366   0.744
13281TIP3    H261335   5.000   6.225   0.773
13282TIP3   OH261336   4.101   6.328   1.342
13282TIP3    H161337   4.104   6.369   1.431
13282TIP3    H261338   4.054   6.245   1.359
13283TIP3   OH261339   4.456   6.093   0.060
13283TIP3    H161340   4.402   6.027   0.107
13283TIP3    H261341   4.396   6.121  -0.011
13284TIP3   OH261342   3.765   6.039   0.737
13284TIP3    H161343   3.832   6.035   0.808
13284TIP3    H261344   3.810   5.999   0.660
13285TIP3   OH261345   3.893   6.112   0.276
13285TIP3    H161346   3.943   6.172   0.217
13285TIP3    H261347   3.823   6.172   0.307
13286TIP3   OH261348   4.909   6.470   1.278
13286TIP3    H161349   4.945   6.403   1.217
13286TIP3    H261350   4.863   6.417   1.345
13287TIP3   OH261351   4.589   6.066   0.760
13287TIP3    H161352   4.495   6.068   0.789
13287TIP3    H261353   4.637   6.053   0.842
13288TIP3   OH261354   4.070   6.224   0.646
13288TIP3    H161355   3.981   6.237   0.608
13288TIP3    H261356   4.099   6.140   0.606
13289TIP3   OH261357   4.434   6.228   0.410
13289TIP3    H161358   4.530   6.238   0.427
13289TIP3    H261359   4.411   6.294   0.342
13290TIP3   OH261360   5.029   5.990   1.085
13290TIP3    H161361   4.960   5.997   1.154
13290TIP3    H261362   4.981   5.967   1.005
13291TIP3   OH261363   4.304   6.345   0.168
13291TIP3    H161364   4.248   6.309   0.097
13291TIP3    H261365   4.386   6.365   0.120
13292TIP3   OH261366   4.117   6.803   1.673
13292TIP3    H161367   4.189   6.827   1.734
13292TIP3    H261368   4.039   6.815   1.731
13293TIP3   OH261369   4.717   6.343   0.949
13293TIP3    H161370   4.776   6.288   0.895
13293TIP3    H261371   4.703   6.289   1.028
13294TIP3   OH261372   4.218   5.957   0.593
13294TIP3    H161373   4.187   5.865   0.590
13294TIP3    H261374   4.297   5.952   0.537
13295TIP3   OH261375   4.581   6.177   1.190
13295TIP3    H161376   4.498   6.227   1.200
13295TIP3    H261377   4.636   6.210   1.264
13296TIP3   OH261378   4.640   6.800   0.361
13296TIP3    H161379   4.561   6.752   0.327
13296TIP3    H261380   4.619   6.809   0.456
13297TIP3   OH261381   5.356   6.716   1.239
13297TIP3    H161382   5.415   6.765   1.179
13297TIP3    H261383   5.270   6.725   1.193
13298TIP3   OH261384   5.025   6.083   0.176
13298TIP3    H161385   4.930   6.095   0.161
13298TIP3    H261386   5.056   6.168   0.213
13299TIP3   OH261387   4.788   6.825   1.484
13299TIP3    H161388   4.755   6.782   1.563
13299TIP3    H261389   4.766   6.918   1.494
13300TIP3   OH261390   5.096   6.272   0.344
13300TIP3    H161391   5.186   6.256   0.379
13300TIP3    H261392   5.105   6.353   0.291
13301TIP3   OH261393   4.150   6.736   0.940
13301TIP3    H161394   4.221   6.730   0.873
13301TIP3    H261395   4.157   6.650   0.985
13302TIP3   OH261396   4.851   6.947   0.264
13302TIP3    H161397   4.817   7.030   0.300
13302TIP3    H261398   4.777   6.885   0.283
13303TIP3   OH261399   3.849   6.578   1.466
13303TIP3    H161400   3.869   6.534   1.551
13303TIP3    H261401   3.788   6.516   1.423
13304TIP3   OH261402   4.551   6.533   1.686
13304TIP3    H161403   4.520   6.507   1.598
13304TIP3    H261404   4.644   6.504   1.685
13305TIP3   OH261405   5.017   7.072   1.475
13305TIP3    H161406   4.923   7.084   1.455
13305TIP3    H261407   5.015   7.094   1.571
13306TIP3   OH261408   5.587   6.286   0.320
13306TIP3    H161409   5.529   6.254   0.249
13306TIP3    H261410   5.595   6.380   0.290
13307TIP3   OH261411   5.586   6.871   1.600
13307TIP3    H161412   5.497   6.893   1.563
13307TIP3    H261413   5.640   6.867   1.518
13308TIP3   OH261414   5.423   7.156   0.366
13308TIP3    H161415   5.374   7.079   0.390
13308TIP3    H261416   5.440   7.152   0.271
13309TIP3   OH261417   5.136   6.651   1.064
13309TIP3    H161418   5.041   6.628   1.059
13309TIP3    H261419   5.178   6.572   1.028
13310TIP3   OH261420   4.389   7.080   0.675
13310TIP3    H161421   4.436   7.162   0.656
13310TIP3    H261422   4.300   7.105   0.647
13311TIP3   OH261423   3.962   6.569   0.132
13311TIP3    H161424   4.024   6.631   0.175
13311TIP3    H261425   3.875   6.598   0.164
13312TIP3   OH261426   4.531   6.849   0.632
13312TIP3    H161427   4.501   6.942   0.639
13312TIP3    H261428   4.456   6.803   0.675
13313TIP3   OH261429   4.590   7.247   1.251
13313TIP3    H161430   4.615   7.340   1.241
13313TIP3    H261431   4.634   7.230   1.336
13314TIP3   OH261432   4.367  -0.004   0.557
13314TIP3    H161433   4.283   0.015   0.596
13314TIP3    H261434   4.416   0.069   0.602
13315TIP3   OH261435   4.931   6.871   1.235
13315TIP3    H161436   4.893   6.848   1.322
13315TIP3    H261437   4.992   6.797   1.217
13316TIP3   OH261438   5.156   6.967   0.143
13316TIP3    H161439   5.186   6.928   0.225
13316TIP3    H261440   5.060   6.957   0.153
13317TIP3   OH261441   5.202   7.323   1.484
13317TIP3    H161442   5.136   7.273   1.434
13317TIP3    H261443   5.224   7.395   1.423
13318TIP3   OH261444   4.015   6.053   1.424
13318TIP3    H161445   3.924   6.087   1.417
13318TIP3    H261446   4.001   5.966   1.465
13319TIP3   OH261447   5.240   6.836   0.370
13319TIP3    H161448   5.214   6.756   0.420
13319TIP3    H261449   5.335   6.844   0.385
13320TIP3   OH261450   3.977   7.229   1.265
13320TIP3    H161451   4.003   7.137   1.265
13320TIP3    H261452   3.999   7.261   1.353
13321TIP3   OH261453   4.454   7.036   0.234
13321TIP3    H161454   4.475   6.983   0.311
13321TIP3    H261455   4.459   7.128   0.266
13322TIP3   OH261456   4.102   6.759   0.285
13322TIP3    H161457   4.034   6.799   0.343
13322TIP3    H261458   4.156   6.837   0.260
13323TIP3   OH261459   4.887   6.029   1.315
13323TIP3    H161460   4.959   6.034   1.379
13323TIP3    H261461   4.849   5.940   1.334
13324TIP3   OH261462   4.960   5.991   0.425
13324TIP3    H161463   4.989   6.036   0.344
13324TIP3    H261464   5.021   6.027   0.490
13325TIP3   OH261465   4.732   7.204   0.310
13325TIP3    H161466   4.648   7.252   0.313
13325TIP3    H261467   4.784   7.254   0.244
13326TIP3   OH261468   4.684   6.163   0.506
13326TIP3    H161469   4.765   6.217   0.510
13326TIP3    H261470   4.659   6.148   0.600
13327TIP3   OH261471   4.740   6.263   1.426
13327TIP3    H161472   4.749   6.320   1.504
13327TIP3    H261473   4.806   6.194   1.436
13328TIP3   OH261474   4.769   5.868   0.595
13328TIP3    H161475   4.740   5.932   0.663
13328TIP3    H261476   4.841   5.922   0.552
13329TIP3   OH261477   4.474  -0.032   0.305
13329TIP3    H161478   4.482   0.051   0.258
13329TIP3    H261479   4.442  -0.003   0.393
13330TIP3   OH261480   4.337   5.977   0.269
13330TIP3    H161481   4.330   6.068   0.305
13330TIP3    H261482   4.428   5.954   0.297
13331TIP3   OH261483   5.359   6.051   1.511
13331TIP3    H161484   5.266   6.081   1.498
13331TIP3    H261485   5.389   6.051   1.418
13332TIP3   OH261486   5.220   6.430   0.912
13332TIP3    H161487   5.138   6.384   0.885
13332TIP3    H261488   5.266   6.359   0.964
13333TIP3   OH261489   4.162   7.019   0.174
13333TIP3    H161490   4.224   7.088   0.200
13333TIP3    H261491   4.212   6.979   0.100
13334TIP3   OH261492   3.999   6.290   0.091
13334TIP3    H161493   3.994   6.386   0.103
13334TIP3    H261494   3.911   6.268   0.058
13335TIP3   OH261495   4.076   5.768   0.958
13335TIP3    H161496   4.055   5.770   0.862
13335TIP3    H261497   4.033   5.684   0.985
13336TIP3   OH261498   3.977   7.156   0.579
13336TIP3    H161499   3.890   7.201   0.572
13336TIP3    H261500   4.019   7.207   0.508
13337TIP3   OH261501   4.381   7.298   1.874
13337TIP3    H161502   4.451   7.238   1.892
13337TIP3    H261503   4.360   7.279   1.779
13338TIP3   OH261504   4.805   7.313   0.065
13338TIP3    H161505   4.730   7.248   0.062
13338TIP3    H261506   4.849   7.249   0.004
13339TIP3   OH261507   5.010   7.143   1.735
13339TIP3    H161508   4.980   7.056   1.766
13339TIP3    H261509   5.087   7.161   1.793
13340TIP3   OH261510   5.229   7.243   0.027
13340TIP3    H161511   5.255   7.163   0.074
13340TIP3    H261512   5.305   7.263  -0.030
13341TIP3   OH261513   3.885   6.803   1.802
13341TIP3    H161514   3.901   6.712   1.771
13341TIP3    H261515   3.810   6.831   1.746
13342TIP3   OH261516   4.325   6.838   0.018
13342TIP3    H161517   4.333   6.755   0.065
13342TIP3    H261518   4.385   6.823  -0.058
13343TIP3   OH261519   4.556   6.800   1.741
13343TIP3    H161520   4.521   6.829   1.655
13343TIP3    H261521   4.565   6.702   1.731
13344TIP3   OH261522   5.125   6.787   1.480
13344TIP3    H161523   5.203   6.847   1.471
13344TIP3    H261524   5.053   6.852   1.484
13345TIP3   OH261525   3.974   6.525   1.740
13345TIP3    H161526   4.014   6.439   1.730
13345TIP3    H261527   3.949   6.524   1.834
13346TIP3   OH261528   4.439   6.640   0.244
13346TIP3    H161529   4.390   6.586   0.309
13346TIP3    H261530   4.468   6.571   0.180
13347TIP3   OH261531   4.365   6.419   1.478
13347TIP3    H161532   4.305   6.491   1.503
13347TIP3    H261533   4.403   6.455   1.395
13348TIP3   OH261534   4.547   6.457   0.068
13348TIP3    H161535   4.532   6.446  -0.027
13348TIP3    H261536   4.644   6.467   0.074
13349TIP3   OH261537   4.871   6.675   1.808
13349TIP3    H161538   4.967   6.676   1.800
13349TIP3    H261539   4.854   6.599   1.866
13350TIP3   OH261540   5.464   6.708  16.020
13350TIP3    H161541   5.455   6.655  15.938
13350TIP3    H261542   5.485   6.796  15.989
13351TIP3   OH261543   4.403   6.155   1.584
13351TIP3    H161544   4.418   6.087   1.516
13351TIP3    H261545   4.401   6.237   1.529
13352TIP3   OH261546   4.444   5.996   1.338
13352TIP3    H161547   4.497   6.041   1.267
13352TIP3    H261548   4.356   5.986   1.294
13353TIP3   OH261549   4.600   6.542   1.361
13353TIP3    H161550   4.675   6.526   1.303
13353TIP3    H261551   4.565   6.626   1.329
13354TIP3   OH261552   5.040   6.320   1.859
13354TIP3    H161553   5.062   6.226   1.849
13354TIP3    H261554   5.127   6.364   1.861
13355TIP3   OH261555   5.172   6.598   1.672
13355TIP3    H161556   5.148   6.671   1.612
13355TIP3    H261557   5.269   6.595   1.654
13356TIP3   OH261558   4.253   6.276   1.779
13356TIP3    H161559   4.172   6.227   1.754
13356TIP3    H261560   4.317   6.249   1.711
13357TIP3   OH261561   4.523   5.740   1.379
13357TIP3    H161562   4.509   5.836   1.364
13357TIP3    H261563   4.450   5.703   1.326
13358TIP3   OH261564   4.651   6.171   1.737
13358TIP3    H161565   4.624   6.151   1.828
13358TIP3    H261566   4.572   6.153   1.683
13359TIP3   OH261567   4.924   6.086   1.645
13359TIP3    H161568   4.828   6.091   1.657
13359TIP3    H261569   4.951   6.022   1.713
13360TIP3   OH261570   5.083   5.949   1.839
13360TIP3    H161571   5.076   5.851   1.841
13360TIP3    H261572   5.055   5.977   1.928
13361TIP3   OH261573   4.073   6.072   1.750
13361TIP3    H161574   4.080   5.999   1.686
13361TIP3    H261575   4.047   6.029   1.835
13362TIP3   OH261576   4.544   5.677   1.647
13362TIP3    H161577   4.614   5.608   1.644
13362TIP3    H261578   4.536   5.693   1.551
13363TIP3   OH261579   4.577   5.837   1.856
13363TIP3    H161580   4.568   5.788   1.771
13363TIP3    H261581   4.528   5.918   1.845
13364TIP3   OH261582   3.889   6.987   0.120
13364TIP3    H161583   3.984   7.000   0.143
13364TIP3    H261584   3.894   6.926   0.047
13365TIP3   OH261585   3.836   7.338   0.806
13365TIP3    H161586   3.806   7.249   0.826
13365TIP3    H261587   3.865   7.373   0.891
13366TIP3   OH261588   5.401   6.951   1.861
13366TIP3    H161589   5.311   6.946   1.897
13366TIP3    H261590   5.437   7.032   1.902
13367TIP3   OH261591   5.528   6.785   0.413
13367TIP3    H161592   5.618   6.822   0.421
13367TIP3    H261593   5.533   6.705   0.469
13368TIP3   OH261594   5.564   6.597   0.596
13368TIP3    H161595   5.495   6.535   0.631
13368TIP3    H261596   5.630   6.602   0.667
13369TIP3   OH261597   5.542   6.862   1.086
13369TIP3    H161598   5.628   6.825   1.057
13369TIP3    H261599   5.558   6.959   1.077
13370TIP3   OH261600   5.395   7.154   1.320
13370TIP3    H161601   5.329   7.188   1.381
13370TIP3    H261602   5.342   7.110   1.250
13371TIP3   OH261603   5.598   6.575   0.234
13371TIP3    H161604   5.541   6.610   0.162
13371TIP3    H261605   5.591   6.646   0.299
13372TIP3   OH261606   5.397   6.300   0.095
13372TIP3    H161607   5.438   6.361   0.030
13372TIP3    H261608   5.416   6.219   0.047
13373TIP3   OH261609   5.350   6.440   0.649
13373TIP3    H161610   5.334   6.343   0.646
13373TIP3    H261611   5.314   6.461   0.737
13374TIP3   OH261612   3.850   6.648   1.054
13374TIP3    H161613   3.869   6.639   0.958
13374TIP3    H261614   3.939   6.631   1.091
13375TIP3   OH261615   5.434   6.636   1.616
13375TIP3    H161616   5.495   6.561   1.631
13375TIP3    H261617   5.494   6.713   1.618
13376TIP3   OH261618   5.585   6.425   1.683
13376TIP3    H161619   5.497   6.385   1.666
13376TIP3    H261620   5.643   6.348   1.675
13377TIP3   OH261621   5.316   6.199   0.494
13377TIP3    H161622   5.346   6.105   0.508
13377TIP3    H261623   5.396   6.238   0.457
13378TIP3   OH261624   5.381   6.254   1.040
13378TIP3    H161625   5.477   6.276   1.038
13378TIP3    H261626   5.360   6.266   1.134
13379TIP3   OH261627   5.387   6.325   1.318
13379TIP3    H161628   5.299   6.354   1.351
13379TIP3    H261629   5.429   6.410   1.294
13380TIP3   OH261630   3.812   6.177   1.668
13380TIP3    H161631   3.905   6.159   1.689
13380TIP3    H261632   3.765   6.096   1.700
13381TIP3   OH261633   5.613   5.729   1.852
13381TIP3    H161634   5.648   5.663   1.790
13381TIP3    H261635   5.626   5.811   1.802
13382TIP3   OH261636   5.397   5.923   0.487
13382TIP3    H161637   5.397   5.886   0.580
13382TIP3    H261638   5.322   5.867   0.457
13383TIP3   OH261639   3.932   6.006   0.954
13383TIP3    H161640   3.978   5.925   0.982
13383TIP3    H261641   3.984   6.076   0.995
13384TIP3   OH261642   3.761   6.305   1.060
13384TIP3    H161643   3.816   6.282   0.982
13384TIP3    H261644   3.805   6.388   1.086
13385TIP3   OH261645   5.566   5.939   1.688
13385TIP3    H161646   5.472   5.966   1.682
13385TIP3    H261647   5.572   5.885   1.607
13386TIP3   OH261648   5.567   5.931   0.156
13386TIP3    H161649   5.607   5.860   0.105
13386TIP3    H261650   5.637   5.997   0.156
13387TIP3   OH261651   3.796   5.933   0.466
13387TIP3    H161652   3.702   5.952   0.451
13387TIP3    H261653   3.840   5.981   0.395
13388TIP3   OH261654   3.792   5.800   1.297
13388TIP3    H161655   3.725   5.779   1.364
13388TIP3    H261656   3.746   5.867   1.242
13389TIP3   OH261657   4.013   7.123   1.713
13389TIP3    H161658   3.928   7.139   1.667
13389TIP3    H261659   3.987   7.111   1.805
13390TIP3   OH261660   4.309   7.219   1.345
13390TIP3    H161661   4.264   7.297   1.310
13390TIP3    H261662   4.397   7.224   1.306
13391TIP3   OH261663   5.467   5.749   1.471
13391TIP3    H161664   5.384   5.779   1.430
13391TIP3    H261665   5.485   5.668   1.418
13392TIP3   OH261666   4.200   7.268   0.884
13392TIP3    H161667   4.182   7.180   0.921
13392TIP3    H261668   4.277   7.291   0.943
13393TIP3   OH261669   4.417   7.276   1.002
13393TIP3    H161670   4.480   7.218   0.959
13393TIP3    H261671   4.460   7.314   1.080
13394TIP3   OH261672   4.803   5.894   0.900
13394TIP3    H161673   4.740   5.826   0.927
13394TIP3    H261674   4.864   5.841   0.845
13395TIP3   OH261675   5.322   5.698   0.915
13395TIP3    H161676   5.380   5.755   0.858
13395TIP3    H261677   5.236   5.733   0.884
13396TIP3   OH261678   5.497   5.817   0.746
13396TIP3    H161679   5.557   5.764   0.691
13396TIP3    H261680   5.536   5.906   0.745
13397TIP3   OH261681   4.043   5.755   0.685
13397TIP3    H161682   3.964   5.733   0.633
13397TIP3    H261683   4.091   5.670   0.681
13398TIP3   OH261684   3.921   5.731   0.261
13398TIP3    H161685   3.969   5.795   0.204
13398TIP3    H261686   3.862   5.788   0.314
13399TIP3   OH261687   4.493   5.747   0.664
13399TIP3    H161688   4.583   5.784   0.659
13399TIP3    H261689   4.487   5.726   0.757
13400TIP3   OH261690   5.016   5.740   0.846
13400TIP3    H161691   5.055   5.760   0.757
13400TIP3    H261692   5.022   5.643   0.843
13401TIP3   OH261693   5.189   5.748   0.382
13401TIP3    H161694   5.118   5.814   0.382
13401TIP3    H261695   5.145   5.667   0.416
13402TIP3   OH261696   3.894  -0.038   0.393
13402TIP3    H161697   3.854  -0.031   0.304
13402TIP3    H261698   3.919   0.054   0.394
13403TIP3   OH261699   4.106   5.919   0.111
13403TIP3    H161700   4.159   5.863   0.055
13403TIP3    H261701   4.171   5.957   0.172
13404TIP3   OH261702   4.608   5.950   0.350
13404TIP3    H161703   4.633   5.891   0.424
13404TIP3    H261704   4.611   6.036   0.398
13405TIP3   OH261705   4.034   5.811   1.635
13405TIP3    H161706   3.995   5.729   1.673
13405TIP3    H261707   4.126   5.802   1.665
13406TIP3   OH261708   4.236   5.746   1.795
13406TIP3    H161709   4.323   5.706   1.770
13406TIP3    H261710   4.195   5.665   1.834
13407TIP3   OH261711   5.074   5.677   1.809
13407TIP3    H161712   5.083   5.629   1.894
13407TIP3    H261713   5.165   5.674   1.774
13408TIP3   OH261714   5.388   7.275   1.685
13408TIP3    H161715   5.315   7.265   1.619
13408TIP3    H261716   5.390   7.372   1.693
13409TIP3   OH261717   6.837   6.667   0.674
13409TIP3    H161718   6.840   6.765   0.667
13409TIP3    H261719   6.766   6.644   0.611
13410TIP3   OH261720   6.725   6.595   1.022
13410TIP3    H161721   6.722   6.529   1.092
13410TIP3    H261722   6.692   6.546   0.945
13411TIP3   OH261723   5.960   6.560   1.177
13411TIP3    H161724   5.968   6.493   1.249
13411TIP3    H261725   6.034   6.619   1.199
13412TIP3   OH261726   7.094   6.888   0.850
13412TIP3    H161727   7.052   6.817   0.899
13412TIP3    H261728   7.099   6.958   0.916
13413TIP3   OH261729   6.055   7.005   1.031
13413TIP3    H161730   6.021   6.920   0.996
13413TIP3    H261731   6.150   6.985   1.035
13414TIP3   OH261732   5.716   6.365   0.576
13414TIP3    H161733   5.672   6.451   0.569
13414TIP3    H261734   5.660   6.310   0.520
13415TIP3   OH261735   5.786   6.585   0.787
13415TIP3    H161736   5.813   6.505   0.836
13415TIP3    H261737   5.859   6.594   0.725
13416TIP3   OH261738   6.561   6.834   1.067
13416TIP3    H161739   6.596   6.771   1.002
13416TIP3    H261740   6.641   6.851   1.120
13417TIP3   OH261741   6.877   6.281   1.098
13417TIP3    H161742   6.896   6.185   1.097
13417TIP3    H261743   6.869   6.296   1.002
13418TIP3   OH261744   6.191   6.090   0.822
13418TIP3    H161745   6.200   6.174   0.775
13418TIP3    H261746   6.150   6.033   0.754
13419TIP3   OH261747   6.965   6.101   0.660
13419TIP3    H161748   7.032   6.068   0.725
13419TIP3    H261749   7.020   6.154   0.602
13420TIP3   OH261750   5.853   6.331   0.896
13420TIP3    H161751   5.921   6.275   0.940
13420TIP3    H261752   5.862   6.300   0.804
13421TIP3   OH261753   6.370   6.486   0.824
13421TIP3    H161754   6.435   6.429   0.867
13421TIP3    H261755   6.316   6.420   0.777
13422TIP3   OH261756   6.080   5.980   1.227
13422TIP3    H161757   6.053   6.036   1.151
13422TIP3    H261758   6.011   6.003   1.294
13423TIP3   OH261759   6.811   6.927   0.581
13423TIP3    H161760   6.783   6.900   0.493
13423TIP3    H261761   6.781   7.020   0.586
13424TIP3   OH261762   6.333   6.744   1.253
13424TIP3    H161763   6.261   6.808   1.270
13424TIP3    H261764   6.403   6.804   1.223
13425TIP3   OH261765   7.127   6.032   0.865
13425TIP3    H161766   7.121   5.951   0.915
13425TIP3    H261767   7.203   6.077   0.909
13426TIP3   OH261768   6.036   6.167   1.027
13426TIP3    H161769   6.100   6.234   1.060
13426TIP3    H261770   6.089   6.123   0.956
13427TIP3   OH261771   6.177   6.943   1.333
13427TIP3    H161772   6.172   7.033   1.297
13427TIP3    H261773   6.087   6.937   1.376
13428TIP3   OH261774   5.780   6.911   0.413
13428TIP3    H161775   5.761   6.939   0.322
13428TIP3    H261776   5.793   6.995   0.462
13429TIP3   OH261777   7.141   7.071   1.092
13429TIP3    H161778   7.045   7.080   1.101
13429TIP3    H261779   7.172   7.160   1.068
13430TIP3   OH261780   7.170   5.908   1.217
13430TIP3    H161781   7.097   5.971   1.219
13430TIP3    H261782   7.241   5.953   1.170
13431TIP3   OH261783   6.477   5.713   0.972
13431TIP3    H161784   6.464   5.616   0.966
13431TIP3    H261785   6.389   5.744   1.002
13432TIP3   OH261786   6.974   7.233   0.739
13432TIP3    H161787   7.024   7.168   0.687
13432TIP3    H261788   7.010   7.317   0.707
13433TIP3   OH261789   7.093   7.041   0.596
13433TIP3    H161790   7.064   6.972   0.535
13433TIP3    H261791   7.097   6.994   0.682
13434TIP3   OH261792   7.235   6.911   1.452
13434TIP3    H161793   7.266   6.844   1.388
13434TIP3    H261794   7.276   6.989   1.411
13435TIP3   OH261795   6.704   6.593   0.422
13435TIP3    H161796   6.634   6.650   0.385
13435TIP3    H261797   6.775   6.601   0.355
13436TIP3   OH261798   6.707   6.441   0.132
13436TIP3    H161799   6.783   6.445   0.192
13436TIP3    H261800   6.741   6.380   0.066
13437TIP3   OH261801   7.047   6.616   0.515
13437TIP3    H161802   6.974   6.639   0.577
13437TIP3    H261803   7.094   6.547   0.568
13438TIP3   OH261804   7.037   6.428   1.426
13438TIP3    H161805   7.042   6.509   1.480
13438TIP3    H261806   6.977   6.461   1.356
13439TIP3   OH261807   6.210   6.680   0.707
13439TIP3    H161808   6.178   6.640   0.623
13439TIP3    H261809   6.271   6.610   0.741
13440TIP3   OH261810   6.344   7.019   0.975
13440TIP3    H161811   6.341   6.964   0.896
13440TIP3    H261812   6.421   6.983   1.023
13441TIP3   OH261813   6.244   6.554   1.072
13441TIP3    H161814   6.301   6.566   0.993
13441TIP3    H261815   6.281   6.620   1.134
13442TIP3   OH261816   6.881   7.110   1.143
13442TIP3    H161817   6.853   7.173   1.209
13442TIP3    H261818   6.858   7.024   1.186
13443TIP3   OH261819   6.338   6.998   1.542
13443TIP3    H161820   6.299   7.073   1.591
13443TIP3    H261821   6.270   6.978   1.473
13444TIP3   OH261822   6.937   6.529   0.283
13444TIP3    H161823   6.990   6.550   0.363
13444TIP3    H261824   6.976   6.584   0.213
13445TIP3   OH261825   6.031   6.613   1.460
13445TIP3    H161826   6.036   6.680   1.531
13445TIP3    H261827   5.938   6.623   1.435
13446TIP3   OH261828   6.705   7.204   0.632
13446TIP3    H161829   6.755   7.236   0.707
13446TIP3    H261830   6.652   7.279   0.604
13447TIP3   OH261831   6.159   7.205   1.617
13447TIP3    H161832   6.158   7.188   1.521
13447TIP3    H261833   6.066   7.189   1.642
13448TIP3   OH261834   7.284   5.700   0.262
13448TIP3    H161835   7.198   5.725   0.300
13448TIP3    H261836   7.319   5.782   0.227
13449TIP3   OH261837   6.108   6.583   0.468
13449TIP3    H161838   6.080   6.661   0.416
13449TIP3    H261839   6.042   6.517   0.447
13450TIP3   OH261840   5.717   6.825   1.355
13450TIP3    H161841   5.671   6.817   1.269
13450TIP3    H261842   5.722   6.730   1.379
13451TIP3   OH261843   5.695   7.101   1.032
13451TIP3    H161844   5.790   7.088   1.034
13451TIP3    H261845   5.685   7.178   1.090
13452TIP3   OH261846   6.610   7.126   1.488
13452TIP3    H161847   6.621   7.205   1.541
13452TIP3    H261848   6.525   7.087   1.518
13453TIP3   OH261849   7.204   6.325   1.657
13453TIP3    H161850   7.184   6.364   1.572
13453TIP3    H261851   7.236   6.235   1.627
13454TIP3   OH261852   5.944   6.957   1.453
13454TIP3    H161853   5.967   6.917   1.539
13454TIP3    H261854   5.859   6.916   1.430
13455TIP3   OH261855   6.211   5.802   1.049
13455TIP3    H161856   6.121   5.792   1.011
13455TIP3    H261857   6.200   5.887   1.095
13456TIP3   OH261858   6.675   5.771   1.385
13456TIP3    H161859   6.715   5.729   1.463
13456TIP3    H261860   6.578   5.757   1.399
13457TIP3   OH261861   7.004   6.152   1.473
13457TIP3    H161862   6.951   6.135   1.554
13457TIP3    H261863   6.988   6.245   1.451
13458TIP3   OH261864   7.093   6.642   0.063
13458TIP3    H161865   7.089   6.621  -0.033
13458TIP3    H261866   7.177   6.685   0.070
13459TIP3   OH261867   6.639   6.027   0.117
13459TIP3    H161868   6.611   6.023   0.210
13459TIP3    H261869   6.615   5.938   0.088
13460TIP3   OH261870   6.221   6.299   1.169
13460TIP3    H161871   6.149   6.297   1.235
13460TIP3    H261872   6.218   6.392   1.136
13461TIP3   OH261873   6.217   6.315   0.657
13461TIP3    H161874   6.125   6.287   0.645
13461TIP3    H261875   6.257   6.283   0.574
13462TIP3   OH261876   6.771   6.361   0.534
13462TIP3    H161877   6.729   6.445   0.502
13462TIP3    H261878   6.841   6.347   0.468
13463TIP3   OH261879   6.677   6.383   1.680
13463TIP3    H161880   6.624   6.306   1.712
13463TIP3    H261881   6.761   6.369   1.728
13464TIP3   OH261882   6.873   6.311   0.820
13464TIP3    H161883   6.849   6.367   0.744
13464TIP3    H261884   6.884   6.226   0.773
13465TIP3   OH261885   5.986   6.328   1.343
13465TIP3    H161886   5.990   6.368   1.431
13465TIP3    H261887   5.940   6.244   1.360
13466TIP3   OH261888   6.342   6.093   0.060
13466TIP3    H161889   6.288   6.027   0.107
13466TIP3    H261890   6.282   6.121  -0.011
13467TIP3   OH261891   5.652   6.042   0.736
13467TIP3    H161892   5.717   6.034   0.808
13467TIP3    H261893   5.695   5.998   0.660
13468TIP3   OH261894   5.779   6.112   0.276
13468TIP3    H161895   5.828   6.172   0.216
13468TIP3    H261896   5.708   6.172   0.306
13469TIP3   OH261897   6.794   6.470   1.278
13469TIP3    H161898   6.831   6.403   1.217
13469TIP3    H261899   6.749   6.417   1.345
13470TIP3   OH261900   6.474   6.066   0.759
13470TIP3    H161901   6.380   6.068   0.789
13470TIP3    H261902   6.523   6.053   0.842
13471TIP3   OH261903   5.956   6.224   0.646
13471TIP3    H161904   5.866   6.237   0.608
13471TIP3    H261905   5.984   6.140   0.606
13472TIP3   OH261906   6.319   6.228   0.410
13472TIP3    H161907   6.415   6.238   0.427
13472TIP3    H261908   6.297   6.294   0.342
13473TIP3   OH261909   6.913   5.988   1.084
13473TIP3    H161910   6.845   5.997   1.154
13473TIP3    H261911   6.862   5.969   1.004
13474TIP3   OH261912   6.189   6.345   0.168
13474TIP3    H161913   6.133   6.309   0.097
13474TIP3    H261914   6.272   6.365   0.120
13475TIP3   OH261915   6.002   6.804   1.673
13475TIP3    H161916   6.075   6.825   1.732
13475TIP3    H261917   5.924   6.814   1.731
13476TIP3   OH261918   6.603   6.343   0.949
13476TIP3    H161919   6.663   6.288   0.896
13476TIP3    H261920   6.589   6.289   1.028
13477TIP3   OH261921   6.104   5.957   0.593
13477TIP3    H161922   6.073   5.865   0.590
13477TIP3    H261923   6.183   5.952   0.537
13478TIP3   OH261924   6.467   6.177   1.190
13478TIP3    H161925   6.384   6.227   1.200
13478TIP3    H261926   6.521   6.210   1.264
13479TIP3   OH261927   6.525   6.800   0.361
13479TIP3    H161928   6.446   6.751   0.328
13479TIP3    H261929   6.505   6.809   0.456
13480TIP3   OH261930   7.231   6.719   1.240
13480TIP3    H161931   7.295   6.750   1.174
13480TIP3    H261932   7.149   6.724   1.188
13481TIP3   OH261933   6.911   6.082   0.177
13481TIP3    H161934   6.816   6.094   0.161
13481TIP3    H261935   6.940   6.168   0.211
13482TIP3   OH261936   6.673   6.825   1.484
13482TIP3    H161937   6.640   6.782   1.563
13482TIP3    H261938   6.653   6.918   1.494
13483TIP3   OH261939   6.982   6.271   0.340
13483TIP3    H161940   7.070   6.258   0.380
13483TIP3    H261941   6.988   6.355   0.292
13484TIP3   OH261942   6.036   6.736   0.940
13484TIP3    H161943   6.107   6.730   0.873
13484TIP3    H261944   6.042   6.650   0.985
13485TIP3   OH261945   6.736   6.946   0.264
13485TIP3    H161946   6.702   7.030   0.300
13485TIP3    H261947   6.663   6.885   0.284
13486TIP3   OH261948   5.735   6.579   1.467
13486TIP3    H161949   5.755   6.534   1.551
13486TIP3    H261950   5.674   6.516   1.424
13487TIP3   OH261951   6.436   6.533   1.686
13487TIP3    H161952   6.406   6.507   1.598
13487TIP3    H261953   6.530   6.504   1.685
13488TIP3   OH261954   6.902   7.073   1.474
13488TIP3    H161955   6.808   7.084   1.455
13488TIP3    H261956   6.901   7.093   1.570
13489TIP3   OH261957   7.283   7.157   0.360
13489TIP3    H161958   7.260   7.073   0.393
13489TIP3    H261959   7.326   7.149   0.274
13490TIP3   OH261960   7.016   6.649   1.068
13490TIP3    H161961   6.922   6.626   1.057
13490TIP3    H261962   7.063   6.573   1.027
13491TIP3   OH261963   6.275   7.081   0.675
13491TIP3    H161964   6.322   7.162   0.656
13491TIP3    H261965   6.185   7.105   0.647
13492TIP3   OH261966   5.847   6.569   0.132
13492TIP3    H161967   5.910   6.630   0.176
13492TIP3    H261968   5.761   6.597   0.165
13493TIP3   OH261969   6.417   6.849   0.632
13493TIP3    H161970   6.387   6.942   0.639
13493TIP3    H261971   6.342   6.803   0.675
13494TIP3   OH261972   6.475   7.247   1.251
13494TIP3    H161973   6.501   7.340   1.240
13494TIP3    H261974   6.520   7.230   1.336
13495TIP3   OH261975   6.252  -0.004   0.555
13495TIP3    H161976   6.169   0.014   0.596
13495TIP3    H261977   6.301   0.069   0.602
13496TIP3   OH261978   6.818   6.871   1.235
13496TIP3    H161979   6.778   6.848   1.322
13496TIP3    H261980   6.877   6.796   1.217
13497TIP3   OH261981   7.043   6.967   0.144
13497TIP3    H161982   7.074   6.927   0.226
13497TIP3    H261983   6.947   6.958   0.153
13498TIP3   OH261984   7.089   7.327   1.484
13498TIP3    H161985   7.024   7.274   1.434
13498TIP3    H261986   7.112   7.397   1.421
13499TIP3   OH261987   5.900   6.052   1.421
13499TIP3    H161988   5.809   6.087   1.418
13499TIP3    H261989   5.889   5.967   1.467
13500TIP3   OH261990   7.125   6.832   0.366
13500TIP3    H161991   7.099   6.757   0.423
13500TIP3    H261992   7.218   6.845   0.390
13501TIP3   OH261993   5.862   7.229   1.265
13501TIP3    H161994   5.889   7.137   1.265
13501TIP3    H261995   5.885   7.261   1.353
13502TIP3   OH261996   6.338   7.036   0.233
13502TIP3    H161997   6.360   6.983   0.311
13502TIP3    H261998   6.346   7.127   0.267
13503TIP3   OH261999   5.987   6.760   0.284
13503TIP3    H162000   5.921   6.799   0.344
13503TIP3    H262001   6.043   6.837   0.261
13504TIP3   OH262002   6.771   6.028   1.315
13504TIP3    H162003   6.844   6.035   1.379
13504TIP3    H262004   6.734   5.940   1.334
13505TIP3   OH262005   6.848   5.989   0.425
13505TIP3    H162006   6.874   6.036   0.343
13505TIP3    H262007   6.906   6.029   0.490
13506TIP3   OH262008   6.617   7.203   0.309
13506TIP3    H162009   6.534   7.253   0.314
13506TIP3    H262010   6.670   7.254   0.245
13507TIP3   OH262011   6.570   6.162   0.507
13507TIP3    H162012   6.650   6.218   0.510
13507TIP3    H262013   6.545   6.149   0.600
13508TIP3   OH262014   6.625   6.263   1.425
13508TIP3    H162015   6.635   6.320   1.504
13508TIP3    H262016   6.692   6.193   1.436
13509TIP3   OH262017   6.654   5.868   0.596
13509TIP3    H162018   6.625   5.933   0.662
13509TIP3    H262019   6.724   5.922   0.551
13510TIP3   OH262020   6.358  -0.032   0.304
13510TIP3    H162021   6.369   0.052   0.260
13510TIP3    H262022   6.328  -0.004   0.393
13511TIP3   OH262023   6.223   5.977   0.269
13511TIP3    H162024   6.216   6.068   0.305
13511TIP3    H262025   6.313   5.954   0.297
13512TIP3   OH262026   7.242   6.046   1.504
13512TIP3    H162027   7.150   6.082   1.498
13512TIP3    H262028   7.275   6.055   1.414
13513TIP3   OH262029   7.106   6.430   0.917
13513TIP3    H162030   7.024   6.387   0.885
13513TIP3    H262031   7.148   6.357   0.965
13514TIP3   OH262032   6.045   7.022   0.171
13514TIP3    H162033   6.110   7.086   0.201
13514TIP3    H262034   6.099   6.978   0.102
13515TIP3   OH262035   5.885   6.290   0.091
13515TIP3    H162036   5.880   6.386   0.103
13515TIP3    H262037   5.797   6.268   0.058
13516TIP3   OH262038   5.962   5.767   0.958
13516TIP3    H162039   5.940   5.770   0.862
13516TIP3    H262040   5.918   5.684   0.984
13517TIP3   OH262041   5.861   7.154   0.579
13517TIP3    H162042   5.776   7.202   0.572
13517TIP3    H262043   5.905   7.206   0.510
13518TIP3   OH262044   6.254   7.283   1.877
13518TIP3    H162045   6.345   7.260   1.898
13518TIP3    H262046   6.252   7.280   1.778
13519TIP3   OH262047   6.692   7.295   0.061
13519TIP3    H162048   6.613   7.237   0.058
13519TIP3    H262049   6.738   7.238  -0.002
13520TIP3   OH262050   6.901   7.139   1.731
13520TIP3    H162051   6.864   7.058   1.769
13520TIP3    H262052   6.970   7.162   1.796
13521TIP3   OH262053   7.111   7.241   0.026
13521TIP3    H162054   7.141   7.164   0.073
13521TIP3    H262055   7.189   7.267  -0.029
13522TIP3   OH262056   5.770   6.804   1.802
13522TIP3    H162057   5.787   6.712   1.771
13522TIP3    H262058   5.695   6.829   1.745
13523TIP3   OH262059   6.210   6.841   0.016
13523TIP3    H162060   6.218   6.758   0.064
13523TIP3    H262061   6.270   6.822  -0.059
13524TIP3   OH262062   6.441   6.800   1.741
13524TIP3    H162063   6.406   6.829   1.655
13524TIP3    H262064   6.451   6.702   1.731
13525TIP3   OH262065   7.010   6.785   1.477
13525TIP3    H162066   7.087   6.847   1.470
13525TIP3    H262067   6.940   6.851   1.485
13526TIP3   OH262068   5.860   6.526   1.740
13526TIP3    H162069   5.900   6.438   1.730
13526TIP3    H262070   5.835   6.525   1.834
13527TIP3   OH262071   6.325   6.639   0.244
13527TIP3    H162072   6.276   6.586   0.309
13527TIP3    H262073   6.354   6.571   0.180
13528TIP3   OH262074   6.251   6.420   1.477
13528TIP3    H162075   6.191   6.491   1.503
13528TIP3    H262076   6.289   6.456   1.395
13529TIP3   OH262077   6.432   6.457   0.068
13529TIP3    H162078   6.417   6.445  -0.027
13529TIP3    H262079   6.530   6.467   0.074
13530TIP3   OH262080   6.754   6.675   1.808
13530TIP3    H162081   6.851   6.677   1.799
13530TIP3    H262082   6.740   6.598   1.866
13531TIP3   OH262083   6.290   6.158   1.584
13531TIP3    H162084   6.302   6.085   1.519
13531TIP3    H262085   6.287   6.238   1.528
13532TIP3   OH262086   6.330   5.995   1.337
13532TIP3    H162087   6.382   6.041   1.267
13532TIP3    H262088   6.242   5.986   1.295
13533TIP3   OH262089   6.486   6.542   1.361
13533TIP3    H162090   6.561   6.526   1.303
13533TIP3    H262091   6.450   6.626   1.329
13534TIP3   OH262092   6.925   6.321   1.859
13534TIP3    H162093   6.949   6.228   1.848
13534TIP3    H262094   7.013   6.363   1.859
13535TIP3   OH262095   7.055   6.598   1.671
13535TIP3    H162096   7.033   6.672   1.612
13535TIP3    H262097   7.152   6.595   1.655
13536TIP3   OH262098   6.136   6.282   1.775
13536TIP3    H162099   6.059   6.224   1.756
13536TIP3    H262100   6.203   6.246   1.713
13537TIP3   OH262101   6.410   5.739   1.377
13537TIP3    H162102   6.394   5.836   1.367
13537TIP3    H262103   6.334   5.703   1.327
13538TIP3   OH262104   6.537   6.172   1.737
13538TIP3    H162105   6.507   6.149   1.827
13538TIP3    H262106   6.458   6.152   1.684
13539TIP3   OH262107   6.807   6.086   1.645
13539TIP3    H162108   6.711   6.090   1.658
13539TIP3    H262109   6.837   6.022   1.712
13540TIP3   OH262110   6.974   5.948   1.841
13540TIP3    H162111   6.960   5.851   1.841
13540TIP3    H262112   6.940   5.978   1.928
13541TIP3   OH262113   5.946   6.074   1.748
13541TIP3    H162114   5.971   6.001   1.688
13541TIP3    H262115   5.938   6.029   1.834
13542TIP3   OH262116   6.431   5.676   1.647
13542TIP3    H162117   6.501   5.607   1.643
13542TIP3    H262118   6.421   5.694   1.551
13543TIP3   OH262119   6.468   5.839   1.855
13543TIP3    H162120   6.451   5.790   1.771
13543TIP3    H262121   6.407   5.915   1.846
13544TIP3   OH262122   5.777   6.994   0.112
13544TIP3    H162123   5.870   6.997   0.147
13544TIP3    H262124   5.782   6.919   0.052
13545TIP3   OH262125   5.721   7.338   0.805
13545TIP3    H162126   5.692   7.249   0.827
13545TIP3    H262127   5.750   7.373   0.890
13546TIP3   OH262128   7.269   6.962   1.848
13546TIP3    H162129   7.192   6.945   1.903
13546TIP3    H262130   7.321   7.024   1.901
13547TIP3   OH262131   7.280   7.150   1.323
13547TIP3    H162132   7.214   7.187   1.382
13547TIP3    H262133   7.228   7.109   1.250
13548TIP3   OH262134   7.311   6.297   0.086
13548TIP3    H162135   7.328   6.366   0.020
13548TIP3    H262136   7.296   6.216   0.040
13549TIP3   OH262137   7.197   6.446   0.651
13549TIP3    H162138   7.218   6.350   0.652
13549TIP3    H262139   7.199   6.466   0.746
13550TIP3   OH262140   5.735   6.649   1.053
13550TIP3    H162141   5.756   6.638   0.958
13550TIP3    H262142   5.824   6.631   1.091
13551TIP3   OH262143  -0.031   6.640   1.643
13551TIP3    H162144   0.028   6.563   1.640
13551TIP3    H262145   0.028   6.712   1.615
13552TIP3   OH262146   7.200   6.196   0.485
13552TIP3    H162147   7.231   6.107   0.514
13552TIP3    H262148   7.281   6.234   0.452
13553TIP3   OH262149   7.227   6.205   1.030
13553TIP3    H162150   7.323   6.219   1.018
13553TIP3    H262151   7.232   6.253   1.114
13554TIP3   OH262152   7.270   6.326   1.324
13554TIP3    H162153   7.182   6.356   1.352
13554TIP3    H262154   7.312   6.406   1.291
13555TIP3   OH262155   5.697   6.177   1.668
13555TIP3    H162156   5.791   6.158   1.689
13555TIP3    H262157   5.652   6.096   1.700
13556TIP3   OH262158   7.190   5.906   0.551
13556TIP3    H162159   7.279   5.880   0.583
13556TIP3    H262160   7.196   5.858   0.465
13557TIP3   OH262161   5.817   6.006   0.954
13557TIP3    H162162   5.864   5.925   0.982
13557TIP3    H262163   5.870   6.076   0.995
13558TIP3   OH262164   5.647   6.306   1.060
13558TIP3    H162165   5.702   6.283   0.982
13558TIP3    H262166   5.690   6.388   1.086
13559TIP3   OH262167   5.682   5.933   0.467
13559TIP3    H162168   5.587   5.951   0.452
13559TIP3    H262169   5.725   5.981   0.395
13560TIP3   OH262170   5.678   5.800   1.297
13560TIP3    H162171   5.610   5.779   1.364
13560TIP3    H262172   5.632   5.867   1.242
13561TIP3   OH262173   5.899   7.124   1.715
13561TIP3    H162174   5.815   7.137   1.665
13561TIP3    H262175   5.873   7.105   1.803
13562TIP3   OH262176   6.194   7.219   1.345
13562TIP3    H162177   6.150   7.297   1.310
13562TIP3    H262178   6.283   7.224   1.306
13563TIP3   OH262179   6.085   7.268   0.884
13563TIP3    H162180   6.068   7.180   0.921
13563TIP3    H262181   6.163   7.291   0.943
13564TIP3   OH262182   6.303   7.276   1.003
13564TIP3    H162183   6.366   7.218   0.959
13564TIP3    H262184   6.346   7.314   1.080
13565TIP3   OH262185   6.693   5.892   0.900
13565TIP3    H162186   6.625   5.828   0.927
13565TIP3    H262187   6.749   5.840   0.842
13566TIP3   OH262188   7.208   5.698   0.911
13566TIP3    H162189   7.265   5.760   0.862
13566TIP3    H262190   7.119   5.732   0.887
13567TIP3   OH262191   5.930   5.755   0.685
13567TIP3    H162192   5.850   5.733   0.633
13567TIP3    H262193   5.977   5.670   0.681
13568TIP3   OH262194   5.806   5.731   0.261
13568TIP3    H162195   5.855   5.795   0.204
13568TIP3    H262196   5.748   5.788   0.314
13569TIP3   OH262197   6.379   5.747   0.664
13569TIP3    H162198   6.469   5.784   0.659
13569TIP3    H262199   6.372   5.726   0.757
13570TIP3   OH262200   6.948   5.748   0.827
13570TIP3    H162201   6.945   5.760   0.731
13570TIP3    H262202   6.910   5.658   0.840
13571TIP3   OH262203   7.070   5.748   0.388
13571TIP3    H162204   6.999   5.814   0.379
13571TIP3    H262205   7.026   5.665   0.414
13572TIP3   OH262206   5.780  -0.039   0.392
13572TIP3    H162207   5.739  -0.030   0.304
13572TIP3    H262208   5.805   0.054   0.396
13573TIP3   OH262209   5.991   5.919   0.111
13573TIP3    H162210   6.045   5.863   0.055
13573TIP3    H262211   6.057   5.957   0.172
13574TIP3   OH262212   6.494   5.950   0.350
13574TIP3    H162213   6.518   5.891   0.424
13574TIP3    H262214   6.497   6.036   0.398
13575TIP3   OH262215   5.919   5.808   1.631
13575TIP3    H162216   5.882   5.729   1.675
13575TIP3    H262217   6.011   5.806   1.667
13576TIP3   OH262218   6.119   5.746   1.792
13576TIP3    H162219   6.209   5.713   1.772
13576TIP3    H262220   6.081   5.666   1.835
13577TIP3   OH262221   6.959   5.677   1.808
13577TIP3    H162222   6.968   5.630   1.893
13577TIP3    H262223   7.050   5.674   1.772
13578TIP3   OH262224   7.278   7.281   1.684
13578TIP3    H162225   7.205   7.263   1.622
13578TIP3    H262226   7.273   7.376   1.693
13579TIP3   OH262227   1.180   1.012   2.559
13579TIP3    H162228   1.182   1.109   2.552
13579TIP3    H262229   1.110   0.987   2.497
13580TIP3   OH262230   1.068   0.938   2.907
13580TIP3    H162231   1.066   0.873   2.978
13580TIP3    H262232   1.035   0.889   2.831
13581TIP3   OH262233   0.305   0.902   3.063
13581TIP3    H162234   0.313   0.835   3.132
13581TIP3    H262235   0.378   0.963   3.082
13582TIP3   OH262236   1.438   1.232   2.735
13582TIP3    H162237   1.395   1.161   2.783
13582TIP3    H262238   1.438   1.304   2.802
13583TIP3   OH262239   0.394   1.349   2.917
13583TIP3    H162240   0.361   1.264   2.880
13583TIP3    H262241   0.489   1.329   2.919
13584TIP3   OH262242   0.077   0.704   2.430
13584TIP3    H162243   0.029   0.786   2.463
13584TIP3    H262244   0.002   0.652   2.414
13585TIP3   OH262245   0.122   0.860   2.639
13585TIP3    H162246   0.152   0.847   2.730
13585TIP3    H262247   0.183   0.933   2.615
13586TIP3   OH262248   1.149   1.747   2.759
13586TIP3    H162249   1.213   1.677   2.731
13586TIP3    H262250   1.129   1.717   2.847
13587TIP3   OH262251   0.905   1.179   2.951
13587TIP3    H162252   0.939   1.114   2.888
13587TIP3    H262253   0.984   1.193   3.006
13588TIP3   OH262254   1.769   0.341   3.029
13588TIP3    H162255   1.782   0.404   3.104
13588TIP3    H262256   1.820   0.386   2.960
13589TIP3   OH262257   1.222   0.624   2.984
13589TIP3    H162258   1.237   0.527   2.984
13589TIP3    H262259   1.212   0.639   2.888
13590TIP3   OH262260   0.536   0.435   2.708
13590TIP3    H162261   0.543   0.519   2.659
13590TIP3    H262262   0.493   0.377   2.642
13591TIP3   OH262263   1.307   0.441   2.544
13591TIP3    H162264   1.374   0.411   2.611
13591TIP3    H262265   1.363   0.498   2.488
13592TIP3   OH262266   0.198   0.662   2.781
13592TIP3    H162267   0.270   0.615   2.825
13592TIP3    H262268   0.208   0.644   2.687
13593TIP3   OH262269   0.712   0.829   2.710
13593TIP3    H162270   0.778   0.772   2.753
13593TIP3    H262271   0.659   0.762   2.662
13594TIP3   OH262272   1.811   0.485   3.254
13594TIP3    H162273   1.747   0.558   3.245
13594TIP3    H262274   1.814   0.473   3.350
13595TIP3   OH262275   0.423   0.325   3.112
13595TIP3    H162276   0.395   0.379   3.036
13595TIP3    H262277   0.353   0.347   3.178
13596TIP3   OH262278   1.154   1.272   2.467
13596TIP3    H162279   1.126   1.243   2.379
13596TIP3    H262280   1.122   1.365   2.472
13597TIP3   OH262281   0.676   1.087   3.140
13597TIP3    H162282   0.603   1.151   3.155
13597TIP3    H262283   0.746   1.147   3.108
13598TIP3   OH262284   1.488   0.375   2.743
13598TIP3    H162285   1.465   0.299   2.798
13598TIP3    H262286   1.554   0.419   2.798
13599TIP3   OH262287   0.379   0.508   2.912
13599TIP3    H162288   0.440   0.576   2.947
13599TIP3    H262289   0.433   0.466   2.842
13600TIP3   OH262290   0.519   1.286   3.218
13600TIP3    H162291   0.515   1.377   3.183
13600TIP3    H262292   0.430   1.281   3.260
13601TIP3   OH262293   0.129   1.255   2.293
13601TIP3    H162294   0.103   1.283   2.205
13601TIP3    H262295   0.134   1.335   2.347
13602TIP3   OH262296   1.490   1.416   2.972
13602TIP3    H162297   1.393   1.426   2.985
13602TIP3    H262298   1.517   1.508   2.953
13603TIP3   OH262299   1.523   0.245   3.116
13603TIP3    H162300   1.449   0.306   3.103
13603TIP3    H262301   1.592   0.285   3.059
13604TIP3   OH262302   0.847   0.072   2.856
13604TIP3    H162303   0.828  -0.023   2.853
13604TIP3    H262304   0.755   0.096   2.879
13605TIP3   OH262305   1.315   1.594   2.633
13605TIP3    H162306   1.359   1.523   2.582
13605TIP3    H262307   1.354   1.674   2.591
13606TIP3   OH262308   1.435   1.387   2.483
13606TIP3    H162309   1.406   1.316   2.423
13606TIP3    H262310   1.439   1.338   2.568
13607TIP3   OH262311   1.601   1.246   3.333
13607TIP3    H162312   1.613   1.181   3.260
13607TIP3    H262313   1.617   1.330   3.289
13608TIP3   OH262314   1.048   0.936   2.310
13608TIP3    H162315   0.978   0.992   2.273
13608TIP3    H262316   1.118   0.944   2.243
13609TIP3   OH262317   1.054   0.789   2.011
13609TIP3    H162318   1.125   0.788   2.077
13609TIP3    H262319   1.086   0.720   1.951
13610TIP3   OH262320   1.786   0.876   3.138
13610TIP3    H162321   1.720   0.948   3.143
13610TIP3    H262322   1.834   0.899   3.056
13611TIP3   OH262323   1.392   0.957   2.401
13611TIP3    H162324   1.317   0.981   2.461
13611TIP3    H262325   1.437   0.888   2.452
13612TIP3   OH262326   1.384   0.773   3.312
13612TIP3    H162327   1.386   0.854   3.367
13612TIP3    H262328   1.321   0.803   3.244
13613TIP3   OH262329   0.557   1.024   2.591
13613TIP3    H162330   0.518   0.984   2.510
13613TIP3    H262331   0.614   0.953   2.627
13614TIP3   OH262332   0.689   1.365   2.860
13614TIP3    H162333   0.682   1.307   2.783
13614TIP3    H262334   0.764   1.326   2.907
13615TIP3   OH262335   0.592   0.893   2.960
13615TIP3    H162336   0.643   0.910   2.877
13615TIP3    H262337   0.623   0.965   3.018
13616TIP3   OH262338   1.226   1.453   3.028
13616TIP3    H162339   1.198   1.517   3.095
13616TIP3    H262340   1.202   1.368   3.072
13617TIP3   OH262341   0.679   1.337   3.430
13617TIP3    H162342   0.644   1.417   3.475
13617TIP3    H262343   0.614   1.322   3.357
13618TIP3   OH262344   1.278   0.876   2.169
13618TIP3    H162345   1.335   0.892   2.248
13618TIP3    H262346   1.322   0.925   2.097
13619TIP3   OH262347   0.380   0.974   3.322
13619TIP3    H162348   0.385   1.039   3.393
13619TIP3    H262349   0.283   0.971   3.304
13620TIP3   OH262350   1.050   1.548   2.515
13620TIP3    H162351   1.095   1.579   2.595
13620TIP3    H262352   0.994   1.623   2.492
13621TIP3   OH262353   0.506   1.544   3.503
13621TIP3    H162354   0.499   1.533   3.407
13621TIP3    H262355   0.412   1.531   3.530
13622TIP3   OH262356   1.650   0.057   2.149
13622TIP3    H162357   1.559   0.064   2.182
13622TIP3    H262358   1.672   0.142   2.112
13623TIP3   OH262359   0.455   0.924   2.350
13623TIP3    H162360   0.422   1.004   2.304
13623TIP3    H262361   0.384   0.861   2.335
13624TIP3   OH262362   1.763   1.485   1.992
13624TIP3    H162363   1.778   1.580   2.009
13624TIP3    H262364   1.856   1.455   1.990
13625TIP3   OH262365   0.098   1.157   3.222
13625TIP3    H162366   0.025   1.164   3.156
13625TIP3    H262367   0.068   1.074   3.261
13626TIP3   OH262368   0.046   1.452   2.910
13626TIP3    H162369   0.138   1.425   2.920
13626TIP3    H262370   0.031   1.519   2.976
13627TIP3   OH262371   1.861   1.477   3.532
13627TIP3    H162372   1.843   1.391   3.489
13627TIP3    H262373   1.769   1.515   3.541
13628TIP3   OH262374   0.955   1.466   3.376
13628TIP3    H162375   0.962   1.550   3.427
13628TIP3    H262376   0.868   1.431   3.402
13629TIP3   OH262377   0.999   1.841   2.357
13629TIP3    H162378   0.988   1.832   2.261
13629TIP3    H262379   0.999   1.937   2.371
13630TIP3   OH262380   0.362   1.727   2.536
13630TIP3    H162381   0.377   1.686   2.624
13630TIP3    H262382   0.279   1.685   2.512
13631TIP3   OH262383   1.305   1.761   2.055
13631TIP3    H162384   1.348   1.685   2.011
13631TIP3    H262385   1.308   1.734   2.149
13632TIP3   OH262386   1.274   1.754   2.332
13632TIP3    H162387   1.178   1.762   2.350
13632TIP3    H262388   1.299   1.681   2.390
13633TIP3   OH262389   1.573   0.659   3.538
13633TIP3    H162390   1.528   0.705   3.465
13633TIP3    H262391   1.574   0.568   3.507
13634TIP3   OH262392   0.289   1.299   3.338
13634TIP3    H162393   0.305   1.265   3.427
13634TIP3    H262394   0.201   1.262   3.314
13635TIP3   OH262395   0.549   0.158   2.940
13635TIP3    H162396   0.462   0.141   2.897
13635TIP3    H262397   0.538   0.241   2.984
13636TIP3   OH262398   1.017   0.115   3.273
13636TIP3    H162399   1.058   0.075   3.350
13636TIP3    H262400   0.922   0.102   3.287
13637TIP3   OH262401   1.349   0.494   3.359
13637TIP3    H162402   1.293   0.478   3.439
13637TIP3    H262403   1.332   0.587   3.335
13638TIP3   OH262404   1.424   0.979   1.944
13638TIP3    H162405   1.425   0.959   1.847
13638TIP3    H262406   1.510   1.022   1.954
13639TIP3   OH262407   0.985   0.370   2.001
13639TIP3    H162408   0.954   0.365   2.093
13639TIP3    H262409   0.953   0.282   1.972
13640TIP3   OH262410   0.565   0.642   3.055
13640TIP3    H162411   0.492   0.640   3.120
13640TIP3    H262412   0.561   0.735   3.021
13641TIP3   OH262413   0.561   0.658   2.543
13641TIP3    H162414   0.468   0.631   2.531
13641TIP3    H262415   0.601   0.626   2.460
13642TIP3   OH262416   1.113   0.705   2.422
13642TIP3    H162417   1.073   0.788   2.387
13642TIP3    H262418   1.183   0.690   2.356
13643TIP3   OH262419   1.021   0.727   3.566
13643TIP3    H162420   0.966   0.651   3.598
13643TIP3    H262421   1.104   0.713   3.614
13644TIP3   OH262422   1.216   0.653   2.705
13644TIP3    H162423   1.190   0.710   2.630
13644TIP3    H262424   1.228   0.569   2.658
13645TIP3   OH262425   0.331   0.671   3.229
13645TIP3    H162426   0.331   0.708   3.317
13645TIP3    H262427   0.284   0.586   3.241
13646TIP3   OH262428   0.667   0.412   1.913
13646TIP3    H162429   0.623   0.365   1.987
13646TIP3    H262430   0.594   0.449   1.862
13647TIP3   OH262431   0.010   0.396   2.612
13647TIP3    H162432   0.062   0.378   2.693
13647TIP3    H262433   0.045   0.340   2.544
13648TIP3   OH262434   0.119   0.460   2.160
13648TIP3    H162435   0.172   0.518   2.102
13648TIP3    H262436   0.049   0.518   2.190
13649TIP3   OH262437   1.138   0.814   3.164
13649TIP3    H162438   1.174   0.746   3.103
13649TIP3    H262439   1.092   0.760   3.231
13650TIP3   OH262440   0.817   0.408   2.644
13650TIP3    H162441   0.724   0.409   2.675
13650TIP3    H262442   0.866   0.398   2.727
13651TIP3   OH262443   0.305   0.566   2.529
13651TIP3    H162444   0.214   0.584   2.496
13651TIP3    H262445   0.328   0.480   2.491
13652TIP3   OH262446   0.664   0.568   2.293
13652TIP3    H162447   0.759   0.583   2.312
13652TIP3    H262448   0.640   0.638   2.230
13653TIP3   OH262449   1.258   0.332   2.970
13653TIP3    H162450   1.189   0.341   3.038
13653TIP3    H262451   1.208   0.311   2.890
13654TIP3   OH262452   0.534   0.688   2.053
13654TIP3    H162453   0.480   0.650   1.982
13654TIP3    H262454   0.616   0.708   2.006
13655TIP3   OH262455   1.583   1.894   3.600
13655TIP3    H162456   1.604   1.941   3.517
13655TIP3    H262457   1.649   1.933   3.660
13656TIP3   OH262458   0.348   1.134   3.562
13656TIP3    H162459   0.418   1.175   3.617
13656TIP3    H262460   0.271   1.167   3.615
13657TIP3   OH262461   0.946   0.685   2.834
13657TIP3    H162462   1.005   0.630   2.781
13657TIP3    H262463   0.932   0.632   2.913
13658TIP3   OH262464   0.447   0.304   2.476
13658TIP3    H162465   0.414   0.212   2.477
13658TIP3    H262466   0.526   0.296   2.422
13659TIP3   OH262467   0.810   0.520   3.075
13659TIP3    H162468   0.727   0.571   3.086
13659TIP3    H262469   0.865   0.553   3.149
13660TIP3   OH262470   0.869   1.143   2.245
13660TIP3    H162471   0.789   1.094   2.212
13660TIP3    H262472   0.848   1.152   2.340
13661TIP3   OH262473   1.585   1.060   3.126
13661TIP3    H162474   1.643   1.108   3.065
13661TIP3    H262475   1.499   1.068   3.078
13662TIP3   OH262476   1.252   0.426   2.063
13662TIP3    H162477   1.157   0.438   2.049
13662TIP3    H262478   1.285   0.511   2.098
13663TIP3   OH262479   1.017   1.166   3.369
13663TIP3    H162480   0.983   1.125   3.449
13663TIP3    H262481   0.994   1.259   3.379
13664TIP3   OH262482   1.325   0.614   2.228
13664TIP3    H162483   1.415   0.601   2.265
13664TIP3    H262484   1.334   0.695   2.175
13665TIP3   OH262485   0.413   1.081   2.847
13665TIP3    H162486   0.447   1.072   2.757
13665TIP3    H262487   0.385   0.991   2.869
13666TIP3   OH262488   1.079   1.289   2.148
13666TIP3    H162489   1.045   1.373   2.185
13666TIP3    H262490   1.005   1.228   2.169
13667TIP3   OH262491   0.104   0.900   3.333
13667TIP3    H162492   0.101   0.876   3.425
13667TIP3    H262493   0.019   0.862   3.304
13668TIP3   OH262494   0.778   0.877   3.572
13668TIP3    H162495   0.751   0.850   3.483
13668TIP3    H262496   0.872   0.848   3.572
13669TIP3   OH262497   1.246   1.410   3.363
13669TIP3    H162498   1.154   1.429   3.340
13669TIP3    H262499   1.245   1.439   3.457
13670TIP3   OH262500   1.815   0.631   2.204
13670TIP3    H162501   1.759   0.599   2.131
13670TIP3    H262502   1.824   0.725   2.175
13671TIP3   OH262503   1.814   1.216   3.484
13671TIP3    H162504   1.724   1.235   3.447
13671TIP3    H262505   1.869   1.209   3.405
13672TIP3   OH262506   1.642   1.512   2.244
13672TIP3    H162507   1.607   1.429   2.278
13672TIP3    H262508   1.675   1.492   2.155
13673TIP3   OH262509   1.364   0.994   2.953
13673TIP3    H162510   1.269   0.971   2.944
13673TIP3    H262511   1.407   0.916   2.912
13674TIP3   OH262512   0.617   1.427   2.563
13674TIP3    H162513   0.667   1.507   2.542
13674TIP3    H262514   0.528   1.448   2.532
13675TIP3   OH262515   0.187   0.910   2.021
13675TIP3    H162516   0.252   0.975   2.060
13675TIP3    H262517   0.103   0.945   2.053
13676TIP3   OH262518   0.758   1.192   2.516
13676TIP3    H162519   0.729   1.285   2.525
13676TIP3    H262520   0.684   1.145   2.560
13677TIP3   OH262521   0.805   1.610   3.155
13677TIP3    H162522   0.848   1.692   3.128
13677TIP3    H262523   0.864   1.578   3.225
13678TIP3   OH262524   0.626   1.693   2.470
13678TIP3    H162525   0.529   1.706   2.481
13678TIP3    H262526   0.662   1.777   2.505
13679TIP3   OH262527   1.159   1.214   3.120
13679TIP3    H162528   1.122   1.193   3.208
13679TIP3    H262529   1.221   1.141   3.102
13680TIP3   OH262530   1.388   1.316   2.027
13680TIP3    H162531   1.418   1.271   2.109
13680TIP3    H262532   1.292   1.300   2.037
13681TIP3   OH262533   1.438   1.669   3.368
13681TIP3    H162534   1.368   1.620   3.320
13681TIP3    H262535   1.454   1.740   3.302
13682TIP3   OH262536   1.835   1.754   2.052
13682TIP3    H162537   1.906   1.820   2.033
13682TIP3    H262538   1.764   1.816   2.082
13683TIP3   OH262539   0.244   0.396   3.310
13683TIP3    H162540   0.152   0.427   3.303
13683TIP3    H262541   0.231   0.308   3.351
13684TIP3   OH262542   1.467   1.181   2.251
13684TIP3    H162543   1.443   1.104   2.306
13684TIP3    H262544   1.562   1.187   2.271
13685TIP3   OH262545   0.209   1.577   3.147
13685TIP3    H162546   0.230   1.482   3.149
13685TIP3    H262547   0.230   1.601   3.238
13686TIP3   OH262548   0.799   1.425   1.875
13686TIP3    H162549   0.814   1.348   1.818
13686TIP3    H262550   0.761   1.382   1.955
13687TIP3   OH262551   0.682   1.378   2.121
13687TIP3    H162552   0.704   1.327   2.199
13687TIP3    H262553   0.686   1.471   2.153
13688TIP3   OH262554   0.330   1.102   2.167
13688TIP3    H162555   0.264   1.140   2.228
13688TIP3    H262556   0.384   1.181   2.144
13689TIP3   OH262557   1.116   0.370   3.201
13689TIP3    H162558   1.188   0.378   3.266
13689TIP3    H262559   1.079   0.281   3.218
13690TIP3   OH262560   1.195   0.329   2.310
13690TIP3    H162561   1.214   0.380   2.229
13690TIP3    H262562   1.248   0.377   2.376
13691TIP3   OH262563   0.960   1.545   2.193
13691TIP3    H162564   0.878   1.598   2.199
13691TIP3    H262565   1.013   1.599   2.132
13692TIP3   OH262566   0.914   0.503   2.393
13692TIP3    H162567   0.993   0.560   2.397
13692TIP3    H262568   0.889   0.493   2.486
13693TIP3   OH262569   0.969   0.606   3.311
13693TIP3    H162570   0.977   0.663   3.390
13693TIP3    H262571   1.035   0.536   3.322
13694TIP3   OH262572   1.001   0.211   2.486
13694TIP3    H162573   0.967   0.278   2.548
13694TIP3    H262574   1.067   0.265   2.437
13695TIP3   OH262575   0.698   1.649   2.194
13695TIP3    H162576   0.709   1.732   2.140
13695TIP3    H262577   0.672   1.685   2.282
13696TIP3   OH262578   0.566   0.320   2.152
13696TIP3    H162579   0.560   0.410   2.190
13696TIP3    H262580   0.658   0.299   2.177
13697TIP3   OH262581   1.588   0.393   3.396
13697TIP3    H162582   1.495   0.424   3.384
13697TIP3    H262583   1.619   0.393   3.304
13698TIP3   OH262584   1.448   0.773   2.799
13698TIP3    H162585   1.366   0.729   2.770
13698TIP3    H262586   1.495   0.703   2.851
13699TIP3   OH262587   0.389   1.364   2.059
13699TIP3    H162588   0.454   1.431   2.087
13699TIP3    H262589   0.441   1.319   1.989
13700TIP3   OH262590   0.229   0.633   1.965
13700TIP3    H162591   0.224   0.725   1.996
13700TIP3    H262592   0.136   0.610   1.947
13701TIP3   OH262593   1.555   1.697   2.965
13701TIP3    H162594   1.544   1.766   2.897
13701TIP3    H262595   1.651   1.705   2.982
13702TIP3   OH262596   0.287   0.124   2.845
13702TIP3    H162597   0.285   0.114   2.747
13702TIP3    H262598   0.268   0.032   2.870
13703TIP3   OH262599   0.203   1.504   2.460
13703TIP3    H162600   0.117   1.546   2.457
13703TIP3    H262601   0.251   1.553   2.392
13704TIP3   OH262602   0.135   1.768   3.587
13704TIP3    H162603   0.185   1.743   3.666
13704TIP3    H262604   0.081   1.687   3.572
13705TIP3   OH262605   0.587   1.657   3.749
13705TIP3    H162606   0.665   1.609   3.783
13705TIP3    H262607   0.586   1.632   3.655
13706TIP3   OH262608   1.000   1.611   1.889
13706TIP3    H162609   0.932   1.545   1.915
13706TIP3    H262610   1.073   1.552   1.865
13707TIP3   OH262611   1.241   1.497   3.623
13707TIP3    H162612   1.209   1.409   3.650
13707TIP3    H262613   1.317   1.509   3.684
13708TIP3   OH262614   1.457   1.587   1.909
13708TIP3    H162615   1.487   1.508   1.958
13708TIP3    H262616   1.533   1.610   1.853
13709TIP3   OH262617   0.127   1.144   3.682
13709TIP3    H162618   0.126   1.053   3.655
13709TIP3    H262619   0.042   1.177   3.644
13710TIP3   OH262620   0.547   1.180   1.893
13710TIP3    H162621   0.560   1.102   1.949
13710TIP3    H262622   0.620   1.167   1.829
13711TIP3   OH262623   0.781   1.144   3.627
13711TIP3    H162624   0.751   1.174   3.539
13711TIP3    H262625   0.795   1.047   3.617
13712TIP3   OH262626   1.089   1.289   1.868
13712TIP3    H162627   1.061   1.300   1.961
13712TIP3    H262628   1.069   1.193   1.855
13713TIP3   OH262629   1.355   1.131   3.366
13713TIP3    H162630   1.432   1.191   3.357
13713TIP3    H262631   1.283   1.195   3.370
13714TIP3   OH262632   0.190   0.864   3.621
13714TIP3    H162633   0.240   0.779   3.616
13714TIP3    H262634   0.185   0.887   3.717
13715TIP3   OH262635   0.667   0.981   2.131
13715TIP3    H162636   0.618   0.928   2.196
13715TIP3    H262637   0.695   0.912   2.066
13716TIP3   OH262638   0.593   0.764   3.362
13716TIP3    H162639   0.539   0.838   3.384
13716TIP3    H262640   0.634   0.797   3.280
13717TIP3   OH262641   0.773   0.803   1.953
13717TIP3    H162642   0.758   0.792   1.857
13717TIP3    H262643   0.871   0.810   1.959
13718TIP3   OH262644   1.100   1.018   3.694
13718TIP3    H162645   1.196   1.020   3.685
13718TIP3    H262646   1.083   0.942   3.752
13719TIP3   OH262647   1.710   1.036   1.896
13719TIP3    H162648   1.687   0.997   1.811
13719TIP3    H262649   1.717   1.132   1.875
13720TIP3   OH262650   0.632   0.501   3.470
13720TIP3    H162651   0.647   0.428   3.407
13720TIP3    H262652   0.630   0.580   3.412
13721TIP3   OH262653   0.674   0.339   3.221
13721TIP3    H162654   0.726   0.386   3.152
13721TIP3    H262655   0.585   0.328   3.180
13722TIP3   OH262656   0.827   0.885   3.247
13722TIP3    H162657   0.903   0.869   3.189
13722TIP3    H262658   0.794   0.970   3.214
13723TIP3   OH262659   1.269   0.663   3.745
13723TIP3    H162660   1.291   0.570   3.735
13723TIP3    H262661   1.356   0.707   3.746
13724TIP3   OH262662   1.401   0.941   3.558
13724TIP3    H162663   1.376   1.014   3.497
13724TIP3    H262664   1.497   0.938   3.540
13725TIP3   OH262665   0.470   0.631   3.654
13725TIP3    H162666   0.403   0.561   3.642
13725TIP3    H262667   0.544   0.590   3.602
13726TIP3   OH262668   0.744   0.095   3.279
13726TIP3    H162669   0.737   0.190   3.254
13726TIP3    H262670   0.680   0.054   3.219
13727TIP3   OH262671   0.879   0.517   3.622
13727TIP3    H162672   0.851   0.488   3.712
13727TIP3    H262673   0.800   0.494   3.570
13728TIP3   OH262674   1.151   0.433   3.532
13728TIP3    H162675   1.055   0.433   3.543
13728TIP3    H262676   1.179   0.366   3.598
13729TIP3   OH262677   1.314   0.297   3.725
13729TIP3    H162678   1.304   0.199   3.725
13729TIP3    H262679   1.283   0.320   3.815
13730TIP3   OH262680   0.294   0.417   3.635
13730TIP3    H162681   0.316   0.343   3.574
13730TIP3    H262682   0.286   0.367   3.719
13731TIP3   OH262683   0.772   7.356   3.530
13731TIP3    H162684   0.843   7.292   3.536
13731TIP3    H262685   0.765   7.384   3.437
13732TIP3   OH262686   0.822   0.193   3.720
13732TIP3    H162687   0.793   0.128   3.654
13732TIP3    H262688   0.750   0.256   3.734
13733TIP3   OH262689   0.760   1.872   2.058
13733TIP3    H162690   0.856   1.885   2.067
13733TIP3    H262691   0.741   1.936   1.989
13734TIP3   OH262692   0.122   1.336   2.013
13734TIP3    H162693   0.219   1.343   2.028
13734TIP3    H262694   0.121   1.270   1.939
13735TIP3   OH262695   7.353   1.879   2.498
13735TIP3    H162696   7.271   1.846   2.457
13735TIP3    H262697   7.370   1.811   2.568
13736TIP3   OH262698   0.068   1.687   2.687
13736TIP3    H162699   0.041   1.595   2.709
13736TIP3    H262700   0.097   1.716   2.775
13737TIP3   OH262701   1.829   1.760   2.986
13737TIP3    H162702   1.827   1.782   3.081
13737TIP3    H262703   1.897   1.821   2.953
13738TIP3   OH262704   1.765   1.735   3.253
13738TIP3    H162705   1.727   1.647   3.229
13738TIP3    H262706   1.838   1.712   3.303
13739TIP3   OH262707   1.629   1.296   3.744
13739TIP3    H162708   1.540   1.290   3.783
13739TIP3    H262709   1.667   1.374   3.789
13740TIP3   OH262710   1.760   1.127   2.291
13740TIP3    H162711   1.846   1.166   2.308
13740TIP3    H262712   1.759   1.053   2.357
13741TIP3   OH262713   1.797   0.934   2.478
13741TIP3    H162714   1.723   0.883   2.518
13741TIP3    H262715   1.857   0.949   2.553
13742TIP3   OH262716   1.772   1.204   2.975
13742TIP3    H162717   1.856   1.168   2.940
13742TIP3    H262718   1.786   1.300   2.958
13743TIP3   OH262719   1.628   1.496   3.206
13743TIP3    H162720   1.556   1.528   3.263
13743TIP3    H262721   1.574   1.454   3.134
13744TIP3   OH262722   1.827   0.917   2.117
13744TIP3    H162723   1.771   0.953   2.045
13744TIP3    H262724   1.819   0.988   2.184
13745TIP3   OH262725   1.663   0.642   1.970
13745TIP3    H162726   1.671   0.709   1.901
13745TIP3    H262727   1.645   0.559   1.920
13746TIP3   OH262728   1.578   0.782   2.534
13746TIP3    H162729   1.563   0.687   2.532
13746TIP3    H262730   1.544   0.806   2.622
13747TIP3   OH262731   0.075   0.980   2.941
13747TIP3    H162732   0.096   0.990   2.844
13747TIP3    H262733   0.166   0.978   2.975
13748TIP3   OH262734   1.663   0.979   3.501
13748TIP3    H162735   1.724   0.905   3.517
13748TIP3    H262736   1.723   1.057   3.503
13749TIP3   OH262737   1.814   0.769   3.568
13749TIP3    H162738   1.726   0.728   3.552
13749TIP3    H262739   1.872   0.691   3.560
13750TIP3   OH262740   1.586   0.389   1.884
13750TIP3    H162741   1.647   0.346   1.946
13750TIP3    H262742   1.502   0.343   1.900
13751TIP3   OH262743   1.544   0.541   2.378
13751TIP3    H162744   1.576   0.450   2.392
13751TIP3    H262745   1.626   0.582   2.345
13752TIP3   OH262746   1.609   0.597   2.924
13752TIP3    H162747   1.705   0.619   2.923
13752TIP3    H262748   1.589   0.608   3.018
13753TIP3   OH262749   1.615   0.669   3.203
13753TIP3    H162750   1.527   0.697   3.236
13753TIP3    H262751   1.658   0.755   3.181
13754TIP3   OH262752   0.060   0.518   3.560
13754TIP3    H162753   0.149   0.486   3.576
13754TIP3    H262754   0.001   0.441   3.584
13755TIP3   OH262755   1.846   0.070   3.739
13755TIP3    H162756   1.875   0.005   3.674
13755TIP3    H262757   1.852   0.154   3.690
13756TIP3   OH262758   1.611   0.268   2.385
13756TIP3    H162759   1.630   0.222   2.469
13756TIP3    H262760   1.552   0.204   2.339
13757TIP3   OH262761   0.157   0.350   2.840
13757TIP3    H162762   0.208   0.270   2.867
13757TIP3    H262763   0.212   0.417   2.882
13758TIP3   OH262764   0.061   0.693   2.984
13758TIP3    H162765   0.060   0.659   2.891
13758TIP3    H262766   0.035   0.783   2.963
13759TIP3   OH262767   1.796   0.280   3.571
13759TIP3    H162768   1.702   0.307   3.568
13759TIP3    H262769   1.801   0.225   3.492
13760TIP3   OH262770   1.795   0.276   2.038
13760TIP3    H162771   1.837   0.200   1.990
13760TIP3    H262772   1.867   0.339   2.044
13761TIP3   OH262773   0.065   0.270   2.326
13761TIP3    H162774  -0.031   0.294   2.328
13761TIP3    H262775   0.089   0.339   2.262
13762TIP3   OH262776   1.499   1.771   2.547
13762TIP3    H162777   1.567   1.739   2.485
13762TIP3    H262778   1.552   1.821   2.611
13763TIP3   OH262779   7.375   0.142   3.194
13763TIP3    H162780   7.301   0.119   3.249
13763TIP3    H262781   7.324   0.198   3.132
13764TIP3   OH262782   0.243   1.460   3.601
13764TIP3    H162783   0.161   1.483   3.555
13764TIP3    H262784   0.215   1.456   3.692
13765TIP3   OH262785   0.535   1.562   3.227
13765TIP3    H162786   0.496   1.646   3.198
13765TIP3    H262787   0.627   1.572   3.194
13766TIP3   OH262788   0.966   1.704   3.518
13766TIP3    H162789   0.982   1.669   3.608
13766TIP3    H262790   1.055   1.734   3.491
13767TIP3   OH262791   1.196   1.831   3.446
13767TIP3    H162792   1.269   1.771   3.423
13767TIP3    H262793   1.234   1.873   3.527
13768TIP3   OH262794   1.697   0.094   3.355
13768TIP3    H162795   1.614   0.125   3.317
13768TIP3    H262796   1.715   0.013   3.304
13769TIP3   OH262797   0.278   1.887   3.229
13769TIP3    H162798   0.203   1.933   3.187
13769TIP3    H262799   0.241   1.865   3.316
13770TIP3   OH262800   0.524   1.845   3.133
13770TIP3    H162801   0.435   1.858   3.173
13770TIP3    H262802   0.518   1.903   3.055
13771TIP3   OH262803   0.994   1.835   3.050
13771TIP3    H162804   0.948   1.890   2.985
13771TIP3    H262805   1.008   1.898   3.124
13772TIP3   OH262806   1.225   1.718   3.150
13772TIP3    H162807   1.137   1.743   3.117
13772TIP3    H262808   1.270   1.804   3.141
13773TIP3   OH262809   1.485   1.875   3.176
13773TIP3    H162810   1.472   1.970   3.152
13773TIP3    H262811   1.503   1.838   3.088
13774TIP3   OH262812   0.218   1.751   2.919
13774TIP3    H162813   0.216   1.707   3.007
13774TIP3    H262814   0.300   1.714   2.880
13775TIP3   OH262815   0.431   1.622   2.785
13775TIP3    H162816   0.411   1.528   2.806
13775TIP3    H262817   0.516   1.636   2.832
13776TIP3   OH262818   0.688   1.670   2.872
13776TIP3    H162819   0.706   1.578   2.845
13776TIP3    H262820   0.694   1.664   2.968
13777TIP3   OH262821   1.034   0.241   2.785
13777TIP3    H162822   0.970   0.172   2.813
13777TIP3    H262823   1.094   0.187   2.731
13778TIP3   OH262824   1.549   0.044   2.797
13778TIP3    H162825   1.610   0.098   2.743
13778TIP3    H262826   1.462   0.076   2.771
13779TIP3   OH262827   1.719   0.165   2.622
13779TIP3    H162828   1.786   0.107   2.580
13779TIP3    H262829   1.766   0.250   2.632
13780TIP3   OH262830   0.279   0.103   2.558
13780TIP3    H162831   0.193   0.075   2.522
13780TIP3    H262832   0.317   0.015   2.573
13781TIP3   OH262833   0.158   0.118   2.091
13781TIP3    H162834   0.227   0.181   2.078
13781TIP3    H262835   0.112   0.140   2.176
13782TIP3   OH262836   0.748   0.130   2.581
13782TIP3    H162837   0.842   0.131   2.557
13782TIP3    H262838   0.732   0.065   2.652
13783TIP3   OH262839   1.274   0.114   2.718
13783TIP3    H162840   1.287   0.111   2.623
13783TIP3    H262841   1.260   0.016   2.730
13784TIP3   OH262842   1.417   0.095   2.284
13784TIP3    H162843   1.345   0.158   2.263
13784TIP3    H262844   1.373   0.010   2.297
13785TIP3   OH262845   0.154   1.676   2.236
13785TIP3    H162846   0.076   1.669   2.177
13785TIP3    H262847   0.142   1.767   2.265
13786TIP3   OH262848   0.337   0.273   1.989
13786TIP3    H162849   0.387   0.207   1.939
13786TIP3    H262850   0.400   0.300   2.058
13787TIP3   OH262851   0.831   0.293   2.238
13787TIP3    H162852   0.863   0.235   2.309
13787TIP3    H262853   0.840   0.380   2.284
13788TIP3   OH262854   1.028   1.797   2.080
13788TIP3    H162855   1.119   1.825   2.058
13788TIP3    H262856   1.006   1.748   1.998
13789TIP3   OH262857   1.700   1.750   2.350
13789TIP3    H162858   1.679   1.672   2.292
13789TIP3    H262859   1.693   1.824   2.287
13790TIP3   OH262860   0.255   0.155   3.516
13790TIP3    H162861   0.224   0.074   3.559
13790TIP3    H262862   0.348   0.152   3.549
13791TIP3   OH262863   0.443   0.102   3.665
13791TIP3    H162864   0.538   0.076   3.660
13791TIP3    H262865   0.426   0.021   3.717
13792TIP3   OH262866   0.321   1.765   1.939
13792TIP3    H162867   0.296   1.793   2.029
13792TIP3    H262868   0.400   1.711   1.957
13793TIP3   OH262869   1.300   7.387   3.693
13793TIP3    H162870   1.305   7.322   3.767
13793TIP3    H262871   1.386   7.362   3.656
13794TIP3   OH262872   1.631   1.627   3.551
13794TIP3    H162873   1.543   1.608   3.509
13794TIP3    H262874   1.610   1.718   3.583
13795TIP3   OH262875   3.066   1.012   2.559
13795TIP3    H162876   3.068   1.109   2.552
13795TIP3    H262877   2.995   0.987   2.497
13796TIP3   OH262878   2.953   0.938   2.907
13796TIP3    H162879   2.951   0.873   2.978
13796TIP3    H262880   2.920   0.889   2.831
13797TIP3   OH262881   2.189   0.904   3.063
13797TIP3    H162882   2.197   0.837   3.134
13797TIP3    H262883   2.263   0.962   3.084
13798TIP3   OH262884   3.323   1.232   2.735
13798TIP3    H162885   3.280   1.161   2.783
13798TIP3    H262886   3.324   1.304   2.802
13799TIP3   OH262887   2.282   1.349   2.915
13799TIP3    H162888   2.249   1.263   2.881
13799TIP3    H262889   2.377   1.330   2.920
13800TIP3   OH262890   1.946   0.707   2.461
13800TIP3    H162891   1.901   0.794   2.455
13800TIP3    H262892   1.889   0.652   2.405
13801TIP3   OH262893   2.016   0.928   2.674
13801TIP3    H162894   2.041   0.847   2.722
13801TIP3    H262895   2.088   0.937   2.610
13802TIP3   OH262896   3.034   1.747   2.759
13802TIP3    H162897   3.099   1.677   2.731
13802TIP3    H262898   3.014   1.717   2.847
13803TIP3   OH262899   2.791   1.179   2.951
13803TIP3    H162900   2.825   1.114   2.888
13803TIP3    H262901   2.870   1.193   3.006
13804TIP3   OH262902   3.655   0.341   3.029
13804TIP3    H162903   3.667   0.404   3.104
13804TIP3    H262904   3.706   0.386   2.960
13805TIP3   OH262905   3.108   0.624   2.984
13805TIP3    H162906   3.123   0.527   2.984
13805TIP3    H262907   3.097   0.639   2.888
13806TIP3   OH262908   2.420   0.435   2.708
13806TIP3    H162909   2.429   0.519   2.659
13806TIP3    H262910   2.378   0.377   2.641
13807TIP3   OH262911   3.193   0.441   2.544
13807TIP3    H162912   3.259   0.411   2.611
13807TIP3    H262913   3.248   0.498   2.488
13808TIP3   OH262914   2.082   0.674   2.782
13808TIP3    H162915   2.149   0.618   2.826
13808TIP3    H262916   2.090   0.643   2.690
13809TIP3   OH262917   2.598   0.829   2.710
13809TIP3    H162918   2.664   0.772   2.753
13809TIP3    H262919   2.545   0.763   2.663
13810TIP3   OH262920   3.696   0.485   3.254
13810TIP3    H162921   3.632   0.558   3.245
13810TIP3    H262922   3.700   0.473   3.350
13811TIP3   OH262923   2.309   0.326   3.113
13811TIP3    H162924   2.280   0.379   3.036
13811TIP3    H262925   2.239   0.346   3.179
13812TIP3   OH262926   3.040   1.272   2.467
13812TIP3    H162927   3.012   1.243   2.379
13812TIP3    H262928   3.008   1.365   2.472
13813TIP3   OH262929   2.562   1.088   3.138
13813TIP3    H162930   2.490   1.152   3.156
13813TIP3    H262931   2.632   1.147   3.108
13814TIP3   OH262932   3.374   0.375   2.743
13814TIP3    H162933   3.351   0.299   2.798
13814TIP3    H262934   3.440   0.419   2.798
13815TIP3   OH262935   2.264   0.510   2.912
13815TIP3    H162936   2.328   0.577   2.946
13815TIP3    H262937   2.318   0.466   2.842
13816TIP3   OH262938   2.405   1.287   3.219
13816TIP3    H162939   2.401   1.378   3.184
13816TIP3    H262940   2.316   1.280   3.263
13817TIP3   OH262941   2.014   1.250   2.298
13817TIP3    H162942   1.988   1.281   2.209
13817TIP3    H262943   2.021   1.335   2.347
13818TIP3   OH262944   3.376   1.416   2.972
13818TIP3    H162945   3.279   1.426   2.985
13818TIP3    H262946   3.402   1.508   2.954
13819TIP3   OH262947   3.408   0.245   3.116
13819TIP3    H162948   3.334   0.306   3.103
13819TIP3    H262949   3.477   0.285   3.059
13820TIP3   OH262950   2.732   0.071   2.857
13820TIP3    H162951   2.713  -0.023   2.853
13820TIP3    H262952   2.640   0.096   2.879
13821TIP3   OH262953   3.201   1.594   2.633
13821TIP3    H162954   3.244   1.523   2.582
13821TIP3    H262955   3.240   1.674   2.591
13822TIP3   OH262956   3.321   1.387   2.483
13822TIP3    H162957   3.292   1.316   2.423
13822TIP3    H262958   3.325   1.338   2.568
13823TIP3   OH262959   3.485   1.245   3.333
13823TIP3    H162960   3.499   1.181   3.259
13823TIP3    H262961   3.504   1.331   3.291
13824TIP3   OH262962   2.934   0.936   2.310
13824TIP3    H162963   2.863   0.992   2.273
13824TIP3    H262964   3.004   0.944   2.243
13825TIP3   OH262965   2.940   0.789   2.011
13825TIP3    H162966   3.011   0.788   2.077
13825TIP3    H262967   2.971   0.720   1.951
13826TIP3   OH262968   3.672   0.876   3.138
13826TIP3    H162969   3.606   0.948   3.143
13826TIP3    H262970   3.720   0.899   3.056
13827TIP3   OH262971   3.277   0.957   2.401
13827TIP3    H162972   3.202   0.981   2.461
13827TIP3    H262973   3.323   0.888   2.452
13828TIP3   OH262974   3.270   0.773   3.312
13828TIP3    H162975   3.271   0.854   3.367
13828TIP3    H262976   3.206   0.803   3.244
13829TIP3   OH262977   2.439   1.023   2.593
13829TIP3    H162978   2.407   0.984   2.508
13829TIP3    H262979   2.500   0.953   2.626
13830TIP3   OH262980   2.571   1.363   2.862
13830TIP3    H162981   2.569   1.308   2.782
13830TIP3    H262982   2.649   1.326   2.907
13831TIP3   OH262983   2.473   0.897   2.958
13831TIP3    H162984   2.530   0.909   2.879
13831TIP3    H262985   2.510   0.963   3.020
13832TIP3   OH262986   3.111   1.453   3.028
13832TIP3    H162987   3.084   1.517   3.095
13832TIP3    H262988   3.087   1.368   3.072
13833TIP3   OH262989   2.567   1.339   3.428
13833TIP3    H162990   2.528   1.416   3.476
13833TIP3    H262991   2.499   1.321   3.358
13834TIP3   OH262992   3.164   0.876   2.169
13834TIP3    H162993   3.221   0.892   2.248
13834TIP3    H262994   3.208   0.925   2.097
13835TIP3   OH262995   2.260   0.956   3.346
13835TIP3    H162996   2.264   1.023   3.417
13835TIP3    H262997   2.167   0.967   3.321
13836TIP3   OH262998   2.936   1.548   2.515
13836TIP3    H162999   2.981   1.579   2.595
13836TIP3    H263000   2.880   1.623   2.492
13837TIP3   OH263001   2.391   1.546   3.503
13837TIP3    H163002   2.388   1.532   3.407
13837TIP3    H263003   2.298   1.531   3.530
13838TIP3   OH263004   3.536   0.057   2.149
13838TIP3    H163005   3.444   0.064   2.182
13838TIP3    H263006   3.558   0.142   2.112
13839TIP3   OH263007   2.337   0.926   2.354
13839TIP3    H163008   2.308   1.004   2.303
13839TIP3    H263009   2.271   0.860   2.332
13840TIP3   OH263010   3.649   1.485   1.992
13840TIP3    H163011   3.663   1.580   2.009
13840TIP3    H263012   3.742   1.455   1.990
13841TIP3   OH263013   1.945   1.169   3.241
13841TIP3    H163014   1.900   1.159   3.155
13841TIP3    H263015   1.951   1.074   3.264
13842TIP3   OH263016   1.921   1.441   2.925
13842TIP3    H163017   2.017   1.429   2.917
13842TIP3    H263018   1.913   1.524   2.972
13843TIP3   OH263019   3.744   1.510   3.490
13843TIP3    H163020   3.734   1.414   3.488
13843TIP3    H263021   3.658   1.536   3.530
13844TIP3   OH263022   2.841   1.466   3.376
13844TIP3    H163023   2.848   1.550   3.427
13844TIP3    H263024   2.754   1.431   3.402
13845TIP3   OH263025   2.884   1.841   2.357
13845TIP3    H163026   2.874   1.832   2.261
13845TIP3    H263027   2.885   1.937   2.371
13846TIP3   OH263028   2.248   1.727   2.537
13846TIP3    H163029   2.262   1.686   2.625
13846TIP3    H263030   2.163   1.687   2.513
13847TIP3   OH263031   3.191   1.761   2.055
13847TIP3    H163032   3.233   1.685   2.011
13847TIP3    H263033   3.193   1.734   2.149
13848TIP3   OH263034   3.160   1.754   2.332
13848TIP3    H163035   3.064   1.762   2.350
13848TIP3    H263036   3.184   1.681   2.390
13849TIP3   OH263037   3.459   0.659   3.538
13849TIP3    H163038   3.414   0.705   3.465
13849TIP3    H263039   3.460   0.568   3.507
13850TIP3   OH263040   2.170   1.302   3.339
13850TIP3    H163041   2.196   1.261   3.424
13850TIP3    H263042   2.087   1.257   3.316
13851TIP3   OH263043   2.435   0.158   2.940
13851TIP3    H163044   2.348   0.141   2.897
13851TIP3    H263045   2.423   0.241   2.984
13852TIP3   OH263046   2.903   0.114   3.272
13852TIP3    H163047   2.944   0.075   3.349
13852TIP3    H263048   2.807   0.102   3.287
13853TIP3   OH263049   3.234   0.494   3.359
13853TIP3    H163050   3.179   0.478   3.439
13853TIP3    H263051   3.218   0.587   3.335
13854TIP3   OH263052   3.309   0.979   1.944
13854TIP3    H163053   3.311   0.959   1.847
13854TIP3    H263054   3.396   1.022   1.954
13855TIP3   OH263055   2.871   0.370   2.001
13855TIP3    H163056   2.839   0.365   2.093
13855TIP3    H263057   2.839   0.282   1.972
13856TIP3   OH263058   2.450   0.642   3.054
13856TIP3    H163059   2.378   0.641   3.120
13856TIP3    H263060   2.447   0.735   3.021
13857TIP3   OH263061   2.446   0.658   2.543
13857TIP3    H163062   2.353   0.630   2.531
13857TIP3    H263063   2.486   0.626   2.460
13858TIP3   OH263064   2.999   0.705   2.422
13858TIP3    H163065   2.958   0.788   2.387
13858TIP3    H263066   3.069   0.690   2.356
13859TIP3   OH263067   2.906   0.726   3.566
13859TIP3    H163068   2.852   0.650   3.598
13859TIP3    H263069   2.990   0.712   3.614
13860TIP3   OH263070   3.101   0.653   2.705
13860TIP3    H163071   3.076   0.710   2.630
13860TIP3    H263072   3.114   0.569   2.658
13861TIP3   OH263073   2.215   0.671   3.228
13861TIP3    H163074   2.219   0.711   3.317
13861TIP3    H263075   2.170   0.587   3.245
13862TIP3   OH263076   2.552   0.412   1.913
13862TIP3    H163077   2.508   0.365   1.987
13862TIP3    H263078   2.480   0.450   1.862
13863TIP3   OH263079   1.880   0.384   2.621
13863TIP3    H163080   1.947   0.379   2.693
13863TIP3    H263081   1.924   0.342   2.546
13864TIP3   OH263082   2.008   0.456   2.164
13864TIP3    H163083   2.056   0.516   2.103
13864TIP3    H263084   1.936   0.515   2.194
13865TIP3   OH263085   3.023   0.814   3.164
13865TIP3    H163086   3.059   0.746   3.103
13865TIP3    H263087   2.978   0.760   3.231
13866TIP3   OH263088   2.703   0.408   2.644
13866TIP3    H163089   2.610   0.409   2.675
13866TIP3    H263090   2.752   0.398   2.727
13867TIP3   OH263091   2.185   0.566   2.531
13867TIP3    H163092   2.095   0.580   2.493
13867TIP3    H263093   2.214   0.482   2.493
13868TIP3   OH263094   2.550   0.568   2.293
13868TIP3    H163095   2.644   0.583   2.312
13868TIP3    H263096   2.525   0.638   2.230
13869TIP3   OH263097   3.144   0.332   2.970
13869TIP3    H163098   3.074   0.341   3.038
13869TIP3    H263099   3.093   0.311   2.890
13870TIP3   OH263100   2.418   0.688   2.053
13870TIP3    H163101   2.365   0.650   1.981
13870TIP3    H263102   2.501   0.708   2.006
13871TIP3   OH263103   3.465   1.898   3.602
13871TIP3    H163104   3.491   1.938   3.517
13871TIP3    H263105   3.536   1.931   3.659
13872TIP3   OH263106   2.231   1.146   3.558
13872TIP3    H163107   2.303   1.170   3.619
13872TIP3    H263108   2.153   1.157   3.617
13873TIP3   OH263109   2.832   0.685   2.834
13873TIP3    H163110   2.890   0.630   2.781
13873TIP3    H263111   2.817   0.632   2.913
13874TIP3   OH263112   2.332   0.303   2.476
13874TIP3    H163113   2.300   0.211   2.477
13874TIP3    H263114   2.411   0.296   2.422
13875TIP3   OH263115   2.695   0.520   3.075
13875TIP3    H163116   2.612   0.570   3.086
13875TIP3    H263117   2.750   0.553   3.149
13876TIP3   OH263118   2.754   1.143   2.245
13876TIP3    H163119   2.675   1.094   2.212
13876TIP3    H263120   2.734   1.152   2.340
13877TIP3   OH263121   3.470   1.060   3.126
13877TIP3    H163122   3.529   1.108   3.064
13877TIP3    H263123   3.385   1.068   3.078
13878TIP3   OH263124   3.138   0.426   2.064
13878TIP3    H163125   3.042   0.438   2.049
13878TIP3    H263126   3.171   0.511   2.098
13879TIP3   OH263127   2.903   1.166   3.369
13879TIP3    H163128   2.869   1.125   3.449
13879TIP3    H263129   2.880   1.259   3.379
13880TIP3   OH263130   3.211   0.614   2.228
13880TIP3    H163131   3.300   0.601   2.265
13880TIP3    H263132   3.220   0.695   2.175
13881TIP3   OH263133   2.264   1.079   2.825
13881TIP3    H163134   2.335   1.073   2.758
13881TIP3    H263135   2.271   0.993   2.871
13882TIP3   OH263136   2.965   1.289   2.148
13882TIP3    H163137   2.931   1.373   2.185
13882TIP3    H263138   2.891   1.228   2.169
13883TIP3   OH263139   1.964   0.921   3.352
13883TIP3    H163140   1.983   0.877   3.437
13883TIP3    H263141   1.902   0.859   3.309
13884TIP3   OH263142   2.665   0.877   3.572
13884TIP3    H163143   2.635   0.850   3.484
13884TIP3    H263144   2.758   0.847   3.571
13885TIP3   OH263145   3.132   1.410   3.363
13885TIP3    H163146   3.039   1.429   3.340
13885TIP3    H263147   3.130   1.439   3.457
13886TIP3   OH263148   3.701   0.631   2.204
13886TIP3    H163149   3.644   0.599   2.131
13886TIP3    H263150   3.709   0.725   2.175
13887TIP3   OH263151   3.699   1.215   3.485
13887TIP3    H163152   3.610   1.237   3.448
13887TIP3    H263153   3.755   1.211   3.405
13888TIP3   OH263154   3.528   1.512   2.244
13888TIP3    H163155   3.493   1.429   2.278
13888TIP3    H263156   3.560   1.492   2.155
13889TIP3   OH263157   3.249   0.994   2.953
13889TIP3    H163158   3.155   0.971   2.944
13889TIP3    H263159   3.293   0.916   2.912
13890TIP3   OH263160   2.502   1.426   2.564
13890TIP3    H163161   2.553   1.506   2.543
13890TIP3    H263162   2.414   1.450   2.531
13891TIP3   OH263163   2.078   0.911   2.021
13891TIP3    H163164   2.137   0.976   2.061
13891TIP3    H263165   1.990   0.943   2.047
13892TIP3   OH263166   2.644   1.192   2.516
13892TIP3    H163167   2.615   1.285   2.525
13892TIP3    H263168   2.571   1.145   2.560
13893TIP3   OH263169   2.689   1.610   3.155
13893TIP3    H163170   2.733   1.692   3.128
13893TIP3    H263171   2.749   1.578   3.224
13894TIP3   OH263172   2.512   1.693   2.470
13894TIP3    H163173   2.415   1.706   2.481
13894TIP3    H263174   2.547   1.777   2.505
13895TIP3   OH263175   3.044   1.213   3.120
13895TIP3    H163176   3.008   1.193   3.208
13895TIP3    H263177   3.106   1.141   3.102
13896TIP3   OH263178   3.273   1.316   2.027
13896TIP3    H163179   3.304   1.271   2.109
13896TIP3    H263180   3.177   1.300   2.037
13897TIP3   OH263181   3.320   1.670   3.369
13897TIP3    H163182   3.254   1.619   3.319
13897TIP3    H263183   3.342   1.739   3.303
13898TIP3   OH263184   3.721   1.754   2.052
13898TIP3    H163185   3.792   1.820   2.033
13898TIP3    H263186   3.650   1.816   2.082
13899TIP3   OH263187   2.129   0.394   3.309
13899TIP3    H163188   2.038   0.429   3.304
13899TIP3    H263189   2.116   0.307   3.351
13900TIP3   OH263190   3.353   1.181   2.251
13900TIP3    H163191   3.329   1.104   2.306
13900TIP3    H263192   3.448   1.187   2.271
13901TIP3   OH263193   2.089   1.574   3.153
13901TIP3    H163194   2.120   1.481   3.148
13901TIP3    H263195   2.123   1.602   3.238
13902TIP3   OH263196   2.685   1.425   1.875
13902TIP3    H163197   2.699   1.348   1.818
13902TIP3    H263198   2.647   1.382   1.955
13903TIP3   OH263199   2.568   1.378   2.121
13903TIP3    H163200   2.590   1.327   2.199
13903TIP3    H263201   2.573   1.471   2.153
13904TIP3   OH263202   2.218   1.103   2.170
13904TIP3    H163203   2.148   1.142   2.226
13904TIP3    H263204   2.270   1.181   2.143
13905TIP3   OH263205   3.002   0.370   3.201
13905TIP3    H163206   3.074   0.378   3.266
13905TIP3    H263207   2.965   0.281   3.218
13906TIP3   OH263208   3.080   0.329   2.310
13906TIP3    H163209   3.100   0.380   2.229
13906TIP3    H263210   3.133   0.377   2.376
13907TIP3   OH263211   2.846   1.545   2.193
13907TIP3    H163212   2.764   1.598   2.199
13907TIP3    H263213   2.899   1.599   2.132
13908TIP3   OH263214   2.800   0.503   2.393
13908TIP3    H163215   2.878   0.560   2.397
13908TIP3    H263216   2.774   0.493   2.486
13909TIP3   OH263217   2.854   0.606   3.311
13909TIP3    H163218   2.863   0.663   3.390
13909TIP3    H263219   2.920   0.537   3.322
13910TIP3   OH263220   2.887   0.211   2.486
13910TIP3    H163221   2.853   0.278   2.548
13910TIP3    H263222   2.952   0.265   2.437
13911TIP3   OH263223   2.584   1.649   2.194
13911TIP3    H163224   2.595   1.731   2.140
13911TIP3    H263225   2.559   1.684   2.282
13912TIP3   OH263226   2.450   0.320   2.152
13912TIP3    H163227   2.445   0.410   2.189
13912TIP3    H263228   2.543   0.299   2.177
13913TIP3   OH263229   3.473   0.393   3.396
13913TIP3    H163230   3.381   0.424   3.384
13913TIP3    H263231   3.504   0.393   3.304
13914TIP3   OH263232   3.334   0.773   2.799
13914TIP3    H163233   3.252   0.729   2.770
13914TIP3    H263234   3.381   0.703   2.851
13915TIP3   OH263235   2.275   1.365   2.058
13915TIP3    H163236   2.339   1.431   2.088
13915TIP3    H263237   2.326   1.320   1.988
13916TIP3   OH263238   2.109   0.632   1.971
13916TIP3    H163239   2.109   0.728   1.991
13916TIP3    H263240   2.020   0.612   1.942
13917TIP3   OH263241   3.440   1.697   2.965
13917TIP3    H163242   3.430   1.766   2.897
13917TIP3    H263243   3.536   1.704   2.983
13918TIP3   OH263244   2.172   0.125   2.846
13918TIP3    H163245   2.170   0.115   2.748
13918TIP3    H263246   2.154   0.032   2.869
13919TIP3   OH263247   2.086   1.502   2.458
13919TIP3    H163248   2.001   1.549   2.456
13919TIP3    H263249   2.135   1.552   2.392
13920TIP3   OH263250   2.007   1.763   3.585
13920TIP3    H163251   2.068   1.749   3.663
13920TIP3    H263252   1.970   1.676   3.582
13921TIP3   OH263253   2.473   1.659   3.750
13921TIP3    H163254   2.550   1.610   3.783
13921TIP3    H263255   2.471   1.633   3.656
13922TIP3   OH263256   2.886   1.611   1.889
13922TIP3    H163257   2.818   1.545   1.915
13922TIP3    H263258   2.959   1.552   1.865
13923TIP3   OH263259   3.127   1.497   3.623
13923TIP3    H163260   3.094   1.409   3.650
13923TIP3    H263261   3.202   1.509   3.684
13924TIP3   OH263262   3.343   1.587   1.909
13924TIP3    H163263   3.372   1.508   1.958
13924TIP3    H263264   3.419   1.610   1.853
13925TIP3   OH263265   2.000   1.147   3.686
13925TIP3    H163266   2.015   1.055   3.656
13925TIP3    H263267   1.924   1.173   3.632
13926TIP3   OH263268   2.433   1.180   1.892
13926TIP3    H163269   2.446   1.102   1.949
13926TIP3    H263270   2.506   1.168   1.828
13927TIP3   OH263271   2.669   1.144   3.627
13927TIP3    H163272   2.635   1.173   3.540
13927TIP3    H263273   2.679   1.046   3.617
13928TIP3   OH263274   2.974   1.289   1.868
13928TIP3    H163275   2.947   1.300   1.961
13928TIP3    H263276   2.954   1.193   1.855
13929TIP3   OH263277   3.240   1.131   3.365
13929TIP3    H163278   3.317   1.191   3.357
13929TIP3    H263279   3.168   1.195   3.370
13930TIP3   OH263280   2.088   0.868   3.626
13930TIP3    H163281   2.129   0.781   3.616
13930TIP3    H263282   2.064   0.868   3.719
13931TIP3   OH263283   2.552   0.981   2.131
13931TIP3    H163284   2.504   0.928   2.196
13931TIP3    H263285   2.581   0.912   2.065
13932TIP3   OH263286   2.480   0.763   3.362
13932TIP3    H163287   2.419   0.835   3.389
13932TIP3    H263288   2.517   0.799   3.280
13933TIP3   OH263289   2.660   0.803   1.953
13933TIP3    H163290   2.643   0.792   1.857
13933TIP3    H263291   2.757   0.810   1.959
13934TIP3   OH263292   2.986   1.018   3.694
13934TIP3    H163293   3.082   1.020   3.685
13934TIP3    H263294   2.969   0.942   3.752
13935TIP3   OH263295   3.595   1.036   1.896
13935TIP3    H163296   3.573   0.996   1.811
13935TIP3    H263297   3.602   1.132   1.875
13936TIP3   OH263298   2.519   0.501   3.470
13936TIP3    H163299   2.531   0.429   3.406
13936TIP3    H263300   2.515   0.581   3.413
13937TIP3   OH263301   2.559   0.339   3.221
13937TIP3    H163302   2.611   0.386   3.152
13937TIP3    H263303   2.470   0.328   3.180
13938TIP3   OH263304   2.714   0.885   3.247
13938TIP3    H163305   2.790   0.869   3.189
13938TIP3    H263306   2.679   0.970   3.215
13939TIP3   OH263307   3.154   0.663   3.745
13939TIP3    H163308   3.177   0.570   3.735
13939TIP3    H263309   3.241   0.707   3.746
13940TIP3   OH263310   3.287   0.941   3.558
13940TIP3    H163311   3.262   1.014   3.497
13940TIP3    H263312   3.383   0.938   3.540
13941TIP3   OH263313   2.365   0.625   3.661
13941TIP3    H163314   2.288   0.567   3.642
13941TIP3    H263315   2.432   0.589   3.599
13942TIP3   OH263316   2.630   0.095   3.279
13942TIP3    H163317   2.623   0.190   3.254
13942TIP3    H263318   2.566   0.054   3.219
13943TIP3   OH263319   2.765   0.515   3.622
13943TIP3    H163320   2.736   0.490   3.712
13943TIP3    H263321   2.686   0.495   3.570
13944TIP3   OH263322   3.037   0.433   3.532
13944TIP3    H163323   2.940   0.433   3.543
13944TIP3    H263324   3.065   0.366   3.598
13945TIP3   OH263325   3.199   0.296   3.726
13945TIP3    H163326   3.189   0.198   3.725
13945TIP3    H263327   3.168   0.320   3.815
13946TIP3   OH263328   2.175   0.416   3.633
13946TIP3    H163329   2.201   0.343   3.574
13946TIP3    H263330   2.168   0.371   3.720
13947TIP3   OH263331   2.659   7.358   3.531
13947TIP3    H163332   2.728   7.292   3.535
13947TIP3    H263333   2.651   7.384   3.437
13948TIP3   OH263334   2.697   0.186   3.738
13948TIP3    H163335   2.682   0.132   3.657
13948TIP3    H263336   2.636   0.260   3.731
13949TIP3   OH263337   2.644   1.872   2.059
13949TIP3    H163338   2.741   1.884   2.067
13949TIP3    H263339   2.627   1.936   1.988
13950TIP3   OH263340   2.001   1.333   2.006
13950TIP3    H163341   2.097   1.341   2.027
13950TIP3    H263342   2.006   1.266   1.933
13951TIP3   OH263343   1.876   1.871   2.506
13951TIP3    H163344   1.805   1.823   2.457
13951TIP3    H263345   1.905   1.804   2.570
13952TIP3   OH263346   1.959   1.682   2.690
13952TIP3    H163347   1.924   1.595   2.711
13952TIP3    H263348   1.981   1.716   2.778
13953TIP3   OH263349   3.712   1.763   2.986
13953TIP3    H163350   3.714   1.780   3.081
13953TIP3    H263351   3.783   1.820   2.954
13954TIP3   OH263352   3.670   1.722   3.280
13954TIP3    H163353   3.622   1.645   3.242
13954TIP3    H263354   3.720   1.678   3.349
13955TIP3   OH263355   3.514   1.295   3.745
13955TIP3    H163356   3.425   1.290   3.783
13955TIP3    H263357   3.552   1.375   3.788
13956TIP3   OH263358   3.645   1.127   2.291
13956TIP3    H163359   3.732   1.166   2.308
13956TIP3    H263360   3.645   1.053   2.357
13957TIP3   OH263361   3.683   0.934   2.478
13957TIP3    H163362   3.608   0.883   2.518
13957TIP3    H263363   3.742   0.949   2.553
13958TIP3   OH263364   3.658   1.205   2.976
13958TIP3    H163365   3.741   1.168   2.940
13958TIP3    H263366   3.672   1.301   2.959
13959TIP3   OH263367   3.513   1.495   3.204
13959TIP3    H163368   3.444   1.529   3.264
13959TIP3    H263369   3.458   1.454   3.134
13960TIP3   OH263370   3.712   0.917   2.117
13960TIP3    H163371   3.657   0.953   2.045
13960TIP3    H263372   3.704   0.988   2.184
13961TIP3   OH263373   3.549   0.642   1.970
13961TIP3    H163374   3.556   0.709   1.901
13961TIP3    H263375   3.531   0.559   1.920
13962TIP3   OH263376   3.464   0.782   2.534
13962TIP3    H163377   3.449   0.687   2.532
13962TIP3    H263378   3.429   0.806   2.622
13963TIP3   OH263379   1.964   0.990   2.939
13963TIP3    H163380   1.984   0.982   2.843
13963TIP3    H263381   2.054   0.975   2.976
13964TIP3   OH263382   3.549   0.979   3.502
13964TIP3    H163383   3.609   0.904   3.517
13964TIP3    H263384   3.608   1.057   3.504
13965TIP3   OH263385   3.700   0.769   3.568
13965TIP3    H163386   3.612   0.728   3.552
13965TIP3    H263387   3.758   0.691   3.560
13966TIP3   OH263388   3.472   0.389   1.884
13966TIP3    H163389   3.533   0.346   1.946
13966TIP3    H263390   3.388   0.343   1.900
13967TIP3   OH263391   3.430   0.541   2.378
13967TIP3    H163392   3.462   0.450   2.392
13967TIP3    H263393   3.511   0.582   2.345
13968TIP3   OH263394   3.494   0.597   2.924
13968TIP3    H163395   3.590   0.619   2.923
13968TIP3    H263396   3.475   0.608   3.018
13969TIP3   OH263397   3.500   0.669   3.203
13969TIP3    H163398   3.413   0.697   3.236
13969TIP3    H263399   3.544   0.754   3.181
13970TIP3   OH263400   1.925   0.522   3.554
13970TIP3    H163401   2.019   0.500   3.574
13970TIP3    H263402   1.881   0.440   3.584
13971TIP3   OH263403   3.732   0.070   3.739
13971TIP3    H163404   3.761   0.005   3.674
13971TIP3    H263405   3.737   0.154   3.690
13972TIP3   OH263406   3.497   0.268   2.385
13972TIP3    H163407   3.516   0.222   2.469
13972TIP3    H263408   3.438   0.204   2.339
13973TIP3   OH263409   2.044   0.351   2.839
13973TIP3    H163410   2.092   0.270   2.868
13973TIP3    H263411   2.099   0.419   2.881
13974TIP3   OH263412   1.875   0.649   2.945
13974TIP3    H163413   1.930   0.626   2.868
13974TIP3    H263414   1.919   0.731   2.972
13975TIP3   OH263415   3.682   0.280   3.571
13975TIP3    H163416   3.588   0.307   3.568
13975TIP3    H263417   3.686   0.225   3.492
13976TIP3   OH263418   3.680   0.276   2.038
13976TIP3    H163419   3.723   0.200   1.990
13976TIP3    H263420   3.753   0.339   2.044
13977TIP3   OH263421   1.914   0.273   2.352
13977TIP3    H163422   1.819   0.293   2.338
13977TIP3    H263423   1.954   0.324   2.281
13978TIP3   OH263424   3.385   1.771   2.547
13978TIP3    H163425   3.453   1.739   2.485
13978TIP3    H263426   3.437   1.821   2.611
13979TIP3   OH263427   1.907   0.145   3.183
13979TIP3    H163428   1.840   0.124   3.250
13979TIP3    H263429   1.860   0.209   3.126
13980TIP3   OH263430   2.129   1.466   3.598
13980TIP3    H163431   2.043   1.477   3.557
13980TIP3    H263432   2.104   1.453   3.691
13981TIP3   OH263433   2.419   1.561   3.226
13981TIP3    H163434   2.385   1.647   3.197
13981TIP3    H263435   2.512   1.571   3.196
13982TIP3   OH263436   2.852   1.704   3.518
13982TIP3    H163437   2.868   1.669   3.609
13982TIP3    H263438   2.941   1.734   3.491
13983TIP3   OH263439   3.082   1.831   3.446
13983TIP3    H163440   3.154   1.771   3.423
13983TIP3    H263441   3.119   1.873   3.527
13984TIP3   OH263442   3.583   0.094   3.355
13984TIP3    H163443   3.499   0.125   3.317
13984TIP3    H263444   3.601   0.013   3.303
13985TIP3   OH263445   2.160   1.883   3.226
13985TIP3    H163446   2.091   1.937   3.184
13985TIP3    H263447   2.130   1.868   3.316
13986TIP3   OH263448   2.410   1.844   3.133
13986TIP3    H163449   2.321   1.857   3.173
13986TIP3    H263450   2.403   1.903   3.055
13987TIP3   OH263451   2.880   1.835   3.050
13987TIP3    H163452   2.833   1.890   2.985
13987TIP3    H263453   2.894   1.898   3.124
13988TIP3   OH263454   3.110   1.718   3.149
13988TIP3    H163455   3.023   1.743   3.117
13988TIP3    H263456   3.156   1.804   3.141
13989TIP3   OH263457   3.369   1.875   3.176
13989TIP3    H163458   3.359   1.971   3.152
13989TIP3    H263459   3.389   1.838   3.088
13990TIP3   OH263460   2.105   1.751   2.920
13990TIP3    H163461   2.102   1.704   3.006
13990TIP3    H263462   2.187   1.715   2.880
13991TIP3   OH263463   2.315   1.622   2.785
13991TIP3    H163464   2.298   1.529   2.807
13991TIP3    H263465   2.401   1.636   2.832
13992TIP3   OH263466   2.574   1.670   2.872
13992TIP3    H163467   2.592   1.578   2.845
13992TIP3    H263468   2.580   1.664   2.968
13993TIP3   OH263469   2.920   0.241   2.785
13993TIP3    H163470   2.855   0.172   2.813
13993TIP3    H263471   2.979   0.187   2.731
13994TIP3   OH263472   3.434   0.044   2.797
13994TIP3    H163473   3.496   0.098   2.743
13994TIP3    H263474   3.347   0.076   2.771
13995TIP3   OH263475   3.605   0.165   2.622
13995TIP3    H163476   3.672   0.107   2.580
13995TIP3    H263477   3.652   0.250   2.632
13996TIP3   OH263478   2.161   0.102   2.560
13996TIP3    H163479   2.076   0.075   2.521
13996TIP3    H263480   2.202   0.015   2.573
13997TIP3   OH263481   2.012   0.118   2.092
13997TIP3    H163482   2.098   0.161   2.083
13997TIP3    H263483   1.980   0.141   2.181
13998TIP3   OH263484   2.634   0.130   2.581
13998TIP3    H163485   2.728   0.131   2.557
13998TIP3    H263486   2.617   0.065   2.652
13999TIP3   OH263487   3.159   0.114   2.718
13999TIP3    H163488   3.173   0.111   2.623
13999TIP3    H263489   3.146   0.016   2.730
14000TIP3   OH263490   3.302   0.095   2.284
14000TIP3    H163491   3.231   0.158   2.263
14000TIP3    H263492   3.259   0.010   2.297
14001TIP3   OH263493   2.028   1.669   2.243
14001TIP3    H163494   1.960   1.668   2.173
14001TIP3    H263495   2.027   1.764   2.264
14002TIP3   OH263496   2.220   0.270   1.993
14002TIP3    H163497   2.273   0.208   1.939
14002TIP3    H263498   2.285   0.300   2.058
14003TIP3   OH263499   2.717   0.293   2.238
14003TIP3    H163500   2.748   0.235   2.309
14003TIP3    H263501   2.725   0.380   2.284
14004TIP3   OH263502   2.914   1.797   2.080
14004TIP3    H163503   3.004   1.825   2.058
14004TIP3    H263504   2.892   1.748   1.998
14005TIP3   OH263505   3.585   1.750   2.350
14005TIP3    H163506   3.565   1.672   2.292
14005TIP3    H263507   3.579   1.824   2.287
14006TIP3   OH263508   2.142   0.151   3.513
14006TIP3    H163509   2.110   0.074   3.560
14006TIP3    H263510   2.235   0.150   3.549
14007TIP3   OH263511   2.330   0.104   3.669
14007TIP3    H163512   2.424   0.076   3.659
14007TIP3    H263513   2.311   0.020   3.715
14008TIP3   OH263514   2.207   1.766   1.940
14008TIP3    H163515   2.182   1.793   2.030
14008TIP3    H263516   2.286   1.710   1.956
14009TIP3   OH263517   3.184   7.384   3.691
14009TIP3    H163518   3.192   7.323   3.768
14009TIP3    H263519   3.272   7.363   3.656
14010TIP3   OH263520   3.509   1.624   3.560
14010TIP3    H163521   3.428   1.609   3.506
14010TIP3    H263522   3.497   1.718   3.581
14011TIP3   OH263523   4.951   1.012   2.559
14011TIP3    H163524   4.953   1.109   2.552
14011TIP3    H263525   4.881   0.988   2.497
14012TIP3   OH263526   4.839   0.938   2.908
14012TIP3    H163527   4.837   0.873   2.978
14012TIP3    H263528   4.806   0.889   2.831
14013TIP3   OH263529   4.075   0.904   3.063
14013TIP3    H163530   4.083   0.837   3.134
14013TIP3    H263531   4.149   0.962   3.084
14014TIP3   OH263532   5.209   1.232   2.735
14014TIP3    H163533   5.166   1.161   2.783
14014TIP3    H263534   5.210   1.303   2.802
14015TIP3   OH263535   4.167   1.349   2.915
14015TIP3    H163536   4.135   1.263   2.881
14015TIP3    H263537   4.263   1.330   2.920
14016TIP3   OH263538   3.832   0.707   2.461
14016TIP3    H163539   3.787   0.794   2.455
14016TIP3    H263540   3.774   0.652   2.405
14017TIP3   OH263541   3.901   0.928   2.674
14017TIP3    H163542   3.927   0.847   2.722
14017TIP3    H263543   3.973   0.937   2.610
14018TIP3   OH263544   4.920   1.747   2.759
14018TIP3    H163545   4.984   1.677   2.731
14018TIP3    H263546   4.900   1.717   2.847
14019TIP3   OH263547   4.676   1.180   2.952
14019TIP3    H163548   4.710   1.115   2.888
14019TIP3    H263549   4.755   1.193   3.007
14020TIP3   OH263550   5.541   0.341   3.028
14020TIP3    H163551   5.553   0.404   3.104
14020TIP3    H263552   5.591   0.387   2.960
14021TIP3   OH263553   4.993   0.624   2.984
14021TIP3    H163554   5.008   0.527   2.984
14021TIP3    H263555   4.983   0.639   2.888
14022TIP3   OH263556   4.306   0.435   2.708
14022TIP3    H163557   4.315   0.519   2.659
14022TIP3    H263558   4.264   0.377   2.641
14023TIP3   OH263559   5.078   0.441   2.544
14023TIP3    H163560   5.144   0.411   2.611
14023TIP3    H263561   5.134   0.498   2.488
14024TIP3   OH263562   3.968   0.674   2.782
14024TIP3    H163563   4.035   0.618   2.826
14024TIP3    H263564   3.976   0.643   2.690
14025TIP3   OH263565   4.484   0.829   2.710
14025TIP3    H163566   4.549   0.772   2.753
14025TIP3    H263567   4.430   0.763   2.663
14026TIP3   OH263568   5.582   0.485   3.254
14026TIP3    H163569   5.518   0.558   3.245
14026TIP3    H263570   5.585   0.473   3.350
14027TIP3   OH263571   4.195   0.326   3.113
14027TIP3    H163572   4.166   0.379   3.036
14027TIP3    H263573   4.124   0.346   3.179
14028TIP3   OH263574   4.926   1.272   2.467
14028TIP3    H163575   4.897   1.242   2.379
14028TIP3    H263576   4.894   1.365   2.472
14029TIP3   OH263577   4.447   1.088   3.138
14029TIP3    H163578   4.375   1.152   3.156
14029TIP3    H263579   4.518   1.147   3.108
14030TIP3   OH263580   5.259   0.375   2.743
14030TIP3    H163581   5.236   0.299   2.798
14030TIP3    H263582   5.326   0.419   2.798
14031TIP3   OH263583   4.150   0.511   2.912
14031TIP3    H163584   4.214   0.577   2.946
14031TIP3    H263585   4.204   0.466   2.842
14032TIP3   OH263586   4.291   1.287   3.219
14032TIP3    H163587   4.287   1.378   3.183
14032TIP3    H263588   4.202   1.280   3.263
14033TIP3   OH263589   3.900   1.250   2.298
14033TIP3    H163590   3.874   1.281   2.209
14033TIP3    H263591   3.906   1.335   2.347
14034TIP3   OH263592   5.261   1.415   2.972
14034TIP3    H163593   5.165   1.426   2.985
14034TIP3    H263594   5.288   1.508   2.954
14035TIP3   OH263595   5.294   0.245   3.116
14035TIP3    H163596   5.220   0.306   3.103
14035TIP3    H263597   5.363   0.285   3.058
14036TIP3   OH263598   4.618   0.072   2.857
14036TIP3    H163599   4.599  -0.023   2.853
14036TIP3    H263600   4.526   0.096   2.879
14037TIP3   OH263601   5.086   1.594   2.632
14037TIP3    H163602   5.130   1.523   2.581
14037TIP3    H263603   5.126   1.674   2.591
14038TIP3   OH263604   5.206   1.387   2.483
14038TIP3    H163605   5.177   1.316   2.423
14038TIP3    H263606   5.211   1.338   2.568
14039TIP3   OH263607   5.370   1.245   3.333
14039TIP3    H163608   5.385   1.181   3.259
14039TIP3    H263609   5.389   1.331   3.291
14040TIP3   OH263610   4.819   0.936   2.310
14040TIP3    H163611   4.749   0.992   2.273
14040TIP3    H263612   4.889   0.944   2.243
14041TIP3   OH263613   4.825   0.789   2.011
14041TIP3    H163614   4.897   0.788   2.077
14041TIP3    H263615   4.857   0.720   1.951
14042TIP3   OH263616   5.558   0.876   3.138
14042TIP3    H163617   5.491   0.948   3.143
14042TIP3    H263618   5.605   0.899   3.056
14043TIP3   OH263619   5.162   0.958   2.402
14043TIP3    H163620   5.087   0.981   2.462
14043TIP3    H263621   5.208   0.888   2.452
14044TIP3   OH263622   5.155   0.773   3.313
14044TIP3    H163623   5.157   0.854   3.367
14044TIP3    H263624   5.092   0.803   3.244
14045TIP3   OH263625   4.325   1.024   2.593
14045TIP3    H163626   4.292   0.984   2.508
14045TIP3    H263627   4.385   0.953   2.626
14046TIP3   OH263628   4.458   1.363   2.861
14046TIP3    H163629   4.455   1.308   2.782
14046TIP3    H263630   4.535   1.326   2.907
14047TIP3   OH263631   4.359   0.897   2.958
14047TIP3    H163632   4.415   0.909   2.879
14047TIP3    H263633   4.395   0.963   3.020
14048TIP3   OH263634   4.997   1.453   3.028
14048TIP3    H163635   4.970   1.517   3.095
14048TIP3    H263636   4.973   1.368   3.072
14049TIP3   OH263637   4.452   1.339   3.428
14049TIP3    H163638   4.415   1.415   3.476
14049TIP3    H263639   4.385   1.321   3.358
14050TIP3   OH263640   5.050   0.876   2.169
14050TIP3    H163641   5.106   0.892   2.248
14050TIP3    H263642   5.095   0.924   2.096
14051TIP3   OH263643   4.146   0.956   3.346
14051TIP3    H163644   4.150   1.023   3.417
14051TIP3    H263645   4.053   0.967   3.321
14052TIP3   OH263646   4.822   1.549   2.515
14052TIP3    H163647   4.867   1.579   2.595
14052TIP3    H263648   4.765   1.623   2.492
14053TIP3   OH263649   4.275   1.550   3.503
14053TIP3    H163650   4.273   1.531   3.407
14053TIP3    H263651   4.183   1.530   3.530
14054TIP3   OH263652   5.423   0.056   2.147
14054TIP3    H163653   5.332   0.062   2.183
14054TIP3    H263654   5.442   0.143   2.112
14055TIP3   OH263655   4.222   0.926   2.354
14055TIP3    H163656   4.194   1.004   2.303
14055TIP3    H263657   4.156   0.861   2.333
14056TIP3   OH263658   5.534   1.485   1.993
14056TIP3    H163659   5.549   1.580   2.009
14056TIP3    H263660   5.627   1.456   1.990
14057TIP3   OH263661   3.832   1.168   3.240
14057TIP3    H163662   3.785   1.160   3.155
14057TIP3    H263663   3.836   1.073   3.264
14058TIP3   OH263664   3.807   1.441   2.921
14058TIP3    H163665   3.903   1.429   2.920
14058TIP3    H263666   3.798   1.522   2.973
14059TIP3   OH263667   5.632   1.511   3.491
14059TIP3    H163668   5.620   1.415   3.488
14059TIP3    H263669   5.544   1.536   3.529
14060TIP3   OH263670   4.726   1.466   3.376
14060TIP3    H163671   4.733   1.550   3.427
14060TIP3    H263672   4.639   1.431   3.402
14061TIP3   OH263673   4.770   1.841   2.357
14061TIP3    H163674   4.759   1.832   2.261
14061TIP3    H263675   4.771   1.937   2.371
14062TIP3   OH263676   4.134   1.727   2.537
14062TIP3    H163677   4.148   1.686   2.625
14062TIP3    H263678   4.049   1.687   2.513
14063TIP3   OH263679   5.076   1.762   2.055
14063TIP3    H163680   5.119   1.685   2.011
14063TIP3    H263681   5.079   1.734   2.149
14064TIP3   OH263682   5.045   1.754   2.332
14064TIP3    H163683   4.950   1.762   2.350
14064TIP3    H263684   5.070   1.681   2.390
14065TIP3   OH263685   5.345   0.659   3.538
14065TIP3    H163686   5.299   0.705   3.465
14065TIP3    H263687   5.345   0.568   3.507
14066TIP3   OH263688   4.058   1.300   3.337
14066TIP3    H163689   4.081   1.262   3.425
14066TIP3    H263690   3.972   1.259   3.316
14067TIP3   OH263691   4.321   0.158   2.940
14067TIP3    H163692   4.234   0.141   2.897
14067TIP3    H263693   4.309   0.241   2.984
14068TIP3   OH263694   4.789   0.114   3.272
14068TIP3    H163695   4.829   0.075   3.349
14068TIP3    H263696   4.693   0.102   3.287
14069TIP3   OH263697   5.120   0.494   3.359
14069TIP3    H163698   5.064   0.478   3.439
14069TIP3    H263699   5.103   0.587   3.335
14070TIP3   OH263700   5.193   0.981   1.944
14070TIP3    H163701   5.198   0.958   1.848
14070TIP3    H263702   5.282   1.020   1.953
14071TIP3   OH263703   4.758   0.366   2.003
14071TIP3    H163704   4.724   0.369   2.094
14071TIP3    H263705   4.723   0.283   1.969
14072TIP3   OH263706   4.335   0.642   3.054
14072TIP3    H163707   4.264   0.641   3.120
14072TIP3    H263708   4.332   0.735   3.021
14073TIP3   OH263709   4.332   0.658   2.543
14073TIP3    H163710   4.239   0.630   2.531
14073TIP3    H263711   4.372   0.626   2.460
14074TIP3   OH263712   4.884   0.705   2.422
14074TIP3    H163713   4.844   0.788   2.387
14074TIP3    H263714   4.954   0.690   2.356
14075TIP3   OH263715   4.792   0.726   3.566
14075TIP3    H163716   4.737   0.650   3.598
14075TIP3    H263717   4.875   0.712   3.614
14076TIP3   OH263718   4.987   0.653   2.705
14076TIP3    H163719   4.961   0.710   2.630
14076TIP3    H263720   4.999   0.569   2.658
14077TIP3   OH263721   4.101   0.671   3.228
14077TIP3    H163722   4.104   0.711   3.317
14077TIP3    H263723   4.055   0.587   3.245
14078TIP3   OH263724   4.439   0.406   1.912
14078TIP3    H163725   4.391   0.368   1.988
14078TIP3    H263726   4.368   0.451   1.863
14079TIP3   OH263727   3.766   0.384   2.621
14079TIP3    H163728   3.832   0.379   2.693
14079TIP3    H263729   3.810   0.342   2.546
14080TIP3   OH263730   3.894   0.456   2.164
14080TIP3    H163731   3.941   0.516   2.103
14080TIP3    H263732   3.822   0.515   2.194
14081TIP3   OH263733   4.909   0.814   3.164
14081TIP3    H163734   4.945   0.746   3.103
14081TIP3    H263735   4.863   0.760   3.231
14082TIP3   OH263736   4.588   0.408   2.644
14082TIP3    H163737   4.495   0.409   2.675
14082TIP3    H263738   4.637   0.398   2.727
14083TIP3   OH263739   4.070   0.566   2.531
14083TIP3    H163740   3.981   0.581   2.494
14083TIP3    H263741   4.099   0.481   2.493
14084TIP3   OH263742   4.435   0.568   2.293
14084TIP3    H163743   4.530   0.583   2.312
14084TIP3    H263744   4.411   0.638   2.230
14085TIP3   OH263745   5.030   0.332   2.970
14085TIP3    H163746   4.960   0.341   3.039
14085TIP3    H263747   4.979   0.311   2.890
14086TIP3   OH263748   4.304   0.688   2.053
14086TIP3    H163749   4.250   0.650   1.981
14086TIP3    H263750   4.386   0.708   2.006
14087TIP3   OH263751   5.353   1.895   3.603
14087TIP3    H163752   5.372   1.939   3.517
14087TIP3    H263753   5.423   1.932   3.658
14088TIP3   OH263754   4.118   1.145   3.559
14088TIP3    H163755   4.189   1.170   3.619
14088TIP3    H263756   4.039   1.158   3.617
14089TIP3   OH263757   4.718   0.685   2.834
14089TIP3    H163758   4.776   0.630   2.781
14089TIP3    H263759   4.703   0.632   2.913
14090TIP3   OH263760   4.217   0.303   2.477
14090TIP3    H163761   4.186   0.211   2.477
14090TIP3    H263762   4.297   0.297   2.423
14091TIP3   OH263763   4.581   0.520   3.075
14091TIP3    H163764   4.498   0.570   3.086
14091TIP3    H263765   4.636   0.553   3.149
14092TIP3   OH263766   4.640   1.143   2.245
14092TIP3    H163767   4.560   1.094   2.212
14092TIP3    H263768   4.619   1.152   2.340
14093TIP3   OH263769   5.356   1.060   3.126
14093TIP3    H163770   5.414   1.108   3.065
14093TIP3    H263771   5.271   1.068   3.078
14094TIP3   OH263772   5.023   0.425   2.065
14094TIP3    H163773   4.929   0.441   2.049
14094TIP3    H263774   5.057   0.511   2.097
14095TIP3   OH263775   4.788   1.166   3.369
14095TIP3    H163776   4.754   1.125   3.449
14095TIP3    H263777   4.766   1.259   3.379
14096TIP3   OH263778   5.096   0.614   2.228
14096TIP3    H163779   5.186   0.601   2.265
14096TIP3    H263780   5.105   0.695   2.175
14097TIP3   OH263781   4.150   1.079   2.825
14097TIP3    H163782   4.221   1.073   2.758
14097TIP3    H263783   4.157   0.993   2.871
14098TIP3   OH263784   4.850   1.289   2.148
14098TIP3    H163785   4.817   1.373   2.185
14098TIP3    H263786   4.777   1.228   2.169
14099TIP3   OH263787   3.849   0.921   3.353
14099TIP3    H163788   3.869   0.877   3.437
14099TIP3    H263789   3.788   0.859   3.309
14100TIP3   OH263790   4.550   0.876   3.572
14100TIP3    H163791   4.520   0.850   3.484
14100TIP3    H263792   4.644   0.847   3.571
14101TIP3   OH263793   5.018   1.410   3.363
14101TIP3    H163794   4.925   1.429   3.340
14101TIP3    H263795   5.016   1.439   3.457
14102TIP3   OH263796   5.589   0.631   2.203
14102TIP3    H163797   5.530   0.600   2.130
14102TIP3    H263798   5.593   0.725   2.172
14103TIP3   OH263799   5.585   1.215   3.485
14103TIP3    H163800   5.496   1.237   3.448
14103TIP3    H263801   5.640   1.211   3.405
14104TIP3   OH263802   5.414   1.512   2.244
14104TIP3    H163803   5.379   1.429   2.278
14104TIP3    H263804   5.446   1.492   2.155
14105TIP3   OH263805   5.135   0.994   2.953
14105TIP3    H163806   5.041   0.971   2.944
14105TIP3    H263807   5.178   0.916   2.912
14106TIP3   OH263808   4.387   1.426   2.564
14106TIP3    H163809   4.438   1.506   2.543
14106TIP3    H263810   4.299   1.450   2.531
14107TIP3   OH263811   3.964   0.911   2.021
14107TIP3    H163812   4.023   0.976   2.061
14107TIP3    H263813   3.875   0.943   2.047
14108TIP3   OH263814   4.530   1.192   2.516
14108TIP3    H163815   4.500   1.285   2.525
14108TIP3    H263816   4.456   1.145   2.560
14109TIP3   OH263817   4.574   1.611   3.157
14109TIP3    H163818   4.620   1.692   3.127
14109TIP3    H263819   4.636   1.577   3.224
14110TIP3   OH263820   4.397   1.693   2.470
14110TIP3    H163821   4.301   1.706   2.481
14110TIP3    H263822   4.433   1.777   2.505
14111TIP3   OH263823   4.930   1.213   3.120
14111TIP3    H163824   4.893   1.193   3.208
14111TIP3    H263825   4.992   1.141   3.102
14112TIP3   OH263826   5.159   1.317   2.027
14112TIP3    H163827   5.189   1.271   2.109
14112TIP3    H263828   5.063   1.300   2.037
14113TIP3   OH263829   5.208   1.668   3.368
14113TIP3    H163830   5.139   1.620   3.318
14113TIP3    H263831   5.227   1.741   3.305
14114TIP3   OH263832   5.607   1.754   2.052
14114TIP3    H163833   5.677   1.820   2.033
14114TIP3    H263834   5.536   1.816   2.082
14115TIP3   OH263835   4.014   0.394   3.309
14115TIP3    H163836   3.924   0.429   3.304
14115TIP3    H263837   4.002   0.307   3.350
14116TIP3   OH263838   5.239   1.181   2.251
14116TIP3    H163839   5.215   1.104   2.306
14116TIP3    H263840   5.333   1.187   2.271
14117TIP3   OH263841   3.978   1.576   3.150
14117TIP3    H163842   4.003   1.482   3.150
14117TIP3    H263843   4.002   1.601   3.240
14118TIP3   OH263844   4.571   1.425   1.875
14118TIP3    H163845   4.585   1.348   1.818
14118TIP3    H263846   4.532   1.382   1.955
14119TIP3   OH263847   4.453   1.378   2.121
14119TIP3    H163848   4.476   1.327   2.199
14119TIP3    H263849   4.459   1.471   2.153
14120TIP3   OH263850   4.104   1.103   2.170
14120TIP3    H163851   4.034   1.142   2.226
14120TIP3    H263852   4.156   1.181   2.143
14121TIP3   OH263853   4.888   0.370   3.201
14121TIP3    H163854   4.959   0.378   3.266
14121TIP3    H263855   4.850   0.281   3.218
14122TIP3   OH263856   4.966   0.327   2.308
14122TIP3    H163857   4.986   0.382   2.229
14122TIP3    H263858   5.017   0.375   2.375
14123TIP3   OH263859   4.732   1.545   2.193
14123TIP3    H163860   4.650   1.598   2.199
14123TIP3    H263861   4.785   1.599   2.132
14124TIP3   OH263862   4.686   0.501   2.392
14124TIP3    H163863   4.764   0.561   2.397
14124TIP3    H263864   4.660   0.492   2.485
14125TIP3   OH263865   4.740   0.606   3.311
14125TIP3    H163866   4.749   0.663   3.390
14125TIP3    H263867   4.806   0.537   3.322
14126TIP3   OH263868   4.770   0.211   2.481
14126TIP3    H163869   4.738   0.276   2.547
14126TIP3    H263870   4.839   0.267   2.439
14127TIP3   OH263871   4.469   1.649   2.194
14127TIP3    H163872   4.481   1.731   2.140
14127TIP3    H263873   4.444   1.684   2.282
14128TIP3   OH263874   4.339   0.317   2.152
14128TIP3    H163875   4.329   0.408   2.189
14128TIP3    H263876   4.429   0.302   2.180
14129TIP3   OH263877   5.359   0.393   3.396
14129TIP3    H163878   5.266   0.424   3.384
14129TIP3    H263879   5.390   0.393   3.304
14130TIP3   OH263880   5.218   0.773   2.801
14130TIP3    H163881   5.137   0.729   2.770
14130TIP3    H263882   5.266   0.703   2.850
14131TIP3   OH263883   4.160   1.365   2.058
14131TIP3    H163884   4.225   1.431   2.088
14131TIP3    H263885   4.212   1.320   1.988
14132TIP3   OH263886   3.995   0.632   1.972
14132TIP3    H163887   3.994   0.728   1.991
14132TIP3    H263888   3.906   0.612   1.942
14133TIP3   OH263889   5.327   1.693   2.959
14133TIP3    H163890   5.315   1.768   2.897
14133TIP3    H263891   5.421   1.705   2.985
14134TIP3   OH263892   4.057   0.125   2.846
14134TIP3    H163893   4.056   0.115   2.748
14134TIP3    H263894   4.040   0.032   2.869
14135TIP3   OH263895   3.971   1.502   2.458
14135TIP3    H163896   3.886   1.549   2.456
14135TIP3    H263897   4.021   1.552   2.392
14136TIP3   OH263898   3.897   1.768   3.587
14136TIP3    H163899   3.951   1.745   3.665
14136TIP3    H263900   3.850   1.683   3.570
14137TIP3   OH263901   4.359   1.661   3.749
14137TIP3    H163902   4.434   1.610   3.784
14137TIP3    H263903   4.357   1.630   3.656
14138TIP3   OH263904   4.771   1.611   1.889
14138TIP3    H163905   4.704   1.545   1.915
14138TIP3    H263906   4.844   1.552   1.865
14139TIP3   OH263907   5.012   1.497   3.623
14139TIP3    H163908   4.980   1.409   3.650
14139TIP3    H263909   5.088   1.509   3.684
14140TIP3   OH263910   5.228   1.588   1.909
14140TIP3    H163911   5.257   1.509   1.957
14140TIP3    H263912   5.304   1.609   1.853
14141TIP3   OH263913   3.886   1.146   3.687
14141TIP3    H163914   3.901   1.054   3.656
14141TIP3    H263915   3.810   1.172   3.632
14142TIP3   OH263916   4.319   1.180   1.892
14142TIP3    H163917   4.331   1.102   1.949
14142TIP3    H263918   4.391   1.168   1.828
14143TIP3   OH263919   4.555   1.144   3.626
14143TIP3    H163920   4.521   1.174   3.540
14143TIP3    H263921   4.565   1.047   3.616
14144TIP3   OH263922   4.860   1.289   1.868
14144TIP3    H163923   4.833   1.300   1.961
14144TIP3    H263924   4.840   1.193   1.855
14145TIP3   OH263925   5.125   1.131   3.365
14145TIP3    H163926   5.203   1.191   3.357
14145TIP3    H263927   5.054   1.195   3.370
14146TIP3   OH263928   3.974   0.868   3.626
14146TIP3    H163929   4.015   0.781   3.616
14146TIP3    H263930   3.949   0.867   3.720
14147TIP3   OH263931   4.438   0.981   2.131
14147TIP3    H163932   4.390   0.928   2.196
14147TIP3    H263933   4.466   0.912   2.065
14148TIP3   OH263934   4.366   0.763   3.362
14148TIP3    H163935   4.305   0.835   3.389
14148TIP3    H263936   4.403   0.799   3.280
14149TIP3   OH263937   4.545   0.803   1.953
14149TIP3    H163938   4.529   0.792   1.857
14149TIP3    H263939   4.643   0.810   1.959
14150TIP3   OH263940   4.871   1.018   3.693
14150TIP3    H163941   4.967   1.020   3.685
14150TIP3    H263942   4.854   0.942   3.752
14151TIP3   OH263943   5.464   1.051   1.901
14151TIP3    H163944   5.464   0.996   1.819
14151TIP3    H263945   5.489   1.139   1.871
14152TIP3   OH263946   4.405   0.501   3.470
14152TIP3    H163947   4.417   0.429   3.406
14152TIP3    H263948   4.401   0.581   3.413
14153TIP3   OH263949   4.445   0.339   3.221
14153TIP3    H163950   4.497   0.386   3.152
14153TIP3    H263951   4.356   0.328   3.180
14154TIP3   OH263952   4.600   0.885   3.247
14154TIP3    H163953   4.675   0.869   3.189
14154TIP3    H263954   4.565   0.970   3.215
14155TIP3   OH263955   5.040   0.663   3.745
14155TIP3    H163956   5.062   0.570   3.735
14155TIP3    H263957   5.127   0.707   3.746
14156TIP3   OH263958   5.172   0.941   3.558
14156TIP3    H163959   5.148   1.014   3.497
14156TIP3    H263960   5.269   0.938   3.540
14157TIP3   OH263961   4.251   0.625   3.663
14157TIP3    H163962   4.174   0.568   3.642
14157TIP3    H263963   4.317   0.590   3.600
14158TIP3   OH263964   4.515   0.095   3.279
14158TIP3    H163965   4.509   0.190   3.254
14158TIP3    H263966   4.451   0.054   3.219
14159TIP3   OH263967   4.651   0.516   3.623
14159TIP3    H163968   4.622   0.490   3.712
14159TIP3    H263969   4.572   0.495   3.570
14160TIP3   OH263970   4.923   0.433   3.532
14160TIP3    H163971   4.826   0.433   3.543
14160TIP3    H263972   4.951   0.366   3.598
14161TIP3   OH263973   5.084   0.297   3.726
14161TIP3    H163974   5.075   0.198   3.725
14161TIP3    H263975   5.054   0.320   3.815
14162TIP3   OH263976   4.060   0.416   3.633
14162TIP3    H163977   4.087   0.343   3.574
14162TIP3    H263978   4.054   0.371   3.720
14163TIP3   OH263979   4.544   7.358   3.531
14163TIP3    H163980   4.614   7.292   3.535
14163TIP3    H263981   4.536   7.384   3.437
14164TIP3   OH263982   4.582   0.186   3.738
14164TIP3    H163983   4.567   0.132   3.657
14164TIP3    H263984   4.521   0.260   3.730
14165TIP3   OH263985   4.530   1.872   2.059
14165TIP3    H163986   4.627   1.884   2.067
14165TIP3    H263987   4.513   1.936   1.988
14166TIP3   OH263988   3.886   1.333   2.006
14166TIP3    H163989   3.983   1.341   2.027
14166TIP3    H263990   3.891   1.266   1.933
14167TIP3   OH263991   3.762   1.871   2.505
14167TIP3    H163992   3.691   1.823   2.457
14167TIP3    H263993   3.791   1.805   2.570
14168TIP3   OH263994   3.845   1.683   2.690
14168TIP3    H163995   3.810   1.595   2.710
14168TIP3    H263996   3.867   1.716   2.779
14169TIP3   OH263997   5.598   1.762   2.986
14169TIP3    H163998   5.599   1.781   3.081
14169TIP3    H263999   5.668   1.820   2.955
14170TIP3   OH264000   5.559   1.721   3.279
14170TIP3    H164001   5.507   1.646   3.242
14170TIP3    H264002   5.607   1.677   3.351
14171TIP3   OH264003   5.400   1.295   3.745
14171TIP3    H164004   5.311   1.290   3.783
14171TIP3    H264005   5.438   1.375   3.788
14172TIP3   OH264006   5.530   1.128   2.293
14172TIP3    H164007   5.617   1.166   2.308
14172TIP3    H264008   5.531   1.053   2.356
14173TIP3   OH264009   5.569   0.932   2.477
14173TIP3    H164010   5.493   0.884   2.517
14173TIP3    H264011   5.626   0.950   2.554
14174TIP3   OH264012   5.544   1.205   2.975
14174TIP3    H164013   5.627   1.168   2.940
14174TIP3    H264014   5.558   1.301   2.959
14175TIP3   OH264015   5.398   1.495   3.204
14175TIP3    H164016   5.329   1.531   3.263
14175TIP3    H264017   5.343   1.454   3.134
14176TIP3   OH264018   5.599   0.920   2.126
14176TIP3    H164019   5.546   0.948   2.046
14176TIP3    H264020   5.587   0.994   2.186
14177TIP3   OH264021   5.416   0.634   1.976
14177TIP3    H164022   5.446   0.705   1.912
14177TIP3    H264023   5.418   0.557   1.919
14178TIP3   OH264024   5.352   0.782   2.534
14178TIP3    H164025   5.333   0.687   2.532
14178TIP3    H264026   5.315   0.806   2.621
14179TIP3   OH264027   3.850   0.990   2.939
14179TIP3    H164028   3.869   0.982   2.843
14179TIP3    H264029   3.939   0.975   2.976
14180TIP3   OH264030   5.434   0.979   3.502
14180TIP3    H164031   5.495   0.904   3.517
14180TIP3    H264032   5.494   1.057   3.504
14181TIP3   OH264033   5.585   0.769   3.568
14181TIP3    H164034   5.497   0.728   3.552
14181TIP3    H264035   5.643   0.691   3.560
14182TIP3   OH264036   5.357   0.387   1.882
14182TIP3    H164037   5.418   0.348   1.947
14182TIP3    H264038   5.272   0.343   1.900
14183TIP3   OH264039   5.315   0.542   2.378
14183TIP3    H164040   5.347   0.450   2.392
14183TIP3    H264041   5.395   0.583   2.342
14184TIP3   OH264042   5.380   0.597   2.924
14184TIP3    H164043   5.476   0.619   2.923
14184TIP3    H264044   5.360   0.609   3.018
14185TIP3   OH264045   5.386   0.669   3.203
14185TIP3    H164046   5.298   0.697   3.236
14185TIP3    H264047   5.430   0.754   3.181
14186TIP3   OH264048   3.811   0.522   3.554
14186TIP3    H164049   3.904   0.500   3.574
14186TIP3    H264050   3.766   0.440   3.584
14187TIP3   OH264051   5.617   0.070   3.739
14187TIP3    H164052   5.647   0.005   3.674
14187TIP3    H264053   5.623   0.154   3.690
14188TIP3   OH264054   5.382   0.268   2.384
14188TIP3    H164055   5.401   0.222   2.469
14188TIP3    H264056   5.323   0.204   2.339
14189TIP3   OH264057   3.930   0.351   2.839
14189TIP3    H164058   3.977   0.270   2.868
14189TIP3    H264059   3.984   0.419   2.881
14190TIP3   OH264060   3.761   0.649   2.945
14190TIP3    H164061   3.816   0.626   2.868
14190TIP3    H264062   3.805   0.731   2.972
14191TIP3   OH264063   5.568   0.280   3.571
14191TIP3    H164064   5.474   0.307   3.568
14191TIP3    H264065   5.572   0.225   3.492
14192TIP3   OH264066   5.568   0.272   2.041
14192TIP3    H164067   5.609   0.200   1.988
14192TIP3    H264068   5.636   0.340   2.043
14193TIP3   OH264069   3.800   0.273   2.352
14193TIP3    H164070   3.705   0.293   2.338
14193TIP3    H264071   3.839   0.324   2.281
14194TIP3   OH264072   5.271   1.771   2.547
14194TIP3    H164073   5.339   1.739   2.485
14194TIP3    H264074   5.323   1.821   2.611
14195TIP3   OH264075   3.792   0.145   3.183
14195TIP3    H164076   3.726   0.124   3.250
14195TIP3    H264077   3.746   0.209   3.126
14196TIP3   OH264078   4.015   1.465   3.598
14196TIP3    H164079   3.930   1.482   3.554
14196TIP3    H264080   3.988   1.456   3.690
14197TIP3   OH264081   4.306   1.563   3.228
14197TIP3    H164082   4.269   1.645   3.195
14197TIP3    H264083   4.398   1.570   3.195
14198TIP3   OH264084   4.735   1.704   3.518
14198TIP3    H164085   4.753   1.669   3.608
14198TIP3    H264086   4.825   1.735   3.491
14199TIP3   OH264087   4.963   1.824   3.451
14199TIP3    H164088   5.041   1.774   3.421
14199TIP3    H264089   5.006   1.876   3.523
14200TIP3   OH264090   5.469   0.094   3.355
14200TIP3    H164091   5.385   0.125   3.317
14200TIP3    H264092   5.486   0.013   3.303
14201TIP3   OH264093   4.051   1.891   3.233
14201TIP3    H164094   3.976   1.933   3.185
14201TIP3    H264095   4.009   1.862   3.314
14202TIP3   OH264096   4.295   1.848   3.137
14202TIP3    H164097   4.203   1.856   3.169
14202TIP3    H264098   4.289   1.901   3.055
14203TIP3   OH264099   4.763   1.834   3.050
14203TIP3    H164100   4.720   1.891   2.985
14203TIP3    H264101   4.781   1.898   3.123
14204TIP3   OH264102   4.996   1.717   3.148
14204TIP3    H164103   4.908   1.744   3.117
14204TIP3    H264104   5.042   1.804   3.143
14205TIP3   OH264105   5.275   1.859   3.161
14205TIP3    H164106   5.247   1.955   3.157
14205TIP3    H264107   5.276   1.833   3.069
14206TIP3   OH264108   3.991   1.751   2.920
14206TIP3    H164109   3.985   1.705   3.006
14206TIP3    H264110   4.073   1.715   2.880
14207TIP3   OH264111   4.201   1.622   2.785
14207TIP3    H164112   4.183   1.529   2.807
14207TIP3    H264113   4.286   1.636   2.832
14208TIP3   OH264114   4.460   1.670   2.872
14208TIP3    H164115   4.478   1.578   2.845
14208TIP3    H264116   4.465   1.664   2.968
14209TIP3   OH264117   4.805   0.241   2.784
14209TIP3    H164118   4.741   0.172   2.813
14209TIP3    H264119   4.865   0.187   2.731
14210TIP3   OH264120   5.320   0.044   2.797
14210TIP3    H164121   5.382   0.098   2.743
14210TIP3    H264122   5.233   0.076   2.771
14211TIP3   OH264123   5.490   0.165   2.622
14211TIP3    H164124   5.558   0.108   2.580
14211TIP3    H264125   5.537   0.250   2.632
14212TIP3   OH264126   4.047   0.102   2.560
14212TIP3    H164127   3.962   0.075   2.521
14212TIP3    H264128   4.088   0.015   2.573
14213TIP3   OH264129   3.898   0.117   2.092
14213TIP3    H164130   3.983   0.161   2.083
14213TIP3    H264131   3.866   0.141   2.181
14214TIP3   OH264132   4.520   0.126   2.577
14214TIP3    H164133   4.615   0.133   2.560
14214TIP3    H264134   4.503   0.067   2.652
14215TIP3   OH264135   5.045   0.114   2.719
14215TIP3    H164136   5.059   0.112   2.624
14215TIP3    H264137   5.031   0.016   2.730
14216TIP3   OH264138   5.187   0.095   2.282
14216TIP3    H164139   5.117   0.159   2.264
14216TIP3    H264140   5.146   0.010   2.298
14217TIP3   OH264141   3.913   1.669   2.243
14217TIP3    H164142   3.846   1.668   2.173
14217TIP3    H264143   3.912   1.764   2.264
14218TIP3   OH264144   4.106   0.269   1.993
14218TIP3    H164145   4.158   0.208   1.938
14218TIP3    H264146   4.170   0.301   2.058
14219TIP3   OH264147   4.607   0.289   2.236
14219TIP3    H164148   4.633   0.238   2.314
14219TIP3    H264149   4.610   0.378   2.281
14220TIP3   OH264150   4.799   1.797   2.080
14220TIP3    H164151   4.890   1.825   2.058
14220TIP3    H264152   4.777   1.748   1.998
14221TIP3   OH264153   5.471   1.750   2.350
14221TIP3    H164154   5.451   1.672   2.292
14221TIP3    H264155   5.464   1.824   2.287
14222TIP3   OH264156   4.028   0.151   3.513
14222TIP3    H164157   3.996   0.074   3.560
14222TIP3    H264158   4.120   0.150   3.549
14223TIP3   OH264159   4.215   0.104   3.669
14223TIP3    H164160   4.309   0.076   3.659
14223TIP3    H264161   4.196   0.020   3.715
14224TIP3   OH264162   4.093   1.766   1.940
14224TIP3    H164163   4.067   1.793   2.030
14224TIP3    H264164   4.171   1.710   1.956
14225TIP3   OH264165   5.070   7.384   3.691
14225TIP3    H164166   5.077   7.323   3.768
14225TIP3    H264167   5.158   7.363   3.656
14226TIP3   OH264168   5.394   1.623   3.561
14226TIP3    H164169   5.314   1.610   3.506
14226TIP3    H264170   5.383   1.719   3.580
14227TIP3   OH264171   6.837   1.011   2.560
14227TIP3    H164172   6.839   1.109   2.552
14227TIP3    H264173   6.767   0.987   2.497
14228TIP3   OH264174   6.725   0.938   2.907
14228TIP3    H164175   6.722   0.873   2.978
14228TIP3    H264176   6.692   0.889   2.830
14229TIP3   OH264177   5.960   0.904   3.063
14229TIP3    H164178   5.968   0.837   3.134
14229TIP3    H264179   6.034   0.962   3.084
14230TIP3   OH264180   7.091   1.232   2.735
14230TIP3    H164181   7.054   1.159   2.785
14230TIP3    H264182   7.100   1.302   2.803
14231TIP3   OH264183   6.053   1.349   2.915
14231TIP3    H164184   6.020   1.263   2.881
14231TIP3    H264185   6.149   1.330   2.920
14232TIP3   OH264186   5.704   0.706   2.466
14232TIP3    H164187   5.663   0.797   2.457
14232TIP3    H264188   5.649   0.655   2.404
14233TIP3   OH264189   5.786   0.926   2.670
14233TIP3    H164190   5.813   0.849   2.724
14233TIP3    H264191   5.861   0.941   2.612
14234TIP3   OH264192   6.808   1.748   2.758
14234TIP3    H164193   6.871   1.677   2.731
14234TIP3    H264194   6.786   1.717   2.846
14235TIP3   OH264195   6.562   1.179   2.951
14235TIP3    H164196   6.596   1.114   2.888
14235TIP3    H264197   6.641   1.193   3.006
14236TIP3   OH264198   6.878   0.624   2.984
14236TIP3    H164199   6.895   0.527   2.983
14236TIP3    H264200   6.868   0.639   2.888
14237TIP3   OH264201   6.191   0.435   2.708
14237TIP3    H164202   6.201   0.519   2.660
14237TIP3    H264203   6.150   0.375   2.642
14238TIP3   OH264204   6.966   0.443   2.545
14238TIP3    H164205   7.032   0.411   2.611
14238TIP3    H264206   7.021   0.498   2.488
14239TIP3   OH264207   5.855   0.675   2.781
14239TIP3    H164208   5.920   0.619   2.828
14239TIP3    H264209   5.862   0.640   2.692
14240TIP3   OH264210   6.368   0.829   2.709
14240TIP3    H164211   6.434   0.772   2.753
14240TIP3    H264212   6.316   0.762   2.663
14241TIP3   OH264213   6.081   0.327   3.112
14241TIP3    H164214   6.051   0.379   3.036
14241TIP3    H264215   6.010   0.345   3.179
14242TIP3   OH264216   6.810   1.271   2.467
14242TIP3    H164217   6.783   1.243   2.379
14242TIP3    H264218   6.780   1.364   2.472
14243TIP3   OH264219   6.333   1.088   3.138
14243TIP3    H164220   6.261   1.152   3.156
14243TIP3    H264221   6.403   1.147   3.108
14244TIP3   OH264222   7.128   0.374   2.749
14244TIP3    H164223   7.120   0.295   2.801
14244TIP3    H264224   7.203   0.419   2.794
14245TIP3   OH264225   6.034   0.512   2.910
14245TIP3    H164226   6.100   0.576   2.946
14245TIP3    H264227   6.090   0.465   2.843
14246TIP3   OH264228   6.177   1.287   3.219
14246TIP3    H164229   6.172   1.378   3.184
14246TIP3    H264230   6.088   1.280   3.263
14247TIP3   OH264231   5.786   1.249   2.298
14247TIP3    H164232   5.759   1.280   2.210
14247TIP3    H264233   5.792   1.334   2.347
14248TIP3   OH264234   7.139   1.413   2.979
14248TIP3    H164235   7.043   1.426   2.986
14248TIP3    H264236   7.172   1.502   2.954
14249TIP3   OH264237   7.169   0.255   3.107
14249TIP3    H164238   7.096   0.317   3.102
14249TIP3    H264239   7.241   0.294   3.055
14250TIP3   OH264240   6.503   0.072   2.856
14250TIP3    H164241   6.484  -0.023   2.853
14250TIP3    H264242   6.411   0.096   2.879
14251TIP3   OH264243   6.969   1.592   2.633
14251TIP3    H164244   7.016   1.522   2.582
14251TIP3    H264245   7.011   1.672   2.593
14252TIP3   OH264246   7.089   1.387   2.480
14252TIP3    H164247   7.064   1.313   2.423
14252TIP3    H264248   7.097   1.339   2.566
14253TIP3   OH264249   7.237   1.253   3.339
14253TIP3    H164250   7.265   1.188   3.272
14253TIP3    H264251   7.275   1.333   3.298
14254TIP3   OH264252   6.704   0.936   2.309
14254TIP3    H164253   6.634   0.992   2.273
14254TIP3    H264254   6.775   0.945   2.243
14255TIP3   OH264255   6.711   0.789   2.011
14255TIP3    H164256   6.782   0.788   2.077
14255TIP3    H264257   6.743   0.720   1.951
14256TIP3   OH264258   7.046   0.957   2.399
14256TIP3    H164259   6.974   0.982   2.462
14256TIP3    H264260   7.094   0.890   2.453
14257TIP3   OH264261   7.037   0.771   3.312
14257TIP3    H164262   7.041   0.853   3.365
14257TIP3    H264263   6.977   0.804   3.242
14258TIP3   OH264264   6.209   1.023   2.593
14258TIP3    H164265   6.179   0.984   2.507
14258TIP3    H264266   6.272   0.955   2.627
14259TIP3   OH264267   6.344   1.363   2.861
14259TIP3    H164268   6.340   1.308   2.782
14259TIP3    H264269   6.421   1.326   2.907
14260TIP3   OH264270   6.244   0.897   2.958
14260TIP3    H164271   6.300   0.909   2.879
14260TIP3    H264272   6.281   0.963   3.020
14261TIP3   OH264273   6.880   1.453   3.028
14261TIP3    H164274   6.856   1.517   3.096
14261TIP3    H264275   6.859   1.367   3.072
14262TIP3   OH264276   6.338   1.339   3.428
14262TIP3    H164277   6.300   1.416   3.476
14262TIP3    H264278   6.270   1.321   3.358
14263TIP3   OH264279   6.936   0.874   2.168
14263TIP3    H164280   6.991   0.893   2.248
14263TIP3    H264281   6.978   0.925   2.096
14264TIP3   OH264282   6.031   0.956   3.346
14264TIP3    H164283   6.036   1.023   3.417
14264TIP3    H264284   5.938   0.967   3.321
14265TIP3   OH264285   6.707   1.548   2.515
14265TIP3    H164286   6.751   1.579   2.595
14265TIP3    H264287   6.651   1.623   2.492
14266TIP3   OH264288   6.162   1.545   3.504
14266TIP3    H164289   6.158   1.533   3.407
14266TIP3    H264290   6.068   1.532   3.529
14267TIP3   OH264291   7.271   0.052   2.128
14267TIP3    H164292   7.199   0.069   2.191
14267TIP3    H264293   7.320   0.132   2.111
14268TIP3   OH264294   6.106   0.926   2.356
14268TIP3    H164295   6.082   1.005   2.303
14268TIP3    H264296   6.043   0.863   2.328
14269TIP3   OH264297   5.717   1.168   3.240
14269TIP3    H164298   5.670   1.160   3.155
14269TIP3    H264299   5.722   1.073   3.264
14270TIP3   OH264300   5.692   1.442   2.921
14270TIP3    H164301   5.788   1.429   2.920
14270TIP3    H264302   5.684   1.523   2.973
14271TIP3   OH264303   6.612   1.466   3.376
14271TIP3    H164304   6.619   1.550   3.427
14271TIP3    H264305   6.524   1.431   3.402
14272TIP3   OH264306   6.656   1.841   2.357
14272TIP3    H164307   6.645   1.832   2.261
14272TIP3    H264308   6.657   1.938   2.371
14273TIP3   OH264309   6.019   1.727   2.537
14273TIP3    H164310   6.034   1.686   2.625
14273TIP3    H264311   5.934   1.687   2.513
14274TIP3   OH264312   6.964   1.762   2.055
14274TIP3    H164313   7.004   1.684   2.010
14274TIP3    H264314   6.964   1.734   2.149
14275TIP3   OH264315   6.931   1.754   2.332
14275TIP3    H164316   6.835   1.762   2.350
14275TIP3    H264317   6.956   1.681   2.390
14276TIP3   OH264318   7.209   0.672   3.543
14276TIP3    H164319   7.179   0.706   3.458
14276TIP3    H264320   7.234   0.580   3.513
14277TIP3   OH264321   5.944   1.299   3.337
14277TIP3    H164322   5.967   1.262   3.425
14277TIP3    H264323   5.857   1.259   3.316
14278TIP3   OH264324   6.206   0.158   2.940
14278TIP3    H164325   6.119   0.141   2.897
14278TIP3    H264326   6.194   0.242   2.984
14279TIP3   OH264327   6.674   0.114   3.272
14279TIP3    H164328   6.715   0.075   3.349
14279TIP3    H264329   6.578   0.102   3.287
14280TIP3   OH264330   7.005   0.494   3.360
14280TIP3    H164331   6.950   0.479   3.439
14280TIP3    H264332   6.988   0.587   3.336
14281TIP3   OH264333   7.080   0.977   1.943
14281TIP3    H164334   7.082   0.956   1.847
14281TIP3    H264335   7.164   1.022   1.952
14282TIP3   OH264336   6.642   0.370   2.001
14282TIP3    H164337   6.611   0.365   2.093
14282TIP3    H264338   6.610   0.282   1.972
14283TIP3   OH264339   6.221   0.642   3.054
14283TIP3    H164340   6.149   0.641   3.120
14283TIP3    H264341   6.218   0.735   3.021
14284TIP3   OH264342   6.215   0.662   2.539
14284TIP3    H164343   6.126   0.626   2.533
14284TIP3    H264344   6.260   0.625   2.461
14285TIP3   OH264345   6.770   0.705   2.421
14285TIP3    H164346   6.730   0.788   2.386
14285TIP3    H264347   6.841   0.690   2.356
14286TIP3   OH264348   6.677   0.726   3.566
14286TIP3    H164349   6.624   0.650   3.598
14286TIP3    H264350   6.761   0.713   3.614
14287TIP3   OH264351   6.873   0.655   2.706
14287TIP3    H164352   6.848   0.710   2.630
14287TIP3    H264353   6.885   0.569   2.659
14288TIP3   OH264354   5.986   0.671   3.228
14288TIP3    H164355   5.990   0.711   3.317
14288TIP3    H264356   5.941   0.587   3.245
14289TIP3   OH264357   6.324   0.412   1.913
14289TIP3    H164358   6.279   0.365   1.987
14289TIP3    H264359   6.252   0.450   1.862
14290TIP3   OH264360   5.654   0.387   2.619
14290TIP3    H164361   5.717   0.378   2.694
14290TIP3    H264362   5.695   0.339   2.546
14291TIP3   OH264363   5.784   0.460   2.170
14291TIP3    H164364   5.825   0.514   2.100
14291TIP3    H264365   5.705   0.513   2.191
14292TIP3   OH264366   6.794   0.813   3.163
14292TIP3    H164367   6.831   0.746   3.103
14292TIP3    H264368   6.749   0.760   3.231
14293TIP3   OH264369   6.474   0.408   2.644
14293TIP3    H164370   6.380   0.409   2.676
14293TIP3    H264371   6.523   0.398   2.727
14294TIP3   OH264372   5.961   0.549   2.547
14294TIP3    H164373   5.870   0.562   2.515
14294TIP3    H264374   5.992   0.470   2.496
14295TIP3   OH264375   6.319   0.569   2.294
14295TIP3    H164376   6.415   0.582   2.312
14295TIP3    H264377   6.299   0.638   2.228
14296TIP3   OH264378   6.913   0.332   2.969
14296TIP3    H164379   6.844   0.341   3.039
14296TIP3    H264380   6.863   0.312   2.889
14297TIP3   OH264381   6.188   0.688   2.054
14297TIP3    H164382   6.136   0.651   1.980
14297TIP3    H264383   6.271   0.708   2.007
14298TIP3   OH264384   7.233   1.899   3.602
14298TIP3    H164385   7.263   1.936   3.518
14298TIP3    H264386   7.306   1.929   3.659
14299TIP3   OH264387   6.003   1.145   3.559
14299TIP3    H164388   6.075   1.170   3.619
14299TIP3    H264389   5.925   1.158   3.617
14300TIP3   OH264390   6.603   0.685   2.834
14300TIP3    H164391   6.663   0.630   2.782
14300TIP3    H264392   6.589   0.632   2.914
14301TIP3   OH264393   6.103   0.305   2.475
14301TIP3    H164394   6.072   0.212   2.478
14301TIP3    H264395   6.183   0.295   2.423
14302TIP3   OH264396   6.467   0.520   3.075
14302TIP3    H164397   6.383   0.570   3.086
14302TIP3    H264398   6.521   0.553   3.149
14303TIP3   OH264399   6.525   1.143   2.245
14303TIP3    H164400   6.446   1.094   2.212
14303TIP3    H264401   6.505   1.152   2.340
14304TIP3   OH264402   7.230   1.063   3.127
14304TIP3    H164403   7.296   1.092   3.059
14304TIP3    H264404   7.149   1.067   3.073
14305TIP3   OH264405   6.909   0.426   2.062
14305TIP3    H164406   6.813   0.438   2.049
14305TIP3    H264407   6.939   0.512   2.098
14306TIP3   OH264408   6.674   1.166   3.369
14306TIP3    H164409   6.639   1.126   3.449
14306TIP3    H264410   6.652   1.259   3.379
14307TIP3   OH264411   6.981   0.614   2.225
14307TIP3    H164412   7.070   0.601   2.265
14307TIP3    H264413   6.989   0.698   2.176
14308TIP3   OH264414   6.034   1.077   2.823
14308TIP3    H164415   6.107   1.073   2.758
14308TIP3    H264416   6.043   0.994   2.872
14309TIP3   OH264417   6.736   1.289   2.148
14309TIP3    H164418   6.702   1.373   2.185
14309TIP3    H264419   6.662   1.228   2.170
14310TIP3   OH264420   5.735   0.922   3.352
14310TIP3    H164421   5.754   0.877   3.437
14310TIP3    H264422   5.674   0.859   3.309
14311TIP3   OH264423   6.436   0.877   3.572
14311TIP3    H164424   6.406   0.850   3.484
14311TIP3    H264425   6.530   0.847   3.571
14312TIP3   OH264426   6.901   1.409   3.363
14312TIP3    H164427   6.809   1.429   3.340
14312TIP3    H264428   6.902   1.438   3.456
14313TIP3   OH264429   7.292   1.511   2.243
14313TIP3    H164430   7.263   1.427   2.280
14313TIP3    H264431   7.332   1.492   2.158
14314TIP3   OH264432   7.015   0.991   2.955
14314TIP3    H164433   6.921   0.969   2.943
14314TIP3    H264434   7.063   0.918   2.913
14315TIP3   OH264435   6.273   1.426   2.563
14315TIP3    H164436   6.324   1.506   2.543
14315TIP3    H264437   6.185   1.450   2.531
14316TIP3   OH264438   5.854   0.908   2.030
14316TIP3    H164439   5.909   0.981   2.061
14316TIP3    H264440   5.761   0.941   2.042
14317TIP3   OH264441   6.415   1.192   2.516
14317TIP3    H164442   6.386   1.285   2.525
14317TIP3    H264443   6.342   1.145   2.560
14318TIP3   OH264444   6.461   1.610   3.155
14318TIP3    H164445   6.505   1.692   3.128
14318TIP3    H264446   6.521   1.578   3.225
14319TIP3   OH264447   6.283   1.693   2.471
14319TIP3    H164448   6.186   1.706   2.481
14319TIP3    H264449   6.319   1.777   2.506
14320TIP3   OH264450   6.816   1.213   3.120
14320TIP3    H164451   6.779   1.193   3.208
14320TIP3    H264452   6.878   1.140   3.102
14321TIP3   OH264453   7.045   1.317   2.028
14321TIP3    H164454   7.074   1.271   2.109
14321TIP3    H264455   6.949   1.301   2.037
14322TIP3   OH264456   7.089   1.672   3.369
14322TIP3    H164457   7.025   1.619   3.318
14322TIP3    H264458   7.114   1.739   3.302
14323TIP3   OH264459   5.900   0.395   3.308
14323TIP3    H164460   5.809   0.429   3.304
14323TIP3    H264461   5.887   0.308   3.350
14324TIP3   OH264462   7.124   1.179   2.251
14324TIP3    H164463   7.100   1.102   2.308
14324TIP3    H264464   7.218   1.187   2.273
14325TIP3   OH264465   5.863   1.574   3.150
14325TIP3    H164466   5.889   1.481   3.150
14325TIP3    H264467   5.888   1.602   3.239
14326TIP3   OH264468   6.456   1.425   1.875
14326TIP3    H164469   6.470   1.348   1.818
14326TIP3    H264470   6.418   1.382   1.955
14327TIP3   OH264471   6.339   1.378   2.121
14327TIP3    H164472   6.361   1.327   2.199
14327TIP3    H264473   6.344   1.471   2.153
14328TIP3   OH264474   5.992   1.103   2.174
14328TIP3    H164475   5.918   1.142   2.224
14328TIP3    H264476   6.041   1.181   2.143
14329TIP3   OH264477   6.772   0.370   3.202
14329TIP3    H164478   6.845   0.378   3.264
14329TIP3    H264479   6.736   0.281   3.219
14330TIP3   OH264480   6.852   0.329   2.309
14330TIP3    H164481   6.872   0.380   2.228
14330TIP3    H264482   6.904   0.376   2.376
14331TIP3   OH264483   6.617   1.546   2.193
14331TIP3    H164484   6.535   1.598   2.199
14331TIP3    H264485   6.670   1.599   2.132
14332TIP3   OH264486   6.571   0.502   2.393
14332TIP3    H164487   6.650   0.560   2.397
14332TIP3    H264488   6.545   0.493   2.486
14333TIP3   OH264489   6.626   0.606   3.311
14333TIP3    H164490   6.635   0.663   3.389
14333TIP3    H264491   6.692   0.536   3.321
14334TIP3   OH264492   6.656   0.211   2.486
14334TIP3    H164493   6.625   0.278   2.549
14334TIP3    H264494   6.723   0.265   2.437
14335TIP3   OH264495   6.355   1.649   2.194
14335TIP3    H164496   6.367   1.731   2.140
14335TIP3    H264497   6.330   1.684   2.282
14336TIP3   OH264498   6.221   0.320   2.153
14336TIP3    H164499   6.218   0.410   2.189
14336TIP3    H264500   6.313   0.299   2.177
14337TIP3   OH264501   7.244   0.390   3.392
14337TIP3    H164502   7.152   0.424   3.384
14337TIP3    H264503   7.275   0.395   3.301
14338TIP3   OH264504   7.104   0.774   2.804
14338TIP3    H164505   7.024   0.730   2.770
14338TIP3    H264506   7.148   0.700   2.850
14339TIP3   OH264507   6.046   1.364   2.059
14339TIP3    H164508   6.110   1.431   2.088
14339TIP3    H264509   6.098   1.320   1.988
14340TIP3   OH264510   5.880   0.631   1.976
14340TIP3    H164511   5.878   0.729   1.987
14340TIP3    H264512   5.792   0.614   1.939
14341TIP3   OH264513   7.215   1.697   2.965
14341TIP3    H164514   7.199   1.767   2.899
14341TIP3    H264515   7.309   1.707   2.985
14342TIP3   OH264516   5.943   0.124   2.846
14342TIP3    H164517   5.941   0.115   2.748
14342TIP3    H264518   5.926   0.032   2.870
14343TIP3   OH264519   5.857   1.502   2.458
14343TIP3    H164520   5.772   1.549   2.456
14343TIP3    H264521   5.907   1.552   2.392
14344TIP3   OH264522   5.779   1.767   3.588
14344TIP3    H164523   5.838   1.746   3.663
14344TIP3    H264524   5.736   1.682   3.570
14345TIP3   OH264525   6.244   1.659   3.750
14345TIP3    H164526   6.321   1.610   3.783
14345TIP3    H264527   6.242   1.633   3.656
14346TIP3   OH264528   6.657   1.611   1.889
14346TIP3    H164529   6.589   1.545   1.915
14346TIP3    H264530   6.730   1.552   1.865
14347TIP3   OH264531   6.899   1.497   3.623
14347TIP3    H164532   6.866   1.409   3.650
14347TIP3    H264533   6.974   1.509   3.685
14348TIP3   OH264534   7.112   1.588   1.911
14348TIP3    H164535   7.141   1.509   1.957
14348TIP3    H264536   7.188   1.610   1.853
14349TIP3   OH264537   5.771   1.146   3.687
14349TIP3    H164538   5.787   1.055   3.656
14349TIP3    H264539   5.695   1.172   3.632
14350TIP3   OH264540   6.204   1.180   1.892
14350TIP3    H164541   6.217   1.102   1.949
14350TIP3    H264542   6.277   1.168   1.828
14351TIP3   OH264543   6.441   1.144   3.627
14351TIP3    H164544   6.407   1.173   3.540
14351TIP3    H264545   6.451   1.046   3.617
14352TIP3   OH264546   6.746   1.289   1.868
14352TIP3    H164547   6.718   1.300   1.961
14352TIP3    H264548   6.725   1.193   1.855
14353TIP3   OH264549   7.010   1.129   3.363
14353TIP3    H164550   7.087   1.190   3.356
14353TIP3    H264551   6.940   1.195   3.370
14354TIP3   OH264552   5.860   0.868   3.626
14354TIP3    H164553   5.901   0.781   3.616
14354TIP3    H264554   5.835   0.868   3.720
14355TIP3   OH264555   6.324   0.980   2.130
14355TIP3    H164556   6.276   0.928   2.195
14355TIP3    H264557   6.352   0.912   2.065
14356TIP3   OH264558   6.251   0.763   3.362
14356TIP3    H164559   6.191   0.835   3.389
14356TIP3    H264560   6.289   0.799   3.280
14357TIP3   OH264561   6.431   0.803   1.953
14357TIP3    H164562   6.414   0.792   1.857
14357TIP3    H264563   6.528   0.810   1.959
14358TIP3   OH264564   6.754   1.018   3.694
14358TIP3    H164565   6.851   1.020   3.684
14358TIP3    H264566   6.740   0.941   3.752
14359TIP3   OH264567   6.290   0.500   3.470
14359TIP3    H164568   6.302   0.428   3.406
14359TIP3    H264569   6.287   0.581   3.413
14360TIP3   OH264570   6.331   0.339   3.221
14360TIP3    H164571   6.383   0.386   3.152
14360TIP3    H264572   6.241   0.328   3.180
14361TIP3   OH264573   6.485   0.885   3.247
14361TIP3    H164574   6.561   0.869   3.189
14361TIP3    H264575   6.450   0.970   3.215
14362TIP3   OH264576   6.926   0.664   3.745
14362TIP3    H164577   6.947   0.571   3.733
14362TIP3    H264578   7.012   0.707   3.744
14363TIP3   OH264579   7.055   0.942   3.558
14363TIP3    H164580   7.032   1.015   3.497
14363TIP3    H264581   7.151   0.939   3.540
14364TIP3   OH264582   6.136   0.625   3.661
14364TIP3    H164583   6.059   0.568   3.642
14364TIP3    H264584   6.203   0.589   3.599
14365TIP3   OH264585   6.402   0.095   3.278
14365TIP3    H164586   6.394   0.190   3.254
14365TIP3    H264587   6.336   0.054   3.220
14366TIP3   OH264588   6.536   0.515   3.622
14366TIP3    H164589   6.508   0.490   3.712
14366TIP3    H264590   6.457   0.494   3.570
14367TIP3   OH264591   6.807   0.433   3.533
14367TIP3    H164592   6.710   0.432   3.544
14367TIP3    H264593   6.837   0.366   3.597
14368TIP3   OH264594   6.975   0.296   3.728
14368TIP3    H164595   6.959   0.198   3.725
14368TIP3    H264596   6.938   0.321   3.814
14369TIP3   OH264597   5.945   0.417   3.634
14369TIP3    H164598   5.972   0.344   3.575
14369TIP3    H264599   5.939   0.371   3.720
14370TIP3   OH264600   6.434   7.362   3.531
14370TIP3    H164601   6.498   7.291   3.535
14370TIP3    H264602   6.420   7.382   3.436
14371TIP3   OH264603   6.470   0.188   3.737
14371TIP3    H164604   6.452   0.131   3.659
14371TIP3    H264605   6.406   0.259   3.730
14372TIP3   OH264606   6.416   1.872   2.059
14372TIP3    H164607   6.512   1.884   2.067
14372TIP3    H264608   6.398   1.936   1.988
14373TIP3   OH264609   5.772   1.335   2.006
14373TIP3    H164610   5.869   1.342   2.027
14373TIP3    H264611   5.777   1.266   1.934
14374TIP3   OH264612   5.647   1.871   2.505
14374TIP3    H164613   5.576   1.823   2.457
14374TIP3    H264614   5.677   1.805   2.570
14375TIP3   OH264615   5.730   1.683   2.690
14375TIP3    H164616   5.695   1.595   2.710
14375TIP3    H264617   5.753   1.716   2.779
14376TIP3   OH264618   7.271   1.302   3.736
14376TIP3    H164619   7.192   1.289   3.789
14376TIP3    H264620   7.321   1.369   3.785
14377TIP3   OH264621   7.282   1.489   3.208
14377TIP3    H164622   7.215   1.531   3.265
14377TIP3    H264623   7.228   1.453   3.134
14378TIP3   OH264624   7.310   0.644   1.972
14378TIP3    H164625   7.325   0.708   1.902
14378TIP3    H264626   7.300   0.559   1.922
14379TIP3   OH264627   7.199   0.786   2.534
14379TIP3    H164628   7.218   0.692   2.539
14379TIP3    H264629   7.201   0.811   2.628
14380TIP3   OH264630   5.736   0.990   2.940
14380TIP3    H164631   5.755   0.983   2.844
14380TIP3    H264632   5.825   0.975   2.976
14381TIP3   OH264633  -0.030   0.984   3.533
14381TIP3    H164634   0.026   0.906   3.522
14381TIP3    H264635   0.023   1.058   3.498
14382TIP3   OH264636   7.246   0.388   1.885
14382TIP3    H164637   7.303   0.343   1.947
14382TIP3    H264638   7.160   0.344   1.899
14383TIP3   OH264639   7.201   0.537   2.371
14383TIP3    H164640   7.232   0.450   2.401
14383TIP3    H264641   7.281   0.578   2.339
14384TIP3   OH264642   7.227   0.548   2.915
14384TIP3    H164643   7.322   0.564   2.904
14384TIP3    H264644   7.231   0.595   3.001
14385TIP3   OH264645   7.272   0.669   3.213
14385TIP3    H164646   7.183   0.698   3.237
14385TIP3    H264647   7.311   0.749   3.175
14386TIP3   OH264648   5.696   0.522   3.554
14386TIP3    H164649   5.790   0.500   3.574
14386TIP3    H264650   5.652   0.440   3.584
14387TIP3   OH264651   7.192   0.251   2.435
14387TIP3    H164652   7.277   0.220   2.470
14387TIP3    H264653   7.194   0.202   2.349
14388TIP3   OH264654   5.816   0.351   2.838
14388TIP3    H164655   5.862   0.270   2.867
14388TIP3    H264656   5.870   0.418   2.882
14389TIP3   OH264657   5.646   0.649   2.945
14389TIP3    H164658   5.702   0.625   2.869
14389TIP3    H264659   5.690   0.731   2.972
14390TIP3   OH264660   5.686   0.273   2.352
14390TIP3    H164661   5.590   0.293   2.339
14390TIP3    H264662   5.724   0.324   2.280
14391TIP3   OH264663   7.145   1.759   2.553
14391TIP3    H164664   7.211   1.728   2.490
14391TIP3    H264665   7.200   1.817   2.609
14392TIP3   OH264666   5.677   0.146   3.182
14392TIP3    H164667   5.611   0.124   3.250
14392TIP3    H264668   5.631   0.210   3.126
14393TIP3   OH264669   5.900   1.462   3.599
14393TIP3    H164670   5.816   1.483   3.554
14393TIP3    H264671   5.873   1.455   3.691
14394TIP3   OH264672   6.191   1.561   3.226
14394TIP3    H164673   6.155   1.646   3.198
14394TIP3    H264674   6.283   1.571   3.195
14395TIP3   OH264675   6.623   1.704   3.518
14395TIP3    H164676   6.639   1.669   3.609
14395TIP3    H264677   6.712   1.734   3.491
14396TIP3   OH264678   6.855   1.831   3.446
14396TIP3    H164679   6.927   1.771   3.423
14396TIP3    H264680   6.891   1.873   3.527
14397TIP3   OH264681   5.933   1.886   3.227
14397TIP3    H164682   5.859   1.934   3.186
14397TIP3    H264683   5.900   1.865   3.315
14398TIP3   OH264684   6.181   1.844   3.133
14398TIP3    H164685   6.091   1.857   3.173
14398TIP3    H264686   6.174   1.903   3.055
14399TIP3   OH264687   6.651   1.835   3.050
14399TIP3    H164688   6.604   1.890   2.985
14399TIP3    H264689   6.665   1.898   3.124
14400TIP3   OH264690   6.883   1.718   3.149
14400TIP3    H164691   6.794   1.742   3.117
14400TIP3    H264692   6.926   1.805   3.142
14401TIP3   OH264693   7.138   1.878   3.176
14401TIP3    H164694   7.127   1.972   3.153
14401TIP3    H264695   7.162   1.838   3.090
14402TIP3   OH264696   5.877   1.751   2.920
14402TIP3    H164697   5.871   1.706   3.007
14402TIP3    H264698   5.959   1.715   2.880
14403TIP3   OH264699   6.087   1.622   2.785
14403TIP3    H164700   6.069   1.529   2.807
14403TIP3    H264701   6.172   1.636   2.832
14404TIP3   OH264702   6.343   1.670   2.872
14404TIP3    H164703   6.363   1.579   2.845
14404TIP3    H264704   6.350   1.664   2.968
14405TIP3   OH264705   6.691   0.241   2.784
14405TIP3    H164706   6.627   0.172   2.813
14405TIP3    H264707   6.751   0.187   2.730
14406TIP3   OH264708   7.199   0.049   2.806
14406TIP3    H164709   7.263   0.094   2.748
14406TIP3    H264710   7.114   0.078   2.771
14407TIP3   OH264711   5.934   0.102   2.559
14407TIP3    H164712   5.847   0.076   2.524
14407TIP3    H264713   5.973   0.015   2.575
14408TIP3   OH264714   5.786   0.111   2.091
14408TIP3    H164715   5.867   0.165   2.082
14408TIP3    H264716   5.751   0.142   2.178
14409TIP3   OH264717   6.404   0.126   2.579
14409TIP3    H164718   6.499   0.131   2.557
14409TIP3    H264719   6.389   0.067   2.654
14410TIP3   OH264720   6.932   0.113   2.718
14410TIP3    H164721   6.944   0.113   2.623
14410TIP3    H264722   6.918   0.015   2.729
14411TIP3   OH264723   7.068   0.092   2.276
14411TIP3    H164724   6.998   0.158   2.263
14411TIP3    H264725   7.026   0.009   2.299
14412TIP3   OH264726   5.799   1.669   2.243
14412TIP3    H164727   5.731   1.668   2.173
14412TIP3    H264728   5.798   1.764   2.264
14413TIP3   OH264729   5.989   0.268   1.995
14413TIP3    H164730   6.045   0.212   1.938
14413TIP3    H264731   6.057   0.301   2.057
14414TIP3   OH264732   6.488   0.293   2.238
14414TIP3    H164733   6.520   0.235   2.309
14414TIP3    H264734   6.496   0.380   2.284
14415TIP3   OH264735   6.685   1.797   2.080
14415TIP3    H164736   6.775   1.825   2.058
14415TIP3    H264737   6.663   1.748   1.998
14416TIP3   OH264738   5.912   0.153   3.514
14416TIP3    H164739   5.883   0.074   3.559
14416TIP3    H264740   6.006   0.149   3.548
14417TIP3   OH264741   6.099   0.106   3.670
14417TIP3    H164742   6.193   0.077   3.658
14417TIP3    H264743   6.082   0.020   3.714
14418TIP3   OH264744   5.979   1.766   1.940
14418TIP3    H164745   5.953   1.793   2.030
14418TIP3    H264746   6.057   1.710   1.956
14419TIP3   OH264747   6.957   7.385   3.690
14419TIP3    H164748   6.963   7.324   3.767
14419TIP3    H264749   7.044   7.363   3.654
14420TIP3   OH264750   7.272   1.619   3.568
14420TIP3    H164751   7.199   1.608   3.504
14420TIP3    H264752   7.267   1.717   3.581
14421TIP3   OH264753   1.180   2.897   2.559
14421TIP3    H164754   1.182   2.995   2.552
14421TIP3    H264755   1.110   2.873   2.497
14422TIP3   OH264756   1.068   2.824   2.907
14422TIP3    H164757   1.066   2.758   2.978
14422TIP3    H264758   1.035   2.775   2.831
14423TIP3   OH264759   0.306   2.788   3.061
14423TIP3    H164760   0.312   2.722   3.133
14423TIP3    H264761   0.378   2.848   3.085
14424TIP3   OH264762   1.438   3.118   2.735
14424TIP3    H164763   1.395   3.046   2.783
14424TIP3    H264764   1.438   3.189   2.802
14425TIP3   OH264765   0.394   3.234   2.916
14425TIP3    H164766   0.362   3.149   2.881
14425TIP3    H264767   0.490   3.215   2.920
14426TIP3   OH264768   0.079   2.594   2.439
14426TIP3    H164769   0.025   2.673   2.461
14426TIP3    H264770   0.007   2.539   2.415
14427TIP3   OH264771   0.129   2.811   2.671
14427TIP3    H164772   0.154   2.733   2.724
14427TIP3    H264773   0.203   2.822   2.611
14428TIP3   OH264774   1.149   3.633   2.759
14428TIP3    H164775   1.213   3.563   2.731
14428TIP3    H264776   1.129   3.602   2.847
14429TIP3   OH264777   0.905   3.065   2.951
14429TIP3    H164778   0.939   3.000   2.888
14429TIP3    H264779   0.984   3.079   3.006
14430TIP3   OH264780   1.768   2.227   3.029
14430TIP3    H164781   1.782   2.289   3.104
14430TIP3    H264782   1.820   2.272   2.961
14431TIP3   OH264783   1.222   2.510   2.984
14431TIP3    H164784   1.237   2.414   2.984
14431TIP3    H264785   1.212   2.525   2.888
14432TIP3   OH264786   0.536   2.318   2.708
14432TIP3    H164787   0.543   2.402   2.661
14432TIP3    H264788   0.493   2.261   2.640
14433TIP3   OH264789   1.307   2.328   2.545
14433TIP3    H164790   1.374   2.296   2.611
14433TIP3    H264791   1.363   2.384   2.488
14434TIP3   OH264792   0.199   2.558   2.775
14434TIP3    H164793   0.265   2.505   2.824
14434TIP3    H264794   0.208   2.526   2.686
14435TIP3   OH264795   0.713   2.715   2.709
14435TIP3    H164796   0.778   2.657   2.753
14435TIP3    H264797   0.659   2.648   2.663
14436TIP3   OH264798   1.812   2.371   3.255
14436TIP3    H164799   1.747   2.445   3.245
14436TIP3    H264800   1.814   2.359   3.350
14437TIP3   OH264801   0.423   2.209   3.112
14437TIP3    H164802   0.396   2.265   3.036
14437TIP3    H264803   0.354   2.232   3.179
14438TIP3   OH264804   1.154   3.158   2.467
14438TIP3    H164805   1.126   3.128   2.379
14438TIP3    H264806   1.122   3.250   2.472
14439TIP3   OH264807   0.677   2.973   3.138
14439TIP3    H164808   0.604   3.036   3.156
14439TIP3    H264809   0.747   3.033   3.108
14440TIP3   OH264810   1.487   2.261   2.744
14440TIP3    H164811   1.466   2.184   2.797
14440TIP3    H264812   1.554   2.306   2.798
14441TIP3   OH264813   0.378   2.393   2.913
14441TIP3    H164814   0.440   2.462   2.946
14441TIP3    H264815   0.433   2.352   2.841
14442TIP3   OH264816   0.519   3.172   3.217
14442TIP3    H164817   0.514   3.263   3.184
14442TIP3    H264818   0.430   3.165   3.261
14443TIP3   OH264819   0.131   3.139   2.293
14443TIP3    H164820   0.102   3.168   2.207
14443TIP3    H264821   0.135   3.221   2.347
14444TIP3   OH264822   1.490   3.301   2.972
14444TIP3    H164823   1.393   3.311   2.985
14444TIP3    H264824   1.517   3.393   2.954
14445TIP3   OH264825   1.522   2.130   3.112
14445TIP3    H164826   1.449   2.192   3.105
14445TIP3    H264827   1.592   2.173   3.059
14446TIP3   OH264828   0.820   1.941   2.858
14446TIP3    H164829   0.807   1.845   2.852
14446TIP3    H264830   0.732   1.972   2.888
14447TIP3   OH264831   1.315   3.480   2.633
14447TIP3    H164832   1.359   3.408   2.582
14447TIP3    H264833   1.354   3.560   2.591
14448TIP3   OH264834   1.435   3.273   2.483
14448TIP3    H164835   1.406   3.202   2.423
14448TIP3    H264836   1.439   3.224   2.568
14449TIP3   OH264837   1.599   3.130   3.333
14449TIP3    H164838   1.613   3.067   3.259
14449TIP3    H264839   1.618   3.216   3.291
14450TIP3   OH264840   1.048   2.822   2.310
14450TIP3    H164841   0.978   2.878   2.273
14450TIP3    H264842   1.118   2.830   2.243
14451TIP3   OH264843   1.054   2.675   2.011
14451TIP3    H164844   1.125   2.674   2.077
14451TIP3    H264845   1.086   2.606   1.951
14452TIP3   OH264846   1.786   2.762   3.138
14452TIP3    H164847   1.720   2.834   3.143
14452TIP3    H264848   1.834   2.785   3.056
14453TIP3   OH264849   1.392   2.843   2.401
14453TIP3    H164850   1.317   2.867   2.461
14453TIP3    H264851   1.437   2.774   2.452
14454TIP3   OH264852   1.384   2.659   3.312
14454TIP3    H164853   1.386   2.740   3.366
14454TIP3    H264854   1.321   2.689   3.244
14455TIP3   OH264855   0.555   2.909   2.593
14455TIP3    H164856   0.520   2.869   2.511
14455TIP3    H264857   0.615   2.839   2.627
14456TIP3   OH264858   0.687   3.249   2.861
14456TIP3    H164859   0.683   3.193   2.782
14456TIP3    H264860   0.764   3.212   2.907
14457TIP3   OH264861   0.588   2.783   2.958
14457TIP3    H164862   0.644   2.795   2.878
14457TIP3    H264863   0.624   2.850   3.020
14458TIP3   OH264864   1.226   3.339   3.028
14458TIP3    H164865   1.198   3.402   3.095
14458TIP3    H264866   1.202   3.253   3.072
14459TIP3   OH264867   0.681   3.225   3.428
14459TIP3    H164868   0.643   3.301   3.476
14459TIP3    H264869   0.613   3.207   3.358
14460TIP3   OH264870   1.278   2.761   2.169
14460TIP3    H164871   1.335   2.778   2.248
14460TIP3    H264872   1.322   2.811   2.097
14461TIP3   OH264873   0.376   2.843   3.349
14461TIP3    H164874   0.379   2.911   3.418
14461TIP3    H264875   0.283   2.852   3.320
14462TIP3   OH264876   1.050   3.434   2.515
14462TIP3    H164877   1.095   3.465   2.595
14462TIP3    H264878   0.994   3.509   2.492
14463TIP3   OH264879   0.506   3.429   3.503
14463TIP3    H164880   0.499   3.419   3.407
14463TIP3    H264881   0.412   3.418   3.530
14464TIP3   OH264882   1.651   1.935   2.156
14464TIP3    H164883   1.557   1.948   2.182
14464TIP3    H264884   1.672   2.019   2.113
14465TIP3   OH264885   0.454   2.810   2.350
14465TIP3    H164886   0.422   2.891   2.305
14465TIP3    H264887   0.384   2.746   2.335
14466TIP3   OH264888   1.763   3.371   1.992
14466TIP3    H164889   1.778   3.465   2.009
14466TIP3    H264890   1.856   3.341   1.990
14467TIP3   OH264891   0.098   3.044   3.221
14467TIP3    H164892   0.024   3.049   3.157
14467TIP3    H264893   0.070   2.960   3.263
14468TIP3   OH264894   0.047   3.337   2.909
14468TIP3    H164895   0.138   3.312   2.922
14468TIP3    H264896   0.030   3.404   2.976
14469TIP3   OH264897   1.861   3.396   3.494
14469TIP3    H164898   1.847   3.301   3.486
14469TIP3    H264899   1.772   3.421   3.528
14470TIP3   OH264900   0.955   3.351   3.376
14470TIP3    H164901   0.962   3.436   3.427
14470TIP3    H264902   0.868   3.317   3.402
14471TIP3   OH264903   0.999   3.726   2.357
14471TIP3    H164904   0.988   3.717   2.261
14471TIP3    H264905   0.999   3.823   2.371
14472TIP3   OH264906   0.363   3.613   2.536
14472TIP3    H164907   0.377   3.572   2.624
14472TIP3    H264908   0.279   3.572   2.512
14473TIP3   OH264909   1.305   3.647   2.055
14473TIP3    H164910   1.348   3.570   2.011
14473TIP3    H264911   1.308   3.619   2.149
14474TIP3   OH264912   1.274   3.640   2.332
14474TIP3    H164913   1.178   3.647   2.350
14474TIP3    H264914   1.299   3.566   2.390
14475TIP3   OH264915   1.573   2.544   3.538
14475TIP3    H164916   1.528   2.590   3.465
14475TIP3    H264917   1.574   2.453   3.506
14476TIP3   OH264918   0.288   3.188   3.338
14476TIP3    H164919   0.306   3.148   3.426
14476TIP3    H264920   0.202   3.146   3.314
14477TIP3   OH264921   0.555   2.031   2.934
14477TIP3    H164922   0.465   2.021   2.896
14477TIP3    H264923   0.544   2.116   2.981
14478TIP3   OH264924   1.019   2.000   3.271
14478TIP3    H164925   1.059   1.958   3.349
14478TIP3    H264926   0.922   1.986   3.285
14479TIP3   OH264927   1.349   2.382   3.359
14479TIP3    H164928   1.294   2.363   3.439
14479TIP3    H264929   1.331   2.474   3.335
14480TIP3   OH264930   1.424   2.865   1.944
14480TIP3    H164931   1.425   2.844   1.847
14480TIP3    H264932   1.510   2.908   1.954
14481TIP3   OH264933   0.984   2.256   2.000
14481TIP3    H164934   0.953   2.251   2.093
14481TIP3    H264935   0.954   2.168   1.971
14482TIP3   OH264936   0.564   2.528   3.054
14482TIP3    H164937   0.492   2.526   3.121
14482TIP3    H264938   0.560   2.621   3.022
14483TIP3   OH264939   0.561   2.544   2.543
14483TIP3    H164940   0.468   2.516   2.531
14483TIP3    H264941   0.601   2.512   2.460
14484TIP3   OH264942   1.112   2.591   2.421
14484TIP3    H164943   1.073   2.674   2.387
14484TIP3    H264944   1.183   2.576   2.356
14485TIP3   OH264945   1.021   2.611   3.566
14485TIP3    H164946   0.966   2.535   3.598
14485TIP3    H264947   1.104   2.598   3.614
14486TIP3   OH264948   1.216   2.539   2.705
14486TIP3    H164949   1.190   2.596   2.630
14486TIP3    H264950   1.228   2.454   2.658
14487TIP3   OH264951   0.332   2.555   3.229
14487TIP3    H164952   0.332   2.597   3.317
14487TIP3    H264953   0.283   2.473   3.245
14488TIP3   OH264954   0.668   2.295   1.912
14488TIP3    H164955   0.623   2.252   1.987
14488TIP3    H264956   0.596   2.334   1.861
14489TIP3   OH264957   0.012   2.283   2.612
14489TIP3    H164958   0.061   2.262   2.694
14489TIP3    H264959   0.044   2.223   2.545
14490TIP3   OH264960   0.119   2.345   2.157
14490TIP3    H164961   0.172   2.404   2.101
14490TIP3    H264962   0.049   2.403   2.188
14491TIP3   OH264963   1.138   2.699   3.164
14491TIP3    H164964   1.174   2.632   3.103
14491TIP3    H264965   1.092   2.646   3.231
14492TIP3   OH264966   0.817   2.295   2.645
14492TIP3    H164967   0.724   2.297   2.675
14492TIP3    H264968   0.866   2.282   2.728
14493TIP3   OH264969   0.303   2.453   2.529
14493TIP3    H164970   0.213   2.467   2.494
14493TIP3    H264971   0.327   2.367   2.491
14494TIP3   OH264972   0.663   2.455   2.294
14494TIP3    H164973   0.758   2.467   2.312
14494TIP3    H264974   0.640   2.524   2.229
14495TIP3   OH264975   1.258   2.219   2.970
14495TIP3    H164976   1.189   2.226   3.040
14495TIP3    H264977   1.207   2.196   2.891
14496TIP3   OH264978   0.531   2.581   2.050
14496TIP3    H164979   0.480   2.533   1.982
14496TIP3    H264980   0.617   2.590   2.006
14497TIP3   OH264981   1.579   3.783   3.601
14497TIP3    H164982   1.606   3.823   3.517
14497TIP3    H264983   1.649   3.817   3.659
14498TIP3   OH264984   0.347   3.030   3.557
14498TIP3    H164985   0.418   3.056   3.618
14498TIP3    H264986   0.269   3.045   3.616
14499TIP3   OH264987   0.946   2.571   2.835
14499TIP3    H164988   1.005   2.518   2.781
14499TIP3    H264989   0.932   2.517   2.913
14500TIP3   OH264990   0.447   2.187   2.478
14500TIP3    H164991   0.416   2.094   2.475
14500TIP3    H264992   0.527   2.181   2.423
14501TIP3   OH264993   0.810   2.406   3.076
14501TIP3    H164994   0.727   2.456   3.086
14501TIP3    H264995   0.864   2.439   3.150
14502TIP3   OH264996   0.868   3.028   2.244
14502TIP3    H164997   0.789   2.980   2.214
14502TIP3    H264998   0.849   3.038   2.340
14503TIP3   OH264999   1.585   2.946   3.126
14503TIP3    H165000   1.643   2.993   3.065
14503TIP3    H265001   1.499   2.953   3.078
14504TIP3   OH265002   1.253   2.310   2.063
14504TIP3    H165003   1.157   2.324   2.050
14504TIP3    H265004   1.285   2.396   2.097
14505TIP3   OH265005   1.017   3.052   3.369
14505TIP3    H165006   0.983   3.011   3.449
14505TIP3    H265007   0.994   3.145   3.379
14506TIP3   OH265008   1.325   2.499   2.228
14506TIP3    H165009   1.415   2.486   2.265
14506TIP3    H265010   1.334   2.581   2.175
14507TIP3   OH265011   0.380   2.965   2.824
14507TIP3    H165012   0.450   2.958   2.757
14507TIP3    H265013   0.385   2.880   2.870
14508TIP3   OH265014   1.079   3.175   2.148
14508TIP3    H165015   1.045   3.259   2.185
14508TIP3    H265016   1.005   3.113   2.169
14509TIP3   OH265017   0.101   2.787   3.329
14509TIP3    H165018   0.108   2.764   3.423
14509TIP3    H265019   0.017   2.745   3.307
14510TIP3   OH265020   0.780   2.762   3.572
14510TIP3    H165021   0.749   2.736   3.484
14510TIP3    H265022   0.873   2.732   3.571
14511TIP3   OH265023   1.246   3.296   3.363
14511TIP3    H165024   1.154   3.314   3.340
14511TIP3    H265025   1.245   3.324   3.457
14512TIP3   OH265026   1.816   2.515   2.203
14512TIP3    H165027   1.759   2.484   2.131
14512TIP3    H265028   1.823   2.609   2.176
14513TIP3   OH265029   1.813   3.101   3.485
14513TIP3    H165030   1.725   3.123   3.448
14513TIP3    H265031   1.869   3.097   3.405
14514TIP3   OH265032   1.642   3.398   2.244
14514TIP3    H165033   1.607   3.314   2.278
14514TIP3    H265034   1.675   3.377   2.155
14515TIP3   OH265035   1.364   2.879   2.953
14515TIP3    H165036   1.269   2.857   2.944
14515TIP3    H265037   1.407   2.802   2.912
14516TIP3   OH265038   0.616   3.312   2.564
14516TIP3    H165039   0.667   3.391   2.543
14516TIP3    H265040   0.528   3.335   2.531
14517TIP3   OH265041   0.190   2.798   2.022
14517TIP3    H165042   0.249   2.863   2.064
14517TIP3    H265043   0.103   2.829   2.050
14518TIP3   OH265044   0.758   3.078   2.515
14518TIP3    H165045   0.729   3.171   2.525
14518TIP3    H265046   0.685   3.031   2.560
14519TIP3   OH265047   0.805   3.495   3.155
14519TIP3    H165048   0.848   3.578   3.128
14519TIP3    H265049   0.864   3.463   3.225
14520TIP3   OH265050   0.626   3.578   2.470
14520TIP3    H165051   0.530   3.592   2.481
14520TIP3    H265052   0.662   3.662   2.505
14521TIP3   OH265053   1.159   3.099   3.120
14521TIP3    H165054   1.122   3.078   3.208
14521TIP3    H265055   1.221   3.027   3.102
14522TIP3   OH265056   1.388   3.202   2.027
14522TIP3    H165057   1.418   3.157   2.109
14522TIP3    H265058   1.292   3.186   2.037
14523TIP3   OH265059   1.435   3.556   3.369
14523TIP3    H165060   1.369   3.505   3.319
14523TIP3    H265061   1.456   3.625   3.303
14524TIP3   OH265062   1.835   3.640   2.052
14524TIP3    H165063   1.906   3.705   2.033
14524TIP3    H265064   1.764   3.701   2.082
14525TIP3   OH265065   0.243   2.280   3.304
14525TIP3    H165066   0.153   2.316   3.306
14525TIP3    H265067   0.231   2.196   3.352
14526TIP3   OH265068   1.467   3.067   2.251
14526TIP3    H165069   1.443   2.989   2.306
14526TIP3    H265070   1.562   3.073   2.271
14527TIP3   OH265071   0.209   3.463   3.148
14527TIP3    H165072   0.230   3.368   3.150
14527TIP3    H265073   0.230   3.487   3.238
14528TIP3   OH265074   0.798   3.310   1.875
14528TIP3    H165075   0.815   3.234   1.818
14528TIP3    H265076   0.762   3.268   1.955
14529TIP3   OH265077   0.680   3.262   2.121
14529TIP3    H165078   0.706   3.214   2.200
14529TIP3    H265079   0.687   3.356   2.152
14530TIP3   OH265080   0.333   2.988   2.164
14530TIP3    H165081   0.265   3.025   2.226
14530TIP3    H265082   0.383   3.070   2.146
14531TIP3   OH265083   1.116   2.257   3.201
14531TIP3    H165084   1.187   2.263   3.266
14531TIP3    H265085   1.078   2.169   3.219
14532TIP3   OH265086   1.192   2.216   2.310
14532TIP3    H165087   1.215   2.264   2.228
14532TIP3    H265088   1.249   2.259   2.375
14533TIP3   OH265089   0.960   3.431   2.193
14533TIP3    H165090   0.878   3.483   2.198
14533TIP3    H265091   1.013   3.484   2.132
14534TIP3   OH265092   0.913   2.392   2.392
14534TIP3    H165093   0.994   2.447   2.398
14534TIP3    H265094   0.888   2.378   2.485
14535TIP3   OH265095   0.969   2.492   3.311
14535TIP3    H165096   0.977   2.549   3.390
14535TIP3    H265097   1.035   2.423   3.322
14536TIP3   OH265098   1.000   2.097   2.483
14536TIP3    H165099   0.967   2.162   2.548
14536TIP3    H265100   1.068   2.151   2.437
14537TIP3   OH265101   0.698   3.534   2.194
14537TIP3    H165102   0.709   3.617   2.140
14537TIP3    H265103   0.673   3.570   2.281
14538TIP3   OH265104   0.566   2.206   2.153
14538TIP3    H165105   0.560   2.296   2.190
14538TIP3    H265106   0.657   2.182   2.179
14539TIP3   OH265107   1.588   2.281   3.396
14539TIP3    H165108   1.495   2.310   3.384
14539TIP3    H265109   1.618   2.280   3.304
14540TIP3   OH265110   1.448   2.658   2.799
14540TIP3    H165111   1.366   2.615   2.770
14540TIP3    H265112   1.495   2.589   2.851
14541TIP3   OH265113   0.391   3.247   2.060
14541TIP3    H165114   0.452   3.317   2.088
14541TIP3    H265115   0.442   3.209   1.987
14542TIP3   OH265116   0.229   2.517   1.967
14542TIP3    H165117   0.222   2.611   1.993
14542TIP3    H265118   0.137   2.496   1.945
14543TIP3   OH265119   1.555   3.583   2.965
14543TIP3    H165120   1.544   3.652   2.897
14543TIP3    H265121   1.651   3.590   2.983
14544TIP3   OH265122   0.303   1.997   2.842
14544TIP3    H165123   0.284   1.999   2.746
14544TIP3    H265124   0.261   1.913   2.870
14545TIP3   OH265125   0.202   3.388   2.460
14545TIP3    H165126   0.117   3.433   2.456
14545TIP3    H265127   0.250   3.439   2.393
14546TIP3   OH265128   0.135   3.654   3.587
14546TIP3    H165129   0.185   3.629   3.666
14546TIP3    H265130   0.081   3.572   3.572
14547TIP3   OH265131   0.589   3.544   3.750
14547TIP3    H165132   0.665   3.495   3.783
14547TIP3    H265133   0.585   3.517   3.656
14548TIP3   OH265134   1.000   3.496   1.889
14548TIP3    H165135   0.933   3.430   1.915
14548TIP3    H265136   1.073   3.438   1.865
14549TIP3   OH265137   1.241   3.383   3.623
14549TIP3    H165138   1.209   3.294   3.650
14549TIP3    H265139   1.317   3.395   3.684
14550TIP3   OH265140   1.457   3.472   1.909
14550TIP3    H165141   1.487   3.394   1.958
14550TIP3    H265142   1.533   3.496   1.853
14551TIP3   OH265143   0.126   3.031   3.683
14551TIP3    H165144   0.131   2.938   3.657
14551TIP3    H265145   0.042   3.059   3.642
14552TIP3   OH265146   0.558   3.082   1.889
14552TIP3    H165147   0.587   3.023   1.959
14552TIP3    H265148   0.627   3.062   1.821
14553TIP3   OH265149   0.784   3.029   3.627
14553TIP3    H165150   0.750   3.059   3.540
14553TIP3    H265151   0.794   2.932   3.617
14554TIP3   OH265152   1.089   3.175   1.868
14554TIP3    H165153   1.061   3.186   1.961
14554TIP3    H265154   1.069   3.079   1.855
14555TIP3   OH265155   1.354   3.016   3.365
14555TIP3    H165156   1.432   3.076   3.357
14555TIP3    H265157   1.282   3.081   3.370
14556TIP3   OH265158   0.198   2.752   3.624
14556TIP3    H165159   0.245   2.667   3.616
14556TIP3    H265160   0.181   2.754   3.720
14557TIP3   OH265161   0.658   2.866   2.124
14557TIP3    H165162   0.621   2.813   2.198
14557TIP3    H265163   0.700   2.795   2.068
14558TIP3   OH265164   0.594   2.649   3.363
14558TIP3    H165165   0.533   2.720   3.389
14558TIP3    H265166   0.632   2.685   3.280
14559TIP3   OH265167   0.772   2.693   1.953
14559TIP3    H165168   0.760   2.675   1.857
14559TIP3    H265169   0.871   2.695   1.959
14560TIP3   OH265170   1.100   2.903   3.694
14560TIP3    H165171   1.196   2.905   3.685
14560TIP3    H265172   1.083   2.828   3.752
14561TIP3   OH265173   1.710   2.922   1.896
14561TIP3    H165174   1.687   2.882   1.811
14561TIP3    H265175   1.717   3.018   1.875
14562TIP3   OH265176   0.634   2.386   3.469
14562TIP3    H165177   0.645   2.314   3.405
14562TIP3    H265178   0.628   2.467   3.414
14563TIP3   OH265179   0.674   2.224   3.222
14563TIP3    H165180   0.725   2.270   3.152
14563TIP3    H265181   0.585   2.215   3.180
14564TIP3   OH265182   0.829   2.771   3.247
14564TIP3    H165183   0.904   2.755   3.189
14564TIP3    H265184   0.793   2.855   3.215
14565TIP3   OH265185   1.269   2.549   3.745
14565TIP3    H165186   1.291   2.455   3.735
14565TIP3    H265187   1.356   2.592   3.746
14566TIP3   OH265188   1.401   2.828   3.558
14566TIP3    H165189   1.376   2.900   3.497
14566TIP3    H265190   1.497   2.824   3.540
14567TIP3   OH265191   0.477   2.512   3.659
14567TIP3    H165192   0.401   2.452   3.642
14567TIP3    H265193   0.545   2.475   3.599
14568TIP3   OH265194   0.753   1.967   3.264
14568TIP3    H165195   0.738   2.064   3.253
14568TIP3    H265196   0.678   1.932   3.213
14569TIP3   OH265197   0.880   2.401   3.623
14569TIP3    H165198   0.850   2.378   3.713
14569TIP3    H265199   0.801   2.381   3.570
14570TIP3   OH265200   1.152   2.314   3.530
14570TIP3    H165201   1.055   2.319   3.543
14570TIP3    H265202   1.180   2.251   3.598
14571TIP3   OH265203   1.312   2.177   3.725
14571TIP3    H165204   1.304   2.080   3.727
14571TIP3    H265205   1.284   2.206   3.814
14572TIP3   OH265206   0.295   2.303   3.634
14572TIP3    H165207   0.315   2.229   3.573
14572TIP3    H265208   0.282   2.257   3.719
14573TIP3   OH265209   0.774   1.904   3.532
14573TIP3    H165210   0.844   1.836   3.529
14573TIP3    H265211   0.764   1.923   3.437
14574TIP3   OH265212   0.811   2.068   3.741
14574TIP3    H165213   0.794   2.018   3.657
14574TIP3    H265214   0.750   2.144   3.732
14575TIP3   OH265215   0.760   3.757   2.059
14575TIP3    H165216   0.856   3.770   2.067
14575TIP3    H265217   0.741   3.821   1.989
14576TIP3   OH265218   0.123   3.220   2.014
14576TIP3    H165219   0.219   3.229   2.028
14576TIP3    H265220   0.120   3.156   1.939
14577TIP3   OH265221   7.353   3.765   2.498
14577TIP3    H165222   7.271   3.732   2.457
14577TIP3    H265223   7.370   3.697   2.567
14578TIP3   OH265224   0.069   3.571   2.686
14578TIP3    H165225   0.040   3.481   2.709
14578TIP3    H265226   0.097   3.602   2.775
14579TIP3   OH265227   1.827   3.648   2.986
14579TIP3    H165228   1.829   3.666   3.082
14579TIP3    H265229   1.897   3.706   2.955
14580TIP3   OH265230   1.786   3.608   3.281
14580TIP3    H165231   1.737   3.531   3.242
14580TIP3    H265232   1.835   3.563   3.350
14581TIP3   OH265233   1.629   3.181   3.745
14581TIP3    H165234   1.539   3.176   3.783
14581TIP3    H265235   1.666   3.260   3.788
14582TIP3   OH265236   1.760   3.012   2.291
14582TIP3    H165237   1.846   3.052   2.308
14582TIP3    H265238   1.759   2.939   2.357
14583TIP3   OH265239   1.797   2.819   2.477
14583TIP3    H165240   1.723   2.769   2.518
14583TIP3    H265241   1.857   2.835   2.553
14584TIP3   OH265242   1.773   3.091   2.976
14584TIP3    H165243   1.855   3.054   2.940
14584TIP3    H265244   1.787   3.187   2.959
14585TIP3   OH265245   1.627   3.380   3.204
14585TIP3    H165246   1.559   3.415   3.264
14585TIP3    H265247   1.572   3.339   3.134
14586TIP3   OH265248   1.827   2.803   2.117
14586TIP3    H165249   1.771   2.839   2.045
14586TIP3    H265250   1.819   2.874   2.184
14587TIP3   OH265251   1.663   2.527   1.970
14587TIP3    H165252   1.671   2.594   1.901
14587TIP3    H265253   1.646   2.444   1.920
14588TIP3   OH265254   1.578   2.668   2.534
14588TIP3    H165255   1.563   2.572   2.532
14588TIP3    H265256   1.544   2.692   2.622
14589TIP3   OH265257   0.078   2.875   2.938
14589TIP3    H165258   0.097   2.869   2.842
14589TIP3    H265259   0.166   2.861   2.977
14590TIP3   OH265260   1.663   2.865   3.502
14590TIP3    H165261   1.724   2.789   3.517
14590TIP3    H265262   1.723   2.942   3.504
14591TIP3   OH265263   1.814   2.654   3.568
14591TIP3    H165264   1.726   2.614   3.552
14591TIP3    H265265   1.872   2.577   3.560
14592TIP3   OH265266   1.587   2.272   1.883
14592TIP3    H165267   1.647   2.230   1.947
14592TIP3    H265268   1.502   2.229   1.900
14593TIP3   OH265269   1.544   2.426   2.378
14593TIP3    H165270   1.576   2.334   2.393
14593TIP3    H265271   1.626   2.467   2.345
14594TIP3   OH265272   1.609   2.480   2.925
14594TIP3    H165273   1.705   2.504   2.923
14594TIP3    H265274   1.589   2.495   3.018
14595TIP3   OH265275   1.616   2.553   3.203
14595TIP3    H165276   1.528   2.583   3.236
14595TIP3    H265277   1.659   2.640   3.181
14596TIP3   OH265278   0.058   2.398   3.554
14596TIP3    H165279   0.148   2.379   3.580
14596TIP3    H265280   0.000   2.326   3.589
14597TIP3   OH265281   1.841   1.957   3.738
14597TIP3    H165282   1.878   1.893   3.676
14597TIP3    H265283   1.854   2.041   3.689
14598TIP3   OH265284   1.612   2.154   2.385
14598TIP3    H165285   1.632   2.109   2.470
14598TIP3    H265286   1.551   2.092   2.340
14599TIP3   OH265287   0.157   2.232   2.842
14599TIP3    H165288   0.209   2.153   2.868
14599TIP3    H265289   0.211   2.303   2.881
14600TIP3   OH265290   0.063   2.579   2.983
14600TIP3    H165291   0.059   2.544   2.891
14600TIP3    H265292   0.034   2.668   2.964
14601TIP3   OH265293   1.795   2.166   3.574
14601TIP3    H165294   1.701   2.196   3.567
14601TIP3    H265295   1.800   2.115   3.492
14602TIP3   OH265296   1.794   2.158   2.041
14602TIP3    H165297   1.836   2.087   1.988
14602TIP3    H265298   1.864   2.225   2.045
14603TIP3   OH265299   0.063   2.161   2.327
14603TIP3    H165300  -0.032   2.181   2.329
14603TIP3    H265301   0.090   2.227   2.261
14604TIP3   OH265302   1.499   3.657   2.547
14604TIP3    H165303   1.567   3.625   2.485
14604TIP3    H265304   1.552   3.706   2.611
14605TIP3   OH265305   7.378   2.026   3.192
14605TIP3    H165306   7.302   2.005   3.249
14605TIP3    H265307   7.325   2.084   3.133
14606TIP3   OH265308   0.244   3.350   3.601
14606TIP3    H165309   0.161   3.368   3.555
14606TIP3    H265310   0.215   3.339   3.692
14607TIP3   OH265311   0.535   3.448   3.227
14607TIP3    H165312   0.496   3.532   3.198
14607TIP3    H265313   0.627   3.458   3.194
14608TIP3   OH265314   0.966   3.589   3.518
14608TIP3    H165315   0.982   3.554   3.608
14608TIP3    H265316   1.055   3.620   3.491
14609TIP3   OH265317   1.196   3.716   3.446
14609TIP3    H165318   1.269   3.656   3.423
14609TIP3    H265319   1.234   3.759   3.527
14610TIP3   OH265320   1.695   1.977   3.358
14610TIP3    H165321   1.613   2.010   3.316
14610TIP3    H265322   1.712   1.900   3.300
14611TIP3   OH265323   0.278   3.772   3.229
14611TIP3    H165324   0.203   3.818   3.187
14611TIP3    H265325   0.241   3.750   3.316
14612TIP3   OH265326   0.524   3.730   3.133
14612TIP3    H165327   0.435   3.743   3.173
14612TIP3    H265328   0.518   3.789   3.055
14613TIP3   OH265329   0.994   3.721   3.050
14613TIP3    H165330   0.948   3.776   2.985
14613TIP3    H265331   1.008   3.784   3.124
14614TIP3   OH265332   1.225   3.604   3.149
14614TIP3    H165333   1.137   3.629   3.117
14614TIP3    H265334   1.270   3.690   3.141
14615TIP3   OH265335   1.483   3.761   3.176
14615TIP3    H165336   1.473   3.856   3.152
14615TIP3    H265337   1.503   3.724   3.088
14616TIP3   OH265338   0.218   3.636   2.919
14616TIP3    H165339   0.216   3.593   3.007
14616TIP3    H265340   0.300   3.600   2.880
14617TIP3   OH265341   0.430   3.507   2.785
14617TIP3    H165342   0.412   3.414   2.807
14617TIP3    H265343   0.515   3.522   2.832
14618TIP3   OH265344   0.688   3.556   2.872
14618TIP3    H165345   0.706   3.464   2.845
14618TIP3    H265346   0.694   3.550   2.968
14619TIP3   OH265347   1.036   2.121   2.787
14619TIP3    H165348   0.968   2.056   2.813
14619TIP3    H265349   1.091   2.069   2.727
14620TIP3   OH265350   1.549   1.927   2.795
14620TIP3    H165351   1.611   1.985   2.745
14620TIP3    H265352   1.462   1.962   2.771
14621TIP3   OH265353   1.718   2.049   2.624
14621TIP3    H165354   1.786   1.993   2.579
14621TIP3    H265355   1.765   2.134   2.632
14622TIP3   OH265356   0.270   1.983   2.572
14622TIP3    H165357   0.193   1.961   2.515
14622TIP3    H265358   0.322   1.900   2.565
14623TIP3   OH265359   0.188   1.970   2.158
14623TIP3    H165360   0.204   2.030   2.084
14623TIP3    H265361   0.106   2.006   2.197
14624TIP3   OH265362   0.722   1.976   2.549
14624TIP3    H165363   0.812   2.013   2.544
14624TIP3    H265364   0.716   1.955   2.642
14625TIP3   OH265365   1.289   1.978   2.713
14625TIP3    H165366   1.288   1.988   2.618
14625TIP3    H265367   1.253   1.887   2.726
14626TIP3   OH265368   1.419   1.982   2.282
14626TIP3    H165369   1.345   2.042   2.264
14626TIP3    H265370   1.374   1.896   2.301
14627TIP3   OH265371   0.154   3.562   2.236
14627TIP3    H165372   0.076   3.555   2.177
14627TIP3    H265373   0.142   3.653   2.265
14628TIP3   OH265374   0.335   2.155   1.992
14628TIP3    H165375   0.388   2.091   1.941
14628TIP3    H265376   0.399   2.183   2.059
14629TIP3   OH265377   0.837   2.179   2.235
14629TIP3    H165378   0.860   2.120   2.309
14629TIP3    H265379   0.840   2.265   2.283
14630TIP3   OH265380   1.028   3.683   2.080
14630TIP3    H165381   1.119   3.711   2.058
14630TIP3    H265382   1.006   3.634   1.998
14631TIP3   OH265383   1.700   3.635   2.350
14631TIP3    H165384   1.679   3.558   2.292
14631TIP3    H265385   1.693   3.710   2.287
14632TIP3   OH265386   0.258   2.040   3.521
14632TIP3    H165387   0.225   1.957   3.559
14632TIP3    H265388   0.352   2.035   3.552
14633TIP3   OH265389   0.462   1.975   3.678
14633TIP3    H165390   0.551   1.941   3.657
14633TIP3    H265391   0.423   1.895   3.720
14634TIP3   OH265392   0.321   3.651   1.939
14634TIP3    H165393   0.296   3.678   2.029
14634TIP3    H265394   0.400   3.597   1.957
14635TIP3   OH265395   1.302   1.905   3.694
14635TIP3    H165396   1.312   1.858   3.780
14635TIP3    H265397   1.393   1.903   3.660
14636TIP3   OH265398   1.625   3.510   3.560
14636TIP3    H165399   1.543   3.494   3.507
14636TIP3    H265400   1.611   3.604   3.581
14637TIP3   OH265401   3.066   2.896   2.559
14637TIP3    H165402   3.068   2.994   2.553
14637TIP3    H265403   2.995   2.873   2.497
14638TIP3   OH265404   2.953   2.824   2.907
14638TIP3    H165405   2.951   2.759   2.978
14638TIP3    H265406   2.920   2.774   2.831
14639TIP3   OH265407   2.189   2.789   3.063
14639TIP3    H165408   2.197   2.722   3.134
14639TIP3    H265409   2.263   2.848   3.084
14640TIP3   OH265410   3.324   3.117   2.735
14640TIP3    H165411   3.280   3.046   2.784
14640TIP3    H265412   3.324   3.190   2.801
14641TIP3   OH265413   2.282   3.234   2.915
14641TIP3    H165414   2.249   3.149   2.881
14641TIP3    H265415   2.377   3.215   2.920
14642TIP3   OH265416   1.946   2.592   2.461
14642TIP3    H165417   1.901   2.679   2.455
14642TIP3    H265418   1.889   2.538   2.405
14643TIP3   OH265419   2.016   2.814   2.674
14643TIP3    H165420   2.041   2.733   2.722
14643TIP3    H265421   2.088   2.823   2.610
14644TIP3   OH265422   3.010   3.627   2.747
14644TIP3    H165423   3.094   3.572   2.732
14644TIP3    H265424   3.017   3.607   2.842
14645TIP3   OH265425   2.791   3.065   2.952
14645TIP3    H165426   2.825   3.000   2.888
14645TIP3    H265427   2.870   3.079   3.007
14646TIP3   OH265428   3.653   2.228   3.029
14646TIP3    H165429   3.668   2.289   3.104
14646TIP3    H265430   3.706   2.272   2.961
14647TIP3   OH265431   3.107   2.510   2.984
14647TIP3    H165432   3.123   2.414   2.984
14647TIP3    H265433   3.097   2.525   2.888
14648TIP3   OH265434   2.420   2.318   2.708
14648TIP3    H165435   2.429   2.403   2.660
14648TIP3    H265436   2.378   2.261   2.640
14649TIP3   OH265437   3.193   2.328   2.545
14649TIP3    H165438   3.259   2.296   2.611
14649TIP3    H265439   3.249   2.384   2.488
14650TIP3   OH265440   2.082   2.559   2.782
14650TIP3    H165441   2.149   2.504   2.826
14650TIP3    H265442   2.091   2.529   2.690
14651TIP3   OH265443   2.598   2.715   2.710
14651TIP3    H165444   2.664   2.657   2.753
14651TIP3    H265445   2.545   2.648   2.663
14652TIP3   OH265446   3.697   2.372   3.254
14652TIP3    H165447   3.632   2.445   3.245
14652TIP3    H265448   3.699   2.359   3.350
14653TIP3   OH265449   2.308   2.208   3.112
14653TIP3    H165450   2.281   2.265   3.037
14653TIP3    H265451   2.240   2.232   3.179
14654TIP3   OH265452   3.040   3.158   2.467
14654TIP3    H165453   3.012   3.129   2.379
14654TIP3    H265454   3.009   3.251   2.473
14655TIP3   OH265455   2.562   2.973   3.138
14655TIP3    H165456   2.490   3.037   3.156
14655TIP3    H265457   2.632   3.033   3.108
14656TIP3   OH265458   3.372   2.261   2.744
14656TIP3    H165459   3.351   2.184   2.797
14656TIP3    H265460   3.440   2.305   2.798
14657TIP3   OH265461   2.264   2.395   2.913
14657TIP3    H165462   2.328   2.463   2.946
14657TIP3    H265463   2.317   2.352   2.841
14658TIP3   OH265464   2.405   3.172   3.219
14658TIP3    H165465   2.401   3.263   3.183
14658TIP3    H265466   2.317   3.164   3.262
14659TIP3   OH265467   2.014   3.136   2.298
14659TIP3    H165468   1.988   3.166   2.209
14659TIP3    H265469   2.021   3.220   2.347
14660TIP3   OH265470   3.377   3.300   2.974
14660TIP3    H165471   3.280   3.313   2.984
14660TIP3    H265472   3.400   3.393   2.953
14661TIP3   OH265473   3.407   2.130   3.112
14661TIP3    H165474   3.334   2.193   3.105
14661TIP3    H265475   3.477   2.172   3.059
14662TIP3   OH265476   2.706   1.941   2.858
14662TIP3    H165477   2.693   1.845   2.852
14662TIP3    H265478   2.618   1.972   2.888
14663TIP3   OH265479   3.185   3.476   2.602
14663TIP3    H165480   3.249   3.406   2.580
14663TIP3    H265481   3.240   3.557   2.596
14664TIP3   OH265482   3.324   3.271   2.483
14664TIP3    H165483   3.291   3.202   2.424
14664TIP3    H265484   3.325   3.225   2.569
14665TIP3   OH265485   3.482   3.131   3.332
14665TIP3    H165486   3.501   3.067   3.260
14665TIP3    H265487   3.505   3.216   3.291
14666TIP3   OH265488   2.934   2.822   2.310
14666TIP3    H165489   2.863   2.878   2.273
14666TIP3    H265490   3.004   2.830   2.243
14667TIP3   OH265491   2.940   2.675   2.011
14667TIP3    H165492   3.011   2.674   2.077
14667TIP3    H265493   2.971   2.606   1.951
14668TIP3   OH265494   3.670   2.760   3.137
14668TIP3    H165495   3.607   2.835   3.143
14668TIP3    H265496   3.721   2.786   3.058
14669TIP3   OH265497   3.277   2.843   2.401
14669TIP3    H165498   3.202   2.867   2.461
14669TIP3    H265499   3.323   2.774   2.452
14670TIP3   OH265500   3.270   2.659   3.312
14670TIP3    H165501   3.271   2.740   3.366
14670TIP3    H265502   3.206   2.689   3.244
14671TIP3   OH265503   2.439   2.909   2.593
14671TIP3    H165504   2.407   2.869   2.508
14671TIP3    H265505   2.500   2.839   2.626
14672TIP3   OH265506   2.571   3.247   2.861
14672TIP3    H165507   2.569   3.193   2.782
14672TIP3    H265508   2.649   3.212   2.907
14673TIP3   OH265509   2.473   2.783   2.958
14673TIP3    H165510   2.529   2.794   2.879
14673TIP3    H265511   2.510   2.849   3.020
14674TIP3   OH265512   3.109   3.336   3.029
14674TIP3    H165513   3.085   3.403   3.093
14674TIP3    H265514   3.087   3.252   3.073
14675TIP3   OH265515   2.566   3.226   3.429
14675TIP3    H165516   2.528   3.302   3.475
14675TIP3    H265517   2.500   3.206   3.358
14676TIP3   OH265518   3.164   2.761   2.169
14676TIP3    H165519   3.221   2.778   2.248
14676TIP3    H265520   3.208   2.811   2.097
14677TIP3   OH265521   2.260   2.843   3.346
14677TIP3    H165522   2.264   2.909   3.417
14677TIP3    H265523   2.167   2.852   3.321
14678TIP3   OH265524   2.932   3.433   2.515
14678TIP3    H165525   2.982   3.464   2.593
14678TIP3    H265526   2.881   3.510   2.493
14679TIP3   OH265527   2.388   3.436   3.505
14679TIP3    H165528   2.389   3.418   3.408
14679TIP3    H265529   2.297   3.410   3.524
14680TIP3   OH265530   3.536   1.935   2.156
14680TIP3    H165531   3.442   1.948   2.182
14680TIP3    H265532   3.558   2.019   2.113
14681TIP3   OH265533   2.337   2.811   2.354
14681TIP3    H165534   2.308   2.890   2.303
14681TIP3    H265535   2.271   2.745   2.332
14682TIP3   OH265536   3.649   3.371   1.992
14682TIP3    H165537   3.663   3.465   2.009
14682TIP3    H265538   3.742   3.341   1.990
14683TIP3   OH265539   1.946   3.053   3.240
14683TIP3    H165540   1.899   3.045   3.155
14683TIP3    H265541   1.951   2.958   3.264
14684TIP3   OH265542   1.921   3.327   2.921
14684TIP3    H165543   2.017   3.315   2.919
14684TIP3    H265544   1.912   3.408   2.973
14685TIP3   OH265545   3.746   3.397   3.494
14685TIP3    H165546   3.735   3.301   3.486
14685TIP3    H265547   3.657   3.421   3.529
14686TIP3   OH265548   2.841   3.351   3.378
14686TIP3    H165549   2.848   3.436   3.426
14686TIP3    H265550   2.753   3.316   3.401
14687TIP3   OH265551   2.884   3.726   2.357
14687TIP3    H165552   2.874   3.717   2.261
14687TIP3    H265553   2.885   3.823   2.371
14688TIP3   OH265554   2.248   3.613   2.537
14688TIP3    H165555   2.262   3.572   2.625
14688TIP3    H265556   2.163   3.573   2.513
14689TIP3   OH265557   3.191   3.647   2.054
14689TIP3    H165558   3.233   3.570   2.010
14689TIP3    H265559   3.193   3.620   2.149
14690TIP3   OH265560   3.159   3.638   2.329
14690TIP3    H165561   3.064   3.647   2.352
14690TIP3    H265562   3.185   3.568   2.392
14691TIP3   OH265563   3.459   2.544   3.538
14691TIP3    H165564   3.414   2.590   3.465
14691TIP3    H265565   3.459   2.453   3.507
14692TIP3   OH265566   2.172   3.188   3.340
14692TIP3    H165567   2.196   3.145   3.425
14692TIP3    H265568   2.087   3.145   3.315
14693TIP3   OH265569   2.440   2.031   2.934
14693TIP3    H165570   2.350   2.021   2.896
14693TIP3    H265571   2.429   2.116   2.980
14694TIP3   OH265572   2.904   2.000   3.271
14694TIP3    H165573   2.944   1.958   3.349
14694TIP3    H265574   2.807   1.986   3.285
14695TIP3   OH265575   3.235   2.382   3.359
14695TIP3    H165576   3.179   2.363   3.439
14695TIP3    H265577   3.217   2.474   3.335
14696TIP3   OH265578   3.309   2.865   1.944
14696TIP3    H165579   3.311   2.844   1.847
14696TIP3    H265580   3.396   2.908   1.954
14697TIP3   OH265581   2.870   2.256   2.000
14697TIP3    H165582   2.839   2.251   2.093
14697TIP3    H265583   2.839   2.168   1.971
14698TIP3   OH265584   2.450   2.528   3.054
14698TIP3    H165585   2.378   2.526   3.120
14698TIP3    H265586   2.447   2.620   3.021
14699TIP3   OH265587   2.446   2.544   2.543
14699TIP3    H165588   2.353   2.515   2.531
14699TIP3    H265589   2.486   2.512   2.460
14700TIP3   OH265590   2.999   2.591   2.422
14700TIP3    H165591   2.958   2.673   2.387
14700TIP3    H265592   3.068   2.576   2.356
14701TIP3   OH265593   2.906   2.611   3.566
14701TIP3    H165594   2.852   2.535   3.598
14701TIP3    H265595   2.990   2.598   3.614
14702TIP3   OH265596   3.101   2.539   2.705
14702TIP3    H165597   3.076   2.596   2.630
14702TIP3    H265598   3.114   2.454   2.658
14703TIP3   OH265599   2.215   2.557   3.228
14703TIP3    H165600   2.219   2.597   3.316
14703TIP3    H265601   2.169   2.473   3.246
14704TIP3   OH265602   2.553   2.295   1.912
14704TIP3    H165603   2.508   2.252   1.987
14704TIP3    H265604   2.481   2.336   1.862
14705TIP3   OH265605   1.879   2.268   2.622
14705TIP3    H165606   1.946   2.264   2.693
14705TIP3    H265607   1.925   2.228   2.546
14706TIP3   OH265608   2.007   2.339   2.160
14706TIP3    H165609   2.056   2.401   2.103
14706TIP3    H265610   1.937   2.400   2.193
14707TIP3   OH265611   3.023   2.699   3.164
14707TIP3    H165612   3.059   2.632   3.103
14707TIP3    H265613   2.978   2.646   3.231
14708TIP3   OH265614   2.702   2.295   2.645
14708TIP3    H165615   2.609   2.297   2.675
14708TIP3    H265616   2.752   2.282   2.728
14709TIP3   OH265617   2.184   2.453   2.531
14709TIP3    H165618   2.095   2.466   2.493
14709TIP3    H265619   2.213   2.369   2.492
14710TIP3   OH265620   2.549   2.455   2.294
14710TIP3    H165621   2.644   2.467   2.312
14710TIP3    H265622   2.526   2.524   2.229
14711TIP3   OH265623   3.143   2.219   2.970
14711TIP3    H165624   3.074   2.226   3.040
14711TIP3    H265625   3.093   2.196   2.891
14712TIP3   OH265626   2.418   2.574   2.053
14712TIP3    H165627   2.365   2.536   1.981
14712TIP3    H265628   2.501   2.594   2.006
14713TIP3   OH265629   3.466   3.784   3.602
14713TIP3    H165630   3.491   3.823   3.516
14713TIP3    H265631   3.537   3.816   3.659
14714TIP3   OH265632   2.232   3.034   3.558
14714TIP3    H165633   2.304   3.054   3.620
14714TIP3    H265634   2.153   3.042   3.617
14715TIP3   OH265635   2.832   2.572   2.835
14715TIP3    H165636   2.891   2.517   2.781
14715TIP3    H265637   2.818   2.517   2.913
14716TIP3   OH265638   2.333   2.186   2.478
14716TIP3    H165639   2.302   2.094   2.475
14716TIP3    H265640   2.411   2.181   2.422
14717TIP3   OH265641   2.696   2.406   3.076
14717TIP3    H165642   2.612   2.456   3.086
14717TIP3    H265643   2.750   2.439   3.150
14718TIP3   OH265644   2.754   3.028   2.245
14718TIP3    H165645   2.675   2.980   2.212
14718TIP3    H265646   2.734   3.037   2.340
14719TIP3   OH265647   3.469   2.945   3.126
14719TIP3    H165648   3.529   2.993   3.066
14719TIP3    H265649   3.384   2.954   3.077
14720TIP3   OH265650   3.138   2.310   2.063
14720TIP3    H165651   3.043   2.324   2.050
14720TIP3    H265652   3.171   2.396   2.097
14721TIP3   OH265653   2.903   3.051   3.369
14721TIP3    H165654   2.869   3.011   3.449
14721TIP3    H265655   2.880   3.145   3.379
14722TIP3   OH265656   3.211   2.499   2.228
14722TIP3    H165657   3.301   2.486   2.265
14722TIP3    H265658   3.220   2.581   2.175
14723TIP3   OH265659   2.264   2.965   2.825
14723TIP3    H165660   2.335   2.959   2.758
14723TIP3    H265661   2.271   2.879   2.871
14724TIP3   OH265662   2.965   3.174   2.147
14724TIP3    H165663   2.931   3.258   2.185
14724TIP3    H265664   2.891   3.113   2.169
14725TIP3   OH265665   1.964   2.808   3.352
14725TIP3    H165666   1.983   2.763   3.437
14725TIP3    H265667   1.902   2.745   3.309
14726TIP3   OH265668   2.665   2.762   3.572
14726TIP3    H165669   2.635   2.735   3.484
14726TIP3    H265670   2.758   2.732   3.571
14727TIP3   OH265671   3.132   3.294   3.365
14727TIP3    H165672   3.040   3.315   3.339
14727TIP3    H265673   3.130   3.324   3.457
14728TIP3   OH265674   3.702   2.515   2.203
14728TIP3    H165675   3.644   2.484   2.130
14728TIP3    H265676   3.709   2.610   2.176
14729TIP3   OH265677   3.698   3.102   3.488
14729TIP3    H165678   3.611   3.122   3.447
14729TIP3    H265679   3.754   3.095   3.406
14730TIP3   OH265680   3.528   3.398   2.245
14730TIP3    H165681   3.493   3.315   2.278
14730TIP3    H265682   3.560   3.378   2.156
14731TIP3   OH265683   3.248   2.879   2.953
14731TIP3    H165684   3.154   2.857   2.944
14731TIP3    H265685   3.293   2.802   2.913
14732TIP3   OH265686   2.502   3.312   2.564
14732TIP3    H165687   2.553   3.392   2.543
14732TIP3    H265688   2.414   3.335   2.531
14733TIP3   OH265689   2.078   2.796   2.021
14733TIP3    H165690   2.137   2.862   2.061
14733TIP3    H265691   1.990   2.828   2.047
14734TIP3   OH265692   2.644   3.078   2.516
14734TIP3    H165693   2.615   3.171   2.525
14734TIP3    H265694   2.571   3.031   2.560
14735TIP3   OH265695   2.690   3.496   3.155
14735TIP3    H165696   2.734   3.578   3.127
14735TIP3    H265697   2.750   3.463   3.225
14736TIP3   OH265698   2.511   3.578   2.470
14736TIP3    H165699   2.415   3.592   2.481
14736TIP3    H265700   2.547   3.662   2.505
14737TIP3   OH265701   3.043   3.097   3.120
14737TIP3    H165702   3.008   3.078   3.209
14737TIP3    H265703   3.107   3.026   3.103
14738TIP3   OH265704   3.273   3.202   2.027
14738TIP3    H165705   3.304   3.157   2.109
14738TIP3    H265706   3.177   3.186   2.037
14739TIP3   OH265707   3.320   3.556   3.370
14739TIP3    H165708   3.255   3.505   3.318
14739TIP3    H265709   3.342   3.624   3.302
14740TIP3   OH265710   3.721   3.640   2.051
14740TIP3    H165711   3.792   3.705   2.034
14740TIP3    H265712   3.650   3.701   2.082
14741TIP3   OH265713   2.129   2.281   3.307
14741TIP3    H165714   2.038   2.315   3.304
14741TIP3    H265715   2.117   2.196   3.352
14742TIP3   OH265716   3.353   3.067   2.251
14742TIP3    H165717   3.329   2.990   2.307
14742TIP3    H265718   3.448   3.073   2.271
14743TIP3   OH265719   2.091   3.460   3.151
14743TIP3    H165720   2.118   3.367   3.149
14743TIP3    H265721   2.117   3.488   3.239
14744TIP3   OH265722   2.685   3.311   1.875
14744TIP3    H165723   2.699   3.233   1.818
14744TIP3    H265724   2.647   3.268   1.955
14745TIP3   OH265725   2.567   3.264   2.121
14745TIP3    H165726   2.590   3.212   2.199
14745TIP3    H265727   2.573   3.357   2.153
14746TIP3   OH265728   2.218   2.988   2.170
14746TIP3    H165729   2.148   3.027   2.226
14746TIP3    H265730   2.270   3.067   2.143
14747TIP3   OH265731   3.001   2.257   3.201
14747TIP3    H165732   3.072   2.263   3.266
14747TIP3    H265733   2.963   2.169   3.219
14748TIP3   OH265734   3.078   2.216   2.310
14748TIP3    H165735   3.101   2.264   2.228
14748TIP3    H265736   3.135   2.259   2.375
14749TIP3   OH265737   2.846   3.431   2.193
14749TIP3    H165738   2.764   3.484   2.200
14749TIP3    H265739   2.899   3.484   2.132
14750TIP3   OH265740   2.799   2.391   2.392
14750TIP3    H165741   2.879   2.447   2.397
14750TIP3    H265742   2.774   2.378   2.485
14751TIP3   OH265743   2.854   2.492   3.311
14751TIP3    H165744   2.863   2.549   3.390
14751TIP3    H265745   2.920   2.423   3.322
14752TIP3   OH265746   2.886   2.097   2.483
14752TIP3    H165747   2.853   2.162   2.548
14752TIP3    H265748   2.954   2.151   2.437
14753TIP3   OH265749   2.584   3.535   2.194
14753TIP3    H165750   2.595   3.617   2.140
14753TIP3    H265751   2.559   3.570   2.282
14754TIP3   OH265752   2.451   2.206   2.153
14754TIP3    H165753   2.446   2.297   2.190
14754TIP3    H265754   2.542   2.182   2.179
14755TIP3   OH265755   3.474   2.280   3.396
14755TIP3    H165756   3.380   2.310   3.384
14755TIP3    H265757   3.504   2.280   3.304
14756TIP3   OH265758   3.334   2.658   2.799
14756TIP3    H165759   3.252   2.615   2.770
14756TIP3    H265760   3.381   2.589   2.851
14757TIP3   OH265761   2.275   3.250   2.058
14757TIP3    H165762   2.339   3.316   2.088
14757TIP3    H265763   2.326   3.205   1.988
14758TIP3   OH265764   2.109   2.517   1.971
14758TIP3    H165765   2.109   2.613   1.991
14758TIP3    H265766   2.020   2.498   1.942
14759TIP3   OH265767   3.479   3.600   3.009
14759TIP3    H165768   3.436   3.634   2.924
14759TIP3    H265769   3.570   3.592   2.980
14760TIP3   OH265770   2.191   1.996   2.843
14760TIP3    H165771   2.169   1.999   2.747
14760TIP3    H265772   2.148   1.913   2.870
14761TIP3   OH265773   2.086   3.388   2.458
14761TIP3    H165774   2.001   3.435   2.456
14761TIP3    H265775   2.135   3.437   2.392
14762TIP3   OH265776   1.998   3.655   3.580
14762TIP3    H165777   2.039   3.648   3.665
14762TIP3    H265778   1.955   3.569   3.564
14763TIP3   OH265779   2.477   3.547   3.748
14763TIP3    H165780   2.544   3.487   3.783
14763TIP3    H265781   2.472   3.516   3.655
14764TIP3   OH265782   2.886   3.496   1.889
14764TIP3    H165783   2.818   3.430   1.915
14764TIP3    H265784   2.959   3.438   1.865
14765TIP3   OH265785   3.124   3.384   3.625
14765TIP3    H165786   3.095   3.294   3.649
14765TIP3    H265787   3.203   3.394   3.683
14766TIP3   OH265788   3.343   3.472   1.909
14766TIP3    H165789   3.372   3.394   1.958
14766TIP3    H265790   3.419   3.496   1.853
14767TIP3   OH265791   2.001   3.033   3.686
14767TIP3    H165792   2.016   2.941   3.657
14767TIP3    H265793   1.923   3.056   3.632
14768TIP3   OH265794   2.433   3.066   1.892
14768TIP3    H165795   2.446   2.988   1.949
14768TIP3    H265796   2.506   3.053   1.828
14769TIP3   OH265797   2.669   3.029   3.627
14769TIP3    H165798   2.635   3.059   3.540
14769TIP3    H265799   2.680   2.932   3.617
14770TIP3   OH265800   2.974   3.175   1.868
14770TIP3    H165801   2.947   3.185   1.961
14770TIP3    H265802   2.954   3.079   1.855
14771TIP3   OH265803   3.238   3.016   3.366
14771TIP3    H165804   3.317   3.076   3.357
14771TIP3    H265805   3.167   3.082   3.370
14772TIP3   OH265806   2.089   2.755   3.626
14772TIP3    H165807   2.129   2.667   3.616
14772TIP3    H265808   2.064   2.753   3.719
14773TIP3   OH265809   2.552   2.866   2.131
14773TIP3    H165810   2.504   2.813   2.196
14773TIP3    H265811   2.581   2.798   2.065
14774TIP3   OH265812   2.480   2.649   3.362
14774TIP3    H165813   2.419   2.720   3.389
14774TIP3    H265814   2.518   2.685   3.280
14775TIP3   OH265815   2.659   2.688   1.953
14775TIP3    H165816   2.643   2.677   1.857
14775TIP3    H265817   2.757   2.696   1.959
14776TIP3   OH265818   2.985   2.903   3.694
14776TIP3    H165819   3.082   2.905   3.685
14776TIP3    H265820   2.969   2.828   3.752
14777TIP3   OH265821   3.595   2.922   1.896
14777TIP3    H165822   3.573   2.882   1.811
14777TIP3    H265823   3.602   3.018   1.875
14778TIP3   OH265824   2.519   2.386   3.469
14778TIP3    H165825   2.531   2.314   3.405
14778TIP3    H265826   2.515   2.467   3.413
14779TIP3   OH265827   2.559   2.224   3.222
14779TIP3    H165828   2.611   2.270   3.152
14779TIP3    H265829   2.471   2.215   3.180
14780TIP3   OH265830   2.714   2.771   3.247
14780TIP3    H165831   2.790   2.755   3.189
14780TIP3    H265832   2.679   2.855   3.215
14781TIP3   OH265833   3.154   2.549   3.745
14781TIP3    H165834   3.177   2.455   3.735
14781TIP3    H265835   3.241   2.592   3.746
14782TIP3   OH265836   3.287   2.827   3.558
14782TIP3    H165837   3.262   2.900   3.497
14782TIP3    H265838   3.383   2.824   3.539
14783TIP3   OH265839   2.365   2.511   3.661
14783TIP3    H165840   2.288   2.453   3.642
14783TIP3    H265841   2.431   2.474   3.599
14784TIP3   OH265842   2.639   1.968   3.263
14784TIP3    H165843   2.623   2.065   3.252
14784TIP3    H265844   2.563   1.932   3.213
14785TIP3   OH265845   2.766   2.401   3.623
14785TIP3    H165846   2.736   2.378   3.713
14785TIP3    H265847   2.686   2.381   3.570
14786TIP3   OH265848   3.037   2.314   3.530
14786TIP3    H165849   2.941   2.319   3.543
14786TIP3    H265850   3.065   2.251   3.598
14787TIP3   OH265851   3.197   2.177   3.725
14787TIP3    H165852   3.190   2.080   3.727
14787TIP3    H265853   3.169   2.206   3.814
14788TIP3   OH265854   2.175   2.303   3.634
14788TIP3    H165855   2.200   2.230   3.574
14788TIP3    H265856   2.167   2.258   3.720
14789TIP3   OH265857   2.660   1.905   3.532
14789TIP3    H165858   2.729   1.836   3.529
14789TIP3    H265859   2.649   1.923   3.437
14790TIP3   OH265860   2.696   2.068   3.741
14790TIP3    H165861   2.680   2.018   3.657
14790TIP3    H265862   2.636   2.144   3.732
14791TIP3   OH265863   2.644   3.758   2.059
14791TIP3    H165864   2.741   3.770   2.067
14791TIP3    H265865   2.627   3.821   1.988
14792TIP3   OH265866   2.001   3.219   2.006
14792TIP3    H165867   2.097   3.227   2.027
14792TIP3    H265868   2.006   3.152   1.933
14793TIP3   OH265869   1.876   3.757   2.505
14793TIP3    H165870   1.805   3.709   2.457
14793TIP3    H265871   1.905   3.690   2.570
14794TIP3   OH265872   1.959   3.568   2.690
14794TIP3    H165873   1.924   3.480   2.710
14794TIP3    H265874   1.981   3.602   2.779
14795TIP3   OH265875   3.725   3.644   2.985
14795TIP3    H165876   3.713   3.666   3.080
14795TIP3    H265877   3.786   3.711   2.954
14796TIP3   OH265878   3.672   3.606   3.281
14796TIP3    H165879   3.622   3.531   3.241
14796TIP3    H265880   3.722   3.562   3.350
14797TIP3   OH265881   3.514   3.181   3.747
14797TIP3    H165882   3.424   3.176   3.784
14797TIP3    H265883   3.552   3.261   3.789
14798TIP3   OH265884   3.645   3.012   2.291
14798TIP3    H165885   3.732   3.052   2.308
14798TIP3    H265886   3.645   2.939   2.357
14799TIP3   OH265887   3.682   2.819   2.477
14799TIP3    H165888   3.608   2.769   2.518
14799TIP3    H265889   3.742   2.834   2.553
14800TIP3   OH265890   3.655   3.092   2.972
14800TIP3    H165891   3.742   3.056   2.944
14800TIP3    H265892   3.673   3.187   2.961
14801TIP3   OH265893   3.512   3.379   3.206
14801TIP3    H165894   3.443   3.416   3.262
14801TIP3    H265895   3.459   3.341   3.133
14802TIP3   OH265896   3.712   2.803   2.117
14802TIP3    H165897   3.657   2.839   2.045
14802TIP3    H265898   3.704   2.874   2.184
14803TIP3   OH265899   3.549   2.527   1.970
14803TIP3    H165900   3.556   2.594   1.901
14803TIP3    H265901   3.531   2.444   1.920
14804TIP3   OH265902   3.464   2.668   2.534
14804TIP3    H165903   3.449   2.572   2.532
14804TIP3    H265904   3.429   2.692   2.622
14805TIP3   OH265905   1.965   2.876   2.939
14805TIP3    H165906   1.984   2.868   2.843
14805TIP3    H265907   2.054   2.860   2.976
14806TIP3   OH265908   3.549   2.865   3.502
14806TIP3    H165909   3.610   2.789   3.517
14806TIP3    H265910   3.609   2.942   3.503
14807TIP3   OH265911   3.700   2.654   3.569
14807TIP3    H165912   3.612   2.614   3.552
14807TIP3    H265913   3.758   2.577   3.560
14808TIP3   OH265914   3.473   2.272   1.883
14808TIP3    H165915   3.533   2.230   1.947
14808TIP3    H265916   3.387   2.229   1.900
14809TIP3   OH265917   3.430   2.426   2.378
14809TIP3    H165918   3.462   2.334   2.393
14809TIP3    H265919   3.511   2.467   2.345
14810TIP3   OH265920   3.495   2.480   2.925
14810TIP3    H165921   3.590   2.504   2.923
14810TIP3    H265922   3.475   2.495   3.018
14811TIP3   OH265923   3.501   2.553   3.203
14811TIP3    H165924   3.414   2.583   3.236
14811TIP3    H265925   3.544   2.639   3.181
14812TIP3   OH265926   1.925   2.406   3.554
14812TIP3    H165927   2.019   2.387   3.574
14812TIP3    H265928   1.881   2.324   3.586
14813TIP3   OH265929   3.730   1.958   3.738
14813TIP3    H165930   3.761   1.891   3.675
14813TIP3    H265931   3.739   2.040   3.687
14814TIP3   OH265932   3.497   2.154   2.385
14814TIP3    H165933   3.517   2.109   2.470
14814TIP3    H265934   3.437   2.092   2.340
14815TIP3   OH265935   2.046   2.235   2.840
14815TIP3    H165936   2.093   2.153   2.868
14815TIP3    H265937   2.099   2.305   2.881
14816TIP3   OH265938   1.875   2.534   2.945
14816TIP3    H165939   1.931   2.511   2.868
14816TIP3    H265940   1.919   2.616   2.972
14817TIP3   OH265941   3.681   2.168   3.573
14817TIP3    H165942   3.587   2.195   3.567
14817TIP3    H265943   3.685   2.114   3.493
14818TIP3   OH265944   3.680   2.158   2.041
14818TIP3    H165945   3.722   2.087   1.988
14818TIP3    H265946   3.750   2.225   2.045
14819TIP3   OH265947   1.911   2.162   2.352
14819TIP3    H165948   1.817   2.180   2.337
14819TIP3    H265949   1.954   2.210   2.280
14820TIP3   OH265950   3.386   3.659   2.543
14820TIP3    H165951   3.455   3.624   2.485
14820TIP3    H265952   3.436   3.704   2.613
14821TIP3   OH265953   1.906   2.027   3.183
14821TIP3    H165954   1.837   2.011   3.249
14821TIP3    H265955   1.862   2.096   3.127
14822TIP3   OH265956   2.127   3.353   3.600
14822TIP3    H165957   2.042   3.360   3.552
14822TIP3    H265958   2.099   3.331   3.690
14823TIP3   OH265959   2.420   3.447   3.228
14823TIP3    H165960   2.384   3.532   3.197
14823TIP3    H265961   2.512   3.456   3.195
14824TIP3   OH265962   2.850   3.592   3.522
14824TIP3    H165963   2.873   3.551   3.607
14824TIP3    H265964   2.940   3.619   3.489
14825TIP3   OH265965   3.081   3.714   3.448
14825TIP3    H165966   3.155   3.657   3.420
14825TIP3    H265967   3.121   3.759   3.526
14826TIP3   OH265968   3.582   1.978   3.357
14826TIP3    H165969   3.499   2.007   3.316
14826TIP3    H265970   3.600   1.897   3.303
14827TIP3   OH265971   2.162   3.771   3.228
14827TIP3    H165972   2.090   3.820   3.185
14827TIP3    H265973   2.127   3.752   3.315
14828TIP3   OH265974   2.410   3.730   3.132
14828TIP3    H165975   2.320   3.743   3.172
14828TIP3    H265976   2.403   3.788   3.055
14829TIP3   OH265977   2.878   3.720   3.052
14829TIP3    H165978   2.835   3.775   2.984
14829TIP3    H265979   2.896   3.784   3.123
14830TIP3   OH265980   3.107   3.605   3.157
14830TIP3    H165981   3.024   3.628   3.114
14830TIP3    H265982   3.156   3.687   3.139
14831TIP3   OH265983   3.368   3.763   3.178
14831TIP3    H165984   3.358   3.856   3.150
14831TIP3    H265985   3.389   3.721   3.090
14832TIP3   OH265986   2.106   3.636   2.920
14832TIP3    H165987   2.100   3.591   3.007
14832TIP3    H265988   2.188   3.600   2.881
14833TIP3   OH265989   2.315   3.508   2.785
14833TIP3    H165990   2.298   3.414   2.807
14833TIP3    H265991   2.401   3.522   2.832
14834TIP3   OH265992   2.574   3.556   2.872
14834TIP3    H165993   2.592   3.464   2.845
14834TIP3    H265994   2.580   3.550   2.968
14835TIP3   OH265995   2.922   2.121   2.787
14835TIP3    H165996   2.854   2.056   2.813
14835TIP3    H265997   2.977   2.069   2.727
14836TIP3   OH265998   3.435   1.927   2.795
14836TIP3    H165999   3.497   1.985   2.744
14836TIP3    H266000   3.347   1.962   2.771
14837TIP3   OH266001   3.603   2.049   2.624
14837TIP3    H166002   3.671   1.993   2.579
14837TIP3    H266003   3.651   2.134   2.632
14838TIP3   OH266004   2.157   1.984   2.570
14838TIP3    H166005   2.078   1.962   2.518
14838TIP3    H266006   2.206   1.899   2.566
14839TIP3   OH266007   2.036   1.960   2.145
14839TIP3    H166008   2.084   2.024   2.090
14839TIP3    H266009   1.977   2.017   2.197
14840TIP3   OH266010   2.608   1.976   2.549
14840TIP3    H166011   2.698   2.013   2.544
14840TIP3    H266012   2.601   1.955   2.642
14841TIP3   OH266013   3.174   1.978   2.714
14841TIP3    H166014   3.173   1.988   2.618
14841TIP3    H266015   3.139   1.887   2.726
14842TIP3   OH266016   3.304   1.982   2.282
14842TIP3    H166017   3.230   2.042   2.264
14842TIP3    H266018   3.259   1.896   2.301
14843TIP3   OH266019   2.028   3.555   2.243
14843TIP3    H166020   1.960   3.554   2.173
14843TIP3    H266021   2.027   3.649   2.264
14844TIP3   OH266022   2.220   2.154   1.994
14844TIP3    H166023   2.272   2.091   1.941
14844TIP3    H266024   2.286   2.185   2.058
14845TIP3   OH266025   2.723   2.179   2.235
14845TIP3    H166026   2.746   2.120   2.309
14845TIP3    H266027   2.725   2.265   2.283
14846TIP3   OH266028   2.914   3.683   2.080
14846TIP3    H166029   3.004   3.710   2.058
14846TIP3    H266030   2.892   3.634   1.998
14847TIP3   OH266031   3.585   3.635   2.350
14847TIP3    H166032   3.565   3.558   2.292
14847TIP3    H266033   3.578   3.710   2.287
14848TIP3   OH266034   2.147   2.035   3.516
14848TIP3    H166035   2.112   1.958   3.563
14848TIP3    H266036   2.239   2.036   3.552
14849TIP3   OH266037   2.348   1.975   3.678
14849TIP3    H166038   2.438   1.942   3.657
14849TIP3    H266039   2.311   1.895   3.721
14850TIP3   OH266040   2.207   3.652   1.940
14850TIP3    H166041   2.182   3.678   2.030
14850TIP3    H266042   2.286   3.595   1.956
14851TIP3   OH266043   3.188   1.905   3.694
14851TIP3    H166044   3.198   1.858   3.779
14851TIP3    H266045   3.279   1.902   3.660
14852TIP3   OH266046   3.508   3.509   3.562
14852TIP3    H166047   3.428   3.494   3.507
14852TIP3    H266048   3.498   3.604   3.580
14853TIP3   OH266049   4.952   2.897   2.559
14853TIP3    H166050   4.953   2.995   2.552
14853TIP3    H266051   4.881   2.873   2.497
14854TIP3   OH266052   4.839   2.824   2.907
14854TIP3    H166053   4.837   2.758   2.978
14854TIP3    H266054   4.806   2.774   2.831
14855TIP3   OH266055   4.079   2.782   3.059
14855TIP3    H166056   4.083   2.723   3.136
14855TIP3    H266057   4.144   2.850   3.084
14856TIP3   OH266058   5.209   3.118   2.735
14856TIP3    H166059   5.166   3.046   2.783
14856TIP3    H266060   5.210   3.189   2.802
14857TIP3   OH266061   4.180   3.244   2.894
14857TIP3    H166062   4.133   3.157   2.889
14857TIP3    H266063   4.267   3.213   2.922
14858TIP3   OH266064   3.832   2.592   2.461
14858TIP3    H166065   3.787   2.679   2.455
14858TIP3    H266066   3.774   2.538   2.405
14859TIP3   OH266067   3.900   2.812   2.671
14859TIP3    H166068   3.927   2.734   2.723
14859TIP3    H266069   3.974   2.824   2.611
14860TIP3   OH266070   4.920   3.633   2.759
14860TIP3    H166071   4.984   3.563   2.731
14860TIP3    H266072   4.900   3.602   2.847
14861TIP3   OH266073   4.676   3.065   2.952
14861TIP3    H166074   4.710   3.000   2.888
14861TIP3    H266075   4.756   3.079   3.007
14862TIP3   OH266076   5.542   2.228   3.028
14862TIP3    H166077   5.553   2.288   3.105
14862TIP3    H266078   5.593   2.274   2.960
14863TIP3   OH266079   4.993   2.510   2.984
14863TIP3    H166080   5.009   2.413   2.985
14863TIP3    H266081   4.983   2.525   2.888
14864TIP3   OH266082   4.306   2.318   2.708
14864TIP3    H166083   4.314   2.403   2.661
14864TIP3    H266084   4.264   2.262   2.640
14865TIP3   OH266085   5.079   2.328   2.545
14865TIP3    H166086   5.145   2.296   2.611
14865TIP3    H266087   5.134   2.384   2.489
14866TIP3   OH266088   3.968   2.559   2.782
14866TIP3    H166089   4.035   2.504   2.826
14866TIP3    H266090   3.976   2.529   2.690
14867TIP3   OH266091   4.484   2.715   2.710
14867TIP3    H166092   4.549   2.657   2.753
14867TIP3    H266093   4.430   2.648   2.663
14868TIP3   OH266094   5.585   2.374   3.254
14868TIP3    H166095   5.517   2.444   3.245
14868TIP3    H266096   5.583   2.358   3.349
14869TIP3   OH266097   4.194   2.207   3.113
14869TIP3    H166098   4.168   2.264   3.037
14869TIP3    H266099   4.124   2.233   3.179
14870TIP3   OH266100   4.926   3.157   2.467
14870TIP3    H166101   4.897   3.128   2.379
14870TIP3    H266102   4.894   3.250   2.472
14871TIP3   OH266103   4.448   2.973   3.139
14871TIP3    H166104   4.374   3.036   3.155
14871TIP3    H266105   4.517   3.034   3.108
14872TIP3   OH266106   5.257   2.261   2.744
14872TIP3    H166107   5.237   2.184   2.799
14872TIP3    H266108   5.325   2.305   2.798
14873TIP3   OH266109   4.150   2.395   2.913
14873TIP3    H166110   4.214   2.463   2.946
14873TIP3    H266111   4.203   2.352   2.841
14874TIP3   OH266112   4.293   3.173   3.222
14874TIP3    H166113   4.285   3.262   3.182
14874TIP3    H266114   4.201   3.164   3.259
14875TIP3   OH266115   3.900   3.136   2.298
14875TIP3    H166116   3.874   3.166   2.209
14875TIP3    H266117   3.906   3.220   2.347
14876TIP3   OH266118   5.261   3.301   2.972
14876TIP3    H166119   5.165   3.311   2.985
14876TIP3    H266120   5.288   3.393   2.954
14877TIP3   OH266121   5.296   2.131   3.090
14877TIP3    H166122   5.223   2.191   3.108
14877TIP3    H266123   5.369   2.182   3.054
14878TIP3   OH266124   4.591   1.941   2.858
14878TIP3    H166125   4.578   1.845   2.852
14878TIP3    H266126   4.503   1.972   2.888
14879TIP3   OH266127   5.086   3.480   2.633
14879TIP3    H166128   5.130   3.408   2.582
14879TIP3    H266129   5.126   3.560   2.591
14880TIP3   OH266130   5.206   3.273   2.483
14880TIP3    H166131   5.178   3.202   2.423
14880TIP3    H266132   5.211   3.224   2.568
14881TIP3   OH266133   5.370   3.130   3.333
14881TIP3    H166134   5.385   3.067   3.259
14881TIP3    H266135   5.389   3.216   3.291
14882TIP3   OH266136   4.819   2.822   2.310
14882TIP3    H166137   4.749   2.878   2.273
14882TIP3    H266138   4.889   2.830   2.243
14883TIP3   OH266139   4.825   2.675   2.011
14883TIP3    H166140   4.896   2.674   2.077
14883TIP3    H266141   4.857   2.606   1.951
14884TIP3   OH266142   5.558   2.762   3.138
14884TIP3    H166143   5.491   2.834   3.143
14884TIP3    H266144   5.605   2.785   3.056
14885TIP3   OH266145   5.163   2.843   2.401
14885TIP3    H166146   5.088   2.867   2.461
14885TIP3    H266147   5.209   2.774   2.452
14886TIP3   OH266148   5.155   2.659   3.312
14886TIP3    H166149   5.157   2.740   3.366
14886TIP3    H266150   5.092   2.689   3.244
14887TIP3   OH266151   4.325   2.909   2.593
14887TIP3    H166152   4.292   2.869   2.509
14887TIP3    H266153   4.386   2.839   2.626
14888TIP3   OH266154   4.461   3.251   2.860
14888TIP3    H166155   4.453   3.193   2.783
14888TIP3    H266156   4.535   3.211   2.908
14889TIP3   OH266157   4.361   2.781   2.958
14889TIP3    H166158   4.415   2.796   2.878
14889TIP3    H266159   4.393   2.850   3.020
14890TIP3   OH266160   4.997   3.339   3.028
14890TIP3    H166161   4.969   3.402   3.095
14890TIP3    H266162   4.973   3.253   3.072
14891TIP3   OH266163   4.453   3.225   3.429
14891TIP3    H166164   4.414   3.301   3.476
14891TIP3    H266165   4.386   3.207   3.359
14892TIP3   OH266166   5.049   2.761   2.169
14892TIP3    H166167   5.106   2.778   2.248
14892TIP3    H266168   5.093   2.811   2.097
14893TIP3   OH266169   4.146   2.840   3.348
14893TIP3    H166170   4.149   2.909   3.418
14893TIP3    H266171   4.054   2.854   3.319
14894TIP3   OH266172   4.822   3.434   2.515
14894TIP3    H166173   4.866   3.465   2.595
14894TIP3    H266174   4.765   3.509   2.492
14895TIP3   OH266175   4.276   3.430   3.503
14895TIP3    H166176   4.273   3.419   3.407
14895TIP3    H266177   4.182   3.417   3.528
14896TIP3   OH266178   5.422   1.935   2.156
14896TIP3    H166179   5.328   1.948   2.182
14896TIP3    H266180   5.443   2.019   2.113
14897TIP3   OH266181   4.222   2.811   2.354
14897TIP3    H166182   4.193   2.890   2.303
14897TIP3    H266183   4.156   2.745   2.333
14898TIP3   OH266184   5.534   3.371   1.992
14898TIP3    H166185   5.549   3.465   2.009
14898TIP3    H266186   5.627   3.341   1.990
14899TIP3   OH266187   3.800   3.047   3.258
14899TIP3    H166188   3.792   3.049   3.160
14899TIP3    H266189   3.838   2.957   3.264
14900TIP3   OH266190   3.806   3.332   2.916
14900TIP3    H166191   3.901   3.310   2.923
14900TIP3    H266192   3.797   3.408   2.974
14901TIP3   OH266193   5.631   3.399   3.490
14901TIP3    H166194   5.621   3.302   3.487
14901TIP3    H266195   5.543   3.421   3.529
14902TIP3   OH266196   4.726   3.351   3.376
14902TIP3    H166197   4.733   3.436   3.427
14902TIP3    H266198   4.639   3.317   3.402
14903TIP3   OH266199   4.771   3.726   2.357
14903TIP3    H166200   4.759   3.717   2.261
14903TIP3    H266201   4.771   3.823   2.371
14904TIP3   OH266202   4.134   3.613   2.537
14904TIP3    H166203   4.148   3.572   2.625
14904TIP3    H266204   4.049   3.573   2.513
14905TIP3   OH266205   5.076   3.647   2.055
14905TIP3    H166206   5.119   3.570   2.011
14905TIP3    H266207   5.079   3.619   2.149
14906TIP3   OH266208   5.045   3.639   2.332
14906TIP3    H166209   4.950   3.647   2.350
14906TIP3    H266210   5.070   3.566   2.390
14907TIP3   OH266211   5.345   2.544   3.537
14907TIP3    H166212   5.299   2.589   3.465
14907TIP3    H266213   5.344   2.452   3.506
14908TIP3   OH266214   4.058   3.190   3.346
14908TIP3    H166215   4.081   3.144   3.428
14908TIP3    H266216   3.976   3.146   3.312
14909TIP3   OH266217   4.325   2.030   2.937
14909TIP3    H166218   4.236   2.021   2.895
14909TIP3    H266219   4.315   2.117   2.979
14910TIP3   OH266220   4.787   2.000   3.270
14910TIP3    H166221   4.832   1.960   3.347
14910TIP3    H266222   4.692   1.985   3.286
14911TIP3   OH266223   5.122   2.385   3.360
14911TIP3    H166224   5.065   2.362   3.438
14911TIP3    H266225   5.101   2.475   3.335
14912TIP3   OH266226   5.195   2.865   1.944
14912TIP3    H166227   5.197   2.844   1.847
14912TIP3    H266228   5.281   2.908   1.954
14913TIP3   OH266229   4.755   2.256   2.000
14913TIP3    H166230   4.725   2.251   2.093
14913TIP3    H266231   4.725   2.168   1.971
14914TIP3   OH266232   4.335   2.528   3.054
14914TIP3    H166233   4.263   2.526   3.120
14914TIP3    H266234   4.332   2.621   3.021
14915TIP3   OH266235   4.332   2.544   2.543
14915TIP3    H166236   4.239   2.516   2.531
14915TIP3    H266237   4.372   2.512   2.460
14916TIP3   OH266238   4.884   2.591   2.422
14916TIP3    H166239   4.844   2.673   2.387
14916TIP3    H266240   4.954   2.576   2.356
14917TIP3   OH266241   4.792   2.612   3.566
14917TIP3    H166242   4.737   2.535   3.598
14917TIP3    H266243   4.875   2.598   3.614
14918TIP3   OH266244   4.987   2.539   2.705
14918TIP3    H166245   4.961   2.596   2.630
14918TIP3    H266246   4.999   2.454   2.658
14919TIP3   OH266247   4.102   2.555   3.229
14919TIP3    H166248   4.104   2.599   3.316
14919TIP3    H266249   4.054   2.473   3.246
14920TIP3   OH266250   4.439   2.295   1.912
14920TIP3    H166251   4.394   2.252   1.987
14920TIP3    H266252   4.367   2.336   1.862
14921TIP3   OH266253   3.765   2.268   2.622
14921TIP3    H166254   3.832   2.264   2.693
14921TIP3    H266255   3.810   2.228   2.546
14922TIP3   OH266256   3.892   2.339   2.160
14922TIP3    H166257   3.941   2.401   2.103
14922TIP3    H266258   3.822   2.400   2.193
14923TIP3   OH266259   4.909   2.699   3.164
14923TIP3    H166260   4.945   2.632   3.103
14923TIP3    H266261   4.863   2.646   3.231
14924TIP3   OH266262   4.588   2.295   2.645
14924TIP3    H166263   4.495   2.297   2.675
14924TIP3    H266264   4.637   2.282   2.728
14925TIP3   OH266265   4.070   2.453   2.531
14925TIP3    H166266   3.981   2.466   2.493
14925TIP3    H266267   4.099   2.369   2.492
14926TIP3   OH266268   4.435   2.455   2.294
14926TIP3    H166269   4.530   2.467   2.312
14926TIP3    H266270   4.411   2.524   2.229
14927TIP3   OH266271   5.028   2.220   2.968
14927TIP3    H166272   4.962   2.225   3.040
14927TIP3    H266273   4.977   2.195   2.891
14928TIP3   OH266274   4.304   2.574   2.053
14928TIP3    H166275   4.250   2.536   1.981
14928TIP3    H266276   4.386   2.594   2.006
14929TIP3   OH266277   5.354   3.783   3.601
14929TIP3    H166278   5.375   3.824   3.516
14929TIP3    H266279   5.421   3.817   3.660
14930TIP3   OH266280   4.118   3.029   3.560
14930TIP3    H166281   4.189   3.056   3.619
14930TIP3    H266282   4.039   3.044   3.616
14931TIP3   OH266283   4.717   2.572   2.835
14931TIP3    H166284   4.776   2.517   2.781
14931TIP3    H266285   4.703   2.517   2.913
14932TIP3   OH266286   4.218   2.186   2.478
14932TIP3    H166287   4.188   2.094   2.475
14932TIP3    H266288   4.297   2.181   2.422
14933TIP3   OH266289   4.581   2.405   3.076
14933TIP3    H166290   4.498   2.456   3.086
14933TIP3    H266291   4.636   2.439   3.150
14934TIP3   OH266292   4.640   3.028   2.245
14934TIP3    H166293   4.560   2.980   2.212
14934TIP3    H266294   4.619   3.038   2.340
14935TIP3   OH266295   5.356   2.946   3.126
14935TIP3    H166296   5.414   2.993   3.065
14935TIP3    H266297   5.271   2.953   3.078
14936TIP3   OH266298   5.024   2.310   2.063
14936TIP3    H166299   4.929   2.324   2.050
14936TIP3    H266300   5.056   2.396   2.097
14937TIP3   OH266301   4.789   3.052   3.369
14937TIP3    H166302   4.754   3.011   3.449
14937TIP3    H266303   4.765   3.145   3.379
14938TIP3   OH266304   5.097   2.499   2.228
14938TIP3    H166305   5.186   2.486   2.265
14938TIP3    H266306   5.105   2.581   2.175
14939TIP3   OH266307   4.150   2.961   2.819
14939TIP3    H166308   4.223   2.958   2.757
14939TIP3    H266309   4.156   2.880   2.872
14940TIP3   OH266310   4.850   3.175   2.148
14940TIP3    H166311   4.816   3.259   2.185
14940TIP3    H266312   4.777   3.113   2.169
14941TIP3   OH266313   3.850   2.805   3.353
14941TIP3    H166314   3.869   2.762   3.438
14941TIP3    H266315   3.788   2.745   3.308
14942TIP3   OH266316   4.551   2.761   3.572
14942TIP3    H166317   4.520   2.736   3.484
14942TIP3    H266318   4.644   2.732   3.571
14943TIP3   OH266319   5.018   3.296   3.363
14943TIP3    H166320   4.925   3.314   3.340
14943TIP3    H266321   5.016   3.324   3.457
14944TIP3   OH266322   5.587   2.515   2.203
14944TIP3    H166323   5.530   2.484   2.130
14944TIP3    H266324   5.595   2.610   2.176
14945TIP3   OH266325   5.585   3.101   3.485
14945TIP3    H166326   5.496   3.123   3.448
14945TIP3    H266327   5.640   3.096   3.405
14946TIP3   OH266328   5.413   3.398   2.244
14946TIP3    H166329   5.379   3.314   2.278
14946TIP3    H266330   5.446   3.377   2.155
14947TIP3   OH266331   5.135   2.879   2.953
14947TIP3    H166332   5.041   2.857   2.944
14947TIP3    H266333   5.178   2.802   2.912
14948TIP3   OH266334   4.388   3.311   2.563
14948TIP3    H166335   4.438   3.392   2.543
14948TIP3    H266336   4.299   3.335   2.532
14949TIP3   OH266337   3.964   2.796   2.021
14949TIP3    H166338   4.023   2.862   2.061
14949TIP3    H266339   3.875   2.828   2.047
14950TIP3   OH266340   4.530   3.078   2.516
14950TIP3    H166341   4.500   3.171   2.525
14950TIP3    H266342   4.456   3.031   2.560
14951TIP3   OH266343   4.575   3.495   3.155
14951TIP3    H166344   4.618   3.578   3.128
14951TIP3    H266345   4.635   3.463   3.225
14952TIP3   OH266346   4.398   3.578   2.470
14952TIP3    H166347   4.301   3.592   2.481
14952TIP3    H266348   4.433   3.662   2.505
14953TIP3   OH266349   4.930   3.099   3.120
14953TIP3    H166350   4.893   3.078   3.208
14953TIP3    H266351   4.992   3.027   3.102
14954TIP3   OH266352   5.159   3.202   2.027
14954TIP3    H166353   5.189   3.157   2.109
14954TIP3    H266354   5.063   3.186   2.037
14955TIP3   OH266355   5.206   3.556   3.369
14955TIP3    H166356   5.140   3.505   3.319
14955TIP3    H266357   5.227   3.625   3.303
14956TIP3   OH266358   5.606   3.640   2.051
14956TIP3    H166359   5.677   3.705   2.034
14956TIP3    H266360   5.535   3.701   2.082
14957TIP3   OH266361   4.015   2.280   3.308
14957TIP3    H166362   3.924   2.316   3.303
14957TIP3    H266363   4.000   2.196   3.352
14958TIP3   OH266364   5.239   3.067   2.251
14958TIP3    H166365   5.215   2.989   2.306
14958TIP3    H266366   5.333   3.073   2.271
14959TIP3   OH266367   3.979   3.462   3.149
14959TIP3    H166368   4.001   3.366   3.148
14959TIP3    H266369   4.002   3.486   3.239
14960TIP3   OH266370   4.571   3.311   1.875
14960TIP3    H166371   4.585   3.233   1.818
14960TIP3    H266372   4.532   3.268   1.955
14961TIP3   OH266373   4.453   3.264   2.121
14961TIP3    H166374   4.476   3.212   2.199
14961TIP3    H266375   4.459   3.357   2.153
14962TIP3   OH266376   4.104   2.988   2.170
14962TIP3    H166377   4.034   3.027   2.226
14962TIP3    H266378   4.156   3.067   2.143
14963TIP3   OH266379   4.885   2.259   3.202
14963TIP3    H166380   4.960   2.260   3.263
14963TIP3    H266381   4.851   2.169   3.219
14964TIP3   OH266382   4.963   2.216   2.310
14964TIP3    H166383   4.986   2.264   2.228
14964TIP3    H266384   5.020   2.259   2.375
14965TIP3   OH266385   4.732   3.431   2.193
14965TIP3    H166386   4.650   3.484   2.199
14965TIP3    H266387   4.785   3.484   2.132
14966TIP3   OH266388   4.685   2.391   2.392
14966TIP3    H166389   4.765   2.447   2.397
14966TIP3    H266390   4.659   2.378   2.485
14967TIP3   OH266391   4.740   2.492   3.311
14967TIP3    H166392   4.749   2.549   3.390
14967TIP3    H266393   4.807   2.422   3.322
14968TIP3   OH266394   4.771   2.097   2.483
14968TIP3    H166395   4.738   2.162   2.548
14968TIP3    H266396   4.839   2.151   2.437
14969TIP3   OH266397   4.469   3.534   2.194
14969TIP3    H166398   4.481   3.617   2.140
14969TIP3    H266399   4.444   3.570   2.282
14970TIP3   OH266400   4.336   2.206   2.153
14970TIP3    H166401   4.331   2.297   2.190
14970TIP3    H266402   4.428   2.182   2.179
14971TIP3   OH266403   5.363   2.286   3.398
14971TIP3    H166404   5.266   2.305   3.385
14971TIP3    H266405   5.388   2.277   3.305
14972TIP3   OH266406   5.219   2.658   2.800
14972TIP3    H166407   5.137   2.614   2.770
14972TIP3    H266408   5.266   2.589   2.851
14973TIP3   OH266409   4.160   3.250   2.058
14973TIP3    H166410   4.225   3.316   2.088
14973TIP3    H266411   4.212   3.205   1.988
14974TIP3   OH266412   3.995   2.517   1.971
14974TIP3    H166413   3.994   2.613   1.991
14974TIP3    H266414   3.906   2.498   1.942
14975TIP3   OH266415   5.326   3.583   2.965
14975TIP3    H166416   5.315   3.652   2.897
14975TIP3    H266417   5.422   3.590   2.983
14976TIP3   OH266418   4.076   1.996   2.843
14976TIP3    H166419   4.055   1.999   2.747
14976TIP3    H266420   4.033   1.913   2.870
14977TIP3   OH266421   3.971   3.388   2.458
14977TIP3    H166422   3.886   3.435   2.456
14977TIP3    H266423   4.021   3.437   2.392
14978TIP3   OH266424   3.894   3.653   3.588
14978TIP3    H166425   3.953   3.631   3.663
14978TIP3    H266426   3.851   3.568   3.570
14979TIP3   OH266427   4.359   3.544   3.750
14979TIP3    H166428   4.435   3.496   3.783
14979TIP3    H266429   4.357   3.518   3.656
14980TIP3   OH266430   4.771   3.496   1.889
14980TIP3    H166431   4.704   3.430   1.915
14980TIP3    H266432   4.844   3.438   1.865
14981TIP3   OH266433   5.012   3.383   3.623
14981TIP3    H166434   4.980   3.294   3.650
14981TIP3    H266435   5.088   3.395   3.684
14982TIP3   OH266436   5.228   3.472   1.909
14982TIP3    H166437   5.258   3.394   1.958
14982TIP3    H266438   5.304   3.496   1.853
14983TIP3   OH266439   3.885   3.032   3.687
14983TIP3    H166440   3.901   2.940   3.656
14983TIP3    H266441   3.810   3.058   3.632
14984TIP3   OH266442   4.319   3.066   1.892
14984TIP3    H166443   4.331   2.988   1.949
14984TIP3    H266444   4.391   3.053   1.828
14985TIP3   OH266445   4.555   3.029   3.627
14985TIP3    H166446   4.521   3.059   3.540
14985TIP3    H266447   4.565   2.932   3.617
14986TIP3   OH266448   4.860   3.175   1.868
14986TIP3    H166449   4.833   3.185   1.961
14986TIP3    H266450   4.840   3.079   1.855
14987TIP3   OH266451   5.125   3.016   3.365
14987TIP3    H166452   5.203   3.076   3.357
14987TIP3    H266453   5.054   3.081   3.370
14988TIP3   OH266454   3.974   2.753   3.626
14988TIP3    H166455   4.015   2.667   3.616
14988TIP3    H266456   3.949   2.753   3.720
14989TIP3   OH266457   4.438   2.866   2.131
14989TIP3    H166458   4.390   2.813   2.196
14989TIP3    H266459   4.466   2.798   2.065
14990TIP3   OH266460   4.366   2.649   3.362
14990TIP3    H166461   4.305   2.720   3.388
14990TIP3    H266462   4.403   2.685   3.280
14991TIP3   OH266463   4.545   2.688   1.953
14991TIP3    H166464   4.529   2.677   1.857
14991TIP3    H266465   4.643   2.696   1.959
14992TIP3   OH266466   4.871   2.903   3.694
14992TIP3    H166467   4.967   2.905   3.685
14992TIP3    H266468   4.854   2.828   3.752
14993TIP3   OH266469   5.481   2.922   1.896
14993TIP3    H166470   5.458   2.882   1.811
14993TIP3    H266471   5.488   3.018   1.875
14994TIP3   OH266472   4.403   2.385   3.469
14994TIP3    H166473   4.418   2.315   3.403
14994TIP3    H266474   4.401   2.467   3.414
14995TIP3   OH266475   4.444   2.222   3.223
14995TIP3    H166476   4.497   2.270   3.154
14995TIP3    H266477   4.356   2.217   3.179
14996TIP3   OH266478   4.600   2.771   3.247
14996TIP3    H166479   4.675   2.755   3.189
14996TIP3    H266480   4.565   2.855   3.215
14997TIP3   OH266481   5.040   2.549   3.745
14997TIP3    H166482   5.063   2.455   3.734
14997TIP3    H266483   5.127   2.592   3.746
14998TIP3   OH266484   5.172   2.828   3.559
14998TIP3    H166485   5.147   2.900   3.497
14998TIP3    H266486   5.268   2.824   3.540
14999TIP3   OH266487   4.251   2.509   3.661
14999TIP3    H166488   4.173   2.454   3.642
14999TIP3    H266489   4.317   2.475   3.599
15000TIP3   OH266490   4.519   1.968   3.268
15000TIP3    H166491   4.511   2.065   3.250
15000TIP3    H266492   4.451   1.932   3.209
15001TIP3   OH266493   4.651   2.400   3.623
15001TIP3    H166494   4.622   2.378   3.713
15001TIP3    H266495   4.572   2.382   3.570
15002TIP3   OH266496   4.923   2.318   3.533
15002TIP3    H166497   4.826   2.318   3.542
15002TIP3    H266498   4.952   2.250   3.595
15003TIP3   OH266499   5.083   2.178   3.726
15003TIP3    H166500   5.076   2.080   3.724
15003TIP3    H266501   5.054   2.206   3.815
15004TIP3   OH266502   4.062   2.302   3.634
15004TIP3    H166503   4.085   2.231   3.574
15004TIP3    H266504   4.052   2.259   3.721
15005TIP3   OH266505   4.540   1.903   3.530
15005TIP3    H166506   4.614   1.837   3.531
15005TIP3    H266507   4.540   1.923   3.435
15006TIP3   OH266508   4.580   2.067   3.741
15006TIP3    H166509   4.567   2.019   3.656
15006TIP3    H266510   4.522   2.145   3.732
15007TIP3   OH266511   4.531   3.756   2.058
15007TIP3    H166512   4.627   3.770   2.067
15007TIP3    H266513   4.512   3.822   1.989
15008TIP3   OH266514   3.886   3.218   2.006
15008TIP3    H166515   3.983   3.227   2.027
15008TIP3    H266516   3.891   3.152   1.933
15009TIP3   OH266517   3.761   3.757   2.505
15009TIP3    H166518   3.691   3.708   2.457
15009TIP3    H266519   3.791   3.691   2.570
15010TIP3   OH266520   3.844   3.568   2.691
15010TIP3    H166521   3.809   3.480   2.711
15010TIP3    H266522   3.867   3.600   2.780
15011TIP3   OH266523   5.598   3.648   2.984
15011TIP3    H166524   5.599   3.664   3.080
15011TIP3    H266525   5.669   3.706   2.954
15012TIP3   OH266526   5.557   3.608   3.281
15012TIP3    H166527   5.508   3.532   3.242
15012TIP3    H266528   5.607   3.561   3.349
15013TIP3   OH266529   5.400   3.181   3.745
15013TIP3    H166530   5.311   3.176   3.783
15013TIP3    H266531   5.438   3.260   3.788
15014TIP3   OH266532   5.529   3.013   2.291
15014TIP3    H166533   5.618   3.051   2.308
15014TIP3    H266534   5.531   2.939   2.357
15015TIP3   OH266535   5.567   2.819   2.478
15015TIP3    H166536   5.494   2.768   2.519
15015TIP3    H266537   5.630   2.835   2.551
15016TIP3   OH266538   5.544   3.091   2.976
15016TIP3    H166539   5.626   3.054   2.940
15016TIP3    H266540   5.558   3.187   2.960
15017TIP3   OH266541   5.398   3.381   3.204
15017TIP3    H166542   5.329   3.414   3.264
15017TIP3    H266543   5.343   3.339   3.134
15018TIP3   OH266544   5.596   2.802   2.117
15018TIP3    H166545   5.543   2.840   2.045
15018TIP3    H266546   5.592   2.873   2.184
15019TIP3   OH266547   5.434   2.527   1.970
15019TIP3    H166548   5.442   2.594   1.901
15019TIP3    H266549   5.417   2.444   1.920
15020TIP3   OH266550   5.349   2.668   2.534
15020TIP3    H166551   5.334   2.572   2.532
15020TIP3    H266552   5.315   2.692   2.622
15021TIP3   OH266553   3.847   2.863   2.938
15021TIP3    H166554   3.871   2.870   2.843
15021TIP3    H266555   3.937   2.867   2.977
15022TIP3   OH266556   5.435   2.865   3.502
15022TIP3    H166557   5.496   2.789   3.517
15022TIP3    H266558   5.494   2.942   3.504
15023TIP3   OH266559   5.585   2.654   3.568
15023TIP3    H166560   5.497   2.614   3.552
15023TIP3    H266561   5.643   2.577   3.560
15024TIP3   OH266562   5.359   2.272   1.883
15024TIP3    H166563   5.418   2.230   1.947
15024TIP3    H266564   5.273   2.229   1.900
15025TIP3   OH266565   5.316   2.426   2.378
15025TIP3    H166566   5.347   2.334   2.393
15025TIP3    H266567   5.397   2.467   2.345
15026TIP3   OH266568   5.380   2.481   2.925
15026TIP3    H166569   5.476   2.504   2.923
15026TIP3    H266570   5.360   2.494   3.019
15027TIP3   OH266571   5.387   2.554   3.203
15027TIP3    H166572   5.299   2.582   3.236
15027TIP3    H266573   5.430   2.640   3.181
15028TIP3   OH266574   3.810   2.406   3.554
15028TIP3    H166575   3.904   2.389   3.575
15028TIP3    H266576   3.766   2.325   3.586
15029TIP3   OH266577   5.613   1.958   3.738
15029TIP3    H166578   5.648   1.892   3.675
15029TIP3    H266579   5.624   2.040   3.686
15030TIP3   OH266580   5.383   2.154   2.385
15030TIP3    H166581   5.403   2.109   2.470
15030TIP3    H266582   5.322   2.092   2.340
15031TIP3   OH266583   3.932   2.235   2.840
15031TIP3    H166584   3.978   2.153   2.868
15031TIP3    H266585   3.984   2.305   2.881
15032TIP3   OH266586   3.761   2.535   2.946
15032TIP3    H166587   3.816   2.512   2.868
15032TIP3    H266588   3.805   2.618   2.972
15033TIP3   OH266589   5.567   2.168   3.574
15033TIP3    H166590   5.472   2.194   3.566
15033TIP3    H266591   5.570   2.114   3.493
15034TIP3   OH266592   5.566   2.158   2.041
15034TIP3    H166593   5.608   2.087   1.988
15034TIP3    H266594   5.636   2.225   2.045
15035TIP3   OH266595   3.797   2.162   2.352
15035TIP3    H166596   3.703   2.180   2.337
15035TIP3    H266597   3.840   2.210   2.280
15036TIP3   OH266598   5.271   3.656   2.547
15036TIP3    H166599   5.339   3.625   2.485
15036TIP3    H266600   5.323   3.706   2.611
15037TIP3   OH266601   3.794   2.029   3.184
15037TIP3    H166602   3.724   2.008   3.249
15037TIP3    H266603   3.747   2.095   3.128
15038TIP3   OH266604   4.015   3.349   3.600
15038TIP3    H166605   3.931   3.368   3.553
15038TIP3    H266606   3.987   3.341   3.691
15039TIP3   OH266607   4.306   3.448   3.228
15039TIP3    H166608   4.268   3.531   3.197
15039TIP3    H266609   4.398   3.457   3.194
15040TIP3   OH266610   4.737   3.589   3.517
15040TIP3    H166611   4.753   3.554   3.608
15040TIP3    H266612   4.827   3.620   3.491
15041TIP3   OH266613   4.967   3.716   3.446
15041TIP3    H166614   5.040   3.656   3.423
15041TIP3    H266615   5.005   3.759   3.527
15042TIP3   OH266616   5.470   1.979   3.356
15042TIP3    H166617   5.382   2.008   3.320
15042TIP3    H266618   5.483   1.897   3.303
15043TIP3   OH266619   4.048   3.772   3.227
15043TIP3    H166620   3.974   3.819   3.185
15043TIP3    H266621   4.015   3.751   3.315
15044TIP3   OH266622   4.296   3.730   3.134
15044TIP3    H166623   4.206   3.742   3.173
15044TIP3    H266624   4.288   3.788   3.055
15045TIP3   OH266625   4.765   3.721   3.050
15045TIP3    H166626   4.719   3.775   2.985
15045TIP3    H266627   4.780   3.784   3.124
15046TIP3   OH266628   4.996   3.604   3.149
15046TIP3    H166629   4.908   3.629   3.117
15046TIP3    H266630   5.041   3.690   3.141
15047TIP3   OH266631   5.254   3.761   3.176
15047TIP3    H166632   5.244   3.856   3.152
15047TIP3    H266633   5.275   3.723   3.088
15048TIP3   OH266634   3.993   3.638   2.920
15048TIP3    H166635   3.985   3.590   3.006
15048TIP3    H266636   4.073   3.599   2.880
15049TIP3   OH266637   4.201   3.508   2.784
15049TIP3    H166638   4.183   3.414   2.807
15049TIP3    H266639   4.286   3.521   2.832
15050TIP3   OH266640   4.460   3.556   2.872
15050TIP3    H166641   4.477   3.464   2.845
15050TIP3    H266642   4.465   3.549   2.968
15051TIP3   OH266643   4.807   2.121   2.787
15051TIP3    H166644   4.739   2.056   2.813
15051TIP3    H266645   4.863   2.069   2.727
15052TIP3   OH266646   5.321   1.925   2.793
15052TIP3    H166647   5.382   1.986   2.744
15052TIP3    H266648   5.233   1.962   2.772
15053TIP3   OH266649   5.489   2.049   2.624
15053TIP3    H166650   5.557   1.993   2.579
15053TIP3    H266651   5.537   2.134   2.631
15054TIP3   OH266652   4.043   1.984   2.570
15054TIP3    H166653   3.964   1.962   2.518
15054TIP3    H266654   4.091   1.899   2.566
15055TIP3   OH266655   3.922   1.960   2.145
15055TIP3    H166656   3.969   2.024   2.090
15055TIP3    H266657   3.863   2.017   2.197
15056TIP3   OH266658   4.493   1.976   2.550
15056TIP3    H166659   4.583   2.013   2.544
15056TIP3    H266660   4.487   1.955   2.643
15057TIP3   OH266661   5.059   1.978   2.714
15057TIP3    H166662   5.059   1.988   2.618
15057TIP3    H266663   5.024   1.887   2.726
15058TIP3   OH266664   5.190   1.982   2.282
15058TIP3    H166665   5.116   2.042   2.264
15058TIP3    H266666   5.145   1.896   2.301
15059TIP3   OH266667   3.913   3.555   2.243
15059TIP3    H166668   3.845   3.554   2.174
15059TIP3    H266669   3.913   3.650   2.264
15060TIP3   OH266670   4.105   2.154   1.994
15060TIP3    H166671   4.158   2.091   1.941
15060TIP3    H266672   4.172   2.185   2.058
15061TIP3   OH266673   4.608   2.179   2.235
15061TIP3    H166674   4.631   2.120   2.309
15061TIP3    H266675   4.611   2.265   2.283
15062TIP3   OH266676   4.799   3.683   2.080
15062TIP3    H166677   4.890   3.711   2.058
15062TIP3    H266678   4.777   3.634   1.998
15063TIP3   OH266679   5.471   3.635   2.350
15063TIP3    H166680   5.451   3.558   2.292
15063TIP3    H266681   5.464   3.710   2.287
15064TIP3   OH266682   4.035   2.033   3.514
15064TIP3    H166683   3.991   1.959   3.562
15064TIP3    H266684   4.118   2.043   3.565
15065TIP3   OH266685   4.234   1.972   3.676
15065TIP3    H166686   4.326   1.941   3.668
15065TIP3    H266687   4.195   1.896   3.726
15066TIP3   OH266688   4.092   3.649   1.940
15066TIP3    H166689   4.068   3.680   2.029
15066TIP3    H266690   4.172   3.596   1.956
15067TIP3   OH266691   5.073   1.905   3.696
15067TIP3    H166692   5.085   1.858   3.780
15067TIP3    H266693   5.163   1.904   3.657
15068TIP3   OH266694   5.395   3.510   3.559
15068TIP3    H166695   5.314   3.494   3.506
15068TIP3    H266696   5.382   3.604   3.582
15069TIP3   OH266697   6.837   2.897   2.559
15069TIP3    H166698   6.840   2.995   2.552
15069TIP3    H266699   6.767   2.873   2.497
15070TIP3   OH266700   6.725   2.824   2.907
15070TIP3    H166701   6.722   2.758   2.978
15070TIP3    H266702   6.692   2.774   2.831
15071TIP3   OH266703   5.961   2.789   3.062
15071TIP3    H166704   5.968   2.722   3.134
15071TIP3    H266705   6.034   2.848   3.084
15072TIP3   OH266706   7.094   3.117   2.736
15072TIP3    H166707   7.052   3.045   2.785
15072TIP3    H266708   7.098   3.187   2.803
15073TIP3   OH266709   6.053   3.234   2.917
15073TIP3    H166710   6.021   3.150   2.880
15073TIP3    H266711   6.148   3.215   2.919
15074TIP3   OH266712   5.716   2.591   2.463
15074TIP3    H166713   5.675   2.680   2.455
15074TIP3    H266714   5.660   2.539   2.404
15075TIP3   OH266715   5.786   2.813   2.677
15075TIP3    H166716   5.815   2.732   2.721
15075TIP3    H266717   5.856   2.827   2.608
15076TIP3   OH266718   6.807   3.633   2.758
15076TIP3    H166719   6.871   3.562   2.731
15076TIP3    H266720   6.786   3.602   2.846
15077TIP3   OH266721   6.562   3.065   2.952
15077TIP3    H166722   6.596   3.000   2.888
15077TIP3    H266723   6.641   3.079   3.006
15078TIP3   OH266724   6.878   2.510   2.984
15078TIP3    H166725   6.895   2.414   2.983
15078TIP3    H266726   6.868   2.525   2.887
15079TIP3   OH266727   6.191   2.318   2.708
15079TIP3    H166728   6.200   2.403   2.660
15079TIP3    H266729   6.149   2.261   2.640
15080TIP3   OH266730   6.965   2.330   2.546
15080TIP3    H166731   7.031   2.296   2.611
15080TIP3    H266732   7.020   2.383   2.488
15081TIP3   OH266733   5.852   2.557   2.783
15081TIP3    H166734   5.921   2.503   2.826
15081TIP3    H266735   5.862   2.530   2.690
15082TIP3   OH266736   6.371   2.714   2.710
15082TIP3    H166737   6.436   2.656   2.753
15082TIP3    H266738   6.315   2.649   2.662
15083TIP3   OH266739   6.080   2.208   3.112
15083TIP3    H166740   6.053   2.265   3.037
15083TIP3    H266741   6.011   2.232   3.179
15084TIP3   OH266742   6.810   3.157   2.467
15084TIP3    H166743   6.783   3.128   2.379
15084TIP3    H266744   6.779   3.250   2.472
15085TIP3   OH266745   6.333   2.973   3.138
15085TIP3    H166746   6.261   3.037   3.156
15085TIP3    H266747   6.403   3.033   3.108
15086TIP3   OH266748   7.129   2.260   2.750
15086TIP3    H166749   7.121   2.180   2.801
15086TIP3    H266750   7.203   2.306   2.795
15087TIP3   OH266751   6.036   2.395   2.913
15087TIP3    H166752   6.099   2.463   2.946
15087TIP3    H266753   6.089   2.352   2.841
15088TIP3   OH266754   6.176   3.172   3.218
15088TIP3    H166755   6.172   3.263   3.183
15088TIP3    H266756   6.088   3.165   3.263
15089TIP3   OH266757   5.776   3.142   2.295
15089TIP3    H166758   5.760   3.169   2.205
15089TIP3    H266759   5.793   3.222   2.347
15090TIP3   OH266760   7.139   3.298   2.977
15090TIP3    H166761   7.044   3.311   2.986
15090TIP3    H266762   7.172   3.388   2.955
15091TIP3   OH266763   7.170   2.137   3.102
15091TIP3    H166764   7.097   2.200   3.104
15091TIP3    H266765   7.241   2.182   3.056
15092TIP3   OH266766   6.477   1.941   2.858
15092TIP3    H166767   6.464   1.845   2.852
15092TIP3    H266768   6.389   1.972   2.888
15093TIP3   OH266769   6.969   3.477   2.633
15093TIP3    H166770   7.016   3.408   2.582
15093TIP3    H266771   7.011   3.557   2.593
15094TIP3   OH266772   7.091   3.271   2.481
15094TIP3    H166773   7.063   3.199   2.422
15094TIP3    H266774   7.097   3.223   2.567
15095TIP3   OH266775   7.236   3.139   3.339
15095TIP3    H166776   7.267   3.073   3.273
15095TIP3    H266777   7.275   3.219   3.297
15096TIP3   OH266778   6.705   2.822   2.310
15096TIP3    H166779   6.635   2.878   2.273
15096TIP3    H266780   6.775   2.830   2.243
15097TIP3   OH266781   6.711   2.675   2.011
15097TIP3    H166782   6.782   2.674   2.077
15097TIP3    H266783   6.743   2.606   1.951
15098TIP3   OH266784   7.048   2.844   2.400
15098TIP3    H166785   6.974   2.868   2.462
15098TIP3    H266786   7.094   2.775   2.453
15099TIP3   OH266787   7.037   2.657   3.312
15099TIP3    H166788   7.042   2.738   3.365
15099TIP3    H266789   6.977   2.690   3.242
15100TIP3   OH266790   6.215   2.909   2.593
15100TIP3    H166791   6.174   2.872   2.512
15100TIP3    H266792   6.272   2.836   2.626
15101TIP3   OH266793   6.343   3.248   2.860
15101TIP3    H166794   6.339   3.193   2.781
15101TIP3    H266795   6.421   3.211   2.907
15102TIP3   OH266796   6.244   2.783   2.957
15102TIP3    H166797   6.300   2.795   2.878
15102TIP3    H266798   6.281   2.849   3.020
15103TIP3   OH266799   6.880   3.339   3.028
15103TIP3    H166800   6.856   3.402   3.096
15103TIP3    H266801   6.859   3.253   3.072
15104TIP3   OH266802   6.338   3.225   3.428
15104TIP3    H166803   6.300   3.301   3.476
15104TIP3    H266804   6.270   3.207   3.358
15105TIP3   OH266805   6.936   2.760   2.168
15105TIP3    H166806   6.991   2.779   2.248
15105TIP3    H266807   6.978   2.810   2.095
15106TIP3   OH266808   6.031   2.842   3.346
15106TIP3    H166809   6.036   2.909   3.417
15106TIP3    H266810   5.938   2.852   3.321
15107TIP3   OH266811   6.707   3.434   2.515
15107TIP3    H166812   6.751   3.464   2.595
15107TIP3    H266813   6.651   3.509   2.492
15108TIP3   OH266814   6.162   3.430   3.504
15108TIP3    H166815   6.158   3.419   3.407
15108TIP3    H266816   6.068   3.418   3.529
15109TIP3   OH266817   7.284   1.930   2.143
15109TIP3    H166818   7.199   1.954   2.186
15109TIP3    H266819   7.320   2.013   2.112
15110TIP3   OH266820   6.141   2.783   2.314
15110TIP3    H166821   6.099   2.874   2.309
15110TIP3    H266822   6.054   2.745   2.337
15111TIP3   OH266823   5.717   3.053   3.241
15111TIP3    H166824   5.671   3.046   3.155
15111TIP3    H266825   5.722   2.958   3.264
15112TIP3   OH266826   5.693   3.327   2.921
15112TIP3    H166827   5.788   3.315   2.920
15112TIP3    H266828   5.684   3.408   2.973
15113TIP3   OH266829   6.612   3.352   3.376
15113TIP3    H166830   6.619   3.436   3.427
15113TIP3    H266831   6.524   3.317   3.402
15114TIP3   OH266832   6.656   3.726   2.357
15114TIP3    H166833   6.645   3.717   2.261
15114TIP3    H266834   6.657   3.823   2.371
15115TIP3   OH266835   6.020   3.613   2.537
15115TIP3    H166836   6.034   3.572   2.626
15115TIP3    H266837   5.934   3.573   2.513
15116TIP3   OH266838   6.964   3.648   2.055
15116TIP3    H166839   7.004   3.569   2.010
15116TIP3    H266840   6.964   3.619   2.149
15117TIP3   OH266841   6.931   3.640   2.332
15117TIP3    H166842   6.835   3.647   2.350
15117TIP3    H266843   6.956   3.567   2.390
15118TIP3   OH266844   7.204   2.553   3.542
15118TIP3    H166845   7.184   2.593   3.458
15118TIP3    H266846   7.236   2.464   3.513
15119TIP3   OH266847   5.944   3.185   3.337
15119TIP3    H166848   5.967   3.148   3.425
15119TIP3    H266849   5.857   3.145   3.316
15120TIP3   OH266850   6.211   2.031   2.934
15120TIP3    H166851   6.121   2.020   2.896
15120TIP3    H266852   6.200   2.115   2.980
15121TIP3   OH266853   6.675   2.000   3.271
15121TIP3    H166854   6.715   1.958   3.349
15121TIP3    H266855   6.578   1.986   3.285
15122TIP3   OH266856   7.004   2.381   3.359
15122TIP3    H166857   6.951   2.363   3.439
15122TIP3    H266858   6.988   2.474   3.337
15123TIP3   OH266859   7.081   2.862   1.942
15123TIP3    H166860   7.083   2.842   1.846
15123TIP3    H266861   7.164   2.908   1.952
15124TIP3   OH266862   6.641   2.256   2.000
15124TIP3    H166863   6.610   2.251   2.093
15124TIP3    H266864   6.610   2.168   1.971
15125TIP3   OH266865   6.221   2.528   3.055
15125TIP3    H166866   6.149   2.526   3.120
15125TIP3    H266867   6.218   2.620   3.021
15126TIP3   OH266868   6.219   2.541   2.544
15126TIP3    H166869   6.125   2.517   2.530
15126TIP3    H266870   6.257   2.513   2.459
15127TIP3   OH266871   6.771   2.591   2.422
15127TIP3    H166872   6.730   2.673   2.387
15127TIP3    H266873   6.841   2.575   2.356
15128TIP3   OH266874   6.677   2.612   3.566
15128TIP3    H166875   6.624   2.535   3.598
15128TIP3    H266876   6.761   2.598   3.614
15129TIP3   OH266877   6.873   2.540   2.706
15129TIP3    H166878   6.848   2.596   2.630
15129TIP3    H266879   6.884   2.455   2.659
15130TIP3   OH266880   5.986   2.557   3.228
15130TIP3    H166881   5.990   2.597   3.317
15130TIP3    H266882   5.940   2.473   3.246
15131TIP3   OH266883   6.324   2.295   1.912
15131TIP3    H166884   6.279   2.252   1.987
15131TIP3    H266885   6.252   2.336   1.862
15132TIP3   OH266886   5.650   2.268   2.622
15132TIP3    H166887   5.717   2.264   2.694
15132TIP3    H266888   5.696   2.228   2.546
15133TIP3   OH266889   5.776   2.338   2.159
15133TIP3    H166890   5.827   2.401   2.104
15133TIP3    H266891   5.708   2.399   2.193
15134TIP3   OH266892   6.794   2.699   3.163
15134TIP3    H166893   6.831   2.632   3.103
15134TIP3    H266894   6.749   2.646   3.231
15135TIP3   OH266895   6.473   2.295   2.645
15135TIP3    H166896   6.380   2.297   2.675
15135TIP3    H266897   6.523   2.282   2.728
15136TIP3   OH266898   5.955   2.451   2.533
15136TIP3    H166899   5.867   2.468   2.493
15136TIP3    H266900   5.984   2.369   2.491
15137TIP3   OH266901   6.320   2.455   2.294
15137TIP3    H166902   6.415   2.468   2.311
15137TIP3    H266903   6.296   2.525   2.230
15138TIP3   OH266904   6.913   2.217   2.970
15138TIP3    H166905   6.845   2.226   3.040
15138TIP3    H266906   6.862   2.198   2.890
15139TIP3   OH266907   6.190   2.571   2.052
15139TIP3    H166908   6.136   2.536   1.980
15139TIP3    H266909   6.272   2.594   2.006
15140TIP3   OH266910   7.233   3.784   3.602
15140TIP3    H166911   7.263   3.822   3.518
15140TIP3    H266912   7.306   3.815   3.659
15141TIP3   OH266913   6.003   3.030   3.559
15141TIP3    H166914   6.075   3.056   3.619
15141TIP3    H266915   5.925   3.043   3.617
15142TIP3   OH266916   6.603   2.571   2.835
15142TIP3    H166917   6.663   2.517   2.781
15142TIP3    H266918   6.589   2.517   2.913
15143TIP3   OH266919   6.104   2.186   2.478
15143TIP3    H166920   6.073   2.094   2.475
15143TIP3    H266921   6.183   2.181   2.422
15144TIP3   OH266922   6.467   2.406   3.076
15144TIP3    H166923   6.384   2.456   3.086
15144TIP3    H266924   6.521   2.439   3.150
15145TIP3   OH266925   6.525   3.028   2.245
15145TIP3    H166926   6.445   2.980   2.213
15145TIP3    H266927   6.504   3.037   2.340
15146TIP3   OH266928   7.231   2.947   3.126
15146TIP3    H166929   7.295   2.978   3.059
15146TIP3    H266930   7.149   2.952   3.074
15147TIP3   OH266931   6.909   2.309   2.063
15147TIP3    H166932   6.813   2.323   2.049
15147TIP3    H266933   6.939   2.396   2.097
15148TIP3   OH266934   6.674   3.052   3.369
15148TIP3    H166935   6.640   3.011   3.450
15148TIP3    H266936   6.652   3.145   3.379
15149TIP3   OH266937   6.981   2.500   2.225
15149TIP3    H166938   7.069   2.487   2.265
15149TIP3    H266939   6.989   2.583   2.176
15150TIP3   OH266940   6.037   2.966   2.828
15150TIP3    H166941   6.104   2.959   2.756
15150TIP3    H266942   6.042   2.878   2.869
15151TIP3   OH266943   6.736   3.175   2.148
15151TIP3    H166944   6.702   3.259   2.185
15151TIP3    H266945   6.662   3.113   2.169
15152TIP3   OH266946   5.735   2.807   3.352
15152TIP3    H166947   5.754   2.763   3.437
15152TIP3    H266948   5.673   2.745   3.309
15153TIP3   OH266949   6.436   2.762   3.572
15153TIP3    H166950   6.406   2.735   3.484
15153TIP3    H266951   6.530   2.732   3.571
15154TIP3   OH266952   6.901   3.294   3.363
15154TIP3    H166953   6.809   3.314   3.340
15154TIP3    H266954   6.902   3.324   3.456
15155TIP3   OH266955   7.292   3.397   2.243
15155TIP3    H166956   7.262   3.314   2.279
15155TIP3    H266957   7.332   3.377   2.158
15156TIP3   OH266958   7.016   2.878   2.954
15156TIP3    H166959   6.922   2.855   2.943
15156TIP3    H266960   7.063   2.802   2.913
15157TIP3   OH266961   6.274   3.312   2.565
15157TIP3    H166962   6.324   3.392   2.542
15157TIP3    H266963   6.185   3.333   2.531
15158TIP3   OH266964   5.848   2.796   2.018
15158TIP3    H166965   5.908   2.861   2.062
15158TIP3    H266966   5.762   2.829   2.049
15159TIP3   OH266967   6.417   3.078   2.518
15159TIP3    H166968   6.385   3.170   2.525
15159TIP3    H266969   6.341   3.030   2.559
15160TIP3   OH266970   6.461   3.496   3.155
15160TIP3    H166971   6.505   3.578   3.128
15160TIP3    H266972   6.521   3.463   3.225
15161TIP3   OH266973   6.283   3.578   2.471
15161TIP3    H166974   6.187   3.592   2.481
15161TIP3    H266975   6.319   3.662   2.506
15162TIP3   OH266976   6.816   3.099   3.120
15162TIP3    H166977   6.779   3.078   3.208
15162TIP3    H266978   6.878   3.026   3.102
15163TIP3   OH266979   7.045   3.202   2.028
15163TIP3    H166980   7.074   3.157   2.110
15163TIP3    H266981   6.949   3.186   2.037
15164TIP3   OH266982   7.089   3.558   3.369
15164TIP3    H166983   7.025   3.504   3.318
15164TIP3    H266984   7.114   3.625   3.302
15165TIP3   OH266985   5.900   2.281   3.307
15165TIP3    H166986   5.809   2.315   3.304
15165TIP3    H266987   5.889   2.196   3.352
15166TIP3   OH266988   7.124   3.065   2.251
15166TIP3    H166989   7.100   2.987   2.307
15166TIP3    H266990   7.218   3.073   2.272
15167TIP3   OH266991   5.862   3.460   3.150
15167TIP3    H166992   5.889   3.367   3.150
15167TIP3    H266993   5.889   3.487   3.238
15168TIP3   OH266994   6.456   3.311   1.875
15168TIP3    H166995   6.470   3.233   1.818
15168TIP3    H266996   6.418   3.268   1.955
15169TIP3   OH266997   6.338   3.264   2.121
15169TIP3    H166998   6.360   3.212   2.199
15169TIP3    H266999   6.345   3.357   2.153
15170TIP3   OH267000   5.984   2.994   2.148
15170TIP3    H167001   5.927   3.019   2.226
15170TIP3    H267002   6.044   3.069   2.145
15171TIP3   OH267003   6.771   2.257   3.201
15171TIP3    H167004   6.844   2.263   3.264
15171TIP3    H267005   6.734   2.169   3.220
15172TIP3   OH267006   6.850   2.215   2.309
15172TIP3    H167007   6.873   2.264   2.228
15172TIP3    H267008   6.906   2.258   2.375
15173TIP3   OH267009   6.617   3.431   2.193
15173TIP3    H167010   6.535   3.484   2.199
15173TIP3    H267011   6.670   3.484   2.132
15174TIP3   OH267012   6.572   2.389   2.393
15174TIP3    H167013   6.651   2.447   2.397
15174TIP3    H267014   6.544   2.379   2.485
15175TIP3   OH267015   6.625   2.491   3.311
15175TIP3    H167016   6.635   2.549   3.389
15175TIP3    H267017   6.692   2.422   3.321
15176TIP3   OH267018   6.654   2.097   2.482
15176TIP3    H167019   6.625   2.162   2.548
15176TIP3    H267020   6.724   2.151   2.437
15177TIP3   OH267021   6.355   3.535   2.194
15177TIP3    H167022   6.367   3.617   2.140
15177TIP3    H267023   6.330   3.570   2.282
15178TIP3   OH267024   6.222   2.206   2.153
15178TIP3    H167025   6.217   2.297   2.190
15178TIP3    H267026   6.313   2.182   2.179
15179TIP3   OH267027   7.242   2.275   3.390
15179TIP3    H167028   7.150   2.311   3.383
15179TIP3    H267029   7.275   2.283   3.300
15180TIP3   OH267030   7.106   2.659   2.803
15180TIP3    H167031   7.024   2.616   2.770
15180TIP3    H267032   7.147   2.586   2.851
15181TIP3   OH267033   6.046   3.253   2.057
15181TIP3    H167034   6.112   3.315   2.089
15181TIP3    H267035   6.097   3.204   1.989
15182TIP3   OH267036   5.880   2.517   1.971
15182TIP3    H167037   5.880   2.613   1.992
15182TIP3    H267038   5.791   2.498   1.942
15183TIP3   OH267039   7.215   3.583   2.965
15183TIP3    H167040   7.199   3.653   2.899
15183TIP3    H267041   7.308   3.593   2.985
15184TIP3   OH267042   5.962   1.996   2.843
15184TIP3    H167043   5.940   1.999   2.747
15184TIP3    H267044   5.919   1.913   2.870
15185TIP3   OH267045   5.857   3.391   2.460
15185TIP3    H167046   5.771   3.434   2.455
15185TIP3    H267047   5.907   3.436   2.391
15186TIP3   OH267048   5.778   3.657   3.589
15186TIP3    H167049   5.838   3.630   3.663
15186TIP3    H267050   5.738   3.569   3.570
15187TIP3   OH267051   6.244   3.545   3.750
15187TIP3    H167052   6.321   3.495   3.783
15187TIP3    H267053   6.242   3.518   3.656
15188TIP3   OH267054   6.657   3.496   1.889
15188TIP3    H167055   6.589   3.430   1.915
15188TIP3    H267056   6.730   3.437   1.865
15189TIP3   OH267057   6.899   3.383   3.623
15189TIP3    H167058   6.867   3.294   3.650
15189TIP3    H267059   6.974   3.395   3.685
15190TIP3   OH267060   7.112   3.474   1.911
15190TIP3    H167061   7.141   3.394   1.957
15190TIP3    H267062   7.188   3.495   1.853
15191TIP3   OH267063   5.771   3.031   3.687
15191TIP3    H167064   5.787   2.940   3.656
15191TIP3    H267065   5.695   3.057   3.632
15192TIP3   OH267066   6.204   3.066   1.893
15192TIP3    H167067   6.216   2.988   1.950
15192TIP3    H267068   6.277   3.052   1.829
15193TIP3   OH267069   6.441   3.029   3.627
15193TIP3    H167070   6.407   3.059   3.540
15193TIP3    H267071   6.451   2.932   3.617
15194TIP3   OH267072   6.746   3.175   1.868
15194TIP3    H167073   6.718   3.185   1.961
15194TIP3    H267074   6.725   3.079   1.855
15195TIP3   OH267075   7.010   3.014   3.362
15195TIP3    H167076   7.087   3.076   3.356
15195TIP3    H267077   6.940   3.080   3.370
15196TIP3   OH267078   5.860   2.753   3.626
15196TIP3    H167079   5.901   2.667   3.616
15196TIP3    H267080   5.835   2.753   3.720
15197TIP3   OH267081   6.327   2.866   2.130
15197TIP3    H167082   6.274   2.815   2.196
15197TIP3    H267083   6.351   2.797   2.066
15198TIP3   OH267084   6.251   2.649   3.362
15198TIP3    H167085   6.191   2.720   3.389
15198TIP3    H267086   6.289   2.685   3.280
15199TIP3   OH267087   6.431   2.688   1.953
15199TIP3    H167088   6.415   2.677   1.857
15199TIP3    H267089   6.528   2.696   1.959
15200TIP3   OH267090   6.754   2.904   3.694
15200TIP3    H167091   6.851   2.906   3.685
15200TIP3    H267092   6.740   2.827   3.752
15201TIP3   OH267093   6.290   2.386   3.469
15201TIP3    H167094   6.302   2.314   3.405
15201TIP3    H267095   6.287   2.467   3.413
15202TIP3   OH267096   6.330   2.224   3.222
15202TIP3    H167097   6.382   2.270   3.152
15202TIP3    H267098   6.242   2.215   3.180
15203TIP3   OH267099   6.486   2.771   3.247
15203TIP3    H167100   6.561   2.755   3.189
15203TIP3    H267101   6.450   2.855   3.215
15204TIP3   OH267102   6.925   2.550   3.745
15204TIP3    H167103   6.949   2.457   3.734
15204TIP3    H267104   7.013   2.592   3.745
15205TIP3   OH267105   7.055   2.827   3.557
15205TIP3    H167106   7.033   2.901   3.497
15205TIP3    H267107   7.152   2.824   3.540
15206TIP3   OH267108   6.136   2.510   3.661
15206TIP3    H167109   6.059   2.453   3.642
15206TIP3    H267110   6.203   2.474   3.599
15207TIP3   OH267111   6.410   1.968   3.263
15207TIP3    H167112   6.394   2.065   3.252
15207TIP3    H267113   6.334   1.932   3.213
15208TIP3   OH267114   6.537   2.401   3.623
15208TIP3    H167115   6.507   2.378   3.713
15208TIP3    H267116   6.458   2.381   3.570
15209TIP3   OH267117   6.807   2.315   3.531
15209TIP3    H167118   6.711   2.319   3.543
15209TIP3    H267119   6.837   2.251   3.598
15210TIP3   OH267120   6.973   2.177   3.727
15210TIP3    H167121   6.960   2.080   3.727
15210TIP3    H267122   6.940   2.207   3.813
15211TIP3   OH267123   5.946   2.303   3.634
15211TIP3    H167124   5.971   2.230   3.574
15211TIP3    H267125   5.938   2.258   3.720
15212TIP3   OH267126   6.431   1.904   3.532
15212TIP3    H167127   6.501   1.836   3.529
15212TIP3    H267128   6.421   1.923   3.437
15213TIP3   OH267129   6.468   2.068   3.741
15213TIP3    H167130   6.451   2.018   3.657
15213TIP3    H267131   6.407   2.144   3.732
15214TIP3   OH267132   6.416   3.758   2.059
15214TIP3    H167133   6.512   3.770   2.067
15214TIP3    H267134   6.398   3.821   1.988
15215TIP3   OH267135   5.772   3.221   2.003
15215TIP3    H167136   5.868   3.226   2.028
15215TIP3    H267137   5.777   3.151   1.934
15216TIP3   OH267138   5.647   3.757   2.505
15216TIP3    H167139   5.576   3.709   2.457
15216TIP3    H267140   5.677   3.690   2.570
15217TIP3   OH267141   5.730   3.568   2.690
15217TIP3    H167142   5.695   3.480   2.710
15217TIP3    H267143   5.753   3.601   2.779
15218TIP3   OH267144   7.269   3.190   3.735
15218TIP3    H167145   7.192   3.175   3.789
15218TIP3    H267146   7.321   3.255   3.785
15219TIP3   OH267147   7.282   3.375   3.208
15219TIP3    H167148   7.215   3.416   3.265
15219TIP3    H267149   7.228   3.339   3.134
15220TIP3   OH267150   7.310   2.527   1.973
15220TIP3    H167151   7.324   2.592   1.902
15220TIP3    H267152   7.300   2.444   1.922
15221TIP3   OH267153   7.204   2.674   2.535
15221TIP3    H167154   7.217   2.578   2.538
15221TIP3    H267155   7.197   2.695   2.630
15222TIP3   OH267156   5.735   2.876   2.940
15222TIP3    H167157   5.755   2.868   2.843
15222TIP3    H267158   5.825   2.860   2.975
15223TIP3   OH267159  -0.031   2.869   3.529
15223TIP3    H167160   0.028   2.792   3.526
15223TIP3    H267161   0.028   2.941   3.501
15224TIP3   OH267162   7.245   2.273   1.883
15224TIP3    H167163   7.302   2.229   1.946
15224TIP3    H267164   7.160   2.229   1.900
15225TIP3   OH267165   7.201   2.424   2.371
15225TIP3    H167166   7.230   2.335   2.400
15225TIP3    H267167   7.281   2.463   2.339
15226TIP3   OH267168   7.228   2.433   2.916
15226TIP3    H167169   7.323   2.449   2.904
15226TIP3    H267170   7.231   2.482   3.000
15227TIP3   OH267171   7.270   2.554   3.210
15227TIP3    H167172   7.182   2.584   3.237
15227TIP3    H267173   7.312   2.635   3.177
15228TIP3   OH267174   5.697   2.406   3.554
15228TIP3    H167175   5.791   2.387   3.574
15228TIP3    H267176   5.652   2.325   3.585
15229TIP3   OH267177   7.191   2.135   2.436
15229TIP3    H167178   7.279   2.108   2.470
15229TIP3    H267179   7.196   2.087   2.351
15230TIP3   OH267180   5.819   2.235   2.838
15230TIP3    H167181   5.864   2.153   2.868
15230TIP3    H267182   5.870   2.305   2.881
15231TIP3   OH267183   5.646   2.534   2.945
15231TIP3    H167184   5.701   2.511   2.868
15231TIP3    H267185   5.690   2.616   2.972
15232TIP3   OH267186   5.683   2.162   2.352
15232TIP3    H167187   5.589   2.180   2.337
15232TIP3    H267188   5.726   2.210   2.280
15233TIP3   OH267189   7.145   3.645   2.553
15233TIP3    H167190   7.211   3.614   2.490
15233TIP3    H267191   7.200   3.702   2.609
15234TIP3   OH267192   5.679   2.029   3.183
15234TIP3    H167193   5.610   2.008   3.249
15234TIP3    H267194   5.631   2.095   3.128
15235TIP3   OH267195   5.900   3.348   3.599
15235TIP3    H167196   5.816   3.367   3.554
15235TIP3    H267197   5.873   3.341   3.691
15236TIP3   OH267198   6.191   3.448   3.227
15236TIP3    H167199   6.155   3.532   3.198
15236TIP3    H267200   6.283   3.457   3.195
15237TIP3   OH267201   6.623   3.589   3.518
15237TIP3    H167202   6.639   3.554   3.608
15237TIP3    H267203   6.712   3.620   3.491
15238TIP3   OH267204   6.855   3.717   3.446
15238TIP3    H167205   6.927   3.656   3.423
15238TIP3    H267206   6.891   3.759   3.527
15239TIP3   OH267207   5.934   3.774   3.228
15239TIP3    H167208   5.860   3.819   3.184
15239TIP3    H267209   5.900   3.748   3.315
15240TIP3   OH267210   6.181   3.730   3.133
15240TIP3    H167211   6.092   3.742   3.172
15240TIP3    H267212   6.174   3.788   3.055
15241TIP3   OH267213   6.651   3.721   3.050
15241TIP3    H167214   6.605   3.776   2.985
15241TIP3    H267215   6.665   3.784   3.124
15242TIP3   OH267216   6.883   3.604   3.149
15242TIP3    H167217   6.794   3.628   3.117
15242TIP3    H267218   6.926   3.690   3.142
15243TIP3   OH267219   7.138   3.764   3.176
15243TIP3    H167220   7.127   3.858   3.153
15243TIP3    H267221   7.162   3.724   3.090
15244TIP3   OH267222   5.877   3.636   2.920
15244TIP3    H167223   5.871   3.591   3.007
15244TIP3    H267224   5.959   3.600   2.880
15245TIP3   OH267225   6.086   3.507   2.785
15245TIP3    H167226   6.069   3.414   2.807
15245TIP3    H267227   6.172   3.521   2.831
15246TIP3   OH267228   6.343   3.556   2.872
15246TIP3    H167229   6.363   3.464   2.845
15246TIP3    H267230   6.351   3.550   2.968
15247TIP3   OH267231   6.693   2.121   2.787
15247TIP3    H167232   6.625   2.056   2.813
15247TIP3    H267233   6.749   2.069   2.727
15248TIP3   OH267234   7.208   1.926   2.797
15248TIP3    H167235   7.264   1.988   2.748
15248TIP3    H267236   7.119   1.961   2.773
15249TIP3   OH267237   5.929   1.984   2.570
15249TIP3    H167238   5.849   1.962   2.518
15249TIP3    H267239   5.977   1.899   2.566
15250TIP3   OH267240   5.808   1.960   2.145
15250TIP3    H167241   5.855   2.024   2.090
15250TIP3    H267242   5.748   2.017   2.197
15251TIP3   OH267243   6.379   1.976   2.549
15251TIP3    H167244   6.469   2.013   2.544
15251TIP3    H267245   6.372   1.955   2.642
15252TIP3   OH267246   6.948   1.977   2.713
15252TIP3    H167247   6.945   1.989   2.617
15252TIP3    H267248   6.910   1.887   2.726
15253TIP3   OH267249   7.070   1.977   2.276
15253TIP3    H167250   6.999   2.042   2.265
15253TIP3    H267251   7.026   1.894   2.302
15254TIP3   OH267252   5.799   3.555   2.244
15254TIP3    H167253   5.731   3.554   2.173
15254TIP3    H267254   5.798   3.650   2.264
15255TIP3   OH267255   5.991   2.154   1.994
15255TIP3    H167256   6.044   2.091   1.941
15255TIP3    H267257   6.057   2.185   2.058
15256TIP3   OH267258   6.494   2.179   2.235
15256TIP3    H167259   6.517   2.120   2.309
15256TIP3    H267260   6.497   2.265   2.283
15257TIP3   OH267261   6.685   3.683   2.080
15257TIP3    H167262   6.775   3.711   2.058
15257TIP3    H267263   6.663   3.634   1.998
15258TIP3   OH267264   5.919   2.037   3.517
15258TIP3    H167265   5.882   1.958   3.560
15258TIP3    H267266   6.011   2.035   3.552
15259TIP3   OH267267   6.119   1.974   3.678
15259TIP3    H167268   6.209   1.941   3.657
15259TIP3    H267269   6.081   1.895   3.720
15260TIP3   OH267270   5.979   3.652   1.940
15260TIP3    H167271   5.953   3.678   2.030
15260TIP3    H267272   6.057   3.595   1.956
15261TIP3   OH267273   6.959   1.906   3.693
15261TIP3    H167274   6.968   1.859   3.779
15261TIP3    H267275   7.050   1.902   3.658
15262TIP3   OH267276   7.272   3.505   3.568
15262TIP3    H167277   7.199   3.493   3.504
15262TIP3    H267278   7.267   3.603   3.581
15263TIP3   OH267279   1.180   4.783   2.559
15263TIP3    H167280   1.182   4.881   2.552
15263TIP3    H267281   1.110   4.759   2.497
15264TIP3   OH267282   1.068   4.710   2.907
15264TIP3    H167283   1.066   4.644   2.978
15264TIP3    H267284   1.035   4.660   2.831
15265TIP3   OH267285   0.306   4.674   3.061
15265TIP3    H167286   0.312   4.607   3.133
15265TIP3    H267287   0.378   4.734   3.085
15266TIP3   OH267288   1.438   5.003   2.735
15266TIP3    H167289   1.395   4.932   2.783
15266TIP3    H267290   1.438   5.075   2.802
15267TIP3   OH267291   0.395   5.119   2.918
15267TIP3    H167292   0.361   5.036   2.880
15267TIP3    H267293   0.491   5.100   2.920
15268TIP3   OH267294   0.079   4.480   2.439
15268TIP3    H167295   0.026   4.560   2.461
15268TIP3    H267296   0.007   4.425   2.415
15269TIP3   OH267297   0.128   4.695   2.671
15269TIP3    H167298   0.154   4.618   2.724
15269TIP3    H267299   0.202   4.708   2.611
15270TIP3   OH267300   1.149   5.518   2.759
15270TIP3    H167301   1.213   5.448   2.731
15270TIP3    H267302   1.129   5.488   2.847
15271TIP3   OH267303   0.905   4.950   2.951
15271TIP3    H167304   0.939   4.885   2.888
15271TIP3    H267305   0.984   4.964   3.006
15272TIP3   OH267306   1.768   4.113   3.029
15272TIP3    H167307   1.782   4.174   3.104
15272TIP3    H267308   1.821   4.158   2.961
15273TIP3   OH267309   1.222   4.396   2.984
15273TIP3    H167310   1.237   4.299   2.984
15273TIP3    H267311   1.212   4.411   2.888
15274TIP3   OH267312   0.536   4.203   2.708
15274TIP3    H167313   0.543   4.288   2.661
15274TIP3    H267314   0.493   4.147   2.640
15275TIP3   OH267315   1.307   4.213   2.545
15275TIP3    H167316   1.374   4.182   2.611
15275TIP3    H267317   1.363   4.269   2.488
15276TIP3   OH267318   0.199   4.443   2.775
15276TIP3    H167319   0.266   4.390   2.824
15276TIP3    H267320   0.208   4.411   2.686
15277TIP3   OH267321   0.713   4.600   2.710
15277TIP3    H167322   0.778   4.543   2.753
15277TIP3    H267323   0.659   4.534   2.663
15278TIP3   OH267324   1.811   4.257   3.255
15278TIP3    H167325   1.747   4.330   3.245
15278TIP3    H267326   1.814   4.245   3.350
15279TIP3   OH267327   0.423   4.094   3.112
15279TIP3    H167328   0.396   4.150   3.036
15279TIP3    H267329   0.354   4.117   3.179
15280TIP3   OH267330   1.154   5.043   2.467
15280TIP3    H167331   1.126   5.014   2.379
15280TIP3    H267332   1.122   5.136   2.472
15281TIP3   OH267333   0.677   4.859   3.138
15281TIP3    H167334   0.604   4.922   3.156
15281TIP3    H267335   0.747   4.919   3.108
15282TIP3   OH267336   1.487   4.147   2.744
15282TIP3    H167337   1.466   4.070   2.797
15282TIP3    H267338   1.554   4.191   2.798
15283TIP3   OH267339   0.378   4.278   2.913
15283TIP3    H167340   0.440   4.348   2.946
15283TIP3    H267341   0.433   4.238   2.841
15284TIP3   OH267342   0.519   5.058   3.218
15284TIP3    H167343   0.514   5.149   3.183
15284TIP3    H267344   0.430   5.050   3.261
15285TIP3   OH267345   0.146   5.021   2.277
15285TIP3    H167346   0.097   5.054   2.202
15285TIP3    H267347   0.131   5.092   2.346
15286TIP3   OH267348   1.490   5.187   2.972
15286TIP3    H167349   1.393   5.197   2.985
15286TIP3    H267350   1.517   5.279   2.954
15287TIP3   OH267351   1.522   4.016   3.112
15287TIP3    H167352   1.448   4.079   3.105
15287TIP3    H267353   1.592   4.058   3.059
15288TIP3   OH267354   0.820   3.827   2.858
15288TIP3    H167355   0.807   3.730   2.852
15288TIP3    H267356   0.732   3.858   2.888
15289TIP3   OH267357   1.315   5.365   2.633
15289TIP3    H167358   1.359   5.294   2.582
15289TIP3    H267359   1.354   5.445   2.591
15290TIP3   OH267360   1.435   5.158   2.483
15290TIP3    H167361   1.406   5.088   2.423
15290TIP3    H267362   1.439   5.110   2.568
15291TIP3   OH267363   1.599   5.016   3.333
15291TIP3    H167364   1.614   4.953   3.259
15291TIP3    H267365   1.618   5.102   3.291
15292TIP3   OH267366   1.048   4.707   2.310
15292TIP3    H167367   0.978   4.763   2.273
15292TIP3    H267368   1.118   4.716   2.243
15293TIP3   OH267369   1.054   4.560   2.011
15293TIP3    H167370   1.125   4.559   2.077
15293TIP3    H267371   1.086   4.492   1.951
15294TIP3   OH267372   1.786   4.647   3.138
15294TIP3    H167373   1.720   4.719   3.143
15294TIP3    H267374   1.834   4.671   3.056
15295TIP3   OH267375   1.392   4.729   2.401
15295TIP3    H167376   1.317   4.752   2.461
15295TIP3    H267377   1.437   4.659   2.452
15296TIP3   OH267378   1.384   4.544   3.312
15296TIP3    H167379   1.386   4.625   3.366
15296TIP3    H267380   1.321   4.575   3.244
15297TIP3   OH267381   0.555   4.795   2.593
15297TIP3    H167382   0.520   4.755   2.510
15297TIP3    H267383   0.614   4.724   2.626
15298TIP3   OH267384   0.687   5.134   2.861
15298TIP3    H167385   0.684   5.079   2.782
15298TIP3    H267386   0.764   5.097   2.907
15299TIP3   OH267387   0.588   4.669   2.958
15299TIP3    H167388   0.644   4.680   2.878
15299TIP3    H267389   0.624   4.735   3.020
15300TIP3   OH267390   1.226   5.225   3.028
15300TIP3    H167391   1.198   5.288   3.095
15300TIP3    H267392   1.202   5.139   3.072
15301TIP3   OH267393   0.681   5.110   3.428
15301TIP3    H167394   0.643   5.187   3.476
15301TIP3    H267395   0.613   5.092   3.358
15302TIP3   OH267396   1.278   4.647   2.169
15302TIP3    H167397   1.335   4.664   2.248
15302TIP3    H267398   1.322   4.696   2.097
15303TIP3   OH267399   0.376   4.728   3.349
15303TIP3    H167400   0.379   4.797   3.418
15303TIP3    H267401   0.283   4.738   3.320
15304TIP3   OH267402   1.050   5.320   2.515
15304TIP3    H167403   1.095   5.350   2.595
15304TIP3    H267404   0.994   5.395   2.492
15305TIP3   OH267405   0.506   5.315   3.503
15305TIP3    H167406   0.499   5.304   3.407
15305TIP3    H267407   0.412   5.304   3.530
15306TIP3   OH267408   1.651   3.820   2.156
15306TIP3    H167409   1.557   3.834   2.182
15306TIP3    H267410   1.672   3.905   2.113
15307TIP3   OH267411   0.452   4.697   2.354
15307TIP3    H167412   0.422   4.776   2.304
15307TIP3    H267413   0.385   4.632   2.333
15308TIP3   OH267414   1.763   5.256   1.992
15308TIP3    H167415   1.778   5.351   2.009
15308TIP3    H267416   1.856   5.227   1.990
15309TIP3   OH267417   0.098   4.930   3.221
15309TIP3    H167418   0.024   4.934   3.157
15309TIP3    H267419   0.070   4.846   3.263
15310TIP3   OH267420   0.046   5.222   2.913
15310TIP3    H167421   0.138   5.198   2.919
15310TIP3    H267422   0.031   5.291   2.976
15311TIP3   OH267423   1.859   5.283   3.490
15311TIP3    H167424   1.849   5.186   3.487
15311TIP3    H267425   1.772   5.307   3.529
15312TIP3   OH267426   0.955   5.237   3.376
15312TIP3    H167427   0.962   5.321   3.427
15312TIP3    H267428   0.868   5.202   3.402
15313TIP3   OH267429   0.999   5.612   2.357
15313TIP3    H167430   0.988   5.603   2.261
15313TIP3    H267431   0.999   5.708   2.371
15314TIP3   OH267432   0.366   5.508   2.539
15314TIP3    H167433   0.378   5.459   2.624
15314TIP3    H267434   0.285   5.457   2.511
15315TIP3   OH267435   1.305   5.532   2.055
15315TIP3    H167436   1.348   5.456   2.011
15315TIP3    H267437   1.308   5.505   2.149
15316TIP3   OH267438   1.274   5.525   2.332
15316TIP3    H167439   1.178   5.533   2.350
15316TIP3    H267440   1.299   5.452   2.390
15317TIP3   OH267441   1.573   4.430   3.538
15317TIP3    H167442   1.528   4.476   3.465
15317TIP3    H267443   1.574   4.338   3.507
15318TIP3   OH267444   0.288   5.073   3.338
15318TIP3    H167445   0.306   5.034   3.426
15318TIP3    H267446   0.202   5.032   3.314
15319TIP3   OH267447   0.555   3.917   2.934
15319TIP3    H167448   0.465   3.907   2.896
15319TIP3    H267449   0.544   4.001   2.981
15320TIP3   OH267450   1.019   3.886   3.271
15320TIP3    H167451   1.059   3.844   3.349
15320TIP3    H267452   0.922   3.872   3.285
15321TIP3   OH267453   1.349   4.267   3.359
15321TIP3    H167454   1.294   4.248   3.439
15321TIP3    H267455   1.331   4.360   3.335
15322TIP3   OH267456   1.424   4.751   1.944
15322TIP3    H167457   1.425   4.730   1.847
15322TIP3    H267458   1.510   4.793   1.954
15323TIP3   OH267459   0.984   4.141   2.000
15323TIP3    H167460   0.953   4.137   2.093
15323TIP3    H267461   0.953   4.053   1.971
15324TIP3   OH267462   0.564   4.413   3.054
15324TIP3    H167463   0.492   4.412   3.121
15324TIP3    H267464   0.560   4.506   3.022
15325TIP3   OH267465   0.561   4.430   2.543
15325TIP3    H167466   0.468   4.401   2.531
15325TIP3    H267467   0.601   4.397   2.460
15326TIP3   OH267468   1.113   4.476   2.422
15326TIP3    H167469   1.073   4.559   2.387
15326TIP3    H267470   1.183   4.461   2.356
15327TIP3   OH267471   1.021   4.497   3.566
15327TIP3    H167472   0.966   4.421   3.598
15327TIP3    H267473   1.104   4.484   3.614
15328TIP3   OH267474   1.216   4.424   2.705
15328TIP3    H167475   1.190   4.481   2.630
15328TIP3    H267476   1.228   4.340   2.658
15329TIP3   OH267477   0.332   4.441   3.229
15329TIP3    H167478   0.332   4.482   3.317
15329TIP3    H267479   0.283   4.359   3.245
15330TIP3   OH267480   0.667   4.181   1.912
15330TIP3    H167481   0.623   4.137   1.987
15330TIP3    H267482   0.596   4.221   1.862
15331TIP3   OH267483   0.012   4.168   2.612
15331TIP3    H167484   0.061   4.147   2.694
15331TIP3    H267485   0.044   4.108   2.545
15332TIP3   OH267486   0.119   4.231   2.157
15332TIP3    H167487   0.172   4.290   2.101
15332TIP3    H267488   0.049   4.288   2.188
15333TIP3   OH267489   1.138   4.585   3.164
15333TIP3    H167490   1.174   4.517   3.103
15333TIP3    H267491   1.092   4.531   3.231
15334TIP3   OH267492   0.817   4.180   2.645
15334TIP3    H167493   0.724   4.183   2.675
15334TIP3    H267494   0.866   4.168   2.728
15335TIP3   OH267495   0.303   4.339   2.529
15335TIP3    H167496   0.213   4.353   2.494
15335TIP3    H267497   0.327   4.253   2.491
15336TIP3   OH267498   0.663   4.341   2.294
15336TIP3    H167499   0.759   4.353   2.312
15336TIP3    H267500   0.640   4.409   2.229
15337TIP3   OH267501   1.258   4.104   2.970
15337TIP3    H167502   1.189   4.112   3.040
15337TIP3    H267503   1.207   4.082   2.891
15338TIP3   OH267504   0.534   4.459   2.052
15338TIP3    H167505   0.479   4.422   1.981
15338TIP3    H267506   0.616   4.479   2.006
15339TIP3   OH267507   1.580   5.669   3.602
15339TIP3    H167508   1.605   5.709   3.517
15339TIP3    H267509   1.651   5.702   3.659
15340TIP3   OH267510   0.347   4.915   3.557
15340TIP3    H167511   0.418   4.941   3.618
15340TIP3    H267512   0.269   4.931   3.616
15341TIP3   OH267513   0.946   4.457   2.835
15341TIP3    H167514   1.005   4.403   2.781
15341TIP3    H267515   0.932   4.403   2.913
15342TIP3   OH267516   0.447   4.072   2.478
15342TIP3    H167517   0.416   3.980   2.475
15342TIP3    H267518   0.527   4.067   2.423
15343TIP3   OH267519   0.810   4.291   3.076
15343TIP3    H167520   0.727   4.342   3.086
15343TIP3    H267521   0.864   4.325   3.150
15344TIP3   OH267522   0.869   4.914   2.245
15344TIP3    H167523   0.789   4.866   2.212
15344TIP3    H267524   0.848   4.923   2.340
15345TIP3   OH267525   1.585   4.831   3.126
15345TIP3    H167526   1.643   4.879   3.065
15345TIP3    H267527   1.499   4.839   3.078
15346TIP3   OH267528   1.253   4.195   2.063
15346TIP3    H167529   1.157   4.209   2.050
15346TIP3    H267530   1.285   4.281   2.097
15347TIP3   OH267531   1.017   4.937   3.369
15347TIP3    H167532   0.983   4.897   3.449
15347TIP3    H267533   0.994   5.030   3.379
15348TIP3   OH267534   1.325   4.385   2.228
15348TIP3    H167535   1.415   4.372   2.265
15348TIP3    H267536   1.334   4.467   2.175
15349TIP3   OH267537   0.381   4.852   2.825
15349TIP3    H167538   0.449   4.845   2.757
15349TIP3    H267539   0.386   4.765   2.870
15350TIP3   OH267540   1.079   5.060   2.148
15350TIP3    H167541   1.045   5.144   2.185
15350TIP3    H267542   1.006   4.999   2.169
15351TIP3   OH267543   0.101   4.672   3.329
15351TIP3    H167544   0.108   4.649   3.423
15351TIP3    H267545   0.017   4.630   3.307
15352TIP3   OH267546   0.780   4.648   3.572
15352TIP3    H167547   0.749   4.621   3.484
15352TIP3    H267548   0.873   4.618   3.571
15353TIP3   OH267549   1.246   5.181   3.363
15353TIP3    H167550   1.154   5.200   3.340
15353TIP3    H267551   1.245   5.210   3.457
15354TIP3   OH267552   1.816   4.401   2.203
15354TIP3    H167553   1.759   4.370   2.131
15354TIP3    H267554   1.823   4.495   2.176
15355TIP3   OH267555   1.813   4.986   3.485
15355TIP3    H167556   1.725   5.008   3.448
15355TIP3    H267557   1.869   4.982   3.405
15356TIP3   OH267558   1.642   5.283   2.244
15356TIP3    H167559   1.607   5.200   2.278
15356TIP3    H267560   1.675   5.263   2.155
15357TIP3   OH267561   1.364   4.765   2.953
15357TIP3    H167562   1.269   4.742   2.944
15357TIP3    H267563   1.407   4.687   2.912
15358TIP3   OH267564   0.616   5.197   2.564
15358TIP3    H167565   0.667   5.277   2.543
15358TIP3    H267566   0.528   5.221   2.532
15359TIP3   OH267567   0.187   4.681   2.024
15359TIP3    H167568   0.252   4.747   2.060
15359TIP3    H267569   0.103   4.717   2.051
15360TIP3   OH267570   0.759   4.964   2.516
15360TIP3    H167571   0.729   5.056   2.525
15360TIP3    H267572   0.685   4.916   2.560
15361TIP3   OH267573   0.805   5.381   3.155
15361TIP3    H167574   0.848   5.464   3.128
15361TIP3    H267575   0.864   5.349   3.225
15362TIP3   OH267576   0.626   5.464   2.470
15362TIP3    H167577   0.529   5.476   2.482
15362TIP3    H267578   0.661   5.548   2.505
15363TIP3   OH267579   1.159   4.985   3.120
15363TIP3    H167580   1.122   4.964   3.208
15363TIP3    H267581   1.221   4.912   3.102
15364TIP3   OH267582   1.388   5.088   2.027
15364TIP3    H167583   1.418   5.042   2.109
15364TIP3    H267584   1.292   5.071   2.037
15365TIP3   OH267585   1.435   5.441   3.369
15365TIP3    H167586   1.368   5.390   3.319
15365TIP3    H267587   1.456   5.511   3.303
15366TIP3   OH267588   1.836   5.525   2.052
15366TIP3    H167589   1.906   5.591   2.033
15366TIP3    H267590   1.764   5.587   2.082
15367TIP3   OH267591   0.243   4.166   3.304
15367TIP3    H167592   0.153   4.201   3.306
15367TIP3    H267593   0.231   4.081   3.352
15368TIP3   OH267594   1.467   4.952   2.251
15368TIP3    H167595   1.443   4.875   2.306
15368TIP3    H267596   1.562   4.959   2.271
15369TIP3   OH267597   0.209   5.348   3.148
15369TIP3    H167598   0.230   5.254   3.150
15369TIP3    H267599   0.230   5.373   3.238
15370TIP3   OH267600   0.799   5.196   1.875
15370TIP3    H167601   0.814   5.119   1.818
15370TIP3    H267602   0.761   5.153   1.955
15371TIP3   OH267603   0.686   5.149   2.119
15371TIP3    H167604   0.704   5.098   2.199
15371TIP3    H267605   0.686   5.242   2.152
15372TIP3   OH267606   0.333   4.872   2.168
15372TIP3    H167607   0.264   4.912   2.226
15372TIP3    H267608   0.383   4.952   2.144
15373TIP3   OH267609   1.116   4.143   3.201
15373TIP3    H167610   1.187   4.149   3.266
15373TIP3    H267611   1.078   4.055   3.219
15374TIP3   OH267612   1.192   4.101   2.310
15374TIP3    H167613   1.215   4.150   2.228
15374TIP3    H267614   1.249   4.145   2.375
15375TIP3   OH267615   0.960   5.317   2.193
15375TIP3    H167616   0.878   5.370   2.199
15375TIP3    H267617   1.013   5.370   2.132
15376TIP3   OH267618   0.914   4.277   2.392
15376TIP3    H167619   0.994   4.333   2.397
15376TIP3    H267620   0.888   4.264   2.485
15377TIP3   OH267621   0.969   4.378   3.311
15377TIP3    H167622   0.977   4.435   3.390
15377TIP3    H267623   1.035   4.308   3.322
15378TIP3   OH267624   1.000   3.983   2.483
15378TIP3    H167625   0.967   4.048   2.548
15378TIP3    H267626   1.068   4.037   2.437
15379TIP3   OH267627   0.698   5.420   2.194
15379TIP3    H167628   0.709   5.503   2.140
15379TIP3    H267629   0.673   5.456   2.282
15380TIP3   OH267630   0.566   4.092   2.153
15380TIP3    H167631   0.560   4.182   2.190
15380TIP3    H267632   0.657   4.067   2.179
15381TIP3   OH267633   1.588   4.166   3.396
15381TIP3    H167634   1.495   4.196   3.384
15381TIP3    H267635   1.618   4.165   3.304
15382TIP3   OH267636   1.448   4.544   2.799
15382TIP3    H167637   1.366   4.500   2.770
15382TIP3    H267638   1.495   4.474   2.851
15383TIP3   OH267639   0.390   5.136   2.058
15383TIP3    H167640   0.454   5.202   2.087
15383TIP3    H267641   0.441   5.091   1.988
15384TIP3   OH267642   0.229   4.403   1.966
15384TIP3    H167643   0.225   4.497   1.992
15384TIP3    H267644   0.137   4.383   1.944
15385TIP3   OH267645   1.555   5.469   2.965
15385TIP3    H167646   1.544   5.537   2.897
15385TIP3    H267647   1.651   5.476   2.983
15386TIP3   OH267648   0.303   3.882   2.842
15386TIP3    H167649   0.284   3.884   2.746
15386TIP3    H267650   0.261   3.799   2.870
15387TIP3   OH267651   0.230   5.312   2.465
15387TIP3    H167652   0.132   5.309   2.458
15387TIP3    H267653   0.254   5.332   2.375
15388TIP3   OH267654   0.135   5.539   3.587
15388TIP3    H167655   0.185   5.514   3.666
15388TIP3    H267656   0.081   5.458   3.572
15389TIP3   OH267657   0.589   5.430   3.750
15389TIP3    H167658   0.665   5.381   3.783
15389TIP3    H267659   0.585   5.403   3.656
15390TIP3   OH267660   1.000   5.382   1.889
15390TIP3    H167661   0.932   5.316   1.915
15390TIP3    H267662   1.073   5.323   1.865
15391TIP3   OH267663   1.241   5.268   3.623
15391TIP3    H167664   1.209   5.180   3.650
15391TIP3    H267665   1.317   5.280   3.684
15392TIP3   OH267666   1.457   5.358   1.909
15392TIP3    H167667   1.487   5.280   1.958
15392TIP3    H267668   1.533   5.381   1.853
15393TIP3   OH267669   0.126   4.917   3.683
15393TIP3    H167670   0.131   4.823   3.657
15393TIP3    H267671   0.042   4.945   3.642
15394TIP3   OH267672   0.547   4.951   1.892
15394TIP3    H167673   0.560   4.873   1.949
15394TIP3    H267674   0.620   4.939   1.828
15395TIP3   OH267675   0.784   4.915   3.627
15395TIP3    H167676   0.750   4.944   3.540
15395TIP3    H267677   0.794   4.818   3.617
15396TIP3   OH267678   1.089   5.060   1.868
15396TIP3    H167679   1.061   5.071   1.960
15396TIP3    H267680   1.069   4.965   1.855
15397TIP3   OH267681   1.354   4.902   3.365
15397TIP3    H167682   1.432   4.962   3.357
15397TIP3    H267683   1.282   4.967   3.370
15398TIP3   OH267684   0.198   4.638   3.624
15398TIP3    H167685   0.245   4.552   3.616
15398TIP3    H267686   0.181   4.639   3.720
15399TIP3   OH267687   0.667   4.752   2.131
15399TIP3    H167688   0.618   4.699   2.196
15399TIP3    H267689   0.695   4.683   2.065
15400TIP3   OH267690   0.594   4.535   3.363
15400TIP3    H167691   0.533   4.605   3.389
15400TIP3    H267692   0.632   4.571   3.280
15401TIP3   OH267693   0.774   4.574   1.953
15401TIP3    H167694   0.758   4.563   1.857
15401TIP3    H267695   0.871   4.581   1.959
15402TIP3   OH267696   1.100   4.789   3.694
15402TIP3    H167697   1.196   4.791   3.685
15402TIP3    H267698   1.083   4.713   3.752
15403TIP3   OH267699   1.710   4.807   1.896
15403TIP3    H167700   1.687   4.768   1.811
15403TIP3    H267701   1.717   4.903   1.875
15404TIP3   OH267702   0.634   4.272   3.469
15404TIP3    H167703   0.645   4.200   3.405
15404TIP3    H267704   0.628   4.352   3.414
15405TIP3   OH267705   0.674   4.110   3.222
15405TIP3    H167706   0.725   4.156   3.152
15405TIP3    H267707   0.585   4.101   3.180
15406TIP3   OH267708   0.829   4.656   3.247
15406TIP3    H167709   0.904   4.640   3.189
15406TIP3    H267710   0.793   4.741   3.215
15407TIP3   OH267711   1.269   4.434   3.746
15407TIP3    H167712   1.291   4.341   3.735
15407TIP3    H267713   1.356   4.478   3.746
15408TIP3   OH267714   1.401   4.712   3.558
15408TIP3    H167715   1.376   4.786   3.497
15408TIP3    H267716   1.497   4.709   3.540
15409TIP3   OH267717   0.477   4.397   3.659
15409TIP3    H167718   0.401   4.338   3.642
15409TIP3    H267719   0.545   4.360   3.599
15410TIP3   OH267720   0.753   3.854   3.263
15410TIP3    H167721   0.738   3.950   3.252
15410TIP3    H267722   0.678   3.818   3.213
15411TIP3   OH267723   0.880   4.286   3.623
15411TIP3    H167724   0.850   4.264   3.713
15411TIP3    H267725   0.801   4.266   3.570
15412TIP3   OH267726   1.152   4.200   3.530
15412TIP3    H167727   1.055   4.205   3.543
15412TIP3    H267728   1.180   4.137   3.598
15413TIP3   OH267729   1.312   4.063   3.725
15413TIP3    H167730   1.305   3.966   3.727
15413TIP3    H267731   1.284   4.092   3.814
15414TIP3   OH267732   0.295   4.188   3.634
15414TIP3    H167733   0.315   4.115   3.573
15414TIP3    H267734   0.282   4.142   3.719
15415TIP3   OH267735   0.774   3.790   3.532
15415TIP3    H167736   0.844   3.721   3.529
15415TIP3    H267737   0.764   3.809   3.437
15416TIP3   OH267738   0.811   3.954   3.741
15416TIP3    H167739   0.794   3.904   3.657
15416TIP3    H267740   0.750   4.030   3.732
15417TIP3   OH267741   0.760   5.643   2.059
15417TIP3    H167742   0.856   5.656   2.067
15417TIP3    H267743   0.741   5.707   1.989
15418TIP3   OH267744   0.122   5.109   2.010
15418TIP3    H167745   0.219   5.113   2.029
15418TIP3    H267746   0.121   5.040   1.939
15419TIP3   OH267747   7.352   5.651   2.499
15419TIP3    H167748   7.272   5.616   2.457
15419TIP3    H267749   7.370   5.581   2.567
15420TIP3   OH267750   0.067   5.459   2.688
15420TIP3    H167751   0.041   5.365   2.705
15420TIP3    H267752   0.097   5.486   2.776
15421TIP3   OH267753   1.827   5.534   2.986
15421TIP3    H167754   1.829   5.551   3.081
15421TIP3    H267755   1.897   5.592   2.954
15422TIP3   OH267756   1.784   5.494   3.280
15422TIP3    H167757   1.737   5.416   3.242
15422TIP3    H267758   1.836   5.449   3.350
15423TIP3   OH267759   1.629   5.067   3.745
15423TIP3    H167760   1.539   5.062   3.783
15423TIP3    H267761   1.666   5.146   3.788
15424TIP3   OH267762   1.760   4.898   2.291
15424TIP3    H167763   1.846   4.938   2.308
15424TIP3    H267764   1.759   4.824   2.357
15425TIP3   OH267765   1.797   4.705   2.477
15425TIP3    H167766   1.723   4.654   2.518
15425TIP3    H267767   1.857   4.720   2.553
15426TIP3   OH267768   1.773   4.976   2.976
15426TIP3    H167769   1.855   4.939   2.940
15426TIP3    H267770   1.787   5.072   2.959
15427TIP3   OH267771   1.627   5.266   3.204
15427TIP3    H167772   1.558   5.300   3.264
15427TIP3    H267773   1.572   5.225   3.134
15428TIP3   OH267774   1.827   4.689   2.117
15428TIP3    H167775   1.771   4.725   2.045
15428TIP3    H267776   1.819   4.759   2.184
15429TIP3   OH267777   1.663   4.412   1.970
15429TIP3    H167778   1.671   4.480   1.901
15429TIP3    H267779   1.646   4.330   1.921
15430TIP3   OH267780   1.578   4.553   2.534
15430TIP3    H167781   1.563   4.458   2.532
15430TIP3    H267782   1.544   4.577   2.622
15431TIP3   OH267783   0.078   4.759   2.939
15431TIP3    H167784   0.097   4.757   2.842
15431TIP3    H267785   0.167   4.747   2.977
15432TIP3   OH267786   1.663   4.750   3.502
15432TIP3    H167787   1.724   4.675   3.517
15432TIP3    H267788   1.723   4.828   3.504
15433TIP3   OH267789   1.814   4.540   3.568
15433TIP3    H167790   1.726   4.499   3.552
15433TIP3    H267791   1.872   4.462   3.560
15434TIP3   OH267792   1.587   4.158   1.883
15434TIP3    H167793   1.647   4.116   1.947
15434TIP3    H267794   1.502   4.115   1.900
15435TIP3   OH267795   1.544   4.312   2.378
15435TIP3    H167796   1.576   4.220   2.393
15435TIP3    H267797   1.626   4.353   2.345
15436TIP3   OH267798   1.609   4.366   2.924
15436TIP3    H167799   1.705   4.390   2.923
15436TIP3    H267800   1.589   4.380   3.018
15437TIP3   OH267801   1.616   4.439   3.203
15437TIP3    H167802   1.528   4.468   3.236
15437TIP3    H267803   1.658   4.525   3.181
15438TIP3   OH267804   0.058   4.283   3.554
15438TIP3    H167805   0.148   4.265   3.580
15438TIP3    H267806   0.000   4.211   3.589
15439TIP3   OH267807   1.845   3.843   3.739
15439TIP3    H167808   1.874   3.778   3.673
15439TIP3    H267809   1.853   3.926   3.688
15440TIP3   OH267810   1.612   4.040   2.385
15440TIP3    H167811   1.632   3.995   2.470
15440TIP3    H267812   1.551   3.977   2.340
15441TIP3   OH267813   0.157   4.117   2.842
15441TIP3    H167814   0.209   4.039   2.868
15441TIP3    H267815   0.211   4.188   2.881
15442TIP3   OH267816   0.063   4.465   2.983
15442TIP3    H167817   0.059   4.430   2.891
15442TIP3    H267818   0.034   4.554   2.963
15443TIP3   OH267819   1.795   4.053   3.573
15443TIP3    H167820   1.701   4.080   3.567
15443TIP3    H267821   1.800   4.000   3.493
15444TIP3   OH267822   1.794   4.044   2.041
15444TIP3    H167823   1.836   3.972   1.988
15444TIP3    H267824   1.864   4.111   2.045
15445TIP3   OH267825   0.063   4.047   2.327
15445TIP3    H167826  -0.032   4.067   2.329
15445TIP3    H267827   0.090   4.112   2.261
15446TIP3   OH267828   1.499   5.542   2.547
15446TIP3    H167829   1.567   5.510   2.485
15446TIP3    H267830   1.552   5.592   2.611
15447TIP3   OH267831   7.378   3.912   3.192
15447TIP3    H167832   7.302   3.891   3.249
15447TIP3    H267833   7.325   3.970   3.133
15448TIP3   OH267834   0.244   5.235   3.601
15448TIP3    H167835   0.161   5.253   3.555
15448TIP3    H267836   0.215   5.225   3.692
15449TIP3   OH267837   0.535   5.334   3.227
15449TIP3    H167838   0.496   5.417   3.198
15449TIP3    H267839   0.627   5.343   3.194
15450TIP3   OH267840   0.966   5.475   3.518
15450TIP3    H167841   0.982   5.440   3.608
15450TIP3    H267842   1.055   5.505   3.491
15451TIP3   OH267843   1.196   5.602   3.446
15451TIP3    H167844   1.269   5.542   3.423
15451TIP3    H267845   1.234   5.644   3.527
15452TIP3   OH267846   1.696   3.863   3.357
15452TIP3    H167847   1.613   3.893   3.316
15452TIP3    H267848   1.714   3.783   3.304
15453TIP3   OH267849   0.278   5.658   3.229
15453TIP3    H167850   0.203   5.704   3.186
15453TIP3    H267851   0.241   5.636   3.316
15454TIP3   OH267852   0.524   5.616   3.133
15454TIP3    H167853   0.435   5.629   3.173
15454TIP3    H267854   0.518   5.674   3.055
15455TIP3   OH267855   0.994   5.606   3.050
15455TIP3    H167856   0.948   5.661   2.985
15455TIP3    H267857   1.008   5.670   3.124
15456TIP3   OH267858   1.225   5.490   3.149
15456TIP3    H167859   1.137   5.514   3.117
15456TIP3    H267860   1.270   5.575   3.141
15457TIP3   OH267861   1.483   5.646   3.176
15457TIP3    H167862   1.473   5.742   3.152
15457TIP3    H267863   1.503   5.609   3.088
15458TIP3   OH267864   0.219   5.524   2.920
15458TIP3    H167865   0.217   5.478   3.007
15458TIP3    H267866   0.299   5.485   2.880
15459TIP3   OH267867   0.431   5.394   2.786
15459TIP3    H167868   0.411   5.300   2.806
15459TIP3    H267869   0.516   5.407   2.832
15460TIP3   OH267870   0.688   5.441   2.872
15460TIP3    H167871   0.706   5.349   2.845
15460TIP3    H267872   0.694   5.435   2.969
15461TIP3   OH267873   1.036   4.006   2.787
15461TIP3    H167874   0.968   3.942   2.813
15461TIP3    H267875   1.091   3.954   2.727
15462TIP3   OH267876   1.549   3.813   2.795
15462TIP3    H167877   1.611   3.871   2.744
15462TIP3    H267878   1.462   3.848   2.771
15463TIP3   OH267879   1.717   3.934   2.624
15463TIP3    H167880   1.786   3.878   2.579
15463TIP3    H267881   1.765   4.020   2.632
15464TIP3   OH267882   0.270   3.868   2.572
15464TIP3    H167883   0.193   3.846   2.515
15464TIP3    H267884   0.322   3.786   2.565
15465TIP3   OH267885   0.188   3.856   2.158
15465TIP3    H167886   0.204   3.915   2.084
15465TIP3    H267887   0.106   3.891   2.197
15466TIP3   OH267888   0.722   3.862   2.549
15466TIP3    H167889   0.812   3.899   2.544
15466TIP3    H267890   0.716   3.840   2.642
15467TIP3   OH267891   1.289   3.864   2.714
15467TIP3    H167892   1.288   3.874   2.618
15467TIP3    H267893   1.253   3.773   2.726
15468TIP3   OH267894   1.419   3.867   2.282
15468TIP3    H167895   1.345   3.927   2.264
15468TIP3    H267896   1.374   3.782   2.301
15469TIP3   OH267897   0.156   5.448   2.231
15469TIP3    H167898   0.074   5.439   2.178
15469TIP3    H267899   0.142   5.537   2.266
15470TIP3   OH267900   0.335   4.041   1.992
15470TIP3    H167901   0.388   3.977   1.941
15470TIP3    H267902   0.399   4.069   2.059
15471TIP3   OH267903   0.837   4.065   2.235
15471TIP3    H167904   0.860   4.006   2.309
15471TIP3    H267905   0.840   4.151   2.283
15472TIP3   OH267906   1.028   5.568   2.080
15472TIP3    H167907   1.119   5.596   2.058
15472TIP3    H267908   1.006   5.519   1.998
15473TIP3   OH267909   1.700   5.521   2.350
15473TIP3    H167910   1.679   5.444   2.292
15473TIP3    H267911   1.693   5.595   2.287
15474TIP3   OH267912   0.258   3.926   3.521
15474TIP3    H167913   0.225   3.843   3.559
15474TIP3    H267914   0.352   3.921   3.552
15475TIP3   OH267915   0.462   3.860   3.678
15475TIP3    H167916   0.551   3.827   3.657
15475TIP3    H267917   0.423   3.781   3.720
15476TIP3   OH267918   0.321   5.536   1.940
15476TIP3    H167919   0.296   5.564   2.029
15476TIP3    H267920   0.400   5.482   1.957
15477TIP3   OH267921   1.302   3.791   3.695
15477TIP3    H167922   1.312   3.744   3.780
15477TIP3    H267923   1.394   3.788   3.660
15478TIP3   OH267924   1.623   5.395   3.560
15478TIP3    H167925   1.542   5.380   3.506
15478TIP3    H267926   1.612   5.490   3.581
15479TIP3   OH267927   3.066   4.783   2.560
15479TIP3    H167928   3.068   4.880   2.553
15479TIP3    H267929   2.996   4.759   2.497
15480TIP3   OH267930   2.954   4.709   2.908
15480TIP3    H167931   2.950   4.643   2.977
15480TIP3    H267932   2.920   4.661   2.830
15481TIP3   OH267933   2.189   4.675   3.063
15481TIP3    H167934   2.197   4.608   3.134
15481TIP3    H267935   2.263   4.733   3.084
15482TIP3   OH267936   3.324   5.004   2.735
15482TIP3    H167937   3.281   4.933   2.783
15482TIP3    H267938   3.324   5.075   2.802
15483TIP3   OH267939   2.282   5.120   2.915
15483TIP3    H167940   2.249   5.034   2.881
15483TIP3    H267941   2.377   5.101   2.920
15484TIP3   OH267942   1.946   4.478   2.461
15484TIP3    H167943   1.901   4.565   2.455
15484TIP3    H267944   1.889   4.424   2.405
15485TIP3   OH267945   2.016   4.699   2.674
15485TIP3    H167946   2.041   4.618   2.722
15485TIP3    H267947   2.088   4.709   2.610
15486TIP3   OH267948   3.034   5.518   2.759
15486TIP3    H167949   3.099   5.448   2.731
15486TIP3    H267950   3.014   5.488   2.847
15487TIP3   OH267951   2.791   4.950   2.951
15487TIP3    H167952   2.825   4.885   2.888
15487TIP3    H267953   2.870   4.965   3.006
15488TIP3   OH267954   3.653   4.114   3.029
15488TIP3    H167955   3.667   4.174   3.104
15488TIP3    H267956   3.706   4.158   2.961
15489TIP3   OH267957   3.105   4.394   2.987
15489TIP3    H167958   3.124   4.298   2.982
15489TIP3    H267959   3.098   4.411   2.890
15490TIP3   OH267960   2.420   4.204   2.708
15490TIP3    H167961   2.429   4.288   2.660
15490TIP3    H267962   2.378   4.147   2.640
15491TIP3   OH267963   3.193   4.213   2.545
15491TIP3    H167964   3.259   4.182   2.611
15491TIP3    H267965   3.249   4.269   2.488
15492TIP3   OH267966   2.082   4.445   2.782
15492TIP3    H167967   2.149   4.389   2.826
15492TIP3    H267968   2.091   4.414   2.690
15493TIP3   OH267969   2.598   4.601   2.710
15493TIP3    H167970   2.664   4.543   2.753
15493TIP3    H267971   2.545   4.534   2.663
15494TIP3   OH267972   3.698   4.258   3.254
15494TIP3    H167973   3.632   4.330   3.245
15494TIP3    H267974   3.699   4.244   3.350
15495TIP3   OH267975   2.308   4.094   3.112
15495TIP3    H167976   2.281   4.150   3.037
15495TIP3    H267977   2.240   4.118   3.179
15496TIP3   OH267978   3.040   5.043   2.467
15496TIP3    H167979   3.012   5.014   2.379
15496TIP3    H267980   3.008   5.136   2.472
15497TIP3   OH267981   2.562   4.859   3.138
15497TIP3    H167982   2.490   4.923   3.156
15497TIP3    H267983   2.632   4.919   3.108
15498TIP3   OH267984   3.372   4.148   2.745
15498TIP3    H167985   3.352   4.069   2.797
15498TIP3    H267986   3.440   4.191   2.798
15499TIP3   OH267987   2.265   4.281   2.913
15499TIP3    H167988   2.328   4.348   2.946
15499TIP3    H267989   2.318   4.238   2.841
15500TIP3   OH267990   2.405   5.058   3.219
15500TIP3    H167991   2.401   5.149   3.184
15500TIP3    H267992   2.317   5.051   3.263
15501TIP3   OH267993   2.014   5.022   2.298
15501TIP3    H167994   1.988   5.052   2.209
15501TIP3    H267995   2.021   5.106   2.347
15502TIP3   OH267996   3.377   5.187   2.973
15502TIP3    H167997   3.279   5.197   2.985
15502TIP3    H267998   3.402   5.279   2.954
15503TIP3   OH267999   3.407   4.020   3.116
15503TIP3    H168000   3.333   4.078   3.102
15503TIP3    H268001   3.477   4.057   3.058
15504TIP3   OH268002   2.706   3.827   2.858
15504TIP3    H168003   2.694   3.730   2.852
15504TIP3    H268004   2.618   3.858   2.888
15505TIP3   OH268005   3.201   5.365   2.633
15505TIP3    H168006   3.244   5.294   2.582
15505TIP3    H268007   3.240   5.445   2.591
15506TIP3   OH268008   3.321   5.158   2.483
15506TIP3    H168009   3.292   5.088   2.423
15506TIP3    H268010   3.325   5.110   2.568
15507TIP3   OH268011   3.487   5.016   3.333
15507TIP3    H168012   3.497   4.952   3.259
15507TIP3    H268013   3.502   5.102   3.291
15508TIP3   OH268014   2.934   4.707   2.310
15508TIP3    H168015   2.863   4.763   2.273
15508TIP3    H268016   3.004   4.716   2.243
15509TIP3   OH268017   2.940   4.560   2.011
15509TIP3    H168018   3.011   4.559   2.077
15509TIP3    H268019   2.971   4.492   1.951
15510TIP3   OH268020   3.674   4.649   3.139
15510TIP3    H168021   3.605   4.719   3.143
15510TIP3    H268022   3.718   4.669   3.055
15511TIP3   OH268023   3.277   4.729   2.402
15511TIP3    H168024   3.202   4.752   2.462
15511TIP3    H268025   3.323   4.659   2.452
15512TIP3   OH268026   3.262   4.541   3.316
15512TIP3    H168027   3.274   4.625   3.366
15512TIP3    H268028   3.210   4.578   3.241
15513TIP3   OH268029   2.439   4.794   2.593
15513TIP3    H168030   2.407   4.755   2.508
15513TIP3    H268031   2.500   4.725   2.626
15514TIP3   OH268032   2.572   5.134   2.861
15514TIP3    H168033   2.569   5.079   2.782
15514TIP3    H268034   2.649   5.097   2.907
15515TIP3   OH268035   2.473   4.669   2.958
15515TIP3    H168036   2.529   4.680   2.879
15515TIP3    H268037   2.510   4.735   3.020
15516TIP3   OH268038   3.111   5.225   3.028
15516TIP3    H168039   3.084   5.288   3.095
15516TIP3    H268040   3.087   5.139   3.072
15517TIP3   OH268041   2.567   5.111   3.428
15517TIP3    H168042   2.528   5.187   3.476
15517TIP3    H268043   2.499   5.092   3.358
15518TIP3   OH268044   3.164   4.647   2.169
15518TIP3    H168045   3.221   4.664   2.248
15518TIP3    H268046   3.208   4.696   2.097
15519TIP3   OH268047   2.260   4.727   3.346
15519TIP3    H168048   2.264   4.794   3.417
15519TIP3    H268049   2.167   4.738   3.321
15520TIP3   OH268050   2.936   5.320   2.515
15520TIP3    H168051   2.981   5.350   2.595
15520TIP3    H268052   2.880   5.395   2.492
15521TIP3   OH268053   2.391   5.316   3.504
15521TIP3    H168054   2.387   5.304   3.407
15521TIP3    H268055   2.297   5.303   3.529
15522TIP3   OH268056   3.536   3.820   2.156
15522TIP3    H168057   3.442   3.834   2.182
15522TIP3    H268058   3.558   3.905   2.113
15523TIP3   OH268059   2.337   4.697   2.354
15523TIP3    H168060   2.308   4.775   2.303
15523TIP3    H268061   2.271   4.631   2.332
15524TIP3   OH268062   3.649   5.256   1.992
15524TIP3    H168063   3.663   5.351   2.009
15524TIP3    H268064   3.742   5.227   1.990
15525TIP3   OH268065   1.946   4.939   3.240
15525TIP3    H168066   1.899   4.931   3.155
15525TIP3    H268067   1.951   4.844   3.264
15526TIP3   OH268068   1.921   5.213   2.921
15526TIP3    H168069   2.017   5.201   2.920
15526TIP3    H268070   1.913   5.294   2.973
15527TIP3   OH268071   3.745   5.281   3.487
15527TIP3    H168072   3.732   5.185   3.491
15527TIP3    H268073   3.659   5.308   3.529
15528TIP3   OH268074   2.841   5.237   3.376
15528TIP3    H168075   2.847   5.321   3.427
15528TIP3    H268076   2.753   5.202   3.402
15529TIP3   OH268077   2.884   5.612   2.357
15529TIP3    H168078   2.874   5.603   2.261
15529TIP3    H268079   2.885   5.708   2.371
15530TIP3   OH268080   2.248   5.498   2.537
15530TIP3    H168081   2.262   5.457   2.625
15530TIP3    H268082   2.163   5.458   2.513
15531TIP3   OH268083   3.191   5.533   2.055
15531TIP3    H168084   3.233   5.456   2.011
15531TIP3    H268085   3.193   5.505   2.149
15532TIP3   OH268086   3.160   5.525   2.332
15532TIP3    H168087   3.064   5.533   2.350
15532TIP3    H268088   3.184   5.452   2.390
15533TIP3   OH268089   3.458   4.429   3.539
15533TIP3    H168090   3.418   4.478   3.466
15533TIP3    H268091   3.461   4.338   3.506
15534TIP3   OH268092   2.173   5.070   3.337
15534TIP3    H168093   2.195   5.033   3.425
15534TIP3    H268094   2.086   5.030   3.316
15535TIP3   OH268095   2.440   3.917   2.934
15535TIP3    H168096   2.350   3.906   2.896
15535TIP3    H268097   2.429   4.001   2.980
15536TIP3   OH268098   2.905   3.889   3.271
15536TIP3    H168099   2.945   3.843   3.347
15536TIP3    H268100   2.808   3.871   3.283
15537TIP3   OH268101   3.228   4.266   3.355
15537TIP3    H168102   3.185   4.246   3.443
15537TIP3    H268103   3.230   4.361   3.338
15538TIP3   OH268104   3.309   4.751   1.944
15538TIP3    H168105   3.311   4.730   1.847
15538TIP3    H268106   3.396   4.793   1.954
15539TIP3   OH268107   2.870   4.141   2.000
15539TIP3    H168108   2.839   4.137   2.093
15539TIP3    H268109   2.839   4.053   1.971
15540TIP3   OH268110   2.450   4.413   3.054
15540TIP3    H168111   2.378   4.412   3.120
15540TIP3    H268112   2.446   4.506   3.021
15541TIP3   OH268113   2.446   4.430   2.543
15541TIP3    H168114   2.353   4.401   2.531
15541TIP3    H268115   2.486   4.397   2.460
15542TIP3   OH268116   2.999   4.477   2.422
15542TIP3    H168117   2.958   4.559   2.387
15542TIP3    H268118   3.069   4.461   2.356
15543TIP3   OH268119   2.912   4.491   3.558
15543TIP3    H168120   2.851   4.424   3.599
15543TIP3    H268121   2.988   4.486   3.619
15544TIP3   OH268122   3.101   4.424   2.705
15544TIP3    H168123   3.076   4.481   2.630
15544TIP3    H268124   3.114   4.340   2.658
15545TIP3   OH268125   2.215   4.442   3.228
15545TIP3    H168126   2.219   4.483   3.317
15545TIP3    H268127   2.169   4.359   3.246
15546TIP3   OH268128   2.553   4.181   1.912
15546TIP3    H168129   2.508   4.137   1.987
15546TIP3    H268130   2.481   4.221   1.862
15547TIP3   OH268131   1.879   4.153   2.622
15547TIP3    H168132   1.946   4.149   2.693
15547TIP3    H268133   1.925   4.113   2.546
15548TIP3   OH268134   2.007   4.225   2.160
15548TIP3    H168135   2.056   4.287   2.103
15548TIP3    H268136   1.937   4.285   2.193
15549TIP3   OH268137   3.029   4.583   3.167
15549TIP3    H168138   3.058   4.520   3.098
15549TIP3    H268139   2.970   4.536   3.226
15550TIP3   OH268140   2.702   4.181   2.645
15550TIP3    H168141   2.609   4.183   2.675
15550TIP3    H268142   2.752   4.167   2.728
15551TIP3   OH268143   2.184   4.338   2.531
15551TIP3    H168144   2.095   4.352   2.493
15551TIP3    H268145   2.213   4.254   2.492
15552TIP3   OH268146   2.549   4.341   2.294
15552TIP3    H168147   2.644   4.353   2.312
15552TIP3    H268148   2.526   4.409   2.229
15553TIP3   OH268149   3.144   4.107   2.970
15553TIP3    H168150   3.074   4.108   3.038
15553TIP3    H268151   3.095   4.080   2.891
15554TIP3   OH268152   2.418   4.460   2.053
15554TIP3    H168153   2.365   4.421   1.981
15554TIP3    H268154   2.501   4.479   2.006
15555TIP3   OH268155   3.465   5.669   3.601
15555TIP3    H168156   3.491   5.709   3.517
15555TIP3    H268157   3.536   5.702   3.659
15556TIP3   OH268158   2.232   4.916   3.559
15556TIP3    H168159   2.304   4.941   3.619
15556TIP3    H268160   2.153   4.929   3.617
15557TIP3   OH268161   2.833   4.458   2.836
15557TIP3    H168162   2.890   4.403   2.780
15557TIP3    H268163   2.816   4.402   2.913
15558TIP3   OH268164   2.333   4.072   2.478
15558TIP3    H168165   2.302   3.979   2.475
15558TIP3    H268166   2.411   4.067   2.422
15559TIP3   OH268167   2.696   4.292   3.075
15559TIP3    H168168   2.612   4.341   3.085
15559TIP3    H268169   2.747   4.325   3.151
15560TIP3   OH268170   2.754   4.914   2.245
15560TIP3    H168171   2.675   4.866   2.212
15560TIP3    H268172   2.734   4.923   2.340
15561TIP3   OH268173   3.471   4.832   3.126
15561TIP3    H168174   3.528   4.879   3.063
15561TIP3    H268175   3.386   4.839   3.079
15562TIP3   OH268176   3.138   4.195   2.063
15562TIP3    H168177   3.043   4.209   2.050
15562TIP3    H268178   3.171   4.281   2.097
15563TIP3   OH268179   2.903   4.936   3.369
15563TIP3    H168180   2.868   4.897   3.450
15563TIP3    H268181   2.880   5.029   3.378
15564TIP3   OH268182   3.211   4.385   2.228
15564TIP3    H168183   3.301   4.372   2.265
15564TIP3    H268184   3.220   4.467   2.175
15565TIP3   OH268185   2.264   4.850   2.825
15565TIP3    H168186   2.335   4.844   2.758
15565TIP3    H268187   2.271   4.765   2.871
15566TIP3   OH268188   2.965   5.060   2.148
15566TIP3    H168189   2.931   5.144   2.185
15566TIP3    H268190   2.891   4.999   2.169
15567TIP3   OH268191   1.964   4.693   3.352
15567TIP3    H168192   1.983   4.649   3.437
15567TIP3    H268193   1.902   4.630   3.309
15568TIP3   OH268194   2.666   4.647   3.572
15568TIP3    H168195   2.633   4.622   3.484
15568TIP3    H268196   2.758   4.619   3.571
15569TIP3   OH268197   3.132   5.181   3.363
15569TIP3    H168198   3.039   5.200   3.340
15569TIP3    H268199   3.130   5.210   3.457
15570TIP3   OH268200   3.702   4.401   2.203
15570TIP3    H168201   3.644   4.370   2.131
15570TIP3    H268202   3.709   4.495   2.175
15571TIP3   OH268203   3.700   4.990   3.485
15571TIP3    H168204   3.609   5.007   3.449
15571TIP3    H268205   3.753   4.978   3.405
15572TIP3   OH268206   3.528   5.283   2.244
15572TIP3    H168207   3.493   5.200   2.278
15572TIP3    H268208   3.560   5.263   2.155
15573TIP3   OH268209   3.249   4.763   2.955
15573TIP3    H168210   3.155   4.744   2.942
15573TIP3    H268211   3.293   4.688   2.911
15574TIP3   OH268212   2.502   5.197   2.563
15574TIP3    H168213   2.553   5.277   2.543
15574TIP3    H268214   2.414   5.221   2.531
15575TIP3   OH268215   2.078   4.682   2.021
15575TIP3    H168216   2.137   4.748   2.061
15575TIP3    H268217   1.990   4.714   2.047
15576TIP3   OH268218   2.644   4.964   2.516
15576TIP3    H168219   2.615   5.056   2.525
15576TIP3    H268220   2.571   4.916   2.560
15577TIP3   OH268221   2.690   5.381   3.155
15577TIP3    H168222   2.733   5.464   3.128
15577TIP3    H268223   2.750   5.349   3.225
15578TIP3   OH268224   2.512   5.464   2.470
15578TIP3    H168225   2.415   5.477   2.481
15578TIP3    H268226   2.547   5.548   2.505
15579TIP3   OH268227   3.044   4.985   3.118
15579TIP3    H168228   3.008   4.965   3.207
15579TIP3    H268229   3.107   4.914   3.102
15580TIP3   OH268230   3.273   5.088   2.027
15580TIP3    H168231   3.304   5.042   2.109
15580TIP3    H268232   3.177   5.071   2.037
15581TIP3   OH268233   3.320   5.441   3.369
15581TIP3    H168234   3.254   5.390   3.319
15581TIP3    H268235   3.342   5.511   3.303
15582TIP3   OH268236   3.721   5.526   2.052
15582TIP3    H168237   3.792   5.591   2.033
15582TIP3    H268238   3.650   5.587   2.082
15583TIP3   OH268239   2.129   4.166   3.307
15583TIP3    H168240   2.038   4.201   3.304
15583TIP3    H268241   2.117   4.081   3.352
15584TIP3   OH268242   3.353   4.952   2.251
15584TIP3    H168243   3.329   4.875   2.306
15584TIP3    H268244   3.448   4.958   2.271
15585TIP3   OH268245   2.091   5.346   3.150
15585TIP3    H168246   2.118   5.253   3.150
15585TIP3    H268247   2.117   5.374   3.239
15586TIP3   OH268248   2.685   5.196   1.875
15586TIP3    H168249   2.699   5.119   1.818
15586TIP3    H268250   2.647   5.153   1.955
15587TIP3   OH268251   2.568   5.149   2.121
15587TIP3    H168252   2.590   5.098   2.199
15587TIP3    H268253   2.573   5.242   2.153
15588TIP3   OH268254   2.218   4.874   2.170
15588TIP3    H168255   2.148   4.913   2.226
15588TIP3    H268256   2.270   4.952   2.143
15589TIP3   OH268257   2.999   4.148   3.207
15589TIP3    H168258   3.076   4.143   3.264
15589TIP3    H268259   2.963   4.056   3.217
15590TIP3   OH268260   3.078   4.101   2.310
15590TIP3    H168261   3.101   4.150   2.228
15590TIP3    H268262   3.135   4.145   2.375
15591TIP3   OH268263   2.846   5.317   2.193
15591TIP3    H168264   2.764   5.370   2.199
15591TIP3    H268265   2.899   5.370   2.132
15592TIP3   OH268266   2.799   4.277   2.392
15592TIP3    H168267   2.879   4.333   2.397
15592TIP3    H268268   2.774   4.264   2.485
15593TIP3   OH268269   2.830   4.373   3.310
15593TIP3    H168270   2.843   4.433   3.387
15593TIP3    H268271   2.891   4.298   3.316
15594TIP3   OH268272   2.885   3.983   2.483
15594TIP3    H168273   2.853   4.048   2.548
15594TIP3    H268274   2.954   4.037   2.437
15595TIP3   OH268275   2.584   5.420   2.194
15595TIP3    H168276   2.595   5.503   2.140
15595TIP3    H268277   2.559   5.456   2.282
15596TIP3   OH268278   2.451   4.092   2.153
15596TIP3    H168279   2.446   4.182   2.190
15596TIP3    H268280   2.542   4.067   2.179
15597TIP3   OH268281   3.473   4.165   3.396
15597TIP3    H168282   3.381   4.195   3.383
15597TIP3    H268283   3.505   4.164   3.304
15598TIP3   OH268284   3.333   4.544   2.800
15598TIP3    H168285   3.252   4.500   2.770
15598TIP3    H268286   3.381   4.474   2.851
15599TIP3   OH268287   2.275   5.136   2.058
15599TIP3    H168288   2.339   5.202   2.088
15599TIP3    H268289   2.326   5.091   1.988
15600TIP3   OH268290   2.109   4.403   1.971
15600TIP3    H168291   2.109   4.499   1.991
15600TIP3    H268292   2.020   4.383   1.942
15601TIP3   OH268293   3.440   5.469   2.965
15601TIP3    H168294   3.430   5.538   2.897
15601TIP3    H268295   3.536   5.476   2.983
15602TIP3   OH268296   2.191   3.882   2.843
15602TIP3    H168297   2.169   3.885   2.747
15602TIP3    H268298   2.147   3.798   2.870
15603TIP3   OH268299   2.086   5.274   2.458
15603TIP3    H168300   2.001   5.320   2.456
15603TIP3    H268301   2.135   5.323   2.392
15604TIP3   OH268302   2.008   5.539   3.588
15604TIP3    H168303   2.067   5.517   3.663
15604TIP3    H268304   1.965   5.453   3.570
15605TIP3   OH268305   2.473   5.430   3.750
15605TIP3    H168306   2.550   5.381   3.783
15605TIP3    H268307   2.471   5.404   3.656
15606TIP3   OH268308   2.886   5.382   1.889
15606TIP3    H168309   2.818   5.316   1.915
15606TIP3    H268310   2.959   5.323   1.865
15607TIP3   OH268311   3.127   5.268   3.623
15607TIP3    H168312   3.094   5.180   3.650
15607TIP3    H268313   3.202   5.281   3.684
15608TIP3   OH268314   3.343   5.358   1.909
15608TIP3    H168315   3.372   5.280   1.958
15608TIP3    H268316   3.419   5.381   1.853
15609TIP3   OH268317   2.000   4.917   3.687
15609TIP3    H168318   2.016   4.826   3.656
15609TIP3    H268319   1.924   4.943   3.632
15610TIP3   OH268320   2.433   4.951   1.892
15610TIP3    H168321   2.446   4.873   1.949
15610TIP3    H268322   2.506   4.939   1.828
15611TIP3   OH268323   2.669   4.915   3.627
15611TIP3    H168324   2.635   4.944   3.540
15611TIP3    H268325   2.679   4.817   3.617
15612TIP3   OH268326   2.974   5.060   1.868
15612TIP3    H168327   2.947   5.071   1.961
15612TIP3    H268328   2.954   4.965   1.855
15613TIP3   OH268329   3.238   4.901   3.365
15613TIP3    H168330   3.316   4.960   3.357
15613TIP3    H268331   3.168   4.968   3.370
15614TIP3   OH268332   2.089   4.639   3.626
15614TIP3    H168333   2.129   4.552   3.616
15614TIP3    H268334   2.064   4.639   3.720
15615TIP3   OH268335   2.552   4.752   2.131
15615TIP3    H168336   2.504   4.699   2.196
15615TIP3    H268337   2.581   4.683   2.065
15616TIP3   OH268338   2.482   4.535   3.363
15616TIP3    H168339   2.420   4.605   3.389
15616TIP3    H268340   2.516   4.571   3.279
15617TIP3   OH268341   2.659   4.574   1.953
15617TIP3    H168342   2.643   4.563   1.857
15617TIP3    H268343   2.757   4.581   1.959
15618TIP3   OH268344   2.986   4.786   3.691
15618TIP3    H168345   3.082   4.792   3.688
15618TIP3    H268346   2.969   4.714   3.753
15619TIP3   OH268347   3.595   4.807   1.896
15619TIP3    H168348   3.573   4.768   1.810
15619TIP3    H268349   3.602   4.903   1.875
15620TIP3   OH268350   2.521   4.272   3.469
15620TIP3    H168351   2.529   4.200   3.405
15620TIP3    H268352   2.514   4.352   3.413
15621TIP3   OH268353   2.560   4.111   3.223
15621TIP3    H168354   2.610   4.156   3.151
15621TIP3    H268355   2.471   4.101   3.181
15622TIP3   OH268356   2.717   4.656   3.248
15622TIP3    H168357   2.789   4.642   3.186
15622TIP3    H268358   2.678   4.740   3.216
15623TIP3   OH268359   3.154   4.435   3.739
15623TIP3    H168360   3.177   4.341   3.737
15623TIP3    H268361   3.241   4.478   3.749
15624TIP3   OH268362   3.287   4.712   3.557
15624TIP3    H168363   3.263   4.787   3.498
15624TIP3    H268364   3.384   4.710   3.541
15625TIP3   OH268365   2.364   4.396   3.662
15625TIP3    H168366   2.288   4.338   3.642
15625TIP3    H268367   2.431   4.361   3.600
15626TIP3   OH268368   2.639   3.853   3.264
15626TIP3    H168369   2.623   3.950   3.252
15626TIP3    H268370   2.563   3.817   3.213
15627TIP3   OH268371   2.766   4.286   3.622
15627TIP3    H168372   2.736   4.264   3.713
15627TIP3    H268373   2.685   4.266   3.571
15628TIP3   OH268374   3.036   4.204   3.528
15628TIP3    H168375   2.940   4.203   3.545
15628TIP3    H268376   3.065   4.138   3.596
15629TIP3   OH268377   3.195   4.064   3.723
15629TIP3    H168378   3.192   3.967   3.726
15629TIP3    H268379   3.170   4.092   3.814
15630TIP3   OH268380   2.175   4.189   3.634
15630TIP3    H168381   2.201   4.117   3.574
15630TIP3    H268382   2.167   4.145   3.720
15631TIP3   OH268383   2.658   3.786   3.534
15631TIP3    H168384   2.731   3.722   3.525
15631TIP3    H268385   2.650   3.810   3.439
15632TIP3   OH268386   2.694   3.950   3.742
15632TIP3    H168387   2.680   3.907   3.654
15632TIP3    H268388   2.637   4.030   3.732
15633TIP3   OH268389   2.644   5.644   2.059
15633TIP3    H168390   2.741   5.656   2.067
15633TIP3    H268391   2.627   5.707   1.988
15634TIP3   OH268392   2.001   5.104   2.006
15634TIP3    H168393   2.097   5.112   2.027
15634TIP3    H268394   2.006   5.037   1.933
15635TIP3   OH268395   1.876   5.642   2.505
15635TIP3    H168396   1.805   5.594   2.457
15635TIP3    H268397   1.905   5.576   2.570
15636TIP3   OH268398   1.959   5.454   2.690
15636TIP3    H168399   1.924   5.366   2.710
15636TIP3    H268400   1.981   5.487   2.779
15637TIP3   OH268401   3.715   5.531   2.987
15637TIP3    H168402   3.714   5.553   3.081
15637TIP3    H268403   3.782   5.593   2.954
15638TIP3   OH268404   3.672   5.493   3.279
15638TIP3    H168405   3.621   5.417   3.243
15638TIP3    H268406   3.720   5.451   3.351
15639TIP3   OH268407   3.514   5.066   3.745
15639TIP3    H168408   3.425   5.062   3.784
15639TIP3    H268409   3.552   5.146   3.788
15640TIP3   OH268410   3.645   4.898   2.291
15640TIP3    H168411   3.732   4.937   2.309
15640TIP3    H268412   3.646   4.825   2.357
15641TIP3   OH268413   3.682   4.705   2.477
15641TIP3    H168414   3.609   4.654   2.519
15641TIP3    H268415   3.743   4.721   2.553
15642TIP3   OH268416   3.662   4.976   2.979
15642TIP3    H168417   3.741   4.939   2.937
15642TIP3    H268418   3.670   5.072   2.957
15643TIP3   OH268419   3.515   5.265   3.204
15643TIP3    H168420   3.445   5.300   3.263
15643TIP3    H268421   3.458   5.225   3.134
15644TIP3   OH268422   3.712   4.689   2.118
15644TIP3    H168423   3.657   4.725   2.045
15644TIP3    H268424   3.705   4.760   2.184
15645TIP3   OH268425   3.548   4.413   1.969
15645TIP3    H168426   3.557   4.479   1.901
15645TIP3    H268427   3.531   4.330   1.920
15646TIP3   OH268428   3.464   4.553   2.534
15646TIP3    H168429   3.449   4.458   2.532
15646TIP3    H268430   3.429   4.577   2.622
15647TIP3   OH268431   1.965   4.762   2.939
15647TIP3    H168432   1.984   4.753   2.843
15647TIP3    H268433   2.054   4.746   2.976
15648TIP3   OH268434   3.549   4.751   3.501
15648TIP3    H168435   3.610   4.675   3.517
15648TIP3    H268436   3.608   4.828   3.504
15649TIP3   OH268437   3.700   4.540   3.568
15649TIP3    H168438   3.612   4.499   3.552
15649TIP3    H268439   3.758   4.462   3.560
15650TIP3   OH268440   3.472   4.158   1.883
15650TIP3    H168441   3.533   4.116   1.947
15650TIP3    H268442   3.387   4.115   1.900
15651TIP3   OH268443   3.430   4.312   2.378
15651TIP3    H168444   3.462   4.220   2.393
15651TIP3    H268445   3.511   4.353   2.345
15652TIP3   OH268446   3.494   4.366   2.924
15652TIP3    H168447   3.590   4.390   2.922
15652TIP3    H268448   3.476   4.380   3.018
15653TIP3   OH268449   3.499   4.438   3.203
15653TIP3    H168450   3.413   4.469   3.236
15653TIP3    H268451   3.545   4.524   3.181
15654TIP3   OH268452   1.926   4.291   3.554
15654TIP3    H168453   2.020   4.272   3.574
15654TIP3    H268454   1.881   4.211   3.585
15655TIP3   OH268455   3.727   3.843   3.738
15655TIP3    H168456   3.763   3.777   3.675
15655TIP3    H268457   3.740   3.925   3.687
15656TIP3   OH268458   3.497   4.040   2.385
15656TIP3    H168459   3.517   3.995   2.470
15656TIP3    H268460   3.437   3.977   2.340
15657TIP3   OH268461   2.046   4.120   2.840
15657TIP3    H168462   2.093   4.039   2.868
15657TIP3    H268463   2.099   4.191   2.881
15658TIP3   OH268464   1.875   4.420   2.945
15658TIP3    H168465   1.931   4.397   2.868
15658TIP3    H268466   1.919   4.502   2.972
15659TIP3   OH268467   3.680   4.054   3.573
15659TIP3    H168468   3.586   4.080   3.568
15659TIP3    H268469   3.686   3.999   3.493
15660TIP3   OH268470   3.679   4.044   2.040
15660TIP3    H168471   3.723   3.973   1.988
15660TIP3    H268472   3.750   4.111   2.045
15661TIP3   OH268473   1.911   4.047   2.352
15661TIP3    H168474   1.817   4.065   2.337
15661TIP3    H268475   1.954   4.095   2.280
15662TIP3   OH268476   3.385   5.542   2.547
15662TIP3    H168477   3.453   5.510   2.485
15662TIP3    H268478   3.437   5.592   2.611
15663TIP3   OH268479   1.907   3.915   3.183
15663TIP3    H168480   1.839   3.894   3.250
15663TIP3    H268481   1.861   3.981   3.128
15664TIP3   OH268482   2.129   5.233   3.599
15664TIP3    H168483   2.045   5.254   3.554
15664TIP3    H268484   2.102   5.227   3.691
15665TIP3   OH268485   2.420   5.332   3.226
15665TIP3    H168486   2.384   5.418   3.198
15665TIP3    H268487   2.512   5.342   3.195
15666TIP3   OH268488   2.852   5.475   3.518
15666TIP3    H168489   2.868   5.440   3.609
15666TIP3    H268490   2.941   5.505   3.491
15667TIP3   OH268491   3.082   5.602   3.446
15667TIP3    H168492   3.154   5.542   3.423
15667TIP3    H268493   3.119   5.644   3.527
15668TIP3   OH268494   3.582   3.863   3.356
15668TIP3    H168495   3.498   3.893   3.315
15668TIP3    H268496   3.599   3.782   3.302
15669TIP3   OH268497   2.162   5.657   3.227
15669TIP3    H168498   2.089   5.706   3.186
15669TIP3    H268499   2.129   5.636   3.315
15670TIP3   OH268500   2.410   5.615   3.133
15670TIP3    H168501   2.320   5.628   3.173
15670TIP3    H268502   2.403   5.674   3.055
15671TIP3   OH268503   2.880   5.606   3.050
15671TIP3    H168504   2.833   5.661   2.985
15671TIP3    H268505   2.894   5.670   3.124
15672TIP3   OH268506   3.111   5.490   3.149
15672TIP3    H168507   3.023   5.514   3.117
15672TIP3    H268508   3.156   5.575   3.141
15673TIP3   OH268509   3.368   5.646   3.175
15673TIP3    H168510   3.359   5.742   3.152
15673TIP3    H268511   3.389   5.609   3.088
15674TIP3   OH268512   2.106   5.522   2.920
15674TIP3    H168513   2.100   5.477   3.007
15674TIP3    H268514   2.188   5.486   2.880
15675TIP3   OH268515   2.315   5.393   2.785
15675TIP3    H168516   2.298   5.300   2.807
15675TIP3    H268517   2.401   5.407   2.832
15676TIP3   OH268518   2.574   5.441   2.872
15676TIP3    H168519   2.592   5.349   2.845
15676TIP3    H268520   2.579   5.435   2.969
15677TIP3   OH268521   2.920   4.007   2.786
15677TIP3    H168522   2.855   3.941   2.813
15677TIP3    H268523   2.978   3.954   2.729
15678TIP3   OH268524   3.441   3.820   2.798
15678TIP3    H168525   3.498   3.874   2.741
15678TIP3    H268526   3.349   3.844   2.773
15679TIP3   OH268527   3.603   3.936   2.623
15679TIP3    H168528   3.670   3.878   2.579
15679TIP3    H268529   3.652   4.021   2.632
15680TIP3   OH268530   2.157   3.870   2.570
15680TIP3    H168531   2.078   3.848   2.518
15680TIP3    H268532   2.206   3.785   2.566
15681TIP3   OH268533   2.036   3.845   2.145
15681TIP3    H168534   2.084   3.910   2.090
15681TIP3    H268535   1.977   3.902   2.197
15682TIP3   OH268536   2.608   3.861   2.549
15682TIP3    H168537   2.698   3.899   2.545
15682TIP3    H268538   2.601   3.840   2.642
15683TIP3   OH268539   3.169   3.867   2.712
15683TIP3    H168540   3.175   3.872   2.617
15683TIP3    H268541   3.144   3.772   2.728
15684TIP3   OH268542   3.304   3.867   2.282
15684TIP3    H168543   3.230   3.927   2.264
15684TIP3    H268544   3.259   3.781   2.303
15685TIP3   OH268545   2.028   5.440   2.243
15685TIP3    H168546   1.960   5.439   2.173
15685TIP3    H268547   2.027   5.535   2.264
15686TIP3   OH268548   2.220   4.039   1.994
15686TIP3    H168549   2.272   3.977   1.941
15686TIP3    H268550   2.286   4.070   2.058
15687TIP3   OH268551   2.723   4.065   2.235
15687TIP3    H168552   2.746   4.006   2.309
15687TIP3    H268553   2.725   4.151   2.283
15688TIP3   OH268554   2.914   5.568   2.080
15688TIP3    H168555   3.004   5.596   2.058
15688TIP3    H268556   2.892   5.519   1.998
15689TIP3   OH268557   3.585   5.521   2.350
15689TIP3    H168558   3.565   5.444   2.292
15689TIP3    H268559   3.579   5.595   2.287
15690TIP3   OH268560   2.148   3.923   3.516
15690TIP3    H168561   2.110   3.846   3.560
15690TIP3    H268562   2.241   3.922   3.552
15691TIP3   OH268563   2.348   3.858   3.676
15691TIP3    H168564   2.438   3.829   3.656
15691TIP3    H268565   2.312   3.782   3.725
15692TIP3   OH268566   2.207   5.537   1.940
15692TIP3    H168567   2.182   5.564   2.030
15692TIP3    H268568   2.286   5.481   1.956
15693TIP3   OH268569   3.187   3.790   3.695
15693TIP3    H168570   3.199   3.744   3.780
15693TIP3    H268571   3.278   3.789   3.659
15694TIP3   OH268572   3.510   5.394   3.559
15694TIP3    H168573   3.428   5.380   3.506
15694TIP3    H268574   3.498   5.489   3.581
15695TIP3   OH268575   4.954   4.783   2.559
15695TIP3    H168576   4.953   4.881   2.553
15695TIP3    H268577   4.882   4.759   2.498
15696TIP3   OH268578   4.840   4.709   2.909
15696TIP3    H168579   4.838   4.643   2.978
15696TIP3    H268580   4.807   4.661   2.830
15697TIP3   OH268581   4.074   4.675   3.065
15697TIP3    H168582   4.082   4.607   3.135
15697TIP3    H268583   4.150   4.733   3.082
15698TIP3   OH268584   5.207   5.003   2.735
15698TIP3    H168585   5.165   4.932   2.784
15698TIP3    H268586   5.211   5.075   2.801
15699TIP3   OH268587   4.166   5.119   2.924
15699TIP3    H168588   4.136   5.036   2.878
15699TIP3    H268589   4.262   5.101   2.916
15700TIP3   OH268590   3.831   4.477   2.461
15700TIP3    H168591   3.788   4.565   2.455
15700TIP3    H268592   3.774   4.423   2.405
15701TIP3   OH268593   3.899   4.696   2.673
15701TIP3    H168594   3.929   4.618   2.722
15701TIP3    H268595   3.973   4.715   2.611
15702TIP3   OH268596   4.920   5.518   2.759
15702TIP3    H168597   4.984   5.448   2.731
15702TIP3    H268598   4.900   5.488   2.847
15703TIP3   OH268599   4.677   4.950   2.951
15703TIP3    H168600   4.711   4.885   2.888
15703TIP3    H268601   4.756   4.964   3.006
15704TIP3   OH268602   5.540   4.112   3.030
15704TIP3    H168603   5.553   4.175   3.104
15704TIP3    H268604   5.592   4.157   2.961
15705TIP3   OH268605   4.991   4.395   2.985
15705TIP3    H168606   5.010   4.299   2.983
15705TIP3    H268607   4.982   4.411   2.889
15706TIP3   OH268608   4.305   4.203   2.708
15706TIP3    H168609   4.315   4.288   2.661
15706TIP3    H268610   4.264   4.147   2.639
15707TIP3   OH268611   5.079   4.213   2.545
15707TIP3    H168612   5.145   4.182   2.611
15707TIP3    H268613   5.134   4.269   2.488
15708TIP3   OH268614   3.966   4.443   2.782
15708TIP3    H168615   4.036   4.389   2.826
15708TIP3    H268616   3.977   4.416   2.690
15709TIP3   OH268617   4.486   4.596   2.713
15709TIP3    H168618   4.552   4.539   2.753
15709TIP3    H268619   4.431   4.533   2.662
15710TIP3   OH268620   5.582   4.257   3.255
15710TIP3    H168621   5.518   4.331   3.244
15710TIP3    H268622   5.584   4.247   3.351
15711TIP3   OH268623   4.196   4.096   3.113
15711TIP3    H168624   4.166   4.149   3.036
15711TIP3    H268625   4.125   4.117   3.179
15712TIP3   OH268626   4.925   5.043   2.467
15712TIP3    H168627   4.898   5.014   2.379
15712TIP3    H268628   4.894   5.136   2.472
15713TIP3   OH268629   4.448   4.857   3.139
15713TIP3    H168630   4.376   4.923   3.155
15713TIP3    H268631   4.517   4.919   3.108
15714TIP3   OH268632   5.258   4.147   2.744
15714TIP3    H168633   5.237   4.069   2.797
15714TIP3    H268634   5.325   4.191   2.798
15715TIP3   OH268635   4.151   4.281   2.914
15715TIP3    H168636   4.214   4.349   2.945
15715TIP3    H268637   4.203   4.238   2.842
15716TIP3   OH268638   4.292   5.056   3.217
15716TIP3    H168639   4.289   5.147   3.182
15716TIP3    H268640   4.206   5.048   3.265
15717TIP3   OH268641   3.897   5.022   2.297
15717TIP3    H168642   3.874   5.053   2.208
15717TIP3    H268643   3.907   5.105   2.347
15718TIP3   OH268644   5.261   5.187   2.974
15718TIP3    H168645   5.164   5.197   2.985
15718TIP3    H268646   5.289   5.278   2.953
15719TIP3   OH268647   5.292   4.016   3.112
15719TIP3    H168648   5.219   4.079   3.105
15719TIP3    H268649   5.363   4.058   3.059
15720TIP3   OH268650   4.591   3.827   2.858
15720TIP3    H168651   4.578   3.730   2.852
15720TIP3    H268652   4.503   3.858   2.888
15721TIP3   OH268653   5.085   5.366   2.632
15721TIP3    H168654   5.131   5.294   2.582
15721TIP3    H268655   5.127   5.445   2.592
15722TIP3   OH268656   5.201   5.159   2.482
15722TIP3    H168657   5.179   5.087   2.422
15722TIP3    H268658   5.213   5.111   2.566
15723TIP3   OH268659   5.370   5.016   3.333
15723TIP3    H168660   5.385   4.953   3.259
15723TIP3    H268661   5.389   5.102   3.291
15724TIP3   OH268662   4.819   4.707   2.310
15724TIP3    H168663   4.749   4.763   2.273
15724TIP3    H268664   4.889   4.716   2.242
15725TIP3   OH268665   4.824   4.560   2.011
15725TIP3    H168666   4.895   4.558   2.077
15725TIP3    H268667   4.857   4.492   1.951
15726TIP3   OH268668   5.558   4.647   3.138
15726TIP3    H168669   5.492   4.720   3.143
15726TIP3    H268670   5.605   4.671   3.056
15727TIP3   OH268671   5.163   4.729   2.401
15727TIP3    H168672   5.088   4.752   2.461
15727TIP3    H268673   5.209   4.659   2.452
15728TIP3   OH268674   5.155   4.544   3.313
15728TIP3    H168675   5.157   4.625   3.367
15728TIP3    H268676   5.094   4.575   3.243
15729TIP3   OH268677   4.368   4.785   2.585
15729TIP3    H168678   4.297   4.760   2.521
15729TIP3    H268679   4.392   4.705   2.633
15730TIP3   OH268680   4.458   5.136   2.863
15730TIP3    H168681   4.453   5.080   2.783
15730TIP3    H268682   4.535   5.096   2.907
15731TIP3   OH268683   4.363   4.664   2.961
15731TIP3    H168684   4.412   4.681   2.878
15731TIP3    H268685   4.394   4.737   3.018
15732TIP3   OH268686   4.996   5.225   3.028
15732TIP3    H168687   4.969   5.288   3.095
15732TIP3    H268688   4.973   5.139   3.072
15733TIP3   OH268689   4.452   5.114   3.426
15733TIP3    H168690   4.415   5.186   3.478
15733TIP3    H268691   4.385   5.090   3.358
15734TIP3   OH268692   5.049   4.647   2.169
15734TIP3    H168693   5.106   4.664   2.248
15734TIP3    H268694   5.093   4.696   2.097
15735TIP3   OH268695   4.146   4.729   3.345
15735TIP3    H168696   4.150   4.794   3.418
15735TIP3    H268697   4.052   4.735   3.322
15736TIP3   OH268698   4.821   5.320   2.515
15736TIP3    H168699   4.866   5.350   2.595
15736TIP3    H268700   4.765   5.395   2.492
15737TIP3   OH268701   4.275   5.325   3.497
15737TIP3    H168702   4.271   5.294   3.407
15737TIP3    H268703   4.185   5.302   3.532
15738TIP3   OH268704   5.422   3.820   2.156
15738TIP3    H168705   5.328   3.834   2.182
15738TIP3    H268706   5.443   3.905   2.113
15739TIP3   OH268707   4.229   4.691   2.343
15739TIP3    H168708   4.194   4.776   2.309
15739TIP3    H268709   4.154   4.633   2.334
15740TIP3   OH268710   5.534   5.257   1.991
15740TIP3    H168711   5.549   5.351   2.011
15740TIP3    H268712   5.627   5.227   1.991
15741TIP3   OH268713   3.824   4.929   3.240
15741TIP3    H168714   3.779   4.920   3.153
15741TIP3    H268715   3.832   4.833   3.264
15742TIP3   OH268716   3.808   5.211   2.929
15742TIP3    H168717   3.903   5.203   2.914
15742TIP3    H268718   3.797   5.297   2.970
15743TIP3   OH268719   5.631   5.283   3.490
15743TIP3    H168720   5.620   5.186   3.487
15743TIP3    H268721   5.544   5.307   3.529
15744TIP3   OH268722   4.724   5.239   3.374
15744TIP3    H168723   4.734   5.321   3.428
15744TIP3    H268724   4.639   5.201   3.403
15745TIP3   OH268725   4.770   5.612   2.357
15745TIP3    H168726   4.759   5.603   2.261
15745TIP3    H268727   4.771   5.708   2.371
15746TIP3   OH268728   4.134   5.499   2.538
15746TIP3    H168729   4.148   5.457   2.625
15746TIP3    H268730   4.049   5.457   2.513
15747TIP3   OH268731   5.076   5.533   2.055
15747TIP3    H168732   5.119   5.456   2.011
15747TIP3    H268733   5.079   5.505   2.149
15748TIP3   OH268734   5.045   5.525   2.332
15748TIP3    H168735   4.950   5.533   2.350
15748TIP3    H268736   5.071   5.452   2.390
15749TIP3   OH268737   5.345   4.430   3.538
15749TIP3    H168738   5.299   4.476   3.465
15749TIP3    H268739   5.344   4.339   3.506
15750TIP3   OH268740   4.070   5.068   3.352
15750TIP3    H168741   4.091   5.029   3.441
15750TIP3    H268742   3.991   5.016   3.336
15751TIP3   OH268743   4.325   3.917   2.934
15751TIP3    H168744   4.235   3.906   2.896
15751TIP3    H268745   4.315   4.001   2.980
15752TIP3   OH268746   4.790   3.886   3.270
15752TIP3    H168747   4.830   3.843   3.349
15752TIP3    H268748   4.693   3.871   3.285
15753TIP3   OH268749   5.121   4.267   3.359
15753TIP3    H168750   5.066   4.248   3.439
15753TIP3    H268751   5.104   4.359   3.336
15754TIP3   OH268752   5.195   4.751   1.943
15754TIP3    H168753   5.197   4.730   1.847
15754TIP3    H268754   5.281   4.793   1.954
15755TIP3   OH268755   4.761   4.140   2.002
15755TIP3    H168756   4.724   4.137   2.093
15755TIP3    H268757   4.724   4.054   1.970
15756TIP3   OH268758   4.339   4.416   3.061
15756TIP3    H168759   4.260   4.411   3.118
15756TIP3    H268760   4.331   4.505   3.019
15757TIP3   OH268761   4.332   4.427   2.544
15757TIP3    H168762   4.239   4.402   2.530
15757TIP3    H268763   4.371   4.398   2.459
15758TIP3   OH268764   4.884   4.477   2.422
15758TIP3    H168765   4.843   4.559   2.388
15758TIP3    H268766   4.954   4.462   2.356
15759TIP3   OH268767   4.791   4.496   3.563
15759TIP3    H168768   4.738   4.421   3.601
15759TIP3    H268769   4.874   4.485   3.613
15760TIP3   OH268770   4.987   4.424   2.705
15760TIP3    H168771   4.961   4.481   2.630
15760TIP3    H268772   4.999   4.340   2.658
15761TIP3   OH268773   4.104   4.441   3.229
15761TIP3    H168774   4.102   4.483   3.317
15761TIP3    H268775   4.054   4.359   3.245
15762TIP3   OH268776   4.486   4.172   1.900
15762TIP3    H168777   4.426   4.144   1.973
15762TIP3    H268778   4.407   4.214   1.859
15763TIP3   OH268779   3.765   4.153   2.622
15763TIP3    H168780   3.832   4.149   2.693
15763TIP3    H268781   3.810   4.113   2.546
15764TIP3   OH268782   3.891   4.225   2.160
15764TIP3    H168783   3.943   4.285   2.104
15764TIP3    H268784   3.822   4.287   2.193
15765TIP3   OH268785   4.905   4.585   3.163
15765TIP3    H168786   4.946   4.519   3.103
15765TIP3    H268787   4.866   4.530   3.232
15766TIP3   OH268788   4.588   4.181   2.645
15766TIP3    H168789   4.495   4.183   2.675
15766TIP3    H268790   4.637   4.167   2.728
15767TIP3   OH268791   4.069   4.336   2.533
15767TIP3    H168792   3.982   4.353   2.493
15767TIP3    H268793   4.099   4.254   2.490
15768TIP3   OH268794   4.435   4.343   2.296
15768TIP3    H168795   4.530   4.353   2.310
15768TIP3    H268796   4.410   4.408   2.228
15769TIP3   OH268797   5.029   4.104   2.970
15769TIP3    H168798   4.960   4.111   3.039
15769TIP3    H268799   4.978   4.082   2.891
15770TIP3   OH268800   4.303   4.485   2.054
15770TIP3    H168801   4.254   4.421   1.994
15770TIP3    H268802   4.387   4.479   2.007
15771TIP3   OH268803   5.351   5.669   3.601
15771TIP3    H168804   5.377   5.709   3.516
15771TIP3    H268805   5.422   5.702   3.658
15772TIP3   OH268806   4.117   4.916   3.559
15772TIP3    H168807   4.189   4.940   3.620
15772TIP3    H268808   4.039   4.928   3.619
15773TIP3   OH268809   4.717   4.458   2.836
15773TIP3    H168810   4.775   4.404   2.779
15773TIP3    H268811   4.704   4.401   2.913
15774TIP3   OH268812   4.220   4.071   2.481
15774TIP3    H168813   4.188   3.980   2.474
15774TIP3    H268814   4.296   4.068   2.421
15775TIP3   OH268815   4.581   4.291   3.077
15775TIP3    H168816   4.496   4.341   3.082
15775TIP3    H268817   4.640   4.322   3.147
15776TIP3   OH268818   4.640   4.914   2.245
15776TIP3    H168819   4.560   4.866   2.213
15776TIP3    H268820   4.618   4.923   2.340
15777TIP3   OH268821   5.356   4.831   3.126
15777TIP3    H168822   5.414   4.879   3.065
15777TIP3    H268823   5.271   4.839   3.078
15778TIP3   OH268824   5.025   4.195   2.064
15778TIP3    H168825   4.930   4.209   2.050
15778TIP3    H268826   5.057   4.282   2.097
15779TIP3   OH268827   4.786   4.936   3.368
15779TIP3    H168828   4.755   4.898   3.451
15779TIP3    H268829   4.766   5.029   3.378
15780TIP3   OH268830   5.097   4.385   2.228
15780TIP3    H168831   5.186   4.372   2.265
15780TIP3    H268832   5.105   4.467   2.175
15781TIP3   OH268833   4.156   4.851   2.841
15781TIP3    H168834   4.212   4.848   2.759
15781TIP3    H268835   4.157   4.759   2.869
15782TIP3   OH268836   4.851   5.060   2.148
15782TIP3    H168837   4.816   5.144   2.185
15782TIP3    H268838   4.777   4.999   2.169
15783TIP3   OH268839   3.849   4.693   3.352
15783TIP3    H168840   3.869   4.648   3.437
15783TIP3    H268841   3.788   4.630   3.310
15784TIP3   OH268842   4.551   4.645   3.572
15784TIP3    H168843   4.520   4.625   3.484
15784TIP3    H268844   4.646   4.620   3.573
15785TIP3   OH268845   5.017   5.181   3.363
15785TIP3    H168846   4.925   5.200   3.340
15785TIP3    H268847   5.016   5.210   3.457
15786TIP3   OH268848   5.587   4.401   2.203
15786TIP3    H168849   5.530   4.370   2.131
15786TIP3    H268850   5.595   4.495   2.176
15787TIP3   OH268851   5.585   4.986   3.485
15787TIP3    H168852   5.496   5.008   3.448
15787TIP3    H268853   5.640   4.982   3.405
15788TIP3   OH268854   5.405   5.285   2.239
15788TIP3    H168855   5.382   5.201   2.280
15788TIP3    H268856   5.448   5.262   2.156
15789TIP3   OH268857   5.135   4.765   2.953
15789TIP3    H168858   5.041   4.743   2.944
15789TIP3    H268859   5.178   4.688   2.912
15790TIP3   OH268860   4.388   5.199   2.566
15790TIP3    H168861   4.438   5.278   2.542
15790TIP3    H268862   4.299   5.218   2.532
15791TIP3   OH268863   3.962   4.684   2.018
15791TIP3    H168864   4.023   4.746   2.062
15791TIP3    H268865   3.875   4.715   2.048
15792TIP3   OH268866   4.535   4.968   2.517
15792TIP3    H168867   4.498   5.058   2.525
15792TIP3    H268868   4.459   4.915   2.557
15793TIP3   OH268869   4.571   5.386   3.162
15793TIP3    H168870   4.621   5.462   3.126
15793TIP3    H268871   4.638   5.347   3.222
15794TIP3   OH268872   4.397   5.464   2.470
15794TIP3    H168873   4.301   5.477   2.482
15794TIP3    H268874   4.433   5.548   2.505
15795TIP3   OH268875   4.930   4.985   3.120
15795TIP3    H168876   4.893   4.964   3.208
15795TIP3    H268877   4.992   4.912   3.102
15796TIP3   OH268878   5.159   5.088   2.027
15796TIP3    H168879   5.189   5.042   2.109
15796TIP3    H268880   5.063   5.071   2.037
15797TIP3   OH268881   5.206   5.441   3.369
15797TIP3    H168882   5.140   5.390   3.319
15797TIP3    H268883   5.227   5.511   3.303
15798TIP3   OH268884   5.605   5.526   2.049
15798TIP3    H168885   5.677   5.591   2.035
15798TIP3    H268886   5.535   5.586   2.083
15799TIP3   OH268887   4.015   4.166   3.307
15799TIP3    H168888   3.924   4.201   3.304
15799TIP3    H268889   4.003   4.081   3.352
15800TIP3   OH268890   5.238   4.951   2.250
15800TIP3    H168891   5.215   4.875   2.307
15800TIP3    H268892   5.333   4.960   2.271
15801TIP3   OH268893   3.974   5.343   3.153
15801TIP3    H168894   4.013   5.257   3.144
15801TIP3    H268895   4.002   5.377   3.240
15802TIP3   OH268896   4.570   5.196   1.875
15802TIP3    H168897   4.585   5.119   1.818
15802TIP3    H268898   4.532   5.153   1.955
15803TIP3   OH268899   4.455   5.150   2.119
15803TIP3    H168900   4.474   5.098   2.199
15803TIP3    H268901   4.459   5.243   2.153
15804TIP3   OH268902   4.101   4.875   2.165
15804TIP3    H168903   4.036   4.911   2.229
15804TIP3    H268904   4.156   4.952   2.146
15805TIP3   OH268905   4.884   4.145   3.203
15805TIP3    H168906   4.959   4.148   3.265
15805TIP3    H268907   4.850   4.054   3.219
15806TIP3   OH268908   4.963   4.102   2.310
15806TIP3    H168909   4.985   4.149   2.227
15806TIP3    H268910   5.020   4.145   2.374
15807TIP3   OH268911   4.732   5.317   2.193
15807TIP3    H168912   4.650   5.370   2.199
15807TIP3    H268913   4.785   5.370   2.132
15808TIP3   OH268914   4.684   4.277   2.392
15808TIP3    H168915   4.764   4.333   2.396
15808TIP3    H268916   4.659   4.263   2.485
15809TIP3   OH268917   4.743   4.376   3.313
15809TIP3    H168918   4.759   4.433   3.392
15809TIP3    H268919   4.809   4.306   3.321
15810TIP3   OH268920   4.771   3.983   2.484
15810TIP3    H168921   4.738   4.048   2.548
15810TIP3    H268922   4.839   4.037   2.437
15811TIP3   OH268923   4.469   5.420   2.194
15811TIP3    H168924   4.481   5.502   2.141
15811TIP3    H268925   4.445   5.455   2.282
15812TIP3   OH268926   4.340   4.077   2.186
15812TIP3    H168927   4.330   4.175   2.185
15812TIP3    H268928   4.436   4.068   2.178
15813TIP3   OH268929   5.360   4.164   3.396
15813TIP3    H168930   5.267   4.196   3.384
15813TIP3    H268931   5.389   4.166   3.304
15814TIP3   OH268932   5.219   4.544   2.800
15814TIP3    H168933   5.137   4.500   2.770
15814TIP3    H268934   5.266   4.474   2.851
15815TIP3   OH268935   4.160   5.137   2.057
15815TIP3    H168936   4.226   5.201   2.089
15815TIP3    H268937   4.212   5.090   1.988
15816TIP3   OH268938   3.989   4.405   1.972
15816TIP3    H168939   3.994   4.500   1.991
15816TIP3    H268940   3.903   4.384   1.941
15817TIP3   OH268941   5.325   5.470   2.967
15817TIP3    H168942   5.316   5.537   2.896
15817TIP3    H268943   5.422   5.475   2.982
15818TIP3   OH268944   4.076   3.883   2.844
15818TIP3    H168945   4.055   3.885   2.747
15818TIP3    H268946   4.032   3.799   2.870
15819TIP3   OH268947   3.971   5.276   2.459
15819TIP3    H168948   3.886   5.320   2.456
15819TIP3    H268949   4.021   5.322   2.391
15820TIP3   OH268950   3.897   5.537   3.585
15820TIP3    H168951   3.951   5.518   3.664
15820TIP3    H268952   3.849   5.454   3.572
15821TIP3   OH268953   4.359   5.431   3.750
15821TIP3    H168954   4.435   5.381   3.785
15821TIP3    H268955   4.357   5.402   3.657
15822TIP3   OH268956   4.771   5.382   1.889
15822TIP3    H168957   4.704   5.316   1.915
15822TIP3    H268958   4.844   5.323   1.865
15823TIP3   OH268959   5.012   5.268   3.623
15823TIP3    H168960   4.980   5.180   3.650
15823TIP3    H268961   5.088   5.281   3.684
15824TIP3   OH268962   5.228   5.358   1.909
15824TIP3    H168963   5.258   5.280   1.958
15824TIP3    H268964   5.304   5.381   1.854
15825TIP3   OH268965   3.887   4.918   3.684
15825TIP3    H168966   3.901   4.825   3.658
15825TIP3    H268967   3.808   4.942   3.634
15826TIP3   OH268968   4.318   4.951   1.893
15826TIP3    H168969   4.331   4.873   1.949
15826TIP3    H268970   4.391   4.938   1.829
15827TIP3   OH268971   4.555   4.914   3.626
15827TIP3    H168972   4.521   4.945   3.540
15827TIP3    H268973   4.565   4.817   3.617
15828TIP3   OH268974   4.861   5.061   1.868
15828TIP3    H168975   4.833   5.071   1.961
15828TIP3    H268976   4.840   4.965   1.855
15829TIP3   OH268977   5.125   4.902   3.365
15829TIP3    H168978   5.203   4.962   3.357
15829TIP3    H268979   5.054   4.967   3.370
15830TIP3   OH268980   3.972   4.639   3.625
15830TIP3    H168981   4.015   4.553   3.616
15830TIP3    H268982   3.949   4.639   3.720
15831TIP3   OH268983   4.441   4.753   2.131
15831TIP3    H168984   4.388   4.701   2.196
15831TIP3    H268985   4.465   4.683   2.066
15832TIP3   OH268986   4.360   4.540   3.362
15832TIP3    H168987   4.299   4.609   3.392
15832TIP3    H268988   4.390   4.580   3.279
15833TIP3   OH268989   4.546   4.576   1.953
15833TIP3    H168990   4.528   4.562   1.858
15833TIP3    H268991   4.643   4.581   1.958
15834TIP3   OH268992   4.871   4.789   3.693
15834TIP3    H168993   4.967   4.791   3.685
15834TIP3    H268994   4.855   4.713   3.752
15835TIP3   OH268995   5.481   4.807   1.896
15835TIP3    H168996   5.458   4.768   1.811
15835TIP3    H268997   5.488   4.903   1.875
15836TIP3   OH268998   4.411   4.274   3.468
15836TIP3    H168999   4.414   4.197   3.407
15836TIP3    H269000   4.390   4.351   3.415
15837TIP3   OH269001   4.444   4.115   3.224
15837TIP3    H169002   4.497   4.153   3.150
15837TIP3    H269003   4.356   4.099   3.181
15838TIP3   OH269004   4.600   4.654   3.245
15838TIP3    H169005   4.677   4.645   3.187
15838TIP3    H269006   4.566   4.742   3.215
15839TIP3   OH269007   5.040   4.435   3.745
15839TIP3    H169008   5.062   4.341   3.735
15839TIP3    H269009   5.127   4.478   3.746
15840TIP3   OH269010   5.173   4.713   3.559
15840TIP3    H169011   5.147   4.786   3.497
15840TIP3    H269012   5.269   4.710   3.540
15841TIP3   OH269013   4.251   4.397   3.659
15841TIP3    H169014   4.173   4.339   3.643
15841TIP3    H269015   4.317   4.358   3.600
15842TIP3   OH269016   4.524   3.854   3.263
15842TIP3    H169017   4.509   3.950   3.252
15842TIP3    H269018   4.449   3.818   3.213
15843TIP3   OH269019   4.650   4.289   3.622
15843TIP3    H169020   4.623   4.263   3.713
15843TIP3    H269021   4.570   4.263   3.572
15844TIP3   OH269022   4.922   4.201   3.530
15844TIP3    H169023   4.827   4.203   3.544
15844TIP3    H269024   4.952   4.137   3.598
15845TIP3   OH269025   5.082   4.063   3.724
15845TIP3    H169026   5.076   3.966   3.726
15845TIP3    H269027   5.055   4.092   3.814
15846TIP3   OH269028   4.061   4.189   3.634
15846TIP3    H169029   4.086   4.116   3.574
15846TIP3    H269030   4.053   4.143   3.720
15847TIP3   OH269031   4.545   3.790   3.532
15847TIP3    H169032   4.615   3.721   3.529
15847TIP3    H269033   4.535   3.809   3.437
15848TIP3   OH269034   4.582   3.953   3.741
15848TIP3    H169035   4.566   3.904   3.657
15848TIP3    H269036   4.521   4.029   3.733
15849TIP3   OH269037   4.529   5.645   2.059
15849TIP3    H169038   4.627   5.654   2.068
15849TIP3    H269039   4.514   5.707   1.988
15850TIP3   OH269040   3.886   5.104   2.006
15850TIP3    H169041   3.983   5.112   2.028
15850TIP3    H269042   3.892   5.037   1.933
15851TIP3   OH269043   3.761   5.642   2.506
15851TIP3    H169044   3.691   5.594   2.457
15851TIP3    H269045   3.791   5.575   2.570
15852TIP3   OH269046   3.845   5.454   2.690
15852TIP3    H169047   3.810   5.365   2.708
15852TIP3    H269048   3.867   5.488   2.778
15853TIP3   OH269049   5.597   5.535   2.988
15853TIP3    H169050   5.600   5.552   3.083
15853TIP3    H269051   5.668   5.591   2.954
15854TIP3   OH269052   5.556   5.494   3.280
15854TIP3    H169053   5.508   5.417   3.242
15854TIP3    H269054   5.607   5.449   3.350
15855TIP3   OH269055   5.400   5.067   3.745
15855TIP3    H169056   5.311   5.062   3.783
15855TIP3    H269057   5.438   5.146   3.788
15856TIP3   OH269058   5.532   4.895   2.289
15856TIP3    H169059   5.615   4.940   2.310
15856TIP3    H269060   5.531   4.825   2.358
15857TIP3   OH269061   5.568   4.703   2.477
15857TIP3    H169062   5.494   4.654   2.518
15857TIP3    H269063   5.627   4.722   2.553
15858TIP3   OH269064   5.544   4.976   2.978
15858TIP3    H169065   5.626   4.940   2.939
15858TIP3    H269066   5.558   5.072   2.959
15859TIP3   OH269067   5.398   5.266   3.204
15859TIP3    H169068   5.329   5.300   3.264
15859TIP3    H269069   5.343   5.225   3.134
15860TIP3   OH269070   5.598   4.689   2.118
15860TIP3    H169071   5.542   4.725   2.045
15860TIP3    H269072   5.590   4.760   2.184
15861TIP3   OH269073   5.434   4.412   1.969
15861TIP3    H169074   5.442   4.480   1.901
15861TIP3    H269075   5.417   4.330   1.920
15862TIP3   OH269076   5.349   4.553   2.534
15862TIP3    H169077   5.334   4.458   2.532
15862TIP3    H269078   5.315   4.577   2.622
15863TIP3   OH269079   3.851   4.763   2.939
15863TIP3    H169080   3.870   4.754   2.843
15863TIP3    H269081   3.940   4.744   2.974
15864TIP3   OH269082   5.435   4.750   3.502
15864TIP3    H169083   5.495   4.675   3.517
15864TIP3    H269084   5.494   4.828   3.503
15865TIP3   OH269085   5.585   4.540   3.569
15865TIP3    H169086   5.497   4.499   3.552
15865TIP3    H269087   5.644   4.464   3.560
15866TIP3   OH269088   5.359   4.158   1.883
15866TIP3    H169089   5.418   4.116   1.947
15866TIP3    H269090   5.273   4.115   1.900
15867TIP3   OH269091   5.316   4.312   2.378
15867TIP3    H169092   5.347   4.220   2.393
15867TIP3    H269093   5.397   4.353   2.345
15868TIP3   OH269094   5.380   4.366   2.925
15868TIP3    H169095   5.476   4.390   2.923
15868TIP3    H269096   5.360   4.380   3.018
15869TIP3   OH269097   5.386   4.440   3.203
15869TIP3    H169098   5.299   4.469   3.236
15869TIP3    H269099   5.430   4.525   3.181
15870TIP3   OH269100   3.812   4.291   3.553
15870TIP3    H169101   3.906   4.272   3.574
15870TIP3    H269102   3.767   4.210   3.585
15871TIP3   OH269103   5.617   3.843   3.738
15871TIP3    H169104   5.645   3.773   3.677
15871TIP3    H269105   5.619   3.928   3.693
15872TIP3   OH269106   5.383   4.040   2.385
15872TIP3    H169107   5.403   3.995   2.470
15872TIP3    H269108   5.322   3.977   2.340
15873TIP3   OH269109   3.932   4.120   2.840
15873TIP3    H169110   3.978   4.039   2.868
15873TIP3    H269111   3.984   4.191   2.881
15874TIP3   OH269112   3.760   4.419   2.945
15874TIP3    H169113   3.816   4.396   2.867
15874TIP3    H269114   3.804   4.501   2.972
15875TIP3   OH269115   5.563   4.053   3.572
15875TIP3    H169116   5.469   4.083   3.569
15875TIP3    H269117   5.559   4.004   3.488
15876TIP3   OH269118   5.566   4.044   2.041
15876TIP3    H169119   5.607   3.972   1.988
15876TIP3    H269120   5.636   4.111   2.045
15877TIP3   OH269121   3.798   4.048   2.352
15877TIP3    H169122   3.703   4.065   2.337
15877TIP3    H269123   3.841   4.095   2.279
15878TIP3   OH269124   5.270   5.544   2.546
15878TIP3    H169125   5.339   5.509   2.486
15878TIP3    H269126   5.324   5.590   2.611
15879TIP3   OH269127   3.792   3.915   3.183
15879TIP3    H169128   3.725   3.894   3.250
15879TIP3    H269129   3.746   3.981   3.128
15880TIP3   OH269130   4.014   5.233   3.596
15880TIP3    H169131   3.929   5.255   3.556
15880TIP3    H269132   3.989   5.226   3.690
15881TIP3   OH269133   4.301   5.316   3.208
15881TIP3    H169134   4.261   5.399   3.182
15881TIP3    H269135   4.397   5.329   3.188
15882TIP3   OH269136   4.736   5.475   3.517
15882TIP3    H169137   4.754   5.440   3.608
15882TIP3    H269138   4.826   5.505   3.491
15883TIP3   OH269139   4.967   5.602   3.446
15883TIP3    H169140   5.040   5.542   3.423
15883TIP3    H269141   5.005   5.644   3.527
15884TIP3   OH269142   5.470   3.864   3.358
15884TIP3    H169143   5.385   3.893   3.316
15884TIP3    H269144   5.485   3.783   3.303
15885TIP3   OH269145   4.048   5.653   3.228
15885TIP3    H169146   3.976   5.706   3.186
15885TIP3    H269147   4.011   5.640   3.316
15886TIP3   OH269148   4.293   5.616   3.134
15886TIP3    H169149   4.202   5.635   3.167
15886TIP3    H269150   4.289   5.674   3.054
15887TIP3   OH269151   4.762   5.605   3.052
15887TIP3    H169152   4.720   5.661   2.984
15887TIP3    H269153   4.782   5.671   3.123
15888TIP3   OH269154   4.996   5.490   3.149
15888TIP3    H169155   4.908   5.514   3.117
15888TIP3    H269156   5.042   5.575   3.141
15889TIP3   OH269157   5.254   5.646   3.176
15889TIP3    H169158   5.244   5.742   3.153
15889TIP3    H269159   5.275   5.609   3.088
15890TIP3   OH269160   3.992   5.522   2.921
15890TIP3    H169161   3.985   5.477   3.007
15890TIP3    H269162   4.073   5.487   2.879
15891TIP3   OH269163   4.199   5.395   2.790
15891TIP3    H169164   4.184   5.300   2.801
15891TIP3    H269165   4.288   5.407   2.831
15892TIP3   OH269166   4.459   5.441   2.873
15892TIP3    H169167   4.478   5.349   2.845
15892TIP3    H269168   4.466   5.434   2.968
15893TIP3   OH269169   4.807   4.006   2.787
15893TIP3    H169170   4.739   3.942   2.813
15893TIP3    H269171   4.863   3.954   2.727
15894TIP3   OH269172   5.321   3.813   2.795
15894TIP3    H169173   5.382   3.871   2.744
15894TIP3    H269174   5.233   3.848   2.771
15895TIP3   OH269175   5.489   3.934   2.624
15895TIP3    H169176   5.557   3.878   2.579
15895TIP3    H269177   5.537   4.020   2.632
15896TIP3   OH269178   4.042   3.869   2.573
15896TIP3    H169179   3.964   3.848   2.518
15896TIP3    H269180   4.091   3.785   2.566
15897TIP3   OH269181   3.919   3.843   2.146
15897TIP3    H169182   3.970   3.908   2.091
15897TIP3    H269183   3.863   3.904   2.197
15898TIP3   OH269184   4.494   3.861   2.549
15898TIP3    H169185   4.583   3.899   2.544
15898TIP3    H269186   4.487   3.840   2.642
15899TIP3   OH269187   5.060   3.864   2.714
15899TIP3    H169188   5.059   3.874   2.618
15899TIP3    H269189   5.024   3.773   2.726
15900TIP3   OH269190   5.190   3.867   2.282
15900TIP3    H169191   5.116   3.927   2.264
15900TIP3    H269192   5.145   3.782   2.301
15901TIP3   OH269193   3.914   5.440   2.243
15901TIP3    H169194   3.846   5.439   2.173
15901TIP3    H269195   3.912   5.535   2.264
15902TIP3   OH269196   4.089   3.998   2.009
15902TIP3    H169197   4.153   3.978   1.940
15902TIP3    H269198   4.151   4.066   2.049
15903TIP3   OH269199   4.612   4.065   2.235
15903TIP3    H169200   4.630   4.005   2.309
15903TIP3    H269201   4.611   4.151   2.283
15904TIP3   OH269202   4.799   5.568   2.080
15904TIP3    H169203   4.890   5.596   2.058
15904TIP3    H269204   4.777   5.519   1.998
15905TIP3   OH269205   5.467   5.524   2.350
15905TIP3    H169206   5.453   5.443   2.295
15905TIP3    H269207   5.464   5.596   2.285
15906TIP3   OH269208   4.033   3.923   3.517
15906TIP3    H169209   3.996   3.843   3.560
15906TIP3    H269210   4.125   3.920   3.553
15907TIP3   OH269211   4.233   3.860   3.678
15907TIP3    H169212   4.323   3.827   3.657
15907TIP3    H269213   4.196   3.781   3.720
15908TIP3   OH269214   4.095   5.541   1.940
15908TIP3    H169215   4.066   5.562   2.030
15908TIP3    H269216   4.170   5.480   1.956
15909TIP3   OH269217   5.073   3.791   3.694
15909TIP3    H169218   5.083   3.744   3.779
15909TIP3    H269219   5.164   3.788   3.660
15910TIP3   OH269220   5.394   5.395   3.560
15910TIP3    H169221   5.314   5.380   3.506
15910TIP3    H269222   5.383   5.490   3.581
15911TIP3   OH269223   6.837   4.783   2.560
15911TIP3    H169224   6.841   4.881   2.552
15911TIP3    H269225   6.767   4.759   2.497
15912TIP3   OH269226   6.725   4.710   2.907
15912TIP3    H169227   6.722   4.644   2.978
15912TIP3    H269228   6.692   4.660   2.831
15913TIP3   OH269229   5.960   4.675   3.063
15913TIP3    H169230   5.968   4.608   3.134
15913TIP3    H269231   6.034   4.733   3.084
15914TIP3   OH269232   7.094   5.003   2.735
15914TIP3    H169233   7.053   4.931   2.784
15914TIP3    H269234   7.099   5.073   2.802
15915TIP3   OH269235   6.053   5.120   2.915
15915TIP3    H169236   6.020   5.035   2.881
15915TIP3    H269237   6.148   5.101   2.920
15916TIP3   OH269238   5.717   4.478   2.461
15916TIP3    H169239   5.672   4.565   2.455
15916TIP3    H269240   5.660   4.424   2.405
15917TIP3   OH269241   5.787   4.699   2.674
15917TIP3    H169242   5.813   4.618   2.722
15917TIP3    H269243   5.859   4.709   2.610
15918TIP3   OH269244   6.808   5.519   2.759
15918TIP3    H169245   6.871   5.447   2.731
15918TIP3    H269246   6.785   5.490   2.847
15919TIP3   OH269247   6.562   4.950   2.951
15919TIP3    H169248   6.596   4.885   2.888
15919TIP3    H269249   6.641   4.965   3.006
15920TIP3   OH269250   6.878   4.395   2.984
15920TIP3    H169251   6.895   4.300   2.983
15920TIP3    H269252   6.868   4.410   2.887
15921TIP3   OH269253   6.191   4.204   2.708
15921TIP3    H169254   6.200   4.288   2.660
15921TIP3    H269255   6.150   4.147   2.640
15922TIP3   OH269256   6.965   4.216   2.546
15922TIP3    H169257   7.031   4.182   2.611
15922TIP3    H269258   7.020   4.269   2.488
15923TIP3   OH269259   5.853   4.445   2.782
15923TIP3    H169260   5.921   4.389   2.826
15923TIP3    H269261   5.862   4.414   2.690
15924TIP3   OH269262   6.370   4.600   2.710
15924TIP3    H169263   6.435   4.543   2.753
15924TIP3    H269264   6.316   4.534   2.663
15925TIP3   OH269265   6.079   4.093   3.113
15925TIP3    H169266   6.053   4.150   3.037
15925TIP3    H269267   6.011   4.119   3.179
15926TIP3   OH269268   6.806   5.041   2.467
15926TIP3    H169269   6.783   5.014   2.378
15926TIP3    H269270   6.781   5.136   2.471
15927TIP3   OH269271   6.333   4.859   3.138
15927TIP3    H169272   6.261   4.923   3.156
15927TIP3    H269273   6.403   4.919   3.108
15928TIP3   OH269274   7.129   4.145   2.750
15928TIP3    H169275   7.121   4.066   2.801
15928TIP3    H269276   7.203   4.192   2.795
15929TIP3   OH269277   6.036   4.281   2.913
15929TIP3    H169278   6.099   4.348   2.946
15929TIP3    H269279   6.089   4.238   2.841
15930TIP3   OH269280   6.176   5.058   3.219
15930TIP3    H169281   6.172   5.149   3.183
15930TIP3    H269282   6.088   5.051   3.263
15931TIP3   OH269283   5.789   5.021   2.297
15931TIP3    H169284   5.757   5.053   2.211
15931TIP3    H269285   5.787   5.105   2.349
15932TIP3   OH269286   7.139   5.184   2.980
15932TIP3    H169287   7.043   5.196   2.985
15932TIP3    H269288   7.172   5.273   2.954
15933TIP3   OH269289   7.170   4.022   3.102
15933TIP3    H169290   7.097   4.086   3.104
15933TIP3    H269291   7.241   4.068   3.056
15934TIP3   OH269292   6.477   3.827   2.858
15934TIP3    H169293   6.464   3.730   2.852
15934TIP3    H269294   6.389   3.858   2.888
15935TIP3   OH269295   6.968   5.364   2.633
15935TIP3    H169296   7.016   5.293   2.583
15935TIP3    H269297   7.011   5.443   2.594
15936TIP3   OH269298   7.071   5.159   2.482
15936TIP3    H169299   7.066   5.084   2.422
15936TIP3    H269300   7.102   5.112   2.564
15937TIP3   OH269301   7.236   5.025   3.338
15937TIP3    H169302   7.267   4.958   3.273
15937TIP3    H269303   7.275   5.104   3.297
15938TIP3   OH269304   6.705   4.707   2.310
15938TIP3    H169305   6.634   4.763   2.273
15938TIP3    H269306   6.775   4.715   2.243
15939TIP3   OH269307   6.711   4.560   2.011
15939TIP3    H169308   6.782   4.559   2.077
15939TIP3    H269309   6.743   4.492   1.951
15940TIP3   OH269310   7.046   4.728   2.399
15940TIP3    H169311   6.975   4.754   2.462
15940TIP3    H269312   7.094   4.661   2.454
15941TIP3   OH269313   7.037   4.543   3.312
15941TIP3    H169314   7.042   4.623   3.365
15941TIP3    H269315   6.977   4.575   3.242
15942TIP3   OH269316   6.211   4.793   2.593
15942TIP3    H169317   6.178   4.755   2.508
15942TIP3    H269318   6.272   4.724   2.627
15943TIP3   OH269319   6.343   5.134   2.861
15943TIP3    H169320   6.339   5.079   2.781
15943TIP3    H269321   6.421   5.097   2.907
15944TIP3   OH269322   6.244   4.668   2.958
15944TIP3    H169323   6.301   4.680   2.879
15944TIP3    H269324   6.281   4.735   3.020
15945TIP3   OH269325   6.879   5.225   3.029
15945TIP3    H169326   6.856   5.288   3.096
15945TIP3    H269327   6.859   5.139   3.072
15946TIP3   OH269328   6.338   5.111   3.428
15946TIP3    H169329   6.300   5.188   3.475
15946TIP3    H269330   6.270   5.092   3.358
15947TIP3   OH269331   6.936   4.646   2.168
15947TIP3    H169332   6.991   4.664   2.248
15947TIP3    H269333   6.978   4.696   2.095
15948TIP3   OH269334   6.031   4.727   3.346
15948TIP3    H169335   6.036   4.794   3.417
15948TIP3    H269336   5.938   4.738   3.321
15949TIP3   OH269337   6.707   5.319   2.513
15949TIP3    H169338   6.751   5.350   2.594
15949TIP3    H269339   6.651   5.394   2.492
15950TIP3   OH269340   6.162   5.316   3.504
15950TIP3    H169341   6.158   5.304   3.407
15950TIP3    H269342   6.069   5.304   3.529
15951TIP3   OH269343   7.284   3.816   2.143
15951TIP3    H169344   7.199   3.839   2.186
15951TIP3    H269345   7.320   3.898   2.112
15952TIP3   OH269346   6.108   4.697   2.354
15952TIP3    H169347   6.079   4.775   2.303
15952TIP3    H269348   6.042   4.631   2.332
15953TIP3   OH269349   5.717   4.939   3.240
15953TIP3    H169350   5.670   4.931   3.155
15953TIP3    H269351   5.722   4.844   3.264
15954TIP3   OH269352   5.693   5.211   2.925
15954TIP3    H169353   5.788   5.201   2.917
15954TIP3    H269354   5.684   5.295   2.972
15955TIP3   OH269355   6.612   5.238   3.377
15955TIP3    H169356   6.617   5.322   3.426
15955TIP3    H269357   6.524   5.202   3.401
15956TIP3   OH269358   6.656   5.612   2.357
15956TIP3    H169359   6.645   5.603   2.261
15956TIP3    H269360   6.657   5.709   2.371
15957TIP3   OH269361   6.020   5.501   2.538
15957TIP3    H169362   6.033   5.457   2.625
15957TIP3    H269363   5.935   5.457   2.513
15958TIP3   OH269364   6.964   5.533   2.055
15958TIP3    H169365   7.004   5.455   2.011
15958TIP3    H269366   6.964   5.505   2.149
15959TIP3   OH269367   6.931   5.525   2.332
15959TIP3    H169368   6.835   5.533   2.350
15959TIP3    H269369   6.957   5.452   2.390
15960TIP3   OH269370   7.204   4.439   3.542
15960TIP3    H169371   7.184   4.479   3.458
15960TIP3    H269372   7.236   4.349   3.513
15961TIP3   OH269373   5.944   5.070   3.337
15961TIP3    H169374   5.966   5.033   3.425
15961TIP3    H269375   5.857   5.030   3.316
15962TIP3   OH269376   6.211   3.917   2.934
15962TIP3    H169377   6.121   3.906   2.896
15962TIP3    H269378   6.200   4.001   2.981
15963TIP3   OH269379   6.675   3.886   3.271
15963TIP3    H169380   6.715   3.844   3.349
15963TIP3    H269381   6.578   3.871   3.285
15964TIP3   OH269382   7.004   4.267   3.359
15964TIP3    H169383   6.951   4.249   3.439
15964TIP3    H269384   6.988   4.360   3.337
15965TIP3   OH269385   7.081   4.748   1.942
15965TIP3    H169386   7.083   4.728   1.846
15965TIP3    H269387   7.164   4.793   1.952
15966TIP3   OH269388   6.641   4.141   2.000
15966TIP3    H169389   6.610   4.137   2.093
15966TIP3    H269390   6.610   4.053   1.971
15967TIP3   OH269391   6.221   4.413   3.054
15967TIP3    H169392   6.149   4.412   3.120
15967TIP3    H269393   6.218   4.506   3.021
15968TIP3   OH269394   6.217   4.430   2.543
15968TIP3    H169395   6.125   4.401   2.531
15968TIP3    H269396   6.257   4.397   2.460
15969TIP3   OH269397   6.771   4.476   2.422
15969TIP3    H169398   6.730   4.559   2.387
15969TIP3    H269399   6.841   4.461   2.356
15970TIP3   OH269400   6.677   4.497   3.566
15970TIP3    H169401   6.624   4.421   3.598
15970TIP3    H269402   6.761   4.484   3.614
15971TIP3   OH269403   6.873   4.426   2.706
15971TIP3    H169404   6.848   4.481   2.630
15971TIP3    H269405   6.884   4.340   2.659
15972TIP3   OH269406   5.986   4.443   3.228
15972TIP3    H169407   5.990   4.483   3.317
15972TIP3    H269408   5.941   4.359   3.245
15973TIP3   OH269409   6.324   4.181   1.912
15973TIP3    H169410   6.279   4.137   1.987
15973TIP3    H269411   6.252   4.221   1.862
15974TIP3   OH269412   5.650   4.153   2.622
15974TIP3    H169413   5.717   4.149   2.693
15974TIP3    H269414   5.696   4.113   2.546
15975TIP3   OH269415   5.778   4.225   2.160
15975TIP3    H169416   5.827   4.287   2.103
15975TIP3    H269417   5.708   4.285   2.193
15976TIP3   OH269418   6.794   4.585   3.163
15976TIP3    H169419   6.831   4.517   3.103
15976TIP3    H269420   6.749   4.531   3.231
15977TIP3   OH269421   6.473   4.180   2.645
15977TIP3    H169422   6.380   4.183   2.675
15977TIP3    H269423   6.523   4.168   2.728
15978TIP3   OH269424   5.956   4.338   2.531
15978TIP3    H169425   5.866   4.352   2.493
15978TIP3    H269426   5.984   4.254   2.492
15979TIP3   OH269427   6.320   4.341   2.294
15979TIP3    H169428   6.415   4.353   2.312
15979TIP3    H269429   6.297   4.409   2.229
15980TIP3   OH269430   6.913   4.102   2.970
15980TIP3    H169431   6.845   4.111   3.040
15980TIP3    H269432   6.862   4.083   2.890
15981TIP3   OH269433   6.189   4.460   2.053
15981TIP3    H169434   6.136   4.421   1.981
15981TIP3    H269435   6.272   4.480   2.007
15982TIP3   OH269436   7.233   5.670   3.603
15982TIP3    H169437   7.264   5.707   3.519
15982TIP3    H269438   7.307   5.700   3.659
15983TIP3   OH269439   6.003   4.916   3.559
15983TIP3    H169440   6.075   4.941   3.619
15983TIP3    H269441   5.925   4.929   3.617
15984TIP3   OH269442   6.603   4.457   2.834
15984TIP3    H169443   6.663   4.403   2.781
15984TIP3    H269444   6.589   4.403   2.913
15985TIP3   OH269445   6.104   4.072   2.478
15985TIP3    H169446   6.073   3.979   2.475
15985TIP3    H269447   6.183   4.067   2.422
15986TIP3   OH269448   6.467   4.291   3.076
15986TIP3    H169449   6.384   4.342   3.086
15986TIP3    H269450   6.521   4.325   3.150
15987TIP3   OH269451   6.526   4.914   2.245
15987TIP3    H169452   6.446   4.866   2.212
15987TIP3    H269453   6.505   4.923   2.340
15988TIP3   OH269454   7.231   4.833   3.126
15988TIP3    H169455   7.295   4.864   3.059
15988TIP3    H269456   7.149   4.838   3.074
15989TIP3   OH269457   6.909   4.195   2.063
15989TIP3    H169458   6.813   4.209   2.049
15989TIP3    H269459   6.939   4.281   2.097
15990TIP3   OH269460   6.674   4.937   3.369
15990TIP3    H169461   6.640   4.897   3.449
15990TIP3    H269462   6.653   5.031   3.379
15991TIP3   OH269463   6.981   4.385   2.225
15991TIP3    H169464   7.069   4.373   2.265
15991TIP3    H269465   6.989   4.469   2.176
15992TIP3   OH269466   6.035   4.850   2.825
15992TIP3    H169467   6.106   4.844   2.758
15992TIP3    H269468   6.042   4.765   2.871
15993TIP3   OH269469   6.736   5.060   2.148
15993TIP3    H169470   6.702   5.144   2.185
15993TIP3    H269471   6.662   4.999   2.170
15994TIP3   OH269472   5.735   4.693   3.352
15994TIP3    H169473   5.754   4.649   3.437
15994TIP3    H269474   5.673   4.631   3.309
15995TIP3   OH269475   6.436   4.648   3.572
15995TIP3    H169476   6.406   4.621   3.484
15995TIP3    H269477   6.530   4.618   3.571
15996TIP3   OH269478   6.902   5.182   3.363
15996TIP3    H169479   6.809   5.198   3.339
15996TIP3    H269480   6.902   5.208   3.456
15997TIP3   OH269481   7.286   5.285   2.236
15997TIP3    H169482   7.266   5.202   2.283
15997TIP3    H269483   7.334   5.261   2.158
15998TIP3   OH269484   7.016   4.763   2.954
15998TIP3    H169485   6.922   4.741   2.943
15998TIP3    H269486   7.063   4.688   2.913
15999TIP3   OH269487   6.272   5.197   2.563
15999TIP3    H169488   6.323   5.277   2.543
15999TIP3    H269489   6.184   5.221   2.531
16000TIP3   OH269490   5.849   4.682   2.021
16000TIP3    H169491   5.908   4.748   2.061
16000TIP3    H269492   5.761   4.714   2.047
16001TIP3   OH269493   6.415   4.964   2.516
16001TIP3    H169494   6.386   5.056   2.525
16001TIP3    H269495   6.341   4.917   2.560
16002TIP3   OH269496   6.461   5.380   3.154
16002TIP3    H169497   6.504   5.464   3.128
16002TIP3    H269498   6.521   5.349   3.224
16003TIP3   OH269499   6.284   5.464   2.471
16003TIP3    H169500   6.187   5.477   2.481
16003TIP3    H269501   6.318   5.548   2.506
16004TIP3   OH269502   6.817   4.985   3.120
16004TIP3    H169503   6.779   4.964   3.208
16004TIP3    H269504   6.878   4.912   3.102
16005TIP3   OH269505   7.044   5.087   2.027
16005TIP3    H169506   7.074   5.044   2.110
16005TIP3    H269507   6.949   5.072   2.037
16006TIP3   OH269508   7.084   5.446   3.370
16006TIP3    H169509   7.026   5.388   3.317
16006TIP3    H269510   7.115   5.510   3.302
16007TIP3   OH269511   5.900   4.167   3.309
16007TIP3    H169512   5.809   4.203   3.302
16007TIP3    H269513   5.890   4.081   3.350
16008TIP3   OH269514   7.125   4.950   2.250
16008TIP3    H169515   7.101   4.874   2.308
16008TIP3    H269516   7.218   4.961   2.275
16009TIP3   OH269517   5.862   5.346   3.150
16009TIP3    H169518   5.889   5.253   3.150
16009TIP3    H269519   5.888   5.374   3.239
16010TIP3   OH269520   6.456   5.196   1.875
16010TIP3    H169521   6.470   5.119   1.818
16010TIP3    H269522   6.418   5.153   1.955
16011TIP3   OH269523   6.343   5.149   2.119
16011TIP3    H169524   6.361   5.098   2.199
16011TIP3    H269525   6.345   5.242   2.153
16012TIP3   OH269526   5.989   4.874   2.170
16012TIP3    H169527   5.919   4.914   2.226
16012TIP3    H269528   6.041   4.952   2.143
16013TIP3   OH269529   6.771   4.143   3.201
16013TIP3    H169530   6.844   4.149   3.264
16013TIP3    H269531   6.734   4.054   3.220
16014TIP3   OH269532   6.850   4.101   2.309
16014TIP3    H169533   6.873   4.150   2.228
16014TIP3    H269534   6.906   4.144   2.375
16015TIP3   OH269535   6.617   5.317   2.193
16015TIP3    H169536   6.535   5.370   2.199
16015TIP3    H269537   6.670   5.370   2.132
16016TIP3   OH269538   6.571   4.277   2.392
16016TIP3    H169539   6.650   4.333   2.397
16016TIP3    H269540   6.545   4.264   2.485
16017TIP3   OH269541   6.625   4.377   3.311
16017TIP3    H169542   6.635   4.435   3.389
16017TIP3    H269543   6.692   4.308   3.321
16018TIP3   OH269544   6.654   3.983   2.482
16018TIP3    H169545   6.625   4.048   2.548
16018TIP3    H269546   6.724   4.037   2.437
16019TIP3   OH269547   6.355   5.420   2.194
16019TIP3    H169548   6.367   5.503   2.140
16019TIP3    H269549   6.331   5.456   2.282
16020TIP3   OH269550   6.222   4.092   2.153
16020TIP3    H169551   6.217   4.182   2.190
16020TIP3    H269552   6.313   4.067   2.179
16021TIP3   OH269553   7.242   4.161   3.390
16021TIP3    H169554   7.150   4.196   3.383
16021TIP3    H269555   7.275   4.169   3.300
16022TIP3   OH269556   7.106   4.545   2.803
16022TIP3    H169557   7.024   4.502   2.770
16022TIP3    H269558   7.147   4.472   2.851
16023TIP3   OH269559   6.046   5.136   2.058
16023TIP3    H169560   6.112   5.201   2.088
16023TIP3    H269561   6.098   5.091   1.988
16024TIP3   OH269562   5.880   4.403   1.971
16024TIP3    H169563   5.880   4.499   1.991
16024TIP3    H269564   5.791   4.383   1.942
16025TIP3   OH269565   7.214   5.471   2.968
16025TIP3    H169566   7.199   5.537   2.898
16025TIP3    H269567   7.308   5.477   2.984
16026TIP3   OH269568   5.962   3.882   2.843
16026TIP3    H169569   5.940   3.885   2.747
16026TIP3    H269570   5.919   3.798   2.870
16027TIP3   OH269571   5.888   5.280   2.457
16027TIP3    H169572   5.791   5.307   2.458
16027TIP3    H269573   5.914   5.330   2.381
16028TIP3   OH269574   5.779   5.539   3.588
16028TIP3    H169575   5.838   5.517   3.663
16028TIP3    H269576   5.736   5.453   3.570
16029TIP3   OH269577   6.246   5.431   3.750
16029TIP3    H169578   6.320   5.380   3.784
16029TIP3    H269579   6.241   5.403   3.656
16030TIP3   OH269580   6.657   5.382   1.889
16030TIP3    H169581   6.589   5.316   1.915
16030TIP3    H269582   6.730   5.323   1.865
16031TIP3   OH269583   6.896   5.272   3.627
16031TIP3    H169584   6.867   5.180   3.649
16031TIP3    H269585   6.975   5.278   3.684
16032TIP3   OH269586   7.112   5.359   1.911
16032TIP3    H169587   7.142   5.280   1.957
16032TIP3    H269588   7.188   5.381   1.853
16033TIP3   OH269589   5.771   4.917   3.687
16033TIP3    H169590   5.787   4.826   3.656
16033TIP3    H269591   5.695   4.943   3.632
16034TIP3   OH269592   6.204   4.951   1.892
16034TIP3    H169593   6.217   4.873   1.949
16034TIP3    H269594   6.277   4.939   1.828
16035TIP3   OH269595   6.441   4.916   3.627
16035TIP3    H169596   6.407   4.945   3.540
16035TIP3    H269597   6.451   4.818   3.617
16036TIP3   OH269598   6.746   5.060   1.868
16036TIP3    H169599   6.718   5.071   1.961
16036TIP3    H269600   6.725   4.965   1.855
16037TIP3   OH269601   7.010   4.900   3.363
16037TIP3    H169602   7.087   4.961   3.356
16037TIP3    H269603   6.940   4.966   3.370
16038TIP3   OH269604   5.860   4.639   3.626
16038TIP3    H169605   5.901   4.552   3.616
16038TIP3    H269606   5.835   4.639   3.720
16039TIP3   OH269607   6.324   4.752   2.131
16039TIP3    H169608   6.275   4.699   2.196
16039TIP3    H269609   6.352   4.683   2.065
16040TIP3   OH269610   6.251   4.535   3.362
16040TIP3    H169611   6.191   4.606   3.389
16040TIP3    H269612   6.289   4.571   3.280
16041TIP3   OH269613   6.431   4.574   1.953
16041TIP3    H169614   6.415   4.563   1.857
16041TIP3    H269615   6.528   4.581   1.959
16042TIP3   OH269616   6.754   4.789   3.694
16042TIP3    H169617   6.851   4.791   3.685
16042TIP3    H269618   6.740   4.712   3.752
16043TIP3   OH269619   6.290   4.272   3.469
16043TIP3    H169620   6.302   4.200   3.405
16043TIP3    H269621   6.287   4.352   3.413
16044TIP3   OH269622   6.330   4.110   3.222
16044TIP3    H169623   6.382   4.156   3.152
16044TIP3    H269624   6.242   4.101   3.180
16045TIP3   OH269625   6.485   4.656   3.247
16045TIP3    H169626   6.561   4.640   3.189
16045TIP3    H269627   6.450   4.741   3.215
16046TIP3   OH269628   6.925   4.435   3.745
16046TIP3    H169629   6.949   4.342   3.734
16046TIP3    H269630   7.013   4.478   3.745
16047TIP3   OH269631   7.055   4.713   3.557
16047TIP3    H169632   7.033   4.787   3.497
16047TIP3    H269633   7.152   4.709   3.540
16048TIP3   OH269634   6.137   4.396   3.661
16048TIP3    H169635   6.060   4.340   3.642
16048TIP3    H269636   6.203   4.360   3.599
16049TIP3   OH269637   6.409   3.854   3.264
16049TIP3    H169638   6.395   3.950   3.252
16049TIP3    H269639   6.334   3.818   3.213
16050TIP3   OH269640   6.536   4.286   3.623
16050TIP3    H169641   6.507   4.264   3.713
16050TIP3    H269642   6.457   4.266   3.570
16051TIP3   OH269643   6.807   4.200   3.531
16051TIP3    H169644   6.711   4.205   3.543
16051TIP3    H269645   6.837   4.137   3.598
16052TIP3   OH269646   6.973   4.063   3.727
16052TIP3    H169647   6.960   3.966   3.727
16052TIP3    H269648   6.940   4.093   3.813
16053TIP3   OH269649   5.942   4.186   3.632
16053TIP3    H169650   5.977   4.117   3.574
16053TIP3    H269651   5.941   4.145   3.722
16054TIP3   OH269652   6.431   3.790   3.532
16054TIP3    H169653   6.500   3.721   3.529
16054TIP3    H269654   6.421   3.809   3.437
16055TIP3   OH269655   6.468   3.954   3.741
16055TIP3    H169656   6.451   3.904   3.657
16055TIP3    H269657   6.407   4.030   3.732
16056TIP3   OH269658   6.416   5.644   2.059
16056TIP3    H169659   6.512   5.656   2.067
16056TIP3    H269660   6.398   5.707   1.988
16057TIP3   OH269661   5.772   5.104   2.004
16057TIP3    H169662   5.868   5.112   2.027
16057TIP3    H269663   5.778   5.037   1.932
16058TIP3   OH269664   5.647   5.643   2.506
16058TIP3    H169665   5.578   5.592   2.458
16058TIP3    H269666   5.676   5.574   2.569
16059TIP3   OH269667   5.735   5.459   2.695
16059TIP3    H169668   5.695   5.369   2.702
16059TIP3    H269669   5.753   5.486   2.785
16060TIP3   OH269670   7.269   5.076   3.735
16060TIP3    H169671   7.192   5.061   3.789
16060TIP3    H269672   7.321   5.141   3.786
16061TIP3   OH269673   7.282   5.261   3.208
16061TIP3    H169674   7.215   5.302   3.265
16061TIP3    H269675   7.229   5.224   3.134
16062TIP3   OH269676   7.309   4.413   1.973
16062TIP3    H169677   7.326   4.478   1.902
16062TIP3    H269678   7.300   4.330   1.922
16063TIP3   OH269679   7.203   4.558   2.535
16063TIP3    H169680   7.217   4.463   2.539
16063TIP3    H269681   7.197   4.582   2.629
16064TIP3   OH269682   5.736   4.762   2.939
16064TIP3    H169683   5.755   4.753   2.843
16064TIP3    H269684   5.825   4.746   2.976
16065TIP3   OH269685  -0.031   4.754   3.529
16065TIP3    H169686   0.028   4.678   3.526
16065TIP3    H269687   0.028   4.826   3.501
16066TIP3   OH269688   7.245   4.159   1.883
16066TIP3    H169689   7.301   4.115   1.947
16066TIP3    H269690   7.159   4.115   1.900
16067TIP3   OH269691   7.201   4.310   2.371
16067TIP3    H169692   7.230   4.221   2.400
16067TIP3    H269693   7.281   4.349   2.339
16068TIP3   OH269694   7.228   4.318   2.916
16068TIP3    H169695   7.323   4.334   2.904
16068TIP3    H269696   7.231   4.367   3.000
16069TIP3   OH269697   7.270   4.440   3.210
16069TIP3    H169698   7.182   4.470   3.237
16069TIP3    H269699   7.312   4.521   3.177
16070TIP3   OH269700   5.698   4.288   3.550
16070TIP3    H169701   5.792   4.275   3.575
16070TIP3    H269702   5.651   4.212   3.588
16071TIP3   OH269703   7.191   4.021   2.436
16071TIP3    H169704   7.279   3.993   2.470
16071TIP3    H269705   7.196   3.972   2.351
16072TIP3   OH269706   5.817   4.120   2.840
16072TIP3    H169707   5.864   4.039   2.868
16072TIP3    H269708   5.870   4.191   2.881
16073TIP3   OH269709   5.646   4.420   2.945
16073TIP3    H169710   5.702   4.397   2.868
16073TIP3    H269711   5.690   4.502   2.972
16074TIP3   OH269712   5.683   4.047   2.352
16074TIP3    H169713   5.589   4.065   2.337
16074TIP3    H269714   5.726   4.095   2.280
16075TIP3   OH269715   7.144   5.531   2.552
16075TIP3    H169716   7.211   5.497   2.491
16075TIP3    H269717   7.201   5.587   2.609
16076TIP3   OH269718   5.679   3.917   3.187
16076TIP3    H169719   5.607   3.892   3.247
16076TIP3    H269720   5.633   3.980   3.127
16077TIP3   OH269721   5.900   5.233   3.599
16077TIP3    H169722   5.816   5.254   3.554
16077TIP3    H269723   5.873   5.227   3.691
16078TIP3   OH269724   6.191   5.333   3.226
16078TIP3    H169725   6.156   5.419   3.198
16078TIP3    H269726   6.283   5.342   3.194
16079TIP3   OH269727   6.623   5.480   3.521
16079TIP3    H169728   6.635   5.430   3.606
16079TIP3    H269729   6.712   5.498   3.483
16080TIP3   OH269730   6.853   5.597   3.455
16080TIP3    H169731   6.927   5.543   3.420
16080TIP3    H269732   6.901   5.648   3.522
16081TIP3   OH269733   5.934   5.657   3.227
16081TIP3    H169734   5.860   5.706   3.186
16081TIP3    H269735   5.900   5.636   3.315
16082TIP3   OH269736   6.178   5.612   3.131
16082TIP3    H169737   6.092   5.630   3.173
16082TIP3    H269738   6.176   5.675   3.056
16083TIP3   OH269739   6.666   5.588   3.041
16083TIP3    H169740   6.610   5.649   2.988
16083TIP3    H269741   6.668   5.654   3.112
16084TIP3   OH269742   6.883   5.488   3.153
16084TIP3    H169743   6.796   5.513   3.115
16084TIP3    H269744   6.926   5.575   3.140
16085TIP3   OH269745   7.137   5.649   3.176
16085TIP3    H169746   7.126   5.744   3.152
16085TIP3    H269747   7.162   5.609   3.091
16086TIP3   OH269748   5.879   5.524   2.922
16086TIP3    H169749   5.872   5.476   3.008
16086TIP3    H269750   5.958   5.485   2.880
16087TIP3   OH269751   6.087   5.394   2.786
16087TIP3    H169752   6.068   5.300   2.806
16087TIP3    H269753   6.173   5.406   2.831
16088TIP3   OH269754   6.342   5.440   2.871
16088TIP3    H169755   6.364   5.349   2.846
16088TIP3    H269756   6.351   5.436   2.968
16089TIP3   OH269757   6.693   4.006   2.787
16089TIP3    H169758   6.625   3.942   2.813
16089TIP3    H269759   6.749   3.955   2.727
16090TIP3   OH269760   7.208   3.812   2.797
16090TIP3    H169761   7.264   3.874   2.748
16090TIP3    H269762   7.119   3.847   2.773
16091TIP3   OH269763   5.929   3.870   2.570
16091TIP3    H169764   5.849   3.848   2.518
16091TIP3    H269765   5.977   3.785   2.566
16092TIP3   OH269766   5.808   3.845   2.145
16092TIP3    H169767   5.855   3.910   2.090
16092TIP3    H269768   5.748   3.902   2.197
16093TIP3   OH269769   6.379   3.861   2.549
16093TIP3    H169770   6.469   3.899   2.544
16093TIP3    H269771   6.372   3.840   2.642
16094TIP3   OH269772   6.948   3.863   2.713
16094TIP3    H169773   6.945   3.875   2.617
16094TIP3    H269774   6.910   3.772   2.726
16095TIP3   OH269775   7.070   3.863   2.276
16095TIP3    H169776   6.999   3.927   2.265
16095TIP3    H269777   7.026   3.779   2.302
16096TIP3   OH269778   5.804   5.442   2.239
16096TIP3    H169779   5.730   5.438   2.176
16096TIP3    H269780   5.797   5.534   2.266
16097TIP3   OH269781   5.991   4.039   1.994
16097TIP3    H169782   6.044   3.977   1.941
16097TIP3    H269783   6.057   4.070   2.058
16098TIP3   OH269784   6.494   4.065   2.235
16098TIP3    H169785   6.517   4.006   2.309
16098TIP3    H269786   6.497   4.151   2.283
16099TIP3   OH269787   6.685   5.568   2.080
16099TIP3    H169788   6.775   5.596   2.058
16099TIP3    H269789   6.663   5.519   1.998
16100TIP3   OH269790   5.936   3.916   3.512
16100TIP3    H169791   5.903   3.838   3.559
16100TIP3    H269792   6.026   3.919   3.554
16101TIP3   OH269793   6.119   3.860   3.680
16101TIP3    H169794   6.209   3.827   3.658
16101TIP3    H269795   6.083   3.779   3.722
16102TIP3   OH269796   5.979   5.537   1.940
16102TIP3    H169797   5.953   5.564   2.030
16102TIP3    H269798   6.057   5.481   1.956
16103TIP3   OH269799   6.959   3.792   3.693
16103TIP3    H169800   6.968   3.744   3.779
16103TIP3    H269801   7.050   3.788   3.658
16104TIP3   OH269802   7.271   5.391   3.569
16104TIP3    H169803   7.200   5.378   3.503
16104TIP3    H269804   7.268   5.489   3.581
16105TIP3   OH269805   1.180   6.667   2.559
16105TIP3    H169806   1.182   6.765   2.553
16105TIP3    H269807   1.110   6.644   2.497
16106TIP3   OH269808   1.068   6.595   2.907
16106TIP3    H169809   1.066   6.530   2.978
16106TIP3    H269810   1.035   6.546   2.831
16107TIP3   OH269811   0.306   6.560   3.061
16107TIP3    H169812   0.312   6.493   3.133
16107TIP3    H269813   0.378   6.619   3.085
16108TIP3   OH269814   1.438   6.888   2.736
16108TIP3    H169815   1.394   6.817   2.784
16108TIP3    H269816   1.439   6.960   2.801
16109TIP3   OH269817   0.397   7.005   2.917
16109TIP3    H169818   0.363   6.920   2.882
16109TIP3    H269819   0.491   6.985   2.920
16110TIP3   OH269820   0.079   6.365   2.439
16110TIP3    H169821   0.025   6.445   2.461
16110TIP3    H269822   0.007   6.310   2.415
16111TIP3   OH269823   0.129   6.582   2.671
16111TIP3    H169824   0.154   6.505   2.724
16111TIP3    H269825   0.203   6.593   2.611
16112TIP3   OH269826   0.904   6.835   2.952
16112TIP3    H169827   0.939   6.771   2.888
16112TIP3    H269828   0.984   6.851   3.006
16113TIP3   OH269829   1.768   5.999   3.029
16113TIP3    H169830   1.782   6.060   3.104
16113TIP3    H269831   1.821   6.043   2.961
16114TIP3   OH269832   1.222   6.281   2.984
16114TIP3    H169833   1.237   6.185   2.984
16114TIP3    H269834   1.212   6.296   2.888
16115TIP3   OH269835   0.536   6.089   2.708
16115TIP3    H169836   0.543   6.174   2.661
16115TIP3    H269837   0.493   6.033   2.640
16116TIP3   OH269838   1.308   6.099   2.544
16116TIP3    H169839   1.374   6.067   2.610
16116TIP3    H269840   1.363   6.155   2.488
16117TIP3   OH269841   0.199   6.329   2.775
16117TIP3    H169842   0.265   6.276   2.824
16117TIP3    H269843   0.208   6.297   2.686
16118TIP3   OH269844   0.713   6.486   2.710
16118TIP3    H169845   0.778   6.429   2.753
16118TIP3    H269846   0.659   6.419   2.663
16119TIP3   OH269847   1.811   6.143   3.254
16119TIP3    H169848   1.746   6.216   3.246
16119TIP3    H269849   1.814   6.130   3.350
16120TIP3   OH269850   0.423   5.980   3.112
16120TIP3    H169851   0.396   6.036   3.036
16120TIP3    H269852   0.354   6.003   3.179
16121TIP3   OH269853   1.155   6.928   2.467
16121TIP3    H169854   1.126   6.899   2.379
16121TIP3    H269855   1.124   7.021   2.472
16122TIP3   OH269856   0.677   6.744   3.138
16122TIP3    H169857   0.604   6.807   3.156
16122TIP3    H269858   0.747   6.804   3.109
16123TIP3   OH269859   1.487   6.032   2.744
16123TIP3    H169860   1.466   5.955   2.797
16123TIP3    H269861   1.554   6.077   2.798
16124TIP3   OH269862   0.378   6.164   2.913
16124TIP3    H169863   0.440   6.233   2.946
16124TIP3    H269864   0.433   6.124   2.841
16125TIP3   OH269865   0.519   6.943   3.218
16125TIP3    H169866   0.514   7.033   3.183
16125TIP3    H269867   0.430   6.936   3.260
16126TIP3   OH269868   0.129   6.911   2.296
16126TIP3    H169869   0.103   6.939   2.207
16126TIP3    H269870   0.136   6.994   2.347
16127TIP3   OH269871   1.491   7.075   2.974
16127TIP3    H169872   1.394   7.080   2.985
16127TIP3    H269873   1.517   7.166   2.953
16128TIP3   OH269874   1.522   5.901   3.112
16128TIP3    H169875   1.448   5.964   3.105
16128TIP3    H269876   1.592   5.944   3.059
16129TIP3   OH269877   0.820   5.713   2.858
16129TIP3    H169878   0.807   5.616   2.852
16129TIP3    H269879   0.732   5.744   2.888
16130TIP3   OH269880   1.315   7.233   2.624
16130TIP3    H169881   1.366   7.169   2.573
16130TIP3    H269882   1.352   7.317   2.592
16131TIP3   OH269883   1.437   7.042   2.482
16131TIP3    H169884   1.406   6.973   2.423
16131TIP3    H269885   1.439   6.995   2.568
16132TIP3   OH269886   1.603   6.902   3.332
16132TIP3    H169887   1.612   6.837   3.259
16132TIP3    H269888   1.618   6.988   3.291
16133TIP3   OH269889   1.048   6.593   2.311
16133TIP3    H169890   0.978   6.648   2.272
16133TIP3    H269891   1.118   6.600   2.244
16134TIP3   OH269892   1.055   6.448   2.010
16134TIP3    H169893   1.126   6.443   2.076
16134TIP3    H269894   1.085   6.377   1.952
16135TIP3   OH269895   1.787   6.533   3.138
16135TIP3    H169896   1.720   6.605   3.143
16135TIP3    H269897   1.834   6.557   3.057
16136TIP3   OH269898   1.393   6.616   2.403
16136TIP3    H169899   1.317   6.638   2.462
16136TIP3    H269900   1.437   6.544   2.451
16137TIP3   OH269901   1.384   6.430   3.312
16137TIP3    H169902   1.386   6.511   3.367
16137TIP3    H269903   1.321   6.461   3.244
16138TIP3   OH269904   0.555   6.681   2.593
16138TIP3    H169905   0.520   6.640   2.510
16138TIP3    H269906   0.615   6.610   2.626
16139TIP3   OH269907   0.689   7.019   2.859
16139TIP3    H169908   0.684   6.963   2.782
16139TIP3    H269909   0.765   6.983   2.908
16140TIP3   OH269910   0.588   6.554   2.958
16140TIP3    H169911   0.644   6.566   2.878
16140TIP3    H269912   0.624   6.621   3.020
16141TIP3   OH269913   1.225   7.109   3.029
16141TIP3    H169914   1.196   7.173   3.094
16141TIP3    H269915   1.201   7.024   3.073
16142TIP3   OH269916   0.682   6.998   3.428
16142TIP3    H169917   0.642   7.073   3.477
16142TIP3    H269918   0.613   6.978   3.359
16143TIP3   OH269919   1.277   6.536   2.171
16143TIP3    H169920   1.335   6.549   2.249
16143TIP3    H269921   1.323   6.580   2.097
16144TIP3   OH269922   0.376   6.614   3.349
16144TIP3    H169923   0.379   6.682   3.418
16144TIP3    H269924   0.283   6.623   3.320
16145TIP3   OH269925   1.049   7.204   2.517
16145TIP3    H169926   1.098   7.236   2.593
16145TIP3    H269927   0.995   7.279   2.491
16146TIP3   OH269928   0.504   7.203   3.501
16146TIP3    H169929   0.499   7.188   3.405
16146TIP3    H269930   0.411   7.189   3.529
16147TIP3   OH269931   1.651   5.706   2.156
16147TIP3    H169932   1.557   5.719   2.182
16147TIP3    H269933   1.672   5.791   2.113
16148TIP3   OH269934   0.452   6.582   2.354
16148TIP3    H169935   0.423   6.661   2.303
16148TIP3    H269936   0.385   6.517   2.333
16149TIP3   OH269937   1.764   7.141   1.989
16149TIP3    H169938   1.774   7.236   2.008
16149TIP3    H269939   1.857   7.111   1.990
16150TIP3   OH269940   0.098   6.816   3.222
16150TIP3    H169941   0.025   6.820   3.157
16150TIP3    H269942   0.070   6.732   3.263
16151TIP3   OH269943   0.048   7.109   2.910
16151TIP3    H169944   0.139   7.084   2.923
16151TIP3    H269945   0.032   7.177   2.976
16152TIP3   OH269946   1.857   7.167   3.492
16152TIP3    H169947   1.848   7.071   3.486
16152TIP3    H269948   1.770   7.194   3.529
16153TIP3   OH269949   0.952   7.127   3.372
16153TIP3    H169950   0.965   7.204   3.428
16153TIP3    H269951   0.869   7.086   3.405
16154TIP3   OH269952   1.573   6.316   3.538
16154TIP3    H169953   1.528   6.363   3.466
16154TIP3    H269954   1.574   6.224   3.506
16155TIP3   OH269955   0.289   6.959   3.339
16155TIP3    H169956   0.306   6.919   3.427
16155TIP3    H269957   0.203   6.918   3.314
16156TIP3   OH269958   0.555   5.803   2.934
16156TIP3    H169959   0.465   5.793   2.896
16156TIP3    H269960   0.544   5.887   2.981
16157TIP3   OH269961   1.019   5.772   3.271
16157TIP3    H169962   1.059   5.729   3.349
16157TIP3    H269963   0.922   5.757   3.285
16158TIP3   OH269964   1.349   6.153   3.359
16158TIP3    H169965   1.294   6.134   3.439
16158TIP3    H269966   1.331   6.245   3.335
16159TIP3   OH269967   1.424   6.639   1.945
16159TIP3    H169968   1.429   6.601   1.853
16159TIP3    H269969   1.515   6.673   1.959
16160TIP3   OH269970   0.983   6.027   2.001
16160TIP3    H169971   0.953   6.022   2.094
16160TIP3    H269972   0.953   5.938   1.971
16161TIP3   OH269973   0.564   6.299   3.054
16161TIP3    H169974   0.492   6.297   3.121
16161TIP3    H269975   0.560   6.392   3.022
16162TIP3   OH269976   0.561   6.316   2.543
16162TIP3    H169977   0.468   6.287   2.531
16162TIP3    H269978   0.601   6.283   2.460
16163TIP3   OH269979   1.113   6.362   2.422
16163TIP3    H169980   1.073   6.445   2.387
16163TIP3    H269981   1.183   6.347   2.356
16164TIP3   OH269982   1.020   6.382   3.566
16164TIP3    H169983   0.966   6.306   3.598
16164TIP3    H269984   1.104   6.370   3.614
16165TIP3   OH269985   1.216   6.310   2.705
16165TIP3    H169986   1.190   6.367   2.630
16165TIP3    H269987   1.228   6.225   2.658
16166TIP3   OH269988   0.332   6.326   3.228
16166TIP3    H169989   0.332   6.368   3.316
16166TIP3    H269990   0.283   6.244   3.245
16167TIP3   OH269991   0.667   6.066   1.912
16167TIP3    H169992   0.623   6.023   1.987
16167TIP3    H269993   0.596   6.107   1.862
16168TIP3   OH269994   0.012   6.054   2.612
16168TIP3    H169995   0.061   6.033   2.694
16168TIP3    H269996   0.044   5.994   2.545
16169TIP3   OH269997   0.119   6.116   2.157
16169TIP3    H169998   0.172   6.176   2.101
16169TIP3    H269999   0.049   6.174   2.188
16170TIP3   OH270000   1.136   6.470   3.162
16170TIP3    H170001   1.174   6.402   3.103
16170TIP3    H270002   1.093   6.418   3.232
16171TIP3   OH270003   0.817   6.066   2.645
16171TIP3    H170004   0.723   6.068   2.675
16171TIP3    H270005   0.866   6.053   2.728
16172TIP3   OH270006   0.303   6.224   2.529
16172TIP3    H170007   0.213   6.238   2.494
16172TIP3    H270008   0.327   6.138   2.491
16173TIP3   OH270009   0.663   6.226   2.294
16173TIP3    H170010   0.759   6.238   2.312
16173TIP3    H270011   0.640   6.295   2.229
16174TIP3   OH270012   1.258   5.990   2.970
16174TIP3    H170013   1.189   5.997   3.040
16174TIP3    H270014   1.207   5.968   2.891
16175TIP3   OH270015   0.533   6.345   2.053
16175TIP3    H170016   0.480   6.307   1.981
16175TIP3    H270017   0.615   6.365   2.006
16176TIP3   OH270018   0.347   6.802   3.557
16176TIP3    H170019   0.418   6.826   3.619
16176TIP3    H270020   0.269   6.818   3.616
16177TIP3   OH270021   0.946   6.343   2.835
16177TIP3    H170022   1.005   6.289   2.781
16177TIP3    H270023   0.932   6.288   2.913
16178TIP3   OH270024   0.447   5.957   2.478
16178TIP3    H170025   0.416   5.865   2.475
16178TIP3    H270026   0.527   5.953   2.423
16179TIP3   OH270027   0.810   6.177   3.076
16179TIP3    H170028   0.727   6.227   3.086
16179TIP3    H270029   0.864   6.210   3.150
16180TIP3   OH270030   0.869   6.798   2.246
16180TIP3    H170031   0.789   6.751   2.213
16180TIP3    H270032   0.847   6.809   2.341
16181TIP3   OH270033   1.587   6.715   3.124
16181TIP3    H170034   1.643   6.766   3.064
16181TIP3    H270035   1.499   6.725   3.080
16182TIP3   OH270036   1.251   6.077   2.070
16182TIP3    H170037   1.159   6.096   2.048
16182TIP3    H270038   1.286   6.167   2.093
16183TIP3   OH270039   1.008   6.824   3.364
16183TIP3    H170040   0.988   6.783   3.450
16183TIP3    H270041   0.998   6.917   3.381
16184TIP3   OH270042   1.325   6.272   2.233
16184TIP3    H170043   1.416   6.257   2.265
16184TIP3    H270044   1.334   6.349   2.173
16185TIP3   OH270045   0.380   6.737   2.824
16185TIP3    H170046   0.450   6.730   2.757
16185TIP3    H270047   0.385   6.651   2.870
16186TIP3   OH270048   1.080   6.946   2.148
16186TIP3    H170049   1.046   7.030   2.185
16186TIP3    H270050   1.006   6.886   2.170
16187TIP3   OH270051   0.100   6.557   3.329
16187TIP3    H170052   0.107   6.535   3.423
16187TIP3    H270053   0.016   6.516   3.307
16188TIP3   OH270054   0.778   6.532   3.572
16188TIP3    H170055   0.749   6.507   3.484
16188TIP3    H270056   0.873   6.505   3.572
16189TIP3   OH270057   1.245   7.080   3.358
16189TIP3    H170058   1.151   7.082   3.342
16189TIP3    H270059   1.244   7.088   3.456
16190TIP3   OH270060   1.817   6.286   2.203
16190TIP3    H170061   1.759   6.255   2.131
16190TIP3    H270062   1.823   6.381   2.175
16191TIP3   OH270063   1.815   6.871   3.485
16191TIP3    H170064   1.725   6.893   3.449
16191TIP3    H270065   1.870   6.868   3.404
16192TIP3   OH270066   1.645   7.160   2.251
16192TIP3    H170067   1.607   7.077   2.278
16192TIP3    H270068   1.672   7.150   2.159
16193TIP3   OH270069   1.364   6.651   2.953
16193TIP3    H170070   1.269   6.628   2.944
16193TIP3    H270071   1.407   6.573   2.913
16194TIP3   OH270072   0.619   7.080   2.561
16194TIP3    H170073   0.666   7.162   2.542
16194TIP3    H270074   0.529   7.104   2.533
16195TIP3   OH270075   0.187   6.566   2.025
16195TIP3    H170076   0.252   6.632   2.059
16195TIP3    H270077   0.102   6.602   2.051
16196TIP3   OH270078   0.760   6.849   2.517
16196TIP3    H170079   0.730   6.942   2.525
16196TIP3    H270080   0.686   6.803   2.560
16197TIP3   OH270081   0.818   7.247   3.137
16197TIP3    H170082   0.844   7.340   3.126
16197TIP3    H270083   0.864   7.230   3.222
16198TIP3   OH270084   0.596  -0.004   2.442
16198TIP3    H170085   0.512   0.015   2.481
16198TIP3    H270086   0.645   0.070   2.488
16199TIP3   OH270087   1.157   6.869   3.118
16199TIP3    H170088   1.123   6.849   3.208
16199TIP3    H270089   1.221   6.798   3.104
16200TIP3   OH270090   1.387   6.962   2.021
16200TIP3    H170091   1.419   6.931   2.109
16200TIP3    H270092   1.291   6.961   2.040
16201TIP3   OH270093   1.433   7.324   3.368
16201TIP3    H170094   1.366   7.272   3.321
16201TIP3    H270095   1.453   7.396   3.306
16202TIP3   OH270096   0.243   6.051   3.304
16202TIP3    H170097   0.153   6.087   3.306
16202TIP3    H270098   0.232   5.967   3.352
16203TIP3   OH270099   1.468   6.834   2.248
16203TIP3    H170100   1.443   6.761   2.309
16203TIP3    H270101   1.562   6.845   2.272
16204TIP3   OH270102   0.211   7.231   3.148
16204TIP3    H170103   0.232   7.137   3.150
16204TIP3    H270104   0.227   7.260   3.238
16205TIP3   OH270105   0.798   7.081   1.874
16205TIP3    H170106   0.812   7.003   1.819
16205TIP3    H270107   0.762   7.040   1.956
16206TIP3   OH270108   0.681   7.033   2.121
16206TIP3    H170109   0.704   6.983   2.201
16206TIP3    H270110   0.687   7.127   2.150
16207TIP3   OH270111   0.331   6.758   2.169
16207TIP3    H170112   0.264   6.798   2.227
16207TIP3    H270113   0.384   6.837   2.143
16208TIP3   OH270114   1.116   6.029   3.201
16208TIP3    H170115   1.187   6.034   3.266
16208TIP3    H270116   1.078   5.940   3.219
16209TIP3   OH270117   1.192   5.987   2.310
16209TIP3    H170118   1.215   6.035   2.228
16209TIP3    H270119   1.249   6.030   2.374
16210TIP3   OH270120   0.961   7.203   2.194
16210TIP3    H170121   0.878   7.253   2.199
16210TIP3    H270122   1.012   7.254   2.129
16211TIP3   OH270123   0.914   6.163   2.392
16211TIP3    H170124   0.994   6.218   2.396
16211TIP3    H270125   0.888   6.150   2.485
16212TIP3   OH270126   0.968   6.262   3.311
16212TIP3    H170127   0.977   6.320   3.390
16212TIP3    H270128   1.035   6.194   3.322
16213TIP3   OH270129   1.000   5.868   2.483
16213TIP3    H170130   0.967   5.934   2.548
16213TIP3    H270131   1.068   5.923   2.437
16214TIP3   OH270132   0.704  -0.033   2.192
16214TIP3    H170133   0.709   0.049   2.141
16214TIP3    H270134   0.672  -0.003   2.280
16215TIP3   OH270135   0.566   5.978   2.152
16215TIP3    H170136   0.560   6.068   2.190
16215TIP3    H270137   0.657   5.953   2.179
16216TIP3   OH270138   1.588   6.049   3.396
16216TIP3    H170139   1.495   6.081   3.384
16216TIP3    H270140   1.618   6.051   3.304
16217TIP3   OH270141   1.448   6.430   2.799
16217TIP3    H170142   1.366   6.386   2.770
16217TIP3    H270143   1.495   6.360   2.851
16218TIP3   OH270144   0.390   7.019   2.059
16218TIP3    H170145   0.453   7.087   2.087
16218TIP3    H270146   0.441   6.976   1.988
16219TIP3   OH270147   0.229   6.289   1.968
16219TIP3    H170148   0.224   6.383   1.992
16219TIP3    H270149   0.137   6.268   1.944
16220TIP3   OH270150   0.303   5.769   2.843
16220TIP3    H170151   0.284   5.770   2.746
16220TIP3    H270152   0.262   5.684   2.870
16221TIP3   OH270153   0.206   7.156   2.466
16221TIP3    H170154   0.120   7.201   2.457
16221TIP3    H270155   0.249   7.209   2.396
16222TIP3   OH270156   0.597   7.285   3.760
16222TIP3    H170157   0.686   7.261   3.787
16222TIP3    H270158   0.596   7.279   3.663
16223TIP3   OH270159   1.000   7.265   1.895
16223TIP3    H170160   0.932   7.199   1.914
16223TIP3    H270161   1.073   7.211   1.863
16224TIP3   OH270162   1.238   7.148   3.621
16224TIP3    H170163   1.211   7.057   3.648
16224TIP3    H270164   1.314   7.160   3.680
16225TIP3   OH270165   1.463   7.237   1.915
16225TIP3    H170166   1.494   7.160   1.962
16225TIP3    H270167   1.537   7.264   1.856
16226TIP3   OH270168   0.126   6.802   3.684
16226TIP3    H170169   0.131   6.708   3.657
16226TIP3    H270170   0.042   6.832   3.642
16227TIP3   OH270171   0.548   6.838   1.891
16227TIP3    H170172   0.560   6.760   1.948
16227TIP3    H270173   0.621   6.824   1.828
16228TIP3   OH270174   0.782   6.800   3.627
16228TIP3    H170175   0.751   6.830   3.540
16228TIP3    H270176   0.796   6.703   3.617
16229TIP3   OH270177   1.096   6.942   1.870
16229TIP3    H170178   1.060   6.958   1.959
16229TIP3    H270179   1.066   6.849   1.856
16230TIP3   OH270180   1.360   6.787   3.333
16230TIP3    H170181   1.433   6.847   3.358
16230TIP3    H270182   1.288   6.842   3.375
16231TIP3   OH270183   0.197   6.523   3.624
16231TIP3    H170184   0.245   6.438   3.616
16231TIP3    H270185   0.181   6.525   3.720
16232TIP3   OH270186   0.667   6.638   2.131
16232TIP3    H170187   0.619   6.584   2.196
16232TIP3    H270188   0.695   6.569   2.066
16233TIP3   OH270189   0.594   6.420   3.363
16233TIP3    H170190   0.533   6.491   3.389
16233TIP3    H270191   0.632   6.456   3.280
16234TIP3   OH270192   0.773   6.460   1.953
16234TIP3    H170193   0.759   6.449   1.857
16234TIP3    H270194   0.871   6.467   1.958
16235TIP3   OH270195   1.090   6.659   3.697
16235TIP3    H170196   1.185   6.681   3.683
16235TIP3    H270197   1.085   6.590   3.762
16236TIP3   OH270198   1.704   6.693   1.896
16236TIP3    H170199   1.690   6.651   1.809
16236TIP3    H270200   1.720   6.788   1.875
16237TIP3   OH270201   0.634   6.157   3.469
16237TIP3    H170202   0.645   6.086   3.405
16237TIP3    H270203   0.628   6.238   3.414
16238TIP3   OH270204   0.674   5.995   3.222
16238TIP3    H170205   0.725   6.041   3.152
16238TIP3    H270206   0.585   5.986   3.180
16239TIP3   OH270207   0.829   6.542   3.247
16239TIP3    H170208   0.904   6.526   3.189
16239TIP3    H270209   0.793   6.626   3.215
16240TIP3   OH270210   1.268   6.319   3.745
16240TIP3    H170211   1.292   6.226   3.735
16240TIP3    H270212   1.355   6.365   3.745
16241TIP3   OH270213   1.405   6.590   3.553
16241TIP3    H170214   1.374   6.672   3.505
16241TIP3    H270215   1.501   6.597   3.539
16242TIP3   OH270216   0.477   6.283   3.659
16242TIP3    H170217   0.401   6.224   3.642
16242TIP3    H270218   0.545   6.246   3.599
16243TIP3   OH270219   0.753   5.739   3.263
16243TIP3    H170220   0.738   5.836   3.252
16243TIP3    H270221   0.678   5.703   3.213
16244TIP3   OH270222   0.880   6.172   3.623
16244TIP3    H170223   0.850   6.149   3.713
16244TIP3    H270224   0.801   6.153   3.570
16245TIP3   OH270225   1.152   6.086   3.530
16245TIP3    H170226   1.056   6.092   3.543
16245TIP3    H270227   1.180   6.022   3.598
16246TIP3   OH270228   1.312   5.949   3.725
16246TIP3    H170229   1.305   5.851   3.727
16246TIP3    H270230   1.284   5.977   3.814
16247TIP3   OH270231   0.295   6.074   3.634
16247TIP3    H170232   0.315   6.000   3.573
16247TIP3    H270233   0.282   6.028   3.719
16248TIP3   OH270234   0.774   5.676   3.532
16248TIP3    H170235   0.844   5.607   3.529
16248TIP3    H270236   0.764   5.694   3.437
16249TIP3   OH270237   0.811   5.839   3.741
16249TIP3    H170238   0.794   5.790   3.657
16249TIP3    H270239   0.750   5.915   3.732
16250TIP3   OH270240   0.123   6.993   2.013
16250TIP3    H170241   0.219   6.999   2.029
16250TIP3    H270242   0.121   6.927   1.940
16251TIP3   OH270243   0.078   7.336   2.686
16251TIP3    H170244   0.036   7.251   2.708
16251TIP3    H270245   0.093   7.371   2.775
16252TIP3   OH270246   1.631   6.950   3.748
16252TIP3    H170247   1.539   6.946   3.780
16252TIP3    H270248   1.667   7.032   3.788
16253TIP3   OH270249   1.760   6.781   2.290
16253TIP3    H170250   1.845   6.824   2.309
16253TIP3    H270251   1.760   6.709   2.357
16254TIP3   OH270252   1.797   6.591   2.478
16254TIP3    H170253   1.723   6.540   2.517
16254TIP3    H270254   1.857   6.606   2.554
16255TIP3   OH270255   1.773   6.862   2.977
16255TIP3    H170256   1.855   6.826   2.941
16255TIP3    H270257   1.786   6.958   2.960
16256TIP3   OH270258   1.624   7.154   3.206
16256TIP3    H170259   1.557   7.187   3.267
16256TIP3    H270260   1.571   7.110   3.136
16257TIP3   OH270261   1.827   6.574   2.117
16257TIP3    H170262   1.771   6.609   2.045
16257TIP3    H270263   1.818   6.645   2.183
16258TIP3   OH270264   1.665   6.299   1.970
16258TIP3    H170265   1.669   6.365   1.900
16258TIP3    H270266   1.643   6.217   1.921
16259TIP3   OH270267   1.578   6.439   2.534
16259TIP3    H170268   1.563   6.343   2.532
16259TIP3    H270269   1.544   6.463   2.622
16260TIP3   OH270270   0.078   6.646   2.938
16260TIP3    H170271   0.097   6.641   2.842
16260TIP3    H270272   0.166   6.633   2.977
16261TIP3   OH270273   1.663   6.635   3.502
16261TIP3    H170274   1.724   6.561   3.518
16261TIP3    H270275   1.722   6.714   3.504
16262TIP3   OH270276   1.814   6.425   3.568
16262TIP3    H170277   1.726   6.385   3.552
16262TIP3    H270278   1.872   6.348   3.560
16263TIP3   OH270279   1.589   6.042   1.882
16263TIP3    H170280   1.647   6.001   1.948
16263TIP3    H270281   1.501   6.003   1.899
16264TIP3   OH270282   1.545   6.198   2.380
16264TIP3    H170283   1.576   6.105   2.392
16264TIP3    H270284   1.624   6.239   2.343
16265TIP3   OH270285   1.609   6.252   2.924
16265TIP3    H170286   1.705   6.276   2.923
16265TIP3    H270287   1.589   6.266   3.018
16266TIP3   OH270288   1.616   6.325   3.203
16266TIP3    H170289   1.528   6.354   3.236
16266TIP3    H270290   1.658   6.411   3.181
16267TIP3   OH270291   0.058   6.169   3.554
16267TIP3    H170292   0.148   6.151   3.580
16267TIP3    H270293   0.000   6.097   3.589
16268TIP3   OH270294   1.842   5.728   3.738
16268TIP3    H170295   1.877   5.663   3.675
16268TIP3    H270296   1.854   5.811   3.687
16269TIP3   OH270297   1.612   5.925   2.385
16269TIP3    H170298   1.632   5.880   2.470
16269TIP3    H270299   1.551   5.863   2.340
16270TIP3   OH270300   0.157   6.003   2.842
16270TIP3    H170301   0.209   5.924   2.868
16270TIP3    H270302   0.211   6.074   2.881
16271TIP3   OH270303   0.063   6.350   2.982
16271TIP3    H170304   0.059   6.315   2.891
16271TIP3    H270305   0.034   6.439   2.963
16272TIP3   OH270306   1.795   5.939   3.573
16272TIP3    H170307   1.701   5.966   3.567
16272TIP3    H270308   1.800   5.885   3.493
16273TIP3   OH270309   1.794   5.929   2.041
16273TIP3    H170310   1.836   5.858   1.988
16273TIP3    H270311   1.864   5.996   2.045
16274TIP3   OH270312   0.063   5.932   2.327
16274TIP3    H170313  -0.032   5.952   2.329
16274TIP3    H270314   0.090   5.998   2.261
16275TIP3   OH270315   7.377   5.798   3.192
16275TIP3    H170316   7.302   5.777   3.249
16275TIP3    H270317   7.325   5.855   3.133
16276TIP3   OH270318   0.242   7.122   3.601
16276TIP3    H170319   0.159   7.139   3.554
16276TIP3    H270320   0.215   7.112   3.692
16277TIP3   OH270321   0.539   7.220   3.232
16277TIP3    H170322   0.492   7.297   3.195
16277TIP3    H270323   0.627   7.224   3.191
16278TIP3   OH270324   1.696   5.749   3.357
16278TIP3    H170325   1.613   5.779   3.316
16278TIP3    H270326   1.714   5.668   3.303
16279TIP3   OH270327   0.430   7.267   2.769
16279TIP3    H170328   0.410   7.180   2.807
16279TIP3    H270329   0.506   7.290   2.828
16280TIP3   OH270330   0.646   7.276   2.888
16280TIP3    H170331   0.709   7.218   2.845
16280TIP3    H270332   0.689   7.314   2.966
16281TIP3   OH270333   1.036   5.892   2.787
16281TIP3    H170334   0.968   5.827   2.813
16281TIP3    H270335   1.091   5.840   2.727
16282TIP3   OH270336   1.549   5.698   2.795
16282TIP3    H170337   1.611   5.757   2.744
16282TIP3    H270338   1.462   5.733   2.771
16283TIP3   OH270339   1.717   5.820   2.624
16283TIP3    H170340   1.786   5.764   2.579
16283TIP3    H270341   1.765   5.905   2.632
16284TIP3   OH270342   0.270   5.754   2.572
16284TIP3    H170343   0.194   5.732   2.515
16284TIP3    H270344   0.321   5.671   2.565
16285TIP3   OH270345   0.188   5.741   2.157
16285TIP3    H170346   0.204   5.801   2.084
16285TIP3    H270347   0.106   5.777   2.197
16286TIP3   OH270348   0.722   5.747   2.549
16286TIP3    H170349   0.812   5.784   2.544
16286TIP3    H270350   0.716   5.726   2.642
16287TIP3   OH270351   1.289   5.750   2.714
16287TIP3    H170352   1.288   5.760   2.618
16287TIP3    H270353   1.253   5.658   2.726
16288TIP3   OH270354   1.419   5.753   2.282
16288TIP3    H170355   1.345   5.813   2.263
16288TIP3    H270356   1.374   5.667   2.301
16289TIP3   OH270357   0.141  -0.032   2.282
16289TIP3    H170358   0.089  -0.033   2.196
16289TIP3    H270359   0.152   0.062   2.281
16290TIP3   OH270360   0.335   5.926   1.992
16290TIP3    H170361   0.388   5.862   1.941
16290TIP3    H270362   0.399   5.954   2.059
16291TIP3   OH270363   0.837   5.951   2.235
16291TIP3    H170364   0.860   5.891   2.309
16291TIP3    H270365   0.840   6.037   2.283
16292TIP3   OH270366   0.258   5.812   3.521
16292TIP3    H170367   0.225   5.729   3.559
16292TIP3    H270368   0.352   5.806   3.552
16293TIP3   OH270369   0.461   5.746   3.678
16293TIP3    H170370   0.551   5.713   3.657
16293TIP3    H270371   0.423   5.666   3.720
16294TIP3   OH270372   1.302   5.676   3.694
16294TIP3    H170373   1.312   5.629   3.779
16294TIP3    H270374   1.394   5.674   3.660
16295TIP3   OH270375   1.617   7.275   3.569
16295TIP3    H170376   1.543   7.264   3.506
16295TIP3    H270377   1.620   7.372   3.579
16296TIP3   OH270378   3.066   6.667   2.559
16296TIP3    H170379   3.068   6.766   2.553
16296TIP3    H270380   2.995   6.644   2.497
16297TIP3   OH270381   2.953   6.595   2.907
16297TIP3    H170382   2.951   6.529   2.978
16297TIP3    H270383   2.920   6.546   2.831
16298TIP3   OH270384   2.189   6.560   3.063
16298TIP3    H170385   2.197   6.493   3.134
16298TIP3    H270386   2.263   6.619   3.084
16299TIP3   OH270387   3.323   6.888   2.736
16299TIP3    H170388   3.280   6.817   2.784
16299TIP3    H270389   3.325   6.960   2.801
16300TIP3   OH270390   2.284   7.005   2.916
16300TIP3    H170391   2.250   6.920   2.882
16300TIP3    H270392   2.379   6.985   2.921
16301TIP3   OH270393   1.946   6.364   2.461
16301TIP3    H170394   1.901   6.450   2.455
16301TIP3    H270395   1.889   6.309   2.405
16302TIP3   OH270396   2.016   6.585   2.674
16302TIP3    H170397   2.041   6.504   2.722
16302TIP3    H270398   2.088   6.594   2.610
16303TIP3   OH270399   2.790   6.834   2.952
16303TIP3    H170400   2.825   6.771   2.888
16303TIP3    H270401   2.869   6.851   3.006
16304TIP3   OH270402   3.653   5.999   3.029
16304TIP3    H170403   3.668   6.060   3.104
16304TIP3    H270404   3.706   6.043   2.961
16305TIP3   OH270405   3.107   6.281   2.984
16305TIP3    H170406   3.123   6.185   2.984
16305TIP3    H270407   3.097   6.296   2.888
16306TIP3   OH270408   2.420   6.090   2.708
16306TIP3    H170409   2.429   6.174   2.660
16306TIP3    H270410   2.378   6.033   2.640
16307TIP3   OH270411   3.193   6.099   2.545
16307TIP3    H170412   3.259   6.067   2.611
16307TIP3    H270413   3.249   6.155   2.489
16308TIP3   OH270414   2.082   6.330   2.782
16308TIP3    H170415   2.149   6.275   2.826
16308TIP3    H270416   2.091   6.300   2.690
16309TIP3   OH270417   2.598   6.486   2.710
16309TIP3    H170418   2.664   6.429   2.753
16309TIP3    H270419   2.545   6.420   2.663
16310TIP3   OH270420   3.698   6.141   3.255
16310TIP3    H170421   3.633   6.215   3.245
16310TIP3    H270422   3.699   6.130   3.350
16311TIP3   OH270423   2.308   5.980   3.112
16311TIP3    H170424   2.281   6.036   3.037
16311TIP3    H270425   2.240   6.003   3.179
16312TIP3   OH270426   3.041   6.928   2.466
16312TIP3    H170427   3.012   6.900   2.379
16312TIP3    H270428   3.010   7.021   2.472
16313TIP3   OH270429   2.562   6.744   3.138
16313TIP3    H170430   2.490   6.808   3.156
16313TIP3    H270431   2.632   6.804   3.108
16314TIP3   OH270432   3.372   6.032   2.744
16314TIP3    H170433   3.351   5.955   2.797
16314TIP3    H270434   3.440   6.077   2.798
16315TIP3   OH270435   2.264   6.167   2.913
16315TIP3    H170436   2.328   6.234   2.946
16315TIP3    H270437   2.317   6.123   2.841
16316TIP3   OH270438   2.405   6.943   3.219
16316TIP3    H170439   2.401   7.033   3.183
16316TIP3    H270440   2.316   6.937   3.261
16317TIP3   OH270441   2.014   6.910   2.299
16317TIP3    H170442   1.988   6.938   2.210
16317TIP3    H270443   2.022   6.994   2.347
16318TIP3   OH270444   3.377   7.075   2.975
16318TIP3    H170445   3.279   7.080   2.985
16318TIP3    H270446   3.403   7.166   2.953
16319TIP3   OH270447   3.407   5.901   3.112
16319TIP3    H170448   3.334   5.964   3.105
16319TIP3    H270449   3.477   5.944   3.059
16320TIP3   OH270450   2.706   5.713   2.858
16320TIP3    H170451   2.692   5.616   2.852
16320TIP3    H270452   2.618   5.744   2.888
16321TIP3   OH270453   3.201   7.233   2.624
16321TIP3    H170454   3.252   7.169   2.573
16321TIP3    H270455   3.238   7.317   2.592
16322TIP3   OH270456   3.322   7.042   2.483
16322TIP3    H170457   3.292   6.973   2.423
16322TIP3    H270458   3.325   6.995   2.568
16323TIP3   OH270459   3.484   6.902   3.332
16323TIP3    H170460   3.499   6.838   3.260
16323TIP3    H270461   3.505   6.987   3.291
16324TIP3   OH270462   2.934   6.593   2.310
16324TIP3    H170463   2.863   6.649   2.273
16324TIP3    H270464   3.004   6.601   2.243
16325TIP3   OH270465   2.940   6.446   2.011
16325TIP3    H170466   3.011   6.445   2.077
16325TIP3    H270467   2.971   6.377   1.951
16326TIP3   OH270468   3.672   6.533   3.138
16326TIP3    H170469   3.606   6.605   3.143
16326TIP3    H270470   3.720   6.556   3.056
16327TIP3   OH270471   3.277   6.614   2.401
16327TIP3    H170472   3.202   6.638   2.461
16327TIP3    H270473   3.323   6.545   2.452
16328TIP3   OH270474   3.270   6.430   3.312
16328TIP3    H170475   3.271   6.511   3.366
16328TIP3    H270476   3.206   6.460   3.244
16329TIP3   OH270477   2.439   6.680   2.593
16329TIP3    H170478   2.407   6.640   2.508
16329TIP3    H270479   2.500   6.610   2.626
16330TIP3   OH270480   2.573   7.019   2.860
16330TIP3    H170481   2.570   6.964   2.782
16330TIP3    H270482   2.650   6.983   2.908
16331TIP3   OH270483   2.473   6.554   2.958
16331TIP3    H170484   2.529   6.566   2.879
16331TIP3    H270485   2.510   6.620   3.020
16332TIP3   OH270486   3.111   7.110   3.028
16332TIP3    H170487   3.082   7.173   3.093
16332TIP3    H270488   3.086   7.024   3.071
16333TIP3   OH270489   2.567   6.998   3.428
16333TIP3    H170490   2.527   7.073   3.477
16333TIP3    H270491   2.499   6.978   3.359
16334TIP3   OH270492   3.164   6.532   2.169
16334TIP3    H170493   3.221   6.549   2.248
16334TIP3    H270494   3.208   6.582   2.097
16335TIP3   OH270495   2.260   6.613   3.346
16335TIP3    H170496   2.264   6.680   3.417
16335TIP3    H270497   2.167   6.624   3.321
16336TIP3   OH270498   2.934   7.204   2.517
16336TIP3    H170499   2.983   7.236   2.593
16336TIP3    H270500   2.880   7.279   2.491
16337TIP3   OH270501   2.389   7.204   3.502
16337TIP3    H170502   2.386   7.188   3.406
16337TIP3    H270503   2.296   7.189   3.528
16338TIP3   OH270504   3.536   5.706   2.156
16338TIP3    H170505   3.442   5.720   2.182
16338TIP3    H270506   3.558   5.791   2.113
16339TIP3   OH270507   2.337   6.583   2.354
16339TIP3    H170508   2.308   6.661   2.303
16339TIP3    H270509   2.271   6.517   2.332
16340TIP3   OH270510   3.650   7.142   1.991
16340TIP3    H170511   3.660   7.237   2.008
16340TIP3    H270512   3.743   7.111   1.990
16341TIP3   OH270513   1.947   6.824   3.240
16341TIP3    H170514   1.900   6.817   3.155
16341TIP3    H270515   1.950   6.730   3.264
16342TIP3   OH270516   1.924   7.101   2.919
16342TIP3    H170517   2.019   7.087   2.920
16342TIP3    H270518   1.913   7.179   2.976
16343TIP3   OH270519   3.743   7.167   3.492
16343TIP3    H170520   3.733   7.071   3.486
16343TIP3    H270521   3.656   7.194   3.530
16344TIP3   OH270522   2.839   7.126   3.373
16344TIP3    H170523   2.850   7.205   3.427
16344TIP3    H270524   2.754   7.087   3.404
16345TIP3   OH270525   3.459   6.316   3.538
16345TIP3    H170526   3.414   6.362   3.465
16345TIP3    H270527   3.459   6.224   3.507
16346TIP3   OH270528   2.173   6.957   3.339
16346TIP3    H170529   2.195   6.918   3.426
16346TIP3    H270530   2.087   6.916   3.315
16347TIP3   OH270531   2.440   5.802   2.934
16347TIP3    H170532   2.350   5.792   2.896
16347TIP3    H270533   2.429   5.887   2.980
16348TIP3   OH270534   2.904   5.772   3.271
16348TIP3    H170535   2.944   5.729   3.349
16348TIP3    H270536   2.807   5.757   3.285
16349TIP3   OH270537   3.235   6.153   3.359
16349TIP3    H170538   3.179   6.134   3.439
16349TIP3    H270539   3.217   6.245   3.335
16350TIP3   OH270540   3.309   6.636   1.944
16350TIP3    H170541   3.311   6.615   1.847
16350TIP3    H270542   3.395   6.679   1.954
16351TIP3   OH270543   2.870   6.027   2.000
16351TIP3    H170544   2.839   6.023   2.093
16351TIP3    H270545   2.839   5.939   1.971
16352TIP3   OH270546   2.450   6.299   3.054
16352TIP3    H170547   2.378   6.297   3.120
16352TIP3    H270548   2.447   6.392   3.021
16353TIP3   OH270549   2.446   6.315   2.543
16353TIP3    H170550   2.353   6.287   2.531
16353TIP3    H270551   2.486   6.283   2.460
16354TIP3   OH270552   2.999   6.362   2.422
16354TIP3    H170553   2.958   6.445   2.387
16354TIP3    H270554   3.068   6.347   2.356
16355TIP3   OH270555   2.906   6.383   3.566
16355TIP3    H170556   2.852   6.307   3.598
16355TIP3    H270557   2.990   6.369   3.614
16356TIP3   OH270558   3.101   6.310   2.705
16356TIP3    H170559   3.076   6.367   2.630
16356TIP3    H270560   3.114   6.225   2.658
16357TIP3   OH270561   2.215   6.328   3.228
16357TIP3    H170562   2.219   6.368   3.317
16357TIP3    H270563   2.169   6.244   3.246
16358TIP3   OH270564   2.553   6.066   1.912
16358TIP3    H170565   2.508   6.023   1.987
16358TIP3    H270566   2.481   6.107   1.862
16359TIP3   OH270567   1.879   6.039   2.622
16359TIP3    H170568   1.946   6.035   2.693
16359TIP3    H270569   1.925   5.999   2.546
16360TIP3   OH270570   2.007   6.110   2.160
16360TIP3    H170571   2.056   6.172   2.103
16360TIP3    H270572   1.937   6.171   2.193
16361TIP3   OH270573   3.023   6.471   3.164
16361TIP3    H170574   3.059   6.403   3.103
16361TIP3    H270575   2.978   6.417   3.231
16362TIP3   OH270576   2.702   6.066   2.645
16362TIP3    H170577   2.609   6.068   2.675
16362TIP3    H270578   2.752   6.053   2.728
16363TIP3   OH270579   2.184   6.224   2.531
16363TIP3    H170580   2.095   6.237   2.493
16363TIP3    H270581   2.213   6.140   2.492
16364TIP3   OH270582   2.549   6.226   2.294
16364TIP3    H170583   2.644   6.238   2.312
16364TIP3    H270584   2.526   6.295   2.229
16365TIP3   OH270585   3.143   5.990   2.970
16365TIP3    H170586   3.074   5.997   3.040
16365TIP3    H270587   3.093   5.968   2.891
16366TIP3   OH270588   2.418   6.345   2.053
16366TIP3    H170589   2.365   6.307   1.981
16366TIP3    H270590   2.501   6.365   2.006
16367TIP3   OH270591   2.232   6.802   3.559
16367TIP3    H170592   2.304   6.826   3.619
16367TIP3    H270593   2.153   6.815   3.617
16368TIP3   OH270594   2.832   6.343   2.835
16368TIP3    H170595   2.891   6.289   2.781
16368TIP3    H270596   2.818   6.289   2.913
16369TIP3   OH270597   2.333   5.957   2.478
16369TIP3    H170598   2.302   5.865   2.475
16369TIP3    H270599   2.411   5.953   2.422
16370TIP3   OH270600   2.696   6.177   3.076
16370TIP3    H170601   2.612   6.227   3.086
16370TIP3    H270602   2.750   6.210   3.150
16371TIP3   OH270603   2.754   6.798   2.246
16371TIP3    H170604   2.674   6.751   2.213
16371TIP3    H270605   2.733   6.809   2.341
16372TIP3   OH270606   3.470   6.717   3.126
16372TIP3    H170607   3.529   6.765   3.065
16372TIP3    H270608   3.385   6.725   3.078
16373TIP3   OH270609   3.138   6.081   2.063
16373TIP3    H170610   3.043   6.095   2.050
16373TIP3    H270611   3.171   6.167   2.097
16374TIP3   OH270612   2.902   6.825   3.369
16374TIP3    H170613   2.869   6.782   3.449
16374TIP3    H270614   2.880   6.918   3.379
16375TIP3   OH270615   3.211   6.271   2.228
16375TIP3    H170616   3.301   6.257   2.265
16375TIP3    H270617   3.220   6.352   2.175
16376TIP3   OH270618   2.265   6.736   2.825
16376TIP3    H170619   2.335   6.730   2.758
16376TIP3    H270620   2.271   6.650   2.871
16377TIP3   OH270621   2.966   6.946   2.150
16377TIP3    H170622   2.932   7.030   2.184
16377TIP3    H270623   2.892   6.885   2.170
16378TIP3   OH270624   1.964   6.578   3.352
16378TIP3    H170625   1.983   6.534   3.437
16378TIP3    H270626   1.902   6.516   3.309
16379TIP3   OH270627   2.665   6.533   3.572
16379TIP3    H170628   2.635   6.507   3.484
16379TIP3    H270629   2.758   6.504   3.571
16380TIP3   OH270630   3.132   7.072   3.360
16380TIP3    H170631   3.038   7.084   3.341
16380TIP3    H270632   3.129   7.094   3.456
16381TIP3   OH270633   3.702   6.286   2.203
16381TIP3    H170634   3.643   6.255   2.131
16381TIP3    H270635   3.709   6.381   2.176
16382TIP3   OH270636   3.700   6.869   3.484
16382TIP3    H170637   3.611   6.894   3.448
16382TIP3    H270638   3.755   6.868   3.404
16383TIP3   OH270639   3.530   7.160   2.251
16383TIP3    H170640   3.492   7.078   2.278
16383TIP3    H270641   3.558   7.150   2.159
16384TIP3   OH270642   3.249   6.650   2.953
16384TIP3    H170643   3.155   6.628   2.944
16384TIP3    H270644   3.293   6.573   2.912
16385TIP3   OH270645   2.504   7.081   2.561
16385TIP3    H170646   2.551   7.162   2.542
16385TIP3    H270647   2.414   7.105   2.532
16386TIP3   OH270648   2.078   6.567   2.021
16386TIP3    H170649   2.137   6.633   2.061
16386TIP3    H270650   1.990   6.600   2.047
16387TIP3   OH270651   2.646   6.849   2.517
16387TIP3    H170652   2.616   6.942   2.525
16387TIP3    H270653   2.571   6.803   2.560
16388TIP3   OH270654   2.704   7.247   3.137
16388TIP3    H170655   2.729   7.340   3.126
16388TIP3    H270656   2.749   7.230   3.221
16389TIP3   OH270657   2.482  -0.004   2.442
16389TIP3    H170658   2.398   0.015   2.481
16389TIP3    H270659   2.530   0.069   2.488
16390TIP3   OH270660   3.046   6.871   3.121
16390TIP3    H170661   3.007   6.848   3.208
16390TIP3    H270662   3.106   6.797   3.102
16391TIP3   OH270663   3.273   6.970   2.026
16391TIP3    H170664   3.304   6.929   2.109
16391TIP3    H270665   3.177   6.958   2.037
16392TIP3   OH270666   3.318   7.322   3.368
16392TIP3    H170667   3.251   7.273   3.320
16392TIP3    H270668   3.339   7.396   3.308
16393TIP3   OH270669   2.129   6.052   3.307
16393TIP3    H170670   2.038   6.087   3.304
16393TIP3    H270671   2.117   5.967   3.352
16394TIP3   OH270672   3.353   6.835   2.250
16394TIP3    H170673   3.329   6.760   2.308
16394TIP3    H270674   3.447   6.844   2.271
16395TIP3   OH270675   2.091   7.229   3.151
16395TIP3    H170676   2.118   7.137   3.151
16395TIP3    H270677   2.114   7.261   3.239
16396TIP3   OH270678   2.684   7.081   1.874
16396TIP3    H170679   2.698   7.002   1.819
16396TIP3    H270680   2.647   7.040   1.956
16397TIP3   OH270681   2.567   7.033   2.122
16397TIP3    H170682   2.590   6.983   2.201
16397TIP3    H270683   2.574   7.127   2.151
16398TIP3   OH270684   2.219   6.759   2.170
16398TIP3    H170685   2.148   6.798   2.226
16398TIP3    H270686   2.270   6.838   2.143
16399TIP3   OH270687   3.001   6.029   3.201
16399TIP3    H170688   3.072   6.034   3.266
16399TIP3    H270689   2.963   5.940   3.219
16400TIP3   OH270690   3.078   5.987   2.310
16400TIP3    H170691   3.101   6.035   2.228
16400TIP3    H270692   3.135   6.031   2.375
16401TIP3   OH270693   2.846   7.203   2.194
16401TIP3    H170694   2.764   7.253   2.199
16401TIP3    H270695   2.897   7.254   2.129
16402TIP3   OH270696   2.799   6.162   2.392
16402TIP3    H170697   2.879   6.218   2.397
16402TIP3    H270698   2.774   6.149   2.485
16403TIP3   OH270699   2.854   6.263   3.311
16403TIP3    H170700   2.863   6.320   3.390
16403TIP3    H270701   2.920   6.194   3.322
16404TIP3   OH270702   2.886   5.868   2.483
16404TIP3    H170703   2.853   5.933   2.548
16404TIP3    H270704   2.954   5.923   2.437
16405TIP3   OH270705   2.589  -0.033   2.192
16405TIP3    H170706   2.595   0.049   2.140
16405TIP3    H270707   2.557  -0.002   2.280
16406TIP3   OH270708   2.451   5.977   2.153
16406TIP3    H170709   2.446   6.068   2.190
16406TIP3    H270710   2.542   5.953   2.179
16407TIP3   OH270711   3.474   6.051   3.396
16407TIP3    H170712   3.380   6.081   3.384
16407TIP3    H270713   3.504   6.051   3.304
16408TIP3   OH270714   3.334   6.430   2.799
16408TIP3    H170715   3.252   6.386   2.770
16408TIP3    H270716   3.381   6.360   2.851
16409TIP3   OH270717   2.274   7.021   2.058
16409TIP3    H170718   2.339   7.087   2.087
16409TIP3    H270719   2.326   6.977   1.988
16410TIP3   OH270720   2.109   6.288   1.971
16410TIP3    H170721   2.109   6.384   1.991
16410TIP3    H270722   2.020   6.269   1.942
16411TIP3   OH270723   2.191   5.768   2.843
16411TIP3    H170724   2.169   5.770   2.747
16411TIP3    H270725   2.147   5.684   2.870
16412TIP3   OH270726   2.092   7.156   2.465
16412TIP3    H170727   2.004   7.201   2.457
16412TIP3    H270728   2.134   7.207   2.395
16413TIP3   OH270729   2.487   7.289   3.761
16413TIP3    H170730   2.573   7.257   3.785
16413TIP3    H270731   2.481   7.279   3.664
16414TIP3   OH270732   2.887   7.264   1.894
16414TIP3    H170733   2.817   7.199   1.914
16414TIP3    H270734   2.959   7.210   1.863
16415TIP3   OH270735   3.130   7.139   3.616
16415TIP3    H170736   3.092   7.059   3.654
16415TIP3    H270737   3.199   7.163   3.680
16416TIP3   OH270738   3.351   7.239   1.917
16416TIP3    H170739   3.378   7.158   1.960
16416TIP3    H270740   3.423   7.263   1.855
16417TIP3   OH270741   2.000   6.803   3.687
16417TIP3    H170742   2.015   6.711   3.656
16417TIP3    H270743   1.925   6.831   3.632
16418TIP3   OH270744   2.434   6.838   1.892
16418TIP3    H170745   2.445   6.760   1.948
16418TIP3    H270746   2.506   6.825   1.828
16419TIP3   OH270747   2.670   6.800   3.627
16419TIP3    H170748   2.635   6.829   3.540
16419TIP3    H270749   2.680   6.702   3.617
16420TIP3   OH270750   2.976   6.945   1.869
16420TIP3    H170751   2.946   6.957   1.960
16420TIP3    H270752   2.955   6.850   1.856
16421TIP3   OH270753   3.240   6.787   3.365
16421TIP3    H170754   3.317   6.847   3.356
16421TIP3    H270755   3.168   6.852   3.370
16422TIP3   OH270756   2.088   6.525   3.626
16422TIP3    H170757   2.129   6.438   3.616
16422TIP3    H270758   2.064   6.524   3.720
16423TIP3   OH270759   2.552   6.637   2.131
16423TIP3    H170760   2.504   6.585   2.196
16423TIP3    H270761   2.581   6.569   2.065
16424TIP3   OH270762   2.480   6.420   3.362
16424TIP3    H170763   2.419   6.491   3.389
16424TIP3    H270764   2.517   6.456   3.280
16425TIP3   OH270765   2.659   6.460   1.953
16425TIP3    H170766   2.643   6.449   1.857
16425TIP3    H270767   2.757   6.467   1.959
16426TIP3   OH270768   2.985   6.674   3.693
16426TIP3    H170769   3.082   6.677   3.685
16426TIP3    H270770   2.969   6.599   3.752
16427TIP3   OH270771   3.595   6.692   1.896
16427TIP3    H170772   3.573   6.653   1.811
16427TIP3    H270773   3.602   6.788   1.876
16428TIP3   OH270774   2.519   6.158   3.469
16428TIP3    H170775   2.531   6.085   3.405
16428TIP3    H270776   2.515   6.238   3.413
16429TIP3   OH270777   2.559   5.995   3.222
16429TIP3    H170778   2.611   6.041   3.152
16429TIP3    H270779   2.471   5.986   3.180
16430TIP3   OH270780   2.714   6.542   3.247
16430TIP3    H170781   2.790   6.526   3.189
16430TIP3    H270782   2.679   6.626   3.215
16431TIP3   OH270783   3.154   6.320   3.745
16431TIP3    H170784   3.177   6.226   3.735
16431TIP3    H270785   3.241   6.364   3.746
16432TIP3   OH270786   3.287   6.598   3.558
16432TIP3    H170787   3.262   6.671   3.497
16432TIP3    H270788   3.383   6.595   3.540
16433TIP3   OH270789   2.365   6.282   3.661
16433TIP3    H170790   2.288   6.224   3.642
16433TIP3    H270791   2.431   6.246   3.599
16434TIP3   OH270792   2.639   5.739   3.263
16434TIP3    H170793   2.623   5.836   3.252
16434TIP3    H270794   2.563   5.703   3.213
16435TIP3   OH270795   2.766   6.172   3.623
16435TIP3    H170796   2.736   6.149   3.713
16435TIP3    H270797   2.686   6.152   3.570
16436TIP3   OH270798   3.037   6.086   3.530
16436TIP3    H170799   2.941   6.090   3.543
16436TIP3    H270800   3.065   6.022   3.598
16437TIP3   OH270801   3.197   5.949   3.725
16437TIP3    H170802   3.190   5.851   3.727
16437TIP3    H270803   3.169   5.977   3.814
16438TIP3   OH270804   2.175   6.074   3.634
16438TIP3    H170805   2.200   6.001   3.574
16438TIP3    H270806   2.167   6.029   3.720
16439TIP3   OH270807   2.660   5.676   3.532
16439TIP3    H170808   2.729   5.607   3.529
16439TIP3    H270809   2.649   5.694   3.437
16440TIP3   OH270810   2.696   5.839   3.741
16440TIP3    H170811   2.680   5.790   3.657
16440TIP3    H270812   2.636   5.915   3.732
16441TIP3   OH270813   2.002   6.991   2.004
16441TIP3    H170814   2.097   6.997   2.028
16441TIP3    H270815   2.006   6.922   1.933
16442TIP3   OH270816   1.950   7.338   2.691
16442TIP3    H170817   1.921   7.249   2.712
16442TIP3    H270818   1.979   7.373   2.777
16443TIP3   OH270819   3.515   6.951   3.746
16443TIP3    H170820   3.425   6.947   3.783
16443TIP3    H270821   3.553   7.032   3.788
16444TIP3   OH270822   3.645   6.781   2.290
16444TIP3    H170823   3.731   6.824   2.309
16444TIP3    H270824   3.645   6.709   2.357
16445TIP3   OH270825   3.683   6.590   2.478
16445TIP3    H170826   3.608   6.540   2.518
16445TIP3    H270827   3.742   6.606   2.554
16446TIP3   OH270828   3.658   6.863   2.977
16446TIP3    H170829   3.741   6.826   2.941
16446TIP3    H270830   3.672   6.958   2.960
16447TIP3   OH270831   3.510   7.154   3.206
16447TIP3    H170832   3.444   7.188   3.266
16447TIP3    H270833   3.457   7.110   3.135
16448TIP3   OH270834   3.713   6.574   2.117
16448TIP3    H170835   3.657   6.610   2.045
16448TIP3    H270836   3.704   6.645   2.184
16449TIP3   OH270837   3.549   6.298   1.970
16449TIP3    H170838   3.556   6.365   1.901
16449TIP3    H270839   3.531   6.216   1.921
16450TIP3   OH270840   3.464   6.439   2.534
16450TIP3    H170841   3.449   6.343   2.532
16450TIP3    H270842   3.429   6.463   2.622
16451TIP3   OH270843   1.965   6.648   2.939
16451TIP3    H170844   1.984   6.639   2.843
16451TIP3    H270845   2.054   6.631   2.976
16452TIP3   OH270846   3.549   6.636   3.502
16452TIP3    H170847   3.610   6.561   3.517
16452TIP3    H270848   3.609   6.713   3.504
16453TIP3   OH270849   3.700   6.425   3.568
16453TIP3    H170850   3.612   6.385   3.552
16453TIP3    H270851   3.758   6.348   3.560
16454TIP3   OH270852   3.473   6.043   1.883
16454TIP3    H170853   3.533   6.001   1.947
16454TIP3    H270854   3.387   6.001   1.900
16455TIP3   OH270855   3.430   6.197   2.378
16455TIP3    H170856   3.462   6.105   2.393
16455TIP3    H270857   3.511   6.238   2.345
16456TIP3   OH270858   3.494   6.252   2.924
16456TIP3    H170859   3.590   6.276   2.923
16456TIP3    H270860   3.475   6.266   3.018
16457TIP3   OH270861   3.501   6.325   3.203
16457TIP3    H170862   3.413   6.354   3.236
16457TIP3    H270863   3.544   6.411   3.181
16458TIP3   OH270864   1.925   6.177   3.554
16458TIP3    H170865   2.019   6.158   3.574
16458TIP3    H270866   1.881   6.096   3.586
16459TIP3   OH270867   3.728   5.728   3.738
16459TIP3    H170868   3.763   5.663   3.675
16459TIP3    H270869   3.740   5.811   3.687
16460TIP3   OH270870   3.497   5.925   2.385
16460TIP3    H170871   3.517   5.880   2.470
16460TIP3    H270872   3.437   5.863   2.340
16461TIP3   OH270873   2.046   6.006   2.840
16461TIP3    H170874   2.093   5.925   2.868
16461TIP3    H270875   2.099   6.076   2.881
16462TIP3   OH270876   1.875   6.305   2.945
16462TIP3    H170877   1.930   6.282   2.868
16462TIP3    H270878   1.919   6.388   2.972
16463TIP3   OH270879   3.680   5.939   3.573
16463TIP3    H170880   3.586   5.966   3.567
16463TIP3    H270881   3.686   5.885   3.493
16464TIP3   OH270882   3.680   5.929   2.041
16464TIP3    H170883   3.722   5.858   1.988
16464TIP3    H270884   3.750   5.996   2.045
16465TIP3   OH270885   1.911   5.933   2.352
16465TIP3    H170886   1.817   5.951   2.337
16465TIP3    H270887   1.954   5.981   2.280
16466TIP3   OH270888   1.907   5.800   3.183
16466TIP3    H170889   1.839   5.779   3.250
16466TIP3    H270890   1.861   5.867   3.128
16467TIP3   OH270891   2.127   7.123   3.599
16467TIP3    H170892   2.043   7.139   3.553
16467TIP3    H270893   2.102   7.111   3.691
16468TIP3   OH270894   2.423   7.219   3.231
16468TIP3    H170895   2.379   7.297   3.195
16468TIP3    H270896   2.512   7.224   3.192
16469TIP3   OH270897   3.582   5.749   3.357
16469TIP3    H170898   3.499   5.779   3.316
16469TIP3    H270899   3.600   5.668   3.303
16470TIP3   OH270900   2.314   7.268   2.770
16470TIP3    H170901   2.296   7.180   2.807
16470TIP3    H270902   2.392   7.291   2.828
16471TIP3   OH270903   2.532   7.276   2.888
16471TIP3    H170904   2.594   7.218   2.845
16471TIP3    H270905   2.575   7.314   2.966
16472TIP3   OH270906   2.922   5.892   2.787
16472TIP3    H170907   2.854   5.827   2.813
16472TIP3    H270908   2.977   5.840   2.727
16473TIP3   OH270909   3.435   5.698   2.796
16473TIP3    H170910   3.497   5.756   2.744
16473TIP3    H270911   3.347   5.733   2.771
16474TIP3   OH270912   3.603   5.820   2.624
16474TIP3    H170913   3.671   5.764   2.579
16474TIP3    H270914   3.651   5.905   2.632
16475TIP3   OH270915   2.157   5.755   2.570
16475TIP3    H170916   2.078   5.733   2.518
16475TIP3    H270917   2.206   5.670   2.566
16476TIP3   OH270918   2.036   5.731   2.145
16476TIP3    H170919   2.084   5.796   2.090
16476TIP3    H270920   1.977   5.788   2.197
16477TIP3   OH270921   2.608   5.747   2.549
16477TIP3    H170922   2.698   5.784   2.544
16477TIP3    H270923   2.601   5.726   2.642
16478TIP3   OH270924   3.174   5.750   2.714
16478TIP3    H170925   3.173   5.760   2.618
16478TIP3    H270926   3.139   5.658   2.726
16479TIP3   OH270927   3.304   5.753   2.282
16479TIP3    H170928   3.230   5.813   2.264
16479TIP3    H270929   3.259   5.667   2.301
16480TIP3   OH270930   2.008  -0.039   2.277
16480TIP3    H170931   1.968  -0.031   2.188
16480TIP3    H270932   2.033   0.053   2.281
16481TIP3   OH270933   2.220   5.925   1.994
16481TIP3    H170934   2.272   5.863   1.941
16481TIP3    H270935   2.286   5.956   2.058
16482TIP3   OH270936   2.723   5.951   2.235
16482TIP3    H170937   2.746   5.891   2.309
16482TIP3    H270938   2.725   6.037   2.283
16483TIP3   OH270939   2.147   5.808   3.517
16483TIP3    H170940   2.111   5.729   3.560
16483TIP3    H270941   2.240   5.806   3.552
16484TIP3   OH270942   2.348   5.746   3.678
16484TIP3    H170943   2.437   5.713   3.657
16484TIP3    H270944   2.310   5.666   3.720
16485TIP3   OH270945   3.188   5.676   3.694
16485TIP3    H170946   3.198   5.629   3.779
16485TIP3    H270947   3.279   5.674   3.660
16486TIP3   OH270948   3.501   7.275   3.570
16486TIP3    H170949   3.429   7.265   3.505
16486TIP3    H270950   3.506   7.371   3.579
16487TIP3   OH270951   4.951   6.668   2.559
16487TIP3    H170952   4.953   6.766   2.552
16487TIP3    H270953   4.881   6.644   2.497
16488TIP3   OH270954   4.839   6.595   2.908
16488TIP3    H170955   4.837   6.529   2.979
16488TIP3    H270956   4.806   6.546   2.831
16489TIP3   OH270957   4.075   6.560   3.063
16489TIP3    H170958   4.083   6.493   3.134
16489TIP3    H270959   4.149   6.619   3.084
16490TIP3   OH270960   5.209   6.888   2.736
16490TIP3    H170961   5.166   6.817   2.784
16490TIP3    H270962   5.210   6.960   2.801
16491TIP3   OH270963   4.169   7.005   2.916
16491TIP3    H170964   4.135   6.920   2.882
16491TIP3    H270965   4.264   6.985   2.921
16492TIP3   OH270966   3.832   6.364   2.461
16492TIP3    H170967   3.787   6.450   2.455
16492TIP3    H270968   3.774   6.309   2.405
16493TIP3   OH270969   3.901   6.585   2.674
16493TIP3    H170970   3.927   6.504   2.722
16493TIP3    H270971   3.973   6.594   2.610
16494TIP3   OH270972   4.676   6.834   2.952
16494TIP3    H170973   4.710   6.771   2.888
16494TIP3    H270974   4.755   6.851   3.006
16495TIP3   OH270975   5.539   5.999   3.029
16495TIP3    H170976   5.553   6.060   3.104
16495TIP3    H270977   5.592   6.043   2.961
16496TIP3   OH270978   4.994   6.281   2.983
16496TIP3    H170979   5.008   6.185   2.984
16496TIP3    H270980   4.983   6.296   2.887
16497TIP3   OH270981   4.306   6.090   2.708
16497TIP3    H170982   4.314   6.174   2.660
16497TIP3    H270983   4.264   6.033   2.640
16498TIP3   OH270984   5.079   6.099   2.545
16498TIP3    H170985   5.145   6.067   2.611
16498TIP3    H270986   5.134   6.155   2.489
16499TIP3   OH270987   3.968   6.330   2.782
16499TIP3    H170988   4.035   6.275   2.826
16499TIP3    H270989   3.976   6.300   2.690
16500TIP3   OH270990   4.484   6.486   2.710
16500TIP3    H170991   4.549   6.429   2.753
16500TIP3    H270992   4.430   6.420   2.663
16501TIP3   OH270993   5.582   6.143   3.254
16501TIP3    H170994   5.518   6.216   3.245
16501TIP3    H270995   5.585   6.130   3.350
16502TIP3   OH270996   4.194   5.978   3.113
16502TIP3    H170997   4.168   6.035   3.037
16502TIP3    H270998   4.125   6.004   3.179
16503TIP3   OH270999   4.927   6.929   2.466
16503TIP3    H171000   4.897   6.898   2.379
16503TIP3    H271001   4.895   7.021   2.472
16504TIP3   OH271002   4.447   6.744   3.138
16504TIP3    H171003   4.375   6.808   3.156
16504TIP3    H271004   4.517   6.804   3.108
16505TIP3   OH271005   5.257   6.033   2.744
16505TIP3    H171006   5.237   5.955   2.797
16505TIP3    H271007   5.325   6.077   2.798
16506TIP3   OH271008   4.150   6.166   2.913
16506TIP3    H171009   4.214   6.234   2.946
16506TIP3    H271010   4.203   6.123   2.841
16507TIP3   OH271011   4.291   6.943   3.219
16507TIP3    H171012   4.287   7.034   3.183
16507TIP3    H271013   4.202   6.937   3.261
16508TIP3   OH271014   3.900   6.910   2.299
16508TIP3    H171015   3.872   6.938   2.210
16508TIP3    H271016   3.907   6.994   2.347
16509TIP3   OH271017   5.262   7.075   2.975
16509TIP3    H171018   5.165   7.080   2.985
16509TIP3    H271019   5.289   7.166   2.953
16510TIP3   OH271020   5.293   5.902   3.112
16510TIP3    H171021   5.219   5.964   3.105
16510TIP3    H271022   5.363   5.944   3.059
16511TIP3   OH271023   4.591   5.712   2.860
16511TIP3    H171024   4.578   5.616   2.850
16511TIP3    H271025   4.503   5.744   2.887
16512TIP3   OH271026   5.087   7.233   2.624
16512TIP3    H171027   5.137   7.169   2.573
16512TIP3    H271028   5.124   7.317   2.594
16513TIP3   OH271029   5.209   7.042   2.483
16513TIP3    H171030   5.177   6.973   2.423
16513TIP3    H271031   5.211   6.995   2.568
16514TIP3   OH271032   5.370   6.902   3.332
16514TIP3    H171033   5.384   6.838   3.260
16514TIP3    H271034   5.391   6.987   3.291
16515TIP3   OH271035   4.819   6.593   2.310
16515TIP3    H171036   4.749   6.649   2.273
16515TIP3    H271037   4.889   6.601   2.243
16516TIP3   OH271038   4.825   6.445   2.011
16516TIP3    H171039   4.896   6.445   2.077
16516TIP3    H271040   4.857   6.377   1.951
16517TIP3   OH271041   5.558   6.533   3.138
16517TIP3    H171042   5.491   6.605   3.143
16517TIP3    H271043   5.605   6.556   3.056
16518TIP3   OH271044   5.163   6.614   2.401
16518TIP3    H171045   5.088   6.638   2.462
16518TIP3    H271046   5.209   6.545   2.452
16519TIP3   OH271047   5.157   6.431   3.311
16519TIP3    H171048   5.156   6.510   3.368
16519TIP3    H271049   5.091   6.460   3.245
16520TIP3   OH271050   4.325   6.680   2.593
16520TIP3    H171051   4.292   6.640   2.508
16520TIP3    H271052   4.386   6.610   2.626
16521TIP3   OH271053   4.459   7.019   2.860
16521TIP3    H171054   4.455   6.964   2.782
16521TIP3    H271055   4.535   6.983   2.908
16522TIP3   OH271056   4.359   6.554   2.958
16522TIP3    H171057   4.415   6.566   2.879
16522TIP3    H271058   4.395   6.620   3.020
16523TIP3   OH271059   4.996   7.110   3.028
16523TIP3    H171060   4.967   7.173   3.093
16523TIP3    H271061   4.972   7.024   3.071
16524TIP3   OH271062   4.453   6.998   3.428
16524TIP3    H171063   4.413   7.073   3.477
16524TIP3    H271064   4.385   6.978   3.359
16525TIP3   OH271065   5.049   6.532   2.169
16525TIP3    H171066   5.106   6.549   2.248
16525TIP3    H271067   5.093   6.582   2.097
16526TIP3   OH271068   4.146   6.613   3.346
16526TIP3    H171069   4.150   6.680   3.417
16526TIP3    H271070   4.053   6.624   3.321
16527TIP3   OH271071   4.822   7.206   2.513
16527TIP3    H171072   4.868   7.234   2.593
16527TIP3    H271073   4.765   7.280   2.495
16528TIP3   OH271074   4.275   7.204   3.502
16528TIP3    H171075   4.272   7.188   3.406
16528TIP3    H271076   4.181   7.189   3.528
16529TIP3   OH271077   5.421   5.707   2.154
16529TIP3    H171078   5.328   5.720   2.182
16529TIP3    H271079   5.443   5.792   2.113
16530TIP3   OH271080   4.222   6.583   2.354
16530TIP3    H171081   4.193   6.661   2.303
16530TIP3    H271082   4.156   6.517   2.332
16531TIP3   OH271083   5.536   7.144   1.989
16531TIP3    H171084   5.541   7.239   2.009
16531TIP3    H271085   5.622   7.103   1.991
16532TIP3   OH271086   3.831   6.825   3.240
16532TIP3    H171087   3.785   6.817   3.155
16532TIP3    H271088   3.836   6.730   3.264
16533TIP3   OH271089   3.809   7.101   2.919
16533TIP3    H171090   3.905   7.087   2.920
16533TIP3    H271091   3.799   7.179   2.976
16534TIP3   OH271092   5.628   7.167   3.492
16534TIP3    H171093   5.619   7.071   3.486
16534TIP3    H271094   5.542   7.194   3.530
16535TIP3   OH271095   4.724   7.126   3.373
16535TIP3    H171096   4.736   7.204   3.428
16535TIP3    H271097   4.640   7.087   3.403
16536TIP3   OH271098   5.347   6.316   3.537
16536TIP3    H171099   5.298   6.361   3.467
16536TIP3    H271100   5.345   6.224   3.506
16537TIP3   OH271101   4.059   6.957   3.339
16537TIP3    H171102   4.081   6.918   3.426
16537TIP3    H271103   3.973   6.916   3.315
16538TIP3   OH271104   4.325   5.800   2.937
16538TIP3    H171105   4.236   5.792   2.895
16538TIP3    H271106   4.315   5.887   2.979
16539TIP3   OH271107   4.789   5.770   3.270
16539TIP3    H171108   4.831   5.730   3.349
16539TIP3    H271109   4.693   5.758   3.285
16540TIP3   OH271110   5.121   6.153   3.358
16540TIP3    H171111   5.065   6.135   3.438
16540TIP3    H271112   5.102   6.245   3.337
16541TIP3   OH271113   5.195   6.636   1.943
16541TIP3    H171114   5.197   6.615   1.847
16541TIP3    H271115   5.281   6.679   1.954
16542TIP3   OH271116   4.752   6.027   1.999
16542TIP3    H171117   4.726   6.023   2.093
16542TIP3    H271118   4.727   5.938   1.972
16543TIP3   OH271119   4.335   6.299   3.054
16543TIP3    H171120   4.263   6.297   3.120
16543TIP3    H271121   4.332   6.392   3.021
16544TIP3   OH271122   4.332   6.315   2.543
16544TIP3    H171123   4.239   6.287   2.531
16544TIP3    H271124   4.372   6.283   2.460
16545TIP3   OH271125   4.884   6.362   2.422
16545TIP3    H171126   4.844   6.445   2.387
16545TIP3    H271127   4.954   6.347   2.356
16546TIP3   OH271128   4.803   6.344   3.519
16546TIP3    H171129   4.738   6.309   3.586
16546TIP3    H271130   4.863   6.371   3.592
16547TIP3   OH271131   4.987   6.310   2.705
16547TIP3    H171132   4.961   6.367   2.630
16547TIP3    H271133   4.999   6.225   2.658
16548TIP3   OH271134   4.100   6.328   3.228
16548TIP3    H171135   4.105   6.369   3.316
16548TIP3    H271136   4.055   6.244   3.246
16549TIP3   OH271137   4.443   6.072   1.917
16549TIP3    H171138   4.400   6.030   1.996
16549TIP3    H271139   4.375   6.122   1.870
16550TIP3   OH271140   3.765   6.039   2.622
16550TIP3    H171141   3.832   6.035   2.693
16550TIP3    H271142   3.810   5.999   2.546
16551TIP3   OH271143   3.893   6.110   2.159
16551TIP3    H171144   3.941   6.174   2.104
16551TIP3    H271145   3.823   6.170   2.193
16552TIP3   OH271146   4.908   6.471   3.163
16552TIP3    H171147   4.945   6.402   3.103
16552TIP3    H271148   4.864   6.417   3.232
16553TIP3   OH271149   4.588   6.066   2.645
16553TIP3    H171150   4.495   6.068   2.675
16553TIP3    H271151   4.637   6.053   2.728
16554TIP3   OH271152   4.070   6.224   2.531
16554TIP3    H171153   3.981   6.237   2.493
16554TIP3    H271154   4.099   6.140   2.492
16555TIP3   OH271155   4.434   6.225   2.292
16555TIP3    H171156   4.529   6.238   2.312
16555TIP3    H271157   4.411   6.296   2.230
16556TIP3   OH271158   5.029   5.990   2.970
16556TIP3    H171159   4.960   5.997   3.040
16556TIP3    H271160   4.978   5.968   2.891
16557TIP3   OH271161   4.304   6.342   2.053
16557TIP3    H171162   4.249   6.309   1.981
16557TIP3    H271163   4.386   6.366   2.007
16558TIP3   OH271164   4.117   6.802   3.559
16558TIP3    H171165   4.189   6.826   3.619
16558TIP3    H271166   4.039   6.815   3.617
16559TIP3   OH271167   4.717   6.343   2.835
16559TIP3    H171168   4.776   6.289   2.781
16559TIP3    H271169   4.703   6.289   2.913
16560TIP3   OH271170   4.218   5.957   2.478
16560TIP3    H171171   4.187   5.865   2.475
16560TIP3    H271172   4.297   5.953   2.422
16561TIP3   OH271173   4.581   6.177   3.076
16561TIP3    H171174   4.498   6.227   3.086
16561TIP3    H271175   4.636   6.210   3.150
16562TIP3   OH271176   4.640   6.799   2.246
16562TIP3    H171177   4.560   6.751   2.213
16562TIP3    H271178   4.619   6.810   2.340
16563TIP3   OH271179   5.356   6.717   3.126
16563TIP3    H171180   5.414   6.765   3.065
16563TIP3    H271181   5.271   6.725   3.078
16564TIP3   OH271182   5.025   6.081   2.063
16564TIP3    H171183   4.929   6.095   2.050
16564TIP3    H271184   5.057   6.167   2.097
16565TIP3   OH271185   4.787   6.826   3.368
16565TIP3    H171186   4.756   6.781   3.449
16565TIP3    H271187   4.766   6.918   3.380
16566TIP3   OH271188   5.097   6.271   2.228
16566TIP3    H171189   5.186   6.257   2.265
16566TIP3    H271190   5.105   6.352   2.175
16567TIP3   OH271191   4.150   6.736   2.825
16567TIP3    H171192   4.221   6.730   2.758
16567TIP3    H271193   4.157   6.650   2.871
16568TIP3   OH271194   4.850   6.948   2.147
16568TIP3    H171195   4.816   7.027   2.189
16568TIP3    H271196   4.779   6.883   2.170
16569TIP3   OH271197   3.849   6.578   3.352
16569TIP3    H171198   3.869   6.534   3.437
16569TIP3    H271199   3.788   6.516   3.309
16570TIP3   OH271200   4.549   6.534   3.570
16570TIP3    H171201   4.521   6.506   3.483
16570TIP3    H271202   4.643   6.505   3.575
16571TIP3   OH271203   5.017   7.072   3.360
16571TIP3    H171204   4.923   7.084   3.341
16571TIP3    H271205   5.015   7.093   3.456
16572TIP3   OH271206   5.587   6.286   2.203
16572TIP3    H171207   5.530   6.255   2.131
16572TIP3    H271208   5.595   6.381   2.176
16573TIP3   OH271209   5.585   6.869   3.484
16573TIP3    H171210   5.497   6.894   3.448
16573TIP3    H271211   5.641   6.868   3.404
16574TIP3   OH271212   5.420   7.159   2.251
16574TIP3    H171213   5.377   7.079   2.278
16574TIP3    H271214   5.441   7.150   2.158
16575TIP3   OH271215   5.135   6.650   2.953
16575TIP3    H171216   5.041   6.628   2.944
16575TIP3    H271217   5.178   6.573   2.913
16576TIP3   OH271218   4.389   7.080   2.560
16576TIP3    H171219   4.436   7.162   2.544
16576TIP3    H271220   4.300   7.104   2.532
16577TIP3   OH271221   3.964   6.567   2.021
16577TIP3    H171222   4.023   6.633   2.061
16577TIP3    H271223   3.875   6.600   2.047
16578TIP3   OH271224   4.532   6.850   2.516
16578TIP3    H171225   4.502   6.942   2.525
16578TIP3    H271226   4.457   6.803   2.560
16579TIP3   OH271227   4.590   7.247   3.137
16579TIP3    H171228   4.615   7.340   3.126
16579TIP3    H271229   4.635   7.230   3.221
16580TIP3   OH271230   4.368  -0.003   2.436
16580TIP3    H171231   4.285   0.013   2.481
16580TIP3    H271232   4.414   0.068   2.488
16581TIP3   OH271233   4.931   6.871   3.119
16581TIP3    H171234   4.893   6.850   3.207
16581TIP3    H271235   4.992   6.797   3.103
16582TIP3   OH271236   5.158   6.972   2.027
16582TIP3    H171237   5.191   6.928   2.109
16582TIP3    H271238   5.063   6.956   2.037
16583TIP3   OH271239   5.203   7.322   3.368
16583TIP3    H171240   5.136   7.273   3.320
16583TIP3    H271241   5.224   7.396   3.308
16584TIP3   OH271242   4.014   6.053   3.307
16584TIP3    H171243   3.923   6.087   3.304
16584TIP3    H271244   4.002   5.968   3.352
16585TIP3   OH271245   5.238   6.836   2.250
16585TIP3    H171246   5.215   6.760   2.308
16585TIP3    H271247   5.333   6.844   2.271
16586TIP3   OH271248   3.977   7.229   3.151
16586TIP3    H171249   4.003   7.137   3.151
16586TIP3    H271250   3.999   7.261   3.239
16587TIP3   OH271251   4.572   7.085   1.878
16587TIP3    H171252   4.583   7.006   1.819
16587TIP3    H271253   4.532   7.036   1.955
16588TIP3   OH271254   4.458   7.036   2.120
16588TIP3    H171255   4.473   6.981   2.199
16588TIP3    H271256   4.456   7.126   2.156
16589TIP3   OH271257   4.105   6.759   2.170
16589TIP3    H171258   4.034   6.798   2.226
16589TIP3    H271259   4.155   6.838   2.143
16590TIP3   OH271260   4.887   6.028   3.200
16590TIP3    H171261   4.958   6.034   3.266
16590TIP3    H271262   4.849   5.941   3.220
16591TIP3   OH271263   4.963   5.987   2.310
16591TIP3    H171264   4.986   6.035   2.228
16591TIP3    H271265   5.020   6.030   2.375
16592TIP3   OH271266   4.720   7.178   2.202
16592TIP3    H171267   4.646   7.241   2.209
16592TIP3    H271268   4.787   7.203   2.139
16593TIP3   OH271269   4.685   6.162   2.392
16593TIP3    H171270   4.764   6.218   2.396
16593TIP3    H271271   4.659   6.150   2.486
16594TIP3   OH271272   4.737   6.260   3.299
16594TIP3    H171273   4.746   6.316   3.382
16594TIP3    H271274   4.805   6.195   3.322
16595TIP3   OH271275   4.771   5.869   2.483
16595TIP3    H171276   4.738   5.934   2.547
16595TIP3    H271277   4.840   5.923   2.437
16596TIP3   OH271278   4.483  -0.027   2.193
16596TIP3    H171279   4.467   0.057   2.151
16596TIP3    H271280   4.440  -0.008   2.281
16597TIP3   OH271281   4.337   5.979   2.148
16597TIP3    H171282   4.331   6.067   2.192
16597TIP3    H271283   4.427   5.953   2.180
16598TIP3   OH271284   5.360   6.051   3.396
16598TIP3    H171285   5.266   6.081   3.384
16598TIP3    H271286   5.390   6.051   3.304
16599TIP3   OH271287   5.219   6.430   2.799
16599TIP3    H171288   5.137   6.386   2.770
16599TIP3    H271289   5.266   6.360   2.851
16600TIP3   OH271290   4.159   7.021   2.056
16600TIP3    H171291   4.223   7.086   2.088
16600TIP3    H271292   4.212   6.976   1.988
16601TIP3   OH271293   3.995   6.288   1.970
16601TIP3    H171294   3.994   6.384   1.992
16601TIP3    H271295   3.905   6.269   1.943
16602TIP3   OH271296   4.077   5.767   2.844
16602TIP3    H171297   4.055   5.770   2.748
16602TIP3    H271298   4.032   5.683   2.870
16603TIP3   OH271299   3.977   7.156   2.465
16603TIP3    H171300   3.890   7.201   2.457
16603TIP3    H271301   4.019   7.207   2.395
16604TIP3   OH271302   4.372   7.290   3.761
16604TIP3    H171303   4.458   7.257   3.785
16604TIP3    H271304   4.366   7.279   3.664
16605TIP3   OH271305   4.771   7.263   1.908
16605TIP3    H171306   4.705   7.191   1.907
16605TIP3    H271307   4.843   7.214   1.860
16606TIP3   OH271308   5.016   7.139   3.615
16606TIP3    H171309   4.978   7.059   3.654
16606TIP3    H271310   5.085   7.163   3.680
16607TIP3   OH271311   5.237   7.240   1.918
16607TIP3    H171312   5.263   7.158   1.959
16607TIP3    H271313   5.307   7.263   1.854
16608TIP3   OH271314   3.885   6.803   3.687
16608TIP3    H171315   3.901   6.711   3.656
16608TIP3    H271316   3.810   6.831   3.632
16609TIP3   OH271317   4.321   6.840   1.892
16609TIP3    H171318   4.331   6.761   1.948
16609TIP3    H271319   4.391   6.823   1.827
16610TIP3   OH271320   4.554   6.800   3.627
16610TIP3    H171321   4.521   6.828   3.540
16610TIP3    H271322   4.566   6.702   3.618
16611TIP3   OH271323   4.859   6.947   1.869
16611TIP3    H171324   4.832   6.954   1.962
16611TIP3    H271325   4.842   6.850   1.855
16612TIP3   OH271326   5.126   6.788   3.363
16612TIP3    H171327   5.203   6.848   3.356
16612TIP3    H271328   5.053   6.851   3.371
16613TIP3   OH271329   3.974   6.525   3.626
16613TIP3    H171330   4.015   6.438   3.616
16613TIP3    H271331   3.949   6.524   3.720
16614TIP3   OH271332   4.438   6.637   2.130
16614TIP3    H171333   4.390   6.585   2.196
16614TIP3    H271334   4.466   6.569   2.066
16615TIP3   OH271335   4.364   6.420   3.361
16615TIP3    H171336   4.305   6.492   3.388
16615TIP3    H271337   4.403   6.456   3.280
16616TIP3   OH271338   4.544   6.457   1.953
16616TIP3    H171339   4.529   6.450   1.857
16616TIP3    H271340   4.642   6.467   1.959
16617TIP3   OH271341   4.890   6.723   3.682
16617TIP3    H171342   4.975   6.681   3.678
16617TIP3    H271343   4.853   6.649   3.739
16618TIP3   OH271344   5.481   6.692   1.896
16618TIP3    H171345   5.458   6.653   1.811
16618TIP3    H271346   5.487   6.788   1.875
16619TIP3   OH271347   4.402   6.157   3.469
16619TIP3    H171348   4.417   6.086   3.404
16619TIP3    H271349   4.402   6.238   3.414
16620TIP3   OH271350   4.445   5.991   3.221
16620TIP3    H171351   4.497   6.042   3.154
16620TIP3    H271352   4.355   5.988   3.179
16621TIP3   OH271353   4.598   6.542   3.245
16621TIP3    H171354   4.676   6.526   3.190
16621TIP3    H271355   4.564   6.627   3.214
16622TIP3   OH271356   5.051   6.313   3.749
16622TIP3    H171357   5.068   6.220   3.733
16622TIP3    H271358   5.133   6.363   3.746
16623TIP3   OH271359   5.174   6.599   3.557
16623TIP3    H171360   5.147   6.671   3.497
16623TIP3    H271361   5.269   6.595   3.539
16624TIP3   OH271362   4.250   6.282   3.661
16624TIP3    H171363   4.174   6.224   3.642
16624TIP3    H271364   4.318   6.246   3.599
16625TIP3   OH271365   4.521   5.737   3.265
16625TIP3    H171366   4.511   5.835   3.253
16625TIP3    H271367   4.449   5.708   3.208
16626TIP3   OH271368   4.650   6.168   3.623
16626TIP3    H171369   4.621   6.150   3.715
16626TIP3    H271370   4.571   6.152   3.570
16627TIP3   OH271371   4.923   6.080   3.526
16627TIP3    H171372   4.828   6.094   3.543
16627TIP3    H271373   4.951   6.023   3.600
16628TIP3   OH271374   5.085   5.948   3.725
16628TIP3    H171375   5.076   5.850   3.727
16628TIP3    H271376   5.055   5.978   3.813
16629TIP3   OH271377   4.061   6.074   3.634
16629TIP3    H171378   4.086   6.001   3.574
16629TIP3    H271379   4.053   6.029   3.720
16630TIP3   OH271380   4.541   5.670   3.530
16630TIP3    H171381   4.617   5.608   3.530
16630TIP3    H271382   4.539   5.698   3.437
16631TIP3   OH271383   4.580   5.837   3.741
16631TIP3    H171384   4.566   5.790   3.657
16631TIP3    H271385   4.522   5.915   3.732
16632TIP3   OH271386   3.888   6.991   2.003
16632TIP3    H171387   3.983   6.997   2.028
16632TIP3    H271388   3.892   6.922   1.933
16633TIP3   OH271389   3.836   7.338   2.691
16633TIP3    H171390   3.806   7.249   2.712
16633TIP3    H271391   3.865   7.373   2.777
16634TIP3   OH271392   5.402   6.951   3.746
16634TIP3    H171393   5.311   6.947   3.783
16634TIP3    H271394   5.439   7.032   3.788
16635TIP3   OH271395   5.531   6.782   2.289
16635TIP3    H171396   5.616   6.823   2.310
16635TIP3    H271397   5.530   6.710   2.356
16636TIP3   OH271398   5.568   6.590   2.478
16636TIP3    H171399   5.494   6.540   2.518
16636TIP3    H271400   5.628   6.606   2.553
16637TIP3   OH271401   5.544   6.862   2.977
16637TIP3    H171402   5.626   6.826   2.941
16637TIP3    H271403   5.558   6.958   2.960
16638TIP3   OH271404   5.395   7.154   3.206
16638TIP3    H171405   5.329   7.188   3.266
16638TIP3    H271406   5.342   7.110   3.135
16639TIP3   OH271407   5.598   6.574   2.117
16639TIP3    H171408   5.542   6.610   2.045
16639TIP3    H271409   5.590   6.645   2.184
16640TIP3   OH271410   5.434   6.298   1.970
16640TIP3    H171411   5.442   6.365   1.901
16640TIP3    H271412   5.417   6.216   1.921
16641TIP3   OH271413   5.349   6.439   2.534
16641TIP3    H171414   5.334   6.343   2.532
16641TIP3    H271415   5.315   6.463   2.622
16642TIP3   OH271416   3.850   6.648   2.939
16642TIP3    H171417   3.869   6.639   2.843
16642TIP3    H271418   3.939   6.631   2.976
16643TIP3   OH271419   5.435   6.636   3.502
16643TIP3    H171420   5.496   6.561   3.517
16643TIP3    H271421   5.494   6.713   3.504
16644TIP3   OH271422   5.586   6.425   3.568
16644TIP3    H171423   5.498   6.385   3.552
16644TIP3    H271424   5.643   6.348   3.560
16645TIP3   OH271425   5.359   6.043   1.883
16645TIP3    H171426   5.418   6.001   1.947
16645TIP3    H271427   5.273   6.001   1.900
16646TIP3   OH271428   5.316   6.197   2.378
16646TIP3    H171429   5.347   6.105   2.393
16646TIP3    H271430   5.397   6.238   2.345
16647TIP3   OH271431   5.380   6.252   2.924
16647TIP3    H171432   5.476   6.276   2.923
16647TIP3    H271433   5.360   6.266   3.018
16648TIP3   OH271434   5.387   6.325   3.203
16648TIP3    H171435   5.298   6.354   3.237
16648TIP3    H271436   5.430   6.411   3.181
16649TIP3   OH271437   3.811   6.177   3.554
16649TIP3    H171438   3.905   6.158   3.574
16649TIP3    H271439   3.766   6.096   3.586
16650TIP3   OH271440   5.613   5.728   3.738
16650TIP3    H171441   5.648   5.663   3.675
16650TIP3    H271442   5.626   5.811   3.687
16651TIP3   OH271443   5.383   5.926   2.385
16651TIP3    H171444   5.403   5.880   2.470
16651TIP3    H271445   5.322   5.863   2.340
16652TIP3   OH271446   3.932   6.006   2.840
16652TIP3    H171447   3.978   5.925   2.868
16652TIP3    H271448   3.984   6.076   2.881
16653TIP3   OH271449   3.761   6.305   2.945
16653TIP3    H171450   3.816   6.282   2.868
16653TIP3    H271451   3.805   6.388   2.972
16654TIP3   OH271452   5.566   5.939   3.573
16654TIP3    H171453   5.472   5.966   3.567
16654TIP3    H271454   5.571   5.885   3.493
16655TIP3   OH271455   5.566   5.930   2.041
16655TIP3    H171456   5.607   5.858   1.988
16655TIP3    H271457   5.636   5.996   2.045
16656TIP3   OH271458   3.797   5.933   2.352
16656TIP3    H171459   3.703   5.951   2.337
16656TIP3    H271460   3.840   5.981   2.280
16657TIP3   OH271461   3.792   5.800   3.183
16657TIP3    H171462   3.725   5.779   3.250
16657TIP3    H271463   3.746   5.867   3.128
16658TIP3   OH271464   4.013   7.123   3.599
16658TIP3    H171465   3.928   7.139   3.553
16658TIP3    H271466   3.987   7.111   3.691
16659TIP3   OH271467   4.309   7.219   3.231
16659TIP3    H171468   4.264   7.297   3.195
16659TIP3    H271469   4.397   7.224   3.192
16660TIP3   OH271470   5.467   5.749   3.357
16660TIP3    H171471   5.384   5.779   3.316
16660TIP3    H271472   5.485   5.668   3.303
16661TIP3   OH271473   4.200   7.268   2.770
16661TIP3    H171474   4.182   7.180   2.807
16661TIP3    H271475   4.277   7.291   2.828
16662TIP3   OH271476   4.418   7.276   2.888
16662TIP3    H171477   4.480   7.218   2.845
16662TIP3    H271478   4.460   7.314   2.966
16663TIP3   OH271479   4.807   5.892   2.787
16663TIP3    H171480   4.739   5.827   2.813
16663TIP3    H271481   4.863   5.840   2.727
16664TIP3   OH271482   5.321   5.698   2.795
16664TIP3    H171483   5.383   5.756   2.743
16664TIP3    H271484   5.233   5.734   2.771
16665TIP3   OH271485   5.488   5.821   2.624
16665TIP3    H171486   5.556   5.763   2.579
16665TIP3    H271487   5.537   5.906   2.632
16666TIP3   OH271488   4.043   5.755   2.570
16666TIP3    H171489   3.964   5.733   2.518
16666TIP3    H271490   4.091   5.670   2.566
16667TIP3   OH271491   3.923   5.731   2.145
16667TIP3    H171492   3.968   5.796   2.090
16667TIP3    H271493   3.863   5.788   2.197
16668TIP3   OH271494   4.493   5.747   2.550
16668TIP3    H171495   4.583   5.784   2.544
16668TIP3    H271496   4.487   5.726   2.643
16669TIP3   OH271497   5.059   5.750   2.713
16669TIP3    H171498   5.059   5.760   2.618
16669TIP3    H271499   5.025   5.658   2.726
16670TIP3   OH271500   5.190   5.753   2.282
16670TIP3    H171501   5.116   5.813   2.264
16670TIP3    H271502   5.145   5.667   2.301
16671TIP3   OH271503   3.895  -0.039   2.277
16671TIP3    H171504   3.853  -0.031   2.189
16671TIP3    H271505   3.919   0.053   2.281
16672TIP3   OH271506   4.112   5.931   1.987
16672TIP3    H171507   4.154   5.855   1.946
16672TIP3    H271508   4.170   5.955   2.062
16673TIP3   OH271509   4.606   5.951   2.235
16673TIP3    H171510   4.632   5.891   2.308
16673TIP3    H271511   4.612   6.036   2.284
16674TIP3   OH271512   4.034   5.806   3.515
16674TIP3    H171513   3.995   5.730   3.561
16674TIP3    H271514   4.125   5.807   3.554
16675TIP3   OH271515   4.233   5.744   3.675
16675TIP3    H171516   4.324   5.714   3.660
16675TIP3    H271517   4.195   5.666   3.722
16676TIP3   OH271518   5.074   5.676   3.694
16676TIP3    H171519   5.083   5.629   3.779
16676TIP3    H271520   5.165   5.674   3.660
16677TIP3   OH271521   5.387   7.275   3.570
16677TIP3    H171522   5.315   7.265   3.505
16677TIP3    H271523   5.391   7.371   3.580
16678TIP3   OH271524   6.837   6.667   2.559
16678TIP3    H171525   6.840   6.765   2.553
16678TIP3    H271526   6.766   6.644   2.497
16679TIP3   OH271527   6.725   6.595   2.907
16679TIP3    H171528   6.722   6.529   2.978
16679TIP3    H271529   6.692   6.546   2.830
16680TIP3   OH271530   5.960   6.560   3.063
16680TIP3    H171531   5.968   6.493   3.134
16680TIP3    H271532   6.034   6.619   3.084
16681TIP3   OH271533   7.094   6.888   2.736
16681TIP3    H171534   7.052   6.817   2.784
16681TIP3    H271535   7.099   6.958   2.802
16682TIP3   OH271536   6.055   7.006   2.916
16682TIP3    H171537   6.021   6.920   2.882
16682TIP3    H271538   6.150   6.985   2.921
16683TIP3   OH271539   5.717   6.364   2.461
16683TIP3    H171540   5.672   6.450   2.455
16683TIP3    H271541   5.660   6.309   2.405
16684TIP3   OH271542   5.787   6.585   2.674
16684TIP3    H171543   5.813   6.504   2.722
16684TIP3    H271544   5.859   6.594   2.610
16685TIP3   OH271545   6.562   6.834   2.952
16685TIP3    H171546   6.596   6.771   2.888
16685TIP3    H271547   6.641   6.851   3.006
16686TIP3   OH271548   6.878   6.281   2.985
16686TIP3    H171549   6.895   6.185   2.983
16686TIP3    H271550   6.868   6.296   2.888
16687TIP3   OH271551   6.190   6.090   2.707
16687TIP3    H171552   6.200   6.174   2.660
16687TIP3    H271553   6.149   6.033   2.639
16688TIP3   OH271554   6.965   6.101   2.546
16688TIP3    H171555   7.031   6.067   2.611
16688TIP3    H271556   7.020   6.154   2.487
16689TIP3   OH271557   5.853   6.331   2.782
16689TIP3    H171558   5.921   6.275   2.826
16689TIP3    H271559   5.862   6.300   2.690
16690TIP3   OH271560   6.370   6.486   2.710
16690TIP3    H171561   6.435   6.429   2.753
16690TIP3    H271562   6.316   6.420   2.663
16691TIP3   OH271563   6.078   5.979   3.112
16691TIP3    H171564   6.053   6.036   3.037
16691TIP3    H271565   6.011   6.003   3.180
16692TIP3   OH271566   6.810   6.927   2.467
16692TIP3    H171567   6.783   6.899   2.379
16692TIP3    H271568   6.781   7.020   2.472
16693TIP3   OH271569   6.332   6.744   3.138
16693TIP3    H171570   6.261   6.808   3.157
16693TIP3    H271571   6.403   6.804   3.109
16694TIP3   OH271572   7.129   6.031   2.750
16694TIP3    H171573   7.121   5.951   2.801
16694TIP3    H271574   7.204   6.077   2.794
16695TIP3   OH271575   6.035   6.167   2.912
16695TIP3    H171576   6.099   6.234   2.946
16695TIP3    H271577   6.089   6.123   2.842
16696TIP3   OH271578   6.174   6.941   3.214
16696TIP3    H171579   6.173   7.034   3.184
16696TIP3    H271580   6.088   6.937   3.262
16697TIP3   OH271581   5.792   6.913   2.296
16697TIP3    H171582   5.755   6.937   2.210
16697TIP3    H271583   5.789   6.994   2.350
16698TIP3   OH271584   7.141   7.071   2.977
16698TIP3    H171585   7.045   7.080   2.987
16698TIP3    H271586   7.172   7.160   2.954
16699TIP3   OH271587   7.169   5.908   3.102
16699TIP3    H171588   7.097   5.971   3.103
16699TIP3    H271589   7.241   5.953   3.056
16700TIP3   OH271590   6.469   5.708   2.836
16700TIP3    H171591   6.463   5.614   2.854
16700TIP3    H271592   6.395   5.744   2.890
16701TIP3   OH271593   6.974   7.233   2.625
16701TIP3    H171594   7.024   7.168   2.572
16701TIP3    H271595   7.010   7.317   2.592
16702TIP3   OH271596   7.093   7.041   2.482
16702TIP3    H171597   7.064   6.972   2.422
16702TIP3    H271598   7.098   6.994   2.568
16703TIP3   OH271599   7.234   6.911   3.337
16703TIP3    H171600   7.266   6.844   3.274
16703TIP3    H271601   7.276   6.989   3.297
16704TIP3   OH271602   6.705   6.593   2.310
16704TIP3    H171603   6.634   6.649   2.273
16704TIP3    H271604   6.775   6.601   2.243
16705TIP3   OH271605   6.711   6.446   2.011
16705TIP3    H171606   6.782   6.445   2.077
16705TIP3    H271607   6.743   6.377   1.951
16706TIP3   OH271608   7.047   6.615   2.400
16706TIP3    H171609   6.974   6.639   2.462
16706TIP3    H271610   7.094   6.546   2.453
16707TIP3   OH271611   7.035   6.427   3.313
16707TIP3    H171612   7.042   6.508   3.365
16707TIP3    H271613   6.978   6.462   3.242
16708TIP3   OH271614   6.210   6.681   2.592
16708TIP3    H171615   6.177   6.639   2.509
16708TIP3    H271616   6.271   6.611   2.627
16709TIP3   OH271617   6.344   7.019   2.861
16709TIP3    H171618   6.341   6.963   2.783
16709TIP3    H271619   6.421   6.983   2.909
16710TIP3   OH271620   6.244   6.554   2.958
16710TIP3    H171621   6.301   6.566   2.879
16710TIP3    H271622   6.281   6.620   3.020
16711TIP3   OH271623   6.881   7.111   3.029
16711TIP3    H171624   6.853   7.173   3.094
16711TIP3    H271625   6.858   7.024   3.071
16712TIP3   OH271626   6.351   7.001   3.397
16712TIP3    H171627   6.311   7.058   3.469
16712TIP3    H271628   6.268   6.974   3.353
16713TIP3   OH271629   6.936   6.531   2.168
16713TIP3    H171630   6.991   6.549   2.248
16713TIP3    H271631   6.977   6.581   2.095
16714TIP3   OH271632   6.031   6.612   3.346
16714TIP3    H171633   6.036   6.680   3.417
16714TIP3    H271634   5.938   6.624   3.321
16715TIP3   OH271635   6.706   7.204   2.517
16715TIP3    H171636   6.755   7.236   2.593
16715TIP3    H271637   6.652   7.279   2.491
16716TIP3   OH271638   6.130   7.243   3.477
16716TIP3    H171639   6.157   7.184   3.404
16716TIP3    H271640   6.070   7.186   3.528
16717TIP3   OH271641   7.283   5.701   2.143
16717TIP3    H171642   7.199   5.725   2.186
16717TIP3    H271643   7.320   5.784   2.112
16718TIP3   OH271644   6.108   6.584   2.354
16718TIP3    H171645   6.078   6.660   2.302
16718TIP3    H271646   6.043   6.516   2.333
16719TIP3   OH271647   5.717   6.825   3.240
16719TIP3    H171648   5.671   6.817   3.155
16719TIP3    H271649   5.722   6.730   3.264
16720TIP3   OH271650   5.694   7.101   2.918
16720TIP3    H171651   5.790   7.087   2.920
16720TIP3    H271652   5.684   7.179   2.976
16721TIP3   OH271653   6.611   7.126   3.373
16721TIP3    H171654   6.620   7.204   3.428
16721TIP3    H271655   6.525   7.087   3.403
16722TIP3   OH271656   7.204   6.325   3.542
16722TIP3    H171657   7.184   6.364   3.458
16722TIP3    H271658   7.236   6.235   3.513
16723TIP3   OH271659   5.944   6.956   3.338
16723TIP3    H171660   5.968   6.920   3.426
16723TIP3    H271661   5.858   6.915   3.316
16724TIP3   OH271662   6.210   5.801   2.934
16724TIP3    H171663   6.120   5.792   2.896
16724TIP3    H271664   6.202   5.886   2.981
16725TIP3   OH271665   6.689   5.793   3.333
16725TIP3    H171666   6.725   5.708   3.362
16725TIP3    H271667   6.604   5.765   3.286
16726TIP3   OH271668   6.999   6.151   3.356
16726TIP3    H171669   6.955   6.137   3.442
16726TIP3    H271670   6.991   6.246   3.337
16727TIP3   OH271671   7.081   6.633   1.943
16727TIP3    H171672   7.083   6.614   1.846
16727TIP3    H271673   7.164   6.679   1.952
16728TIP3   OH271674   6.641   6.027   2.000
16728TIP3    H171675   6.610   6.023   2.093
16728TIP3    H271676   6.610   5.939   1.971
16729TIP3   OH271677   6.220   6.300   3.054
16729TIP3    H171678   6.149   6.298   3.120
16729TIP3    H271679   6.218   6.393   3.021
16730TIP3   OH271680   6.217   6.316   2.543
16730TIP3    H171681   6.125   6.287   2.531
16730TIP3    H271682   6.257   6.283   2.460
16731TIP3   OH271683   6.770   6.362   2.421
16731TIP3    H171684   6.730   6.445   2.386
16731TIP3    H271685   6.841   6.346   2.356
16732TIP3   OH271686   6.679   6.379   3.563
16732TIP3    H171687   6.623   6.308   3.600
16732TIP3    H271688   6.761   6.372   3.615
16733TIP3   OH271689   6.873   6.311   2.706
16733TIP3    H171690   6.848   6.367   2.630
16733TIP3    H271691   6.884   6.226   2.659
16734TIP3   OH271692   5.986   6.328   3.228
16734TIP3    H171693   5.990   6.368   3.317
16734TIP3    H271694   5.940   6.244   3.246
16735TIP3   OH271695   6.324   6.066   1.912
16735TIP3    H171696   6.279   6.023   1.987
16735TIP3    H271697   6.252   6.107   1.862
16736TIP3   OH271698   5.650   6.039   2.622
16736TIP3    H171699   5.717   6.035   2.693
16736TIP3    H271700   5.696   5.999   2.546
16737TIP3   OH271701   5.778   6.110   2.160
16737TIP3    H171702   5.827   6.173   2.103
16737TIP3    H271703   5.708   6.171   2.193
16738TIP3   OH271704   6.794   6.470   3.164
16738TIP3    H171705   6.832   6.403   3.102
16738TIP3    H271706   6.749   6.418   3.231
16739TIP3   OH271707   6.473   6.068   2.646
16739TIP3    H171708   6.380   6.067   2.677
16739TIP3    H271709   6.523   6.052   2.728
16740TIP3   OH271710   5.956   6.224   2.531
16740TIP3    H171711   5.866   6.237   2.493
16740TIP3    H271712   5.984   6.140   2.492
16741TIP3   OH271713   6.320   6.226   2.294
16741TIP3    H171714   6.415   6.238   2.312
16741TIP3    H271715   6.297   6.295   2.229
16742TIP3   OH271716   6.913   5.990   2.970
16742TIP3    H171717   6.843   5.996   3.037
16742TIP3    H271718   6.862   5.968   2.890
16743TIP3   OH271719   6.189   6.345   2.053
16743TIP3    H171720   6.136   6.307   1.981
16743TIP3    H271721   6.272   6.365   2.006
16744TIP3   OH271722   6.003   6.802   3.559
16744TIP3    H171723   6.076   6.829   3.619
16744TIP3    H271724   5.926   6.816   3.618
16745TIP3   OH271725   6.603   6.343   2.834
16745TIP3    H171726   6.663   6.288   2.782
16745TIP3    H271727   6.588   6.288   2.912
16746TIP3   OH271728   6.104   5.958   2.478
16746TIP3    H171729   6.073   5.865   2.476
16746TIP3    H271730   6.183   5.953   2.422
16747TIP3   OH271731   6.468   6.180   3.075
16747TIP3    H171732   6.382   6.227   3.085
16747TIP3    H271733   6.520   6.211   3.150
16748TIP3   OH271734   6.523   6.802   2.245
16748TIP3    H171735   6.447   6.749   2.213
16748TIP3    H271736   6.505   6.808   2.341
16749TIP3   OH271737   7.231   6.719   3.126
16749TIP3    H171738   7.295   6.750   3.059
16749TIP3    H271739   7.149   6.724   3.074
16750TIP3   OH271740   6.909   6.080   2.063
16750TIP3    H171741   6.813   6.094   2.049
16750TIP3    H271742   6.939   6.167   2.097
16751TIP3   OH271743   6.675   6.824   3.369
16751TIP3    H171744   6.639   6.782   3.449
16751TIP3    H271745   6.652   6.916   3.379
16752TIP3   OH271746   6.981   6.271   2.225
16752TIP3    H171747   7.069   6.258   2.265
16752TIP3    H271748   6.989   6.354   2.176
16753TIP3   OH271749   6.036   6.736   2.825
16753TIP3    H171750   6.107   6.730   2.758
16753TIP3    H271751   6.042   6.650   2.871
16754TIP3   OH271752   6.736   6.946   2.149
16754TIP3    H171753   6.704   7.030   2.185
16754TIP3    H271754   6.662   6.885   2.170
16755TIP3   OH271755   5.735   6.578   3.352
16755TIP3    H171756   5.755   6.534   3.437
16755TIP3    H271757   5.674   6.516   3.309
16756TIP3   OH271758   6.436   6.529   3.572
16756TIP3    H171759   6.405   6.509   3.483
16756TIP3    H271760   6.531   6.505   3.570
16757TIP3   OH271761   6.902   7.073   3.359
16757TIP3    H171762   6.809   7.084   3.340
16757TIP3    H271763   6.902   7.093   3.456
16758TIP3   OH271764   7.283   7.157   2.245
16758TIP3    H171765   7.261   7.073   2.280
16758TIP3    H271766   7.328   7.147   2.160
16759TIP3   OH271767   7.016   6.649   2.954
16759TIP3    H171768   6.922   6.627   2.942
16759TIP3    H271769   7.063   6.573   2.913
16760TIP3   OH271770   6.275   7.079   2.554
16760TIP3    H171771   6.323   7.163   2.545
16760TIP3    H271772   6.184   7.107   2.537
16761TIP3   OH271773   5.849   6.567   2.020
16761TIP3    H171774   5.908   6.631   2.061
16761TIP3    H271775   5.761   6.600   2.047
16762TIP3   OH271776   6.415   6.850   2.513
16762TIP3    H171777   6.388   6.942   2.527
16762TIP3    H271778   6.343   6.802   2.561
16763TIP3   OH271779   6.477   7.247   3.135
16763TIP3    H171780   6.501   7.341   3.126
16763TIP3    H271781   6.519   7.229   3.221
16764TIP3   OH271782   6.251  -0.005   2.440
16764TIP3    H171783   6.169   0.017   2.483
16764TIP3    H271784   6.301   0.068   2.486
16765TIP3   OH271785   6.818   6.871   3.121
16765TIP3    H171786   6.778   6.848   3.208
16765TIP3    H271787   6.877   6.796   3.102
16766TIP3   OH271788   7.046   6.970   2.027
16766TIP3    H171789   7.074   6.928   2.111
16766TIP3    H271790   6.950   6.959   2.037
16767TIP3   OH271791   7.089   7.327   3.369
16767TIP3    H171792   7.025   7.275   3.320
16767TIP3    H271793   7.112   7.397   3.307
16768TIP3   OH271794   5.900   6.052   3.307
16768TIP3    H171795   5.809   6.087   3.304
16768TIP3    H271796   5.889   5.967   3.352
16769TIP3   OH271797   7.123   6.833   2.251
16769TIP3    H171798   7.099   6.757   2.309
16769TIP3    H271799   7.217   6.845   2.273
16770TIP3   OH271800   5.862   7.229   3.152
16770TIP3    H171801   5.889   7.137   3.151
16770TIP3    H271802   5.886   7.260   3.240
16771TIP3   OH271803   6.455   7.081   1.874
16771TIP3    H171804   6.470   7.003   1.818
16771TIP3    H271805   6.420   7.039   1.955
16772TIP3   OH271806   6.334   7.034   2.125
16772TIP3    H171807   6.371   6.981   2.197
16772TIP3    H271808   6.355   7.128   2.147
16773TIP3   OH271809   5.990   6.760   2.171
16773TIP3    H171810   5.918   6.796   2.227
16773TIP3    H271811   6.041   6.836   2.140
16774TIP3   OH271812   6.770   6.033   3.209
16774TIP3    H171813   6.852   6.030   3.259
16774TIP3    H271814   6.736   5.939   3.210
16775TIP3   OH271815   6.850   5.987   2.309
16775TIP3    H171816   6.873   6.035   2.228
16775TIP3    H271817   6.906   6.030   2.375
16776TIP3   OH271818   6.616   7.202   2.193
16776TIP3    H171819   6.536   7.255   2.199
16776TIP3    H271820   6.669   7.253   2.130
16777TIP3   OH271821   6.571   6.163   2.392
16777TIP3    H171822   6.651   6.218   2.397
16777TIP3    H271823   6.545   6.149   2.485
16778TIP3   OH271824   6.624   6.259   3.315
16778TIP3    H171825   6.636   6.324   3.388
16778TIP3    H271826   6.701   6.202   3.314
16779TIP3   OH271827   6.654   5.869   2.483
16779TIP3    H171828   6.625   5.934   2.549
16779TIP3    H271829   6.724   5.922   2.438
16780TIP3   OH271830   6.356  -0.035   2.192
16780TIP3    H171831   6.367   0.047   2.141
16780TIP3    H271832   6.330  -0.000   2.280
16781TIP3   OH271833   6.222   5.977   2.153
16781TIP3    H171834   6.217   6.068   2.190
16781TIP3    H271835   6.313   5.953   2.179
16782TIP3   OH271836   7.240   6.046   3.390
16782TIP3    H171837   7.150   6.083   3.383
16782TIP3    H271838   7.275   6.055   3.301
16783TIP3   OH271839   7.106   6.430   2.803
16783TIP3    H171840   7.024   6.387   2.770
16783TIP3    H271841   7.147   6.357   2.851
16784TIP3   OH271842   6.042   7.023   2.050
16784TIP3    H171843   6.107   7.091   2.069
16784TIP3    H271844   6.095   6.973   1.982
16785TIP3   OH271845   5.880   6.288   1.971
16785TIP3    H171846   5.880   6.384   1.991
16785TIP3    H271847   5.791   6.269   1.942
16786TIP3   OH271848   5.961   5.768   2.843
16786TIP3    H171849   5.940   5.770   2.747
16786TIP3    H271850   5.919   5.684   2.870
16787TIP3   OH271851   5.863   7.154   2.461
16787TIP3    H171852   5.776   7.200   2.461
16787TIP3    H271853   5.904   7.211   2.396
16788TIP3   OH271854   6.268   7.311   3.764
16788TIP3    H171855   6.339   7.252   3.787
16788TIP3    H271856   6.248   7.277   3.672
16789TIP3   OH271857   6.658   7.264   1.893
16789TIP3    H171858   6.589   7.199   1.914
16789TIP3    H271859   6.731   7.209   1.863
16790TIP3   OH271860   6.902   7.139   3.616
16790TIP3    H171861   6.864   7.058   3.654
16790TIP3    H271862   6.970   7.162   3.682
16791TIP3   OH271863   7.124   7.242   1.918
16791TIP3    H171864   7.146   7.158   1.960
16791TIP3    H271865   7.194   7.261   1.854
16792TIP3   OH271866   5.770   6.803   3.688
16792TIP3    H171867   5.788   6.712   3.656
16792TIP3    H271868   5.696   6.831   3.631
16793TIP3   OH271869   6.205   6.841   1.895
16793TIP3    H171870   6.216   6.759   1.946
16793TIP3    H271871   6.275   6.825   1.828
16794TIP3   OH271872   6.446   6.797   3.625
16794TIP3    H171873   6.405   6.831   3.543
16794TIP3    H271874   6.450   6.700   3.616
16795TIP3   OH271875   6.747   6.945   1.869
16795TIP3    H171876   6.718   6.957   1.960
16795TIP3    H271877   6.726   6.850   1.856
16796TIP3   OH271878   7.009   6.785   3.363
16796TIP3    H171879   7.087   6.846   3.355
16796TIP3    H271880   6.939   6.851   3.370
16797TIP3   OH271881   5.860   6.524   3.626
16797TIP3    H171882   5.901   6.438   3.616
16797TIP3    H271883   5.835   6.524   3.720
16798TIP3   OH271884   6.323   6.638   2.131
16798TIP3    H171885   6.276   6.583   2.196
16798TIP3    H271886   6.352   6.569   2.066
16799TIP3   OH271887   6.253   6.419   3.362
16799TIP3    H171888   6.191   6.490   3.389
16799TIP3    H271889   6.288   6.457   3.280
16800TIP3   OH271890   6.431   6.460   1.953
16800TIP3    H171891   6.415   6.448   1.857
16800TIP3    H271892   6.528   6.467   1.959
16801TIP3   OH271893   6.754   6.673   3.693
16801TIP3    H171894   6.851   6.678   3.685
16801TIP3    H271895   6.740   6.598   3.752
16802TIP3   OH271896   6.294   6.158   3.470
16802TIP3    H171897   6.300   6.085   3.404
16802TIP3    H271898   6.285   6.238   3.413
16803TIP3   OH271899   6.327   6.005   3.226
16803TIP3    H171900   6.383   6.037   3.151
16803TIP3    H271901   6.243   5.985   3.180
16804TIP3   OH271902   6.486   6.541   3.247
16804TIP3    H171903   6.561   6.527   3.188
16804TIP3    H271904   6.450   6.626   3.215
16805TIP3   OH271905   6.925   6.321   3.743
16805TIP3    H171906   6.950   6.228   3.735
16805TIP3    H271907   7.012   6.363   3.745
16806TIP3   OH271908   7.055   6.598   3.557
16806TIP3    H171909   7.033   6.672   3.497
16806TIP3    H271910   7.152   6.595   3.541
16807TIP3   OH271911   6.135   6.282   3.661
16807TIP3    H171912   6.059   6.224   3.642
16807TIP3    H271913   6.202   6.246   3.600
16808TIP3   OH271914   6.376   5.739   3.296
16808TIP3    H171915   6.397   5.826   3.255
16808TIP3    H271916   6.336   5.702   3.216
16809TIP3   OH271917   6.539   6.165   3.618
16809TIP3    H171918   6.509   6.149   3.711
16809TIP3    H271919   6.454   6.153   3.571
16810TIP3   OH271920   6.814   6.091   3.543
16810TIP3    H171921   6.720   6.099   3.560
16810TIP3    H271922   6.845   6.022   3.606
16811TIP3   OH271923   6.968   5.947   3.724
16811TIP3    H171924   6.963   5.851   3.729
16811TIP3    H271925   6.942   5.979   3.813
16812TIP3   OH271926   5.946   6.074   3.634
16812TIP3    H171927   5.971   6.001   3.574
16812TIP3    H271928   5.938   6.029   3.720
16813TIP3   OH271929   6.437   5.677   3.537
16813TIP3    H171930   6.498   5.603   3.526
16813TIP3    H271931   6.417   5.694   3.441
16814TIP3   OH271932   6.472   5.841   3.737
16814TIP3    H171933   6.448   5.789   3.656
16814TIP3    H271934   6.406   5.914   3.734
16815TIP3   OH271935   5.776   6.994   2.001
16815TIP3    H171936   5.870   6.990   2.027
16815TIP3    H271937   5.775   6.920   1.934
16816TIP3   OH271938   5.722   7.338   2.691
16816TIP3    H171939   5.692   7.249   2.712
16816TIP3    H271940   5.750   7.373   2.777
16817TIP3   OH271941   7.269   6.962   3.734
16817TIP3    H171942   7.192   6.945   3.789
16817TIP3    H271943   7.321   7.024   3.787
16818TIP3   OH271944   7.280   7.150   3.209
16818TIP3    H171945   7.214   7.187   3.268
16818TIP3    H271946   7.228   7.109   3.136
16819TIP3   OH271947   7.309   6.299   1.972
16819TIP3    H171948   7.326   6.363   1.903
16819TIP3    H271949   7.301   6.216   1.922
16820TIP3   OH271950   7.203   6.445   2.535
16820TIP3    H171951   7.217   6.349   2.538
16820TIP3    H271952   7.197   6.466   2.630
16821TIP3   OH271953   5.735   6.647   2.939
16821TIP3    H171954   5.755   6.639   2.843
16821TIP3    H271955   5.824   6.631   2.976
16822TIP3   OH271956  -0.031   6.640   3.528
16822TIP3    H171957   0.028   6.563   3.526
16822TIP3    H271958   0.028   6.712   3.501
16823TIP3   OH271959   7.245   6.044   1.883
16823TIP3    H171960   7.302   6.000   1.946
16823TIP3    H271961   7.160   6.000   1.900
16824TIP3   OH271962   7.201   6.195   2.371
16824TIP3    H171963   7.230   6.106   2.400
16824TIP3    H271964   7.281   6.234   2.339
16825TIP3   OH271965   7.228   6.204   2.916
16825TIP3    H171966   7.323   6.220   2.904
16825TIP3    H271967   7.231   6.253   3.000
16826TIP3   OH271968   7.270   6.325   3.210
16826TIP3    H171969   7.182   6.355   3.238
16826TIP3    H271970   7.312   6.406   3.177
16827TIP3   OH271971   5.697   6.177   3.554
16827TIP3    H171972   5.791   6.158   3.574
16827TIP3    H271973   5.652   6.096   3.585
16828TIP3   OH271974   7.191   5.907   2.436
16828TIP3    H171975   7.279   5.879   2.470
16828TIP3    H271976   7.196   5.858   2.351
16829TIP3   OH271977   5.817   6.006   2.840
16829TIP3    H171978   5.864   5.925   2.868
16829TIP3    H271979   5.870   6.076   2.881
16830TIP3   OH271980   5.646   6.305   2.945
16830TIP3    H171981   5.702   6.282   2.868
16830TIP3    H271982   5.690   6.387   2.972
16831TIP3   OH271983   5.683   5.933   2.352
16831TIP3    H171984   5.589   5.951   2.337
16831TIP3    H271985   5.726   5.981   2.280
16832TIP3   OH271986   5.678   5.801   3.184
16832TIP3    H171987   5.610   5.779   3.250
16832TIP3    H271988   5.632   5.867   3.128
16833TIP3   OH271989   5.898   7.122   3.599
16833TIP3    H171990   5.814   7.140   3.553
16833TIP3    H271991   5.873   7.111   3.691
16834TIP3   OH271992   6.194   7.217   3.224
16834TIP3    H171993   6.150   7.298   3.197
16834TIP3    H271994   6.284   7.224   3.193
16835TIP3   OH271995   6.086   7.267   2.768
16835TIP3    H171996   6.067   7.181   2.808
16835TIP3    H271997   6.162   7.291   2.828
16836TIP3   OH271998   6.303   7.277   2.887
16836TIP3    H171999   6.366   7.218   2.845
16836TIP3    H272000   6.345   7.314   2.965
16837TIP3   OH272001   6.692   5.892   2.783
16837TIP3    H172002   6.626   5.829   2.817
16837TIP3    H272003   6.748   5.838   2.727
16838TIP3   OH272004   7.208   5.698   2.797
16838TIP3    H172005   7.264   5.759   2.748
16838TIP3    H272006   7.119   5.732   2.773
16839TIP3   OH272007   5.929   5.756   2.570
16839TIP3    H172008   5.849   5.732   2.519
16839TIP3    H272009   5.976   5.670   2.567
16840TIP3   OH272010   5.808   5.731   2.145
16840TIP3    H172011   5.855   5.796   2.090
16840TIP3    H272012   5.748   5.788   2.197
16841TIP3   OH272013   6.379   5.747   2.549
16841TIP3    H172014   6.469   5.784   2.546
16841TIP3    H272015   6.373   5.726   2.643
16842TIP3   OH272016   6.950   5.748   2.712
16842TIP3    H172017   6.945   5.760   2.616
16842TIP3    H272018   6.909   5.659   2.726
16843TIP3   OH272019   7.070   5.748   2.276
16843TIP3    H172020   6.999   5.813   2.265
16843TIP3    H272021   7.026   5.665   2.302
16844TIP3   OH272022   5.784  -0.041   2.275
16844TIP3    H172023   5.734  -0.026   2.193
16844TIP3    H272024   5.804   0.053   2.285
16845TIP3   OH272025   5.991   5.925   1.994
16845TIP3    H172026   6.044   5.863   1.941
16845TIP3    H272027   6.057   5.956   2.058
16846TIP3   OH272028   6.494   5.951   2.235
16846TIP3    H172029   6.517   5.891   2.309
16846TIP3    H272030   6.497   6.037   2.283
16847TIP3   OH272031   5.919   5.809   3.517
16847TIP3    H172032   5.883   5.729   3.560
16847TIP3    H272033   6.011   5.806   3.552
16848TIP3   OH272034   6.118   5.746   3.678
16848TIP3    H172035   6.208   5.713   3.656
16848TIP3    H272036   6.081   5.666   3.720
16849TIP3   OH272037   6.958   5.675   3.693
16849TIP3    H172038   6.973   5.633   3.780
16849TIP3    H272039   7.051   5.674   3.659
16850TIP3   OH272040   7.278   7.281   3.570
16850TIP3    H172041   7.205   7.263   3.508
16850TIP3    H272042   7.272   7.376   3.579
16851TIP3   OH272043   1.180   1.012   4.445
16851TIP3    H172044   1.182   1.110   4.438
16851TIP3    H272045   1.110   0.987   4.383
16852TIP3   OH272046   1.068   0.938   4.793
16852TIP3    H172047   1.066   0.873   4.864
16852TIP3    H272048   1.035   0.889   4.716
16853TIP3   OH272049   0.306   0.903   4.947
16853TIP3    H172050   0.311   0.836   5.019
16853TIP3    H272051   0.378   0.962   4.970
16854TIP3   OH272052   1.438   1.232   4.621
16854TIP3    H172053   1.395   1.161   4.669
16854TIP3    H272054   1.439   1.304   4.687
16855TIP3   OH272055   0.394   1.349   4.802
16855TIP3    H172056   0.362   1.263   4.767
16855TIP3    H272057   0.490   1.330   4.805
16856TIP3   OH272058   0.079   0.709   4.321
16856TIP3    H172059   0.025   0.787   4.348
16856TIP3    H272060   0.006   0.653   4.301
16857TIP3   OH272061   0.129   0.926   4.557
16857TIP3    H172062   0.153   0.848   4.609
16857TIP3    H272063   0.203   0.937   4.496
16858TIP3   OH272064   1.149   1.747   4.646
16858TIP3    H172065   1.213   1.677   4.617
16858TIP3    H272066   1.130   1.717   4.735
16859TIP3   OH272067   0.906   1.180   4.838
16859TIP3    H172068   0.939   1.115   4.774
16859TIP3    H272069   0.985   1.194   4.893
16860TIP3   OH272070   1.769   0.341   4.914
16860TIP3    H172071   1.782   0.404   4.989
16860TIP3    H272072   1.820   0.386   4.846
16861TIP3   OH272073   1.222   0.624   4.870
16861TIP3    H172074   1.237   0.527   4.870
16861TIP3    H272075   1.212   0.639   4.774
16862TIP3   OH272076   0.536   0.435   4.594
16862TIP3    H172077   0.544   0.519   4.545
16862TIP3    H272078   0.493   0.377   4.527
16863TIP3   OH272079   1.307   0.441   4.430
16863TIP3    H172080   1.374   0.411   4.496
16863TIP3    H272081   1.362   0.498   4.373
16864TIP3   OH272082   0.199   0.672   4.662
16864TIP3    H172083   0.266   0.619   4.710
16864TIP3    H272084   0.208   0.640   4.572
16865TIP3   OH272085   0.713   0.829   4.595
16865TIP3    H172086   0.778   0.772   4.639
16865TIP3    H272087   0.659   0.763   4.548
16866TIP3   OH272088   1.809   0.484   5.141
16866TIP3    H172089   1.747   0.559   5.130
16866TIP3    H272090   1.814   0.474   5.236
16867TIP3   OH272091   0.423   0.324   4.996
16867TIP3    H172092   0.394   0.379   4.922
16867TIP3    H272093   0.354   0.346   5.064
16868TIP3   OH272094   1.154   1.272   4.352
16868TIP3    H172095   1.126   1.242   4.265
16868TIP3    H272096   1.122   1.365   4.357
16869TIP3   OH272097   0.677   1.088   5.024
16869TIP3    H172098   0.603   1.150   5.041
16869TIP3    H272099   0.747   1.148   4.994
16870TIP3   OH272100   1.488   0.375   4.628
16870TIP3    H172101   1.465   0.299   4.683
16870TIP3    H272102   1.555   0.419   4.683
16871TIP3   OH272103   0.378   0.508   4.798
16871TIP3    H172104   0.440   0.576   4.832
16871TIP3    H272105   0.433   0.466   4.728
16872TIP3   OH272106   0.518   1.286   5.102
16872TIP3    H172107   0.514   1.378   5.069
16872TIP3    H272108   0.431   1.279   5.147
16873TIP3   OH272109   0.129   1.254   4.180
16873TIP3    H172110   0.103   1.282   4.092
16873TIP3    H272111   0.134   1.336   4.232
16874TIP3   OH272112   1.490   1.415   4.856
16874TIP3    H172113   1.394   1.427   4.871
16874TIP3    H272114   1.517   1.508   4.841
16875TIP3   OH272115   1.523   0.245   5.001
16875TIP3    H172116   1.449   0.306   4.989
16875TIP3    H272117   1.592   0.285   4.944
16876TIP3   OH272118   0.847   0.071   4.744
16876TIP3    H172119   0.827  -0.023   4.738
16876TIP3    H272120   0.755   0.096   4.765
16877TIP3   OH272121   1.315   1.594   4.518
16877TIP3    H172122   1.359   1.523   4.467
16877TIP3    H272123   1.354   1.674   4.477
16878TIP3   OH272124   1.435   1.387   4.369
16878TIP3    H172125   1.406   1.316   4.309
16878TIP3    H272126   1.439   1.339   4.453
16879TIP3   OH272127   1.600   1.245   5.219
16879TIP3    H172128   1.613   1.181   5.145
16879TIP3    H272129   1.617   1.331   5.176
16880TIP3   OH272130   1.048   0.936   4.195
16880TIP3    H172131   0.978   0.992   4.159
16880TIP3    H272132   1.118   0.944   4.128
16881TIP3   OH272133   1.054   0.789   3.896
16881TIP3    H172134   1.125   0.788   3.962
16881TIP3    H272135   1.086   0.720   3.837
16882TIP3   OH272136   1.785   0.875   5.021
16882TIP3    H172137   1.721   0.949   5.030
16882TIP3    H272138   1.834   0.900   4.941
16883TIP3   OH272139   1.391   0.957   4.287
16883TIP3    H172140   1.317   0.981   4.347
16883TIP3    H272141   1.437   0.888   4.338
16884TIP3   OH272142   1.383   0.772   5.199
16884TIP3    H172143   1.387   0.852   5.253
16884TIP3    H272144   1.321   0.804   5.129
16885TIP3   OH272145   0.555   1.024   4.478
16885TIP3    H172146   0.520   0.983   4.395
16885TIP3    H272147   0.615   0.953   4.512
16886TIP3   OH272148   0.687   1.363   4.747
16886TIP3    H172149   0.684   1.308   4.668
16886TIP3    H272150   0.764   1.326   4.793
16887TIP3   OH272151   0.588   0.898   4.843
16887TIP3    H172152   0.644   0.909   4.764
16887TIP3    H272153   0.624   0.964   4.906
16888TIP3   OH272154   1.226   1.453   4.914
16888TIP3    H172155   1.199   1.518   4.981
16888TIP3    H272156   1.201   1.368   4.957
16889TIP3   OH272157   0.679   1.337   5.316
16889TIP3    H172158   0.645   1.417   5.360
16889TIP3    H272159   0.613   1.321   5.244
16890TIP3   OH272160   1.278   0.876   4.055
16890TIP3    H172161   1.335   0.892   4.134
16890TIP3    H272162   1.322   0.925   3.982
16891TIP3   OH272163   0.376   0.958   5.235
16891TIP3    H172164   0.378   1.025   5.306
16891TIP3    H272165   0.284   0.968   5.204
16892TIP3   OH272166   1.050   1.548   4.401
16892TIP3    H172167   1.095   1.579   4.480
16892TIP3    H272168   0.994   1.623   4.377
16893TIP3   OH272169   0.506   1.543   5.390
16893TIP3    H172170   0.499   1.532   5.293
16893TIP3    H272171   0.412   1.532   5.416
16894TIP3   OH272172   1.650   0.057   4.035
16894TIP3    H172173   1.559   0.064   4.068
16894TIP3    H272174   1.672   0.142   3.997
16895TIP3   OH272175   0.453   0.925   4.237
16895TIP3    H172176   0.423   1.005   4.189
16895TIP3    H272177   0.385   0.860   4.219
16896TIP3   OH272178   1.763   1.486   3.876
16896TIP3    H172179   1.778   1.580   3.896
16896TIP3    H272180   1.856   1.455   3.876
16897TIP3   OH272181   0.098   1.159   5.106
16897TIP3    H172182   0.024   1.163   5.042
16897TIP3    H272183   0.069   1.075   5.149
16898TIP3   OH272184   0.047   1.452   4.795
16898TIP3    H172185   0.138   1.427   4.807
16898TIP3    H272186   0.030   1.519   4.862
16899TIP3   OH272187   1.859   1.512   5.377
16899TIP3    H172188   1.849   1.416   5.371
16899TIP3    H272189   1.773   1.536   5.416
16900TIP3   OH272190   0.999   1.841   4.243
16900TIP3    H172191   0.988   1.832   4.146
16900TIP3    H272192   0.999   1.937   4.256
16901TIP3   OH272193   0.363   1.728   4.422
16901TIP3    H172194   0.377   1.686   4.510
16901TIP3    H272195   0.279   1.686   4.397
16902TIP3   OH272196   1.305   1.761   3.941
16902TIP3    H172197   1.348   1.685   3.896
16902TIP3    H272198   1.308   1.734   4.035
16903TIP3   OH272199   1.274   1.754   4.217
16903TIP3    H172200   1.178   1.762   4.236
16903TIP3    H272201   1.299   1.681   4.276
16904TIP3   OH272202   1.574   0.656   5.422
16904TIP3    H172203   1.528   0.705   5.352
16904TIP3    H272204   1.575   0.566   5.388
16905TIP3   OH272205   0.288   1.302   5.223
16905TIP3    H172206   0.307   1.263   5.311
16905TIP3    H272207   0.202   1.260   5.200
16906TIP3   OH272208   0.549   0.158   4.826
16906TIP3    H172209   0.462   0.141   4.783
16906TIP3    H272210   0.538   0.241   4.870
16907TIP3   OH272211   1.017   0.116   5.159
16907TIP3    H172212   1.057   0.074   5.235
16907TIP3    H272213   0.921   0.103   5.171
16908TIP3   OH272214   1.349   0.494   5.246
16908TIP3    H172215   1.293   0.479   5.324
16908TIP3    H272216   1.333   0.586   5.220
16909TIP3   OH272217   1.424   0.979   3.829
16909TIP3    H172218   1.425   0.958   3.733
16909TIP3    H272219   1.510   1.022   3.839
16910TIP3   OH272220   0.987   0.370   3.886
16910TIP3    H172221   0.953   0.364   3.979
16910TIP3    H272222   0.952   0.282   3.858
16911TIP3   OH272223   0.563   0.642   4.938
16911TIP3    H172224   0.493   0.640   5.006
16911TIP3    H272225   0.559   0.735   4.907
16912TIP3   OH272226   0.561   0.658   4.428
16912TIP3    H172227   0.468   0.630   4.416
16912TIP3    H272228   0.601   0.625   4.345
16913TIP3   OH272229   1.113   0.706   4.307
16913TIP3    H172230   1.073   0.788   4.272
16913TIP3    H272231   1.183   0.690   4.242
16914TIP3   OH272232   1.216   0.653   4.590
16914TIP3    H172233   1.190   0.710   4.516
16914TIP3    H272234   1.228   0.568   4.543
16915TIP3   OH272235   0.332   0.670   5.114
16915TIP3    H172236   0.333   0.711   5.202
16915TIP3    H272237   0.284   0.587   5.129
16916TIP3   OH272238   0.667   0.415   3.799
16916TIP3    H172239   0.626   0.363   3.872
16916TIP3    H272240   0.594   0.447   3.747
16917TIP3   OH272241   0.011   0.396   4.497
16917TIP3    H172242   0.062   0.378   4.579
16917TIP3    H272243   0.045   0.338   4.430
16918TIP3   OH272244   0.116   0.458   4.046
16918TIP3    H172245   0.173   0.514   3.991
16918TIP3    H272246   0.048   0.517   4.077
16919TIP3   OH272247   1.139   0.814   5.050
16919TIP3    H172248   1.174   0.747   4.988
16919TIP3    H272249   1.092   0.759   5.115
16920TIP3   OH272250   0.817   0.408   4.530
16920TIP3    H172251   0.724   0.409   4.561
16920TIP3    H272252   0.866   0.398   4.613
16921TIP3   OH272253   0.304   0.566   4.414
16921TIP3    H172254   0.213   0.582   4.380
16921TIP3    H272255   0.328   0.480   4.377
16922TIP3   OH272256   0.663   0.570   4.181
16922TIP3    H172257   0.759   0.581   4.197
16922TIP3    H272258   0.641   0.637   4.114
16923TIP3   OH272259   1.258   0.332   4.855
16923TIP3    H172260   1.189   0.341   4.924
16923TIP3    H272261   1.208   0.311   4.775
16924TIP3   OH272262   0.529   0.696   3.934
16924TIP3    H172263   0.482   0.645   3.867
16924TIP3    H272264   0.617   0.706   3.894
16925TIP3   OH272265   1.582   1.905   5.489
16925TIP3    H172266   1.609   1.938   5.403
16925TIP3    H272267   1.655   1.928   5.547
16926TIP3   OH272268   0.346   1.146   5.442
16926TIP3    H172269   0.418   1.171   5.503
16926TIP3    H272270   0.270   1.164   5.502
16927TIP3   OH272271   0.946   0.685   4.720
16927TIP3    H172272   1.005   0.630   4.667
16927TIP3    H272273   0.932   0.632   4.799
16928TIP3   OH272274   0.447   0.304   4.363
16928TIP3    H172275   0.415   0.212   4.361
16928TIP3    H272276   0.526   0.296   4.306
16929TIP3   OH272277   0.810   0.520   4.961
16929TIP3    H172278   0.726   0.570   4.971
16929TIP3    H272279   0.864   0.553   5.036
16930TIP3   OH272280   0.869   1.143   4.131
16930TIP3    H172281   0.789   1.094   4.098
16930TIP3    H272282   0.848   1.152   4.226
16931TIP3   OH272283   1.584   1.062   5.012
16931TIP3    H172284   1.643   1.107   4.950
16931TIP3    H272285   1.499   1.068   4.963
16932TIP3   OH272286   1.253   0.427   3.948
16932TIP3    H172287   1.156   0.437   3.935
16932TIP3    H272288   1.285   0.512   3.984
16933TIP3   OH272289   1.019   1.166   5.255
16933TIP3    H172290   0.982   1.126   5.334
16933TIP3    H272291   0.993   1.258   5.264
16934TIP3   OH272292   1.325   0.614   4.114
16934TIP3    H172293   1.415   0.601   4.151
16934TIP3    H272294   1.333   0.695   4.061
16935TIP3   OH272295   0.380   1.080   4.710
16935TIP3    H172296   0.450   1.073   4.643
16935TIP3    H272297   0.386   0.994   4.756
16936TIP3   OH272298   1.079   1.289   4.033
16936TIP3    H172299   1.045   1.373   4.071
16936TIP3    H272300   1.005   1.228   4.055
16937TIP3   OH272301   0.101   0.900   5.214
16937TIP3    H172302   0.106   0.878   5.308
16937TIP3    H272303   0.017   0.858   5.194
16938TIP3   OH272304   0.780   0.876   5.456
16938TIP3    H172305   0.748   0.851   5.368
16938TIP3    H272306   0.872   0.849   5.457
16939TIP3   OH272307   1.815   0.631   4.089
16939TIP3    H172308   1.759   0.599   4.016
16939TIP3    H272309   1.824   0.725   4.061
16940TIP3   OH272310   1.814   1.216   5.372
16940TIP3    H172311   1.727   1.235   5.331
16940TIP3    H272312   1.870   1.209   5.292
16941TIP3   OH272313   1.642   1.512   4.130
16941TIP3    H172314   1.607   1.429   4.163
16941TIP3    H272315   1.675   1.492   4.041
16942TIP3   OH272316   1.364   0.994   4.840
16942TIP3    H172317   1.269   0.972   4.830
16942TIP3    H272318   1.406   0.917   4.798
16943TIP3   OH272319   0.616   1.426   4.450
16943TIP3    H172320   0.667   1.506   4.428
16943TIP3    H272321   0.528   1.450   4.417
16944TIP3   OH272322   0.188   0.916   3.908
16944TIP3    H172323   0.253   0.979   3.949
16944TIP3    H272324   0.104   0.950   3.941
16945TIP3   OH272325   0.759   1.192   4.402
16945TIP3    H172326   0.729   1.285   4.411
16945TIP3    H272327   0.685   1.145   4.446
16946TIP3   OH272328   0.804   1.610   5.040
16946TIP3    H172329   0.848   1.693   5.013
16946TIP3    H272330   0.864   1.579   5.109
16947TIP3   OH272331   0.626   1.693   4.356
16947TIP3    H172332   0.529   1.706   4.367
16947TIP3    H272333   0.662   1.777   4.391
16948TIP3   OH272334   1.161   1.216   5.008
16948TIP3    H172335   1.121   1.191   5.093
16948TIP3    H272336   1.221   1.142   4.988
16949TIP3   OH272337   1.388   1.316   3.913
16949TIP3    H172338   1.418   1.271   3.995
16949TIP3    H272339   1.292   1.300   3.923
16950TIP3   OH272340   1.835   1.755   3.935
16950TIP3    H172341   1.906   1.819   3.920
16950TIP3    H272342   1.764   1.816   3.968
16951TIP3   OH272343   0.243   0.395   5.194
16951TIP3    H172344   0.152   0.428   5.191
16951TIP3    H272345   0.232   0.307   5.236
16952TIP3   OH272346   1.467   1.181   4.137
16952TIP3    H172347   1.443   1.104   4.192
16952TIP3    H272348   1.562   1.187   4.156
16953TIP3   OH272349   0.209   1.577   5.033
16953TIP3    H172350   0.230   1.483   5.035
16953TIP3    H272351   0.230   1.602   5.124
16954TIP3   OH272352   0.799   1.425   3.761
16954TIP3    H172353   0.814   1.348   3.704
16954TIP3    H272354   0.761   1.382   3.840
16955TIP3   OH272355   0.682   1.378   4.006
16955TIP3    H172356   0.704   1.327   4.085
16955TIP3    H272357   0.686   1.471   4.038
16956TIP3   OH272358   0.329   1.102   4.050
16956TIP3    H172359   0.264   1.141   4.113
16956TIP3    H272360   0.385   1.181   4.031
16957TIP3   OH272361   1.115   0.371   5.087
16957TIP3    H172362   1.189   0.377   5.149
16957TIP3    H272363   1.079   0.282   5.102
16958TIP3   OH272364   1.199   0.328   4.197
16958TIP3    H172365   1.213   0.380   4.114
16958TIP3    H272366   1.249   0.379   4.262
16959TIP3   OH272367   0.960   1.546   4.079
16959TIP3    H172368   0.878   1.598   4.085
16959TIP3    H272369   1.013   1.599   4.017
16960TIP3   OH272370   0.909   0.519   4.285
16960TIP3    H172371   0.996   0.561   4.284
16960TIP3    H272372   0.890   0.491   4.375
16961TIP3   OH272373   0.969   0.606   5.195
16961TIP3    H172374   0.977   0.664   5.271
16961TIP3    H272375   1.035   0.536   5.206
16962TIP3   OH272376   1.005   0.209   4.377
16962TIP3    H172377   0.966   0.278   4.432
16962TIP3    H272378   1.064   0.265   4.321
16963TIP3   OH272379   0.698   1.649   4.079
16963TIP3    H172380   0.709   1.732   4.026
16963TIP3    H272381   0.673   1.685   4.167
16964TIP3   OH272382   0.539   0.350   4.045
16964TIP3    H172383   0.561   0.432   4.085
16964TIP3    H272384   0.629   0.306   4.056
16965TIP3   OH272385   1.588   0.394   5.286
16965TIP3    H172386   1.495   0.424   5.269
16965TIP3    H272387   1.618   0.392   5.193
16966TIP3   OH272388   1.448   0.773   4.685
16966TIP3    H172389   1.366   0.729   4.656
16966TIP3    H272390   1.495   0.703   4.736
16967TIP3   OH272391   0.389   1.365   3.945
16967TIP3    H172392   0.454   1.431   3.973
16967TIP3    H272393   0.441   1.320   3.875
16968TIP3   OH272394   0.240   0.608   3.876
16968TIP3    H172395   0.246   0.701   3.900
16968TIP3    H272396   0.150   0.588   3.843
16969TIP3   OH272397   1.555   1.696   4.849
16969TIP3    H172398   1.544   1.767   4.783
16969TIP3    H272399   1.650   1.704   4.870
16970TIP3   OH272400   0.287   0.124   4.730
16970TIP3    H172401   0.285   0.114   4.633
16970TIP3    H272402   0.268   0.032   4.755
16971TIP3   OH272403   0.202   1.503   4.345
16971TIP3    H172404   0.117   1.547   4.342
16971TIP3    H272405   0.250   1.553   4.278
16972TIP3   OH272406   0.140   1.766   5.471
16972TIP3    H172407   0.184   1.742   5.553
16972TIP3    H272408   0.082   1.688   5.457
16973TIP3   OH272409   0.588   1.659   5.637
16973TIP3    H172410   0.664   1.609   5.666
16973TIP3    H272411   0.582   1.633   5.542
16974TIP3   OH272412   1.000   1.611   3.774
16974TIP3    H172413   0.932   1.545   3.801
16974TIP3    H272414   1.073   1.552   3.750
16975TIP3   OH272415   1.457   1.586   3.794
16975TIP3    H172416   1.486   1.508   3.844
16975TIP3    H272417   1.533   1.610   3.740
16976TIP3   OH272418   0.124   1.144   5.568
16976TIP3    H172419   0.131   1.052   5.541
16976TIP3    H272420   0.040   1.173   5.527
16977TIP3   OH272421   0.543   1.175   3.775
16977TIP3    H172422   0.563   1.104   3.837
16977TIP3    H272423   0.621   1.169   3.716
16978TIP3   OH272424   0.789   1.144   5.513
16978TIP3    H172425   0.749   1.174   5.429
16978TIP3    H272426   0.794   1.047   5.502
16979TIP3   OH272427   1.089   1.289   3.754
16979TIP3    H172428   1.061   1.300   3.846
16979TIP3    H272429   1.069   1.193   3.741
16980TIP3   OH272430   1.354   1.134   5.255
16980TIP3    H172431   1.433   1.190   5.239
16980TIP3    H272432   1.281   1.196   5.256
16981TIP3   OH272433   0.198   0.867   5.511
16981TIP3    H172434   0.244   0.783   5.498
16981TIP3    H272435   0.177   0.867   5.605
16982TIP3   OH272436   0.666   0.980   4.016
16982TIP3    H172437   0.619   0.927   4.081
16982TIP3    H272438   0.696   0.911   3.952
16983TIP3   OH272439   0.595   0.765   5.250
16983TIP3    H172440   0.533   0.835   5.274
16983TIP3    H272441   0.631   0.798   5.166
16984TIP3   OH272442   0.773   0.803   3.838
16984TIP3    H172443   0.759   0.791   3.743
16984TIP3    H272444   0.871   0.810   3.845
16985TIP3   OH272445   1.100   1.013   5.574
16985TIP3    H172446   1.196   1.023   5.573
16985TIP3    H272447   1.085   0.946   5.641
16986TIP3   OH272448   1.710   1.036   3.781
16986TIP3    H172449   1.687   0.997   3.696
16986TIP3    H272450   1.717   1.132   3.761
16987TIP3   OH272451   0.631   0.501   5.357
16987TIP3    H172452   0.644   0.429   5.294
16987TIP3    H272453   0.629   0.580   5.301
16988TIP3   OH272454   0.673   0.338   5.106
16988TIP3    H172455   0.725   0.387   5.039
16988TIP3    H272456   0.584   0.328   5.064
16989TIP3   OH272457   0.831   0.884   5.133
16989TIP3    H172458   0.904   0.870   5.073
16989TIP3    H272459   0.793   0.968   5.102
16990TIP3   OH272460   1.400   0.942   5.442
16990TIP3    H172461   1.378   1.015   5.381
16990TIP3    H272462   1.497   0.938   5.427
16991TIP3   OH272463   0.745   0.095   5.165
16991TIP3    H172464   0.737   0.190   5.141
16991TIP3    H272465   0.679   0.055   5.105
16992TIP3   OH272466   1.151   0.433   5.418
16992TIP3    H172467   1.054   0.430   5.425
16992TIP3    H272468   1.180   0.365   5.480
16993TIP3   OH272469   1.311   0.294   5.614
16993TIP3    H172470   1.306   0.198   5.610
16993TIP3    H272471   1.285   0.320   5.702
16994TIP3   OH272472   0.777   7.359   5.416
16994TIP3    H172473   0.842   7.289   5.419
16994TIP3    H272474   0.763   7.383   5.322
16995TIP3   OH272475   0.817   0.186   5.619
16995TIP3    H172476   0.794   0.131   5.542
16995TIP3    H272477   0.751   0.258   5.617
16996TIP3   OH272478   0.760   1.872   3.944
16996TIP3    H172479   0.856   1.885   3.952
16996TIP3    H272480   0.741   1.936   3.874
16997TIP3   OH272481   0.122   1.335   3.900
16997TIP3    H172482   0.219   1.343   3.914
16997TIP3    H272483   0.121   1.272   3.825
16998TIP3   OH272484   7.353   1.879   4.384
16998TIP3    H172485   7.271   1.846   4.343
16998TIP3    H272486   7.370   1.811   4.453
16999TIP3   OH272487   0.069   1.686   4.572
16999TIP3    H172488   0.040   1.595   4.595
16999TIP3    H272489   0.097   1.716   4.661
17000TIP3   OH272490   1.827   1.762   4.871
17000TIP3    H172491   1.828   1.780   4.966
17000TIP3    H272492   1.897   1.821   4.840
17001TIP3   OH272493   1.789   1.722   5.162
17001TIP3    H172494   1.735   1.647   5.128
17001TIP3    H272495   1.836   1.678   5.234
17002TIP3   OH272496   1.760   1.127   4.177
17002TIP3    H172497   1.846   1.166   4.194
17002TIP3    H272498   1.759   1.053   4.242
17003TIP3   OH272499   1.797   0.934   4.363
17003TIP3    H172500   1.723   0.883   4.403
17003TIP3    H272501   1.857   0.949   4.439
17004TIP3   OH272502   1.773   1.205   4.861
17004TIP3    H172503   1.856   1.168   4.826
17004TIP3    H272504   1.787   1.301   4.845
17005TIP3   OH272505   1.626   1.494   5.092
17005TIP3    H172506   1.556   1.531   5.148
17005TIP3    H272507   1.572   1.455   5.019
17006TIP3   OH272508   1.827   0.917   4.003
17006TIP3    H172509   1.771   0.953   3.931
17006TIP3    H272510   1.819   0.988   4.069
17007TIP3   OH272511   1.664   0.641   3.855
17007TIP3    H172512   1.671   0.709   3.786
17007TIP3    H272513   1.645   0.559   3.806
17008TIP3   OH272514   1.578   0.782   4.420
17008TIP3    H172515   1.563   0.687   4.417
17008TIP3    H272516   1.544   0.806   4.507
17009TIP3   OH272517   0.078   0.989   4.823
17009TIP3    H172518   0.097   0.984   4.727
17009TIP3    H272519   0.166   0.976   4.863
17010TIP3   OH272520   1.662   0.978   5.386
17010TIP3    H172521   1.724   0.904   5.406
17010TIP3    H272522   1.723   1.054   5.388
17011TIP3   OH272523   1.813   0.769   5.450
17011TIP3    H172524   1.725   0.729   5.436
17011TIP3    H272525   1.873   0.693   5.446
17012TIP3   OH272526   1.586   0.389   3.770
17012TIP3    H172527   1.647   0.346   3.832
17012TIP3    H272528   1.502   0.343   3.785
17013TIP3   OH272529   1.544   0.541   4.263
17013TIP3    H172530   1.576   0.450   4.278
17013TIP3    H272531   1.626   0.582   4.230
17014TIP3   OH272532   1.609   0.596   4.809
17014TIP3    H172533   1.705   0.619   4.808
17014TIP3    H272534   1.589   0.609   4.904
17015TIP3   OH272535   1.615   0.669   5.089
17015TIP3    H172536   1.527   0.698   5.122
17015TIP3    H272537   1.659   0.755   5.067
17016TIP3   OH272538   1.611   0.268   4.270
17016TIP3    H172539   1.630   0.222   4.355
17016TIP3    H272540   1.552   0.204   4.225
17017TIP3   OH272541   0.158   0.351   4.724
17017TIP3    H172542   0.207   0.270   4.753
17017TIP3    H272543   0.212   0.418   4.767
17018TIP3   OH272544   0.063   0.693   4.869
17018TIP3    H172545   0.059   0.658   4.777
17018TIP3    H272546   0.034   0.782   4.851
17019TIP3   OH272547   1.795   0.276   3.924
17019TIP3    H172548   1.837   0.200   3.876
17019TIP3    H272549   1.867   0.339   3.930
17020TIP3   OH272550   0.066   0.269   4.213
17020TIP3    H172551  -0.030   0.293   4.214
17020TIP3    H272552   0.089   0.338   4.148
17021TIP3   OH272553   1.499   1.771   4.433
17021TIP3    H172554   1.567   1.739   4.371
17021TIP3    H272555   1.552   1.821   4.497
17022TIP3   OH272556   7.375   0.141   5.078
17022TIP3    H172557   7.302   0.119   5.134
17022TIP3    H272558   7.324   0.199   5.019
17023TIP3   OH272559   0.244   1.466   5.486
17023TIP3    H172560   0.160   1.483   5.442
17023TIP3    H272561   0.215   1.454   5.577
17024TIP3   OH272562   0.536   1.563   5.113
17024TIP3    H172563   0.495   1.646   5.083
17024TIP3    H272564   0.628   1.572   5.080
17025TIP3   OH272565   1.696   0.095   5.239
17025TIP3    H172566   1.613   0.125   5.202
17025TIP3    H272567   1.716   0.013   5.189
17026TIP3   OH272568   0.278   1.887   5.115
17026TIP3    H172569   0.203   1.933   5.072
17026TIP3    H272570   0.241   1.866   5.202
17027TIP3   OH272571   0.524   1.845   5.019
17027TIP3    H172572   0.435   1.858   5.059
17027TIP3    H272573   0.518   1.903   4.941
17028TIP3   OH272574   0.993   1.835   4.935
17028TIP3    H172575   0.948   1.891   4.869
17028TIP3    H272576   1.008   1.898   5.009
17029TIP3   OH272577   1.224   1.719   5.031
17029TIP3    H172578   1.136   1.744   5.002
17029TIP3    H272579   1.271   1.804   5.028
17030TIP3   OH272580   1.486   1.877   5.061
17030TIP3    H172581   1.472   1.971   5.037
17030TIP3    H272582   1.502   1.837   4.974
17031TIP3   OH272583   0.218   1.751   4.804
17031TIP3    H172584   0.216   1.707   4.892
17031TIP3    H272585   0.300   1.714   4.766
17032TIP3   OH272586   0.430   1.622   4.670
17032TIP3    H172587   0.412   1.528   4.692
17032TIP3    H272588   0.515   1.636   4.717
17033TIP3   OH272589   0.688   1.670   4.758
17033TIP3    H172590   0.706   1.578   4.731
17033TIP3    H272591   0.694   1.664   4.854
17034TIP3   OH272592   1.034   0.241   4.671
17034TIP3    H172593   0.969   0.172   4.698
17034TIP3    H272594   1.093   0.187   4.616
17035TIP3   OH272595   1.549   0.044   4.683
17035TIP3    H172596   1.610   0.098   4.629
17035TIP3    H272597   1.462   0.076   4.657
17036TIP3   OH272598   1.719   0.165   4.507
17036TIP3    H172599   1.786   0.107   4.466
17036TIP3    H272600   1.766   0.250   4.517
17037TIP3   OH272601   0.279   0.104   4.443
17037TIP3    H172602   0.193   0.075   4.407
17037TIP3    H272603   0.317   0.016   4.458
17038TIP3   OH272604   0.156   0.120   3.976
17038TIP3    H172605   0.229   0.179   3.964
17038TIP3    H272606   0.112   0.140   4.062
17039TIP3   OH272607   0.748   0.132   4.469
17039TIP3    H172608   0.842   0.130   4.440
17039TIP3    H272609   0.732   0.064   4.536
17040TIP3   OH272610   1.274   0.114   4.604
17040TIP3    H172611   1.286   0.112   4.508
17040TIP3    H272612   1.260   0.016   4.615
17041TIP3   OH272613   1.417   0.095   4.169
17041TIP3    H172614   1.346   0.158   4.149
17041TIP3    H272615   1.372   0.011   4.182
17042TIP3   OH272616   0.154   1.676   4.121
17042TIP3    H172617   0.076   1.669   4.063
17042TIP3    H272618   0.142   1.767   4.151
17043TIP3   OH272619   0.337   0.275   3.874
17043TIP3    H172620   0.388   0.207   3.826
17043TIP3    H272621   0.401   0.299   3.944
17044TIP3   OH272622   0.886   0.317   4.141
17044TIP3    H172623   0.858   0.239   4.190
17044TIP3    H272624   0.834   0.389   4.180
17045TIP3   OH272625   1.028   1.797   3.966
17045TIP3    H172626   1.119   1.825   3.944
17045TIP3    H272627   1.006   1.748   3.884
17046TIP3   OH272628   1.700   1.750   4.236
17046TIP3    H172629   1.679   1.672   4.178
17046TIP3    H272630   1.693   1.824   4.172
17047TIP3   OH272631   0.255   0.154   5.398
17047TIP3    H172632   0.225   0.076   5.447
17047TIP3    H272633   0.348   0.154   5.435
17048TIP3   OH272634   0.443   0.100   5.546
17048TIP3    H172635   0.538   0.075   5.546
17048TIP3    H272636   0.424   0.022   5.603
17049TIP3   OH272637   0.321   1.765   3.825
17049TIP3    H172638   0.296   1.793   3.914
17049TIP3    H272639   0.400   1.711   3.842
17050TIP3   OH272640   3.066   1.012   4.445
17050TIP3    H172641   3.068   1.109   4.438
17050TIP3    H272642   2.995   0.987   4.383
17051TIP3   OH272643   2.953   0.938   4.793
17051TIP3    H172644   2.951   0.873   4.864
17051TIP3    H272645   2.920   0.889   4.716
17052TIP3   OH272646   2.189   0.904   4.949
17052TIP3    H172647   2.197   0.837   5.020
17052TIP3    H272648   2.263   0.962   4.970
17053TIP3   OH272649   3.323   1.232   4.621
17053TIP3    H172650   3.281   1.161   4.669
17053TIP3    H272651   3.324   1.304   4.687
17054TIP3   OH272652   2.282   1.349   4.801
17054TIP3    H172653   2.249   1.263   4.767
17054TIP3    H272654   2.377   1.330   4.805
17055TIP3   OH272655   1.946   0.707   4.346
17055TIP3    H172656   1.901   0.794   4.341
17055TIP3    H272657   1.889   0.652   4.291
17056TIP3   OH272658   2.016   0.928   4.560
17056TIP3    H172659   2.041   0.847   4.607
17056TIP3    H272660   2.088   0.937   4.495
17057TIP3   OH272661   3.034   1.747   4.644
17057TIP3    H172662   3.099   1.677   4.616
17057TIP3    H272663   3.014   1.717   4.733
17058TIP3   OH272664   2.791   1.179   4.837
17058TIP3    H172665   2.825   1.114   4.773
17058TIP3    H272666   2.870   1.193   4.892
17059TIP3   OH272667   3.655   0.341   4.914
17059TIP3    H172668   3.667   0.404   4.989
17059TIP3    H272669   3.706   0.386   4.846
17060TIP3   OH272670   3.108   0.624   4.870
17060TIP3    H172671   3.123   0.527   4.870
17060TIP3    H272672   3.097   0.639   4.774
17061TIP3   OH272673   2.420   0.435   4.593
17061TIP3    H172674   2.429   0.519   4.545
17061TIP3    H272675   2.378   0.377   4.527
17062TIP3   OH272676   3.193   0.441   4.430
17062TIP3    H172677   3.259   0.411   4.496
17062TIP3    H272678   3.248   0.498   4.374
17063TIP3   OH272679   2.082   0.674   4.667
17063TIP3    H172680   2.149   0.618   4.711
17063TIP3    H272681   2.090   0.643   4.576
17064TIP3   OH272682   2.598   0.829   4.595
17064TIP3    H172683   2.664   0.772   4.639
17064TIP3    H272684   2.545   0.763   4.548
17065TIP3   OH272685   3.696   0.485   5.140
17065TIP3    H172686   3.632   0.559   5.130
17065TIP3    H272687   3.700   0.474   5.236
17066TIP3   OH272688   2.309   0.326   4.998
17066TIP3    H172689   2.280   0.379   4.922
17066TIP3    H272690   2.239   0.346   5.064
17067TIP3   OH272691   3.040   1.272   4.352
17067TIP3    H172692   3.012   1.243   4.265
17067TIP3    H272693   3.008   1.365   4.357
17068TIP3   OH272694   2.561   1.088   5.022
17068TIP3    H172695   2.490   1.152   5.042
17068TIP3    H272696   2.632   1.147   4.994
17069TIP3   OH272697   3.373   0.375   4.628
17069TIP3    H172698   3.351   0.299   4.683
17069TIP3    H272699   3.440   0.419   4.683
17070TIP3   OH272700   2.264   0.510   4.797
17070TIP3    H172701   2.328   0.577   4.832
17070TIP3    H272702   2.318   0.466   4.728
17071TIP3   OH272703   2.405   1.286   5.105
17071TIP3    H172704   2.402   1.378   5.070
17071TIP3    H272705   2.317   1.280   5.148
17072TIP3   OH272706   2.014   1.250   4.184
17072TIP3    H172707   1.988   1.281   4.095
17072TIP3    H272708   2.021   1.335   4.232
17073TIP3   OH272709   3.376   1.416   4.858
17073TIP3    H172710   3.279   1.426   4.871
17073TIP3    H272711   3.402   1.508   4.839
17074TIP3   OH272712   3.408   0.245   5.001
17074TIP3    H172713   3.334   0.306   4.989
17074TIP3    H272714   3.477   0.285   4.944
17075TIP3   OH272715   2.732   0.071   4.743
17075TIP3    H172716   2.713  -0.023   4.738
17075TIP3    H272717   2.640   0.096   4.765
17076TIP3   OH272718   3.201   1.594   4.518
17076TIP3    H172719   3.244   1.523   4.467
17076TIP3    H272720   3.240   1.674   4.477
17077TIP3   OH272721   3.321   1.387   4.369
17077TIP3    H172722   3.292   1.316   4.309
17077TIP3    H272723   3.325   1.338   4.453
17078TIP3   OH272724   3.484   1.245   5.218
17078TIP3    H172725   3.499   1.181   5.145
17078TIP3    H272726   3.503   1.331   5.176
17079TIP3   OH272727   2.934   0.936   4.196
17079TIP3    H172728   2.863   0.992   4.159
17079TIP3    H272729   3.004   0.944   4.128
17080TIP3   OH272730   2.940   0.789   3.897
17080TIP3    H172731   3.011   0.788   3.962
17080TIP3    H272732   2.971   0.720   3.836
17081TIP3   OH272733   3.672   0.876   5.023
17081TIP3    H172734   3.606   0.948   5.029
17081TIP3    H272735   3.720   0.900   4.942
17082TIP3   OH272736   3.277   0.957   4.287
17082TIP3    H172737   3.202   0.981   4.347
17082TIP3    H272738   3.323   0.888   4.338
17083TIP3   OH272739   3.269   0.773   5.197
17083TIP3    H172740   3.271   0.854   5.252
17083TIP3    H272741   3.206   0.804   5.129
17084TIP3   OH272742   2.439   1.024   4.478
17084TIP3    H172743   2.407   0.984   4.394
17084TIP3    H272744   2.500   0.953   4.512
17085TIP3   OH272745   2.572   1.363   4.746
17085TIP3    H172746   2.569   1.308   4.667
17085TIP3    H272747   2.650   1.326   4.793
17086TIP3   OH272748   2.473   0.897   4.843
17086TIP3    H172749   2.530   0.909   4.764
17086TIP3    H272750   2.510   0.963   4.906
17087TIP3   OH272751   3.111   1.453   4.914
17087TIP3    H172752   3.084   1.517   4.980
17087TIP3    H272753   3.087   1.368   4.957
17088TIP3   OH272754   2.566   1.339   5.316
17088TIP3    H172755   2.529   1.416   5.363
17088TIP3    H272756   2.499   1.321   5.245
17089TIP3   OH272757   3.164   0.876   4.055
17089TIP3    H172758   3.221   0.892   4.134
17089TIP3    H272759   3.208   0.925   3.982
17090TIP3   OH272760   2.260   0.956   5.233
17090TIP3    H172761   2.264   1.023   5.304
17090TIP3    H272762   2.168   0.967   5.205
17091TIP3   OH272763   2.936   1.548   4.401
17091TIP3    H172764   2.981   1.579   4.480
17091TIP3    H272765   2.880   1.623   4.377
17092TIP3   OH272766   2.388   1.540   5.389
17092TIP3    H172767   2.387   1.532   5.292
17092TIP3    H272768   2.294   1.532   5.412
17093TIP3   OH272769   3.536   0.057   4.035
17093TIP3    H172770   3.444   0.064   4.068
17093TIP3    H272771   3.558   0.142   3.997
17094TIP3   OH272772   2.337   0.926   4.240
17094TIP3    H172773   2.308   1.004   4.188
17094TIP3    H272774   2.271   0.860   4.218
17095TIP3   OH272775   3.649   1.485   3.878
17095TIP3    H172776   3.663   1.580   3.895
17095TIP3    H272777   3.742   1.455   3.875
17096TIP3   OH272778   1.947   1.167   5.124
17096TIP3    H172779   1.899   1.160   5.040
17096TIP3    H272780   1.951   1.073   5.150
17097TIP3   OH272781   1.922   1.441   4.807
17097TIP3    H172782   2.017   1.429   4.805
17097TIP3    H272783   1.913   1.522   4.859
17098TIP3   OH272784   3.746   1.512   5.375
17098TIP3    H172785   3.735   1.415   5.374
17098TIP3    H272786   3.658   1.536   5.413
17099TIP3   OH272787   2.842   1.467   5.261
17099TIP3    H172788   2.847   1.550   5.314
17099TIP3    H272789   2.755   1.432   5.289
17100TIP3   OH272790   2.884   1.841   4.243
17100TIP3    H172791   2.874   1.832   4.146
17100TIP3    H272792   2.885   1.937   4.256
17101TIP3   OH272793   2.248   1.727   4.422
17101TIP3    H172794   2.262   1.686   4.511
17101TIP3    H272795   2.163   1.687   4.399
17102TIP3   OH272796   3.191   1.761   3.941
17102TIP3    H172797   3.233   1.685   3.896
17102TIP3    H272798   3.193   1.734   4.035
17103TIP3   OH272799   3.160   1.754   4.217
17103TIP3    H172800   3.064   1.762   4.236
17103TIP3    H272801   3.184   1.681   4.276
17104TIP3   OH272802   3.461   0.659   5.419
17104TIP3    H172803   3.412   0.706   5.351
17104TIP3    H272804   3.460   0.566   5.392
17105TIP3   OH272805   2.171   1.299   5.222
17105TIP3    H172806   2.194   1.261   5.309
17105TIP3    H272807   2.085   1.258   5.200
17106TIP3   OH272808   2.435   0.158   4.826
17106TIP3    H172809   2.348   0.141   4.783
17106TIP3    H272810   2.423   0.241   4.870
17107TIP3   OH272811   2.903   0.115   5.158
17107TIP3    H172812   2.943   0.075   5.235
17107TIP3    H272813   2.807   0.103   5.171
17108TIP3   OH272814   3.232   0.492   5.241
17108TIP3    H172815   3.181   0.479   5.324
17108TIP3    H272816   3.219   0.587   5.222
17109TIP3   OH272817   3.309   0.979   3.829
17109TIP3    H172818   3.311   0.959   3.733
17109TIP3    H272819   3.396   1.022   3.839
17110TIP3   OH272820   2.871   0.370   3.887
17110TIP3    H172821   2.839   0.365   3.979
17110TIP3    H272822   2.839   0.282   3.857
17111TIP3   OH272823   2.450   0.642   4.940
17111TIP3    H172824   2.378   0.641   5.006
17111TIP3    H272825   2.447   0.735   4.907
17112TIP3   OH272826   2.446   0.658   4.428
17112TIP3    H172827   2.353   0.630   4.416
17112TIP3    H272828   2.486   0.626   4.345
17113TIP3   OH272829   2.999   0.705   4.307
17113TIP3    H172830   2.958   0.788   4.272
17113TIP3    H272831   3.069   0.690   4.242
17114TIP3   OH272832   2.907   0.728   5.451
17114TIP3    H172833   2.853   0.652   5.483
17114TIP3    H272834   2.988   0.710   5.500
17115TIP3   OH272835   3.101   0.653   4.591
17115TIP3    H172836   3.076   0.710   4.516
17115TIP3    H272837   3.114   0.569   4.544
17116TIP3   OH272838   2.215   0.671   5.114
17116TIP3    H172839   2.219   0.711   5.204
17116TIP3    H272840   2.170   0.587   5.130
17117TIP3   OH272841   2.552   0.412   3.799
17117TIP3    H172842   2.508   0.365   3.872
17117TIP3    H272843   2.480   0.450   3.748
17118TIP3   OH272844   1.880   0.384   4.507
17118TIP3    H172845   1.947   0.379   4.578
17118TIP3    H272846   1.924   0.342   4.431
17119TIP3   OH272847   2.008   0.456   4.049
17119TIP3    H172848   2.056   0.516   3.989
17119TIP3    H272849   1.936   0.515   4.080
17120TIP3   OH272850   3.023   0.814   5.049
17120TIP3    H172851   3.059   0.746   4.989
17120TIP3    H272852   2.978   0.760   5.116
17121TIP3   OH272853   2.703   0.408   4.530
17121TIP3    H172854   2.610   0.409   4.561
17121TIP3    H272855   2.752   0.398   4.613
17122TIP3   OH272856   2.185   0.566   4.417
17122TIP3    H172857   2.095   0.580   4.379
17122TIP3    H272858   2.214   0.482   4.378
17123TIP3   OH272859   2.550   0.568   4.179
17123TIP3    H172860   2.644   0.583   4.198
17123TIP3    H272861   2.525   0.638   4.115
17124TIP3   OH272862   3.144   0.332   4.855
17124TIP3    H172863   3.074   0.341   4.924
17124TIP3    H272864   3.093   0.311   4.775
17125TIP3   OH272865   2.418   0.688   3.939
17125TIP3    H172866   2.365   0.650   3.867
17125TIP3    H272867   2.501   0.708   3.892
17126TIP3   OH272868   3.465   1.898   5.488
17126TIP3    H172869   3.491   1.938   5.403
17126TIP3    H272870   3.536   1.930   5.546
17127TIP3   OH272871   2.231   1.148   5.444
17127TIP3    H172872   2.303   1.168   5.504
17127TIP3    H272873   2.153   1.158   5.500
17128TIP3   OH272874   2.832   0.685   4.720
17128TIP3    H172875   2.890   0.630   4.666
17128TIP3    H272876   2.817   0.632   4.799
17129TIP3   OH272877   2.332   0.303   4.362
17129TIP3    H172878   2.300   0.211   4.362
17129TIP3    H272879   2.411   0.296   4.308
17130TIP3   OH272880   2.695   0.520   4.961
17130TIP3    H172881   2.612   0.570   4.971
17130TIP3    H272882   2.750   0.553   5.035
17131TIP3   OH272883   2.754   1.143   4.130
17131TIP3    H172884   2.675   1.094   4.098
17131TIP3    H272885   2.734   1.152   4.226
17132TIP3   OH272886   3.470   1.060   5.011
17132TIP3    H172887   3.529   1.108   4.950
17132TIP3    H272888   3.385   1.068   4.963
17133TIP3   OH272889   3.138   0.426   3.949
17133TIP3    H172890   3.042   0.438   3.935
17133TIP3    H272891   3.171   0.511   3.983
17134TIP3   OH272892   2.903   1.166   5.253
17134TIP3    H172893   2.868   1.126   5.334
17134TIP3    H272894   2.879   1.259   5.264
17135TIP3   OH272895   3.211   0.614   4.113
17135TIP3    H172896   3.300   0.601   4.151
17135TIP3    H272897   3.220   0.695   4.061
17136TIP3   OH272898   2.264   1.079   4.711
17136TIP3    H172899   2.335   1.073   4.644
17136TIP3    H272900   2.271   0.993   4.756
17137TIP3   OH272901   2.965   1.289   4.034
17137TIP3    H172902   2.931   1.373   4.071
17137TIP3    H272903   2.891   1.228   4.055
17138TIP3   OH272904   1.964   0.921   5.237
17138TIP3    H172905   1.983   0.878   5.323
17138TIP3    H272906   1.902   0.859   5.195
17139TIP3   OH272907   2.666   0.875   5.457
17139TIP3    H172908   2.635   0.851   5.369
17139TIP3    H272909   2.759   0.848   5.455
17140TIP3   OH272910   3.132   1.409   5.250
17140TIP3    H172911   3.040   1.429   5.226
17140TIP3    H272912   3.130   1.439   5.342
17141TIP3   OH272913   3.701   0.631   4.089
17141TIP3    H172914   3.644   0.599   4.016
17141TIP3    H272915   3.709   0.725   4.061
17142TIP3   OH272916   3.698   1.215   5.371
17142TIP3    H172917   3.610   1.236   5.332
17142TIP3    H272918   3.755   1.210   5.293
17143TIP3   OH272919   3.528   1.512   4.130
17143TIP3    H172920   3.493   1.429   4.164
17143TIP3    H272921   3.560   1.491   4.041
17144TIP3   OH272922   3.249   0.994   4.838
17144TIP3    H172923   3.155   0.971   4.830
17144TIP3    H272924   3.292   0.916   4.798
17145TIP3   OH272925   2.502   1.426   4.449
17145TIP3    H172926   2.553   1.506   4.428
17145TIP3    H272927   2.414   1.450   4.417
17146TIP3   OH272928   2.078   0.911   3.906
17146TIP3    H172929   2.137   0.976   3.947
17146TIP3    H272930   1.990   0.943   3.933
17147TIP3   OH272931   2.644   1.192   4.402
17147TIP3    H172932   2.615   1.285   4.411
17147TIP3    H272933   2.571   1.145   4.446
17148TIP3   OH272934   2.690   1.610   5.040
17148TIP3    H172935   2.733   1.693   5.014
17148TIP3    H272936   2.750   1.578   5.110
17149TIP3   OH272937   2.512   1.693   4.356
17149TIP3    H172938   2.415   1.706   4.367
17149TIP3    H272939   2.547   1.777   4.391
17150TIP3   OH272940   3.044   1.213   5.005
17150TIP3    H172941   3.008   1.192   5.093
17150TIP3    H272942   3.106   1.141   4.988
17151TIP3   OH272943   3.273   1.316   3.913
17151TIP3    H172944   3.304   1.271   3.994
17151TIP3    H272945   3.177   1.300   3.923
17152TIP3   OH272946   3.321   1.670   5.255
17152TIP3    H172947   3.254   1.619   5.204
17152TIP3    H272948   3.342   1.739   5.188
17153TIP3   OH272949   3.721   1.754   3.937
17153TIP3    H172950   3.792   1.820   3.919
17153TIP3    H272951   3.650   1.816   3.967
17154TIP3   OH272952   2.129   0.395   5.194
17154TIP3    H172953   2.038   0.429   5.188
17154TIP3    H272954   2.117   0.308   5.235
17155TIP3   OH272955   3.353   1.181   4.137
17155TIP3    H172956   3.329   1.104   4.192
17155TIP3    H272957   3.448   1.187   4.156
17156TIP3   OH272958   2.092   1.575   5.036
17156TIP3    H172959   2.118   1.481   5.036
17156TIP3    H272960   2.119   1.603   5.124
17157TIP3   OH272961   2.685   1.425   3.761
17157TIP3    H172962   2.699   1.348   3.704
17157TIP3    H272963   2.647   1.382   3.840
17158TIP3   OH272964   2.568   1.378   4.007
17158TIP3    H172965   2.590   1.327   4.085
17158TIP3    H272966   2.573   1.471   4.039
17159TIP3   OH272967   2.218   1.103   4.056
17159TIP3    H172968   2.148   1.142   4.112
17159TIP3    H272969   2.270   1.181   4.029
17160TIP3   OH272970   3.002   0.370   5.086
17160TIP3    H172971   3.074   0.378   5.150
17160TIP3    H272972   2.964   0.282   5.103
17161TIP3   OH272973   3.080   0.329   4.196
17161TIP3    H172974   3.100   0.380   4.114
17161TIP3    H272975   3.133   0.377   4.262
17162TIP3   OH272976   2.846   1.545   4.079
17162TIP3    H172977   2.764   1.598   4.085
17162TIP3    H272978   2.899   1.599   4.017
17163TIP3   OH272979   2.800   0.503   4.278
17163TIP3    H172980   2.878   0.560   4.282
17163TIP3    H272981   2.774   0.493   4.372
17164TIP3   OH272982   2.855   0.607   5.194
17164TIP3    H172983   2.863   0.663   5.273
17164TIP3    H272984   2.920   0.537   5.206
17165TIP3   OH272985   2.887   0.211   4.372
17165TIP3    H172986   2.853   0.278   4.434
17165TIP3    H272987   2.952   0.265   4.323
17166TIP3   OH272988   2.584   1.649   4.080
17166TIP3    H172989   2.595   1.731   4.026
17166TIP3    H272990   2.559   1.684   4.168
17167TIP3   OH272991   2.450   0.320   4.038
17167TIP3    H172992   2.445   0.410   4.075
17167TIP3    H272993   2.543   0.299   4.063
17168TIP3   OH272994   3.473   0.391   5.283
17168TIP3    H172995   3.381   0.425   5.272
17168TIP3    H272996   3.504   0.393   5.191
17169TIP3   OH272997   3.334   0.773   4.685
17169TIP3    H172998   3.252   0.729   4.656
17169TIP3    H272999   3.381   0.703   4.736
17170TIP3   OH273000   2.275   1.365   3.945
17170TIP3    H173001   2.340   1.430   3.974
17170TIP3    H273002   2.326   1.320   3.873
17171TIP3   OH273003   2.109   0.632   3.857
17171TIP3    H173004   2.109   0.728   3.877
17171TIP3    H273005   2.020   0.612   3.827
17172TIP3   OH273006   3.440   1.697   4.851
17172TIP3    H173007   3.430   1.766   4.783
17172TIP3    H273008   3.537   1.704   4.869
17173TIP3   OH273009   2.172   0.125   4.732
17173TIP3    H173010   2.170   0.115   4.634
17173TIP3    H273011   2.154   0.032   4.755
17174TIP3   OH273012   2.086   1.502   4.344
17174TIP3    H173013   2.001   1.549   4.342
17174TIP3    H273014   2.135   1.552   4.277
17175TIP3   OH273015   2.014   1.768   5.471
17175TIP3    H173016   2.064   1.745   5.549
17175TIP3    H273017   1.964   1.687   5.454
17176TIP3   OH273018   2.886   1.611   3.774
17176TIP3    H173019   2.818   1.545   3.801
17176TIP3    H273020   2.959   1.552   3.750
17177TIP3   OH273021   3.130   1.494   5.507
17177TIP3    H173022   3.094   1.408   5.533
17177TIP3    H273023   3.204   1.511   5.567
17178TIP3   OH273024   3.343   1.587   3.794
17178TIP3    H173025   3.372   1.508   3.843
17178TIP3    H273026   3.419   1.610   3.739
17179TIP3   OH273027   2.433   1.180   3.778
17179TIP3    H173028   2.446   1.102   3.834
17179TIP3    H273029   2.506   1.168   3.714
17180TIP3   OH273030   2.673   1.145   5.511
17180TIP3    H173031   2.634   1.174   5.427
17180TIP3    H273032   2.677   1.047   5.502
17181TIP3   OH273033   2.974   1.289   3.754
17181TIP3    H173034   2.947   1.300   3.846
17181TIP3    H273035   2.954   1.193   3.741
17182TIP3   OH273036   3.240   1.132   5.253
17182TIP3    H173037   3.318   1.191   5.240
17182TIP3    H273038   3.168   1.196   5.255
17183TIP3   OH273039   2.091   0.866   5.508
17183TIP3    H173040   2.131   0.780   5.499
17183TIP3    H273041   2.063   0.865   5.601
17184TIP3   OH273042   2.552   0.981   4.016
17184TIP3    H173043   2.504   0.928   4.081
17184TIP3    H273044   2.581   0.912   3.951
17185TIP3   OH273045   2.480   0.763   5.248
17185TIP3    H173046   2.420   0.834   5.275
17185TIP3    H273047   2.518   0.799   5.166
17186TIP3   OH273048   2.660   0.803   3.839
17186TIP3    H173049   2.643   0.792   3.743
17186TIP3    H273050   2.757   0.810   3.844
17187TIP3   OH273051   2.985   1.021   5.583
17187TIP3    H173052   3.080   1.018   5.568
17187TIP3    H273053   2.966   0.943   5.636
17188TIP3   OH273054   3.595   1.036   3.782
17188TIP3    H173055   3.573   0.996   3.696
17188TIP3    H273056   3.602   1.132   3.761
17189TIP3   OH273057   2.518   0.502   5.355
17189TIP3    H173058   2.531   0.428   5.293
17189TIP3    H273059   2.515   0.581   5.299
17190TIP3   OH273060   2.560   0.339   5.108
17190TIP3    H173061   2.612   0.386   5.039
17190TIP3    H273062   2.471   0.328   5.067
17191TIP3   OH273063   2.714   0.885   5.132
17191TIP3    H173064   2.790   0.869   5.074
17191TIP3    H273065   2.679   0.970   5.101
17192TIP3   OH273066   3.286   0.942   5.443
17192TIP3    H173067   3.263   1.015   5.382
17192TIP3    H273068   3.383   0.938   5.427
17193TIP3   OH273069   2.364   0.626   5.547
17193TIP3    H173070   2.290   0.566   5.529
17193TIP3    H273071   2.431   0.590   5.487
17194TIP3   OH273072   2.630   0.095   5.164
17194TIP3    H173073   2.623   0.189   5.139
17194TIP3    H273074   2.565   0.054   5.104
17195TIP3   OH273075   2.765   0.514   5.507
17195TIP3    H173076   2.737   0.492   5.598
17195TIP3    H273077   2.684   0.495   5.455
17196TIP3   OH273078   3.035   0.432   5.416
17196TIP3    H173079   2.939   0.433   5.430
17196TIP3    H273080   3.068   0.369   5.484
17197TIP3   OH273081   3.189   0.295   5.608
17197TIP3    H173082   3.193   0.201   5.615
17197TIP3    H273083   3.175   0.326   5.700
17198TIP3   OH273084   2.173   0.416   5.520
17198TIP3    H173085   2.203   0.344   5.460
17198TIP3    H273086   2.174   0.370   5.607
17199TIP3   OH273087   2.661   7.357   5.417
17199TIP3    H173088   2.730   7.292   5.419
17199TIP3    H273089   2.649   7.384   5.324
17200TIP3   OH273090   2.644   1.872   3.944
17200TIP3    H173091   2.741   1.884   3.952
17200TIP3    H273092   2.627   1.936   3.874
17201TIP3   OH273093   2.001   1.334   3.890
17201TIP3    H173094   2.097   1.342   3.912
17201TIP3    H273095   2.006   1.265   3.819
17202TIP3   OH273096   1.876   1.871   4.391
17202TIP3    H173097   1.805   1.823   4.343
17202TIP3    H273098   1.905   1.805   4.455
17203TIP3   OH273099   1.959   1.683   4.576
17203TIP3    H173100   1.924   1.595   4.596
17203TIP3    H273101   1.981   1.716   4.665
17204TIP3   OH273102   3.712   1.762   4.871
17204TIP3    H173103   3.714   1.780   4.966
17204TIP3    H273104   3.783   1.820   4.840
17205TIP3   OH273105   3.670   1.722   5.165
17205TIP3    H173106   3.622   1.645   5.128
17205TIP3    H273107   3.721   1.678   5.235
17206TIP3   OH273108   3.514   1.298   5.631
17206TIP3    H173109   3.427   1.288   5.667
17206TIP3    H273110   3.554   1.375   5.672
17207TIP3   OH273111   3.645   1.127   4.177
17207TIP3    H173112   3.732   1.166   4.194
17207TIP3    H273113   3.645   1.053   4.242
17208TIP3   OH273114   3.683   0.934   4.363
17208TIP3    H173115   3.608   0.883   4.403
17208TIP3    H273116   3.742   0.949   4.439
17209TIP3   OH273117   3.658   1.205   4.861
17209TIP3    H173118   3.741   1.168   4.826
17209TIP3    H273119   3.672   1.301   4.845
17210TIP3   OH273120   3.513   1.495   5.090
17210TIP3    H173121   3.444   1.529   5.149
17210TIP3    H273122   3.458   1.454   5.019
17211TIP3   OH273123   3.713   0.917   4.003
17211TIP3    H173124   3.657   0.953   3.931
17211TIP3    H273125   3.704   0.988   4.069
17212TIP3   OH273126   3.549   0.642   3.855
17212TIP3    H173127   3.556   0.709   3.786
17212TIP3    H273128   3.531   0.559   3.806
17213TIP3   OH273129   3.464   0.782   4.420
17213TIP3    H173130   3.449   0.687   4.417
17213TIP3    H273131   3.429   0.806   4.507
17214TIP3   OH273132   1.964   0.990   4.825
17214TIP3    H173133   1.984   0.982   4.729
17214TIP3    H273134   2.054   0.975   4.862
17215TIP3   OH273135   3.548   0.978   5.383
17215TIP3    H173136   3.608   0.904   5.406
17215TIP3    H273137   3.608   1.055   5.389
17216TIP3   OH273138   3.701   0.768   5.454
17216TIP3    H173139   3.611   0.730   5.437
17216TIP3    H273140   3.756   0.689   5.446
17217TIP3   OH273141   3.472   0.389   3.770
17217TIP3    H173142   3.533   0.346   3.832
17217TIP3    H273143   3.388   0.343   3.785
17218TIP3   OH273144   3.430   0.541   4.263
17218TIP3    H173145   3.462   0.450   4.278
17218TIP3    H273146   3.511   0.582   4.230
17219TIP3   OH273147   3.494   0.596   4.809
17219TIP3    H173148   3.590   0.619   4.809
17219TIP3    H273149   3.475   0.609   4.904
17220TIP3   OH273150   3.500   0.669   5.087
17220TIP3    H173151   3.414   0.698   5.124
17220TIP3    H273152   3.544   0.755   5.067
17221TIP3   OH273153   1.923   0.516   5.432
17221TIP3    H173154   2.017   0.503   5.460
17221TIP3    H273155   1.884   0.439   5.471
17222TIP3   OH273156   3.497   0.268   4.270
17222TIP3    H173157   3.516   0.222   4.355
17222TIP3    H273158   3.438   0.204   4.225
17223TIP3   OH273159   2.044   0.351   4.724
17223TIP3    H173160   2.092   0.270   4.753
17223TIP3    H273161   2.099   0.419   4.766
17224TIP3   OH273162   1.875   0.648   4.831
17224TIP3    H173163   1.931   0.626   4.753
17224TIP3    H273164   1.919   0.731   4.858
17225TIP3   OH273165   3.682   0.279   5.461
17225TIP3    H173166   3.589   0.307   5.453
17225TIP3    H273167   3.687   0.226   5.380
17226TIP3   OH273168   3.681   0.276   3.924
17226TIP3    H173169   3.723   0.200   3.876
17226TIP3    H273170   3.753   0.339   3.930
17227TIP3   OH273171   1.914   0.273   4.238
17227TIP3    H173172   1.819   0.293   4.224
17227TIP3    H273173   1.954   0.324   4.166
17228TIP3   OH273174   3.385   1.771   4.433
17228TIP3    H173175   3.453   1.739   4.371
17228TIP3    H273176   3.437   1.821   4.497
17229TIP3   OH273177   1.907   0.145   5.069
17229TIP3    H173178   1.840   0.125   5.136
17229TIP3    H273179   1.860   0.209   5.012
17230TIP3   OH273180   2.126   1.461   5.486
17230TIP3    H173181   2.043   1.483   5.440
17230TIP3    H273182   2.101   1.459   5.578
17231TIP3   OH273183   2.419   1.561   5.111
17231TIP3    H173184   2.384   1.646   5.083
17231TIP3    H273185   2.512   1.571   5.081
17232TIP3   OH273186   2.852   1.701   5.400
17232TIP3    H173187   2.867   1.674   5.494
17232TIP3    H273188   2.941   1.736   5.377
17233TIP3   OH273189   3.081   1.831   5.333
17233TIP3    H173190   3.153   1.771   5.310
17233TIP3    H273191   3.118   1.873   5.414
17234TIP3   OH273192   3.583   0.096   5.238
17234TIP3    H173193   3.499   0.125   5.202
17234TIP3    H273194   3.600   0.012   5.189
17235TIP3   OH273195   2.163   1.887   5.113
17235TIP3    H173196   2.089   1.934   5.071
17235TIP3    H273197   2.127   1.865   5.200
17236TIP3   OH273198   2.409   1.844   5.018
17236TIP3    H173199   2.320   1.857   5.059
17236TIP3    H273200   2.403   1.903   4.940
17237TIP3   OH273201   2.880   1.835   4.936
17237TIP3    H173202   2.833   1.890   4.871
17237TIP3    H273203   2.894   1.898   5.010
17238TIP3   OH273204   3.111   1.718   5.035
17238TIP3    H173205   3.023   1.743   5.002
17238TIP3    H273206   3.156   1.804   5.027
17239TIP3   OH273207   3.369   1.875   5.061
17239TIP3    H173208   3.359   1.971   5.038
17239TIP3    H273209   3.389   1.838   4.973
17240TIP3   OH273210   2.106   1.751   4.806
17240TIP3    H173211   2.100   1.705   4.892
17240TIP3    H273212   2.188   1.715   4.766
17241TIP3   OH273213   2.315   1.622   4.671
17241TIP3    H173214   2.298   1.529   4.692
17241TIP3    H273215   2.401   1.636   4.717
17242TIP3   OH273216   2.574   1.670   4.758
17242TIP3    H173217   2.592   1.578   4.731
17242TIP3    H273218   2.579   1.664   4.854
17243TIP3   OH273219   2.920   0.241   4.670
17243TIP3    H173220   2.855   0.172   4.699
17243TIP3    H273221   2.979   0.187   4.616
17244TIP3   OH273222   3.434   0.044   4.683
17244TIP3    H173223   3.496   0.098   4.629
17244TIP3    H273224   3.347   0.076   4.657
17245TIP3   OH273225   3.605   0.165   4.507
17245TIP3    H173226   3.672   0.107   4.466
17245TIP3    H273227   3.652   0.250   4.517
17246TIP3   OH273228   2.161   0.102   4.446
17246TIP3    H173229   2.076   0.075   4.407
17246TIP3    H273230   2.202   0.015   4.459
17247TIP3   OH273231   2.012   0.118   3.978
17247TIP3    H173232   2.098   0.161   3.969
17247TIP3    H273233   1.980   0.141   4.066
17248TIP3   OH273234   2.634   0.130   4.467
17248TIP3    H173235   2.728   0.131   4.442
17248TIP3    H273236   2.617   0.065   4.537
17249TIP3   OH273237   3.159   0.114   4.604
17249TIP3    H173238   3.173   0.111   4.509
17249TIP3    H273239   3.146   0.016   4.615
17250TIP3   OH273240   3.302   0.095   4.170
17250TIP3    H173241   3.231   0.158   4.148
17250TIP3    H273242   3.259   0.010   4.182
17251TIP3   OH273243   2.028   1.669   4.129
17251TIP3    H173244   1.960   1.668   4.059
17251TIP3    H273245   2.027   1.764   4.150
17252TIP3   OH273246   2.220   0.270   3.878
17252TIP3    H173247   2.273   0.208   3.825
17252TIP3    H273248   2.285   0.300   3.944
17253TIP3   OH273249   2.717   0.293   4.123
17253TIP3    H173250   2.748   0.235   4.194
17253TIP3    H273251   2.725   0.380   4.169
17254TIP3   OH273252   2.914   1.797   3.966
17254TIP3    H173253   3.004   1.825   3.944
17254TIP3    H273254   2.892   1.748   3.884
17255TIP3   OH273255   3.585   1.750   4.236
17255TIP3    H173256   3.565   1.672   4.178
17255TIP3    H273257   3.579   1.824   4.172
17256TIP3   OH273258   2.141   0.153   5.400
17256TIP3    H173259   2.112   0.075   5.448
17256TIP3    H273260   2.235   0.149   5.433
17257TIP3   OH273261   2.330   0.101   5.548
17257TIP3    H173262   2.425   0.075   5.543
17257TIP3    H273263   2.311   0.021   5.602
17258TIP3   OH273264   2.206   1.765   3.825
17258TIP3    H173265   2.181   1.792   3.914
17258TIP3    H273266   2.286   1.710   3.842
17259TIP3   OH273267   3.508   1.623   5.448
17259TIP3    H173268   3.429   1.609   5.392
17259TIP3    H273269   3.499   1.720   5.465
17260TIP3   OH273270   4.952   1.012   4.445
17260TIP3    H173271   4.953   1.110   4.438
17260TIP3    H273272   4.882   0.988   4.383
17261TIP3   OH273273   4.839   0.938   4.793
17261TIP3    H173274   4.837   0.873   4.864
17261TIP3    H273275   4.806   0.889   4.716
17262TIP3   OH273276   4.075   0.903   4.948
17262TIP3    H173277   4.082   0.837   5.019
17262TIP3    H273278   4.149   0.962   4.970
17263TIP3   OH273279   5.209   1.232   4.621
17263TIP3    H173280   5.166   1.161   4.669
17263TIP3    H273281   5.210   1.304   4.687
17264TIP3   OH273282   4.167   1.349   4.801
17264TIP3    H173283   4.135   1.263   4.767
17264TIP3    H273284   4.263   1.330   4.805
17265TIP3   OH273285   3.832   0.707   4.346
17265TIP3    H173286   3.787   0.794   4.341
17265TIP3    H273287   3.774   0.652   4.291
17266TIP3   OH273288   3.900   0.928   4.560
17266TIP3    H173289   3.927   0.847   4.608
17266TIP3    H273290   3.972   0.938   4.496
17267TIP3   OH273291   4.920   1.747   4.644
17267TIP3    H173292   4.984   1.677   4.616
17267TIP3    H273293   4.900   1.717   4.733
17268TIP3   OH273294   4.677   1.179   4.837
17268TIP3    H173295   4.711   1.114   4.773
17268TIP3    H273296   4.756   1.193   4.892
17269TIP3   OH273297   5.540   0.340   4.915
17269TIP3    H173298   5.553   0.404   4.989
17269TIP3    H273299   5.591   0.386   4.846
17270TIP3   OH273300   4.993   0.624   4.870
17270TIP3    H173301   5.008   0.527   4.870
17270TIP3    H273302   4.983   0.639   4.774
17271TIP3   OH273303   4.306   0.435   4.593
17271TIP3    H173304   4.314   0.519   4.546
17271TIP3    H273305   4.264   0.377   4.527
17272TIP3   OH273306   5.079   0.441   4.430
17272TIP3    H173307   5.145   0.411   4.496
17272TIP3    H273308   5.134   0.498   4.374
17273TIP3   OH273309   3.968   0.674   4.667
17273TIP3    H173310   4.035   0.618   4.711
17273TIP3    H273311   3.976   0.643   4.576
17274TIP3   OH273312   4.486   0.829   4.591
17274TIP3    H173313   4.549   0.773   4.640
17274TIP3    H273314   4.429   0.761   4.550
17275TIP3   OH273315   5.581   0.484   5.139
17275TIP3    H173316   5.518   0.558   5.132
17275TIP3    H273317   5.586   0.473   5.235
17276TIP3   OH273318   4.195   0.325   5.000
17276TIP3    H173319   4.166   0.378   4.923
17276TIP3    H273320   4.124   0.347   5.064
17277TIP3   OH273321   4.926   1.272   4.352
17277TIP3    H173322   4.897   1.243   4.265
17277TIP3    H273323   4.894   1.365   4.357
17278TIP3   OH273324   4.447   1.088   5.022
17278TIP3    H173325   4.375   1.152   5.042
17278TIP3    H273326   4.518   1.147   4.994
17279TIP3   OH273327   5.259   0.375   4.628
17279TIP3    H173328   5.236   0.299   4.683
17279TIP3    H273329   5.326   0.419   4.684
17280TIP3   OH273330   4.150   0.510   4.797
17280TIP3    H173331   4.214   0.577   4.832
17280TIP3    H273332   4.204   0.466   4.728
17281TIP3   OH273333   4.290   1.286   5.104
17281TIP3    H173334   4.287   1.378   5.070
17281TIP3    H273335   4.202   1.280   5.148
17282TIP3   OH273336   3.900   1.250   4.184
17282TIP3    H173337   3.873   1.280   4.095
17282TIP3    H273338   3.906   1.335   4.232
17283TIP3   OH273339   5.261   1.415   4.856
17283TIP3    H173340   5.165   1.426   4.871
17283TIP3    H273341   5.288   1.508   4.840
17284TIP3   OH273342   5.294   0.246   5.003
17284TIP3    H173343   5.220   0.307   4.987
17284TIP3    H273344   5.363   0.284   4.944
17285TIP3   OH273345   4.618   0.071   4.743
17285TIP3    H173346   4.599  -0.023   4.738
17285TIP3    H273347   4.526   0.096   4.765
17286TIP3   OH273348   5.086   1.594   4.518
17286TIP3    H173349   5.130   1.523   4.467
17286TIP3    H273350   5.126   1.674   4.477
17287TIP3   OH273351   5.206   1.387   4.369
17287TIP3    H173352   5.177   1.316   4.309
17287TIP3    H273353   5.211   1.338   4.453
17288TIP3   OH273354   5.371   1.245   5.218
17288TIP3    H173355   5.384   1.181   5.145
17288TIP3    H273356   5.389   1.331   5.176
17289TIP3   OH273357   4.816   0.934   4.194
17289TIP3    H173358   4.750   0.995   4.158
17289TIP3    H273359   4.890   0.944   4.130
17290TIP3   OH273360   4.824   0.788   3.898
17290TIP3    H173361   4.897   0.788   3.962
17290TIP3    H273362   4.857   0.721   3.836
17291TIP3   OH273363   5.558   0.876   5.023
17291TIP3    H173364   5.492   0.948   5.029
17291TIP3    H273365   5.605   0.900   4.942
17292TIP3   OH273366   5.163   0.957   4.287
17292TIP3    H173367   5.088   0.981   4.347
17292TIP3    H273368   5.209   0.888   4.338
17293TIP3   OH273369   5.155   0.773   5.197
17293TIP3    H173370   5.157   0.853   5.253
17293TIP3    H273371   5.091   0.804   5.129
17294TIP3   OH273372   4.327   1.023   4.477
17294TIP3    H173373   4.289   0.983   4.397
17294TIP3    H273374   4.385   0.954   4.514
17295TIP3   OH273375   4.458   1.363   4.747
17295TIP3    H173376   4.455   1.308   4.668
17295TIP3    H273377   4.535   1.326   4.793
17296TIP3   OH273378   4.359   0.897   4.843
17296TIP3    H173379   4.415   0.909   4.764
17296TIP3    H273380   4.395   0.963   4.906
17297TIP3   OH273381   4.996   1.453   4.914
17297TIP3    H173382   4.970   1.517   4.981
17297TIP3    H273383   4.973   1.368   4.957
17298TIP3   OH273384   4.453   1.341   5.311
17298TIP3    H173385   4.414   1.415   5.362
17298TIP3    H273386   4.384   1.321   5.244
17299TIP3   OH273387   5.049   0.876   4.055
17299TIP3    H173388   5.106   0.892   4.134
17299TIP3    H273389   5.093   0.925   3.982
17300TIP3   OH273390   4.145   0.957   5.232
17300TIP3    H173391   4.149   1.023   5.304
17300TIP3    H273392   4.053   0.967   5.205
17301TIP3   OH273393   4.821   1.548   4.401
17301TIP3    H173394   4.866   1.579   4.480
17301TIP3    H273395   4.765   1.623   4.377
17302TIP3   OH273396   4.275   1.546   5.386
17302TIP3    H173397   4.272   1.532   5.290
17302TIP3    H273398   4.184   1.529   5.417
17303TIP3   OH273399   5.421   0.057   4.035
17303TIP3    H173400   5.330   0.064   4.068
17303TIP3    H273401   5.444   0.142   3.997
17304TIP3   OH273402   4.218   0.927   4.240
17304TIP3    H173403   4.187   1.007   4.190
17304TIP3    H273404   4.149   0.863   4.221
17305TIP3   OH273405   5.535   1.485   3.878
17305TIP3    H173406   5.549   1.580   3.895
17305TIP3    H273407   5.628   1.455   3.875
17306TIP3   OH273408   3.833   1.167   5.124
17306TIP3    H173409   3.784   1.160   5.040
17306TIP3    H273410   3.836   1.074   5.150
17307TIP3   OH273411   3.807   1.441   4.807
17307TIP3    H173412   3.903   1.429   4.805
17307TIP3    H273413   3.798   1.522   4.859
17308TIP3   OH273414   5.628   1.512   5.373
17308TIP3    H173415   5.620   1.415   5.372
17308TIP3    H273416   5.545   1.535   5.417
17309TIP3   OH273417   4.727   1.466   5.261
17309TIP3    H173418   4.734   1.550   5.312
17309TIP3    H273419   4.640   1.432   5.287
17310TIP3   OH273420   4.770   1.841   4.243
17310TIP3    H173421   4.759   1.832   4.146
17310TIP3    H273422   4.771   1.937   4.256
17311TIP3   OH273423   4.134   1.727   4.422
17311TIP3    H173424   4.148   1.686   4.511
17311TIP3    H273425   4.049   1.687   4.399
17312TIP3   OH273426   5.076   1.761   3.941
17312TIP3    H173427   5.119   1.685   3.896
17312TIP3    H273428   5.079   1.734   4.035
17313TIP3   OH273429   5.045   1.754   4.217
17313TIP3    H173430   4.950   1.762   4.236
17313TIP3    H273431   5.070   1.681   4.276
17314TIP3   OH273432   5.343   0.658   5.423
17314TIP3    H173433   5.300   0.706   5.351
17314TIP3    H273434   5.347   0.567   5.391
17315TIP3   OH273435   4.058   1.298   5.221
17315TIP3    H173436   4.079   1.262   5.310
17315TIP3    H273437   3.971   1.259   5.201
17316TIP3   OH273438   4.320   0.158   4.826
17316TIP3    H173439   4.234   0.141   4.783
17316TIP3    H273440   4.309   0.241   4.870
17317TIP3   OH273441   4.790   0.117   5.161
17317TIP3    H173442   4.826   0.071   5.235
17317TIP3    H273443   4.693   0.103   5.171
17318TIP3   OH273444   5.117   0.491   5.243
17318TIP3    H173445   5.064   0.482   5.325
17318TIP3    H273446   5.105   0.586   5.222
17319TIP3   OH273447   5.195   0.979   3.829
17319TIP3    H173448   5.197   0.959   3.733
17319TIP3    H273449   5.281   1.022   3.839
17320TIP3   OH273450   4.756   0.370   3.887
17320TIP3    H173451   4.725   0.365   3.979
17320TIP3    H273452   4.725   0.282   3.857
17321TIP3   OH273453   4.335   0.642   4.940
17321TIP3    H173454   4.264   0.641   5.006
17321TIP3    H273455   4.332   0.735   4.907
17322TIP3   OH273456   4.331   0.664   4.423
17322TIP3    H173457   4.239   0.629   4.418
17322TIP3    H273458   4.373   0.620   4.347
17323TIP3   OH273459   4.882   0.705   4.306
17323TIP3    H173460   4.845   0.789   4.272
17323TIP3    H273461   4.954   0.690   4.243
17324TIP3   OH273462   4.794   0.726   5.450
17324TIP3    H173463   4.737   0.653   5.484
17324TIP3    H273464   4.875   0.715   5.502
17325TIP3   OH273465   4.987   0.653   4.591
17325TIP3    H173466   4.961   0.710   4.516
17325TIP3    H273467   4.999   0.569   4.544
17326TIP3   OH273468   4.101   0.670   5.114
17326TIP3    H173469   4.105   0.712   5.202
17326TIP3    H273470   4.055   0.586   5.131
17327TIP3   OH273471   4.438   0.414   3.800
17327TIP3    H173472   4.394   0.364   3.872
17327TIP3    H273473   4.366   0.447   3.746
17328TIP3   OH273474   3.766   0.384   4.507
17328TIP3    H173475   3.832   0.379   4.578
17328TIP3    H273476   3.810   0.342   4.431
17329TIP3   OH273477   3.893   0.456   4.049
17329TIP3    H173478   3.940   0.515   3.988
17329TIP3    H273479   3.822   0.515   4.080
17330TIP3   OH273480   4.909   0.814   5.049
17330TIP3    H173481   4.945   0.746   4.989
17330TIP3    H273482   4.863   0.760   5.117
17331TIP3   OH273483   4.588   0.408   4.530
17331TIP3    H173484   4.495   0.409   4.561
17331TIP3    H273485   4.637   0.398   4.613
17332TIP3   OH273486   4.072   0.566   4.415
17332TIP3    H173487   3.981   0.580   4.380
17332TIP3    H273488   4.098   0.480   4.379
17333TIP3   OH273489   4.434   0.575   4.182
17333TIP3    H173490   4.532   0.579   4.197
17333TIP3    H273491   4.413   0.631   4.108
17334TIP3   OH273492   5.030   0.331   4.857
17334TIP3    H173493   4.959   0.342   4.923
17334TIP3    H273494   4.980   0.311   4.776
17335TIP3   OH273495   4.306   0.693   3.941
17335TIP3    H173496   4.251   0.651   3.870
17335TIP3    H273497   4.386   0.706   3.889
17336TIP3   OH273498   5.347   1.903   5.487
17336TIP3    H173499   5.378   1.938   5.403
17336TIP3    H273500   5.421   1.928   5.545
17337TIP3   OH273501   4.118   1.146   5.444
17337TIP3    H173502   4.188   1.170   5.506
17337TIP3    H273503   4.040   1.160   5.503
17338TIP3   OH273504   4.718   0.685   4.720
17338TIP3    H173505   4.776   0.630   4.666
17338TIP3    H273506   4.703   0.632   4.799
17339TIP3   OH273507   4.218   0.303   4.362
17339TIP3    H173508   4.185   0.211   4.362
17339TIP3    H273509   4.297   0.295   4.308
17340TIP3   OH273510   4.581   0.520   4.961
17340TIP3    H173511   4.498   0.570   4.971
17340TIP3    H273512   4.636   0.553   5.035
17341TIP3   OH273513   4.641   1.141   4.132
17341TIP3    H173514   4.561   1.097   4.096
17341TIP3    H273515   4.620   1.154   4.226
17342TIP3   OH273516   5.356   1.060   5.011
17342TIP3    H173517   5.414   1.108   4.950
17342TIP3    H273518   5.270   1.068   4.963
17343TIP3   OH273519   5.023   0.426   3.949
17343TIP3    H173520   4.928   0.438   3.935
17343TIP3    H273521   5.056   0.511   3.983
17344TIP3   OH273522   4.788   1.167   5.254
17344TIP3    H173523   4.754   1.126   5.334
17344TIP3    H273524   4.765   1.259   5.265
17345TIP3   OH273525   5.096   0.614   4.113
17345TIP3    H173526   5.186   0.601   4.151
17345TIP3    H273527   5.105   0.695   4.061
17346TIP3   OH273528   4.150   1.079   4.711
17346TIP3    H173529   4.221   1.074   4.644
17346TIP3    H273530   4.157   0.993   4.756
17347TIP3   OH273531   4.851   1.290   4.034
17347TIP3    H173532   4.816   1.373   4.071
17347TIP3    H273533   4.777   1.228   4.054
17348TIP3   OH273534   3.849   0.922   5.237
17348TIP3    H173535   3.869   0.879   5.322
17348TIP3    H273536   3.787   0.859   5.196
17349TIP3   OH273537   4.551   0.876   5.455
17349TIP3    H173538   4.520   0.850   5.368
17349TIP3    H273539   4.644   0.848   5.456
17350TIP3   OH273540   5.018   1.409   5.251
17350TIP3    H173541   4.926   1.428   5.226
17350TIP3    H273542   5.017   1.439   5.344
17351TIP3   OH273543   5.586   0.631   4.089
17351TIP3    H173544   5.530   0.599   4.016
17351TIP3    H273545   5.595   0.725   4.061
17352TIP3   OH273546   5.585   1.213   5.371
17352TIP3    H173547   5.497   1.236   5.332
17352TIP3    H273548   5.641   1.211   5.291
17353TIP3   OH273549   5.413   1.512   4.130
17353TIP3    H173550   5.379   1.429   4.163
17353TIP3    H273551   5.446   1.492   4.041
17354TIP3   OH273552   5.135   0.994   4.838
17354TIP3    H173553   5.041   0.971   4.830
17354TIP3    H273554   5.178   0.916   4.798
17355TIP3   OH273555   4.388   1.426   4.449
17355TIP3    H173556   4.438   1.506   4.428
17355TIP3    H273557   4.299   1.449   4.417
17356TIP3   OH273558   3.965   0.910   3.908
17356TIP3    H173559   4.022   0.978   3.946
17356TIP3    H273560   3.875   0.942   3.931
17357TIP3   OH273561   4.528   1.192   4.400
17357TIP3    H173562   4.501   1.285   4.411
17357TIP3    H273563   4.456   1.146   4.448
17358TIP3   OH273564   4.576   1.610   5.040
17358TIP3    H173565   4.619   1.693   5.014
17358TIP3    H273566   4.635   1.578   5.110
17359TIP3   OH273567   4.397   1.692   4.356
17359TIP3    H173568   4.301   1.706   4.367
17359TIP3    H273569   4.433   1.776   4.391
17360TIP3   OH273570   4.930   1.214   5.005
17360TIP3    H173571   4.893   1.193   5.094
17360TIP3    H273572   4.992   1.141   4.988
17361TIP3   OH273573   5.159   1.316   3.913
17361TIP3    H173574   5.189   1.271   3.994
17361TIP3    H273575   5.063   1.300   3.923
17362TIP3   OH273576   5.205   1.670   5.253
17362TIP3    H173577   5.139   1.619   5.204
17362TIP3    H273578   5.228   1.740   5.189
17363TIP3   OH273579   5.607   1.754   3.937
17363TIP3    H173580   5.677   1.820   3.919
17363TIP3    H273581   5.536   1.816   3.967
17364TIP3   OH273582   4.015   0.396   5.197
17364TIP3    H173583   3.923   0.429   5.186
17364TIP3    H273584   4.002   0.307   5.235
17365TIP3   OH273585   5.239   1.181   4.137
17365TIP3    H173586   5.215   1.104   4.192
17365TIP3    H273587   5.334   1.187   4.156
17366TIP3   OH273588   3.977   1.575   5.036
17366TIP3    H173589   4.004   1.482   5.036
17366TIP3    H273590   4.003   1.602   5.125
17367TIP3   OH273591   4.570   1.425   3.761
17367TIP3    H173592   4.585   1.348   3.704
17367TIP3    H273593   4.532   1.381   3.841
17368TIP3   OH273594   4.452   1.377   4.007
17368TIP3    H173595   4.476   1.328   4.086
17368TIP3    H273596   4.459   1.470   4.038
17369TIP3   OH273597   4.108   1.102   4.059
17369TIP3    H173598   4.033   1.141   4.110
17369TIP3    H273599   4.154   1.182   4.028
17370TIP3   OH273600   4.888   0.369   5.087
17370TIP3    H173601   4.959   0.380   5.151
17370TIP3    H273602   4.849   0.281   5.103
17371TIP3   OH273603   4.966   0.329   4.196
17371TIP3    H173604   4.985   0.380   4.114
17371TIP3    H273605   5.019   0.377   4.262
17372TIP3   OH273606   4.731   1.545   4.079
17372TIP3    H173607   4.650   1.598   4.085
17372TIP3    H273608   4.785   1.599   4.017
17373TIP3   OH273609   4.681   0.508   4.277
17373TIP3    H173610   4.765   0.558   4.283
17373TIP3    H273611   4.660   0.491   4.371
17374TIP3   OH273612   4.740   0.605   5.196
17374TIP3    H173613   4.749   0.664   5.273
17374TIP3    H273614   4.806   0.537   5.207
17375TIP3   OH273615   4.772   0.211   4.372
17375TIP3    H173616   4.738   0.278   4.434
17375TIP3    H273617   4.838   0.265   4.323
17376TIP3   OH273618   4.469   1.649   4.079
17376TIP3    H173619   4.481   1.731   4.026
17376TIP3    H273620   4.444   1.684   4.168
17377TIP3   OH273621   4.336   0.320   4.038
17377TIP3    H173622   4.331   0.409   4.075
17377TIP3    H273623   4.428   0.298   4.063
17378TIP3   OH273624   5.357   0.391   5.282
17378TIP3    H173625   5.266   0.427   5.269
17378TIP3    H273626   5.391   0.395   5.191
17379TIP3   OH273627   5.219   0.773   4.685
17379TIP3    H173628   5.137   0.729   4.656
17379TIP3    H273629   5.266   0.703   4.736
17380TIP3   OH273630   4.161   1.364   3.944
17380TIP3    H173631   4.225   1.431   3.973
17380TIP3    H273632   4.212   1.321   3.873
17381TIP3   OH273633   3.996   0.633   3.858
17381TIP3    H173634   3.993   0.729   3.876
17381TIP3    H273635   3.907   0.612   3.828
17382TIP3   OH273636   5.326   1.697   4.850
17382TIP3    H173637   5.316   1.767   4.782
17382TIP3    H273638   5.422   1.704   4.869
17383TIP3   OH273639   4.057   0.125   4.732
17383TIP3    H173640   4.056   0.115   4.634
17383TIP3    H273641   4.040   0.032   4.755
17384TIP3   OH273642   3.971   1.502   4.344
17384TIP3    H173643   3.886   1.549   4.342
17384TIP3    H273644   4.021   1.552   4.277
17385TIP3   OH273645   3.894   1.769   5.473
17385TIP3    H173646   3.951   1.743   5.547
17385TIP3    H273647   3.850   1.684   5.454
17386TIP3   OH273648   4.771   1.611   3.774
17386TIP3    H173649   4.704   1.545   3.801
17386TIP3    H273650   4.844   1.552   3.750
17387TIP3   OH273651   5.013   1.498   5.511
17387TIP3    H173652   4.980   1.409   5.534
17387TIP3    H273653   5.091   1.508   5.567
17388TIP3   OH273654   5.228   1.587   3.795
17388TIP3    H173655   5.258   1.508   3.843
17388TIP3    H273656   5.304   1.610   3.739
17389TIP3   OH273657   3.884   1.143   5.570
17389TIP3    H173658   3.903   1.054   5.539
17389TIP3    H273659   3.809   1.172   5.516
17390TIP3   OH273660   4.319   1.180   3.779
17390TIP3    H173661   4.332   1.102   3.833
17390TIP3    H273662   4.391   1.169   3.713
17391TIP3   OH273663   4.563   1.145   5.507
17391TIP3    H173664   4.519   1.172   5.426
17391TIP3    H273665   4.562   1.046   5.504
17392TIP3   OH273666   4.860   1.289   3.754
17392TIP3    H173667   4.833   1.300   3.846
17392TIP3    H273668   4.840   1.193   3.741
17393TIP3   OH273669   5.126   1.131   5.252
17393TIP3    H173670   5.203   1.191   5.242
17393TIP3    H273671   5.054   1.195   5.256
17394TIP3   OH273672   3.972   0.867   5.512
17394TIP3    H173673   4.016   0.783   5.498
17394TIP3    H273674   3.948   0.869   5.604
17395TIP3   OH273675   4.450   0.990   4.004
17395TIP3    H173676   4.380   0.960   4.056
17395TIP3    H273677   4.471   0.916   3.941
17396TIP3   OH273678   4.364   0.763   5.248
17396TIP3    H173679   4.306   0.836   5.276
17396TIP3    H273680   4.403   0.799   5.166
17397TIP3   OH273681   4.544   0.802   3.840
17397TIP3    H173682   4.530   0.792   3.743
17397TIP3    H273683   4.642   0.810   3.844
17398TIP3   OH273684   4.870   1.020   5.583
17398TIP3    H173685   4.966   1.019   5.571
17398TIP3    H273686   4.853   0.943   5.638
17399TIP3   OH273687   5.481   1.036   3.782
17399TIP3    H173688   5.458   0.997   3.696
17399TIP3    H273689   5.488   1.132   3.761
17400TIP3   OH273690   4.402   0.501   5.357
17400TIP3    H173691   4.418   0.430   5.292
17400TIP3    H273692   4.401   0.581   5.300
17401TIP3   OH273693   4.444   0.339   5.108
17401TIP3    H173694   4.497   0.386   5.039
17401TIP3    H273695   4.356   0.328   5.064
17402TIP3   OH273696   4.600   0.884   5.132
17402TIP3    H173697   4.675   0.869   5.074
17402TIP3    H273698   4.565   0.970   5.101
17403TIP3   OH273699   5.039   0.664   5.625
17403TIP3    H173700   5.064   0.572   5.626
17403TIP3    H273701   5.126   0.706   5.630
17404TIP3   OH273702   5.172   0.941   5.443
17404TIP3    H173703   5.148   1.015   5.383
17404TIP3    H273704   5.268   0.939   5.427
17405TIP3   OH273705   4.249   0.620   5.549
17405TIP3    H173706   4.175   0.568   5.522
17405TIP3    H273707   4.318   0.593   5.485
17406TIP3   OH273708   4.518   0.095   5.165
17406TIP3    H173709   4.508   0.190   5.140
17406TIP3    H273710   4.452   0.054   5.106
17407TIP3   OH273711   4.653   0.512   5.507
17407TIP3    H173712   4.621   0.494   5.597
17407TIP3    H273713   4.571   0.497   5.456
17408TIP3   OH273714   4.921   0.422   5.411
17408TIP3    H173715   4.826   0.437   5.429
17408TIP3    H273716   4.949   0.372   5.489
17409TIP3   OH273717   5.075   0.295   5.608
17409TIP3    H173718   5.078   0.197   5.620
17409TIP3    H273719   5.057   0.317   5.701
17410TIP3   OH273720   4.551   7.361   5.416
17410TIP3    H173721   4.612   7.288   5.417
17410TIP3    H273722   4.532   7.382   5.323
17411TIP3   OH273723   4.589   0.190   5.615
17411TIP3    H173724   4.562   0.130   5.542
17411TIP3    H273725   4.518   0.256   5.620
17412TIP3   OH273726   4.529   1.872   3.943
17412TIP3    H173727   4.626   1.884   3.952
17412TIP3    H273728   4.514   1.937   3.874
17413TIP3   OH273729   3.886   1.333   3.891
17413TIP3    H173730   3.983   1.342   3.912
17413TIP3    H273731   3.891   1.266   3.819
17414TIP3   OH273732   3.762   1.871   4.391
17414TIP3    H173733   3.691   1.823   4.343
17414TIP3    H273734   3.791   1.805   4.455
17415TIP3   OH273735   3.845   1.683   4.576
17415TIP3    H173736   3.810   1.595   4.595
17415TIP3    H273737   3.867   1.716   4.665
17416TIP3   OH273738   5.598   1.762   4.871
17416TIP3    H173739   5.599   1.780   4.966
17416TIP3    H273740   5.668   1.820   4.840
17417TIP3   OH273741   5.558   1.722   5.163
17417TIP3    H173742   5.508   1.645   5.128
17417TIP3    H273743   5.607   1.679   5.235
17418TIP3   OH273744   5.531   1.127   4.177
17418TIP3    H173745   5.617   1.166   4.194
17418TIP3    H273746   5.531   1.053   4.242
17419TIP3   OH273747   5.568   0.934   4.363
17419TIP3    H173748   5.494   0.883   4.403
17419TIP3    H273749   5.628   0.949   4.439
17420TIP3   OH273750   5.544   1.205   4.861
17420TIP3    H173751   5.627   1.168   4.826
17420TIP3    H273752   5.558   1.301   4.845
17421TIP3   OH273753   5.398   1.495   5.090
17421TIP3    H173754   5.330   1.529   5.150
17421TIP3    H273755   5.343   1.454   5.020
17422TIP3   OH273756   5.598   0.917   4.003
17422TIP3    H173757   5.542   0.953   3.931
17422TIP3    H273758   5.590   0.988   4.069
17423TIP3   OH273759   5.435   0.642   3.855
17423TIP3    H173760   5.442   0.709   3.786
17423TIP3    H273761   5.417   0.559   3.806
17424TIP3   OH273762   5.349   0.782   4.420
17424TIP3    H173763   5.334   0.687   4.417
17424TIP3    H273764   5.315   0.806   4.508
17425TIP3   OH273765   3.850   0.990   4.825
17425TIP3    H173766   3.869   0.982   4.729
17425TIP3    H273767   3.939   0.975   4.862
17426TIP3   OH273768   5.433   0.978   5.387
17426TIP3    H173769   5.495   0.903   5.404
17426TIP3    H273770   5.493   1.055   5.388
17427TIP3   OH273771   5.585   0.770   5.453
17427TIP3    H173772   5.497   0.728   5.438
17427TIP3    H273773   5.643   0.692   5.447
17428TIP3   OH273774   5.357   0.389   3.770
17428TIP3    H173775   5.419   0.346   3.832
17428TIP3    H273776   5.273   0.343   3.785
17429TIP3   OH273777   5.315   0.541   4.264
17429TIP3    H173778   5.347   0.450   4.278
17429TIP3    H273779   5.397   0.582   4.230
17430TIP3   OH273780   5.380   0.597   4.809
17430TIP3    H173781   5.476   0.619   4.808
17430TIP3    H273782   5.360   0.609   4.904
17431TIP3   OH273783   5.386   0.669   5.087
17431TIP3    H173784   5.299   0.698   5.124
17431TIP3    H273785   5.430   0.755   5.067
17432TIP3   OH273786   3.813   0.519   5.437
17432TIP3    H173787   3.904   0.499   5.457
17432TIP3    H273788   3.765   0.440   5.469
17433TIP3   OH273789   5.625   0.070   5.626
17433TIP3    H173790   5.645   0.004   5.560
17433TIP3    H273791   5.622   0.153   5.574
17434TIP3   OH273792   5.382   0.268   4.270
17434TIP3    H173793   5.401   0.222   4.355
17434TIP3    H273794   5.323   0.204   4.225
17435TIP3   OH273795   3.930   0.351   4.724
17435TIP3    H173796   3.977   0.270   4.753
17435TIP3    H273797   3.984   0.419   4.766
17436TIP3   OH273798   3.761   0.648   4.831
17436TIP3    H173799   3.816   0.626   4.753
17436TIP3    H273800   3.805   0.731   4.858
17437TIP3   OH273801   5.566   0.277   5.458
17437TIP3    H173802   5.474   0.309   5.452
17437TIP3    H273803   5.573   0.226   5.376
17438TIP3   OH273804   5.566   0.276   3.924
17438TIP3    H173805   5.609   0.200   3.876
17438TIP3    H273806   5.639   0.339   3.930
17439TIP3   OH273807   3.800   0.273   4.238
17439TIP3    H173808   3.705   0.293   4.224
17439TIP3    H273809   3.839   0.324   4.166
17440TIP3   OH273810   5.271   1.771   4.433
17440TIP3    H173811   5.339   1.739   4.371
17440TIP3    H273812   5.323   1.821   4.497
17441TIP3   OH273813   3.793   0.147   5.070
17441TIP3    H173814   3.725   0.124   5.135
17441TIP3    H273815   3.747   0.210   5.013
17442TIP3   OH273816   4.014   1.465   5.482
17442TIP3    H173817   3.928   1.481   5.441
17442TIP3    H273818   3.990   1.452   5.575
17443TIP3   OH273819   4.305   1.561   5.110
17443TIP3    H173820   4.269   1.646   5.083
17443TIP3    H273821   4.398   1.571   5.081
17444TIP3   OH273822   4.737   1.704   5.404
17444TIP3    H173823   4.755   1.670   5.495
17444TIP3    H273824   4.826   1.735   5.377
17445TIP3   OH273825   4.968   1.831   5.331
17445TIP3    H173826   5.041   1.770   5.309
17445TIP3    H273827   5.006   1.871   5.412
17446TIP3   OH273828   5.467   0.094   5.240
17446TIP3    H173829   5.386   0.126   5.199
17446TIP3    H273830   5.488   0.013   5.188
17447TIP3   OH273831   4.048   1.887   5.112
17447TIP3    H173832   3.974   1.934   5.070
17447TIP3    H273833   4.013   1.865   5.199
17448TIP3   OH273834   4.295   1.845   5.019
17448TIP3    H173835   4.206   1.857   5.058
17448TIP3    H273836   4.288   1.903   4.941
17449TIP3   OH273837   4.765   1.835   4.936
17449TIP3    H173838   4.719   1.890   4.871
17449TIP3    H273839   4.780   1.898   5.009
17450TIP3   OH273840   4.996   1.718   5.035
17450TIP3    H173841   4.908   1.743   5.003
17450TIP3    H273842   5.041   1.804   5.027
17451TIP3   OH273843   5.254   1.875   5.061
17451TIP3    H173844   5.245   1.971   5.038
17451TIP3    H273845   5.275   1.838   4.973
17452TIP3   OH273846   3.991   1.751   4.806
17452TIP3    H173847   3.986   1.705   4.892
17452TIP3    H273848   4.073   1.715   4.766
17453TIP3   OH273849   4.201   1.622   4.671
17453TIP3    H173850   4.183   1.529   4.692
17453TIP3    H273851   4.287   1.636   4.717
17454TIP3   OH273852   4.459   1.670   4.757
17454TIP3    H173853   4.478   1.578   4.731
17454TIP3    H273854   4.465   1.664   4.854
17455TIP3   OH273855   4.805   0.241   4.670
17455TIP3    H173856   4.741   0.172   4.699
17455TIP3    H273857   4.865   0.187   4.616
17456TIP3   OH273858   5.320   0.044   4.683
17456TIP3    H173859   5.382   0.098   4.629
17456TIP3    H273860   5.233   0.076   4.657
17457TIP3   OH273861   5.490   0.165   4.507
17457TIP3    H173862   5.557   0.107   4.466
17457TIP3    H273863   5.538   0.250   4.517
17458TIP3   OH273864   4.047   0.102   4.446
17458TIP3    H173865   3.962   0.075   4.407
17458TIP3    H273866   4.088   0.015   4.459
17459TIP3   OH273867   3.898   0.118   3.978
17459TIP3    H173868   3.983   0.161   3.969
17459TIP3    H273869   3.866   0.141   4.066
17460TIP3   OH273870   4.520   0.130   4.467
17460TIP3    H173871   4.614   0.130   4.442
17460TIP3    H273872   4.503   0.065   4.537
17461TIP3   OH273873   5.045   0.114   4.604
17461TIP3    H173874   5.058   0.111   4.509
17461TIP3    H273875   5.031   0.016   4.615
17462TIP3   OH273876   5.188   0.095   4.170
17462TIP3    H173877   5.116   0.157   4.148
17462TIP3    H273878   5.144   0.010   4.182
17463TIP3   OH273879   3.914   1.669   4.129
17463TIP3    H173880   3.846   1.668   4.059
17463TIP3    H273881   3.912   1.764   4.150
17464TIP3   OH273882   4.106   0.270   3.878
17464TIP3    H173883   4.158   0.208   3.825
17464TIP3    H273884   4.171   0.300   3.944
17465TIP3   OH273885   4.602   0.294   4.124
17465TIP3    H173886   4.634   0.235   4.194
17465TIP3    H273887   4.611   0.380   4.170
17466TIP3   OH273888   4.799   1.797   3.966
17466TIP3    H173889   4.890   1.825   3.944
17466TIP3    H273890   4.777   1.748   3.884
17467TIP3   OH273891   5.471   1.750   4.236
17467TIP3    H173892   5.451   1.672   4.178
17467TIP3    H273893   5.464   1.824   4.172
17468TIP3   OH273894   4.034   0.151   5.408
17468TIP3    H173895   3.999   0.071   5.448
17468TIP3    H273896   4.128   0.149   5.433
17469TIP3   OH273897   4.096   1.769   3.825
17469TIP3    H173898   4.067   1.792   3.915
17469TIP3    H273899   4.171   1.709   3.843
17470TIP3   OH273900   5.084   7.377   5.581
17470TIP3    H173901   5.081   7.322   5.662
17470TIP3    H273902   5.171   7.354   5.547
17471TIP3   OH273903   6.837   1.011   4.445
17471TIP3    H173904   6.840   1.109   4.438
17471TIP3    H273905   6.767   0.987   4.383
17472TIP3   OH273906   6.725   0.938   4.793
17472TIP3    H173907   6.723   0.872   4.864
17472TIP3    H273908   6.692   0.889   4.716
17473TIP3   OH273909   5.960   0.904   4.949
17473TIP3    H173910   5.968   0.837   5.020
17473TIP3    H273911   6.034   0.962   4.970
17474TIP3   OH273912   7.094   1.231   4.621
17474TIP3    H173913   7.052   1.160   4.670
17474TIP3    H273914   7.098   1.302   4.688
17475TIP3   OH273915   6.053   1.349   4.801
17475TIP3    H173916   6.020   1.263   4.767
17475TIP3    H273917   6.149   1.330   4.805
17476TIP3   OH273918   5.717   0.707   4.346
17476TIP3    H173919   5.672   0.794   4.341
17476TIP3    H273920   5.660   0.652   4.291
17477TIP3   OH273921   5.787   0.928   4.560
17477TIP3    H173922   5.813   0.847   4.607
17477TIP3    H273923   5.859   0.937   4.495
17478TIP3   OH273924   6.808   1.748   4.644
17478TIP3    H173925   6.871   1.677   4.616
17478TIP3    H273926   6.786   1.717   4.732
17479TIP3   OH273927   6.562   1.179   4.837
17479TIP3    H173928   6.596   1.114   4.773
17479TIP3    H273929   6.641   1.193   4.892
17480TIP3   OH273930   6.878   0.624   4.870
17480TIP3    H173931   6.895   0.527   4.869
17480TIP3    H273932   6.868   0.639   4.773
17481TIP3   OH273933   6.192   0.435   4.593
17481TIP3    H173934   6.200   0.519   4.545
17481TIP3    H273935   6.150   0.377   4.527
17482TIP3   OH273936   6.965   0.443   4.431
17482TIP3    H173937   7.032   0.411   4.497
17482TIP3    H273938   7.020   0.498   4.373
17483TIP3   OH273939   5.853   0.674   4.667
17483TIP3    H173940   5.921   0.618   4.711
17483TIP3    H273941   5.862   0.643   4.576
17484TIP3   OH273942   6.370   0.829   4.596
17484TIP3    H173943   6.435   0.772   4.639
17484TIP3    H273944   6.316   0.763   4.548
17485TIP3   OH273945   6.080   0.326   4.998
17485TIP3    H173946   6.051   0.379   4.922
17485TIP3    H273947   6.010   0.346   5.064
17486TIP3   OH273948   6.810   1.271   4.352
17486TIP3    H173949   6.783   1.243   4.264
17486TIP3    H273950   6.779   1.364   4.357
17487TIP3   OH273951   6.333   1.088   5.023
17487TIP3    H173952   6.261   1.152   5.041
17487TIP3    H273953   6.403   1.147   4.994
17488TIP3   OH273954   7.129   0.374   4.635
17488TIP3    H173955   7.120   0.296   4.689
17488TIP3    H273956   7.203   0.420   4.681
17489TIP3   OH273957   6.035   0.511   4.797
17489TIP3    H173958   6.100   0.577   4.832
17489TIP3    H273959   6.089   0.466   4.728
17490TIP3   OH273960   6.176   1.287   5.104
17490TIP3    H173961   6.172   1.378   5.069
17490TIP3    H273962   6.088   1.280   5.148
17491TIP3   OH273963   5.785   1.250   4.184
17491TIP3    H173964   5.759   1.281   4.095
17491TIP3    H273965   5.792   1.335   4.232
17492TIP3   OH273966   7.139   1.412   4.862
17492TIP3    H173967   7.044   1.425   4.872
17492TIP3    H273968   7.172   1.502   4.841
17493TIP3   OH273969   7.169   0.253   4.990
17493TIP3    H173970   7.096   0.317   4.990
17493TIP3    H273971   7.241   0.294   4.941
17494TIP3   OH273972   6.504   0.072   4.743
17494TIP3    H173973   6.485  -0.023   4.738
17494TIP3    H273974   6.411   0.096   4.765
17495TIP3   OH273975   6.969   1.592   4.518
17495TIP3    H173976   7.016   1.522   4.468
17495TIP3    H273977   7.011   1.672   4.479
17496TIP3   OH273978   7.091   1.385   4.367
17496TIP3    H173979   7.063   1.314   4.308
17496TIP3    H273980   7.097   1.338   4.452
17497TIP3   OH273981   7.236   1.254   5.224
17497TIP3    H173982   7.266   1.187   5.160
17497TIP3    H273983   7.275   1.333   5.183
17498TIP3   OH273984   6.705   0.936   4.195
17498TIP3    H173985   6.634   0.992   4.159
17498TIP3    H273986   6.775   0.944   4.128
17499TIP3   OH273987   6.711   0.789   3.897
17499TIP3    H173988   6.782   0.788   3.962
17499TIP3    H273989   6.743   0.720   3.836
17500TIP3   OH273990   7.048   0.959   4.286
17500TIP3    H173991   6.974   0.982   4.347
17500TIP3    H273992   7.094   0.890   4.339
17501TIP3   OH273993   7.038   0.772   5.197
17501TIP3    H173994   7.041   0.852   5.253
17501TIP3    H273995   6.976   0.804   5.128
17502TIP3   OH273996   6.210   1.023   4.478
17502TIP3    H173997   6.178   0.984   4.394
17502TIP3    H273998   6.271   0.953   4.512
17503TIP3   OH273999   6.343   1.363   4.746
17503TIP3    H174000   6.340   1.308   4.667
17503TIP3    H274001   6.421   1.326   4.793
17504TIP3   OH274002   6.244   0.897   4.843
17504TIP3    H174003   6.301   0.909   4.764
17504TIP3    H274004   6.281   0.963   4.906
17505TIP3   OH274005   6.880   1.453   4.914
17505TIP3    H174006   6.856   1.517   4.981
17505TIP3    H274007   6.859   1.367   4.957
17506TIP3   OH274008   6.338   1.339   5.316
17506TIP3    H174009   6.299   1.416   5.361
17506TIP3    H274010   6.271   1.321   5.246
17507TIP3   OH274011   6.936   0.874   4.054
17507TIP3    H174012   6.991   0.893   4.134
17507TIP3    H274013   6.976   0.925   3.981
17508TIP3   OH274014   6.031   0.956   5.233
17508TIP3    H174015   6.035   1.023   5.305
17508TIP3    H274016   5.939   0.967   5.207
17509TIP3   OH274017   6.707   1.548   4.401
17509TIP3    H174018   6.751   1.579   4.481
17509TIP3    H274019   6.651   1.623   4.377
17510TIP3   OH274020   6.161   1.544   5.389
17510TIP3    H174021   6.158   1.533   5.293
17510TIP3    H274022   6.067   1.532   5.413
17511TIP3   OH274023   7.270   0.051   4.014
17511TIP3    H174024   7.199   0.069   4.077
17511TIP3    H274025   7.320   0.132   3.997
17512TIP3   OH274026   6.108   0.926   4.240
17512TIP3    H174027   6.079   1.004   4.188
17512TIP3    H274028   6.042   0.860   4.218
17513TIP3   OH274029   5.718   1.167   5.124
17513TIP3    H174030   5.670   1.160   5.040
17513TIP3    H274031   5.722   1.074   5.150
17514TIP3   OH274032   5.693   1.442   4.807
17514TIP3    H174033   5.788   1.429   4.805
17514TIP3    H274034   5.684   1.522   4.859
17515TIP3   OH274035   6.613   1.463   5.266
17515TIP3    H174036   6.618   1.550   5.312
17515TIP3    H274037   6.523   1.433   5.286
17516TIP3   OH274038   6.656   1.841   4.243
17516TIP3    H174039   6.645   1.832   4.146
17516TIP3    H274040   6.657   1.938   4.256
17517TIP3   OH274041   6.020   1.727   4.423
17517TIP3    H174042   6.034   1.686   4.511
17517TIP3    H274043   5.934   1.687   4.399
17518TIP3   OH274044   6.964   1.762   3.941
17518TIP3    H174045   7.004   1.684   3.896
17518TIP3    H274046   6.964   1.734   4.035
17519TIP3   OH274047   6.931   1.754   4.218
17519TIP3    H174048   6.835   1.762   4.236
17519TIP3    H274049   6.956   1.681   4.276
17520TIP3   OH274050   7.257   0.680   5.406
17520TIP3    H174051   7.182   0.706   5.351
17520TIP3    H274052   7.234   0.581   5.403
17521TIP3   OH274053   5.944   1.299   5.223
17521TIP3    H174054   5.966   1.262   5.311
17521TIP3    H274055   5.857   1.259   5.201
17522TIP3   OH274056   6.206   0.158   4.826
17522TIP3    H174057   6.119   0.141   4.783
17522TIP3    H274058   6.194   0.241   4.870
17523TIP3   OH274059   6.674   0.114   5.158
17523TIP3    H174060   6.715   0.077   5.236
17523TIP3    H274061   6.578   0.102   5.173
17524TIP3   OH274062   6.990   0.494   5.223
17524TIP3    H174063   6.961   0.478   5.319
17524TIP3    H274064   6.991   0.591   5.224
17525TIP3   OH274065   7.086   0.970   3.829
17525TIP3    H174066   7.081   0.959   3.731
17525TIP3    H274067   7.164   1.025   3.838
17526TIP3   OH274068   6.642   0.370   3.887
17526TIP3    H174069   6.610   0.365   3.979
17526TIP3    H274070   6.610   0.282   3.857
17527TIP3   OH274071   6.221   0.642   4.940
17527TIP3    H174072   6.149   0.641   5.006
17527TIP3    H274073   6.218   0.735   4.907
17528TIP3   OH274074   6.218   0.658   4.428
17528TIP3    H174075   6.125   0.630   4.416
17528TIP3    H274076   6.257   0.626   4.345
17529TIP3   OH274077   6.771   0.705   4.307
17529TIP3    H174078   6.730   0.788   4.272
17529TIP3    H274079   6.841   0.690   4.242
17530TIP3   OH274080   6.677   0.729   5.455
17530TIP3    H174081   6.626   0.649   5.484
17530TIP3    H274082   6.762   0.712   5.501
17531TIP3   OH274083   6.873   0.655   4.591
17531TIP3    H174084   6.848   0.710   4.516
17531TIP3    H274085   6.885   0.569   4.545
17532TIP3   OH274086   5.986   0.671   5.114
17532TIP3    H174087   5.990   0.711   5.203
17532TIP3    H274088   5.941   0.587   5.131
17533TIP3   OH274089   6.324   0.412   3.799
17533TIP3    H174090   6.280   0.365   3.872
17533TIP3    H274091   6.252   0.450   3.747
17534TIP3   OH274092   5.651   0.384   4.507
17534TIP3    H174093   5.718   0.379   4.578
17534TIP3    H274094   5.696   0.342   4.431
17535TIP3   OH274095   5.779   0.456   4.049
17535TIP3    H174096   5.827   0.515   3.988
17535TIP3    H274097   5.707   0.515   4.080
17536TIP3   OH274098   6.794   0.814   5.050
17536TIP3    H174099   6.830   0.746   4.988
17536TIP3    H274100   6.750   0.759   5.117
17537TIP3   OH274101   6.474   0.408   4.530
17537TIP3    H174102   6.380   0.409   4.561
17537TIP3    H274103   6.523   0.398   4.613
17538TIP3   OH274104   5.956   0.566   4.417
17538TIP3    H174105   5.867   0.580   4.379
17538TIP3    H274106   5.985   0.482   4.378
17539TIP3   OH274107   6.321   0.568   4.179
17539TIP3    H174108   6.415   0.583   4.198
17539TIP3    H274109   6.297   0.638   4.115
17540TIP3   OH274110   6.913   0.332   4.855
17540TIP3    H174111   6.845   0.341   4.924
17540TIP3    H274112   6.863   0.312   4.774
17541TIP3   OH274113   6.189   0.688   3.939
17541TIP3    H174114   6.136   0.650   3.867
17541TIP3    H274115   6.272   0.708   3.892
17542TIP3   OH274116   7.236   1.898   5.486
17542TIP3    H174117   7.263   1.937   5.402
17542TIP3    H274118   7.305   1.928   5.545
17543TIP3   OH274119   6.003   1.144   5.444
17543TIP3    H174120   6.074   1.170   5.506
17543TIP3    H274121   5.925   1.159   5.502
17544TIP3   OH274122   6.604   0.685   4.720
17544TIP3    H174123   6.663   0.630   4.667
17544TIP3    H274124   6.589   0.632   4.799
17545TIP3   OH274125   6.103   0.303   4.362
17545TIP3    H174126   6.071   0.211   4.362
17545TIP3    H274127   6.183   0.296   4.308
17546TIP3   OH274128   6.466   0.520   4.961
17546TIP3    H174129   6.383   0.571   4.971
17546TIP3    H274130   6.521   0.553   5.034
17547TIP3   OH274131   6.525   1.143   4.131
17547TIP3    H174132   6.446   1.094   4.098
17547TIP3    H274133   6.505   1.152   4.226
17548TIP3   OH274134   7.231   1.062   5.011
17548TIP3    H174135   7.295   1.093   4.945
17548TIP3    H274136   7.149   1.067   4.959
17549TIP3   OH274137   6.909   0.426   3.948
17549TIP3    H174138   6.813   0.438   3.934
17549TIP3    H274139   6.939   0.512   3.983
17550TIP3   OH274140   6.674   1.166   5.254
17550TIP3    H174141   6.638   1.126   5.334
17550TIP3    H274142   6.652   1.259   5.263
17551TIP3   OH274143   6.981   0.614   4.111
17551TIP3    H174144   7.069   0.601   4.152
17551TIP3    H274145   6.988   0.698   4.062
17552TIP3   OH274146   6.036   1.079   4.710
17552TIP3    H174147   6.106   1.073   4.644
17552TIP3    H274148   6.042   0.993   4.756
17553TIP3   OH274149   6.736   1.290   4.034
17553TIP3    H174150   6.701   1.374   4.071
17553TIP3    H274151   6.662   1.228   4.055
17554TIP3   OH274152   5.735   0.921   5.238
17554TIP3    H174153   5.755   0.878   5.323
17554TIP3    H274154   5.673   0.859   5.195
17555TIP3   OH274155   6.438   0.880   5.455
17555TIP3    H174156   6.406   0.850   5.369
17555TIP3    H274157   6.530   0.846   5.458
17556TIP3   OH274158   6.900   1.407   5.251
17556TIP3    H174159   6.810   1.430   5.225
17556TIP3    H274160   6.902   1.439   5.342
17557TIP3   OH274161   7.292   1.511   4.128
17557TIP3    H174162   7.262   1.428   4.165
17557TIP3    H274163   7.332   1.492   4.043
17558TIP3   OH274164   7.016   0.992   4.840
17558TIP3    H174165   6.922   0.970   4.828
17558TIP3    H274166   7.063   0.916   4.799
17559TIP3   OH274167   6.273   1.426   4.449
17559TIP3    H174168   6.324   1.506   4.428
17559TIP3    H274169   6.185   1.450   4.417
17560TIP3   OH274170   5.849   0.911   3.906
17560TIP3    H174171   5.908   0.976   3.946
17560TIP3    H274172   5.761   0.943   3.933
17561TIP3   OH274173   6.416   1.192   4.402
17561TIP3    H174174   6.386   1.285   4.411
17561TIP3    H274175   6.342   1.145   4.446
17562TIP3   OH274176   6.461   1.610   5.041
17562TIP3    H174177   6.505   1.692   5.014
17562TIP3    H274178   6.521   1.578   5.110
17563TIP3   OH274179   6.284   1.693   4.356
17563TIP3    H174180   6.187   1.706   4.367
17563TIP3    H274181   6.319   1.777   4.391
17564TIP3   OH274182   6.817   1.214   5.004
17564TIP3    H174183   6.779   1.193   5.092
17564TIP3    H274184   6.878   1.140   4.988
17565TIP3   OH274185   7.045   1.316   3.914
17565TIP3    H174186   7.074   1.271   3.995
17565TIP3    H274187   6.949   1.301   3.922
17566TIP3   OH274188   7.090   1.671   5.254
17566TIP3    H174189   7.025   1.618   5.204
17566TIP3    H274190   7.114   1.739   5.188
17567TIP3   OH274191   5.900   0.394   5.196
17567TIP3    H174192   5.809   0.429   5.190
17567TIP3    H274193   5.887   0.307   5.236
17568TIP3   OH274194   7.124   1.179   4.137
17568TIP3    H174195   7.100   1.102   4.193
17568TIP3    H274196   7.218   1.187   4.158
17569TIP3   OH274197   5.863   1.575   5.036
17569TIP3    H174198   5.889   1.481   5.036
17569TIP3    H274199   5.889   1.603   5.124
17570TIP3   OH274200   6.456   1.425   3.761
17570TIP3    H174201   6.470   1.348   3.704
17570TIP3    H274202   6.418   1.382   3.840
17571TIP3   OH274203   6.339   1.378   4.007
17571TIP3    H174204   6.361   1.327   4.085
17571TIP3    H274205   6.344   1.471   4.039
17572TIP3   OH274206   5.990   1.103   4.056
17572TIP3    H174207   5.919   1.142   4.112
17572TIP3    H274208   6.041   1.181   4.029
17573TIP3   OH274209   6.771   0.369   5.086
17573TIP3    H174210   6.845   0.379   5.150
17573TIP3    H274211   6.736   0.281   5.106
17574TIP3   OH274212   6.851   0.329   4.195
17574TIP3    H174213   6.872   0.380   4.114
17574TIP3    H274214   6.904   0.375   4.262
17575TIP3   OH274215   6.617   1.546   4.079
17575TIP3    H174216   6.535   1.598   4.085
17575TIP3    H274217   6.670   1.599   4.017
17576TIP3   OH274218   6.571   0.502   4.278
17576TIP3    H174219   6.649   0.560   4.282
17576TIP3    H274220   6.545   0.493   4.372
17577TIP3   OH274221   6.625   0.606   5.196
17577TIP3    H174222   6.636   0.663   5.275
17577TIP3    H274223   6.692   0.537   5.207
17578TIP3   OH274224   6.656   0.211   4.371
17578TIP3    H174225   6.625   0.278   4.434
17578TIP3    H274226   6.723   0.265   4.323
17579TIP3   OH274227   6.355   1.649   4.080
17579TIP3    H174228   6.367   1.731   4.026
17579TIP3    H274229   6.330   1.684   4.168
17580TIP3   OH274230   6.221   0.320   4.038
17580TIP3    H174231   6.217   0.410   4.075
17580TIP3    H274232   6.314   0.299   4.063
17581TIP3   OH274233   7.261   0.389   5.258
17581TIP3    H174234   7.166   0.419   5.273
17581TIP3    H274235   7.276   0.396   5.167
17582TIP3   OH274236   7.106   0.774   4.688
17582TIP3    H174237   7.024   0.731   4.656
17582TIP3    H274238   7.147   0.700   4.737
17583TIP3   OH274239   6.046   1.365   3.944
17583TIP3    H174240   6.111   1.431   3.973
17583TIP3    H274241   6.098   1.320   3.874
17584TIP3   OH274242   5.880   0.632   3.857
17584TIP3    H174243   5.880   0.728   3.877
17584TIP3    H274244   5.791   0.612   3.827
17585TIP3   OH274245   7.215   1.697   4.851
17585TIP3    H174246   7.199   1.767   4.784
17585TIP3    H274247   7.309   1.707   4.871
17586TIP3   OH274248   5.943   0.125   4.732
17586TIP3    H174249   5.941   0.115   4.634
17586TIP3    H274250   5.926   0.032   4.755
17587TIP3   OH274251   5.857   1.502   4.344
17587TIP3    H174252   5.772   1.549   4.342
17587TIP3    H274253   5.907   1.552   4.277
17588TIP3   OH274254   5.786   1.765   5.470
17588TIP3    H174255   5.837   1.746   5.550
17588TIP3    H274256   5.736   1.684   5.456
17589TIP3   OH274257   6.241   1.658   5.635
17589TIP3    H174258   6.321   1.613   5.667
17589TIP3    H274259   6.242   1.634   5.540
17590TIP3   OH274260   6.657   1.611   3.774
17590TIP3    H174261   6.589   1.545   3.801
17590TIP3    H274262   6.730   1.552   3.750
17591TIP3   OH274263   6.897   1.495   5.509
17591TIP3    H174264   6.869   1.407   5.533
17591TIP3    H274265   6.974   1.514   5.567
17592TIP3   OH274266   7.112   1.588   3.796
17592TIP3    H174267   7.141   1.509   3.842
17592TIP3    H274268   7.188   1.610   3.739
17593TIP3   OH274269   5.769   1.145   5.575
17593TIP3    H174270   5.789   1.056   5.540
17593TIP3    H274271   5.697   1.174   5.517
17594TIP3   OH274272   6.204   1.180   3.778
17594TIP3    H174273   6.217   1.102   3.834
17594TIP3    H274274   6.277   1.168   3.714
17595TIP3   OH274275   6.447   1.145   5.511
17595TIP3    H174276   6.406   1.174   5.427
17595TIP3    H274277   6.447   1.046   5.502
17596TIP3   OH274278   6.746   1.289   3.754
17596TIP3    H174279   6.718   1.300   3.846
17596TIP3    H274280   6.725   1.193   3.741
17597TIP3   OH274281   7.010   1.129   5.249
17597TIP3    H174282   7.088   1.189   5.239
17597TIP3    H274283   6.940   1.196   5.255
17598TIP3   OH274284   5.856   0.867   5.510
17598TIP3    H174285   5.902   0.782   5.501
17598TIP3    H274286   5.835   0.868   5.605
17599TIP3   OH274287   6.324   0.980   4.016
17599TIP3    H174288   6.275   0.928   4.081
17599TIP3    H274289   6.352   0.912   3.951
17600TIP3   OH274290   6.251   0.764   5.249
17600TIP3    H174291   6.191   0.835   5.275
17600TIP3    H274292   6.288   0.799   5.166
17601TIP3   OH274293   6.431   0.803   3.839
17601TIP3    H174294   6.415   0.792   3.743
17601TIP3    H274295   6.528   0.810   3.844
17602TIP3   OH274296   6.291   0.501   5.357
17602TIP3    H174297   6.302   0.429   5.293
17602TIP3    H274298   6.287   0.580   5.299
17603TIP3   OH274299   6.330   0.339   5.107
17603TIP3    H174300   6.383   0.386   5.038
17603TIP3    H274301   6.241   0.328   5.065
17604TIP3   OH274302   6.486   0.885   5.132
17604TIP3    H174303   6.561   0.869   5.074
17604TIP3    H274304   6.450   0.969   5.099
17605TIP3   OH274305   6.926   0.665   5.634
17605TIP3    H174306   6.950   0.572   5.618
17605TIP3    H274307   7.014   0.705   5.627
17606TIP3   OH274308   7.056   0.941   5.442
17606TIP3    H174309   7.035   1.014   5.382
17606TIP3    H274310   7.153   0.936   5.428
17607TIP3   OH274311   6.134   0.625   5.545
17607TIP3    H174312   6.058   0.567   5.528
17607TIP3    H274313   6.202   0.589   5.486
17608TIP3   OH274314   6.401   0.095   5.165
17608TIP3    H174315   6.394   0.190   5.140
17608TIP3    H274316   6.337   0.054   5.104
17609TIP3   OH274317   6.535   0.516   5.508
17609TIP3    H174318   6.508   0.492   5.599
17609TIP3    H274319   6.456   0.496   5.455
17610TIP3   OH274320   6.801   0.430   5.413
17610TIP3    H174321   6.707   0.433   5.433
17610TIP3    H274322   6.840   0.370   5.482
17611TIP3   OH274323   6.952   0.286   5.626
17611TIP3    H174324   6.956   0.189   5.617
17611TIP3    H274325   6.931   0.316   5.712
17612TIP3   OH274326   5.948   0.416   5.517
17612TIP3    H174327   5.973   0.343   5.459
17612TIP3    H274328   5.942   0.371   5.603
17613TIP3   OH274329   6.429   7.357   5.415
17613TIP3    H174330   6.500   7.293   5.419
17613TIP3    H274331   6.421   7.383   5.321
17614TIP3   OH274332   6.467   0.183   5.622
17614TIP3    H174333   6.453   0.132   5.541
17614TIP3    H274334   6.408   0.260   5.617
17615TIP3   OH274335   6.416   1.872   3.944
17615TIP3    H174336   6.512   1.884   3.952
17615TIP3    H274337   6.398   1.936   3.874
17616TIP3   OH274338   5.772   1.333   3.891
17616TIP3    H174339   5.868   1.341   3.912
17616TIP3    H274340   5.777   1.266   3.819
17617TIP3   OH274341   5.647   1.871   4.391
17617TIP3    H174342   5.576   1.823   4.343
17617TIP3    H274343   5.677   1.805   4.455
17618TIP3   OH274344   5.730   1.683   4.576
17618TIP3    H174345   5.695   1.595   4.596
17618TIP3    H274346   5.753   1.716   4.665
17619TIP3   OH274347   7.268   1.312   5.617
17619TIP3    H174348   7.197   1.286   5.674
17619TIP3    H274349   7.324   1.368   5.674
17620TIP3   OH274350   7.282   1.491   5.093
17620TIP3    H174351   7.216   1.531   5.150
17620TIP3    H274352   7.229   1.453   5.019
17621TIP3   OH274353   7.312   0.639   3.859
17621TIP3    H174354   7.304   0.702   3.787
17621TIP3    H274355   7.296   0.555   3.810
17622TIP3   OH274356   7.204   0.788   4.421
17622TIP3    H174357   7.216   0.692   4.424
17622TIP3    H274358   7.197   0.809   4.516
17623TIP3   OH274359   5.736   0.990   4.825
17623TIP3    H174360   5.755   0.982   4.729
17623TIP3    H274361   5.825   0.975   4.862
17624TIP3   OH274362  -0.030   0.986   5.415
17624TIP3    H174363   0.025   0.907   5.410
17624TIP3    H274364   0.029   1.056   5.385
17625TIP3   OH274365   7.246   0.391   3.772
17625TIP3    H174366   7.302   0.341   3.832
17625TIP3    H274367   7.160   0.344   3.784
17626TIP3   OH274368   7.201   0.538   4.256
17626TIP3    H174369   7.231   0.449   4.285
17626TIP3    H274370   7.281   0.578   4.225
17627TIP3   OH274371   7.227   0.548   4.799
17627TIP3    H174372   7.323   0.563   4.790
17627TIP3    H274373   7.231   0.596   4.885
17628TIP3   OH274374   7.270   0.669   5.093
17628TIP3    H174375   7.183   0.698   5.125
17628TIP3    H274376   7.312   0.750   5.063
17629TIP3   OH274377   5.696   0.520   5.436
17629TIP3    H174378   5.790   0.501   5.459
17629TIP3    H274379   5.652   0.440   5.471
17630TIP3   OH274380   7.192   0.251   4.320
17630TIP3    H174381   7.277   0.220   4.356
17630TIP3    H274382   7.194   0.202   4.235
17631TIP3   OH274383   5.815   0.351   4.725
17631TIP3    H174384   5.863   0.270   4.753
17631TIP3    H274385   5.870   0.418   4.766
17632TIP3   OH274386   5.646   0.648   4.831
17632TIP3    H174387   5.702   0.626   4.753
17632TIP3    H274388   5.690   0.731   4.858
17633TIP3   OH274389   5.685   0.273   4.238
17633TIP3    H174390   5.590   0.293   4.224
17633TIP3    H274391   5.725   0.324   4.166
17634TIP3   OH274392   7.145   1.759   4.438
17634TIP3    H174393   7.211   1.728   4.375
17634TIP3    H274394   7.200   1.817   4.495
17635TIP3   OH274395   5.678   0.145   5.069
17635TIP3    H174396   5.611   0.124   5.135
17635TIP3    H274397   5.632   0.209   5.012
17636TIP3   OH274398   5.897   1.465   5.486
17636TIP3    H174399   5.814   1.483   5.440
17636TIP3    H274400   5.871   1.456   5.577
17637TIP3   OH274401   6.191   1.561   5.111
17637TIP3    H174402   6.155   1.646   5.083
17637TIP3    H274403   6.283   1.571   5.081
17638TIP3   OH274404   6.624   1.699   5.402
17638TIP3    H174405   6.641   1.672   5.495
17638TIP3    H274406   6.712   1.735   5.376
17639TIP3   OH274407   6.855   1.832   5.332
17639TIP3    H174408   6.928   1.770   5.310
17639TIP3    H274409   6.891   1.873   5.413
17640TIP3   OH274410   5.934   1.886   5.112
17640TIP3    H174411   5.860   1.934   5.072
17640TIP3    H274412   5.900   1.865   5.201
17641TIP3   OH274413   6.181   1.844   5.019
17641TIP3    H174414   6.091   1.857   5.059
17641TIP3    H274415   6.174   1.902   4.941
17642TIP3   OH274416   6.651   1.835   4.936
17642TIP3    H174417   6.604   1.890   4.871
17642TIP3    H274418   6.665   1.898   5.009
17643TIP3   OH274419   6.882   1.718   5.036
17643TIP3    H174420   6.794   1.742   5.003
17643TIP3    H274421   6.926   1.805   5.027
17644TIP3   OH274422   7.137   1.878   5.063
17644TIP3    H174423   7.127   1.973   5.039
17644TIP3    H274424   7.161   1.838   4.977
17645TIP3   OH274425   5.877   1.751   4.805
17645TIP3    H174426   5.871   1.705   4.892
17645TIP3    H274427   5.959   1.715   4.766
17646TIP3   OH274428   6.087   1.622   4.671
17646TIP3    H174429   6.069   1.529   4.692
17646TIP3    H274430   6.172   1.636   4.717
17647TIP3   OH274431   6.343   1.670   4.757
17647TIP3    H174432   6.363   1.579   4.730
17647TIP3    H274433   6.350   1.664   4.854
17648TIP3   OH274434   6.691   0.241   4.670
17648TIP3    H174435   6.627   0.172   4.699
17648TIP3    H274436   6.751   0.187   4.616
17649TIP3   OH274437   7.199   0.049   4.692
17649TIP3    H174438   7.263   0.094   4.634
17649TIP3    H274439   7.114   0.078   4.656
17650TIP3   OH274440   5.933   0.102   4.446
17650TIP3    H174441   5.847   0.075   4.407
17650TIP3    H274442   5.973   0.015   4.459
17651TIP3   OH274443   5.784   0.117   3.978
17651TIP3    H174444   5.869   0.161   3.969
17651TIP3    H274445   5.751   0.141   4.066
17652TIP3   OH274446   6.405   0.130   4.467
17652TIP3    H174447   6.499   0.131   4.442
17652TIP3    H274448   6.389   0.065   4.537
17653TIP3   OH274449   6.932   0.113   4.603
17653TIP3    H174450   6.944   0.113   4.508
17653TIP3    H274451   6.918   0.015   4.615
17654TIP3   OH274452   7.068   0.092   4.162
17654TIP3    H174453   6.998   0.158   4.149
17654TIP3    H274454   7.025   0.009   4.185
17655TIP3   OH274455   5.799   1.669   4.129
17655TIP3    H174456   5.732   1.668   4.059
17655TIP3    H274457   5.798   1.764   4.150
17656TIP3   OH274458   5.991   0.269   3.878
17656TIP3    H174459   6.044   0.207   3.824
17656TIP3    H274460   6.057   0.300   3.943
17657TIP3   OH274461   6.488   0.293   4.123
17657TIP3    H174462   6.519   0.235   4.194
17657TIP3    H274463   6.496   0.380   4.169
17658TIP3   OH274464   6.685   1.797   3.966
17658TIP3    H174465   6.775   1.825   3.944
17658TIP3    H274466   6.663   1.748   3.884
17659TIP3   OH274467   5.913   0.152   5.398
17659TIP3    H174468   5.882   0.074   5.445
17659TIP3    H274469   6.006   0.150   5.433
17660TIP3   OH274470   6.101   0.102   5.552
17660TIP3    H174471   6.195   0.075   5.543
17660TIP3    H274472   6.082   0.020   5.601
17661TIP3   OH274473   5.979   1.766   3.826
17661TIP3    H174474   5.953   1.793   3.915
17661TIP3    H274475   6.057   1.710   3.842
17662TIP3   OH274476   6.953   7.382   5.574
17662TIP3    H174477   6.962   7.323   5.652
17662TIP3    H274478   7.042   7.365   5.539
17663TIP3   OH274479   7.274   1.619   5.452
17663TIP3    H174480   7.199   1.609   5.392
17663TIP3    H274481   7.266   1.717   5.466
17664TIP3   OH274482   1.180   2.897   4.445
17664TIP3    H174483   1.182   2.995   4.438
17664TIP3    H274484   1.110   2.873   4.383
17665TIP3   OH274485   1.068   2.824   4.794
17665TIP3    H174486   1.065   2.758   4.863
17665TIP3    H274487   1.035   2.775   4.717
17666TIP3   OH274488   0.306   2.788   4.947
17666TIP3    H174489   0.312   2.723   5.020
17666TIP3    H274490   0.377   2.848   4.971
17667TIP3   OH274491   1.438   3.118   4.621
17667TIP3    H174492   1.395   3.047   4.669
17667TIP3    H274493   1.439   3.189   4.687
17668TIP3   OH274494   0.394   3.235   4.798
17668TIP3    H174495   0.362   3.148   4.768
17668TIP3    H274496   0.489   3.215   4.807
17669TIP3   OH274497   0.079   2.594   4.324
17669TIP3    H174498   0.025   2.673   4.347
17669TIP3    H274499   0.007   2.539   4.300
17670TIP3   OH274500   0.129   2.811   4.557
17670TIP3    H174501   0.154   2.733   4.609
17670TIP3    H274502   0.203   2.822   4.496
17671TIP3   OH274503   1.149   3.633   4.645
17671TIP3    H174504   1.213   3.563   4.616
17671TIP3    H274505   1.129   3.602   4.733
17672TIP3   OH274506   0.905   3.065   4.837
17672TIP3    H174507   0.940   3.000   4.774
17672TIP3    H274508   0.983   3.079   4.892
17673TIP3   OH274509   1.768   2.228   4.914
17673TIP3    H174510   1.782   2.289   4.990
17673TIP3    H274511   1.821   2.272   4.846
17674TIP3   OH274512   1.222   2.510   4.870
17674TIP3    H174513   1.237   2.414   4.869
17674TIP3    H274514   1.212   2.525   4.774
17675TIP3   OH274515   0.536   2.318   4.594
17675TIP3    H174516   0.543   2.402   4.546
17675TIP3    H274517   0.493   2.261   4.525
17676TIP3   OH274518   1.307   2.328   4.430
17676TIP3    H174519   1.374   2.296   4.496
17676TIP3    H274520   1.363   2.384   4.374
17677TIP3   OH274521   0.199   2.557   4.661
17677TIP3    H174522   0.266   2.505   4.710
17677TIP3    H274523   0.208   2.526   4.572
17678TIP3   OH274524   0.713   2.715   4.595
17678TIP3    H174525   0.778   2.657   4.639
17678TIP3    H274526   0.659   2.648   4.548
17679TIP3   OH274527   1.812   2.373   5.141
17679TIP3    H174528   1.746   2.445   5.131
17679TIP3    H274529   1.814   2.359   5.237
17680TIP3   OH274530   0.423   2.207   4.996
17680TIP3    H174531   0.396   2.265   4.922
17680TIP3    H274532   0.355   2.231   5.064
17681TIP3   OH274533   1.154   3.158   4.352
17681TIP3    H174534   1.126   3.128   4.265
17681TIP3    H274535   1.122   3.250   4.357
17682TIP3   OH274536   0.677   2.973   5.022
17682TIP3    H174537   0.603   3.036   5.044
17682TIP3    H274538   0.746   3.035   4.996
17683TIP3   OH274539   1.486   2.261   4.629
17683TIP3    H174540   1.466   2.184   4.683
17683TIP3    H274541   1.554   2.305   4.683
17684TIP3   OH274542   0.378   2.393   4.799
17684TIP3    H174543   0.440   2.462   4.832
17684TIP3    H274544   0.433   2.352   4.727
17685TIP3   OH274545   0.517   3.181   5.077
17685TIP3    H174546   0.513   3.276   5.067
17685TIP3    H274547   0.445   3.163   5.143
17686TIP3   OH274548   0.128   3.140   4.181
17686TIP3    H174549   0.103   3.167   4.092
17686TIP3    H274550   0.134   3.222   4.232
17687TIP3   OH274551   1.490   3.301   4.860
17687TIP3    H174552   1.393   3.312   4.870
17687TIP3    H274553   1.517   3.393   4.840
17688TIP3   OH274554   1.521   2.131   4.997
17688TIP3    H174555   1.448   2.194   4.990
17688TIP3    H274556   1.592   2.172   4.945
17689TIP3   OH274557   0.820   1.941   4.743
17689TIP3    H174558   0.807   1.845   4.737
17689TIP3    H274559   0.732   1.972   4.773
17690TIP3   OH274560   1.315   3.480   4.518
17690TIP3    H174561   1.359   3.408   4.467
17690TIP3    H274562   1.354   3.560   4.477
17691TIP3   OH274563   1.435   3.273   4.369
17691TIP3    H174564   1.406   3.202   4.309
17691TIP3    H274565   1.439   3.224   4.453
17692TIP3   OH274566   1.596   3.131   5.218
17692TIP3    H174567   1.612   3.067   5.146
17692TIP3    H274568   1.619   3.216   5.177
17693TIP3   OH274569   1.048   2.822   4.196
17693TIP3    H174570   0.978   2.878   4.159
17693TIP3    H274571   1.118   2.830   4.128
17694TIP3   OH274572   1.054   2.675   3.897
17694TIP3    H174573   1.125   2.674   3.962
17694TIP3    H274574   1.086   2.606   3.836
17695TIP3   OH274575   1.786   2.762   5.024
17695TIP3    H174576   1.720   2.834   5.029
17695TIP3    H274577   1.834   2.785   4.943
17696TIP3   OH274578   1.392   2.843   4.287
17696TIP3    H174579   1.317   2.867   4.347
17696TIP3    H274580   1.437   2.774   4.338
17697TIP3   OH274581   1.383   2.658   5.198
17697TIP3    H174582   1.389   2.738   5.251
17697TIP3    H274583   1.320   2.689   5.129
17698TIP3   OH274584   0.555   2.909   4.478
17698TIP3    H174585   0.520   2.869   4.395
17698TIP3    H274586   0.615   2.839   4.512
17699TIP3   OH274587   0.687   3.249   4.746
17699TIP3    H174588   0.683   3.193   4.668
17699TIP3    H274589   0.764   3.212   4.793
17700TIP3   OH274590   0.589   2.782   4.842
17700TIP3    H174591   0.645   2.795   4.764
17700TIP3    H274592   0.623   2.850   4.906
17701TIP3   OH274593   1.226   3.339   4.915
17701TIP3    H174594   1.197   3.403   4.980
17701TIP3    H274595   1.201   3.253   4.957
17702TIP3   OH274596   0.694   3.239   5.307
17702TIP3    H174597   0.643   3.300   5.362
17702TIP3    H274598   0.618   3.203   5.252
17703TIP3   OH274599   1.278   2.761   4.055
17703TIP3    H174600   1.335   2.778   4.134
17703TIP3    H274601   1.322   2.811   3.982
17704TIP3   OH274602   0.360   2.813   5.235
17704TIP3    H174603   0.382   2.889   5.295
17704TIP3    H274604   0.279   2.851   5.199
17705TIP3   OH274605   1.050   3.434   4.401
17705TIP3    H174606   1.095   3.465   4.480
17705TIP3    H274607   0.994   3.509   4.377
17706TIP3   OH274608   0.504   3.431   5.389
17706TIP3    H174609   0.502   3.418   5.292
17706TIP3    H274610   0.412   3.416   5.412
17707TIP3   OH274611   1.651   1.935   4.041
17707TIP3    H174612   1.557   1.948   4.068
17707TIP3    H274613   1.672   2.019   3.999
17708TIP3   OH274614   0.452   2.811   4.239
17708TIP3    H174615   0.423   2.890   4.188
17708TIP3    H274616   0.385   2.746   4.218
17709TIP3   OH274617   1.764   3.371   3.876
17709TIP3    H174618   1.777   3.465   3.896
17709TIP3    H274619   1.856   3.340   3.877
17710TIP3   OH274620   0.097   3.044   5.106
17710TIP3    H174621   0.024   3.048   5.042
17710TIP3    H274622   0.070   2.960   5.149
17711TIP3   OH274623   0.047   3.337   4.796
17711TIP3    H174624   0.139   3.312   4.808
17711TIP3    H274625   0.031   3.404   4.863
17712TIP3   OH274626   1.854   3.400   5.367
17712TIP3    H174627   1.853   3.303   5.376
17712TIP3    H274628   1.772   3.422   5.417
17713TIP3   OH274629   0.954   3.349   5.263
17713TIP3    H174630   0.963   3.435   5.311
17713TIP3    H274631   0.864   3.319   5.286
17714TIP3   OH274632   0.998   3.726   4.242
17714TIP3    H174633   0.988   3.717   4.146
17714TIP3    H274634   0.999   3.823   4.256
17715TIP3   OH274635   0.363   3.613   4.422
17715TIP3    H174636   0.377   3.572   4.510
17715TIP3    H274637   0.279   3.572   4.397
17716TIP3   OH274638   1.305   3.647   3.941
17716TIP3    H174639   1.348   3.570   3.896
17716TIP3    H274640   1.308   3.619   4.035
17717TIP3   OH274641   1.274   3.640   4.217
17717TIP3    H174642   1.178   3.647   4.236
17717TIP3    H274643   1.299   3.566   4.276
17718TIP3   OH274644   1.570   2.542   5.423
17718TIP3    H174645   1.530   2.592   5.350
17718TIP3    H274646   1.575   2.452   5.390
17719TIP3   OH274647   0.264   3.212   5.225
17719TIP3    H174648   0.307   3.157   5.294
17719TIP3    H274649   0.197   3.146   5.195
17720TIP3   OH274650   0.555   2.031   4.819
17720TIP3    H174651   0.465   2.021   4.782
17720TIP3    H274652   0.544   2.116   4.866
17721TIP3   OH274653   1.019   2.000   5.157
17721TIP3    H174654   1.057   1.960   5.235
17721TIP3    H274655   0.922   1.986   5.169
17722TIP3   OH274656   1.348   2.380   5.244
17722TIP3    H174657   1.293   2.364   5.324
17722TIP3    H274658   1.332   2.473   5.221
17723TIP3   OH274659   1.424   2.865   3.829
17723TIP3    H174660   1.425   2.844   3.733
17723TIP3    H274661   1.510   2.908   3.839
17724TIP3   OH274662   0.984   2.256   3.886
17724TIP3    H174663   0.953   2.251   3.978
17724TIP3    H274664   0.953   2.168   3.856
17725TIP3   OH274665   0.564   2.528   4.939
17725TIP3    H174666   0.492   2.526   5.006
17725TIP3    H274667   0.559   2.622   4.909
17726TIP3   OH274668   0.561   2.544   4.428
17726TIP3    H174669   0.468   2.516   4.417
17726TIP3    H274670   0.601   2.512   4.346
17727TIP3   OH274671   1.113   2.591   4.308
17727TIP3    H174672   1.073   2.673   4.272
17727TIP3    H274673   1.183   2.576   4.242
17728TIP3   OH274674   1.022   2.614   5.450
17728TIP3    H174675   0.965   2.540   5.483
17728TIP3    H274676   1.102   2.597   5.501
17729TIP3   OH274677   1.216   2.539   4.591
17729TIP3    H174678   1.190   2.596   4.516
17729TIP3    H274679   1.228   2.454   4.543
17730TIP3   OH274680   0.332   2.554   5.114
17730TIP3    H174681   0.333   2.598   5.202
17730TIP3    H274682   0.283   2.472   5.130
17731TIP3   OH274683   0.667   2.295   3.797
17731TIP3    H174684   0.623   2.252   3.873
17731TIP3    H274685   0.596   2.336   3.748
17732TIP3   OH274686   0.012   2.283   4.498
17732TIP3    H174687   0.061   2.262   4.579
17732TIP3    H274688   0.044   2.223   4.431
17733TIP3   OH274689   0.119   2.345   4.043
17733TIP3    H174690   0.172   2.405   3.987
17733TIP3    H274691   0.049   2.403   4.074
17734TIP3   OH274692   1.139   2.700   5.050
17734TIP3    H174693   1.173   2.632   4.989
17734TIP3    H274694   1.092   2.645   5.116
17735TIP3   OH274695   0.817   2.295   4.531
17735TIP3    H174696   0.724   2.297   4.561
17735TIP3    H274697   0.866   2.282   4.613
17736TIP3   OH274698   0.303   2.453   4.415
17736TIP3    H174699   0.213   2.467   4.380
17736TIP3    H274700   0.327   2.367   4.377
17737TIP3   OH274701   0.663   2.455   4.180
17737TIP3    H174702   0.759   2.467   4.197
17737TIP3    H274703   0.640   2.524   4.114
17738TIP3   OH274704   1.258   2.218   4.856
17738TIP3    H174705   1.189   2.227   4.924
17738TIP3    H274706   1.207   2.196   4.776
17739TIP3   OH274707   0.534   2.574   3.938
17739TIP3    H174708   0.479   2.536   3.866
17739TIP3    H274709   0.616   2.594   3.892
17740TIP3   OH274710   1.578   3.787   5.488
17740TIP3    H174711   1.608   3.824   5.403
17740TIP3    H274712   1.650   3.812   5.549
17741TIP3   OH274713   0.332   2.999   5.537
17741TIP3    H174714   0.409   3.050   5.504
17741TIP3    H274715   0.260   3.056   5.506
17742TIP3   OH274716   0.946   2.571   4.720
17742TIP3    H174717   1.005   2.518   4.666
17742TIP3    H274718   0.932   2.517   4.799
17743TIP3   OH274719   0.447   2.187   4.363
17743TIP3    H174720   0.416   2.094   4.360
17743TIP3    H274721   0.527   2.181   4.308
17744TIP3   OH274722   0.810   2.406   4.961
17744TIP3    H174723   0.727   2.456   4.972
17744TIP3    H274724   0.864   2.439   5.036
17745TIP3   OH274725   0.869   3.028   4.131
17745TIP3    H174726   0.789   2.980   4.098
17745TIP3    H274727   0.848   3.037   4.226
17746TIP3   OH274728   1.583   2.947   5.012
17746TIP3    H174729   1.644   2.992   4.950
17746TIP3    H274730   1.499   2.954   4.962
17747TIP3   OH274731   1.253   2.310   3.949
17747TIP3    H174732   1.157   2.324   3.935
17747TIP3    H274733   1.285   2.396   3.983
17748TIP3   OH274734   1.025   3.054   5.259
17748TIP3    H174735   0.977   3.010   5.329
17748TIP3    H274736   0.991   3.145   5.260
17749TIP3   OH274737   1.325   2.499   4.113
17749TIP3    H174738   1.415   2.486   4.151
17749TIP3    H274739   1.334   2.581   4.061
17750TIP3   OH274740   0.380   2.965   4.710
17750TIP3    H174741   0.449   2.958   4.643
17750TIP3    H274742   0.386   2.880   4.757
17751TIP3   OH274743   1.079   3.175   4.034
17751TIP3    H174744   1.045   3.259   4.071
17751TIP3    H274745   1.005   3.113   4.055
17752TIP3   OH274746   0.099   2.788   5.214
17752TIP3    H174747   0.108   2.767   5.308
17752TIP3    H274748   0.016   2.744   5.193
17753TIP3   OH274749   0.783   2.767   5.456
17753TIP3    H174750   0.748   2.737   5.371
17753TIP3    H274751   0.871   2.729   5.456
17754TIP3   OH274752   1.816   2.515   4.088
17754TIP3    H174753   1.759   2.484   4.016
17754TIP3    H274754   1.823   2.609   4.061
17755TIP3   OH274755   1.814   3.094   5.369
17755TIP3    H174756   1.726   3.123   5.334
17755TIP3    H274757   1.870   3.099   5.290
17756TIP3   OH274758   1.642   3.398   4.130
17756TIP3    H174759   1.607   3.314   4.164
17756TIP3    H274760   1.674   3.377   4.041
17757TIP3   OH274761   1.363   2.880   4.840
17757TIP3    H174762   1.269   2.857   4.829
17757TIP3    H274763   1.407   2.803   4.799
17758TIP3   OH274764   0.616   3.312   4.450
17758TIP3    H174765   0.667   3.391   4.428
17758TIP3    H274766   0.528   3.335   4.417
17759TIP3   OH274767   0.187   2.795   3.910
17759TIP3    H174768   0.252   2.861   3.945
17759TIP3    H274769   0.103   2.831   3.936
17760TIP3   OH274770   0.759   3.078   4.402
17760TIP3    H174771   0.729   3.171   4.411
17760TIP3    H274772   0.685   3.030   4.446
17761TIP3   OH274773   0.805   3.496   5.039
17761TIP3    H174774   0.848   3.579   5.014
17761TIP3    H274775   0.864   3.463   5.109
17762TIP3   OH274776   0.626   3.578   4.356
17762TIP3    H174777   0.529   3.592   4.367
17762TIP3    H274778   0.662   3.662   4.391
17763TIP3   OH274779   1.162   3.100   5.007
17763TIP3    H174780   1.121   3.078   5.092
17763TIP3    H274781   1.221   3.026   4.988
17764TIP3   OH274782   1.388   3.202   3.913
17764TIP3    H174783   1.418   3.157   3.994
17764TIP3    H274784   1.292   3.186   3.923
17765TIP3   OH274785   1.433   3.556   5.256
17765TIP3    H174786   1.368   3.506   5.204
17765TIP3    H274787   1.456   3.624   5.189
17766TIP3   OH274788   1.836   3.640   3.935
17766TIP3    H174789   1.905   3.707   3.921
17766TIP3    H274790   1.764   3.700   3.967
17767TIP3   OH274791   0.243   2.282   5.192
17767TIP3    H174792   0.153   2.314   5.188
17767TIP3    H274793   0.232   2.195   5.237
17768TIP3   OH274794   1.467   3.067   4.136
17768TIP3    H174795   1.443   2.989   4.192
17768TIP3    H274796   1.562   3.073   4.156
17769TIP3   OH274797   0.210   3.464   5.033
17769TIP3    H174798   0.230   3.369   5.035
17769TIP3    H274799   0.230   3.487   5.124
17770TIP3   OH274800   0.799   3.311   3.761
17770TIP3    H174801   0.814   3.233   3.704
17770TIP3    H274802   0.761   3.267   3.840
17771TIP3   OH274803   0.682   3.264   4.006
17771TIP3    H174804   0.704   3.212   4.085
17771TIP3    H274805   0.686   3.357   4.038
17772TIP3   OH274806   0.331   2.988   4.054
17772TIP3    H174807   0.263   3.027   4.113
17772TIP3    H274808   0.384   3.066   4.029
17773TIP3   OH274809   1.116   2.257   5.086
17773TIP3    H174810   1.187   2.263   5.151
17773TIP3    H274811   1.078   2.169   5.104
17774TIP3   OH274812   1.192   2.216   4.196
17774TIP3    H174813   1.215   2.264   4.113
17774TIP3    H274814   1.249   2.259   4.260
17775TIP3   OH274815   0.960   3.431   4.079
17775TIP3    H174816   0.878   3.484   4.085
17775TIP3    H274817   1.013   3.484   4.017
17776TIP3   OH274818   0.914   2.391   4.278
17776TIP3    H174819   0.994   2.447   4.283
17776TIP3    H274820   0.888   2.378   4.371
17777TIP3   OH274821   0.971   2.494   5.194
17777TIP3    H174822   0.977   2.549   5.274
17777TIP3    H274823   1.034   2.422   5.207
17778TIP3   OH274824   1.000   2.097   4.369
17778TIP3    H174825   0.967   2.162   4.434
17778TIP3    H274826   1.068   2.151   4.323
17779TIP3   OH274827   0.698   3.535   4.079
17779TIP3    H174828   0.709   3.617   4.026
17779TIP3    H274829   0.673   3.571   4.167
17780TIP3   OH274830   0.566   2.206   4.038
17780TIP3    H174831   0.560   2.296   4.076
17780TIP3    H274832   0.657   2.182   4.064
17781TIP3   OH274833   1.588   2.280   5.283
17781TIP3    H174834   1.495   2.309   5.269
17781TIP3    H274835   1.618   2.278   5.191
17782TIP3   OH274836   1.448   2.658   4.685
17782TIP3    H174837   1.366   2.615   4.656
17782TIP3    H274838   1.495   2.589   4.736
17783TIP3   OH274839   0.389   3.250   3.944
17783TIP3    H174840   0.454   3.316   3.973
17783TIP3    H274841   0.441   3.205   3.874
17784TIP3   OH274842   0.229   2.517   3.853
17784TIP3    H174843   0.224   2.612   3.878
17784TIP3    H274844   0.137   2.497   3.830
17785TIP3   OH274845   1.554   3.584   4.851
17785TIP3    H174846   1.544   3.652   4.783
17785TIP3    H274847   1.650   3.590   4.870
17786TIP3   OH274848   0.303   1.997   4.728
17786TIP3    H174849   0.284   1.999   4.632
17786TIP3    H274850   0.261   1.913   4.756
17787TIP3   OH274851   0.202   3.388   4.345
17787TIP3    H174852   0.117   3.433   4.342
17787TIP3    H274853   0.250   3.439   4.278
17788TIP3   OH274854   0.137   3.652   5.471
17788TIP3    H174855   0.184   3.625   5.549
17788TIP3    H274856   0.080   3.572   5.454
17789TIP3   OH274857   0.586   3.545   5.636
17789TIP3    H174858   0.663   3.493   5.666
17789TIP3    H274859   0.584   3.517   5.541
17790TIP3   OH274860   1.000   3.496   3.774
17790TIP3    H174861   0.932   3.430   3.801
17790TIP3    H274862   1.073   3.438   3.750
17791TIP3   OH274863   1.457   3.472   3.794
17791TIP3    H174864   1.487   3.394   3.843
17791TIP3    H274865   1.533   3.496   3.739
17792TIP3   OH274866   0.099   3.024   5.578
17792TIP3    H174867   0.133   2.941   5.541
17792TIP3    H274868   0.032   3.060   5.520
17793TIP3   OH274869   0.547   3.066   3.778
17793TIP3    H174870   0.560   2.988   3.834
17793TIP3    H274871   0.620   3.053   3.714
17794TIP3   OH274872   1.089   3.175   3.754
17794TIP3    H174873   1.061   3.186   3.846
17794TIP3    H274874   1.069   3.079   3.741
17795TIP3   OH274875   0.190   2.747   5.509
17795TIP3    H174876   0.246   2.668   5.500
17795TIP3    H274877   0.182   2.756   5.605
17796TIP3   OH274878   0.667   2.866   4.016
17796TIP3    H174879   0.618   2.813   4.081
17796TIP3    H274880   0.695   2.798   3.951
17797TIP3   OH274881   0.596   2.649   5.249
17797TIP3    H174882   0.535   2.721   5.273
17797TIP3    H274883   0.630   2.685   5.166
17798TIP3   OH274884   0.774   2.689   3.839
17798TIP3    H174885   0.758   2.677   3.743
17798TIP3    H274886   0.871   2.696   3.844
17799TIP3   OH274887   1.711   2.922   3.781
17799TIP3    H174888   1.687   2.882   3.696
17799TIP3    H274889   1.717   3.018   3.761
17800TIP3   OH274890   0.631   2.386   5.357
17800TIP3    H174891   0.643   2.315   5.292
17800TIP3    H274892   0.629   2.467   5.301
17801TIP3   OH274893   0.673   2.224   5.109
17801TIP3    H174894   0.725   2.270   5.040
17801TIP3    H274895   0.585   2.215   5.067
17802TIP3   OH274896   0.832   2.772   5.133
17802TIP3    H174897   0.904   2.755   5.072
17802TIP3    H274898   0.793   2.855   5.100
17803TIP3   OH274899   1.270   2.547   5.632
17803TIP3    H174900   1.293   2.455   5.619
17803TIP3    H274901   1.357   2.591   5.631
17804TIP3   OH274902   0.752   1.967   5.149
17804TIP3    H174903   0.737   2.064   5.140
17804TIP3    H274904   0.677   1.932   5.099
17805TIP3   OH274905   0.881   2.398   5.506
17805TIP3    H174906   0.848   2.381   5.597
17805TIP3    H274907   0.800   2.381   5.455
17806TIP3   OH274908   1.153   2.318   5.419
17806TIP3    H174909   1.055   2.319   5.427
17806TIP3    H274910   1.179   2.250   5.483
17807TIP3   OH274911   1.313   2.182   5.614
17807TIP3    H174912   1.307   2.084   5.611
17807TIP3    H274913   1.281   2.204   5.700
17808TIP3   OH274914   0.774   1.899   5.417
17808TIP3    H174915   0.848   1.838   5.412
17808TIP3    H274916   0.763   1.925   5.324
17809TIP3   OH274917   0.760   3.758   3.944
17809TIP3    H174918   0.856   3.770   3.952
17809TIP3    H274919   0.741   3.821   3.874
17810TIP3   OH274920   0.122   3.222   3.899
17810TIP3    H174921   0.219   3.228   3.913
17810TIP3    H274922   0.121   3.156   3.825
17811TIP3   OH274923   7.353   3.765   4.384
17811TIP3    H174924   7.271   3.732   4.343
17811TIP3    H274925   7.370   3.696   4.453
17812TIP3   OH274926   0.069   3.571   4.572
17812TIP3    H174927   0.040   3.481   4.595
17812TIP3    H274928   0.097   3.602   4.661
17813TIP3   OH274929   1.827   3.648   4.871
17813TIP3    H174930   1.829   3.666   4.967
17813TIP3    H274931   1.897   3.706   4.840
17814TIP3   OH274932   1.786   3.608   5.165
17814TIP3    H174933   1.737   3.531   5.128
17814TIP3    H274934   1.837   3.563   5.235
17815TIP3   OH274935   1.760   3.012   4.177
17815TIP3    H174936   1.846   3.052   4.194
17815TIP3    H274937   1.759   2.939   4.242
17816TIP3   OH274938   1.797   2.819   4.363
17816TIP3    H174939   1.723   2.769   4.403
17816TIP3    H274940   1.857   2.835   4.439
17817TIP3   OH274941   1.772   3.090   4.861
17817TIP3    H174942   1.855   3.054   4.826
17817TIP3    H274943   1.786   3.186   4.846
17818TIP3   OH274944   1.626   3.380   5.089
17818TIP3    H174945   1.558   3.415   5.149
17818TIP3    H274946   1.572   3.339   5.018
17819TIP3   OH274947   1.827   2.803   4.003
17819TIP3    H174948   1.771   2.839   3.931
17819TIP3    H274949   1.819   2.874   4.069
17820TIP3   OH274950   1.663   2.527   3.855
17820TIP3    H174951   1.671   2.594   3.786
17820TIP3    H274952   1.646   2.444   3.806
17821TIP3   OH274953   1.578   2.668   4.420
17821TIP3    H174954   1.563   2.572   4.417
17821TIP3    H274955   1.544   2.692   4.507
17822TIP3   OH274956   0.078   2.875   4.823
17822TIP3    H174957   0.097   2.870   4.727
17822TIP3    H274958   0.166   2.862   4.863
17823TIP3   OH274959   1.662   2.863   5.383
17823TIP3    H174960   1.721   2.790   5.406
17823TIP3    H274961   1.719   2.942   5.391
17824TIP3   OH274962   1.818   2.656   5.451
17824TIP3    H174963   1.728   2.617   5.437
17824TIP3    H274964   1.872   2.576   5.446
17825TIP3   OH274965   1.587   2.272   3.768
17825TIP3    H174966   1.647   2.230   3.833
17825TIP3    H274967   1.502   2.229   3.786
17826TIP3   OH274968   1.544   2.426   4.263
17826TIP3    H174969   1.576   2.334   4.278
17826TIP3    H274970   1.626   2.467   4.230
17827TIP3   OH274971   1.608   2.481   4.810
17827TIP3    H174972   1.704   2.504   4.808
17827TIP3    H274973   1.589   2.495   4.904
17828TIP3   OH274974   1.615   2.554   5.089
17828TIP3    H174975   1.528   2.584   5.122
17828TIP3    H274976   1.659   2.640   5.067
17829TIP3   OH274977   1.840   1.955   5.620
17829TIP3    H174978   1.878   1.890   5.562
17829TIP3    H274979   1.854   2.040   5.576
17830TIP3   OH274980   1.612   2.154   4.271
17830TIP3    H174981   1.632   2.109   4.355
17830TIP3    H274982   1.551   2.092   4.226
17831TIP3   OH274983   0.157   2.232   4.728
17831TIP3    H174984   0.209   2.153   4.754
17831TIP3    H274985   0.211   2.303   4.767
17832TIP3   OH274986   0.062   2.579   4.869
17832TIP3    H174987   0.059   2.544   4.777
17832TIP3    H274988   0.034   2.668   4.850
17833TIP3   OH274989   1.797   2.166   5.461
17833TIP3    H174990   1.703   2.193   5.453
17833TIP3    H274991   1.802   2.114   5.380
17834TIP3   OH274992   1.794   2.158   3.926
17834TIP3    H174993   1.836   2.087   3.874
17834TIP3    H274994   1.864   2.225   3.931
17835TIP3   OH274995   0.063   2.161   4.212
17835TIP3    H174996  -0.032   2.181   4.214
17835TIP3    H274997   0.090   2.227   4.147
17836TIP3   OH274998   1.500   3.656   4.432
17836TIP3    H174999   1.568   3.624   4.370
17836TIP3    H275000   1.552   3.706   4.497
17837TIP3   OH275001   7.378   2.027   5.078
17837TIP3    H175002   7.303   2.005   5.135
17837TIP3    H275003   7.326   2.085   5.019
17838TIP3   OH275004   0.535   3.449   5.112
17838TIP3    H175005   0.496   3.533   5.083
17838TIP3    H275006   0.628   3.456   5.082
17839TIP3   OH275007   0.967   3.587   5.405
17839TIP3    H175008   0.987   3.553   5.494
17839TIP3    H275009   1.055   3.618   5.376
17840TIP3   OH275010   1.195   3.716   5.335
17840TIP3    H175011   1.267   3.656   5.310
17840TIP3    H275012   1.234   3.760   5.413
17841TIP3   OH275013   1.698   1.979   5.239
17841TIP3    H175014   1.612   2.006   5.202
17841TIP3    H275015   1.713   1.896   5.189
17842TIP3   OH275016   0.278   3.772   5.115
17842TIP3    H175017   0.203   3.819   5.073
17842TIP3    H275018   0.240   3.751   5.201
17843TIP3   OH275019   0.525   3.731   5.019
17843TIP3    H175020   0.435   3.743   5.059
17843TIP3    H275021   0.518   3.789   4.941
17844TIP3   OH275022   0.994   3.721   4.937
17844TIP3    H175023   0.948   3.775   4.871
17844TIP3    H275024   1.008   3.784   5.010
17845TIP3   OH275025   1.225   3.604   5.035
17845TIP3    H175026   1.137   3.629   5.002
17845TIP3    H275027   1.270   3.690   5.026
17846TIP3   OH275028   1.484   3.760   5.062
17846TIP3    H175029   1.474   3.856   5.039
17846TIP3    H275030   1.504   3.724   4.973
17847TIP3   OH275031   0.218   3.637   4.804
17847TIP3    H175032   0.216   3.593   4.892
17847TIP3    H275033   0.300   3.600   4.766
17848TIP3   OH275034   0.430   3.507   4.670
17848TIP3    H175035   0.412   3.414   4.693
17848TIP3    H275036   0.515   3.521   4.717
17849TIP3   OH275037   0.689   3.556   4.758
17849TIP3    H175038   0.706   3.464   4.731
17849TIP3    H275039   0.693   3.549   4.854
17850TIP3   OH275040   1.036   2.121   4.673
17850TIP3    H175041   0.968   2.056   4.699
17850TIP3    H275042   1.091   2.069   4.613
17851TIP3   OH275043   1.550   1.927   4.681
17851TIP3    H175044   1.611   1.985   4.629
17851TIP3    H275045   1.462   1.962   4.657
17852TIP3   OH275046   1.718   2.049   4.509
17852TIP3    H175047   1.786   1.993   4.464
17852TIP3    H275048   1.765   2.134   4.518
17853TIP3   OH275049   0.270   1.983   4.457
17853TIP3    H175050   0.193   1.961   4.401
17853TIP3    H275051   0.322   1.900   4.450
17854TIP3   OH275052   0.188   1.970   4.043
17854TIP3    H175053   0.204   2.030   3.969
17854TIP3    H275054   0.106   2.006   4.082
17855TIP3   OH275055   0.722   1.976   4.435
17855TIP3    H175056   0.812   2.013   4.430
17855TIP3    H275057   0.716   1.955   4.528
17856TIP3   OH275058   1.289   1.978   4.599
17856TIP3    H175059   1.288   1.988   4.503
17856TIP3    H275060   1.253   1.887   4.612
17857TIP3   OH275061   1.419   1.982   4.167
17857TIP3    H175062   1.345   2.042   4.149
17857TIP3    H275063   1.374   1.896   4.187
17858TIP3   OH275064   0.154   3.562   4.121
17858TIP3    H175065   0.076   3.555   4.063
17858TIP3    H275066   0.142   3.653   4.151
17859TIP3   OH275067   0.335   2.155   3.878
17859TIP3    H175068   0.388   2.091   3.827
17859TIP3    H275069   0.399   2.183   3.945
17860TIP3   OH275070   0.837   2.179   4.121
17860TIP3    H175071   0.860   2.120   4.194
17860TIP3    H275072   0.840   2.265   4.169
17861TIP3   OH275073   1.028   3.682   3.965
17861TIP3    H175074   1.118   3.710   3.944
17861TIP3    H275075   1.006   3.633   3.883
17862TIP3   OH275076   1.700   3.635   4.236
17862TIP3    H175077   1.679   3.558   4.178
17862TIP3    H275078   1.693   3.710   4.172
17863TIP3   OH275079   0.258   2.040   5.405
17863TIP3    H175080   0.226   1.958   5.445
17863TIP3    H275081   0.351   2.036   5.435
17864TIP3   OH275082   0.462   1.973   5.562
17864TIP3    H175083   0.551   1.943   5.540
17864TIP3    H275084   0.424   1.895   5.605
17865TIP3   OH275085   0.321   3.651   3.825
17865TIP3    H175086   0.296   3.678   3.914
17865TIP3    H275087   0.400   3.597   3.842
17866TIP3   OH275088   1.626   3.511   5.442
17866TIP3    H175089   1.542   3.494   5.395
17866TIP3    H275090   1.613   3.603   5.470
17867TIP3   OH275091   3.066   2.897   4.445
17867TIP3    H175092   3.068   2.995   4.438
17867TIP3    H275093   2.995   2.873   4.383
17868TIP3   OH275094   2.953   2.824   4.793
17868TIP3    H175095   2.951   2.758   4.864
17868TIP3    H275096   2.920   2.774   4.716
17869TIP3   OH275097   2.188   2.790   4.951
17869TIP3    H175098   2.198   2.721   5.020
17869TIP3    H275099   2.264   2.848   4.969
17870TIP3   OH275100   3.323   3.118   4.621
17870TIP3    H175101   3.281   3.046   4.669
17870TIP3    H275102   3.324   3.189   4.687
17871TIP3   OH275103   2.282   3.234   4.801
17871TIP3    H175104   2.249   3.149   4.767
17871TIP3    H275105   2.377   3.215   4.805
17872TIP3   OH275106   1.946   2.592   4.346
17872TIP3    H175107   1.901   2.679   4.341
17872TIP3    H275108   1.889   2.538   4.291
17873TIP3   OH275109   2.016   2.814   4.560
17873TIP3    H175110   2.041   2.733   4.607
17873TIP3    H275111   2.088   2.823   4.495
17874TIP3   OH275112   3.034   3.633   4.644
17874TIP3    H175113   3.099   3.563   4.616
17874TIP3    H275114   3.014   3.602   4.733
17875TIP3   OH275115   2.791   3.065   4.837
17875TIP3    H175116   2.825   3.000   4.773
17875TIP3    H275117   2.870   3.079   4.892
17876TIP3   OH275118   3.653   2.228   4.914
17876TIP3    H175119   3.668   2.289   4.990
17876TIP3    H275120   3.706   2.272   4.846
17877TIP3   OH275121   3.107   2.510   4.870
17877TIP3    H175122   3.123   2.414   4.869
17877TIP3    H275123   3.097   2.525   4.774
17878TIP3   OH275124   2.420   2.318   4.593
17878TIP3    H175125   2.429   2.403   4.546
17878TIP3    H275126   2.378   2.261   4.525
17879TIP3   OH275127   3.193   2.328   4.430
17879TIP3    H175128   3.259   2.296   4.496
17879TIP3    H275129   3.249   2.384   4.374
17880TIP3   OH275130   2.082   2.559   4.667
17880TIP3    H175131   2.149   2.504   4.711
17880TIP3    H275132   2.091   2.529   4.576
17881TIP3   OH275133   2.598   2.715   4.595
17881TIP3    H175134   2.664   2.657   4.639
17881TIP3    H275135   2.545   2.648   4.548
17882TIP3   OH275136   3.696   2.371   5.140
17882TIP3    H175137   3.632   2.445   5.130
17882TIP3    H275138   3.699   2.359   5.235
17883TIP3   OH275139   2.308   2.207   4.996
17883TIP3    H175140   2.281   2.265   4.922
17883TIP3    H275141   2.240   2.232   5.064
17884TIP3   OH275142   3.040   3.158   4.352
17884TIP3    H175143   3.012   3.128   4.265
17884TIP3    H275144   3.008   3.250   4.357
17885TIP3   OH275145   2.562   2.973   5.023
17885TIP3    H175146   2.490   3.037   5.041
17885TIP3    H275147   2.632   3.033   4.994
17886TIP3   OH275148   3.372   2.261   4.629
17886TIP3    H175149   3.351   2.184   4.683
17886TIP3    H275150   3.440   2.305   4.684
17887TIP3   OH275151   2.264   2.395   4.798
17887TIP3    H175152   2.328   2.463   4.831
17887TIP3    H275153   2.317   2.352   4.727
17888TIP3   OH275154   2.406   3.172   5.103
17888TIP3    H175155   2.401   3.264   5.070
17888TIP3    H275156   2.318   3.166   5.148
17889TIP3   OH275157   2.014   3.136   4.184
17889TIP3    H175158   1.987   3.166   4.096
17889TIP3    H275159   2.020   3.220   4.233
17890TIP3   OH275160   3.376   3.301   4.858
17890TIP3    H175161   3.279   3.311   4.871
17890TIP3    H275162   3.402   3.393   4.839
17891TIP3   OH275163   3.407   2.130   4.998
17891TIP3    H175164   3.334   2.193   4.990
17891TIP3    H275165   3.477   2.172   4.944
17892TIP3   OH275166   2.706   1.941   4.743
17892TIP3    H175167   2.692   1.845   4.737
17892TIP3    H275168   2.618   1.972   4.773
17893TIP3   OH275169   3.201   3.480   4.518
17893TIP3    H175170   3.244   3.408   4.467
17893TIP3    H275171   3.240   3.560   4.477
17894TIP3   OH275172   3.321   3.273   4.369
17894TIP3    H175173   3.292   3.202   4.309
17894TIP3    H275174   3.325   3.224   4.453
17895TIP3   OH275175   3.486   3.131   5.218
17895TIP3    H175176   3.499   3.067   5.145
17895TIP3    H275177   3.503   3.217   5.175
17896TIP3   OH275178   2.934   2.822   4.196
17896TIP3    H175179   2.863   2.878   4.158
17896TIP3    H275180   3.004   2.830   4.128
17897TIP3   OH275181   2.940   2.675   3.897
17897TIP3    H175182   3.011   2.674   3.962
17897TIP3    H275183   2.971   2.606   3.836
17898TIP3   OH275184   3.671   2.761   5.021
17898TIP3    H175185   3.606   2.834   5.030
17898TIP3    H275186   3.720   2.786   4.941
17899TIP3   OH275187   3.277   2.843   4.287
17899TIP3    H175188   3.202   2.867   4.347
17899TIP3    H275189   3.323   2.774   4.338
17900TIP3   OH275190   3.269   2.659   5.198
17900TIP3    H175191   3.272   2.739   5.252
17900TIP3    H275192   3.206   2.689   5.130
17901TIP3   OH275193   2.439   2.909   4.478
17901TIP3    H175194   2.407   2.869   4.394
17901TIP3    H275195   2.500   2.839   4.512
17902TIP3   OH275196   2.572   3.249   4.747
17902TIP3    H175197   2.569   3.193   4.668
17902TIP3    H275198   2.650   3.211   4.793
17903TIP3   OH275199   2.473   2.783   4.843
17903TIP3    H175200   2.529   2.794   4.764
17903TIP3    H275201   2.510   2.849   4.906
17904TIP3   OH275202   3.111   3.339   4.914
17904TIP3    H175203   3.084   3.402   4.980
17904TIP3    H275204   3.087   3.253   4.957
17905TIP3   OH275205   2.568   3.223   5.314
17905TIP3    H175206   2.529   3.300   5.361
17905TIP3    H275207   2.499   3.207   5.245
17906TIP3   OH275208   3.164   2.761   4.055
17906TIP3    H175209   3.221   2.778   4.134
17906TIP3    H275210   3.208   2.811   3.982
17907TIP3   OH275211   2.258   2.840   5.236
17907TIP3    H175212   2.265   2.911   5.301
17907TIP3    H275213   2.167   2.853   5.203
17908TIP3   OH275214   2.936   3.434   4.401
17908TIP3    H175215   2.981   3.465   4.481
17908TIP3    H275216   2.880   3.509   4.378
17909TIP3   OH275217   2.401   3.427   5.379
17909TIP3    H175218   2.385   3.417   5.285
17909TIP3    H275219   2.309   3.421   5.418
17910TIP3   OH275220   3.536   1.935   4.041
17910TIP3    H175221   3.442   1.948   4.068
17910TIP3    H275222   3.558   2.019   3.999
17911TIP3   OH275223   2.337   2.811   4.240
17911TIP3    H175224   2.308   2.890   4.188
17911TIP3    H275225   2.271   2.745   4.218
17912TIP3   OH275226   3.649   3.370   3.878
17912TIP3    H175227   3.663   3.465   3.895
17912TIP3    H275228   3.742   3.341   3.875
17913TIP3   OH275229   1.950   3.053   5.123
17913TIP3    H175230   1.899   3.046   5.040
17913TIP3    H275231   1.949   2.959   5.150
17914TIP3   OH275232   1.922   3.327   4.807
17914TIP3    H175233   2.017   3.315   4.805
17914TIP3    H275234   1.913   3.408   4.859
17915TIP3   OH275235   3.745   3.397   5.375
17915TIP3    H175236   3.734   3.301   5.372
17915TIP3    H275237   3.659   3.423   5.415
17916TIP3   OH275238   2.841   3.350   5.263
17916TIP3    H175239   2.847   3.435   5.311
17916TIP3    H275240   2.752   3.318   5.286
17917TIP3   OH275241   2.883   3.726   4.242
17917TIP3    H175242   2.875   3.719   4.146
17917TIP3    H275243   2.885   3.823   4.258
17918TIP3   OH275244   2.248   3.613   4.423
17918TIP3    H175245   2.262   3.572   4.512
17918TIP3    H275246   2.163   3.573   4.399
17919TIP3   OH275247   3.187   3.645   3.940
17919TIP3    H175248   3.235   3.571   3.897
17919TIP3    H275249   3.195   3.620   4.035
17920TIP3   OH275250   3.159   3.639   4.216
17920TIP3    H175251   3.064   3.648   4.237
17920TIP3    H275252   3.185   3.566   4.275
17921TIP3   OH275253   3.461   2.543   5.422
17921TIP3    H175254   3.414   2.591   5.352
17921TIP3    H275255   3.460   2.452   5.391
17922TIP3   OH275256   2.176   3.180   5.220
17922TIP3    H175257   2.192   3.152   5.313
17922TIP3    H275258   2.085   3.147   5.203
17923TIP3   OH275259   2.440   2.031   4.820
17923TIP3    H175260   2.350   2.020   4.782
17923TIP3    H275261   2.429   2.115   4.866
17924TIP3   OH275262   2.904   1.999   5.156
17924TIP3    H175263   2.943   1.959   5.236
17924TIP3    H275264   2.807   1.986   5.172
17925TIP3   OH275265   3.234   2.381   5.244
17925TIP3    H175266   3.180   2.364   5.324
17925TIP3    H275267   3.217   2.475   5.222
17926TIP3   OH275268   3.309   2.865   3.829
17926TIP3    H175269   3.311   2.844   3.733
17926TIP3    H275270   3.396   2.908   3.839
17927TIP3   OH275271   2.870   2.256   3.886
17927TIP3    H175272   2.839   2.251   3.979
17927TIP3    H275273   2.839   2.168   3.856
17928TIP3   OH275274   2.449   2.528   4.939
17928TIP3    H175275   2.378   2.526   5.006
17928TIP3    H275276   2.447   2.621   4.907
17929TIP3   OH275277   2.446   2.544   4.428
17929TIP3    H175278   2.353   2.515   4.416
17929TIP3    H275279   2.486   2.512   4.345
17930TIP3   OH275280   2.999   2.591   4.308
17930TIP3    H175281   2.958   2.673   4.272
17930TIP3    H275282   3.068   2.576   4.242
17931TIP3   OH275283   2.907   2.614   5.452
17931TIP3    H175284   2.852   2.537   5.483
17931TIP3    H275285   2.989   2.598   5.501
17932TIP3   OH275286   3.101   2.539   4.591
17932TIP3    H175287   3.076   2.596   4.516
17932TIP3    H275288   3.114   2.454   4.543
17933TIP3   OH275289   2.215   2.557   5.115
17933TIP3    H175290   2.219   2.596   5.204
17933TIP3    H275291   2.170   2.472   5.131
17934TIP3   OH275292   2.553   2.295   3.797
17934TIP3    H175293   2.508   2.252   3.873
17934TIP3    H275294   2.481   2.336   3.748
17935TIP3   OH275295   1.879   2.268   4.508
17935TIP3    H175296   1.946   2.264   4.579
17935TIP3    H275297   1.925   2.228   4.431
17936TIP3   OH275298   2.006   2.339   4.046
17936TIP3    H175299   2.056   2.401   3.989
17936TIP3    H275300   1.937   2.400   4.079
17937TIP3   OH275301   3.023   2.700   5.050
17937TIP3    H175302   3.059   2.632   4.989
17937TIP3    H275303   2.978   2.645   5.117
17938TIP3   OH275304   2.702   2.295   4.531
17938TIP3    H175305   2.609   2.297   4.561
17938TIP3    H275306   2.752   2.282   4.613
17939TIP3   OH275307   2.184   2.453   4.417
17939TIP3    H175308   2.095   2.466   4.379
17939TIP3    H275309   2.213   2.369   4.378
17940TIP3   OH275310   2.549   2.455   4.180
17940TIP3    H175311   2.644   2.467   4.197
17940TIP3    H275312   2.526   2.524   4.114
17941TIP3   OH275313   3.143   2.219   4.856
17941TIP3    H175314   3.074   2.226   4.925
17941TIP3    H275315   3.093   2.196   4.776
17942TIP3   OH275316   2.418   2.574   3.939
17942TIP3    H175317   2.365   2.536   3.867
17942TIP3    H275318   2.501   2.594   3.892
17943TIP3   OH275319   3.466   3.785   5.488
17943TIP3    H175320   3.492   3.824   5.403
17943TIP3    H275321   3.538   3.815   5.547
17944TIP3   OH275322   2.234   3.023   5.448
17944TIP3    H175323   2.302   3.062   5.504
17944TIP3    H275324   2.153   3.052   5.498
17945TIP3   OH275325   2.832   2.572   4.720
17945TIP3    H175326   2.891   2.517   4.666
17945TIP3    H275327   2.818   2.517   4.799
17946TIP3   OH275328   2.333   2.186   4.364
17946TIP3    H175329   2.302   2.094   4.361
17946TIP3    H275330   2.411   2.181   4.308
17947TIP3   OH275331   2.696   2.406   4.961
17947TIP3    H175332   2.612   2.456   4.972
17947TIP3    H275333   2.750   2.439   5.036
17948TIP3   OH275334   2.754   3.028   4.131
17948TIP3    H175335   2.675   2.980   4.098
17948TIP3    H275336   2.734   3.038   4.226
17949TIP3   OH275337   3.470   2.946   5.011
17949TIP3    H175338   3.529   2.993   4.950
17949TIP3    H275339   3.385   2.953   4.963
17950TIP3   OH275340   3.138   2.310   3.949
17950TIP3    H175341   3.043   2.324   3.935
17950TIP3    H275342   3.171   2.396   3.983
17951TIP3   OH275343   2.904   3.052   5.254
17951TIP3    H175344   2.867   3.012   5.334
17951TIP3    H275345   2.879   3.145   5.262
17952TIP3   OH275346   3.211   2.499   4.113
17952TIP3    H175347   3.301   2.486   4.151
17952TIP3    H275348   3.220   2.581   4.061
17953TIP3   OH275349   2.264   2.965   4.711
17953TIP3    H175350   2.335   2.959   4.644
17953TIP3    H275351   2.271   2.879   4.756
17954TIP3   OH275352   2.964   3.176   4.032
17954TIP3    H175353   2.931   3.258   4.072
17954TIP3    H275354   2.892   3.113   4.055
17955TIP3   OH275355   1.965   2.805   5.238
17955TIP3    H175356   1.981   2.761   5.322
17955TIP3    H275357   1.901   2.745   5.195
17956TIP3   OH275358   2.664   2.765   5.457
17956TIP3    H175359   2.635   2.735   5.369
17956TIP3    H275360   2.756   2.732   5.457
17957TIP3   OH275361   3.132   3.293   5.251
17957TIP3    H175362   3.041   3.315   5.225
17957TIP3    H275363   3.130   3.324   5.343
17958TIP3   OH275364   3.702   2.515   4.088
17958TIP3    H175365   3.644   2.484   4.016
17958TIP3    H275366   3.709   2.610   4.061
17959TIP3   OH275367   3.698   3.102   5.373
17959TIP3    H175368   3.611   3.121   5.331
17959TIP3    H275369   3.755   3.095   5.293
17960TIP3   OH275370   3.528   3.398   4.130
17960TIP3    H175371   3.493   3.314   4.163
17960TIP3    H275372   3.560   3.377   4.041
17961TIP3   OH275373   3.249   2.879   4.838
17961TIP3    H175374   3.155   2.857   4.830
17961TIP3    H275375   3.292   2.802   4.798
17962TIP3   OH275376   2.502   3.312   4.449
17962TIP3    H175377   2.553   3.392   4.428
17962TIP3    H275378   2.414   3.335   4.417
17963TIP3   OH275379   2.078   2.796   3.906
17963TIP3    H175380   2.137   2.861   3.947
17963TIP3    H275381   1.990   2.828   3.933
17964TIP3   OH275382   2.644   3.078   4.402
17964TIP3    H175383   2.615   3.171   4.411
17964TIP3    H275384   2.571   3.031   4.446
17965TIP3   OH275385   2.690   3.496   5.041
17965TIP3    H175386   2.733   3.578   5.014
17965TIP3    H275387   2.750   3.463   5.110
17966TIP3   OH275388   2.513   3.579   4.353
17966TIP3    H175389   2.416   3.592   4.366
17966TIP3    H275390   2.548   3.662   4.391
17967TIP3   OH275391   3.044   3.099   5.004
17967TIP3    H175392   3.008   3.079   5.092
17967TIP3    H275393   3.107   3.027   4.988
17968TIP3   OH275394   3.273   3.202   3.913
17968TIP3    H175395   3.304   3.157   3.994
17968TIP3    H275396   3.177   3.186   3.923
17969TIP3   OH275397   3.319   3.556   5.256
17969TIP3    H175398   3.254   3.505   5.204
17969TIP3    H275399   3.342   3.625   5.189
17970TIP3   OH275400   3.721   3.640   3.937
17970TIP3    H175401   3.792   3.705   3.919
17970TIP3    H275402   3.650   3.701   3.967
17971TIP3   OH275403   2.129   2.282   5.196
17971TIP3    H175404   2.038   2.315   5.187
17971TIP3    H275405   2.117   2.195   5.236
17972TIP3   OH275406   3.353   3.067   4.137
17972TIP3    H175407   3.329   2.989   4.192
17972TIP3    H275408   3.448   3.073   4.156
17973TIP3   OH275409   2.092   3.460   5.035
17973TIP3    H175410   2.118   3.367   5.037
17973TIP3    H275411   2.117   3.488   5.125
17974TIP3   OH275412   2.682   3.315   3.761
17974TIP3    H175413   2.699   3.236   3.705
17974TIP3    H275414   2.647   3.266   3.840
17975TIP3   OH275415   2.569   3.266   4.005
17975TIP3    H175416   2.589   3.211   4.084
17975TIP3    H275417   2.573   3.356   4.042
17976TIP3   OH275418   2.218   2.989   4.056
17976TIP3    H175419   2.148   3.027   4.112
17976TIP3    H275420   2.270   3.067   4.029
17977TIP3   OH275421   3.002   2.258   5.086
17977TIP3    H175422   3.073   2.263   5.151
17977TIP3    H275423   2.964   2.169   5.104
17978TIP3   OH275424   3.078   2.216   4.196
17978TIP3    H175425   3.101   2.264   4.113
17978TIP3    H275426   3.135   2.259   4.260
17979TIP3   OH275427   2.844   3.431   4.075
17979TIP3    H175428   2.764   3.484   4.088
17979TIP3    H275429   2.902   3.484   4.019
17980TIP3   OH275430   2.799   2.391   4.278
17980TIP3    H175431   2.879   2.447   4.283
17980TIP3    H275432   2.774   2.378   4.371
17981TIP3   OH275433   2.855   2.493   5.193
17981TIP3    H175434   2.863   2.549   5.273
17981TIP3    H275435   2.920   2.423   5.208
17982TIP3   OH275436   2.886   2.097   4.369
17982TIP3    H175437   2.853   2.162   4.434
17982TIP3    H275438   2.954   2.151   4.323
17983TIP3   OH275439   2.584   3.536   4.076
17983TIP3    H175440   2.594   3.622   4.030
17983TIP3    H275441   2.559   3.567   4.167
17984TIP3   OH275442   2.451   2.206   4.039
17984TIP3    H175443   2.446   2.297   4.076
17984TIP3    H275444   2.542   2.182   4.064
17985TIP3   OH275445   3.474   2.280   5.282
17985TIP3    H175446   3.380   2.310   5.269
17985TIP3    H275447   3.504   2.280   5.189
17986TIP3   OH275448   3.334   2.658   4.685
17986TIP3    H175449   3.252   2.615   4.656
17986TIP3    H275450   3.381   2.589   4.736
17987TIP3   OH275451   2.274   3.256   3.939
17987TIP3    H175452   2.341   3.314   3.976
17987TIP3    H275453   2.326   3.203   3.875
17988TIP3   OH275454   2.109   2.517   3.857
17988TIP3    H175455   2.109   2.613   3.877
17988TIP3    H275456   2.020   2.497   3.827
17989TIP3   OH275457   3.440   3.583   4.851
17989TIP3    H175458   3.430   3.652   4.783
17989TIP3    H275459   3.537   3.590   4.869
17990TIP3   OH275460   2.190   1.996   4.729
17990TIP3    H175461   2.169   1.999   4.633
17990TIP3    H275462   2.147   1.913   4.756
17991TIP3   OH275463   2.085   3.388   4.344
17991TIP3    H175464   2.000   3.435   4.342
17991TIP3    H275465   2.135   3.437   4.277
17992TIP3   OH275466   2.009   3.655   5.473
17992TIP3    H175467   2.067   3.629   5.548
17992TIP3    H275468   1.966   3.569   5.458
17993TIP3   OH275469   2.493   3.556   5.635
17993TIP3    H175470   2.551   3.489   5.668
17993TIP3    H275471   2.466   3.518   5.547
17994TIP3   OH275472   2.887   3.493   3.775
17994TIP3    H175473   2.824   3.421   3.800
17994TIP3    H275474   2.962   3.436   3.749
17995TIP3   OH275475   3.126   3.384   5.510
17995TIP3    H175476   3.095   3.294   5.533
17995TIP3    H275477   3.205   3.397   5.566
17996TIP3   OH275478   3.343   3.473   3.795
17996TIP3    H175479   3.372   3.394   3.843
17996TIP3    H275480   3.418   3.496   3.739
17997TIP3   OH275481   2.002   3.026   5.573
17997TIP3    H175482   2.010   2.939   5.540
17997TIP3    H275483   1.927   3.062   5.520
17998TIP3   OH275484   2.432   3.067   3.777
17998TIP3    H175485   2.445   2.989   3.834
17998TIP3    H275486   2.505   3.054   3.714
17999TIP3   OH275487   2.674   3.031   5.513
17999TIP3    H175488   2.636   3.060   5.427
17999TIP3    H275489   2.679   2.933   5.501
18000TIP3   OH275490   2.972   3.176   3.754
18000TIP3    H175491   2.948   3.184   3.847
18000TIP3    H275492   2.955   3.079   3.741
18001TIP3   OH275493   3.240   3.017   5.254
18001TIP3    H175494   3.318   3.076   5.241
18001TIP3    H275495   3.169   3.082   5.256
18002TIP3   OH275496   2.552   2.866   4.016
18002TIP3    H175497   2.504   2.813   4.081
18002TIP3    H275498   2.581   2.798   3.951
18003TIP3   OH275499   2.480   2.650   5.248
18003TIP3    H175500   2.420   2.721   5.273
18003TIP3    H275501   2.518   2.684   5.165
18004TIP3   OH275502   2.659   2.688   3.839
18004TIP3    H175503   2.643   2.677   3.743
18004TIP3    H275504   2.757   2.696   3.844
18005TIP3   OH275505   3.594   2.921   3.783
18005TIP3    H175506   3.573   2.882   3.697
18005TIP3    H275507   3.602   3.017   3.761
18006TIP3   OH275508   2.519   2.387   5.356
18006TIP3    H175509   2.530   2.315   5.291
18006TIP3    H275510   2.516   2.467   5.300
18007TIP3   OH275511   2.559   2.224   5.109
18007TIP3    H175512   2.611   2.270   5.039
18007TIP3    H275513   2.471   2.215   5.066
18008TIP3   OH275514   2.714   2.771   5.133
18008TIP3    H175515   2.790   2.755   5.075
18008TIP3    H275516   2.678   2.855   5.100
18009TIP3   OH275517   3.153   2.549   5.634
18009TIP3    H175518   3.178   2.457   5.620
18009TIP3    H275519   3.240   2.592   5.628
18010TIP3   OH275520   3.286   2.827   5.443
18010TIP3    H175521   3.263   2.901   5.382
18010TIP3    H275522   3.383   2.823   5.426
18011TIP3   OH275523   2.638   1.968   5.147
18011TIP3    H175524   2.623   2.065   5.139
18011TIP3    H275525   2.562   1.932   5.099
18012TIP3   OH275526   2.766   2.402   5.508
18012TIP3    H175527   2.734   2.377   5.596
18012TIP3    H275528   2.687   2.381   5.454
18013TIP3   OH275529   3.038   2.315   5.415
18013TIP3    H175530   2.941   2.320   5.427
18013TIP3    H275531   3.065   2.251   5.482
18014TIP3   OH275532   3.197   2.180   5.613
18014TIP3    H175533   3.189   2.082   5.612
18014TIP3    H275534   3.167   2.202   5.702
18015TIP3   OH275535   2.178   2.304   5.520
18015TIP3    H175536   2.201   2.232   5.458
18015TIP3    H275537   2.167   2.256   5.603
18016TIP3   OH275538   2.656   1.902   5.416
18016TIP3    H175539   2.729   1.836   5.418
18016TIP3    H275540   2.650   1.923   5.322
18017TIP3   OH275541   2.643   3.763   3.946
18017TIP3    H175542   2.739   3.779   3.960
18017TIP3    H275543   2.626   3.831   3.879
18018TIP3   OH275544   2.002   3.222   3.888
18018TIP3    H175545   2.098   3.225   3.914
18018TIP3    H275546   2.005   3.150   3.820
18019TIP3   OH275547   1.876   3.756   4.391
18019TIP3    H175548   1.806   3.708   4.342
18019TIP3    H275549   1.905   3.690   4.456
18020TIP3   OH275550   1.959   3.568   4.576
18020TIP3    H175551   1.924   3.480   4.595
18020TIP3    H275552   1.981   3.602   4.665
18021TIP3   OH275553   3.712   3.648   4.871
18021TIP3    H175554   3.714   3.666   4.967
18021TIP3    H275555   3.783   3.706   4.840
18022TIP3   OH275556   3.670   3.608   5.166
18022TIP3    H175557   3.622   3.531   5.128
18022TIP3    H275558   3.722   3.564   5.235
18023TIP3   OH275559   3.645   3.012   4.177
18023TIP3    H175560   3.732   3.052   4.194
18023TIP3    H275561   3.645   2.939   4.242
18024TIP3   OH275562   3.683   2.819   4.363
18024TIP3    H175563   3.608   2.769   4.403
18024TIP3    H275564   3.742   2.835   4.439
18025TIP3   OH275565   3.658   3.091   4.861
18025TIP3    H175566   3.741   3.054   4.826
18025TIP3    H275567   3.672   3.187   4.845
18026TIP3   OH275568   3.512   3.380   5.090
18026TIP3    H175569   3.444   3.415   5.149
18026TIP3    H275570   3.458   3.339   5.020
18027TIP3   OH275571   3.712   2.803   4.003
18027TIP3    H175572   3.657   2.839   3.931
18027TIP3    H275573   3.704   2.874   4.069
18028TIP3   OH275574   3.549   2.527   3.855
18028TIP3    H175575   3.556   2.594   3.786
18028TIP3    H275576   3.531   2.444   3.806
18029TIP3   OH275577   3.464   2.668   4.420
18029TIP3    H175578   3.449   2.572   4.417
18029TIP3    H275579   3.429   2.692   4.507
18030TIP3   OH275580   1.964   2.876   4.825
18030TIP3    H175581   1.984   2.868   4.729
18030TIP3    H275582   2.053   2.860   4.862
18031TIP3   OH275583   3.547   2.865   5.389
18031TIP3    H175584   3.608   2.790   5.404
18031TIP3    H275585   3.609   2.940   5.387
18032TIP3   OH275586   3.699   2.655   5.455
18032TIP3    H175587   3.612   2.614   5.437
18032TIP3    H275588   3.757   2.578   5.445
18033TIP3   OH275589   3.473   2.272   3.768
18033TIP3    H175590   3.533   2.230   3.833
18033TIP3    H275591   3.387   2.229   3.786
18034TIP3   OH275592   3.430   2.426   4.263
18034TIP3    H175593   3.462   2.334   4.278
18034TIP3    H275594   3.511   2.467   4.230
18035TIP3   OH275595   3.494   2.481   4.810
18035TIP3    H175596   3.590   2.504   4.808
18035TIP3    H275597   3.475   2.495   4.904
18036TIP3   OH275598   3.501   2.554   5.089
18036TIP3    H175599   3.413   2.583   5.123
18036TIP3    H275600   3.544   2.640   5.067
18037TIP3   OH275601   1.925   2.405   5.438
18037TIP3    H175602   2.019   2.387   5.459
18037TIP3    H275603   1.880   2.325   5.473
18038TIP3   OH275604   3.735   1.958   5.625
18038TIP3    H175605   3.761   1.890   5.561
18038TIP3    H275606   3.738   2.040   5.572
18039TIP3   OH275607   3.497   2.154   4.271
18039TIP3    H175608   3.517   2.109   4.355
18039TIP3    H275609   3.437   2.092   4.226
18040TIP3   OH275610   2.046   2.235   4.726
18040TIP3    H175611   2.093   2.153   4.753
18040TIP3    H275612   2.099   2.305   4.766
18041TIP3   OH275613   1.875   2.534   4.831
18041TIP3    H175614   1.931   2.511   4.753
18041TIP3    H275615   1.919   2.616   4.857
18042TIP3   OH275616   3.683   2.165   5.460
18042TIP3    H175617   3.589   2.194   5.453
18042TIP3    H275618   3.686   2.113   5.378
18043TIP3   OH275619   3.680   2.158   3.926
18043TIP3    H175620   3.722   2.087   3.874
18043TIP3    H275621   3.750   2.225   3.931
18044TIP3   OH275622   1.911   2.162   4.238
18044TIP3    H175623   1.817   2.180   4.223
18044TIP3    H275624   1.954   2.210   4.166
18045TIP3   OH275625   3.385   3.656   4.433
18045TIP3    H175626   3.453   3.625   4.371
18045TIP3    H275627   3.438   3.707   4.497
18046TIP3   OH275628   1.908   2.030   5.068
18046TIP3    H175629   1.840   2.009   5.135
18046TIP3    H275630   1.860   2.095   5.013
18047TIP3   OH275631   2.071   3.283   5.458
18047TIP3    H175632   2.038   3.370   5.433
18047TIP3    H275633   2.102   3.321   5.544
18048TIP3   OH275634   2.420   3.446   5.108
18048TIP3    H175635   2.384   3.532   5.084
18048TIP3    H275636   2.513   3.457   5.081
18049TIP3   OH275637   2.853   3.589   5.406
18049TIP3    H175638   2.872   3.554   5.493
18049TIP3    H275639   2.941   3.620   5.375
18050TIP3   OH275640   3.081   3.715   5.333
18050TIP3    H175641   3.154   3.656   5.308
18050TIP3    H275642   3.119   3.759   5.413
18051TIP3   OH275643   3.582   1.978   5.242
18051TIP3    H175644   3.499   2.007   5.201
18051TIP3    H275645   3.600   1.897   5.189
18052TIP3   OH275646   2.162   3.770   5.112
18052TIP3    H175647   2.089   3.820   5.071
18052TIP3    H275648   2.129   3.750   5.202
18053TIP3   OH275649   2.410   3.730   5.019
18053TIP3    H175650   2.320   3.744   5.058
18053TIP3    H275651   2.403   3.788   4.941
18054TIP3   OH275652   2.880   3.721   4.936
18054TIP3    H175653   2.833   3.776   4.871
18054TIP3    H275654   2.894   3.784   5.009
18055TIP3   OH275655   3.110   3.604   5.035
18055TIP3    H175656   3.023   3.629   5.002
18055TIP3    H275657   3.156   3.690   5.027
18056TIP3   OH275658   3.369   3.761   5.061
18056TIP3    H175659   3.358   3.857   5.038
18056TIP3    H275660   3.389   3.724   4.973
18057TIP3   OH275661   2.106   3.636   4.806
18057TIP3    H175662   2.100   3.591   4.893
18057TIP3    H275663   2.188   3.600   4.766
18058TIP3   OH275664   2.315   3.508   4.671
18058TIP3    H175665   2.298   3.414   4.692
18058TIP3    H275666   2.401   3.522   4.717
18059TIP3   OH275667   2.574   3.556   4.758
18059TIP3    H175668   2.592   3.464   4.731
18059TIP3    H275669   2.579   3.550   4.854
18060TIP3   OH275670   2.922   2.121   4.672
18060TIP3    H175671   2.854   2.056   4.699
18060TIP3    H275672   2.977   2.069   4.613
18061TIP3   OH275673   3.435   1.927   4.681
18061TIP3    H175674   3.497   1.985   4.629
18061TIP3    H275675   3.347   1.962   4.656
18062TIP3   OH275676   3.603   2.049   4.509
18062TIP3    H175677   3.671   1.993   4.465
18062TIP3    H275678   3.651   2.134   4.518
18063TIP3   OH275679   2.157   1.984   4.456
18063TIP3    H175680   2.078   1.962   4.404
18063TIP3    H275681   2.206   1.899   4.452
18064TIP3   OH275682   2.036   1.960   4.031
18064TIP3    H175683   2.084   2.024   3.975
18064TIP3    H275684   1.977   2.017   4.083
18065TIP3   OH275685   2.608   1.976   4.435
18065TIP3    H175686   2.698   2.013   4.430
18065TIP3    H275687   2.601   1.955   4.528
18066TIP3   OH275688   3.174   1.978   4.599
18066TIP3    H175689   3.173   1.988   4.503
18066TIP3    H275690   3.139   1.887   4.612
18067TIP3   OH275691   3.304   1.982   4.167
18067TIP3    H175692   3.230   2.042   4.149
18067TIP3    H275693   3.259   1.896   4.187
18068TIP3   OH275694   2.030   3.555   4.126
18068TIP3    H175695   1.957   3.554   4.061
18068TIP3    H275696   2.026   3.649   4.152
18069TIP3   OH275697   2.220   2.154   3.879
18069TIP3    H175698   2.272   2.091   3.827
18069TIP3    H275699   2.286   2.185   3.944
18070TIP3   OH275700   2.723   2.179   4.121
18070TIP3    H175701   2.746   2.120   4.194
18070TIP3    H275702   2.725   2.265   4.169
18071TIP3   OH275703   2.910   3.684   3.961
18071TIP3    H175704   3.004   3.711   3.947
18071TIP3    H275705   2.903   3.630   3.882
18072TIP3   OH275706   3.585   3.634   4.235
18072TIP3    H175707   3.565   3.557   4.177
18072TIP3    H275708   3.578   3.709   4.172
18073TIP3   OH275709   2.151   2.038   5.407
18073TIP3    H175710   2.111   1.958   5.447
18073TIP3    H275711   2.242   2.035   5.435
18074TIP3   OH275712   2.219   3.664   3.838
18074TIP3    H175713   2.181   3.681   3.927
18074TIP3    H275714   2.290   3.598   3.855
18075TIP3   OH275715   3.190   1.908   5.578
18075TIP3    H175716   3.195   1.860   5.664
18075TIP3    H275717   3.281   1.901   5.544
18076TIP3   OH275718   3.508   3.509   5.448
18076TIP3    H175719   3.428   3.495   5.392
18076TIP3    H275720   3.498   3.605   5.467
18077TIP3   OH275721   4.952   2.897   4.445
18077TIP3    H175722   4.953   2.995   4.438
18077TIP3    H275723   4.881   2.873   4.383
18078TIP3   OH275724   4.839   2.824   4.793
18078TIP3    H175725   4.837   2.758   4.864
18078TIP3    H275726   4.806   2.774   4.716
18079TIP3   OH275727   4.075   2.789   4.949
18079TIP3    H175728   4.082   2.722   5.020
18079TIP3    H275729   4.149   2.848   4.970
18080TIP3   OH275730   5.209   3.118   4.621
18080TIP3    H175731   5.166   3.046   4.669
18080TIP3    H275732   5.210   3.189   4.687
18081TIP3   OH275733   4.167   3.234   4.801
18081TIP3    H175734   4.135   3.149   4.767
18081TIP3    H275735   4.263   3.215   4.805
18082TIP3   OH275736   3.832   2.592   4.346
18082TIP3    H175737   3.787   2.679   4.341
18082TIP3    H275738   3.774   2.538   4.291
18083TIP3   OH275739   3.901   2.814   4.560
18083TIP3    H175740   3.927   2.733   4.607
18083TIP3    H275741   3.973   2.823   4.495
18084TIP3   OH275742   4.920   3.633   4.644
18084TIP3    H175743   4.984   3.563   4.616
18084TIP3    H275744   4.900   3.602   4.733
18085TIP3   OH275745   4.677   3.065   4.837
18085TIP3    H175746   4.711   3.000   4.773
18085TIP3    H275747   4.756   3.079   4.892
18086TIP3   OH275748   5.539   2.228   4.914
18086TIP3    H175749   5.553   2.289   4.990
18086TIP3    H275750   5.592   2.272   4.846
18087TIP3   OH275751   4.993   2.510   4.870
18087TIP3    H175752   5.009   2.414   4.869
18087TIP3    H275753   4.983   2.525   4.774
18088TIP3   OH275754   4.306   2.318   4.593
18088TIP3    H175755   4.314   2.403   4.546
18088TIP3    H275756   4.264   2.261   4.525
18089TIP3   OH275757   5.079   2.328   4.430
18089TIP3    H175758   5.145   2.296   4.496
18089TIP3    H275759   5.134   2.384   4.374
18090TIP3   OH275760   3.968   2.559   4.667
18090TIP3    H175761   4.035   2.504   4.711
18090TIP3    H275762   3.976   2.529   4.576
18091TIP3   OH275763   4.484   2.715   4.595
18091TIP3    H175764   4.549   2.657   4.639
18091TIP3    H275765   4.430   2.648   4.548
18092TIP3   OH275766   5.582   2.371   5.140
18092TIP3    H175767   5.518   2.445   5.131
18092TIP3    H275768   5.585   2.359   5.236
18093TIP3   OH275769   4.194   2.208   4.997
18093TIP3    H175770   4.167   2.265   4.922
18093TIP3    H275771   4.125   2.232   5.064
18094TIP3   OH275772   4.926   3.158   4.352
18094TIP3    H175773   4.897   3.128   4.265
18094TIP3    H275774   4.894   3.250   4.357
18095TIP3   OH275775   4.447   2.973   5.022
18095TIP3    H175776   4.375   3.037   5.042
18095TIP3    H275777   4.518   3.033   4.994
18096TIP3   OH275778   5.258   2.261   4.629
18096TIP3    H175779   5.237   2.184   4.683
18096TIP3    H275780   5.325   2.305   4.684
18097TIP3   OH275781   4.150   2.395   4.798
18097TIP3    H175782   4.214   2.463   4.831
18097TIP3    H275783   4.203   2.352   4.727
18098TIP3   OH275784   4.291   3.172   5.105
18098TIP3    H175785   4.287   3.263   5.070
18098TIP3    H275786   4.202   3.165   5.148
18099TIP3   OH275787   3.900   3.136   4.184
18099TIP3    H175788   3.874   3.166   4.095
18099TIP3    H275789   3.906   3.220   4.232
18100TIP3   OH275790   5.261   3.301   4.858
18100TIP3    H175791   5.165   3.311   4.871
18100TIP3    H275792   5.288   3.393   4.839
18101TIP3   OH275793   5.293   2.130   4.997
18101TIP3    H175794   5.220   2.193   4.990
18101TIP3    H275795   5.363   2.172   4.944
18102TIP3   OH275796   4.591   1.941   4.744
18102TIP3    H175797   4.578   1.845   4.737
18102TIP3    H275798   4.503   1.972   4.773
18103TIP3   OH275799   5.087   3.480   4.518
18103TIP3    H175800   5.130   3.408   4.467
18103TIP3    H275801   5.126   3.560   4.477
18104TIP3   OH275802   5.206   3.273   4.369
18104TIP3    H175803   5.177   3.202   4.309
18104TIP3    H275804   5.211   3.224   4.453
18105TIP3   OH275805   5.370   3.131   5.218
18105TIP3    H175806   5.385   3.067   5.145
18105TIP3    H275807   5.389   3.217   5.177
18106TIP3   OH275808   4.819   2.822   4.196
18106TIP3    H175809   4.749   2.878   4.159
18106TIP3    H275810   4.889   2.830   4.128
18107TIP3   OH275811   4.825   2.675   3.897
18107TIP3    H175812   4.896   2.674   3.962
18107TIP3    H275813   4.857   2.606   3.836
18108TIP3   OH275814   5.558   2.762   5.024
18108TIP3    H175815   5.491   2.834   5.029
18108TIP3    H275816   5.605   2.785   4.942
18109TIP3   OH275817   5.163   2.843   4.287
18109TIP3    H175818   5.088   2.867   4.347
18109TIP3    H275819   5.209   2.774   4.338
18110TIP3   OH275820   5.155   2.659   5.198
18110TIP3    H175821   5.157   2.740   5.252
18110TIP3    H275822   5.092   2.689   5.129
18111TIP3   OH275823   4.325   2.909   4.478
18111TIP3    H175824   4.292   2.869   4.394
18111TIP3    H275825   4.385   2.839   4.512
18112TIP3   OH275826   4.458   3.249   4.747
18112TIP3    H175827   4.455   3.193   4.668
18112TIP3    H275828   4.535   3.211   4.793
18113TIP3   OH275829   4.359   2.783   4.843
18113TIP3    H175830   4.415   2.794   4.764
18113TIP3    H275831   4.395   2.849   4.906
18114TIP3   OH275832   4.997   3.339   4.914
18114TIP3    H175833   4.969   3.402   4.981
18114TIP3    H275834   4.973   3.253   4.957
18115TIP3   OH275835   4.453   3.226   5.313
18115TIP3    H175836   4.414   3.301   5.361
18115TIP3    H275837   4.384   3.207   5.244
18116TIP3   OH275838   5.049   2.761   4.055
18116TIP3    H175839   5.106   2.778   4.134
18116TIP3    H275840   5.093   2.811   3.982
18117TIP3   OH275841   4.146   2.842   5.232
18117TIP3    H175842   4.149   2.909   5.303
18117TIP3    H275843   4.053   2.852   5.206
18118TIP3   OH275844   4.822   3.434   4.401
18118TIP3    H175845   4.866   3.465   4.480
18118TIP3    H275846   4.765   3.509   4.377
18119TIP3   OH275847   4.275   3.428   5.386
18119TIP3    H175848   4.271   3.418   5.290
18119TIP3    H275849   4.182   3.417   5.416
18120TIP3   OH275850   5.422   1.935   4.041
18120TIP3    H175851   5.328   1.948   4.068
18120TIP3    H275852   5.443   2.019   3.999
18121TIP3   OH275853   4.222   2.811   4.240
18121TIP3    H175854   4.193   2.890   4.188
18121TIP3    H275855   4.156   2.745   4.218
18122TIP3   OH275856   5.535   3.370   3.878
18122TIP3    H175857   5.549   3.465   3.895
18122TIP3    H275858   5.628   3.341   3.875
18123TIP3   OH275859   3.833   3.053   5.124
18123TIP3    H175860   3.784   3.045   5.040
18123TIP3    H275861   3.836   2.959   5.150
18124TIP3   OH275862   3.807   3.327   4.807
18124TIP3    H175863   3.903   3.315   4.805
18124TIP3    H275864   3.798   3.408   4.859
18125TIP3   OH275865   5.631   3.396   5.372
18125TIP3    H175866   5.621   3.299   5.373
18125TIP3    H275867   5.545   3.422   5.415
18126TIP3   OH275868   4.726   3.352   5.260
18126TIP3    H175869   4.733   3.435   5.313
18126TIP3    H275870   4.640   3.317   5.287
18127TIP3   OH275871   4.770   3.726   4.242
18127TIP3    H175872   4.759   3.717   4.146
18127TIP3    H275873   4.771   3.823   4.256
18128TIP3   OH275874   4.134   3.613   4.423
18128TIP3    H175875   4.148   3.572   4.511
18128TIP3    H275876   4.049   3.573   4.399
18129TIP3   OH275877   5.076   3.647   3.941
18129TIP3    H175878   5.119   3.570   3.896
18129TIP3    H275879   5.079   3.619   4.035
18130TIP3   OH275880   5.045   3.640   4.217
18130TIP3    H175881   4.950   3.647   4.236
18130TIP3    H275882   5.070   3.566   4.276
18131TIP3   OH275883   5.344   2.544   5.422
18131TIP3    H175884   5.299   2.590   5.350
18131TIP3    H275885   5.346   2.452   5.392
18132TIP3   OH275886   4.058   3.185   5.223
18132TIP3    H175887   4.081   3.147   5.311
18132TIP3    H275888   3.972   3.145   5.200
18133TIP3   OH275889   4.325   2.031   4.820
18133TIP3    H175890   4.235   2.020   4.782
18133TIP3    H275891   4.315   2.115   4.866
18134TIP3   OH275892   4.790   2.001   5.157
18134TIP3    H175893   4.829   1.958   5.235
18134TIP3    H275894   4.693   1.986   5.170
18135TIP3   OH275895   5.120   2.382   5.244
18135TIP3    H175896   5.065   2.364   5.324
18135TIP3    H275897   5.103   2.474   5.221
18136TIP3   OH275898   5.195   2.865   3.829
18136TIP3    H175899   5.197   2.844   3.733
18136TIP3    H275900   5.281   2.908   3.839
18137TIP3   OH275901   4.755   2.256   3.886
18137TIP3    H175902   4.725   2.252   3.979
18137TIP3    H275903   4.725   2.168   3.857
18138TIP3   OH275904   4.335   2.528   4.940
18138TIP3    H175905   4.264   2.526   5.006
18138TIP3    H275906   4.332   2.620   4.907
18139TIP3   OH275907   4.332   2.544   4.428
18139TIP3    H175908   4.239   2.516   4.416
18139TIP3    H275909   4.372   2.512   4.345
18140TIP3   OH275910   4.884   2.591   4.308
18140TIP3    H175911   4.844   2.673   4.272
18140TIP3    H275912   4.954   2.576   4.242
18141TIP3   OH275913   4.792   2.610   5.451
18141TIP3    H175914   4.736   2.536   5.483
18141TIP3    H275915   4.875   2.600   5.500
18142TIP3   OH275916   4.987   2.539   4.591
18142TIP3    H175917   4.961   2.596   4.516
18142TIP3    H275918   4.999   2.454   4.543
18143TIP3   OH275919   4.100   2.556   5.114
18143TIP3    H175920   4.104   2.598   5.202
18143TIP3    H275921   4.055   2.473   5.132
18144TIP3   OH275922   4.438   2.292   3.795
18144TIP3    H175923   4.394   2.253   3.874
18144TIP3    H275924   4.367   2.338   3.749
18145TIP3   OH275925   3.765   2.268   4.508
18145TIP3    H175926   3.832   2.264   4.579
18145TIP3    H275927   3.810   2.228   4.431
18146TIP3   OH275928   3.892   2.339   4.046
18146TIP3    H175929   3.941   2.402   3.989
18146TIP3    H275930   3.822   2.400   4.079
18147TIP3   OH275931   4.909   2.699   5.049
18147TIP3    H175932   4.945   2.632   4.989
18147TIP3    H275933   4.863   2.646   5.117
18148TIP3   OH275934   4.588   2.295   4.531
18148TIP3    H175935   4.495   2.297   4.561
18148TIP3    H275936   4.637   2.282   4.613
18149TIP3   OH275937   4.070   2.453   4.417
18149TIP3    H175938   3.981   2.466   4.379
18149TIP3    H275939   4.099   2.369   4.378
18150TIP3   OH275940   4.435   2.455   4.180
18150TIP3    H175941   4.530   2.467   4.197
18150TIP3    H275942   4.411   2.524   4.115
18151TIP3   OH275943   5.029   2.218   4.856
18151TIP3    H175944   4.960   2.226   4.925
18151TIP3    H275945   4.978   2.196   4.776
18152TIP3   OH275946   4.304   2.574   3.939
18152TIP3    H175947   4.250   2.536   3.867
18152TIP3    H275948   4.386   2.594   3.892
18153TIP3   OH275949   4.115   3.029   5.446
18153TIP3    H175950   4.189   3.054   5.503
18153TIP3    H275951   4.039   3.043   5.503
18154TIP3   OH275952   4.717   2.572   4.720
18154TIP3    H175953   4.776   2.517   4.666
18154TIP3    H275954   4.703   2.517   4.799
18155TIP3   OH275955   4.218   2.186   4.364
18155TIP3    H175956   4.188   2.094   4.361
18155TIP3    H275957   4.297   2.181   4.308
18156TIP3   OH275958   4.581   2.406   4.961
18156TIP3    H175959   4.498   2.456   4.971
18156TIP3    H275960   4.636   2.439   5.035
18157TIP3   OH275961   4.640   3.028   4.130
18157TIP3    H175962   4.560   2.980   4.098
18157TIP3    H275963   4.619   3.037   4.226
18158TIP3   OH275964   5.356   2.946   5.011
18158TIP3    H175965   5.414   2.993   4.950
18158TIP3    H275966   5.271   2.953   4.964
18159TIP3   OH275967   5.023   2.310   3.950
18159TIP3    H175968   4.929   2.324   3.935
18159TIP3    H275969   5.056   2.396   3.983
18160TIP3   OH275970   4.789   3.052   5.255
18160TIP3    H175971   4.755   3.011   5.335
18160TIP3    H275972   4.765   3.144   5.265
18161TIP3   OH275973   5.097   2.500   4.113
18161TIP3    H175974   5.186   2.486   4.151
18161TIP3    H275975   5.105   2.581   4.061
18162TIP3   OH275976   4.150   2.965   4.711
18162TIP3    H175977   4.221   2.959   4.644
18162TIP3    H275978   4.157   2.879   4.756
18163TIP3   OH275979   4.850   3.175   4.034
18163TIP3    H175980   4.817   3.259   4.071
18163TIP3    H275981   4.777   3.113   4.055
18164TIP3   OH275982   3.849   2.806   5.237
18164TIP3    H175983   3.869   2.764   5.323
18164TIP3    H275984   3.788   2.744   5.195
18165TIP3   OH275985   4.551   2.760   5.456
18165TIP3    H175986   4.521   2.735   5.368
18165TIP3    H275987   4.645   2.734   5.456
18166TIP3   OH275988   5.018   3.296   5.251
18166TIP3    H175989   4.925   3.314   5.226
18166TIP3    H275990   5.015   3.325   5.344
18167TIP3   OH275991   5.587   2.515   4.088
18167TIP3    H175992   5.530   2.484   4.016
18167TIP3    H275993   5.595   2.609   4.061
18168TIP3   OH275994   5.585   3.100   5.370
18168TIP3    H175995   5.497   3.123   5.332
18168TIP3    H275996   5.641   3.096   5.290
18169TIP3   OH275997   5.414   3.398   4.130
18169TIP3    H175998   5.379   3.314   4.163
18169TIP3    H275999   5.446   3.377   4.041
18170TIP3   OH276000   5.135   2.879   4.839
18170TIP3    H176001   5.041   2.857   4.830
18170TIP3    H276002   5.178   2.802   4.798
18171TIP3   OH276003   4.387   3.312   4.449
18171TIP3    H176004   4.438   3.392   4.428
18171TIP3    H276005   4.299   3.335   4.417
18172TIP3   OH276006   3.964   2.796   3.906
18172TIP3    H176007   4.023   2.862   3.946
18172TIP3    H276008   3.875   2.828   3.933
18173TIP3   OH276009   4.530   3.078   4.402
18173TIP3    H176010   4.500   3.171   4.411
18173TIP3    H276011   4.456   3.031   4.446
18174TIP3   OH276012   4.575   3.496   5.041
18174TIP3    H176013   4.619   3.578   5.014
18174TIP3    H276014   4.635   3.463   5.110
18175TIP3   OH276015   4.397   3.578   4.356
18175TIP3    H176016   4.301   3.592   4.367
18175TIP3    H276017   4.433   3.662   4.391
18176TIP3   OH276018   4.930   3.099   5.004
18176TIP3    H176019   4.893   3.079   5.093
18176TIP3    H276020   4.992   3.027   4.988
18177TIP3   OH276021   5.159   3.202   3.913
18177TIP3    H176022   5.189   3.157   3.994
18177TIP3    H276023   5.063   3.186   3.923
18178TIP3   OH276024   5.203   3.557   5.256
18178TIP3    H176025   5.139   3.505   5.205
18178TIP3    H276026   5.229   3.625   5.190
18179TIP3   OH276027   5.606   3.642   3.934
18179TIP3    H176028   5.678   3.706   3.921
18179TIP3    H276029   5.535   3.701   3.968
18180TIP3   OH276030   4.015   2.282   5.195
18180TIP3    H176031   3.923   2.316   5.188
18180TIP3    H276032   4.002   2.195   5.235
18181TIP3   OH276033   5.238   3.067   4.137
18181TIP3    H176034   5.215   2.989   4.192
18181TIP3    H276035   5.333   3.073   4.156
18182TIP3   OH276036   3.977   3.460   5.036
18182TIP3    H176037   4.004   3.367   5.036
18182TIP3    H276038   4.003   3.488   5.125
18183TIP3   OH276039   4.571   3.311   3.761
18183TIP3    H176040   4.585   3.233   3.704
18183TIP3    H276041   4.532   3.267   3.840
18184TIP3   OH276042   4.453   3.264   4.007
18184TIP3    H176043   4.476   3.212   4.085
18184TIP3    H276044   4.459   3.357   4.039
18185TIP3   OH276045   4.104   2.988   4.056
18185TIP3    H176046   4.034   3.027   4.112
18185TIP3    H276047   4.156   3.067   4.029
18186TIP3   OH276048   4.887   2.258   5.086
18186TIP3    H176049   4.958   2.263   5.151
18186TIP3    H276050   4.849   2.169   5.105
18187TIP3   OH276051   4.963   2.216   4.196
18187TIP3    H176052   4.986   2.264   4.114
18187TIP3    H276053   5.021   2.259   4.260
18188TIP3   OH276054   4.732   3.431   4.079
18188TIP3    H176055   4.650   3.484   4.085
18188TIP3    H276056   4.785   3.484   4.017
18189TIP3   OH276057   4.685   2.391   4.278
18189TIP3    H176058   4.765   2.447   4.283
18189TIP3    H276059   4.659   2.378   4.371
18190TIP3   OH276060   4.739   2.491   5.198
18190TIP3    H176061   4.749   2.550   5.275
18190TIP3    H276062   4.807   2.423   5.206
18191TIP3   OH276063   4.771   2.097   4.369
18191TIP3    H176064   4.738   2.162   4.434
18191TIP3    H276065   4.839   2.151   4.323
18192TIP3   OH276066   4.469   3.535   4.080
18192TIP3    H176067   4.481   3.617   4.026
18192TIP3    H276068   4.444   3.570   4.168
18193TIP3   OH276069   4.336   2.206   4.039
18193TIP3    H176070   4.331   2.297   4.076
18193TIP3    H276071   4.427   2.182   4.064
18194TIP3   OH276072   5.360   2.280   5.282
18194TIP3    H176073   5.267   2.310   5.270
18194TIP3    H276074   5.390   2.280   5.190
18195TIP3   OH276075   5.219   2.658   4.685
18195TIP3    H176076   5.137   2.615   4.656
18195TIP3    H276077   5.266   2.589   4.736
18196TIP3   OH276078   4.160   3.250   3.944
18196TIP3    H176079   4.225   3.316   3.973
18196TIP3    H276080   4.212   3.205   3.874
18197TIP3   OH276081   3.995   2.517   3.857
18197TIP3    H176082   3.994   2.613   3.877
18197TIP3    H276083   3.906   2.497   3.827
18198TIP3   OH276084   5.326   3.583   4.851
18198TIP3    H176085   5.316   3.652   4.783
18198TIP3    H276086   5.422   3.590   4.870
18199TIP3   OH276087   4.076   1.996   4.729
18199TIP3    H176088   4.055   1.999   4.633
18199TIP3    H276089   4.033   1.913   4.756
18200TIP3   OH276090   3.971   3.388   4.344
18200TIP3    H176091   3.886   3.435   4.342
18200TIP3    H276092   4.021   3.437   4.277
18201TIP3   OH276093   3.896   3.654   5.475
18201TIP3    H176094   3.954   3.631   5.550
18201TIP3    H276095   3.850   3.570   5.456
18202TIP3   OH276096   4.359   3.545   5.631
18202TIP3    H176097   4.432   3.495   5.672
18202TIP3    H276098   4.357   3.516   5.540
18203TIP3   OH276099   4.771   3.496   3.774
18203TIP3    H176100   4.704   3.430   3.801
18203TIP3    H276101   4.844   3.438   3.750
18204TIP3   OH276102   5.013   3.383   5.508
18204TIP3    H176103   4.979   3.295   5.537
18204TIP3    H276104   5.089   3.395   5.568
18205TIP3   OH276105   5.229   3.472   3.794
18205TIP3    H176106   5.258   3.394   3.843
18205TIP3    H276107   5.304   3.496   3.739
18206TIP3   OH276108   4.319   3.066   3.778
18206TIP3    H176109   4.331   2.988   3.834
18206TIP3    H276110   4.391   3.053   3.714
18207TIP3   OH276111   4.561   3.029   5.510
18207TIP3    H176112   4.520   3.059   5.427
18207TIP3    H276113   4.563   2.931   5.503
18208TIP3   OH276114   4.860   3.175   3.754
18208TIP3    H176115   4.833   3.185   3.846
18208TIP3    H276116   4.840   3.079   3.741
18209TIP3   OH276117   5.125   3.017   5.252
18209TIP3    H176118   5.203   3.076   5.242
18209TIP3    H276119   5.053   3.081   5.255
18210TIP3   OH276120   3.972   2.753   5.511
18210TIP3    H176121   4.015   2.668   5.500
18210TIP3    H276122   3.950   2.753   5.605
18211TIP3   OH276123   4.438   2.866   4.016
18211TIP3    H176124   4.390   2.813   4.081
18211TIP3    H276125   4.466   2.798   3.951
18212TIP3   OH276126   4.365   2.649   5.248
18212TIP3    H176127   4.305   2.720   5.275
18212TIP3    H276128   4.403   2.685   5.166
18213TIP3   OH276129   4.545   2.688   3.839
18213TIP3    H176130   4.529   2.677   3.743
18213TIP3    H276131   4.643   2.696   3.844
18214TIP3   OH276132   4.871   2.903   5.579
18214TIP3    H176133   4.967   2.906   5.574
18214TIP3    H276134   4.853   2.830   5.639
18215TIP3   OH276135   5.481   2.922   3.782
18215TIP3    H176136   5.458   2.882   3.696
18215TIP3    H276137   5.488   3.018   3.761
18216TIP3   OH276138   4.405   2.386   5.356
18216TIP3    H176139   4.416   2.315   5.289
18216TIP3    H276140   4.401   2.467   5.299
18217TIP3   OH276141   4.444   2.224   5.109
18217TIP3    H176142   4.496   2.270   5.039
18217TIP3    H276143   4.356   2.215   5.065
18218TIP3   OH276144   4.600   2.770   5.132
18218TIP3    H176145   4.675   2.755   5.074
18218TIP3    H276146   4.565   2.855   5.101
18219TIP3   OH276147   5.038   2.548   5.632
18219TIP3    H176148   5.065   2.456   5.621
18219TIP3    H276149   5.125   2.593   5.633
18220TIP3   OH276150   5.173   2.827   5.442
18220TIP3    H176151   5.148   2.901   5.382
18220TIP3    H276152   5.269   2.824   5.425
18221TIP3   OH276153   4.252   2.506   5.552
18221TIP3    H176154   4.173   2.455   5.527
18221TIP3    H276155   4.316   2.478   5.484
18222TIP3   OH276156   4.524   1.968   5.149
18222TIP3    H176157   4.509   2.065   5.137
18222TIP3    H276158   4.449   1.932   5.099
18223TIP3   OH276159   4.654   2.393   5.509
18223TIP3    H176160   4.617   2.382   5.598
18223TIP3    H276161   4.572   2.383   5.454
18224TIP3   OH276162   4.922   2.316   5.418
18224TIP3    H176163   4.825   2.319   5.427
18224TIP3    H276164   4.952   2.250   5.482
18225TIP3   OH276165   5.074   2.179   5.613
18225TIP3    H176166   5.080   2.080   5.613
18225TIP3    H276167   5.061   2.202   5.705
18226TIP3   OH276168   4.065   2.301   5.520
18226TIP3    H176169   4.086   2.230   5.457
18226TIP3    H276170   4.052   2.258   5.604
18227TIP3   OH276171   4.547   1.906   5.417
18227TIP3    H176172   4.614   1.834   5.414
18227TIP3    H276173   4.534   1.922   5.322
18228TIP3   OH276174   4.580   2.074   5.617
18228TIP3    H176175   4.564   2.016   5.539
18228TIP3    H276176   4.517   2.145   5.612
18229TIP3   OH276177   4.530   3.758   3.944
18229TIP3    H176178   4.627   3.770   3.952
18229TIP3    H276179   4.513   3.821   3.874
18230TIP3   OH276180   3.886   3.218   3.891
18230TIP3    H176181   3.983   3.227   3.912
18230TIP3    H276182   3.891   3.152   3.819
18231TIP3   OH276183   3.761   3.757   4.391
18231TIP3    H176184   3.691   3.708   4.343
18231TIP3    H276185   3.791   3.690   4.455
18232TIP3   OH276186   3.845   3.568   4.576
18232TIP3    H176187   3.810   3.480   4.595
18232TIP3    H276188   3.867   3.602   4.664
18233TIP3   OH276189   5.598   3.648   4.870
18233TIP3    H176190   5.599   3.665   4.966
18233TIP3    H276191   5.669   3.706   4.840
18234TIP3   OH276192   5.559   3.607   5.162
18234TIP3    H176193   5.508   3.531   5.128
18234TIP3    H276194   5.606   3.564   5.235
18235TIP3   OH276195   5.401   3.181   5.630
18235TIP3    H176196   5.313   3.175   5.669
18235TIP3    H276197   5.435   3.260   5.673
18236TIP3   OH276198   5.531   3.012   4.177
18236TIP3    H176199   5.617   3.052   4.194
18236TIP3    H276200   5.531   2.939   4.242
18237TIP3   OH276201   5.568   2.819   4.363
18237TIP3    H176202   5.494   2.769   4.403
18237TIP3    H276203   5.628   2.835   4.439
18238TIP3   OH276204   5.544   3.091   4.861
18238TIP3    H176205   5.627   3.054   4.826
18238TIP3    H276206   5.558   3.186   4.845
18239TIP3   OH276207   5.398   3.381   5.089
18239TIP3    H176208   5.330   3.415   5.150
18239TIP3    H276209   5.343   3.339   5.019
18240TIP3   OH276210   5.598   2.803   4.003
18240TIP3    H176211   5.542   2.839   3.931
18240TIP3    H276212   5.590   2.874   4.069
18241TIP3   OH276213   5.435   2.527   3.855
18241TIP3    H176214   5.442   2.594   3.786
18241TIP3    H276215   5.417   2.444   3.806
18242TIP3   OH276216   5.349   2.668   4.420
18242TIP3    H176217   5.334   2.572   4.417
18242TIP3    H276218   5.315   2.692   4.507
18243TIP3   OH276219   3.850   2.876   4.825
18243TIP3    H176220   3.869   2.868   4.729
18243TIP3    H276221   3.939   2.860   4.862
18244TIP3   OH276222   5.434   2.865   5.388
18244TIP3    H176223   5.495   2.789   5.404
18244TIP3    H276224   5.495   2.941   5.388
18245TIP3   OH276225   5.585   2.655   5.451
18245TIP3    H176226   5.497   2.615   5.437
18245TIP3    H276227   5.643   2.577   5.445
18246TIP3   OH276228   5.359   2.274   3.771
18246TIP3    H176229   5.418   2.229   3.833
18246TIP3    H276230   5.273   2.229   3.784
18247TIP3   OH276231   5.316   2.426   4.263
18247TIP3    H176232   5.347   2.334   4.278
18247TIP3    H276233   5.397   2.467   4.230
18248TIP3   OH276234   5.380   2.481   4.810
18248TIP3    H176235   5.476   2.504   4.808
18248TIP3    H276236   5.360   2.495   4.904
18249TIP3   OH276237   5.387   2.554   5.089
18249TIP3    H176238   5.299   2.583   5.122
18249TIP3    H276239   5.430   2.640   5.066
18250TIP3   OH276240   3.811   2.404   5.438
18250TIP3    H176241   3.905   2.388   5.459
18250TIP3    H276242   3.765   2.324   5.471
18251TIP3   OH276243   5.383   2.154   4.271
18251TIP3    H176244   5.403   2.109   4.355
18251TIP3    H276245   5.322   2.092   4.226
18252TIP3   OH276246   3.932   2.235   4.726
18252TIP3    H176247   3.978   2.153   4.753
18252TIP3    H276248   3.984   2.305   4.766
18253TIP3   OH276249   3.761   2.534   4.831
18253TIP3    H176250   3.816   2.511   4.753
18253TIP3    H276251   3.805   2.616   4.857
18254TIP3   OH276252   5.568   2.170   5.458
18254TIP3    H176253   5.473   2.193   5.453
18254TIP3    H276254   5.573   2.112   5.381
18255TIP3   OH276255   5.566   2.158   3.926
18255TIP3    H176256   5.608   2.087   3.874
18255TIP3    H276257   5.636   2.225   3.931
18256TIP3   OH276258   3.797   2.162   4.238
18256TIP3    H176259   3.703   2.180   4.223
18256TIP3    H276260   3.840   2.210   4.166
18257TIP3   OH276261   5.271   3.657   4.432
18257TIP3    H176262   5.339   3.625   4.370
18257TIP3    H276263   5.323   3.706   4.496
18258TIP3   OH276264   3.792   2.029   5.069
18258TIP3    H176265   3.725   2.008   5.135
18258TIP3    H276266   3.746   2.095   5.013
18259TIP3   OH276267   4.011   3.344   5.484
18259TIP3    H176268   3.929   3.370   5.440
18259TIP3    H276269   3.990   3.346   5.578
18260TIP3   OH276270   4.305   3.447   5.111
18260TIP3    H176271   4.270   3.532   5.083
18260TIP3    H276272   4.398   3.457   5.081
18261TIP3   OH276273   4.739   3.589   5.404
18261TIP3    H176274   4.755   3.554   5.495
18261TIP3    H276275   4.828   3.619   5.377
18262TIP3   OH276276   4.968   3.717   5.334
18262TIP3    H176277   5.039   3.656   5.307
18262TIP3    H276278   5.009   3.758   5.411
18263TIP3   OH276279   5.468   1.979   5.239
18263TIP3    H176280   5.383   2.007   5.201
18263TIP3    H276281   5.485   1.896   5.189
18264TIP3   OH276282   4.049   3.772   5.113
18264TIP3    H176283   3.975   3.820   5.071
18264TIP3    H276284   4.015   3.751   5.201
18265TIP3   OH276285   4.296   3.732   5.019
18265TIP3    H176286   4.206   3.742   5.058
18265TIP3    H276287   4.287   3.786   4.939
18266TIP3   OH276288   4.766   3.720   4.936
18266TIP3    H176289   4.720   3.774   4.870
18266TIP3    H276290   4.780   3.783   5.009
18267TIP3   OH276291   4.995   3.604   5.036
18267TIP3    H176292   4.908   3.628   5.002
18267TIP3    H276293   5.041   3.689   5.026
18268TIP3   OH276294   5.254   3.761   5.062
18268TIP3    H176295   5.245   3.856   5.037
18268TIP3    H276296   5.274   3.724   4.974
18269TIP3   OH276297   3.991   3.637   4.806
18269TIP3    H176298   3.986   3.591   4.892
18269TIP3    H276299   4.073   3.600   4.766
18270TIP3   OH276300   4.201   3.508   4.671
18270TIP3    H176301   4.183   3.414   4.692
18270TIP3    H276302   4.286   3.522   4.717
18271TIP3   OH276303   4.460   3.556   4.758
18271TIP3    H176304   4.478   3.464   4.731
18271TIP3    H276305   4.465   3.549   4.854
18272TIP3   OH276306   4.807   2.121   4.673
18272TIP3    H176307   4.739   2.056   4.699
18272TIP3    H276308   4.863   2.069   4.613
18273TIP3   OH276309   5.321   1.927   4.681
18273TIP3    H176310   5.382   1.985   4.630
18273TIP3    H276311   5.233   1.962   4.656
18274TIP3   OH276312   5.489   2.049   4.510
18274TIP3    H176313   5.557   1.993   4.465
18274TIP3    H276314   5.537   2.134   4.518
18275TIP3   OH276315   4.043   1.984   4.456
18275TIP3    H176316   3.964   1.962   4.404
18275TIP3    H276317   4.091   1.899   4.452
18276TIP3   OH276318   3.922   1.960   4.031
18276TIP3    H176319   3.969   2.025   3.976
18276TIP3    H276320   3.863   2.017   4.083
18277TIP3   OH276321   4.493   1.976   4.435
18277TIP3    H176322   4.583   2.013   4.430
18277TIP3    H276323   4.487   1.955   4.528
18278TIP3   OH276324   5.060   1.978   4.599
18278TIP3    H176325   5.059   1.988   4.503
18278TIP3    H276326   5.024   1.887   4.612
18279TIP3   OH276327   5.190   1.982   4.167
18279TIP3    H176328   5.116   2.042   4.149
18279TIP3    H276329   5.145   1.896   4.187
18280TIP3   OH276330   3.913   3.555   4.129
18280TIP3    H176331   3.846   3.554   4.059
18280TIP3    H276332   3.912   3.649   4.150
18281TIP3   OH276333   4.106   2.154   3.878
18281TIP3    H176334   4.159   2.091   3.828
18281TIP3    H276335   4.170   2.185   3.945
18282TIP3   OH276336   4.608   2.179   4.121
18282TIP3    H176337   4.631   2.120   4.194
18282TIP3    H276338   4.611   2.265   4.169
18283TIP3   OH276339   4.799   3.683   3.966
18283TIP3    H176340   4.890   3.711   3.944
18283TIP3    H276341   4.777   3.634   3.883
18284TIP3   OH276342   5.471   3.635   4.236
18284TIP3    H176343   5.451   3.558   4.178
18284TIP3    H276344   5.464   3.710   4.172
18285TIP3   OH276345   4.034   2.038   5.410
18285TIP3    H176346   3.996   1.955   5.445
18285TIP3    H276347   4.128   2.032   5.430
18286TIP3   OH276348   4.093   3.652   3.826
18286TIP3    H176349   4.067   3.678   3.915
18286TIP3    H276350   4.171   3.595   3.842
18287TIP3   OH276351   5.074   1.907   5.581
18287TIP3    H176352   5.083   1.858   5.665
18287TIP3    H276353   5.166   1.901   5.545
18288TIP3   OH276354   5.396   3.509   5.444
18288TIP3    H176355   5.313   3.495   5.394
18288TIP3    H276356   5.384   3.602   5.470
18289TIP3   OH276357   6.837   2.897   4.445
18289TIP3    H176358   6.840   2.995   4.438
18289TIP3    H276359   6.767   2.873   4.383
18290TIP3   OH276360   6.725   2.824   4.793
18290TIP3    H176361   6.722   2.758   4.864
18290TIP3    H276362   6.692   2.774   4.716
18291TIP3   OH276363   5.960   2.789   4.948
18291TIP3    H176364   5.968   2.722   5.020
18291TIP3    H276365   6.034   2.848   4.970
18292TIP3   OH276366   7.094   3.117   4.621
18292TIP3    H176367   7.052   3.045   4.670
18292TIP3    H276368   7.098   3.187   4.688
18293TIP3   OH276369   6.053   3.234   4.801
18293TIP3    H176370   6.020   3.149   4.767
18293TIP3    H276371   6.148   3.215   4.805
18294TIP3   OH276372   5.717   2.592   4.346
18294TIP3    H176373   5.672   2.679   4.341
18294TIP3    H276374   5.660   2.538   4.291
18295TIP3   OH276375   5.787   2.814   4.560
18295TIP3    H176376   5.813   2.733   4.607
18295TIP3    H276377   5.859   2.823   4.495
18296TIP3   OH276378   6.808   3.633   4.644
18296TIP3    H176379   6.871   3.562   4.616
18296TIP3    H276380   6.786   3.602   4.732
18297TIP3   OH276381   6.562   3.065   4.837
18297TIP3    H176382   6.596   3.000   4.773
18297TIP3    H276383   6.641   3.079   4.892
18298TIP3   OH276384   6.878   2.510   4.869
18298TIP3    H176385   6.895   2.414   4.869
18298TIP3    H276386   6.868   2.525   4.773
18299TIP3   OH276387   6.191   2.318   4.593
18299TIP3    H176388   6.200   2.403   4.546
18299TIP3    H276389   6.150   2.261   4.525
18300TIP3   OH276390   6.965   2.330   4.431
18300TIP3    H176391   7.031   2.296   4.496
18300TIP3    H276392   7.020   2.383   4.373
18301TIP3   OH276393   5.853   2.559   4.667
18301TIP3    H176394   5.921   2.504   4.711
18301TIP3    H276395   5.862   2.529   4.576
18302TIP3   OH276396   6.370   2.715   4.596
18302TIP3    H176397   6.435   2.657   4.639
18302TIP3    H276398   6.316   2.648   4.548
18303TIP3   OH276399   6.079   2.208   4.998
18303TIP3    H176400   6.053   2.265   4.922
18303TIP3    H276401   6.011   2.232   5.065
18304TIP3   OH276402   6.810   3.157   4.352
18304TIP3    H176403   6.783   3.128   4.264
18304TIP3    H276404   6.779   3.250   4.357
18305TIP3   OH276405   6.333   2.973   5.023
18305TIP3    H176406   6.261   3.037   5.041
18305TIP3    H276407   6.403   3.033   4.994
18306TIP3   OH276408   7.129   2.260   4.635
18306TIP3    H176409   7.121   2.180   4.687
18306TIP3    H276410   7.203   2.306   4.679
18307TIP3   OH276411   6.036   2.395   4.798
18307TIP3    H176412   6.099   2.463   4.831
18307TIP3    H276413   6.089   2.352   4.727
18308TIP3   OH276414   6.176   3.173   5.104
18308TIP3    H176415   6.172   3.264   5.069
18308TIP3    H276416   6.088   3.165   5.148
18309TIP3   OH276417   5.785   3.136   4.184
18309TIP3    H176418   5.759   3.166   4.095
18309TIP3    H276419   5.792   3.220   4.232
18310TIP3   OH276420   7.138   3.298   4.860
18310TIP3    H176421   7.043   3.311   4.872
18310TIP3    H276422   7.172   3.388   4.841
18311TIP3   OH276423   7.170   2.136   4.988
18311TIP3    H176424   7.097   2.200   4.989
18311TIP3    H276425   7.241   2.182   4.940
18312TIP3   OH276426   6.477   1.941   4.744
18312TIP3    H176427   6.464   1.845   4.737
18312TIP3    H276428   6.389   1.972   4.773
18313TIP3   OH276429   6.969   3.477   4.518
18313TIP3    H176430   7.016   3.408   4.468
18313TIP3    H276431   7.011   3.557   4.479
18314TIP3   OH276432   7.091   3.271   4.366
18314TIP3    H176433   7.063   3.199   4.308
18314TIP3    H276434   7.097   3.223   4.452
18315TIP3   OH276435   7.235   3.140   5.223
18315TIP3    H176436   7.267   3.073   5.159
18315TIP3    H276437   7.276   3.219   5.184
18316TIP3   OH276438   6.705   2.822   4.196
18316TIP3    H176439   6.634   2.878   4.159
18316TIP3    H276440   6.775   2.830   4.128
18317TIP3   OH276441   6.711   2.675   3.897
18317TIP3    H176442   6.782   2.674   3.962
18317TIP3    H276443   6.743   2.606   3.836
18318TIP3   OH276444   7.048   2.844   4.286
18318TIP3    H176445   6.974   2.868   4.347
18318TIP3    H276446   7.094   2.775   4.339
18319TIP3   OH276447   7.037   2.657   5.197
18319TIP3    H176448   7.042   2.738   5.251
18319TIP3    H276449   6.977   2.690   5.128
18320TIP3   OH276450   6.210   2.909   4.478
18320TIP3    H176451   6.178   2.869   4.394
18320TIP3    H276452   6.271   2.839   4.512
18321TIP3   OH276453   6.344   3.249   4.746
18321TIP3    H176454   6.340   3.193   4.667
18321TIP3    H276455   6.421   3.211   4.793
18322TIP3   OH276456   6.244   2.783   4.843
18322TIP3    H176457   6.301   2.794   4.764
18322TIP3    H276458   6.281   2.849   4.906
18323TIP3   OH276459   6.880   3.339   4.914
18323TIP3    H176460   6.856   3.402   4.981
18323TIP3    H276461   6.859   3.253   4.957
18324TIP3   OH276462   6.338   3.225   5.314
18324TIP3    H176463   6.299   3.301   5.362
18324TIP3    H276464   6.270   3.207   5.244
18325TIP3   OH276465   6.936   2.760   4.054
18325TIP3    H176466   6.991   2.779   4.134
18325TIP3    H276467   6.978   2.810   3.981
18326TIP3   OH276468   6.031   2.843   5.230
18326TIP3    H176469   6.036   2.908   5.303
18326TIP3    H276470   5.938   2.853   5.207
18327TIP3   OH276471   6.707   3.434   4.401
18327TIP3    H176472   6.751   3.464   4.481
18327TIP3    H276473   6.651   3.509   4.377
18328TIP3   OH276474   6.160   3.432   5.388
18328TIP3    H176475   6.158   3.418   5.292
18328TIP3    H276476   6.067   3.417   5.415
18329TIP3   OH276477   7.284   1.930   4.029
18329TIP3    H176478   7.199   1.954   4.071
18329TIP3    H276479   7.320   2.013   3.998
18330TIP3   OH276480   6.108   2.811   4.240
18330TIP3    H176481   6.079   2.890   4.188
18330TIP3    H276482   6.042   2.745   4.218
18331TIP3   OH276483   5.717   3.053   5.126
18331TIP3    H176484   5.670   3.045   5.041
18331TIP3    H276485   5.722   2.958   5.150
18332TIP3   OH276486   5.693   3.327   4.807
18332TIP3    H176487   5.788   3.315   4.805
18332TIP3    H276488   5.684   3.408   4.859
18333TIP3   OH276489   6.612   3.352   5.262
18333TIP3    H176490   6.619   3.436   5.313
18333TIP3    H276491   6.524   3.317   5.288
18334TIP3   OH276492   6.656   3.726   4.243
18334TIP3    H176493   6.645   3.717   4.146
18334TIP3    H276494   6.657   3.823   4.256
18335TIP3   OH276495   6.019   3.613   4.423
18335TIP3    H176496   6.034   3.572   4.511
18335TIP3    H276497   5.934   3.573   4.399
18336TIP3   OH276498   6.964   3.648   3.941
18336TIP3    H176499   7.004   3.569   3.896
18336TIP3    H276500   6.964   3.619   4.035
18337TIP3   OH276501   6.931   3.640   4.218
18337TIP3    H176502   6.835   3.647   4.236
18337TIP3    H276503   6.956   3.567   4.276
18338TIP3   OH276504   7.227   2.544   5.424
18338TIP3    H176505   7.185   2.590   5.350
18338TIP3    H276506   7.233   2.452   5.392
18339TIP3   OH276507   5.944   3.185   5.223
18339TIP3    H176508   5.966   3.148   5.312
18339TIP3    H276509   5.858   3.145   5.202
18340TIP3   OH276510   6.211   2.031   4.820
18340TIP3    H176511   6.121   2.020   4.782
18340TIP3    H276512   6.200   2.115   4.866
18341TIP3   OH276513   6.675   2.001   5.157
18341TIP3    H176514   6.715   1.958   5.235
18341TIP3    H276515   6.578   1.986   5.170
18342TIP3   OH276516   7.003   2.380   5.244
18342TIP3    H176517   6.949   2.363   5.324
18342TIP3    H276518   6.988   2.473   5.222
18343TIP3   OH276519   7.081   2.862   3.828
18343TIP3    H176520   7.083   2.842   3.731
18343TIP3    H276521   7.164   2.908   3.838
18344TIP3   OH276522   6.641   2.256   3.886
18344TIP3    H176523   6.610   2.251   3.978
18344TIP3    H276524   6.610   2.168   3.856
18345TIP3   OH276525   6.221   2.528   4.940
18345TIP3    H176526   6.149   2.526   5.006
18345TIP3    H276527   6.218   2.620   4.907
18346TIP3   OH276528   6.217   2.544   4.428
18346TIP3    H176529   6.125   2.516   4.416
18346TIP3    H276530   6.257   2.512   4.345
18347TIP3   OH276531   6.771   2.591   4.307
18347TIP3    H176532   6.730   2.673   4.272
18347TIP3    H276533   6.841   2.575   4.242
18348TIP3   OH276534   6.679   2.609   5.448
18348TIP3    H176535   6.623   2.537   5.485
18348TIP3    H276536   6.760   2.600   5.501
18349TIP3   OH276537   6.873   2.540   4.591
18349TIP3    H176538   6.848   2.596   4.516
18349TIP3    H276539   6.884   2.455   4.544
18350TIP3   OH276540   5.986   2.557   5.114
18350TIP3    H176541   5.990   2.597   5.202
18350TIP3    H276542   5.940   2.473   5.131
18351TIP3   OH276543   6.324   2.295   3.797
18351TIP3    H176544   6.279   2.252   3.873
18351TIP3    H276545   6.252   2.336   3.748
18352TIP3   OH276546   5.650   2.268   4.508
18352TIP3    H176547   5.717   2.264   4.579
18352TIP3    H276548   5.696   2.227   4.432
18353TIP3   OH276549   5.778   2.339   4.046
18353TIP3    H176550   5.827   2.401   3.989
18353TIP3    H276551   5.708   2.400   4.078
18354TIP3   OH276552   6.795   2.699   5.049
18354TIP3    H176553   6.831   2.632   4.988
18354TIP3    H276554   6.749   2.646   5.116
18355TIP3   OH276555   6.473   2.295   4.531
18355TIP3    H176556   6.380   2.297   4.561
18355TIP3    H276557   6.523   2.282   4.613
18356TIP3   OH276558   5.956   2.453   4.417
18356TIP3    H176559   5.866   2.466   4.379
18356TIP3    H276560   5.984   2.369   4.378
18357TIP3   OH276561   6.320   2.455   4.180
18357TIP3    H176562   6.415   2.467   4.197
18357TIP3    H276563   6.297   2.524   4.114
18358TIP3   OH276564   6.913   2.217   4.855
18358TIP3    H176565   6.845   2.226   4.925
18358TIP3    H276566   6.862   2.198   4.775
18359TIP3   OH276567   6.189   2.574   3.939
18359TIP3    H176568   6.136   2.536   3.867
18359TIP3    H276569   6.272   2.594   3.892
18360TIP3   OH276570   7.233   3.785   5.488
18360TIP3    H176571   7.261   3.823   5.403
18360TIP3    H276572   7.305   3.816   5.545
18361TIP3   OH276573   6.003   3.031   5.444
18361TIP3    H176574   6.073   3.057   5.505
18361TIP3    H276575   5.924   3.045   5.501
18362TIP3   OH276576   6.603   2.571   4.720
18362TIP3    H176577   6.663   2.517   4.667
18362TIP3    H276578   6.589   2.517   4.799
18363TIP3   OH276579   6.104   2.186   4.364
18363TIP3    H176580   6.073   2.094   4.361
18363TIP3    H276581   6.183   2.181   4.308
18364TIP3   OH276582   6.467   2.406   4.961
18364TIP3    H176583   6.384   2.456   4.971
18364TIP3    H276584   6.521   2.439   5.035
18365TIP3   OH276585   6.525   3.028   4.130
18365TIP3    H176586   6.446   2.980   4.098
18365TIP3    H276587   6.505   3.037   4.226
18366TIP3   OH276588   7.230   2.947   5.011
18366TIP3    H176589   7.295   2.978   4.945
18366TIP3    H276590   7.148   2.953   4.959
18367TIP3   OH276591   6.909   2.309   3.948
18367TIP3    H176592   6.813   2.323   3.935
18367TIP3    H276593   6.939   2.396   3.983
18368TIP3   OH276594   6.674   3.052   5.254
18368TIP3    H176595   6.640   3.011   5.335
18368TIP3    H276596   6.652   3.145   5.264
18369TIP3   OH276597   6.981   2.500   4.110
18369TIP3    H176598   7.069   2.487   4.151
18369TIP3    H276599   6.989   2.583   4.061
18370TIP3   OH276600   6.036   2.965   4.711
18370TIP3    H176601   6.106   2.959   4.644
18370TIP3    H276602   6.042   2.879   4.756
18371TIP3   OH276603   6.736   3.175   4.034
18371TIP3    H176604   6.702   3.259   4.071
18371TIP3    H276605   6.662   3.113   4.055
18372TIP3   OH276606   5.735   2.807   5.237
18372TIP3    H176607   5.754   2.763   5.323
18372TIP3    H276608   5.674   2.745   5.195
18373TIP3   OH276609   6.436   2.764   5.456
18373TIP3    H176610   6.406   2.735   5.369
18373TIP3    H276611   6.528   2.732   5.459
18374TIP3   OH276612   6.901   3.294   5.249
18374TIP3    H176613   6.810   3.314   5.226
18374TIP3    H276614   6.902   3.324   5.342
18375TIP3   OH276615   7.292   3.397   4.128
18375TIP3    H176616   7.262   3.313   4.165
18375TIP3    H276617   7.332   3.377   4.043
18376TIP3   OH276618   7.016   2.878   4.840
18376TIP3    H176619   6.922   2.855   4.828
18376TIP3    H276620   7.063   2.802   4.799
18377TIP3   OH276621   6.273   3.312   4.449
18377TIP3    H176622   6.324   3.392   4.428
18377TIP3    H276623   6.185   3.335   4.417
18378TIP3   OH276624   5.849   2.796   3.906
18378TIP3    H176625   5.908   2.862   3.946
18378TIP3    H276626   5.761   2.828   3.933
18379TIP3   OH276627   6.416   3.078   4.402
18379TIP3    H176628   6.386   3.171   4.411
18379TIP3    H276629   6.342   3.031   4.446
18380TIP3   OH276630   6.461   3.496   5.041
18380TIP3    H176631   6.505   3.578   5.014
18380TIP3    H276632   6.521   3.463   5.110
18381TIP3   OH276633   6.283   3.578   4.356
18381TIP3    H176634   6.186   3.592   4.367
18381TIP3    H276635   6.319   3.662   4.391
18382TIP3   OH276636   6.816   3.099   5.005
18382TIP3    H176637   6.779   3.079   5.093
18382TIP3    H276638   6.878   3.026   4.988
18383TIP3   OH276639   7.045   3.202   3.914
18383TIP3    H176640   7.074   3.157   3.995
18383TIP3    H276641   6.949   3.186   3.922
18384TIP3   OH276642   7.090   3.557   5.255
18384TIP3    H176643   7.026   3.504   5.204
18384TIP3    H276644   7.115   3.625   5.188
18385TIP3   OH276645   5.901   2.282   5.194
18385TIP3    H176646   5.809   2.315   5.188
18385TIP3    H276647   5.889   2.195   5.236
18386TIP3   OH276648   7.124   3.065   4.137
18386TIP3    H176649   7.100   2.988   4.193
18386TIP3    H276650   7.218   3.073   4.158
18387TIP3   OH276651   5.863   3.460   5.035
18387TIP3    H176652   5.889   3.367   5.036
18387TIP3    H276653   5.888   3.487   5.125
18388TIP3   OH276654   6.456   3.311   3.761
18388TIP3    H176655   6.470   3.233   3.704
18388TIP3    H276656   6.418   3.267   3.840
18389TIP3   OH276657   6.339   3.264   4.007
18389TIP3    H176658   6.361   3.212   4.085
18389TIP3    H276659   6.345   3.357   4.039
18390TIP3   OH276660   5.990   2.989   4.056
18390TIP3    H176661   5.919   3.027   4.112
18390TIP3    H276662   6.041   3.067   4.029
18391TIP3   OH276663   6.772   2.257   5.087
18391TIP3    H176664   6.845   2.263   5.150
18391TIP3    H276665   6.734   2.169   5.104
18392TIP3   OH276666   6.850   2.215   4.195
18392TIP3    H176667   6.873   2.264   4.113
18392TIP3    H276668   6.906   2.258   4.261
18393TIP3   OH276669   6.617   3.431   4.079
18393TIP3    H176670   6.535   3.484   4.085
18393TIP3    H276671   6.670   3.484   4.017
18394TIP3   OH276672   6.571   2.391   4.278
18394TIP3    H176673   6.650   2.447   4.283
18394TIP3    H276674   6.545   2.378   4.371
18395TIP3   OH276675   6.625   2.491   5.196
18395TIP3    H176676   6.634   2.549   5.275
18395TIP3    H276677   6.691   2.422   5.208
18396TIP3   OH276678   6.654   2.097   4.368
18396TIP3    H176679   6.625   2.162   4.434
18396TIP3    H276680   6.724   2.151   4.323
18397TIP3   OH276681   6.355   3.535   4.080
18397TIP3    H176682   6.367   3.617   4.026
18397TIP3    H276683   6.330   3.570   4.168
18398TIP3   OH276684   6.222   2.206   4.039
18398TIP3    H176685   6.217   2.297   4.076
18398TIP3    H276686   6.313   2.182   4.064
18399TIP3   OH276687   7.247   2.283   5.282
18399TIP3    H176688   7.153   2.310   5.270
18399TIP3    H276689   7.275   2.281   5.190
18400TIP3   OH276690   7.106   2.659   4.688
18400TIP3    H176691   7.024   2.616   4.656
18400TIP3    H276692   7.147   2.586   4.737
18401TIP3   OH276693   6.046   3.251   3.943
18401TIP3    H176694   6.111   3.316   3.973
18401TIP3    H276695   6.098   3.205   3.874
18402TIP3   OH276696   5.880   2.517   3.857
18402TIP3    H176697   5.880   2.613   3.877
18402TIP3    H276698   5.791   2.498   3.827
18403TIP3   OH276699   7.215   3.583   4.851
18403TIP3    H176700   7.199   3.653   4.784
18403TIP3    H276701   7.309   3.593   4.871
18404TIP3   OH276702   5.962   1.996   4.729
18404TIP3    H176703   5.940   1.999   4.633
18404TIP3    H276704   5.919   1.913   4.756
18405TIP3   OH276705   5.857   3.388   4.344
18405TIP3    H176706   5.772   3.435   4.342
18405TIP3    H276707   5.907   3.437   4.277
18406TIP3   OH276708   6.244   3.543   5.635
18406TIP3    H176709   6.322   3.496   5.667
18406TIP3    H276710   6.242   3.517   5.541
18407TIP3   OH276711   6.657   3.496   3.774
18407TIP3    H176712   6.589   3.430   3.801
18407TIP3    H276713   6.730   3.437   3.750
18408TIP3   OH276714   6.898   3.383   5.509
18408TIP3    H176715   6.866   3.294   5.535
18408TIP3    H276716   6.976   3.394   5.567
18409TIP3   OH276717   7.112   3.474   3.796
18409TIP3    H176718   7.141   3.394   3.842
18409TIP3    H276719   7.188   3.495   3.739
18410TIP3   OH276720   5.772   3.031   5.570
18410TIP3    H176721   5.786   2.938   5.542
18410TIP3    H276722   5.695   3.059   5.519
18411TIP3   OH276723   6.204   3.066   3.778
18411TIP3    H176724   6.217   2.988   3.834
18411TIP3    H276725   6.277   3.053   3.714
18412TIP3   OH276726   6.440   3.029   5.514
18412TIP3    H176727   6.407   3.059   5.426
18412TIP3    H276728   6.451   2.931   5.503
18413TIP3   OH276729   6.746   3.175   3.754
18413TIP3    H176730   6.718   3.185   3.846
18413TIP3    H276731   6.725   3.079   3.741
18414TIP3   OH276732   7.010   3.014   5.248
18414TIP3    H176733   7.087   3.076   5.241
18414TIP3    H276734   6.940   3.081   5.256
18415TIP3   OH276735   5.856   2.753   5.511
18415TIP3    H176736   5.900   2.668   5.499
18415TIP3    H276737   5.834   2.753   5.607
18416TIP3   OH276738   6.324   2.866   4.016
18416TIP3    H176739   6.275   2.813   4.081
18416TIP3    H276740   6.352   2.798   3.951
18417TIP3   OH276741   6.251   2.649   5.248
18417TIP3    H176742   6.191   2.721   5.275
18417TIP3    H276743   6.289   2.685   5.165
18418TIP3   OH276744   6.431   2.688   3.839
18418TIP3    H176745   6.415   2.677   3.743
18418TIP3    H276746   6.528   2.696   3.844
18419TIP3   OH276747   6.755   2.904   5.580
18419TIP3    H176748   6.852   2.903   5.573
18419TIP3    H276749   6.739   2.828   5.639
18420TIP3   OH276750   6.288   2.387   5.356
18420TIP3    H176751   6.302   2.315   5.292
18420TIP3    H276752   6.287   2.467   5.299
18421TIP3   OH276753   6.330   2.224   5.108
18421TIP3    H176754   6.382   2.270   5.038
18421TIP3    H276755   6.242   2.215   5.066
18422TIP3   OH276756   6.485   2.770   5.132
18422TIP3    H176757   6.561   2.755   5.074
18422TIP3    H276758   6.450   2.855   5.101
18423TIP3   OH276759   6.926   2.550   5.628
18423TIP3    H176760   6.949   2.457   5.620
18423TIP3    H276761   7.012   2.593   5.634
18424TIP3   OH276762   7.055   2.826   5.440
18424TIP3    H176763   7.033   2.902   5.382
18424TIP3    H276764   7.153   2.824   5.427
18425TIP3   OH276765   6.135   2.507   5.550
18425TIP3    H176766   6.059   2.453   5.524
18425TIP3    H276767   6.202   2.476   5.486
18426TIP3   OH276768   6.409   1.968   5.150
18426TIP3    H176769   6.394   2.064   5.138
18426TIP3    H276770   6.334   1.932   5.099
18427TIP3   OH276771   6.537   2.400   5.506
18427TIP3    H176772   6.510   2.379   5.598
18427TIP3    H276773   6.455   2.382   5.456
18428TIP3   OH276774   6.809   2.313   5.416
18428TIP3    H176775   6.713   2.320   5.429
18428TIP3    H276776   6.835   2.250   5.485
18429TIP3   OH276777   5.949   2.302   5.521
18429TIP3    H176778   5.972   2.231   5.458
18429TIP3    H276779   5.940   2.254   5.602
18430TIP3   OH276780   6.430   1.903   5.416
18430TIP3    H176781   6.502   1.837   5.415
18430TIP3    H276782   6.419   1.923   5.322
18431TIP3   OH276783   6.468   2.068   5.626
18431TIP3    H176784   6.452   2.017   5.543
18431TIP3    H276785   6.407   2.143   5.618
18432TIP3   OH276786   6.416   3.758   3.944
18432TIP3    H176787   6.512   3.770   3.952
18432TIP3    H276788   6.398   3.821   3.874
18433TIP3   OH276789   5.772   3.218   3.891
18433TIP3    H176790   5.868   3.227   3.912
18433TIP3    H276791   5.777   3.152   3.819
18434TIP3   OH276792   5.647   3.757   4.391
18434TIP3    H176793   5.576   3.709   4.343
18434TIP3    H276794   5.677   3.690   4.455
18435TIP3   OH276795   5.730   3.568   4.576
18435TIP3    H176796   5.695   3.480   4.596
18435TIP3    H276797   5.753   3.602   4.665
18436TIP3   OH276798   7.272   3.198   5.628
18436TIP3    H176799   7.192   3.176   5.677
18436TIP3    H276800   7.322   3.261   5.678
18437TIP3   OH276801   7.281   3.376   5.092
18437TIP3    H176802   7.216   3.416   5.150
18437TIP3    H276803   7.228   3.339   5.019
18438TIP3   OH276804   7.309   2.528   3.858
18438TIP3    H176805   7.326   2.592   3.788
18438TIP3    H276806   7.300   2.444   3.807
18439TIP3   OH276807   7.204   2.674   4.421
18439TIP3    H176808   7.217   2.578   4.424
18439TIP3    H276809   7.197   2.695   4.515
18440TIP3   OH276810   5.736   2.876   4.825
18440TIP3    H176811   5.755   2.868   4.729
18440TIP3    H276812   5.825   2.860   4.862
18441TIP3   OH276813  -0.034   2.869   5.411
18441TIP3    H176814   0.028   2.794   5.412
18441TIP3    H276815   0.027   2.941   5.388
18442TIP3   OH276816   7.245   2.273   3.769
18442TIP3    H176817   7.302   2.229   3.832
18442TIP3    H276818   7.160   2.229   3.785
18443TIP3   OH276819   7.201   2.424   4.257
18443TIP3    H176820   7.230   2.335   4.285
18443TIP3    H276821   7.281   2.463   4.224
18444TIP3   OH276822   7.228   2.433   4.801
18444TIP3    H176823   7.323   2.449   4.790
18444TIP3    H276824   7.231   2.482   4.885
18445TIP3   OH276825   7.271   2.554   5.096
18445TIP3    H176826   7.183   2.585   5.123
18445TIP3    H276827   7.312   2.635   5.062
18446TIP3   OH276828   5.697   2.406   5.440
18446TIP3    H176829   5.791   2.387   5.459
18446TIP3    H276830   5.651   2.324   5.472
18447TIP3   OH276831   7.191   2.135   4.322
18447TIP3    H176832   7.279   2.108   4.355
18447TIP3    H276833   7.196   2.087   4.236
18448TIP3   OH276834   5.817   2.235   4.726
18448TIP3    H176835   5.864   2.153   4.753
18448TIP3    H276836   5.870   2.305   4.766
18449TIP3   OH276837   5.646   2.534   4.831
18449TIP3    H176838   5.702   2.511   4.753
18449TIP3    H276839   5.690   2.616   4.858
18450TIP3   OH276840   5.683   2.162   4.238
18450TIP3    H176841   5.589   2.180   4.223
18450TIP3    H276842   5.726   2.210   4.166
18451TIP3   OH276843   7.145   3.645   4.438
18451TIP3    H176844   7.211   3.614   4.375
18451TIP3    H276845   7.200   3.702   4.495
18452TIP3   OH276846   5.679   2.029   5.068
18452TIP3    H176847   5.611   2.008   5.135
18452TIP3    H276848   5.632   2.096   5.014
18453TIP3   OH276849   5.899   3.350   5.485
18453TIP3    H176850   5.814   3.368   5.441
18453TIP3    H276851   5.872   3.341   5.577
18454TIP3   OH276852   6.191   3.447   5.111
18454TIP3    H176853   6.155   3.532   5.083
18454TIP3    H276854   6.284   3.457   5.081
18455TIP3   OH276855   6.624   3.589   5.403
18455TIP3    H176856   6.640   3.555   5.494
18455TIP3    H276857   6.713   3.620   5.377
18456TIP3   OH276858   6.855   3.717   5.332
18456TIP3    H176859   6.928   3.657   5.309
18456TIP3    H276860   6.891   3.759   5.413
18457TIP3   OH276861   5.935   3.775   5.113
18457TIP3    H176862   5.859   3.819   5.071
18457TIP3    H276863   5.899   3.750   5.199
18458TIP3   OH276864   6.181   3.730   5.019
18458TIP3    H176865   6.091   3.742   5.058
18458TIP3    H276866   6.174   3.788   4.941
18459TIP3   OH276867   6.651   3.721   4.936
18459TIP3    H176868   6.604   3.776   4.871
18459TIP3    H276869   6.665   3.784   5.009
18460TIP3   OH276870   6.883   3.604   5.035
18460TIP3    H176871   6.794   3.628   5.003
18460TIP3    H276872   6.926   3.691   5.028
18461TIP3   OH276873   7.138   3.763   5.062
18461TIP3    H176874   7.127   3.858   5.039
18461TIP3    H276875   7.162   3.724   4.976
18462TIP3   OH276876   5.877   3.636   4.805
18462TIP3    H176877   5.871   3.591   4.892
18462TIP3    H276878   5.959   3.600   4.766
18463TIP3   OH276879   6.087   3.508   4.671
18463TIP3    H176880   6.069   3.414   4.692
18463TIP3    H276881   6.172   3.521   4.717
18464TIP3   OH276882   6.343   3.556   4.758
18464TIP3    H176883   6.363   3.464   4.731
18464TIP3    H276884   6.351   3.550   4.854
18465TIP3   OH276885   6.693   2.121   4.672
18465TIP3    H176886   6.625   2.056   4.699
18465TIP3    H276887   6.749   2.069   4.613
18466TIP3   OH276888   7.208   1.926   4.682
18466TIP3    H176889   7.264   1.988   4.634
18466TIP3    H276890   7.119   1.961   4.659
18467TIP3   OH276891   5.929   1.984   4.456
18467TIP3    H176892   5.849   1.962   4.404
18467TIP3    H276893   5.977   1.899   4.452
18468TIP3   OH276894   5.808   1.960   4.031
18468TIP3    H176895   5.855   2.024   3.975
18468TIP3    H276896   5.748   2.017   4.082
18469TIP3   OH276897   6.379   1.976   4.435
18469TIP3    H176898   6.469   2.013   4.430
18469TIP3    H276899   6.372   1.955   4.528
18470TIP3   OH276900   6.948   1.977   4.598
18470TIP3    H176901   6.945   1.989   4.502
18470TIP3    H276902   6.910   1.887   4.611
18471TIP3   OH276903   7.070   1.977   4.162
18471TIP3    H176904   6.999   2.042   4.151
18471TIP3    H276905   7.026   1.894   4.188
18472TIP3   OH276906   5.799   3.555   4.129
18472TIP3    H176907   5.732   3.554   4.059
18472TIP3    H276908   5.798   3.649   4.150
18473TIP3   OH276909   5.991   2.154   3.879
18473TIP3    H176910   6.044   2.091   3.827
18473TIP3    H276911   6.057   2.185   3.944
18474TIP3   OH276912   6.494   2.179   4.121
18474TIP3    H176913   6.517   2.120   4.194
18474TIP3    H276914   6.497   2.265   4.169
18475TIP3   OH276915   6.685   3.683   3.966
18475TIP3    H176916   6.775   3.711   3.944
18475TIP3    H276917   6.663   3.634   3.884
18476TIP3   OH276918   5.918   2.040   5.408
18476TIP3    H176919   5.881   1.958   5.445
18476TIP3    H276920   6.011   2.033   5.438
18477TIP3   OH276921   6.121   1.975   5.565
18477TIP3    H176922   6.209   1.941   5.540
18477TIP3    H276923   6.081   1.895   5.606
18478TIP3   OH276924   5.978   3.653   3.825
18478TIP3    H176925   5.953   3.677   3.916
18478TIP3    H276926   6.056   3.596   3.841
18479TIP3   OH276927   7.271   3.506   5.456
18479TIP3    H176928   7.200   3.492   5.390
18479TIP3    H276929   7.266   3.603   5.464
18480TIP3   OH276930   1.181   4.781   4.445
18480TIP3    H176931   1.182   4.879   4.439
18480TIP3    H276932   1.110   4.758   4.383
18481TIP3   OH276933   1.070   4.708   4.793
18481TIP3    H176934   1.065   4.644   4.865
18481TIP3    H276935   1.033   4.661   4.716
18482TIP3   OH276936   0.307   4.674   4.945
18482TIP3    H176937   0.312   4.608   5.018
18482TIP3    H276938   0.378   4.734   4.971
18483TIP3   OH276939   1.438   5.003   4.621
18483TIP3    H176940   1.395   4.932   4.669
18483TIP3    H276941   1.438   5.075   4.687
18484TIP3   OH276942   0.394   5.120   4.801
18484TIP3    H176943   0.362   5.035   4.767
18484TIP3    H276944   0.490   5.101   4.805
18485TIP3   OH276945   0.079   4.479   4.324
18485TIP3    H176946   0.025   4.559   4.347
18485TIP3    H276947   0.007   4.424   4.300
18486TIP3   OH276948   0.129   4.697   4.557
18486TIP3    H176949   0.154   4.619   4.609
18486TIP3    H276950   0.203   4.708   4.496
18487TIP3   OH276951   1.149   5.518   4.644
18487TIP3    H176952   1.213   5.448   4.616
18487TIP3    H276953   1.129   5.488   4.733
18488TIP3   OH276954   0.905   4.950   4.837
18488TIP3    H176955   0.939   4.886   4.773
18488TIP3    H276956   0.984   4.965   4.892
18489TIP3   OH276957   1.765   4.115   4.913
18489TIP3    H176958   1.783   4.174   4.991
18489TIP3    H276959   1.821   4.158   4.847
18490TIP3   OH276960   1.227   4.395   4.868
18490TIP3    H176961   1.235   4.298   4.874
18490TIP3    H276962   1.207   4.415   4.775
18491TIP3   OH276963   0.536   4.203   4.594
18491TIP3    H176964   0.543   4.288   4.546
18491TIP3    H276965   0.493   4.147   4.525
18492TIP3   OH276966   1.309   4.216   4.431
18492TIP3    H176967   1.381   4.175   4.484
18492TIP3    H276968   1.362   4.269   4.369
18493TIP3   OH276969   0.199   4.443   4.661
18493TIP3    H176970   0.265   4.390   4.710
18493TIP3    H276971   0.208   4.411   4.571
18494TIP3   OH276972   0.713   4.600   4.596
18494TIP3    H176973   0.778   4.543   4.639
18494TIP3    H276974   0.659   4.534   4.548
18495TIP3   OH276975   1.811   4.256   5.140
18495TIP3    H176976   1.747   4.330   5.131
18495TIP3    H276977   1.814   4.245   5.236
18496TIP3   OH276978   0.423   4.093   4.997
18496TIP3    H176979   0.396   4.150   4.922
18496TIP3    H276980   0.354   4.118   5.065
18497TIP3   OH276981   1.154   5.043   4.352
18497TIP3    H176982   1.126   5.014   4.265
18497TIP3    H276983   1.123   5.136   4.357
18498TIP3   OH276984   0.677   4.859   5.023
18498TIP3    H176985   0.603   4.922   5.042
18498TIP3    H276986   0.747   4.919   4.994
18499TIP3   OH276987   1.492   4.143   4.631
18499TIP3    H176988   1.473   4.064   4.684
18499TIP3    H276989   1.561   4.188   4.684
18500TIP3   OH276990   0.379   4.278   4.799
18500TIP3    H176991   0.440   4.348   4.832
18500TIP3    H276992   0.433   4.238   4.727
18501TIP3   OH276993   0.519   5.058   5.103
18501TIP3    H176994   0.514   5.149   5.069
18501TIP3    H276995   0.430   5.050   5.147
18502TIP3   OH276996   0.128   5.025   4.181
18502TIP3    H176997   0.103   5.053   4.092
18502TIP3    H276998   0.134   5.107   4.232
18503TIP3   OH276999   1.490   5.187   4.858
18503TIP3    H177000   1.393   5.197   4.871
18503TIP3    H277001   1.517   5.279   4.840
18504TIP3   OH277002   1.520   4.016   4.994
18504TIP3    H177003   1.448   4.080   4.992
18504TIP3    H277004   1.593   4.058   4.946
18505TIP3   OH277005   0.820   3.827   4.743
18505TIP3    H177006   0.807   3.730   4.737
18505TIP3    H277007   0.732   3.858   4.773
18506TIP3   OH277008   1.315   5.365   4.518
18506TIP3    H177009   1.359   5.294   4.467
18506TIP3    H277010   1.354   5.445   4.477
18507TIP3   OH277011   1.435   5.158   4.369
18507TIP3    H177012   1.406   5.088   4.309
18507TIP3    H277013   1.439   5.110   4.453
18508TIP3   OH277014   1.599   5.016   5.218
18508TIP3    H177015   1.614   4.953   5.145
18508TIP3    H277016   1.618   5.102   5.177
18509TIP3   OH277017   1.048   4.707   4.196
18509TIP3    H177018   0.978   4.763   4.159
18509TIP3    H277019   1.118   4.716   4.128
18510TIP3   OH277020   1.054   4.560   3.897
18510TIP3    H177021   1.125   4.559   3.962
18510TIP3    H277022   1.086   4.492   3.836
18511TIP3   OH277023   1.786   4.647   5.023
18511TIP3    H177024   1.720   4.719   5.029
18511TIP3    H277025   1.834   4.671   4.942
18512TIP3   OH277026   1.392   4.729   4.286
18512TIP3    H177027   1.317   4.753   4.346
18512TIP3    H277028   1.438   4.660   4.337
18513TIP3   OH277029   1.384   4.545   5.197
18513TIP3    H177030   1.386   4.625   5.252
18513TIP3    H277031   1.320   4.575   5.130
18514TIP3   OH277032   0.555   4.795   4.478
18514TIP3    H177033   0.520   4.755   4.395
18514TIP3    H277034   0.615   4.724   4.512
18515TIP3   OH277035   0.687   5.134   4.746
18515TIP3    H177036   0.684   5.079   4.667
18515TIP3    H277037   0.764   5.097   4.793
18516TIP3   OH277038   0.588   4.669   4.843
18516TIP3    H177039   0.644   4.680   4.764
18516TIP3    H277040   0.624   4.735   4.906
18517TIP3   OH277041   1.226   5.225   4.915
18517TIP3    H177042   1.198   5.288   4.981
18517TIP3    H277043   1.201   5.139   4.957
18518TIP3   OH277044   0.681   5.110   5.313
18518TIP3    H177045   0.643   5.186   5.362
18518TIP3    H277046   0.613   5.092   5.244
18519TIP3   OH277047   1.278   4.647   4.055
18519TIP3    H177048   1.335   4.664   4.134
18519TIP3    H277049   1.322   4.696   3.982
18520TIP3   OH277050   0.377   4.730   5.233
18520TIP3    H177051   0.378   4.795   5.306
18520TIP3    H277052   0.283   4.736   5.207
18521TIP3   OH277053   1.050   5.320   4.401
18521TIP3    H177054   1.095   5.350   4.480
18521TIP3    H277055   0.994   5.395   4.377
18522TIP3   OH277056   0.506   5.315   5.388
18522TIP3    H177057   0.499   5.304   5.292
18522TIP3    H277058   0.413   5.304   5.416
18523TIP3   OH277059   1.651   3.820   4.041
18523TIP3    H177060   1.557   3.834   4.068
18523TIP3    H277061   1.672   3.905   3.999
18524TIP3   OH277062   0.452   4.697   4.239
18524TIP3    H177063   0.423   4.775   4.188
18524TIP3    H277064   0.385   4.632   4.218
18525TIP3   OH277065   1.763   5.256   3.878
18525TIP3    H177066   1.778   5.351   3.895
18525TIP3    H277067   1.856   5.227   3.875
18526TIP3   OH277068   0.098   4.929   5.107
18526TIP3    H177069   0.024   4.934   5.043
18526TIP3    H277070   0.070   4.845   5.149
18527TIP3   OH277071   0.047   5.223   4.795
18527TIP3    H177072   0.138   5.198   4.807
18527TIP3    H277073   0.030   5.290   4.862
18528TIP3   OH277074   1.859   5.282   5.374
18528TIP3    H177075   1.848   5.186   5.375
18528TIP3    H277076   1.773   5.307   5.417
18529TIP3   OH277077   0.956   5.237   5.263
18529TIP3    H177078   0.960   5.322   5.311
18529TIP3    H277079   0.868   5.202   5.287
18530TIP3   OH277080   0.999   5.612   4.243
18530TIP3    H177081   0.988   5.603   4.146
18530TIP3    H277082   0.999   5.708   4.256
18531TIP3   OH277083   0.363   5.498   4.422
18531TIP3    H177084   0.377   5.457   4.510
18531TIP3    H277085   0.279   5.457   4.397
18532TIP3   OH277086   1.305   5.533   3.941
18532TIP3    H177087   1.348   5.456   3.896
18532TIP3    H277088   1.308   5.505   4.035
18533TIP3   OH277089   1.274   5.525   4.217
18533TIP3    H177090   1.178   5.533   4.236
18533TIP3    H277091   1.299   5.452   4.276
18534TIP3   OH277092   1.574   4.430   5.422
18534TIP3    H177093   1.528   4.477   5.351
18534TIP3    H277094   1.574   4.338   5.392
18535TIP3   OH277095   0.288   5.073   5.223
18535TIP3    H177096   0.307   5.034   5.311
18535TIP3    H277097   0.202   5.032   5.200
18536TIP3   OH277098   0.555   3.917   4.819
18536TIP3    H177099   0.465   3.907   4.782
18536TIP3    H277100   0.544   4.001   4.866
18537TIP3   OH277101   1.018   3.887   5.157
18537TIP3    H177102   1.059   3.844   5.234
18537TIP3    H277103   0.922   3.872   5.170
18538TIP3   OH277104   1.349   4.267   5.244
18538TIP3    H177105   1.294   4.248   5.324
18538TIP3    H277106   1.331   4.360   5.222
18539TIP3   OH277107   1.424   4.750   3.830
18539TIP3    H177108   1.425   4.730   3.733
18539TIP3    H277109   1.510   4.793   3.839
18540TIP3   OH277110   0.984   4.141   3.886
18540TIP3    H177111   0.953   4.137   3.978
18540TIP3    H277112   0.953   4.053   3.856
18541TIP3   OH277113   0.564   4.413   4.940
18541TIP3    H177114   0.492   4.412   5.007
18541TIP3    H277115   0.560   4.506   4.907
18542TIP3   OH277116   0.561   4.430   4.429
18542TIP3    H177117   0.468   4.401   4.417
18542TIP3    H277118   0.601   4.397   4.346
18543TIP3   OH277119   1.114   4.477   4.309
18543TIP3    H177120   1.072   4.559   4.272
18543TIP3    H277121   1.182   4.462   4.240
18544TIP3   OH277122   1.020   4.497   5.451
18544TIP3    H177123   0.966   4.422   5.483
18544TIP3    H277124   1.104   4.484   5.499
18545TIP3   OH277125   1.214   4.427   4.587
18545TIP3    H177126   1.188   4.489   4.515
18545TIP3    H277127   1.218   4.348   4.531
18546TIP3   OH277128   0.332   4.441   5.114
18546TIP3    H177129   0.331   4.480   5.204
18546TIP3    H277130   0.283   4.359   5.132
18547TIP3   OH277131   0.667   4.181   3.797
18547TIP3    H177132   0.623   4.137   3.873
18547TIP3    H277133   0.596   4.221   3.748
18548TIP3   OH277134   0.012   4.168   4.498
18548TIP3    H177135   0.061   4.147   4.579
18548TIP3    H277136   0.044   4.108   4.431
18549TIP3   OH277137   0.119   4.231   4.043
18549TIP3    H177138   0.172   4.290   3.987
18549TIP3    H277139   0.049   4.288   4.074
18550TIP3   OH277140   1.137   4.585   5.049
18550TIP3    H177141   1.174   4.517   4.989
18550TIP3    H277142   1.092   4.532   5.117
18551TIP3   OH277143   0.818   4.181   4.531
18551TIP3    H177144   0.724   4.182   4.559
18551TIP3    H277145   0.865   4.167   4.614
18552TIP3   OH277146   0.303   4.339   4.415
18552TIP3    H177147   0.213   4.353   4.380
18552TIP3    H277148   0.327   4.253   4.377
18553TIP3   OH277149   0.664   4.340   4.180
18553TIP3    H177150   0.759   4.353   4.197
18553TIP3    H277151   0.640   4.409   4.114
18554TIP3   OH277152   1.257   4.112   4.850
18554TIP3    H177153   1.191   4.110   4.925
18554TIP3    H277154   1.202   4.075   4.779
18555TIP3   OH277155   0.533   4.459   3.938
18555TIP3    H177156   0.479   4.422   3.866
18555TIP3    H277157   0.616   4.479   3.891
18556TIP3   OH277158   1.579   5.671   5.489
18556TIP3    H177159   1.607   5.708   5.403
18556TIP3    H277160   1.653   5.701   5.545
18557TIP3   OH277161   0.348   4.919   5.442
18557TIP3    H177162   0.417   4.941   5.506
18557TIP3    H277163   0.269   4.929   5.501
18558TIP3   OH277164   0.947   4.457   4.721
18558TIP3    H177165   1.003   4.403   4.665
18558TIP3    H277166   0.930   4.403   4.800
18559TIP3   OH277167   0.447   4.072   4.363
18559TIP3    H177168   0.416   3.980   4.360
18559TIP3    H277169   0.527   4.067   4.308
18560TIP3   OH277170   0.811   4.291   4.960
18560TIP3    H177171   0.727   4.341   4.971
18560TIP3    H277172   0.864   4.325   5.036
18561TIP3   OH277173   0.869   4.914   4.131
18561TIP3    H177174   0.789   4.866   4.098
18561TIP3    H277175   0.848   4.923   4.226
18562TIP3   OH277176   1.585   4.831   5.011
18562TIP3    H177177   1.643   4.879   4.950
18562TIP3    H277178   1.499   4.839   4.963
18563TIP3   OH277179   1.253   4.195   3.949
18563TIP3    H177180   1.157   4.209   3.935
18563TIP3    H277181   1.285   4.281   3.983
18564TIP3   OH277182   1.017   4.936   5.253
18564TIP3    H177183   0.984   4.896   5.335
18564TIP3    H277184   0.994   5.029   5.264
18565TIP3   OH277185   1.325   4.385   4.116
18565TIP3    H177186   1.416   4.372   4.150
18565TIP3    H277187   1.334   4.466   4.062
18566TIP3   OH277188   0.379   4.851   4.709
18566TIP3    H177189   0.450   4.844   4.643
18566TIP3    H277190   0.385   4.765   4.756
18567TIP3   OH277191   1.079   5.060   4.034
18567TIP3    H177192   1.045   5.144   4.071
18567TIP3    H277193   1.005   4.999   4.055
18568TIP3   OH277194   0.100   4.674   5.214
18568TIP3    H177195   0.110   4.648   5.308
18568TIP3    H277196   0.018   4.629   5.194
18569TIP3   OH277197   0.780   4.648   5.457
18569TIP3    H177198   0.748   4.621   5.370
18569TIP3    H277199   0.873   4.618   5.456
18570TIP3   OH277200   1.246   5.184   5.250
18570TIP3    H177201   1.154   5.199   5.225
18570TIP3    H277202   1.244   5.206   5.343
18571TIP3   OH277203   1.816   4.400   4.088
18571TIP3    H177204   1.759   4.370   4.016
18571TIP3    H277205   1.824   4.495   4.061
18572TIP3   OH277206   1.814   4.986   5.371
18572TIP3    H177207   1.725   5.007   5.334
18572TIP3    H277208   1.869   4.981   5.291
18573TIP3   OH277209   1.642   5.283   4.130
18573TIP3    H177210   1.607   5.200   4.163
18573TIP3    H277211   1.675   5.263   4.041
18574TIP3   OH277212   1.364   4.764   4.838
18574TIP3    H177213   1.269   4.743   4.830
18574TIP3    H277214   1.407   4.687   4.798
18575TIP3   OH277215   0.616   5.197   4.450
18575TIP3    H177216   0.667   5.277   4.428
18575TIP3    H277217   0.528   5.221   4.417
18576TIP3   OH277218   0.187   4.681   3.910
18576TIP3    H177219   0.252   4.747   3.945
18576TIP3    H277220   0.103   4.716   3.936
18577TIP3   OH277221   0.759   4.964   4.402
18577TIP3    H177222   0.729   5.056   4.411
18577TIP3    H277223   0.685   4.916   4.446
18578TIP3   OH277224   0.804   5.381   5.040
18578TIP3    H177225   0.848   5.464   5.014
18578TIP3    H277226   0.864   5.349   5.110
18579TIP3   OH277227   0.626   5.464   4.356
18579TIP3    H177228   0.529   5.477   4.367
18579TIP3    H277229   0.662   5.548   4.391
18580TIP3   OH277230   1.159   4.985   5.006
18580TIP3    H177231   1.122   4.963   5.093
18580TIP3    H277232   1.221   4.912   4.988
18581TIP3   OH277233   1.388   5.088   3.913
18581TIP3    H177234   1.418   5.042   3.994
18581TIP3    H277235   1.292   5.071   3.923
18582TIP3   OH277236   1.432   5.442   5.256
18582TIP3    H177237   1.369   5.390   5.203
18582TIP3    H277238   1.456   5.510   5.190
18583TIP3   OH277239   1.835   5.526   3.937
18583TIP3    H177240   1.906   5.591   3.919
18583TIP3    H277241   1.764   5.587   3.967
18584TIP3   OH277242   0.242   4.164   5.186
18584TIP3    H177243   0.154   4.202   5.193
18584TIP3    H277244   0.232   4.083   5.239
18585TIP3   OH277245   1.467   4.952   4.136
18585TIP3    H177246   1.443   4.875   4.192
18585TIP3    H277247   1.562   4.959   4.156
18586TIP3   OH277248   0.210   5.348   5.033
18586TIP3    H177249   0.231   5.253   5.035
18586TIP3    H277250   0.230   5.373   5.124
18587TIP3   OH277251   0.799   5.196   3.761
18587TIP3    H177252   0.814   5.119   3.704
18587TIP3    H277253   0.761   5.153   3.840
18588TIP3   OH277254   0.682   5.149   4.006
18588TIP3    H177255   0.704   5.098   4.085
18588TIP3    H277256   0.686   5.242   4.038
18589TIP3   OH277257   0.331   4.873   4.054
18589TIP3    H177258   0.263   4.913   4.113
18589TIP3    H277259   0.384   4.951   4.029
18590TIP3   OH277260   1.119   4.142   5.082
18590TIP3    H177261   1.186   4.149   5.152
18590TIP3    H277262   1.077   4.056   5.105
18591TIP3   OH277263   1.191   4.102   4.197
18591TIP3    H177264   1.214   4.149   4.113
18591TIP3    H277265   1.250   4.145   4.259
18592TIP3   OH277266   0.960   5.317   4.079
18592TIP3    H177267   0.878   5.370   4.085
18592TIP3    H277268   1.013   5.370   4.017
18593TIP3   OH277269   0.915   4.276   4.279
18593TIP3    H177270   0.993   4.333   4.282
18593TIP3    H277271   0.887   4.264   4.371
18594TIP3   OH277272   0.970   4.378   5.194
18594TIP3    H177273   0.977   4.434   5.275
18594TIP3    H277274   1.035   4.308   5.207
18595TIP3   OH277275   1.002   3.983   4.371
18595TIP3    H177276   0.965   4.049   4.432
18595TIP3    H277277   1.067   4.037   4.321
18596TIP3   OH277278   0.698   5.421   4.079
18596TIP3    H177279   0.709   5.503   4.026
18596TIP3    H277280   0.673   5.456   4.167
18597TIP3   OH277281   0.566   4.092   4.038
18597TIP3    H177282   0.560   4.182   4.076
18597TIP3    H277283   0.657   4.067   4.064
18598TIP3   OH277284   1.588   4.165   5.282
18598TIP3    H177285   1.495   4.196   5.270
18598TIP3    H277286   1.618   4.165   5.189
18599TIP3   OH277287   1.449   4.542   4.684
18599TIP3    H177288   1.365   4.503   4.656
18599TIP3    H277289   1.497   4.476   4.738
18600TIP3   OH277290   0.389   5.135   3.944
18600TIP3    H177291   0.454   5.202   3.973
18600TIP3    H277292   0.441   5.090   3.874
18601TIP3   OH277293   0.229   4.403   3.853
18601TIP3    H177294   0.224   4.497   3.878
18601TIP3    H277295   0.137   4.383   3.830
18602TIP3   OH277296   1.555   5.468   4.851
18602TIP3    H177297   1.544   5.537   4.783
18602TIP3    H277298   1.651   5.476   4.869
18603TIP3   OH277299   0.303   3.882   4.728
18603TIP3    H177300   0.284   3.884   4.631
18603TIP3    H277301   0.261   3.799   4.756
18604TIP3   OH277302   0.202   5.274   4.345
18604TIP3    H177303   0.117   5.318   4.342
18604TIP3    H277304   0.250   5.324   4.278
18605TIP3   OH277305   0.137   5.540   5.470
18605TIP3    H177306   0.182   5.516   5.553
18605TIP3    H277307   0.081   5.459   5.458
18606TIP3   OH277308   0.588   5.431   5.636
18606TIP3    H177309   0.663   5.380   5.668
18606TIP3    H277310   0.584   5.404   5.542
18607TIP3   OH277311   1.000   5.382   3.774
18607TIP3    H177312   0.932   5.316   3.801
18607TIP3    H277313   1.073   5.323   3.750
18608TIP3   OH277314   1.457   5.358   3.794
18608TIP3    H177315   1.487   5.280   3.843
18608TIP3    H277316   1.533   5.381   3.739
18609TIP3   OH277317   0.126   4.919   5.567
18609TIP3    H177318   0.132   4.823   5.544
18609TIP3    H277319   0.040   4.944   5.527
18610TIP3   OH277320   0.547   4.951   3.778
18610TIP3    H177321   0.560   4.873   3.834
18610TIP3    H277322   0.620   4.939   3.714
18611TIP3   OH277323   0.785   4.916   5.513
18611TIP3    H177324   0.750   4.945   5.427
18611TIP3    H277325   0.795   4.819   5.503
18612TIP3   OH277326   1.089   5.060   3.754
18612TIP3    H177327   1.061   5.071   3.846
18612TIP3    H277328   1.069   4.965   3.741
18613TIP3   OH277329   1.354   4.902   5.250
18613TIP3    H177330   1.432   4.962   5.243
18613TIP3    H277331   1.283   4.966   5.257
18614TIP3   OH277332   0.197   4.672   5.519
18614TIP3    H177333   0.242   4.584   5.499
18614TIP3    H277334   0.176   4.643   5.609
18615TIP3   OH277335   0.668   4.752   4.017
18615TIP3    H177336   0.619   4.699   4.081
18615TIP3    H277337   0.695   4.683   3.951
18616TIP3   OH277338   0.597   4.535   5.249
18616TIP3    H177339   0.533   4.603   5.275
18616TIP3    H277340   0.631   4.570   5.166
18617TIP3   OH277341   0.774   4.574   3.839
18617TIP3    H177342   0.758   4.563   3.743
18617TIP3    H277343   0.871   4.581   3.844
18618TIP3   OH277344   1.099   4.788   5.580
18618TIP3    H177345   1.196   4.792   5.571
18618TIP3    H277346   1.083   4.713   5.639
18619TIP3   OH277347   1.710   4.807   3.782
18619TIP3    H177348   1.687   4.768   3.696
18619TIP3    H277349   1.717   4.903   3.761
18620TIP3   OH277350   0.636   4.273   5.355
18620TIP3    H177351   0.643   4.200   5.291
18620TIP3    H277352   0.627   4.353   5.300
18621TIP3   OH277353   0.674   4.110   5.109
18621TIP3    H177354   0.726   4.155   5.039
18621TIP3    H277355   0.585   4.100   5.068
18622TIP3   OH277356   0.829   4.656   5.132
18622TIP3    H177357   0.904   4.641   5.074
18622TIP3    H277358   0.793   4.741   5.101
18623TIP3   OH277359   1.268   4.435   5.629
18623TIP3    H177360   1.292   4.341   5.623
18623TIP3    H277361   1.355   4.478   5.632
18624TIP3   OH277362   1.400   4.712   5.441
18624TIP3    H177363   1.377   4.787   5.382
18624TIP3    H277364   1.497   4.711   5.427
18625TIP3   OH277365   0.493   4.390   5.558
18625TIP3    H177366   0.406   4.348   5.530
18625TIP3    H277367   0.545   4.359   5.483
18626TIP3   OH277368   0.753   3.854   5.149
18626TIP3    H177369   0.738   3.950   5.137
18626TIP3    H277370   0.678   3.818   5.099
18627TIP3   OH277371   0.880   4.284   5.507
18627TIP3    H177372   0.852   4.264   5.598
18627TIP3    H277373   0.799   4.267   5.455
18628TIP3   OH277374   1.150   4.201   5.415
18628TIP3    H177375   1.054   4.204   5.430
18628TIP3    H277376   1.181   4.138   5.482
18629TIP3   OH277377   1.309   4.065   5.611
18629TIP3    H177378   1.304   3.967   5.614
18629TIP3    H277379   1.283   4.089   5.703
18630TIP3   OH277380   0.324   4.161   5.532
18630TIP3    H177381   0.311   4.102   5.456
18630TIP3    H277382   0.278   4.132   5.610
18631TIP3   OH277383   0.772   3.787   5.419
18631TIP3    H177384   0.845   3.721   5.415
18631TIP3    H277385   0.763   3.809   5.325
18632TIP3   OH277386   0.760   5.643   3.944
18632TIP3    H177387   0.856   5.656   3.952
18632TIP3    H277388   0.741   5.707   3.874
18633TIP3   OH277389   0.122   5.107   3.899
18633TIP3    H177390   0.219   5.114   3.913
18633TIP3    H277391   0.121   5.041   3.825
18634TIP3   OH277392   7.353   5.650   4.383
18634TIP3    H177393   7.271   5.617   4.343
18634TIP3    H277394   7.369   5.582   4.453
18635TIP3   OH277395   0.068   5.457   4.572
18635TIP3    H177396   0.040   5.366   4.595
18635TIP3    H277397   0.097   5.487   4.661
18636TIP3   OH277398   1.827   5.534   4.871
18636TIP3    H177399   1.828   5.551   4.966
18636TIP3    H277400   1.897   5.592   4.840
18637TIP3   OH277401   1.785   5.493   5.165
18637TIP3    H177402   1.737   5.416   5.128
18637TIP3    H277403   1.836   5.449   5.235
18638TIP3   OH277404   1.624   5.071   5.626
18638TIP3    H177405   1.541   5.059   5.674
18638TIP3    H277406   1.668   5.142   5.677
18639TIP3   OH277407   1.760   4.898   4.177
18639TIP3    H177408   1.846   4.938   4.194
18639TIP3    H277409   1.760   4.824   4.242
18640TIP3   OH277410   1.797   4.705   4.363
18640TIP3    H177411   1.723   4.654   4.403
18640TIP3    H277412   1.857   4.720   4.439
18641TIP3   OH277413   1.773   4.976   4.861
18641TIP3    H177414   1.856   4.940   4.826
18641TIP3    H277415   1.787   5.072   4.846
18642TIP3   OH277416   1.627   5.266   5.090
18642TIP3    H177417   1.558   5.300   5.149
18642TIP3    H277418   1.573   5.225   5.019
18643TIP3   OH277419   1.827   4.689   4.003
18643TIP3    H177420   1.771   4.725   3.931
18643TIP3    H277421   1.819   4.759   4.069
18644TIP3   OH277422   1.663   4.412   3.855
18644TIP3    H177423   1.671   4.480   3.786
18644TIP3    H277424   1.646   4.330   3.806
18645TIP3   OH277425   1.577   4.553   4.420
18645TIP3    H177426   1.564   4.458   4.417
18645TIP3    H277427   1.544   4.578   4.508
18646TIP3   OH277428   0.078   4.761   4.823
18646TIP3    H177429   0.098   4.755   4.727
18646TIP3    H277430   0.166   4.747   4.863
18647TIP3   OH277431   1.663   4.749   5.379
18647TIP3    H177432   1.723   4.676   5.407
18647TIP3    H277433   1.720   4.828   5.390
18648TIP3   OH277434   1.815   4.538   5.450
18648TIP3    H177435   1.726   4.499   5.436
18648TIP3    H277436   1.872   4.461   5.443
18649TIP3   OH277437   1.587   4.158   3.768
18649TIP3    H177438   1.647   4.116   3.833
18649TIP3    H277439   1.502   4.115   3.786
18650TIP3   OH277440   1.544   4.312   4.266
18650TIP3    H177441   1.577   4.219   4.277
18650TIP3    H277442   1.624   4.353   4.229
18651TIP3   OH277443   1.606   4.365   4.809
18651TIP3    H177444   1.703   4.390   4.808
18651TIP3    H277445   1.590   4.381   4.904
18652TIP3   OH277446   1.614   4.439   5.085
18652TIP3    H177447   1.529   4.469   5.123
18652TIP3    H277448   1.658   4.525   5.067
18653TIP3   OH277449   0.028   4.242   5.425
18653TIP3    H177450   0.120   4.266   5.456
18653TIP3    H277451  -0.014   4.194   5.495
18654TIP3   OH277452   1.843   3.845   5.622
18654TIP3    H177453   1.877   3.774   5.563
18654TIP3    H277454   1.855   3.926   5.571
18655TIP3   OH277455   1.609   4.041   4.273
18655TIP3    H177456   1.633   3.993   4.355
18655TIP3    H277457   1.552   3.977   4.225
18656TIP3   OH277458   0.157   4.117   4.727
18656TIP3    H177459   0.209   4.039   4.754
18656TIP3    H277460   0.211   4.188   4.767
18657TIP3   OH277461   0.063   4.465   4.868
18657TIP3    H177462   0.059   4.430   4.776
18657TIP3    H277463   0.034   4.553   4.849
18658TIP3   OH277464   1.796   4.053   5.460
18658TIP3    H177465   1.701   4.080   5.454
18658TIP3    H277466   1.800   4.000   5.379
18659TIP3   OH277467   1.794   4.044   3.926
18659TIP3    H177468   1.836   3.973   3.874
18659TIP3    H277469   1.864   4.111   3.931
18660TIP3   OH277470   0.063   4.047   4.212
18660TIP3    H177471  -0.032   4.067   4.214
18660TIP3    H277472   0.090   4.112   4.147
18661TIP3   OH277473   1.499   5.542   4.433
18661TIP3    H177474   1.567   5.510   4.370
18661TIP3    H277475   1.552   5.592   4.497
18662TIP3   OH277476   7.378   3.912   5.078
18662TIP3    H177477   7.302   3.892   5.135
18662TIP3    H277478   7.325   3.970   5.019
18663TIP3   OH277479   0.244   5.238   5.486
18663TIP3    H177480   0.159   5.254   5.443
18663TIP3    H277481   0.216   5.226   5.577
18664TIP3   OH277482   0.536   5.334   5.112
18664TIP3    H177483   0.496   5.417   5.083
18664TIP3    H277484   0.627   5.343   5.080
18665TIP3   OH277485   0.967   5.473   5.405
18665TIP3    H177486   0.983   5.439   5.493
18665TIP3    H277487   1.054   5.505   5.374
18666TIP3   OH277488   1.195   5.599   5.336
18666TIP3    H177489   1.270   5.544   5.306
18666TIP3    H277490   1.235   5.646   5.412
18667TIP3   OH277491   1.697   3.864   5.242
18667TIP3    H177492   1.613   3.892   5.202
18667TIP3    H277493   1.714   3.782   5.190
18668TIP3   OH277494   0.278   5.658   5.115
18668TIP3    H177495   0.203   5.704   5.072
18668TIP3    H277496   0.241   5.637   5.202
18669TIP3   OH277497   0.524   5.616   5.019
18669TIP3    H177498   0.435   5.629   5.059
18669TIP3    H277499   0.518   5.674   4.941
18670TIP3   OH277500   0.994   5.606   4.936
18670TIP3    H177501   0.948   5.661   4.871
18670TIP3    H277502   1.008   5.670   5.009
18671TIP3   OH277503   1.225   5.490   5.035
18671TIP3    H177504   1.137   5.515   5.001
18671TIP3    H277505   1.270   5.576   5.026
18672TIP3   OH277506   1.483   5.647   5.061
18672TIP3    H177507   1.473   5.742   5.038
18672TIP3    H277508   1.504   5.609   4.974
18673TIP3   OH277509   0.218   5.522   4.804
18673TIP3    H177510   0.216   5.479   4.892
18673TIP3    H277511   0.300   5.485   4.766
18674TIP3   OH277512   0.430   5.393   4.670
18674TIP3    H177513   0.412   5.299   4.692
18674TIP3    H277514   0.515   5.407   4.717
18675TIP3   OH277515   0.689   5.441   4.758
18675TIP3    H177516   0.706   5.349   4.731
18675TIP3    H277517   0.694   5.435   4.854
18676TIP3   OH277518   1.039   4.007   4.673
18676TIP3    H177519   0.969   3.944   4.699
18676TIP3    H277520   1.090   3.952   4.612
18677TIP3   OH277521   1.549   3.814   4.682
18677TIP3    H177522   1.612   3.870   4.629
18677TIP3    H277523   1.461   3.847   4.656
18678TIP3   OH277524   1.717   3.935   4.509
18678TIP3    H177525   1.785   3.879   4.465
18678TIP3    H277526   1.767   4.019   4.517
18679TIP3   OH277527   0.270   3.868   4.457
18679TIP3    H177528   0.193   3.846   4.401
18679TIP3    H277529   0.322   3.786   4.450
18680TIP3   OH277530   0.188   3.856   4.043
18680TIP3    H177531   0.204   3.915   3.969
18680TIP3    H277532   0.106   3.891   4.082
18681TIP3   OH277533   0.722   3.862   4.435
18681TIP3    H177534   0.812   3.899   4.430
18681TIP3    H277535   0.715   3.840   4.528
18682TIP3   OH277536   1.287   3.866   4.599
18682TIP3    H177537   1.288   3.872   4.503
18682TIP3    H277538   1.254   3.774   4.612
18683TIP3   OH277539   1.419   3.867   4.167
18683TIP3    H177540   1.345   3.927   4.148
18683TIP3    H277541   1.373   3.781   4.187
18684TIP3   OH277542   0.154   5.447   4.122
18684TIP3    H177543   0.076   5.440   4.063
18684TIP3    H277544   0.142   5.539   4.151
18685TIP3   OH277545   0.335   4.041   3.878
18685TIP3    H177546   0.388   3.977   3.827
18685TIP3    H277547   0.399   4.069   3.945
18686TIP3   OH277548   0.837   4.065   4.121
18686TIP3    H177549   0.860   4.005   4.194
18686TIP3    H277550   0.840   4.151   4.169
18687TIP3   OH277551   1.028   5.568   3.966
18687TIP3    H177552   1.119   5.596   3.944
18687TIP3    H277553   1.006   5.519   3.884
18688TIP3   OH277554   1.700   5.521   4.236
18688TIP3    H177555   1.679   5.444   4.178
18688TIP3    H277556   1.693   5.595   4.172
18689TIP3   OH277557   0.259   3.922   5.404
18689TIP3    H177558   0.225   3.843   5.447
18689TIP3    H277559   0.352   3.924   5.436
18690TIP3   OH277560   0.462   3.859   5.568
18690TIP3    H177561   0.550   3.830   5.538
18690TIP3    H277562   0.426   3.778   5.604
18691TIP3   OH277563   0.321   5.536   3.824
18691TIP3    H177564   0.296   5.564   3.914
18691TIP3    H277565   0.400   5.482   3.842
18692TIP3   OH277566   1.304   3.788   5.577
18692TIP3    H177567   1.313   3.750   5.666
18692TIP3    H277568   1.397   3.790   5.545
18693TIP3   OH277569   1.624   5.394   5.446
18693TIP3    H177570   1.543   5.379   5.393
18693TIP3    H277571   1.613   5.489   5.467
18694TIP3   OH277572   3.066   4.783   4.445
18694TIP3    H177573   3.068   4.881   4.438
18694TIP3    H277574   2.995   4.759   4.383
18695TIP3   OH277575   2.953   4.710   4.793
18695TIP3    H177576   2.952   4.644   4.863
18695TIP3    H277577   2.920   4.660   4.716
18696TIP3   OH277578   2.189   4.675   4.948
18696TIP3    H177579   2.197   4.608   5.020
18696TIP3    H277580   2.263   4.733   4.970
18697TIP3   OH277581   3.324   5.004   4.621
18697TIP3    H177582   3.281   4.932   4.669
18697TIP3    H277583   3.324   5.074   4.687
18698TIP3   OH277584   2.282   5.120   4.801
18698TIP3    H177585   2.249   5.034   4.767
18698TIP3    H277586   2.377   5.101   4.805
18699TIP3   OH277587   1.946   4.478   4.346
18699TIP3    H177588   1.901   4.565   4.341
18699TIP3    H277589   1.889   4.424   4.291
18700TIP3   OH277590   2.016   4.699   4.560
18700TIP3    H177591   2.041   4.618   4.607
18700TIP3    H277592   2.088   4.709   4.495
18701TIP3   OH277593   3.035   5.518   4.644
18701TIP3    H177594   3.099   5.448   4.616
18701TIP3    H277595   3.014   5.488   4.733
18702TIP3   OH277596   2.791   4.950   4.837
18702TIP3    H177597   2.825   4.885   4.773
18702TIP3    H277598   2.870   4.964   4.892
18703TIP3   OH277599   3.654   4.112   4.915
18703TIP3    H177600   3.667   4.175   4.989
18703TIP3    H277601   3.705   4.158   4.846
18704TIP3   OH277602   3.107   4.396   4.870
18704TIP3    H177603   3.123   4.299   4.869
18704TIP3    H277604   3.097   4.411   4.774
18705TIP3   OH277605   2.420   4.204   4.593
18705TIP3    H177606   2.429   4.288   4.546
18705TIP3    H277607   2.378   4.147   4.525
18706TIP3   OH277608   3.192   4.213   4.430
18706TIP3    H177609   3.260   4.182   4.496
18706TIP3    H277610   3.249   4.269   4.375
18707TIP3   OH277611   2.082   4.445   4.667
18707TIP3    H177612   2.149   4.389   4.711
18707TIP3    H277613   2.091   4.414   4.576
18708TIP3   OH277614   2.598   4.601   4.595
18708TIP3    H177615   2.664   4.543   4.639
18708TIP3    H277616   2.545   4.534   4.548
18709TIP3   OH277617   3.697   4.257   5.140
18709TIP3    H177618   3.632   4.331   5.132
18709TIP3    H277619   3.699   4.244   5.236
18710TIP3   OH277620   2.308   4.094   4.998
18710TIP3    H177621   2.281   4.150   4.922
18710TIP3    H277622   2.240   4.118   5.065
18711TIP3   OH277623   3.040   5.043   4.352
18711TIP3    H177624   3.011   5.014   4.265
18711TIP3    H277625   3.008   5.136   4.357
18712TIP3   OH277626   2.562   4.859   5.023
18712TIP3    H177627   2.490   4.923   5.041
18712TIP3    H277628   2.632   4.918   4.994
18713TIP3   OH277629   3.369   4.146   4.631
18713TIP3    H177630   3.353   4.068   4.684
18713TIP3    H277631   3.440   4.191   4.681
18714TIP3   OH277632   2.264   4.281   4.798
18714TIP3    H177633   2.328   4.348   4.831
18714TIP3    H277634   2.318   4.238   4.727
18715TIP3   OH277635   2.405   5.057   5.103
18715TIP3    H177636   2.401   5.149   5.070
18715TIP3    H277637   2.317   5.051   5.149
18716TIP3   OH277638   2.014   5.022   4.184
18716TIP3    H177639   1.988   5.052   4.095
18716TIP3    H277640   2.021   5.106   4.232
18717TIP3   OH277641   3.375   5.186   4.858
18717TIP3    H177642   3.279   5.197   4.871
18717TIP3    H277643   3.402   5.279   4.840
18718TIP3   OH277644   3.407   4.016   4.997
18718TIP3    H177645   3.334   4.079   4.990
18718TIP3    H277646   3.478   4.058   4.944
18719TIP3   OH277647   2.706   3.827   4.744
18719TIP3    H177648   2.692   3.730   4.737
18719TIP3    H277649   2.618   3.858   4.773
18720TIP3   OH277650   3.201   5.365   4.518
18720TIP3    H177651   3.244   5.294   4.467
18720TIP3    H277652   3.240   5.445   4.477
18721TIP3   OH277653   3.321   5.158   4.369
18721TIP3    H177654   3.292   5.088   4.309
18721TIP3    H277655   3.325   5.110   4.453
18722TIP3   OH277656   3.485   5.016   5.219
18722TIP3    H177657   3.499   4.952   5.145
18722TIP3    H277658   3.504   5.102   5.176
18723TIP3   OH277659   2.933   4.707   4.195
18723TIP3    H177660   2.863   4.764   4.158
18723TIP3    H277661   3.004   4.716   4.128
18724TIP3   OH277662   2.940   4.561   3.895
18724TIP3    H177663   3.010   4.559   3.962
18724TIP3    H277664   2.972   4.491   3.837
18725TIP3   OH277665   3.672   4.649   5.025
18725TIP3    H177666   3.605   4.720   5.029
18725TIP3    H277667   3.718   4.670   4.942
18726TIP3   OH277668   3.276   4.730   4.286
18726TIP3    H177669   3.202   4.752   4.347
18726TIP3    H277670   3.324   4.660   4.337
18727TIP3   OH277671   3.268   4.545   5.200
18727TIP3    H177672   3.273   4.627   5.251
18727TIP3    H277673   3.207   4.575   5.129
18728TIP3   OH277674   2.439   4.794   4.478
18728TIP3    H177675   2.407   4.755   4.394
18728TIP3    H277676   2.500   4.725   4.512
18729TIP3   OH277677   2.572   5.134   4.746
18729TIP3    H177678   2.569   5.079   4.668
18729TIP3    H277679   2.649   5.097   4.793
18730TIP3   OH277680   2.473   4.668   4.843
18730TIP3    H177681   2.529   4.680   4.764
18730TIP3    H277682   2.510   4.735   4.906
18731TIP3   OH277683   3.111   5.224   4.914
18731TIP3    H177684   3.084   5.288   4.980
18731TIP3    H277685   3.087   5.139   4.958
18732TIP3   OH277686   2.566   5.110   5.316
18732TIP3    H177687   2.528   5.189   5.361
18732TIP3    H277688   2.500   5.092   5.244
18733TIP3   OH277689   3.164   4.647   4.055
18733TIP3    H177690   3.221   4.664   4.134
18733TIP3    H277691   3.208   4.696   3.982
18734TIP3   OH277692   2.259   4.727   5.233
18734TIP3    H177693   2.264   4.795   5.304
18734TIP3    H277694   2.167   4.739   5.206
18735TIP3   OH277695   2.936   5.320   4.401
18735TIP3    H177696   2.981   5.350   4.480
18735TIP3    H277697   2.880   5.395   4.377
18736TIP3   OH277698   2.390   5.314   5.389
18736TIP3    H177699   2.387   5.304   5.293
18736TIP3    H277700   2.296   5.303   5.414
18737TIP3   OH277701   3.536   3.820   4.041
18737TIP3    H177702   3.442   3.834   4.068
18737TIP3    H277703   3.558   3.906   4.000
18738TIP3   OH277704   2.337   4.697   4.240
18738TIP3    H177705   2.308   4.775   4.188
18738TIP3    H277706   2.271   4.631   4.218
18739TIP3   OH277707   3.649   5.256   3.878
18739TIP3    H177708   3.663   5.351   3.895
18739TIP3    H277709   3.742   5.227   3.875
18740TIP3   OH277710   1.947   4.938   5.124
18740TIP3    H177711   1.899   4.931   5.040
18740TIP3    H277712   1.951   4.845   5.150
18741TIP3   OH277713   1.921   5.213   4.807
18741TIP3    H177714   2.017   5.201   4.805
18741TIP3    H277715   1.913   5.294   4.859
18742TIP3   OH277716   3.745   5.283   5.374
18742TIP3    H177717   3.734   5.186   5.374
18742TIP3    H277718   3.659   5.307   5.416
18743TIP3   OH277719   2.841   5.236   5.263
18743TIP3    H177720   2.848   5.321   5.312
18743TIP3    H277721   2.753   5.202   5.288
18744TIP3   OH277722   2.884   5.612   4.242
18744TIP3    H177723   2.874   5.603   4.146
18744TIP3    H277724   2.885   5.708   4.256
18745TIP3   OH277725   2.248   5.498   4.423
18745TIP3    H177726   2.262   5.457   4.511
18745TIP3    H277727   2.163   5.458   4.399
18746TIP3   OH277728   3.191   5.533   3.941
18746TIP3    H177729   3.233   5.456   3.896
18746TIP3    H277730   3.193   5.505   4.035
18747TIP3   OH277731   3.160   5.525   4.217
18747TIP3    H177732   3.064   5.533   4.236
18747TIP3    H277733   3.184   5.452   4.276
18748TIP3   OH277734   3.459   4.429   5.423
18748TIP3    H177735   3.416   4.477   5.351
18748TIP3    H277736   3.461   4.337   5.390
18749TIP3   OH277737   2.173   5.069   5.223
18749TIP3    H177738   2.195   5.033   5.311
18749TIP3    H277739   2.086   5.030   5.202
18750TIP3   OH277740   2.440   3.917   4.820
18750TIP3    H177741   2.350   3.906   4.782
18750TIP3    H277742   2.429   4.001   4.866
18751TIP3   OH277743   2.904   3.886   5.156
18751TIP3    H177744   2.944   3.844   5.235
18751TIP3    H277745   2.807   3.872   5.170
18752TIP3   OH277746   3.233   4.266   5.243
18752TIP3    H177747   3.180   4.249   5.324
18752TIP3    H277748   3.218   4.360   5.222
18753TIP3   OH277749   3.309   4.751   3.830
18753TIP3    H177750   3.312   4.731   3.733
18753TIP3    H277751   3.396   4.793   3.840
18754TIP3   OH277752   2.869   4.141   3.886
18754TIP3    H177753   2.839   4.138   3.979
18754TIP3    H277754   2.839   4.053   3.857
18755TIP3   OH277755   2.450   4.413   4.940
18755TIP3    H177756   2.378   4.412   5.006
18755TIP3    H277757   2.446   4.506   4.907
18756TIP3   OH277758   2.446   4.430   4.428
18756TIP3    H177759   2.353   4.401   4.416
18756TIP3    H277760   2.486   4.397   4.345
18757TIP3   OH277761   2.998   4.476   4.307
18757TIP3    H177762   2.958   4.559   4.272
18757TIP3    H277763   3.069   4.461   4.242
18758TIP3   OH277764   2.906   4.498   5.452
18758TIP3    H177765   2.852   4.421   5.484
18758TIP3    H277766   2.989   4.482   5.498
18759TIP3   OH277767   3.099   4.424   4.591
18759TIP3    H177768   3.076   4.482   4.516
18759TIP3    H277769   3.115   4.340   4.543
18760TIP3   OH277770   2.215   4.442   5.114
18760TIP3    H177771   2.219   4.482   5.203
18760TIP3    H277772   2.169   4.359   5.131
18761TIP3   OH277773   2.553   4.178   3.798
18761TIP3    H177774   2.507   4.138   3.874
18761TIP3    H277775   2.482   4.221   3.748
18762TIP3   OH277776   1.877   4.153   4.508
18762TIP3    H177777   1.945   4.150   4.579
18762TIP3    H277778   1.924   4.114   4.432
18763TIP3   OH277779   2.007   4.225   4.046
18763TIP3    H177780   2.056   4.287   3.989
18763TIP3    H277781   1.937   4.285   4.079
18764TIP3   OH277782   3.024   4.585   5.051
18764TIP3    H177783   3.059   4.518   4.989
18764TIP3    H277784   2.977   4.530   5.116
18765TIP3   OH277785   2.703   4.180   4.531
18765TIP3    H177786   2.610   4.183   4.561
18765TIP3    H277787   2.752   4.168   4.613
18766TIP3   OH277788   2.184   4.338   4.417
18766TIP3    H177789   2.095   4.352   4.379
18766TIP3    H277790   2.213   4.254   4.378
18767TIP3   OH277791   2.549   4.340   4.179
18767TIP3    H177792   2.644   4.353   4.197
18767TIP3    H277793   2.526   4.409   4.115
18768TIP3   OH277794   3.143   4.104   4.856
18768TIP3    H177795   3.074   4.112   4.925
18768TIP3    H277796   3.093   4.082   4.776
18769TIP3   OH277797   2.418   4.460   3.939
18769TIP3    H177798   2.365   4.421   3.867
18769TIP3    H277799   2.501   4.479   3.892
18770TIP3   OH277800   3.465   5.671   5.488
18770TIP3    H177801   3.492   5.709   5.403
18770TIP3    H277802   3.537   5.701   5.547
18771TIP3   OH277803   2.233   4.917   5.444
18771TIP3    H177804   2.303   4.943   5.505
18771TIP3    H277805   2.154   4.931   5.502
18772TIP3   OH277806   2.832   4.457   4.720
18772TIP3    H177807   2.891   4.403   4.666
18772TIP3    H277808   2.818   4.403   4.799
18773TIP3   OH277809   2.333   4.072   4.364
18773TIP3    H177810   2.302   3.980   4.361
18773TIP3    H277811   2.411   4.067   4.308
18774TIP3   OH277812   2.696   4.291   4.961
18774TIP3    H177813   2.612   4.342   4.971
18774TIP3    H277814   2.750   4.325   5.035
18775TIP3   OH277815   2.754   4.914   4.130
18775TIP3    H177816   2.675   4.866   4.098
18775TIP3    H277817   2.734   4.923   4.226
18776TIP3   OH277818   3.470   4.831   5.011
18776TIP3    H177819   3.529   4.879   4.950
18776TIP3    H277820   3.385   4.839   4.964
18777TIP3   OH277821   3.138   4.195   3.949
18777TIP3    H177822   3.043   4.209   3.935
18777TIP3    H277823   3.171   4.281   3.983
18778TIP3   OH277824   2.903   4.937   5.254
18778TIP3    H177825   2.866   4.898   5.333
18778TIP3    H277826   2.880   5.030   5.262
18779TIP3   OH277827   3.211   4.385   4.113
18779TIP3    H177828   3.301   4.372   4.152
18779TIP3    H277829   3.220   4.467   4.061
18780TIP3   OH277830   2.264   4.850   4.711
18780TIP3    H177831   2.335   4.844   4.644
18780TIP3    H277832   2.271   4.765   4.756
18781TIP3   OH277833   2.965   5.060   4.034
18781TIP3    H177834   2.931   5.144   4.071
18781TIP3    H277835   2.891   4.999   4.055
18782TIP3   OH277836   1.964   4.692   5.238
18782TIP3    H177837   1.983   4.649   5.323
18782TIP3    H277838   1.902   4.630   5.195
18783TIP3   OH277839   2.666   4.646   5.459
18783TIP3    H177840   2.634   4.622   5.371
18783TIP3    H277841   2.759   4.617   5.457
18784TIP3   OH277842   3.131   5.180   5.250
18784TIP3    H177843   3.040   5.201   5.225
18784TIP3    H277844   3.130   5.211   5.343
18785TIP3   OH277845   3.702   4.400   4.086
18785TIP3    H177846   3.643   4.370   4.016
18785TIP3    H277847   3.709   4.495   4.062
18786TIP3   OH277848   3.699   4.986   5.372
18786TIP3    H177849   3.610   5.008   5.334
18786TIP3    H277850   3.755   4.982   5.292
18787TIP3   OH277851   3.528   5.284   4.130
18787TIP3    H177852   3.493   5.201   4.164
18787TIP3    H277853   3.560   5.263   4.041
18788TIP3   OH277854   3.250   4.765   4.837
18788TIP3    H177855   3.155   4.742   4.830
18788TIP3    H277856   3.293   4.687   4.798
18789TIP3   OH277857   2.502   5.197   4.449
18789TIP3    H177858   2.553   5.277   4.428
18789TIP3    H277859   2.414   5.221   4.417
18790TIP3   OH277860   2.078   4.682   3.906
18790TIP3    H177861   2.137   4.748   3.946
18790TIP3    H277862   1.990   4.714   3.932
18791TIP3   OH277863   2.644   4.964   4.402
18791TIP3    H177864   2.615   5.056   4.411
18791TIP3    H277865   2.571   4.916   4.446
18792TIP3   OH277866   2.690   5.381   5.040
18792TIP3    H177867   2.733   5.464   5.014
18792TIP3    H277868   2.750   5.349   5.109
18793TIP3   OH277869   2.512   5.464   4.356
18793TIP3    H177870   2.415   5.477   4.367
18793TIP3    H277871   2.547   5.548   4.391
18794TIP3   OH277872   3.045   4.985   5.004
18794TIP3    H177873   3.008   4.965   5.093
18794TIP3    H277874   3.107   4.912   4.989
18795TIP3   OH277875   3.273   5.088   3.913
18795TIP3    H177876   3.304   5.043   3.994
18795TIP3    H277877   3.177   5.071   3.923
18796TIP3   OH277878   3.320   5.441   5.255
18796TIP3    H177879   3.254   5.390   5.204
18796TIP3    H277880   3.342   5.511   5.188
18797TIP3   OH277881   3.721   5.526   3.937
18797TIP3    H177882   3.792   5.591   3.919
18797TIP3    H277883   3.650   5.587   3.967
18798TIP3   OH277884   2.129   4.167   5.194
18798TIP3    H177885   2.038   4.201   5.189
18798TIP3    H277886   2.118   4.081   5.237
18799TIP3   OH277887   3.353   4.952   4.136
18799TIP3    H177888   3.329   4.875   4.192
18799TIP3    H277889   3.448   4.958   4.156
18800TIP3   OH277890   2.091   5.346   5.036
18800TIP3    H177891   2.118   5.253   5.036
18800TIP3    H277892   2.118   5.374   5.125
18801TIP3   OH277893   2.685   5.196   3.761
18801TIP3    H177894   2.699   5.119   3.704
18801TIP3    H277895   2.646   5.153   3.840
18802TIP3   OH277896   2.568   5.149   4.007
18802TIP3    H177897   2.590   5.098   4.085
18802TIP3    H277898   2.573   5.242   4.039
18803TIP3   OH277899   2.218   4.874   4.056
18803TIP3    H177900   2.148   4.913   4.112
18803TIP3    H277901   2.270   4.952   4.029
18804TIP3   OH277902   3.001   4.143   5.085
18804TIP3    H177903   3.073   4.148   5.150
18804TIP3    H277904   2.963   4.055   5.105
18805TIP3   OH277905   3.077   4.102   4.196
18805TIP3    H177906   3.100   4.149   4.114
18805TIP3    H277907   3.135   4.145   4.260
18806TIP3   OH277908   2.846   5.317   4.079
18806TIP3    H177909   2.764   5.370   4.085
18806TIP3    H277910   2.899   5.370   4.017
18807TIP3   OH277911   2.800   4.276   4.278
18807TIP3    H177912   2.879   4.333   4.283
18807TIP3    H277913   2.774   4.264   4.371
18808TIP3   OH277914   2.856   4.379   5.195
18808TIP3    H177915   2.862   4.435   5.274
18808TIP3    H277916   2.919   4.307   5.208
18809TIP3   OH277917   2.885   3.983   4.369
18809TIP3    H177918   2.853   4.048   4.434
18809TIP3    H277919   2.954   4.037   4.323
18810TIP3   OH277920   2.584   5.420   4.080
18810TIP3    H177921   2.595   5.503   4.026
18810TIP3    H277922   2.559   5.456   4.168
18811TIP3   OH277923   2.451   4.091   4.038
18811TIP3    H177924   2.445   4.181   4.075
18811TIP3    H277925   2.542   4.068   4.065
18812TIP3   OH277926   3.474   4.165   5.284
18812TIP3    H177927   3.380   4.194   5.270
18812TIP3    H277928   3.504   4.166   5.192
18813TIP3   OH277929   3.331   4.545   4.689
18813TIP3    H177930   3.253   4.499   4.654
18813TIP3    H277931   3.382   4.474   4.735
18814TIP3   OH277932   2.275   5.136   3.944
18814TIP3    H177933   2.339   5.202   3.973
18814TIP3    H277934   2.326   5.091   3.874
18815TIP3   OH277935   2.109   4.403   3.857
18815TIP3    H177936   2.109   4.499   3.877
18815TIP3    H277937   2.020   4.383   3.827
18816TIP3   OH277938   3.441   5.468   4.850
18816TIP3    H177939   3.428   5.538   4.783
18816TIP3    H277940   3.536   5.475   4.870
18817TIP3   OH277941   2.191   3.882   4.729
18817TIP3    H177942   2.169   3.885   4.633
18817TIP3    H277943   2.147   3.798   4.756
18818TIP3   OH277944   2.086   5.274   4.344
18818TIP3    H177945   2.001   5.320   4.342
18818TIP3    H277946   2.135   5.323   4.277
18819TIP3   OH277947   2.009   5.540   5.475
18819TIP3    H177948   2.068   5.516   5.549
18819TIP3    H277949   1.966   5.454   5.455
18820TIP3   OH277950   2.886   5.382   3.774
18820TIP3    H177951   2.818   5.316   3.801
18820TIP3    H277952   2.959   5.323   3.750
18821TIP3   OH277953   3.125   5.268   5.510
18821TIP3    H177954   3.094   5.179   5.536
18821TIP3    H277955   3.204   5.282   5.567
18822TIP3   OH277956   3.343   5.358   3.795
18822TIP3    H177957   3.372   5.280   3.843
18822TIP3    H277958   3.418   5.381   3.739
18823TIP3   OH277959   2.003   4.916   5.568
18823TIP3    H177960   2.014   4.825   5.540
18823TIP3    H277961   1.923   4.944   5.520
18824TIP3   OH277962   2.433   4.951   3.778
18824TIP3    H177963   2.446   4.873   3.834
18824TIP3    H277964   2.506   4.939   3.714
18825TIP3   OH277965   2.672   4.913   5.512
18825TIP3    H177966   2.635   4.945   5.428
18825TIP3    H277967   2.678   4.816   5.500
18826TIP3   OH277968   2.974   5.059   3.753
18826TIP3    H177969   2.947   5.071   3.846
18826TIP3    H277970   2.954   4.964   3.741
18827TIP3   OH277971   3.239   4.902   5.249
18827TIP3    H177972   3.317   4.961   5.242
18827TIP3    H277973   3.168   4.967   5.256
18828TIP3   OH277974   2.092   4.640   5.511
18828TIP3    H177975   2.127   4.552   5.496
18828TIP3    H277976   2.060   4.639   5.601
18829TIP3   OH277977   2.552   4.752   4.016
18829TIP3    H177978   2.504   4.699   4.081
18829TIP3    H277979   2.581   4.683   3.951
18830TIP3   OH277980   2.480   4.534   5.249
18830TIP3    H177981   2.419   4.605   5.275
18830TIP3    H277982   2.517   4.570   5.166
18831TIP3   OH277983   2.659   4.574   3.839
18831TIP3    H177984   2.642   4.563   3.744
18831TIP3    H277985   2.757   4.582   3.844
18832TIP3   OH277986   3.595   4.807   3.781
18832TIP3    H177987   3.573   4.768   3.696
18832TIP3    H277988   3.602   4.903   3.761
18833TIP3   OH277989   2.520   4.272   5.356
18833TIP3    H177990   2.531   4.200   5.291
18833TIP3    H277991   2.515   4.352   5.299
18834TIP3   OH277992   2.559   4.110   5.109
18834TIP3    H177993   2.611   4.156   5.038
18834TIP3    H277994   2.471   4.101   5.067
18835TIP3   OH277995   2.714   4.657   5.132
18835TIP3    H177996   2.790   4.641   5.075
18835TIP3    H277997   2.678   4.741   5.099
18836TIP3   OH277998   2.363   4.398   5.547
18836TIP3    H177999   2.288   4.338   5.526
18836TIP3    H278000   2.430   4.360   5.486
18837TIP3   OH278001   2.639   3.854   5.148
18837TIP3    H178002   2.623   3.950   5.137
18837TIP3    H278003   2.563   3.818   5.098
18838TIP3   OH278004   2.764   4.287   5.508
18838TIP3    H178005   2.740   4.264   5.598
18838TIP3    H278006   2.685   4.266   5.454
18839TIP3   OH278007   3.038   4.198   5.413
18839TIP3    H178008   2.942   4.204   5.429
18839TIP3    H278009   3.067   4.137   5.484
18840TIP3   OH278010   3.197   4.065   5.614
18840TIP3    H178011   3.188   3.967   5.613
18840TIP3    H278012   3.166   4.090   5.702
18841TIP3   OH278013   2.176   4.190   5.520
18841TIP3    H178014   2.201   4.117   5.459
18841TIP3    H278015   2.168   4.142   5.603
18842TIP3   OH278016   2.663   3.791   5.418
18842TIP3    H178017   2.730   3.721   5.413
18842TIP3    H278018   2.649   3.809   5.323
18843TIP3   OH278019   2.698   3.958   5.623
18843TIP3    H178020   2.680   3.903   5.543
18843TIP3    H278021   2.633   4.026   5.615
18844TIP3   OH278022   2.644   5.644   3.944
18844TIP3    H178023   2.741   5.656   3.952
18844TIP3    H278024   2.627   5.707   3.874
18845TIP3   OH278025   2.001   5.104   3.891
18845TIP3    H178026   2.097   5.112   3.912
18845TIP3    H278027   2.006   5.037   3.819
18846TIP3   OH278028   1.876   5.642   4.391
18846TIP3    H178029   1.805   5.594   4.343
18846TIP3    H278030   1.905   5.576   4.455
18847TIP3   OH278031   1.959   5.454   4.576
18847TIP3    H178032   1.924   5.366   4.595
18847TIP3    H278033   1.981   5.487   4.665
18848TIP3   OH278034   3.713   5.536   4.867
18848TIP3    H178035   3.712   5.548   4.965
18848TIP3    H278036   3.786   5.593   4.848
18849TIP3   OH278037   3.671   5.494   5.163
18849TIP3    H178038   3.621   5.416   5.130
18849TIP3    H278039   3.721   5.450   5.235
18850TIP3   OH278040   3.515   5.067   5.629
18850TIP3    H178041   3.427   5.062   5.669
18850TIP3    H278042   3.551   5.147   5.674
18851TIP3   OH278043   3.645   4.898   4.177
18851TIP3    H178044   3.732   4.938   4.194
18851TIP3    H278045   3.645   4.824   4.242
18852TIP3   OH278046   3.681   4.707   4.364
18852TIP3    H178047   3.610   4.650   4.402
18852TIP3    H278048   3.742   4.718   4.439
18853TIP3   OH278049   3.658   4.976   4.861
18853TIP3    H178050   3.741   4.939   4.826
18853TIP3    H278051   3.672   5.072   4.845
18854TIP3   OH278052   3.513   5.266   5.090
18854TIP3    H178053   3.444   5.299   5.150
18854TIP3    H278054   3.458   5.225   5.020
18855TIP3   OH278055   3.713   4.690   4.001
18855TIP3    H178056   3.656   4.725   3.930
18855TIP3    H278057   3.704   4.758   4.070
18856TIP3   OH278058   3.548   4.413   3.856
18856TIP3    H178059   3.557   4.480   3.787
18856TIP3    H278060   3.531   4.330   3.806
18857TIP3   OH278061   3.446   4.560   4.414
18857TIP3    H178062   3.455   4.462   4.418
18857TIP3    H278063   3.433   4.577   4.509
18858TIP3   OH278064   1.964   4.761   4.825
18858TIP3    H178065   1.984   4.753   4.729
18858TIP3    H278066   2.053   4.746   4.862
18859TIP3   OH278067   3.547   4.750   5.388
18859TIP3    H178068   3.608   4.675   5.403
18859TIP3    H278069   3.607   4.827   5.389
18860TIP3   OH278070   3.701   4.541   5.450
18860TIP3    H178071   3.612   4.500   5.438
18860TIP3    H278072   3.758   4.463   5.445
18861TIP3   OH278073   3.473   4.158   3.768
18861TIP3    H178074   3.533   4.116   3.833
18861TIP3    H278075   3.387   4.115   3.786
18862TIP3   OH278076   3.428   4.310   4.258
18862TIP3    H178077   3.463   4.221   4.281
18862TIP3    H278078   3.511   4.353   4.234
18863TIP3   OH278079   3.493   4.366   4.811
18863TIP3    H178080   3.589   4.390   4.805
18863TIP3    H278081   3.476   4.381   4.904
18864TIP3   OH278082   3.501   4.439   5.088
18864TIP3    H178083   3.414   4.469   5.123
18864TIP3    H278084   3.544   4.525   5.065
18865TIP3   OH278085   1.926   4.290   5.439
18865TIP3    H178086   2.020   4.272   5.458
18865TIP3    H278087   1.881   4.210   5.472
18866TIP3   OH278088   3.723   3.843   5.622
18866TIP3    H178089   3.763   3.776   5.563
18866TIP3    H278090   3.742   3.925   5.574
18867TIP3   OH278091   3.497   4.038   4.270
18867TIP3    H178092   3.517   3.995   4.356
18867TIP3    H278093   3.436   3.977   4.226
18868TIP3   OH278094   2.046   4.120   4.726
18868TIP3    H178095   2.093   4.039   4.753
18868TIP3    H278096   2.099   4.191   4.766
18869TIP3   OH278097   1.875   4.420   4.831
18869TIP3    H178098   1.930   4.397   4.753
18869TIP3    H278099   1.919   4.502   4.858
18870TIP3   OH278100   3.680   4.053   5.458
18870TIP3    H178101   3.587   4.080   5.452
18870TIP3    H278102   3.686   3.999   5.378
18871TIP3   OH278103   3.679   4.044   3.926
18871TIP3    H178104   3.722   3.972   3.874
18871TIP3    H278105   3.750   4.111   3.931
18872TIP3   OH278106   1.911   4.047   4.238
18872TIP3    H178107   1.818   4.065   4.223
18872TIP3    H278108   1.954   4.095   4.166
18873TIP3   OH278109   3.385   5.542   4.433
18873TIP3    H178110   3.452   5.510   4.370
18873TIP3    H278111   3.437   5.593   4.497
18874TIP3   OH278112   1.907   3.915   5.068
18874TIP3    H178113   1.839   3.894   5.135
18874TIP3    H278114   1.860   3.981   5.013
18875TIP3   OH278115   2.130   5.238   5.485
18875TIP3    H178116   2.044   5.252   5.441
18875TIP3    H278117   2.101   5.226   5.576
18876TIP3   OH278118   2.419   5.332   5.109
18876TIP3    H178119   2.384   5.418   5.083
18876TIP3    H278120   2.512   5.342   5.082
18877TIP3   OH278121   2.851   5.475   5.404
18877TIP3    H178122   2.869   5.442   5.495
18877TIP3    H278123   2.940   5.506   5.377
18878TIP3   OH278124   3.080   5.602   5.333
18878TIP3    H178125   3.153   5.543   5.309
18878TIP3    H278126   3.119   5.644   5.413
18879TIP3   OH278127   3.582   3.863   5.241
18879TIP3    H178128   3.498   3.893   5.201
18879TIP3    H278129   3.600   3.782   5.189
18880TIP3   OH278130   2.163   5.658   5.112
18880TIP3    H178131   2.089   5.705   5.071
18880TIP3    H278132   2.129   5.636   5.200
18881TIP3   OH278133   2.409   5.616   5.018
18881TIP3    H178134   2.320   5.628   5.059
18881TIP3    H278135   2.403   5.674   4.940
18882TIP3   OH278136   2.880   5.607   4.936
18882TIP3    H178137   2.833   5.661   4.871
18882TIP3    H278138   2.894   5.670   5.010
18883TIP3   OH278139   3.110   5.490   5.035
18883TIP3    H178140   3.023   5.514   5.002
18883TIP3    H278141   3.156   5.575   5.027
18884TIP3   OH278142   3.368   5.646   5.062
18884TIP3    H178143   3.359   5.742   5.038
18884TIP3    H278144   3.388   5.609   4.974
18885TIP3   OH278145   2.106   5.522   4.805
18885TIP3    H178146   2.100   5.476   4.892
18885TIP3    H278147   2.188   5.486   4.766
18886TIP3   OH278148   2.315   5.393   4.671
18886TIP3    H178149   2.298   5.300   4.692
18886TIP3    H278150   2.401   5.407   4.717
18887TIP3   OH278151   2.574   5.441   4.758
18887TIP3    H178152   2.592   5.349   4.731
18887TIP3    H278153   2.579   5.435   4.854
18888TIP3   OH278154   2.922   4.006   4.672
18888TIP3    H178155   2.854   3.942   4.699
18888TIP3    H278156   2.977   3.954   4.613
18889TIP3   OH278157   3.435   3.813   4.681
18889TIP3    H178158   3.497   3.872   4.630
18889TIP3    H278159   3.347   3.848   4.656
18890TIP3   OH278160   3.601   3.931   4.510
18890TIP3    H178161   3.671   3.879   4.464
18890TIP3    H278162   3.650   4.018   4.518
18891TIP3   OH278163   2.157   3.870   4.456
18891TIP3    H178164   2.078   3.848   4.404
18891TIP3    H278165   2.205   3.785   4.452
18892TIP3   OH278166   2.036   3.845   4.029
18892TIP3    H178167   2.084   3.911   3.976
18892TIP3    H278168   1.978   3.902   4.083
18893TIP3   OH278169   2.608   3.861   4.435
18893TIP3    H178170   2.698   3.899   4.430
18893TIP3    H278171   2.601   3.840   4.528
18894TIP3   OH278172   3.174   3.864   4.599
18894TIP3    H178173   3.173   3.874   4.503
18894TIP3    H278174   3.139   3.773   4.612
18895TIP3   OH278175   3.304   3.867   4.167
18895TIP3    H178176   3.230   3.927   4.149
18895TIP3    H278177   3.259   3.781   4.187
18896TIP3   OH278178   2.028   5.440   4.129
18896TIP3    H178179   1.960   5.439   4.059
18896TIP3    H278180   2.027   5.535   4.150
18897TIP3   OH278181   2.219   4.038   3.880
18897TIP3    H178182   2.273   3.979   3.826
18897TIP3    H278183   2.285   4.071   3.944
18898TIP3   OH278184   2.723   4.063   4.120
18898TIP3    H178185   2.746   4.006   4.195
18898TIP3    H278186   2.725   4.150   4.168
18899TIP3   OH278187   2.914   5.568   3.966
18899TIP3    H178188   3.004   5.596   3.944
18899TIP3    H278189   2.892   5.519   3.884
18900TIP3   OH278190   3.587   5.522   4.236
18900TIP3    H178191   3.565   5.444   4.179
18900TIP3    H278192   3.578   5.595   4.172
18901TIP3   OH278193   2.146   3.923   5.402
18901TIP3    H178194   2.112   3.843   5.447
18901TIP3    H278195   2.239   3.920   5.437
18902TIP3   OH278196   2.347   3.858   5.556
18902TIP3    H178197   2.437   3.826   5.544
18902TIP3    H278198   2.309   3.783   5.609
18903TIP3   OH278199   2.207   5.537   3.826
18903TIP3    H178200   2.182   5.564   3.915
18903TIP3    H278201   2.286   5.481   3.842
18904TIP3   OH278202   3.188   3.787   5.577
18904TIP3    H178203   3.198   3.750   5.666
18904TIP3    H278204   3.280   3.789   5.545
18905TIP3   OH278205   3.508   5.394   5.446
18905TIP3    H178206   3.428   5.380   5.392
18905TIP3    H278207   3.498   5.489   5.467
18906TIP3   OH278208   4.952   4.783   4.445
18906TIP3    H178209   4.953   4.881   4.438
18906TIP3    H278210   4.881   4.759   4.383
18907TIP3   OH278211   4.839   4.710   4.793
18907TIP3    H178212   4.837   4.644   4.864
18907TIP3    H278213   4.806   4.660   4.716
18908TIP3   OH278214   4.077   4.673   4.947
18908TIP3    H178215   4.081   4.610   5.021
18908TIP3    H278216   4.148   4.734   4.970
18909TIP3   OH278217   5.209   5.003   4.621
18909TIP3    H178218   5.166   4.932   4.669
18909TIP3    H278219   5.210   5.075   4.687
18910TIP3   OH278220   4.167   5.120   4.801
18910TIP3    H178221   4.135   5.034   4.766
18910TIP3    H278222   4.263   5.101   4.805
18911TIP3   OH278223   3.853   4.498   4.305
18911TIP3    H178224   3.792   4.564   4.342
18911TIP3    H278225   3.785   4.428   4.299
18912TIP3   OH278226   3.904   4.702   4.562
18912TIP3    H178227   3.925   4.617   4.606
18912TIP3    H278228   3.973   4.708   4.494
18913TIP3   OH278229   4.920   5.518   4.644
18913TIP3    H178230   4.984   5.448   4.616
18913TIP3    H278231   4.900   5.488   4.733
18914TIP3   OH278232   4.677   4.950   4.837
18914TIP3    H178233   4.711   4.886   4.773
18914TIP3    H278234   4.756   4.965   4.892
18915TIP3   OH278235   5.539   4.113   4.913
18915TIP3    H178236   5.552   4.174   4.989
18915TIP3    H278237   5.592   4.158   4.846
18916TIP3   OH278238   4.993   4.396   4.870
18916TIP3    H178239   5.009   4.299   4.869
18916TIP3    H278240   4.983   4.410   4.774
18917TIP3   OH278241   4.306   4.205   4.595
18917TIP3    H178242   4.314   4.288   4.545
18917TIP3    H278243   4.265   4.147   4.526
18918TIP3   OH278244   5.079   4.213   4.430
18918TIP3    H178245   5.145   4.182   4.496
18918TIP3    H278246   5.134   4.269   4.374
18919TIP3   OH278247   3.973   4.448   4.669
18919TIP3    H178248   4.035   4.387   4.711
18919TIP3    H278249   3.972   4.415   4.577
18920TIP3   OH278250   4.483   4.600   4.597
18920TIP3    H178251   4.551   4.543   4.638
18920TIP3    H278252   4.430   4.534   4.547
18921TIP3   OH278253   5.587   4.261   5.139
18921TIP3    H178254   5.517   4.329   5.129
18921TIP3    H278255   5.581   4.244   5.235
18922TIP3   OH278256   4.201   4.102   4.999
18922TIP3    H178257   4.161   4.148   4.921
18922TIP3    H278258   4.126   4.115   5.064
18923TIP3   OH278259   4.926   5.043   4.352
18923TIP3    H178260   4.897   5.014   4.265
18923TIP3    H278261   4.894   5.136   4.357
18924TIP3   OH278262   4.447   4.859   5.023
18924TIP3    H178263   4.375   4.923   5.041
18924TIP3    H278264   4.518   4.919   4.994
18925TIP3   OH278265   5.257   4.147   4.630
18925TIP3    H178266   5.237   4.069   4.683
18925TIP3    H278267   5.325   4.191   4.683
18926TIP3   OH278268   4.156   4.276   4.803
18926TIP3    H178269   4.211   4.353   4.828
18926TIP3    H278270   4.201   4.239   4.723
18927TIP3   OH278271   4.291   5.058   5.103
18927TIP3    H178272   4.286   5.149   5.069
18927TIP3    H278273   4.203   5.051   5.149
18928TIP3   OH278274   3.900   5.021   4.184
18928TIP3    H178275   3.873   5.051   4.095
18928TIP3    H278276   3.906   5.106   4.232
18929TIP3   OH278277   5.261   5.187   4.858
18929TIP3    H178278   5.165   5.197   4.871
18929TIP3    H278279   5.288   5.279   4.839
18930TIP3   OH278280   5.292   4.016   4.997
18930TIP3    H178281   5.220   4.079   4.989
18930TIP3    H278282   5.363   4.058   4.945
18931TIP3   OH278283   4.591   3.828   4.745
18931TIP3    H178284   4.579   3.731   4.737
18931TIP3    H278285   4.502   3.856   4.773
18932TIP3   OH278286   5.086   5.365   4.518
18932TIP3    H178287   5.130   5.294   4.467
18932TIP3    H278288   5.126   5.445   4.477
18933TIP3   OH278289   5.206   5.158   4.369
18933TIP3    H178290   5.177   5.088   4.309
18933TIP3    H278291   5.211   5.110   4.453
18934TIP3   OH278292   5.371   5.016   5.219
18934TIP3    H178293   5.384   4.952   5.145
18934TIP3    H278294   5.389   5.102   5.176
18935TIP3   OH278295   4.819   4.707   4.196
18935TIP3    H178296   4.749   4.763   4.159
18935TIP3    H278297   4.889   4.716   4.128
18936TIP3   OH278298   4.825   4.560   3.897
18936TIP3    H178299   4.896   4.559   3.962
18936TIP3    H278300   4.857   4.492   3.836
18937TIP3   OH278301   5.558   4.648   5.024
18937TIP3    H178302   5.491   4.719   5.029
18937TIP3    H278303   5.605   4.671   4.942
18938TIP3   OH278304   5.163   4.729   4.287
18938TIP3    H178305   5.088   4.752   4.347
18938TIP3    H278306   5.209   4.660   4.337
18939TIP3   OH278307   5.154   4.545   5.199
18939TIP3    H178308   5.157   4.626   5.253
18939TIP3    H278309   5.091   4.574   5.130
18940TIP3   OH278310   4.325   4.795   4.478
18940TIP3    H178311   4.292   4.755   4.395
18940TIP3    H278312   4.385   4.725   4.512
18941TIP3   OH278313   4.458   5.134   4.746
18941TIP3    H178314   4.455   5.079   4.668
18941TIP3    H278315   4.535   5.097   4.793
18942TIP3   OH278316   4.360   4.667   4.844
18942TIP3    H178317   4.415   4.681   4.764
18942TIP3    H278318   4.395   4.736   4.905
18943TIP3   OH278319   4.996   5.225   4.914
18943TIP3    H178320   4.969   5.288   4.980
18943TIP3    H278321   4.973   5.139   4.957
18944TIP3   OH278322   4.453   5.111   5.313
18944TIP3    H178323   4.414   5.186   5.363
18944TIP3    H278324   4.384   5.092   5.245
18945TIP3   OH278325   5.049   4.647   4.055
18945TIP3    H178326   5.106   4.664   4.134
18945TIP3    H278327   5.093   4.696   3.982
18946TIP3   OH278328   4.146   4.728   5.232
18946TIP3    H178329   4.150   4.795   5.303
18946TIP3    H278330   4.053   4.738   5.207
18947TIP3   OH278331   4.822   5.320   4.401
18947TIP3    H178332   4.866   5.350   4.480
18947TIP3    H278333   4.765   5.395   4.377
18948TIP3   OH278334   4.275   5.313   5.387
18948TIP3    H178335   4.272   5.304   5.291
18948TIP3    H278336   4.182   5.304   5.413
18949TIP3   OH278337   5.422   3.820   4.041
18949TIP3    H178338   5.328   3.834   4.068
18949TIP3    H278339   5.443   3.906   4.000
18950TIP3   OH278340   4.222   4.697   4.240
18950TIP3    H178341   4.193   4.775   4.188
18950TIP3    H278342   4.156   4.631   4.218
18951TIP3   OH278343   5.534   5.256   3.878
18951TIP3    H178344   5.549   5.351   3.895
18951TIP3    H278345   5.627   5.227   3.875
18952TIP3   OH278346   3.832   4.939   5.126
18952TIP3    H178347   3.785   4.931   5.041
18952TIP3    H278348   3.836   4.844   5.150
18953TIP3   OH278349   3.807   5.216   4.804
18953TIP3    H178350   3.903   5.199   4.806
18953TIP3    H278351   3.798   5.292   4.861
18954TIP3   OH278352   5.630   5.282   5.375
18954TIP3    H178353   5.620   5.186   5.372
18954TIP3    H278354   5.544   5.308   5.415
18955TIP3   OH278355   4.727   5.235   5.266
18955TIP3    H178356   4.733   5.322   5.313
18955TIP3    H278357   4.638   5.203   5.287
18956TIP3   OH278358   4.770   5.612   4.243
18956TIP3    H178359   4.759   5.603   4.146
18956TIP3    H278360   4.771   5.708   4.256
18957TIP3   OH278361   4.131   5.501   4.424
18957TIP3    H178362   4.150   5.456   4.510
18957TIP3    H278363   4.050   5.455   4.397
18958TIP3   OH278364   5.076   5.532   3.941
18958TIP3    H178365   5.119   5.456   3.896
18958TIP3    H278366   5.079   5.505   4.035
18959TIP3   OH278367   5.045   5.525   4.217
18959TIP3    H178368   4.950   5.533   4.236
18959TIP3    H278369   5.070   5.452   4.276
18960TIP3   OH278370   5.346   4.429   5.423
18960TIP3    H178371   5.301   4.476   5.351
18960TIP3    H278372   5.346   4.337   5.393
18961TIP3   OH278373   4.059   5.070   5.223
18961TIP3    H178374   4.081   5.033   5.311
18961TIP3    H278375   3.972   5.030   5.201
18962TIP3   OH278376   4.326   3.918   4.820
18962TIP3    H178377   4.236   3.904   4.781
18962TIP3    H278378   4.312   4.000   4.866
18963TIP3   OH278379   4.789   3.889   5.158
18963TIP3    H178380   4.829   3.843   5.234
18963TIP3    H278381   4.692   3.870   5.170
18964TIP3   OH278382   5.117   4.265   5.244
18964TIP3    H178383   5.063   4.250   5.324
18964TIP3    H278384   5.104   4.360   5.222
18965TIP3   OH278385   5.195   4.751   3.829
18965TIP3    H178386   5.197   4.730   3.733
18965TIP3    H278387   5.281   4.793   3.839
18966TIP3   OH278388   4.755   4.141   3.886
18966TIP3    H178389   4.725   4.137   3.979
18966TIP3    H278390   4.725   4.053   3.856
18967TIP3   OH278391   4.330   4.423   4.939
18967TIP3    H178392   4.258   4.421   5.007
18967TIP3    H278393   4.329   4.516   4.906
18968TIP3   OH278394   4.332   4.428   4.430
18968TIP3    H178395   4.238   4.402   4.416
18968TIP3    H278396   4.372   4.397   4.346
18969TIP3   OH278397   4.884   4.476   4.308
18969TIP3    H178398   4.844   4.559   4.272
18969TIP3    H278399   4.954   4.461   4.242
18970TIP3   OH278400   4.790   4.495   5.455
18970TIP3    H178401   4.736   4.422   5.485
18970TIP3    H278402   4.876   4.483   5.498
18971TIP3   OH278403   4.987   4.424   4.591
18971TIP3    H178404   4.961   4.481   4.517
18971TIP3    H278405   4.999   4.340   4.543
18972TIP3   OH278406   4.105   4.439   5.114
18972TIP3    H178407   4.104   4.482   5.202
18972TIP3    H278408   4.053   4.359   5.132
18973TIP3   OH278409   4.439   4.181   3.796
18973TIP3    H178410   4.395   4.138   3.872
18973TIP3    H278411   4.366   4.221   3.748
18974TIP3   OH278412   3.768   4.121   4.512
18974TIP3    H178413   3.833   4.152   4.578
18974TIP3    H278414   3.815   4.114   4.428
18975TIP3   OH278415   3.892   4.224   4.044
18975TIP3    H178416   3.941   4.288   3.990
18975TIP3    H278417   3.823   4.285   4.079
18976TIP3   OH278418   4.910   4.586   5.050
18976TIP3    H178419   4.945   4.518   4.989
18976TIP3    H278420   4.864   4.532   5.116
18977TIP3   OH278421   4.587   4.181   4.533
18977TIP3    H178422   4.493   4.182   4.560
18977TIP3    H278423   4.638   4.167   4.613
18978TIP3   OH278424   4.071   4.338   4.416
18978TIP3    H178425   3.981   4.352   4.380
18978TIP3    H278426   4.097   4.254   4.377
18979TIP3   OH278427   4.435   4.341   4.179
18979TIP3    H178428   4.530   4.353   4.197
18979TIP3    H278429   4.411   4.409   4.115
18980TIP3   OH278430   5.029   4.104   4.856
18980TIP3    H178431   4.961   4.111   4.925
18980TIP3    H278432   4.978   4.082   4.776
18981TIP3   OH278433   4.305   4.459   3.938
18981TIP3    H178434   4.250   4.422   3.867
18981TIP3    H278435   4.387   4.479   3.891
18982TIP3   OH278436   5.350   5.670   5.489
18982TIP3    H178437   5.377   5.709   5.404
18982TIP3    H278438   5.423   5.701   5.547
18983TIP3   OH278439   4.118   4.915   5.445
18983TIP3    H178440   4.190   4.941   5.506
18983TIP3    H278441   4.040   4.930   5.502
18984TIP3   OH278442   4.715   4.456   4.720
18984TIP3    H178443   4.777   4.404   4.666
18984TIP3    H278444   4.706   4.403   4.800
18985TIP3   OH278445   4.218   4.072   4.364
18985TIP3    H178446   4.187   3.979   4.361
18985TIP3    H278447   4.297   4.067   4.308
18986TIP3   OH278448   4.600   4.304   4.957
18986TIP3    H178449   4.521   4.357   4.969
18986TIP3    H278450   4.648   4.328   5.040
18987TIP3   OH278451   4.640   4.914   4.131
18987TIP3    H178452   4.560   4.866   4.098
18987TIP3    H278453   4.619   4.923   4.226
18988TIP3   OH278454   5.356   4.831   5.011
18988TIP3    H178455   5.414   4.879   4.950
18988TIP3    H278456   5.271   4.839   4.964
18989TIP3   OH278457   5.024   4.195   3.949
18989TIP3    H178458   4.929   4.209   3.935
18989TIP3    H278459   5.056   4.281   3.983
18990TIP3   OH278460   4.789   4.937   5.255
18990TIP3    H178461   4.752   4.897   5.334
18990TIP3    H278462   4.764   5.030   5.262
18991TIP3   OH278463   5.097   4.385   4.113
18991TIP3    H178464   5.186   4.372   4.151
18991TIP3    H278465   5.105   4.467   4.061
18992TIP3   OH278466   4.150   4.850   4.711
18992TIP3    H178467   4.221   4.844   4.644
18992TIP3    H278468   4.157   4.765   4.757
18993TIP3   OH278469   4.850   5.060   4.034
18993TIP3    H178470   4.816   5.144   4.071
18993TIP3    H278471   4.777   4.999   4.055
18994TIP3   OH278472   3.849   4.693   5.237
18994TIP3    H178473   3.869   4.649   5.322
18994TIP3    H278474   3.787   4.630   5.195
18995TIP3   OH278475   4.551   4.644   5.459
18995TIP3    H178476   4.520   4.624   5.369
18995TIP3    H278477   4.645   4.621   5.454
18996TIP3   OH278478   5.017   5.178   5.252
18996TIP3    H178479   4.926   5.201   5.224
18996TIP3    H278480   5.016   5.211   5.343
18997TIP3   OH278481   5.587   4.401   4.089
18997TIP3    H178482   5.530   4.370   4.016
18997TIP3    H278483   5.595   4.495   4.061
18998TIP3   OH278484   5.583   4.985   5.372
18998TIP3    H178485   5.497   5.008   5.330
18998TIP3    H278486   5.641   4.981   5.293
18999TIP3   OH278487   5.414   5.283   4.130
18999TIP3    H178488   5.379   5.200   4.163
18999TIP3    H278489   5.446   5.263   4.041
19000TIP3   OH278490   5.135   4.765   4.839
19000TIP3    H178491   5.041   4.743   4.830
19000TIP3    H278492   5.178   4.687   4.798
19001TIP3   OH278493   4.389   5.196   4.448
19001TIP3    H178494   4.439   5.277   4.428
19001TIP3    H278495   4.300   5.220   4.417
19002TIP3   OH278496   3.964   4.683   3.905
19002TIP3    H178497   4.023   4.748   3.947
19002TIP3    H278498   3.875   4.714   3.933
19003TIP3   OH278499   4.530   4.963   4.402
19003TIP3    H178500   4.501   5.056   4.411
19003TIP3    H278501   4.456   4.916   4.446
19004TIP3   OH278502   4.575   5.381   5.041
19004TIP3    H178503   4.619   5.464   5.014
19004TIP3    H278504   4.636   5.349   5.110
19005TIP3   OH278505   4.398   5.464   4.356
19005TIP3    H178506   4.301   5.477   4.366
19005TIP3    H278507   4.433   5.548   4.391
19006TIP3   OH278508   4.930   4.985   5.004
19006TIP3    H178509   4.893   4.965   5.091
19006TIP3    H278510   4.992   4.912   4.988
19007TIP3   OH278511   5.159   5.088   3.913
19007TIP3    H178512   5.189   5.042   3.994
19007TIP3    H278513   5.063   5.071   3.923
19008TIP3   OH278514   5.206   5.441   5.254
19008TIP3    H178515   5.139   5.391   5.204
19008TIP3    H278516   5.227   5.511   5.188
19009TIP3   OH278517   5.607   5.526   3.937
19009TIP3    H178518   5.677   5.591   3.919
19009TIP3    H278519   5.536   5.587   3.967
19010TIP3   OH278520   4.015   4.166   5.191
19010TIP3    H178521   3.924   4.201   5.190
19010TIP3    H278522   4.003   4.082   5.238
19011TIP3   OH278523   5.238   4.952   4.136
19011TIP3    H178524   5.215   4.875   4.192
19011TIP3    H278525   5.333   4.958   4.156
19012TIP3   OH278526   3.977   5.347   5.035
19012TIP3    H178527   4.004   5.253   5.036
19012TIP3    H278528   4.003   5.373   5.125
19013TIP3   OH278529   4.568   5.197   3.759
19013TIP3    H178530   4.586   5.118   3.705
19013TIP3    H278531   4.532   5.154   3.840
19014TIP3   OH278532   4.453   5.149   4.006
19014TIP3    H178533   4.475   5.098   4.085
19014TIP3    H278534   4.459   5.242   4.039
19015TIP3   OH278535   4.104   4.874   4.056
19015TIP3    H178536   4.034   4.913   4.112
19015TIP3    H278537   4.156   4.952   4.029
19016TIP3   OH278538   4.884   4.144   5.087
19016TIP3    H178539   4.959   4.148   5.148
19016TIP3    H278540   4.850   4.054   5.103
19017TIP3   OH278541   4.963   4.102   4.196
19017TIP3    H178542   4.986   4.149   4.114
19017TIP3    H278543   5.020   4.145   4.260
19018TIP3   OH278544   4.731   5.317   4.079
19018TIP3    H178545   4.650   5.370   4.085
19018TIP3    H278546   4.785   5.370   4.017
19019TIP3   OH278547   4.685   4.277   4.278
19019TIP3    H178548   4.765   4.333   4.283
19019TIP3    H278549   4.659   4.264   4.371
19020TIP3   OH278550   4.737   4.376   5.198
19020TIP3    H178551   4.750   4.437   5.272
19020TIP3    H278552   4.808   4.310   5.205
19021TIP3   OH278553   4.771   3.983   4.370
19021TIP3    H178554   4.738   4.048   4.434
19021TIP3    H278555   4.839   4.037   4.323
19022TIP3   OH278556   4.469   5.420   4.079
19022TIP3    H178557   4.481   5.502   4.026
19022TIP3    H278558   4.445   5.456   4.167
19023TIP3   OH278559   4.337   4.092   4.038
19023TIP3    H178560   4.331   4.182   4.076
19023TIP3    H278561   4.427   4.067   4.064
19024TIP3   OH278562   5.361   4.168   5.283
19024TIP3    H178563   5.267   4.195   5.270
19024TIP3    H278564   5.389   4.165   5.191
19025TIP3   OH278565   5.219   4.544   4.685
19025TIP3    H178566   5.137   4.500   4.656
19025TIP3    H278567   5.266   4.474   4.736
19026TIP3   OH278568   4.161   5.136   3.945
19026TIP3    H178569   4.225   5.202   3.973
19026TIP3    H278570   4.212   5.091   3.874
19027TIP3   OH278571   3.995   4.403   3.856
19027TIP3    H178572   3.994   4.498   3.877
19027TIP3    H278573   3.906   4.383   3.828
19028TIP3   OH278574   5.326   5.468   4.851
19028TIP3    H178575   5.315   5.537   4.783
19028TIP3    H278576   5.422   5.476   4.869
19029TIP3   OH278577   4.078   3.883   4.730
19029TIP3    H178578   4.055   3.885   4.634
19029TIP3    H278579   4.033   3.799   4.756
19030TIP3   OH278580   3.972   5.275   4.345
19030TIP3    H178581   3.886   5.319   4.340
19030TIP3    H278582   4.021   5.322   4.276
19031TIP3   OH278583   3.893   5.538   5.474
19031TIP3    H178584   3.954   5.516   5.548
19031TIP3    H278585   3.850   5.454   5.454
19032TIP3   OH278586   4.357   5.426   5.635
19032TIP3    H178587   4.436   5.383   5.669
19032TIP3    H278588   4.357   5.406   5.540
19033TIP3   OH278589   4.771   5.382   3.774
19033TIP3    H178590   4.704   5.316   3.801
19033TIP3    H278591   4.844   5.323   3.750
19034TIP3   OH278592   5.014   5.268   5.507
19034TIP3    H178593   4.980   5.182   5.532
19034TIP3    H278594   5.088   5.284   5.567
19035TIP3   OH278595   5.228   5.358   3.794
19035TIP3    H178596   5.258   5.280   3.843
19035TIP3    H278597   5.304   5.381   3.739
19036TIP3   OH278598   3.887   4.918   5.574
19036TIP3    H178599   3.901   4.827   5.540
19036TIP3    H278600   3.811   4.944   5.518
19037TIP3   OH278601   4.318   4.952   3.778
19037TIP3    H178602   4.331   4.873   3.834
19037TIP3    H278603   4.391   4.939   3.714
19038TIP3   OH278604   4.561   4.914   5.507
19038TIP3    H178605   4.520   4.945   5.425
19038TIP3    H278606   4.561   4.816   5.502
19039TIP3   OH278607   4.860   5.060   3.754
19039TIP3    H178608   4.833   5.071   3.846
19039TIP3    H278609   4.840   4.964   3.741
19040TIP3   OH278610   5.125   4.903   5.254
19040TIP3    H178611   5.203   4.962   5.240
19040TIP3    H278612   5.053   4.968   5.254
19041TIP3   OH278613   3.971   4.639   5.511
19041TIP3    H178614   4.015   4.554   5.500
19041TIP3    H278615   3.948   4.638   5.605
19042TIP3   OH278616   4.438   4.752   4.016
19042TIP3    H178617   4.389   4.699   4.081
19042TIP3    H278618   4.466   4.683   3.951
19043TIP3   OH278619   4.365   4.532   5.247
19043TIP3    H178620   4.306   4.604   5.276
19043TIP3    H278621   4.404   4.572   5.167
19044TIP3   OH278622   4.545   4.574   3.838
19044TIP3    H178623   4.529   4.563   3.743
19044TIP3    H278624   4.643   4.582   3.845
19045TIP3   OH278625   5.481   4.807   3.782
19045TIP3    H178626   5.458   4.768   3.696
19045TIP3    H278627   5.488   4.903   3.761
19046TIP3   OH278628   4.405   4.273   5.353
19046TIP3    H178629   4.417   4.199   5.292
19046TIP3    H278630   4.400   4.354   5.300
19047TIP3   OH278631   4.447   4.104   5.116
19047TIP3    H178632   4.508   4.141   5.051
19047TIP3    H278633   4.356   4.090   5.077
19048TIP3   OH278634   4.599   4.654   5.131
19048TIP3    H178635   4.676   4.642   5.074
19048TIP3    H278636   4.564   4.740   5.101
19049TIP3   OH278637   5.171   4.714   5.443
19049TIP3    H178638   5.148   4.786   5.381
19049TIP3    H278639   5.268   4.708   5.426
19050TIP3   OH278640   4.249   4.398   5.545
19050TIP3    H178641   4.173   4.337   5.530
19050TIP3    H278642   4.316   4.358   5.487
19051TIP3   OH278643   4.526   3.854   5.147
19051TIP3    H178644   4.509   3.949   5.139
19051TIP3    H278645   4.449   3.816   5.100
19052TIP3   OH278646   4.922   4.204   5.419
19052TIP3    H178647   4.826   4.201   5.424
19052TIP3    H278648   4.955   4.136   5.481
19053TIP3   OH278649   5.075   4.063   5.612
19053TIP3    H178650   5.081   3.966   5.612
19053TIP3    H278651   5.059   4.089   5.702
19054TIP3   OH278652   4.061   4.188   5.519
19054TIP3    H178653   4.087   4.115   5.459
19054TIP3    H278654   4.055   4.143   5.605
19055TIP3   OH278655   4.549   3.791   5.418
19055TIP3    H178656   4.616   3.720   5.414
19055TIP3    H278657   4.534   3.807   5.323
19056TIP3   OH278658   4.530   5.644   3.944
19056TIP3    H178659   4.627   5.656   3.952
19056TIP3    H278660   4.513   5.707   3.874
19057TIP3   OH278661   3.886   5.104   3.892
19057TIP3    H178662   3.983   5.112   3.913
19057TIP3    H278663   3.891   5.037   3.819
19058TIP3   OH278664   3.760   5.641   4.397
19058TIP3    H178665   3.692   5.597   4.340
19058TIP3    H278666   3.792   5.566   4.444
19059TIP3   OH278667   3.851   5.432   4.572
19059TIP3    H178668   3.804   5.349   4.595
19059TIP3    H278669   3.874   5.462   4.661
19060TIP3   OH278670   5.598   5.534   4.871
19060TIP3    H178671   5.599   5.551   4.966
19060TIP3    H278672   5.668   5.592   4.840
19061TIP3   OH278673   5.555   5.494   5.165
19061TIP3    H178674   5.508   5.416   5.128
19061TIP3    H278675   5.608   5.450   5.234
19062TIP3   OH278676   5.531   4.898   4.177
19062TIP3    H178677   5.617   4.938   4.194
19062TIP3    H278678   5.531   4.824   4.242
19063TIP3   OH278679   5.568   4.705   4.363
19063TIP3    H178680   5.494   4.654   4.403
19063TIP3    H278681   5.628   4.720   4.439
19064TIP3   OH278682   5.544   4.976   4.861
19064TIP3    H178683   5.627   4.939   4.826
19064TIP3    H278684   5.558   5.072   4.845
19065TIP3   OH278685   5.398   5.266   5.090
19065TIP3    H178686   5.329   5.300   5.149
19065TIP3    H278687   5.344   5.225   5.020
19066TIP3   OH278688   5.598   4.689   4.003
19066TIP3    H178689   5.542   4.725   3.931
19066TIP3    H278690   5.590   4.759   4.069
19067TIP3   OH278691   5.434   4.413   3.855
19067TIP3    H178692   5.442   4.480   3.786
19067TIP3    H278693   5.416   4.331   3.806
19068TIP3   OH278694   5.349   4.553   4.420
19068TIP3    H178695   5.334   4.458   4.417
19068TIP3    H278696   5.315   4.577   4.507
19069TIP3   OH278697   3.849   4.764   4.825
19069TIP3    H178698   3.869   4.752   4.729
19069TIP3    H278699   3.938   4.746   4.862
19070TIP3   OH278700   5.432   4.752   5.391
19070TIP3    H178701   5.493   4.676   5.405
19070TIP3    H278702   5.494   4.826   5.386
19071TIP3   OH278703   5.585   4.543   5.445
19071TIP3    H178704   5.495   4.502   5.439
19071TIP3    H278705   5.639   4.464   5.449
19072TIP3   OH278706   5.360   4.155   3.766
19072TIP3    H178707   5.417   4.117   3.835
19072TIP3    H278708   5.273   4.116   3.786
19073TIP3   OH278709   5.316   4.312   4.263
19073TIP3    H178710   5.347   4.220   4.278
19073TIP3    H278711   5.397   4.353   4.230
19074TIP3   OH278712   5.380   4.366   4.810
19074TIP3    H178713   5.476   4.390   4.808
19074TIP3    H278714   5.360   4.380   4.904
19075TIP3   OH278715   5.386   4.440   5.088
19075TIP3    H178716   5.299   4.469   5.123
19075TIP3    H278717   5.430   4.526   5.066
19076TIP3   OH278718   3.811   4.290   5.438
19076TIP3    H178719   3.905   4.272   5.461
19076TIP3    H278720   3.767   4.209   5.473
19077TIP3   OH278721   5.383   4.040   4.271
19077TIP3    H178722   5.403   3.995   4.355
19077TIP3    H278723   5.322   3.977   4.226
19078TIP3   OH278724   3.934   4.120   4.727
19078TIP3    H178725   3.978   4.038   4.753
19078TIP3    H278726   3.983   4.192   4.767
19079TIP3   OH278727   3.764   4.418   4.835
19079TIP3    H178728   3.812   4.397   4.751
19079TIP3    H278729   3.805   4.503   4.856
19080TIP3   OH278730   5.569   4.052   5.458
19080TIP3    H178731   5.474   4.078   5.455
19080TIP3    H278732   5.569   3.995   5.380
19081TIP3   OH278733   5.565   4.045   3.924
19081TIP3    H178734   5.608   3.971   3.876
19081TIP3    H278735   5.635   4.111   3.933
19082TIP3   OH278736   3.798   4.044   4.235
19082TIP3    H178737   3.703   4.067   4.225
19082TIP3    H278738   3.840   4.097   4.166
19083TIP3   OH278739   5.271   5.542   4.433
19083TIP3    H178740   5.339   5.510   4.371
19083TIP3    H278741   5.323   5.592   4.497
19084TIP3   OH278742   3.793   3.915   5.069
19084TIP3    H178743   3.725   3.894   5.136
19084TIP3    H278744   3.746   3.981   5.013
19085TIP3   OH278745   4.013   5.234   5.485
19085TIP3    H178746   3.929   5.253   5.440
19085TIP3    H278747   3.986   5.228   5.576
19086TIP3   OH278748   4.305   5.332   5.109
19086TIP3    H178749   4.270   5.418   5.083
19086TIP3    H278750   4.398   5.342   5.082
19087TIP3   OH278751   4.738   5.473   5.400
19087TIP3    H178752   4.754   5.444   5.494
19087TIP3    H278753   4.826   5.507   5.376
19088TIP3   OH278754   4.968   5.601   5.331
19088TIP3    H178755   5.040   5.542   5.308
19088TIP3    H278756   5.004   5.644   5.412
19089TIP3   OH278757   5.471   3.867   5.238
19089TIP3    H178758   5.384   3.892   5.205
19089TIP3    H278759   5.485   3.783   5.191
19090TIP3   OH278760   4.047   5.657   5.111
19090TIP3    H178761   3.974   5.706   5.072
19090TIP3    H278762   4.015   5.636   5.200
19091TIP3   OH278763   4.296   5.615   5.019
19091TIP3    H178764   4.207   5.628   5.060
19091TIP3    H278765   4.290   5.674   4.942
19092TIP3   OH278766   4.765   5.606   4.936
19092TIP3    H178767   4.719   5.661   4.871
19092TIP3    H278768   4.780   5.670   5.009
19093TIP3   OH278769   4.996   5.490   5.035
19093TIP3    H178770   4.908   5.514   5.002
19093TIP3    H278771   5.041   5.575   5.027
19094TIP3   OH278772   5.254   5.646   5.061
19094TIP3    H178773   5.244   5.742   5.038
19094TIP3    H278774   5.275   5.609   4.973
19095TIP3   OH278775   3.988   5.522   4.801
19095TIP3    H178776   3.985   5.478   4.891
19095TIP3    H278777   4.073   5.486   4.767
19096TIP3   OH278778   4.199   5.394   4.672
19096TIP3    H178779   4.184   5.300   4.692
19096TIP3    H278780   4.286   5.407   4.717
19097TIP3   OH278781   4.459   5.441   4.758
19097TIP3    H178782   4.477   5.349   4.730
19097TIP3    H278783   4.465   5.435   4.854
19098TIP3   OH278784   4.806   4.007   4.673
19098TIP3    H178785   4.740   3.940   4.698
19098TIP3    H278786   4.862   3.956   4.614
19099TIP3   OH278787   5.321   3.813   4.681
19099TIP3    H178788   5.382   3.871   4.629
19099TIP3    H278789   5.233   3.848   4.656
19100TIP3   OH278790   5.489   3.934   4.509
19100TIP3    H178791   5.557   3.878   4.465
19100TIP3    H278792   5.537   4.020   4.518
19101TIP3   OH278793   4.043   3.870   4.456
19101TIP3    H178794   3.963   3.848   4.404
19101TIP3    H278795   4.091   3.785   4.452
19102TIP3   OH278796   3.922   3.845   4.031
19102TIP3    H178797   3.969   3.910   3.975
19102TIP3    H278798   3.863   3.902   4.083
19103TIP3   OH278799   4.493   3.862   4.435
19103TIP3    H178800   4.583   3.899   4.430
19103TIP3    H278801   4.487   3.839   4.527
19104TIP3   OH278802   5.060   3.864   4.599
19104TIP3    H178803   5.059   3.874   4.503
19104TIP3    H278804   5.024   3.773   4.612
19105TIP3   OH278805   5.190   3.867   4.167
19105TIP3    H178806   5.116   3.927   4.149
19105TIP3    H278807   5.145   3.781   4.187
19106TIP3   OH278808   3.912   5.441   4.131
19106TIP3    H178809   3.846   5.439   4.059
19106TIP3    H278810   3.913   5.536   4.148
19107TIP3   OH278811   4.105   4.039   3.879
19107TIP3    H178812   4.158   3.977   3.827
19107TIP3    H278813   4.172   4.070   3.944
19108TIP3   OH278814   4.608   4.065   4.121
19108TIP3    H178815   4.631   4.006   4.194
19108TIP3    H278816   4.611   4.151   4.169
19109TIP3   OH278817   4.799   5.568   3.966
19109TIP3    H178818   4.890   5.596   3.944
19109TIP3    H278819   4.777   5.519   3.884
19110TIP3   OH278820   5.471   5.521   4.236
19110TIP3    H178821   5.451   5.444   4.178
19110TIP3    H278822   5.464   5.595   4.172
19111TIP3   OH278823   4.032   3.923   5.403
19111TIP3    H178824   3.998   3.844   5.448
19111TIP3    H278825   4.125   3.921   5.437
19112TIP3   OH278826   4.233   3.856   5.557
19112TIP3    H178827   4.324   3.825   5.543
19112TIP3    H278828   4.196   3.783   5.612
19113TIP3   OH278829   4.094   5.537   3.825
19113TIP3    H178830   4.067   5.564   3.914
19113TIP3    H278831   4.171   5.481   3.843
19114TIP3   OH278832   5.392   5.393   5.451
19114TIP3    H178833   5.315   5.382   5.391
19114TIP3    H278834   5.384   5.490   5.466
19115TIP3   OH278835   6.837   4.782   4.445
19115TIP3    H178836   6.840   4.880   4.438
19115TIP3    H278837   6.767   4.759   4.383
19116TIP3   OH278838   6.725   4.710   4.793
19116TIP3    H178839   6.722   4.644   4.864
19116TIP3    H278840   6.692   4.660   4.716
19117TIP3   OH278841   5.960   4.675   4.948
19117TIP3    H178842   5.969   4.609   5.019
19117TIP3    H278843   6.034   4.734   4.970
19118TIP3   OH278844   7.094   5.002   4.621
19118TIP3    H178845   7.052   4.931   4.670
19118TIP3    H278846   7.098   5.073   4.688
19119TIP3   OH278847   6.053   5.120   4.801
19119TIP3    H178848   6.020   5.034   4.767
19119TIP3    H278849   6.148   5.101   4.805
19120TIP3   OH278850   5.717   4.478   4.346
19120TIP3    H178851   5.672   4.565   4.341
19120TIP3    H278852   5.660   4.424   4.291
19121TIP3   OH278853   5.787   4.699   4.560
19121TIP3    H178854   5.813   4.618   4.607
19121TIP3    H278855   5.859   4.709   4.495
19122TIP3   OH278856   6.807   5.519   4.644
19122TIP3    H178857   6.871   5.448   4.616
19122TIP3    H278858   6.786   5.488   4.732
19123TIP3   OH278859   6.562   4.950   4.837
19123TIP3    H178860   6.596   4.885   4.773
19123TIP3    H278861   6.641   4.965   4.892
19124TIP3   OH278862   6.877   4.395   4.869
19124TIP3    H178863   6.895   4.300   4.869
19124TIP3    H278864   6.868   4.410   4.773
19125TIP3   OH278865   6.191   4.204   4.593
19125TIP3    H178866   6.200   4.288   4.546
19125TIP3    H278867   6.150   4.147   4.525
19126TIP3   OH278868   6.965   4.216   4.431
19126TIP3    H178869   7.031   4.182   4.496
19126TIP3    H278870   7.020   4.269   4.373
19127TIP3   OH278871   5.853   4.444   4.668
19127TIP3    H178872   5.921   4.389   4.712
19127TIP3    H278873   5.862   4.414   4.576
19128TIP3   OH278874   6.370   4.601   4.596
19128TIP3    H178875   6.435   4.543   4.639
19128TIP3    H278876   6.316   4.534   4.548
19129TIP3   OH278877   6.079   4.095   4.998
19129TIP3    H178878   6.053   4.150   4.921
19129TIP3    H278879   6.011   4.117   5.064
19130TIP3   OH278880   6.810   5.042   4.352
19130TIP3    H178881   6.783   5.014   4.264
19130TIP3    H278882   6.779   5.136   4.357
19131TIP3   OH278883   6.333   4.859   5.023
19131TIP3    H178884   6.261   4.923   5.041
19131TIP3    H278885   6.403   4.919   4.994
19132TIP3   OH278886   7.129   4.145   4.635
19132TIP3    H178887   7.121   4.066   4.687
19132TIP3    H278888   7.203   4.192   4.680
19133TIP3   OH278889   6.036   4.281   4.798
19133TIP3    H178890   6.099   4.348   4.831
19133TIP3    H278891   6.089   4.238   4.727
19134TIP3   OH278892   6.176   5.058   5.102
19134TIP3    H178893   6.172   5.149   5.070
19134TIP3    H278894   6.088   5.051   5.149
19135TIP3   OH278895   5.785   5.022   4.184
19135TIP3    H178896   5.759   5.052   4.095
19135TIP3    H278897   5.792   5.106   4.232
19136TIP3   OH278898   7.139   5.184   4.862
19136TIP3    H178899   7.044   5.196   4.872
19136TIP3    H278900   7.172   5.274   4.841
19137TIP3   OH278901   7.170   4.022   4.986
19137TIP3    H178902   7.098   4.086   4.991
19137TIP3    H278903   7.241   4.068   4.941
19138TIP3   OH278904   6.477   3.827   4.744
19138TIP3    H178905   6.464   3.730   4.737
19138TIP3    H278906   6.389   3.858   4.773
19139TIP3   OH278907   6.969   5.363   4.518
19139TIP3    H178908   7.016   5.293   4.468
19139TIP3    H278909   7.011   5.443   4.479
19140TIP3   OH278910   7.091   5.157   4.366
19140TIP3    H178911   7.063   5.085   4.308
19140TIP3    H278912   7.097   5.109   4.452
19141TIP3   OH278913   7.235   5.025   5.223
19141TIP3    H178914   7.267   4.959   5.159
19141TIP3    H278915   7.275   5.104   5.183
19142TIP3   OH278916   6.704   4.707   4.195
19142TIP3    H178917   6.634   4.763   4.158
19142TIP3    H278918   6.775   4.715   4.128
19143TIP3   OH278919   6.711   4.560   3.897
19143TIP3    H178920   6.782   4.559   3.962
19143TIP3    H278921   6.743   4.492   3.836
19144TIP3   OH278922   7.048   4.730   4.286
19144TIP3    H178923   6.974   4.753   4.347
19144TIP3    H278924   7.094   4.661   4.339
19145TIP3   OH278925   7.038   4.543   5.198
19145TIP3    H178926   7.041   4.624   5.251
19145TIP3    H278927   6.978   4.575   5.128
19146TIP3   OH278928   6.210   4.794   4.478
19146TIP3    H178929   6.178   4.755   4.394
19146TIP3    H278930   6.271   4.725   4.512
19147TIP3   OH278931   6.343   5.134   4.746
19147TIP3    H178932   6.340   5.079   4.668
19147TIP3    H278933   6.421   5.097   4.793
19148TIP3   OH278934   6.244   4.668   4.843
19148TIP3    H178935   6.301   4.680   4.764
19148TIP3    H278936   6.281   4.735   4.906
19149TIP3   OH278937   6.880   5.224   4.914
19149TIP3    H178938   6.856   5.288   4.981
19149TIP3    H278939   6.859   5.138   4.957
19150TIP3   OH278940   6.338   5.111   5.316
19150TIP3    H178941   6.300   5.187   5.363
19150TIP3    H278942   6.271   5.093   5.246
19151TIP3   OH278943   6.936   4.646   4.054
19151TIP3    H178944   6.991   4.664   4.134
19151TIP3    H278945   6.978   4.696   3.981
19152TIP3   OH278946   6.030   4.725   5.234
19152TIP3    H178947   6.035   4.793   5.305
19152TIP3    H278948   5.938   4.740   5.205
19153TIP3   OH278949   6.707   5.320   4.401
19153TIP3    H178950   6.751   5.350   4.481
19153TIP3    H278951   6.651   5.394   4.377
19154TIP3   OH278952   6.161   5.314   5.389
19154TIP3    H178953   6.158   5.304   5.293
19154TIP3    H278954   6.068   5.302   5.414
19155TIP3   OH278955   7.284   3.816   4.029
19155TIP3    H178956   7.199   3.839   4.071
19155TIP3    H278957   7.320   3.898   3.998
19156TIP3   OH278958   6.108   4.697   4.240
19156TIP3    H178959   6.079   4.775   4.188
19156TIP3    H278960   6.042   4.631   4.218
19157TIP3   OH278961   5.717   4.938   5.126
19157TIP3    H178962   5.670   4.931   5.041
19157TIP3    H278963   5.722   4.844   5.150
19158TIP3   OH278964   5.693   5.213   4.807
19158TIP3    H178965   5.788   5.201   4.805
19158TIP3    H278966   5.684   5.294   4.859
19159TIP3   OH278967   6.613   5.236   5.263
19159TIP3    H178968   6.618   5.321   5.312
19159TIP3    H278969   6.524   5.202   5.287
19160TIP3   OH278970   6.657   5.612   4.242
19160TIP3    H178971   6.644   5.603   4.146
19160TIP3    H278972   6.657   5.709   4.256
19161TIP3   OH278973   6.019   5.498   4.423
19161TIP3    H178974   6.034   5.457   4.511
19161TIP3    H278975   5.934   5.458   4.399
19162TIP3   OH278976   6.961   5.532   3.939
19162TIP3    H178977   7.006   5.455   3.897
19162TIP3    H278978   6.964   5.506   4.034
19163TIP3   OH278979   6.931   5.525   4.216
19163TIP3    H178980   6.835   5.533   4.237
19163TIP3    H278981   6.956   5.453   4.275
19164TIP3   OH278982   7.204   4.439   5.428
19164TIP3    H178983   7.186   4.479   5.343
19164TIP3    H278984   7.238   4.350   5.400
19165TIP3   OH278985   5.944   5.069   5.223
19165TIP3    H178986   5.966   5.033   5.312
19165TIP3    H278987   5.857   5.030   5.201
19166TIP3   OH278988   6.211   3.917   4.820
19166TIP3    H178989   6.121   3.906   4.782
19166TIP3    H278990   6.200   4.001   4.866
19167TIP3   OH278991   6.675   3.886   5.156
19167TIP3    H178992   6.716   3.844   5.234
19167TIP3    H278993   6.578   3.871   5.170
19168TIP3   OH278994   7.003   4.268   5.244
19168TIP3    H178995   6.951   4.250   5.325
19168TIP3    H278996   6.988   4.361   5.223
19169TIP3   OH278997   7.081   4.748   3.828
19169TIP3    H178998   7.083   4.728   3.731
19169TIP3    H278999   7.164   4.793   3.838
19170TIP3   OH279000   6.641   4.141   3.886
19170TIP3    H179001   6.610   4.137   3.979
19170TIP3    H279002   6.610   4.053   3.856
19171TIP3   OH279003   6.221   4.413   4.940
19171TIP3    H179004   6.149   4.412   5.005
19171TIP3    H279005   6.218   4.506   4.907
19172TIP3   OH279006   6.217   4.430   4.428
19172TIP3    H179007   6.125   4.401   4.416
19172TIP3    H279008   6.257   4.397   4.345
19173TIP3   OH279009   6.771   4.476   4.307
19173TIP3    H179010   6.730   4.559   4.272
19173TIP3    H279011   6.841   4.461   4.242
19174TIP3   OH279012   6.679   4.500   5.453
19174TIP3    H179013   6.625   4.423   5.483
19174TIP3    H279014   6.761   4.483   5.500
19175TIP3   OH279015   6.873   4.426   4.591
19175TIP3    H179016   6.848   4.481   4.516
19175TIP3    H279017   6.884   4.340   4.544
19176TIP3   OH279018   5.986   4.441   5.116
19176TIP3    H179019   5.991   4.485   5.202
19176TIP3    H279020   5.940   4.358   5.129
19177TIP3   OH279021   6.324   4.180   3.797
19177TIP3    H179022   6.279   4.137   3.873
19177TIP3    H279023   6.252   4.222   3.748
19178TIP3   OH279024   5.650   4.153   4.508
19178TIP3    H179025   5.717   4.150   4.579
19178TIP3    H279026   5.696   4.113   4.432
19179TIP3   OH279027   5.777   4.224   4.043
19179TIP3    H179028   5.828   4.288   3.990
19179TIP3    H279029   5.708   4.285   4.079
19180TIP3   OH279030   6.795   4.585   5.051
19180TIP3    H179031   6.831   4.518   4.989
19180TIP3    H279032   6.749   4.531   5.117
19181TIP3   OH279033   6.473   4.180   4.531
19181TIP3    H179034   6.380   4.183   4.561
19181TIP3    H279035   6.523   4.168   4.613
19182TIP3   OH279036   5.956   4.338   4.417
19182TIP3    H179037   5.866   4.352   4.379
19182TIP3    H279038   5.984   4.254   4.378
19183TIP3   OH279039   6.320   4.341   4.180
19183TIP3    H179040   6.415   4.353   4.197
19183TIP3    H279041   6.297   4.409   4.114
19184TIP3   OH279042   6.913   4.102   4.855
19184TIP3    H179043   6.845   4.111   4.925
19184TIP3    H279044   6.862   4.083   4.775
19185TIP3   OH279045   6.189   4.460   3.939
19185TIP3    H179046   6.136   4.421   3.867
19185TIP3    H279047   6.272   4.479   3.892
19186TIP3   OH279048   6.005   4.920   5.442
19186TIP3    H179049   6.075   4.939   5.508
19186TIP3    H279050   5.927   4.930   5.502
19187TIP3   OH279051   6.603   4.457   4.720
19187TIP3    H179052   6.663   4.403   4.667
19187TIP3    H279053   6.589   4.403   4.799
19188TIP3   OH279054   6.104   4.072   4.364
19188TIP3    H179055   6.073   3.979   4.361
19188TIP3    H279056   6.183   4.067   4.308
19189TIP3   OH279057   6.467   4.291   4.961
19189TIP3    H179058   6.384   4.342   4.971
19189TIP3    H279059   6.521   4.325   5.035
19190TIP3   OH279060   6.525   4.914   4.130
19190TIP3    H179061   6.446   4.866   4.098
19190TIP3    H279062   6.505   4.923   4.226
19191TIP3   OH279063   7.231   4.833   5.011
19191TIP3    H179064   7.295   4.864   4.945
19191TIP3    H279065   7.149   4.838   4.959
19192TIP3   OH279066   6.909   4.195   3.948
19192TIP3    H179067   6.813   4.209   3.935
19192TIP3    H279068   6.939   4.281   3.983
19193TIP3   OH279069   6.677   4.937   5.256
19193TIP3    H179070   6.636   4.896   5.333
19193TIP3    H279071   6.651   5.030   5.262
19194TIP3   OH279072   6.981   4.385   4.110
19194TIP3    H179073   7.069   4.373   4.151
19194TIP3    H279074   6.989   4.469   4.061
19195TIP3   OH279075   6.036   4.850   4.710
19195TIP3    H179076   6.106   4.844   4.644
19195TIP3    H279077   6.042   4.765   4.756
19196TIP3   OH279078   6.736   5.060   4.034
19196TIP3    H179079   6.702   5.144   4.071
19196TIP3    H279080   6.662   4.999   4.055
19197TIP3   OH279081   5.736   4.691   5.237
19197TIP3    H179082   5.753   4.650   5.324
19197TIP3    H279083   5.672   4.631   5.195
19198TIP3   OH279084   6.439   4.650   5.455
19198TIP3    H179085   6.405   4.621   5.369
19198TIP3    H279086   6.530   4.616   5.456
19199TIP3   OH279087   6.900   5.177   5.252
19199TIP3    H179088   6.810   5.201   5.224
19199TIP3    H279089   6.902   5.212   5.343
19200TIP3   OH279090   7.292   5.283   4.128
19200TIP3    H179091   7.262   5.199   4.165
19200TIP3    H279092   7.332   5.263   4.043
19201TIP3   OH279093   7.016   4.763   4.840
19201TIP3    H179094   6.922   4.741   4.828
19201TIP3    H279095   7.063   4.688   4.798
19202TIP3   OH279096   6.273   5.197   4.449
19202TIP3    H179097   6.324   5.277   4.428
19202TIP3    H279098   6.185   5.221   4.417
19203TIP3   OH279099   5.849   4.682   3.906
19203TIP3    H179100   5.908   4.748   3.946
19203TIP3    H279101   5.761   4.714   3.933
19204TIP3   OH279102   6.416   4.964   4.402
19204TIP3    H179103   6.386   5.056   4.411
19204TIP3    H279104   6.342   4.916   4.446
19205TIP3   OH279105   6.461   5.381   5.040
19205TIP3    H179106   6.504   5.464   5.014
19205TIP3    H279107   6.521   5.349   5.110
19206TIP3   OH279108   6.283   5.464   4.356
19206TIP3    H179109   6.187   5.477   4.367
19206TIP3    H279110   6.319   5.548   4.391
19207TIP3   OH279111   6.817   4.985   5.004
19207TIP3    H179112   6.778   4.964   5.092
19207TIP3    H279113   6.878   4.911   4.988
19208TIP3   OH279114   7.045   5.088   3.914
19208TIP3    H179115   7.074   5.043   3.995
19208TIP3    H279116   6.949   5.072   3.922
19209TIP3   OH279117   7.087   5.445   5.255
19209TIP3    H179118   7.026   5.390   5.203
19209TIP3    H279119   7.115   5.511   5.188
19210TIP3   OH279120   5.899   4.170   5.205
19210TIP3    H179121   5.808   4.197   5.180
19210TIP3    H279122   5.888   4.076   5.230
19211TIP3   OH279123   7.124   4.951   4.137
19211TIP3    H179124   7.100   4.873   4.193
19211TIP3    H279125   7.218   4.958   4.158
19212TIP3   OH279126   5.863   5.346   5.036
19212TIP3    H179127   5.889   5.253   5.036
19212TIP3    H279128   5.889   5.374   5.125
19213TIP3   OH279129   6.458   5.197   3.761
19213TIP3    H179130   6.470   5.119   3.704
19213TIP3    H279131   6.417   5.153   3.840
19214TIP3   OH279132   6.339   5.149   4.006
19214TIP3    H179133   6.361   5.098   4.085
19214TIP3    H279134   6.345   5.242   4.038
19215TIP3   OH279135   5.990   4.874   4.056
19215TIP3    H179136   5.919   4.913   4.112
19215TIP3    H279137   6.041   4.952   4.029
19216TIP3   OH279138   6.771   4.142   5.086
19216TIP3    H179139   6.844   4.149   5.149
19216TIP3    H279140   6.734   4.054   5.106
19217TIP3   OH279141   6.850   4.101   4.195
19217TIP3    H179142   6.873   4.150   4.113
19217TIP3    H279143   6.906   4.144   4.261
19218TIP3   OH279144   6.617   5.317   4.077
19218TIP3    H179145   6.535   5.369   4.086
19218TIP3    H279146   6.671   5.370   4.018
19219TIP3   OH279147   6.571   4.277   4.278
19219TIP3    H179148   6.650   4.333   4.283
19219TIP3    H279149   6.545   4.264   4.371
19220TIP3   OH279150   6.626   4.378   5.197
19220TIP3    H179151   6.636   4.435   5.275
19220TIP3    H279152   6.692   4.308   5.207
19221TIP3   OH279153   6.654   3.983   4.368
19221TIP3    H179154   6.625   4.048   4.434
19221TIP3    H279155   6.724   4.037   4.323
19222TIP3   OH279156   6.356   5.421   4.079
19222TIP3    H179157   6.366   5.503   4.026
19222TIP3    H279158   6.330   5.455   4.167
19223TIP3   OH279159   6.222   4.092   4.038
19223TIP3    H179160   6.217   4.182   4.076
19223TIP3    H279161   6.313   4.067   4.064
19224TIP3   OH279162   7.224   4.137   5.256
19224TIP3    H179163   7.149   4.199   5.267
19224TIP3    H279164   7.276   4.173   5.184
19225TIP3   OH279165   7.106   4.545   4.688
19225TIP3    H179166   7.024   4.502   4.656
19225TIP3    H279167   7.147   4.472   4.737
19226TIP3   OH279168   6.046   5.136   3.944
19226TIP3    H179169   6.111   5.202   3.973
19226TIP3    H279170   6.098   5.091   3.874
19227TIP3   OH279171   5.880   4.402   3.856
19227TIP3    H179172   5.880   4.498   3.877
19227TIP3    H279173   5.790   4.384   3.828
19228TIP3   OH279174   7.215   5.469   4.851
19228TIP3    H179175   7.199   5.538   4.784
19228TIP3    H279176   7.308   5.479   4.872
19229TIP3   OH279177   5.962   3.882   4.729
19229TIP3    H179178   5.940   3.885   4.633
19229TIP3    H279179   5.919   3.798   4.755
19230TIP3   OH279180   5.857   5.274   4.344
19230TIP3    H179181   5.772   5.320   4.342
19230TIP3    H279182   5.907   5.323   4.277
19231TIP3   OH279183   5.781   5.540   5.472
19231TIP3    H179184   5.838   5.517   5.548
19231TIP3    H279185   5.737   5.455   5.455
19232TIP3   OH279186   6.659   5.384   3.771
19232TIP3    H179187   6.590   5.318   3.801
19232TIP3    H279188   6.730   5.319   3.752
19233TIP3   OH279189   6.901   5.268   5.505
19233TIP3    H179190   6.865   5.185   5.535
19233TIP3    H279191   6.974   5.285   5.567
19234TIP3   OH279192   7.111   5.360   3.795
19234TIP3    H179193   7.141   5.281   3.842
19234TIP3    H279194   7.189   5.380   3.739
19235TIP3   OH279195   5.773   4.917   5.567
19235TIP3    H179196   5.788   4.825   5.542
19235TIP3    H279197   5.695   4.943   5.518
19236TIP3   OH279198   6.204   4.951   3.778
19236TIP3    H179199   6.217   4.873   3.834
19236TIP3    H279200   6.277   4.939   3.714
19237TIP3   OH279201   6.449   4.914   5.509
19237TIP3    H179202   6.405   4.945   5.428
19237TIP3    H279203   6.447   4.816   5.505
19238TIP3   OH279204   6.746   5.063   3.754
19238TIP3    H179205   6.718   5.070   3.847
19238TIP3    H279206   6.726   4.966   3.740
19239TIP3   OH279207   7.009   4.901   5.254
19239TIP3    H179208   7.088   4.960   5.239
19239TIP3    H279209   6.939   4.968   5.253
19240TIP3   OH279210   5.853   4.637   5.509
19240TIP3    H179211   5.904   4.557   5.504
19240TIP3    H279212   5.835   4.641   5.605
19241TIP3   OH279213   6.324   4.752   4.016
19241TIP3    H179214   6.275   4.699   4.081
19241TIP3    H279215   6.352   4.683   3.951
19242TIP3   OH279216   6.249   4.534   5.246
19242TIP3    H179217   6.193   4.608   5.277
19242TIP3    H279218   6.289   4.571   5.166
19243TIP3   OH279219   6.431   4.574   3.839
19243TIP3    H179220   6.414   4.562   3.743
19243TIP3    H279221   6.528   4.581   3.844
19244TIP3   OH279222   6.281   4.271   5.355
19244TIP3    H179223   6.304   4.201   5.292
19244TIP3    H279224   6.288   4.352   5.300
19245TIP3   OH279225   6.329   4.111   5.109
19245TIP3    H179226   6.382   4.156   5.039
19245TIP3    H279227   6.242   4.100   5.065
19246TIP3   OH279228   6.486   4.657   5.132
19246TIP3    H179229   6.561   4.640   5.074
19246TIP3    H279230   6.449   4.741   5.099
19247TIP3   OH279231   6.927   4.437   5.634
19247TIP3    H179232   6.948   4.343   5.622
19247TIP3    H279233   7.015   4.477   5.628
19248TIP3   OH279234   7.054   4.716   5.444
19248TIP3    H179235   7.035   4.787   5.380
19248TIP3    H279236   7.151   4.707   5.428
19249TIP3   OH279237   6.134   4.398   5.542
19249TIP3    H179238   6.063   4.336   5.533
19249TIP3    H279239   6.205   4.360   5.486
19250TIP3   OH279240   6.409   3.854   5.149
19250TIP3    H179241   6.394   3.951   5.138
19250TIP3    H279242   6.334   3.818   5.098
19251TIP3   OH279243   6.538   4.284   5.507
19251TIP3    H179244   6.508   4.264   5.598
19251TIP3    H279245   6.457   4.268   5.456
19252TIP3   OH279246   6.807   4.199   5.415
19252TIP3    H179247   6.711   4.205   5.430
19252TIP3    H279248   6.837   4.137   5.483
19253TIP3   OH279249   6.971   4.063   5.612
19253TIP3    H179250   6.960   3.966   5.612
19253TIP3    H279251   6.941   4.092   5.701
19254TIP3   OH279252   5.990   4.167   5.537
19254TIP3    H179253   5.979   4.102   5.465
19254TIP3    H279254   5.939   4.135   5.614
19255TIP3   OH279255   6.431   3.789   5.417
19255TIP3    H179256   6.501   3.721   5.415
19255TIP3    H279257   6.420   3.809   5.323
19256TIP3   OH279258   6.464   3.952   5.627
19256TIP3    H179259   6.452   3.904   5.542
19256TIP3    H279260   6.407   4.030   5.616
19257TIP3   OH279261   6.417   5.642   3.941
19257TIP3    H179262   6.512   5.657   3.955
19257TIP3    H279263   6.397   5.708   3.874
19258TIP3   OH279264   5.772   5.104   3.891
19258TIP3    H179265   5.868   5.112   3.912
19258TIP3    H279266   5.777   5.037   3.819
19259TIP3   OH279267   5.647   5.642   4.391
19259TIP3    H179268   5.576   5.594   4.343
19259TIP3    H279269   5.677   5.576   4.455
19260TIP3   OH279270   5.730   5.454   4.576
19260TIP3    H179271   5.695   5.366   4.595
19260TIP3    H279272   5.753   5.487   4.665
19261TIP3   OH279273   7.269   5.078   5.620
19261TIP3    H179274   7.195   5.061   5.677
19261TIP3    H279275   7.322   5.140   5.673
19262TIP3   OH279276   7.282   5.263   5.092
19262TIP3    H179277   7.216   5.302   5.151
19262TIP3    H279278   7.229   5.225   5.019
19263TIP3   OH279279   7.309   4.413   3.858
19263TIP3    H179280   7.326   4.478   3.788
19263TIP3    H279281   7.300   4.330   3.807
19264TIP3   OH279282   7.203   4.559   4.421
19264TIP3    H179283   7.217   4.463   4.424
19264TIP3    H279284   7.197   4.581   4.516
19265TIP3   OH279285   5.735   4.761   4.825
19265TIP3    H179286   5.755   4.753   4.729
19265TIP3    H279287   5.825   4.746   4.862
19266TIP3   OH279288  -0.034   4.756   5.412
19266TIP3    H179289   0.026   4.679   5.413
19266TIP3    H279290   0.029   4.825   5.386
19267TIP3   OH279291   7.245   4.159   3.769
19267TIP3    H179292   7.302   4.115   3.832
19267TIP3    H279293   7.160   4.114   3.785
19268TIP3   OH279294   7.201   4.310   4.257
19268TIP3    H179295   7.230   4.221   4.285
19268TIP3    H279296   7.281   4.349   4.224
19269TIP3   OH279297   7.228   4.318   4.801
19269TIP3    H179298   7.323   4.334   4.790
19269TIP3    H279299   7.231   4.367   4.886
19270TIP3   OH279300   7.268   4.440   5.092
19270TIP3    H179301   7.183   4.471   5.125
19270TIP3    H279302   7.313   4.521   5.064
19271TIP3   OH279303   5.672   4.290   5.435
19271TIP3    H179304   5.751   4.290   5.484
19271TIP3    H279305   5.633   4.207   5.473
19272TIP3   OH279306   7.191   4.021   4.322
19272TIP3    H179307   7.279   3.993   4.355
19272TIP3    H279308   7.196   3.972   4.236
19273TIP3   OH279309   5.817   4.120   4.726
19273TIP3    H179310   5.864   4.039   4.753
19273TIP3    H279311   5.870   4.191   4.766
19274TIP3   OH279312   5.646   4.420   4.831
19274TIP3    H179313   5.702   4.397   4.753
19274TIP3    H279314   5.690   4.502   4.858
19275TIP3   OH279315   5.683   4.048   4.238
19275TIP3    H179316   5.589   4.065   4.223
19275TIP3    H279317   5.726   4.095   4.165
19276TIP3   OH279318   7.145   5.530   4.438
19276TIP3    H179319   7.211   5.500   4.375
19276TIP3    H279320   7.200   5.588   4.495
19277TIP3   OH279321   5.681   3.918   5.073
19277TIP3    H179322   5.609   3.892   5.134
19277TIP3    H279323   5.632   3.980   5.013
19278TIP3   OH279324   5.899   5.235   5.485
19278TIP3    H179325   5.815   5.253   5.441
19278TIP3    H279326   5.872   5.226   5.576
19279TIP3   OH279327   6.190   5.332   5.110
19279TIP3    H179328   6.155   5.418   5.083
19279TIP3    H279329   6.283   5.342   5.082
19280TIP3   OH279330   6.625   5.473   5.406
19280TIP3    H179331   6.644   5.441   5.496
19280TIP3    H279332   6.713   5.506   5.377
19281TIP3   OH279333   6.854   5.602   5.332
19281TIP3    H179334   6.927   5.542   5.309
19281TIP3    H279335   6.891   5.643   5.413
19282TIP3   OH279336   5.934   5.658   5.112
19282TIP3    H179337   5.860   5.706   5.071
19282TIP3    H279338   5.899   5.636   5.200
19283TIP3   OH279339   6.181   5.616   5.018
19283TIP3    H179340   6.091   5.628   5.059
19283TIP3    H279341   6.174   5.674   4.940
19284TIP3   OH279342   6.651   5.606   4.936
19284TIP3    H179343   6.605   5.661   4.871
19284TIP3    H279344   6.665   5.670   5.010
19285TIP3   OH279345   6.882   5.489   5.034
19285TIP3    H179346   6.794   5.514   5.002
19285TIP3    H279347   6.925   5.576   5.027
19286TIP3   OH279348   7.137   5.649   5.062
19286TIP3    H179349   7.127   5.744   5.039
19286TIP3    H279350   7.162   5.610   4.976
19287TIP3   OH279351   5.877   5.522   4.806
19287TIP3    H179352   5.871   5.477   4.892
19287TIP3    H279353   5.959   5.486   4.766
19288TIP3   OH279354   6.087   5.393   4.671
19288TIP3    H179355   6.069   5.300   4.692
19288TIP3    H279356   6.172   5.407   4.717
19289TIP3   OH279357   6.343   5.442   4.758
19289TIP3    H179358   6.363   5.350   4.731
19289TIP3    H279359   6.351   5.435   4.854
19290TIP3   OH279360   6.693   4.006   4.672
19290TIP3    H179361   6.625   3.942   4.699
19290TIP3    H279362   6.749   3.955   4.613
19291TIP3   OH279363   7.208   3.812   4.682
19291TIP3    H179364   7.264   3.874   4.634
19291TIP3    H279365   7.119   3.847   4.659
19292TIP3   OH279366   5.929   3.870   4.456
19292TIP3    H179367   5.849   3.848   4.404
19292TIP3    H279368   5.977   3.785   4.452
19293TIP3   OH279369   5.806   3.845   4.028
19293TIP3    H179370   5.856   3.911   3.977
19293TIP3    H279371   5.749   3.902   4.084
19294TIP3   OH279372   6.379   3.861   4.435
19294TIP3    H179373   6.469   3.899   4.430
19294TIP3    H279374   6.372   3.840   4.528
19295TIP3   OH279375   6.948   3.863   4.598
19295TIP3    H179376   6.945   3.875   4.503
19295TIP3    H279377   6.910   3.772   4.611
19296TIP3   OH279378   7.070   3.863   4.162
19296TIP3    H179379   6.999   3.927   4.151
19296TIP3    H279380   7.026   3.779   4.188
19297TIP3   OH279381   5.799   5.440   4.129
19297TIP3    H179382   5.731   5.439   4.059
19297TIP3    H279383   5.798   5.535   4.150
19298TIP3   OH279384   5.991   4.039   3.877
19298TIP3    H179385   6.045   3.977   3.828
19298TIP3    H279386   6.056   4.071   3.944
19299TIP3   OH279387   6.494   4.065   4.121
19299TIP3    H179388   6.517   4.006   4.194
19299TIP3    H279389   6.497   4.151   4.169
19300TIP3   OH279390   6.685   5.572   3.962
19300TIP3    H179391   6.777   5.595   3.948
19300TIP3    H279392   6.661   5.516   3.887
19301TIP3   OH279393   5.917   3.928   5.409
19301TIP3    H179394   5.884   3.844   5.444
19301TIP3    H279395   6.012   3.919   5.437
19302TIP3   OH279396   6.118   3.858   5.560
19302TIP3    H179397   6.210   3.827   5.542
19302TIP3    H279398   6.086   3.780   5.606
19303TIP3   OH279399   5.979   5.537   3.826
19303TIP3    H179400   5.953   5.564   3.915
19303TIP3    H279401   6.057   5.481   3.842
19304TIP3   OH279402   6.961   3.792   5.579
19304TIP3    H179403   6.969   3.745   5.664
19304TIP3    H279404   7.052   3.790   5.543
19305TIP3   OH279405   7.275   5.390   5.450
19305TIP3    H179406   7.198   5.380   5.392
19305TIP3    H279407   7.267   5.486   5.471
19306TIP3   OH279408   1.180   6.667   4.445
19306TIP3    H179409   1.182   6.766   4.438
19306TIP3    H279410   1.110   6.644   4.382
19307TIP3   OH279411   1.068   6.595   4.793
19307TIP3    H179412   1.066   6.529   4.864
19307TIP3    H279413   1.035   6.546   4.716
19308TIP3   OH279414   0.306   6.560   4.947
19308TIP3    H179415   0.312   6.493   5.019
19308TIP3    H279416   0.378   6.619   4.970
19309TIP3   OH279417   1.438   6.888   4.621
19309TIP3    H179418   1.394   6.817   4.669
19309TIP3    H279419   1.439   6.960   4.687
19310TIP3   OH279420   0.396   7.005   4.802
19310TIP3    H179421   0.363   6.920   4.767
19310TIP3    H279422   0.492   6.985   4.805
19311TIP3   OH279423   0.079   6.365   4.324
19311TIP3    H179424   0.025   6.445   4.347
19311TIP3    H279425   0.007   6.310   4.300
19312TIP3   OH279426   0.129   6.583   4.559
19312TIP3    H179427   0.154   6.504   4.609
19312TIP3    H279428   0.203   6.593   4.497
19313TIP3   OH279429   0.904   6.835   4.838
19313TIP3    H179430   0.939   6.771   4.773
19313TIP3    H279431   0.984   6.851   4.892
19314TIP3   OH279432   1.768   5.999   4.914
19314TIP3    H179433   1.782   6.060   4.990
19314TIP3    H279434   1.820   6.043   4.846
19315TIP3   OH279435   1.222   6.281   4.870
19315TIP3    H179436   1.237   6.185   4.869
19315TIP3    H279437   1.212   6.296   4.774
19316TIP3   OH279438   0.536   6.089   4.594
19316TIP3    H179439   0.543   6.174   4.546
19316TIP3    H279440   0.493   6.033   4.525
19317TIP3   OH279441   1.307   6.099   4.430
19317TIP3    H179442   1.374   6.067   4.496
19317TIP3    H279443   1.363   6.155   4.374
19318TIP3   OH279444   0.199   6.329   4.661
19318TIP3    H179445   0.265   6.276   4.710
19318TIP3    H279446   0.208   6.297   4.572
19319TIP3   OH279447   0.713   6.486   4.595
19319TIP3    H179448   0.778   6.429   4.639
19319TIP3    H279449   0.659   6.419   4.548
19320TIP3   OH279450   1.812   6.143   5.141
19320TIP3    H179451   1.747   6.216   5.130
19320TIP3    H279452   1.814   6.130   5.236
19321TIP3   OH279453   0.423   5.980   4.998
19321TIP3    H179454   0.396   6.036   4.922
19321TIP3    H279455   0.354   6.003   5.064
19322TIP3   OH279456   1.155   6.928   4.353
19322TIP3    H179457   1.126   6.900   4.265
19322TIP3    H279458   1.124   7.021   4.358
19323TIP3   OH279459   0.677   6.744   5.024
19323TIP3    H179460   0.604   6.807   5.041
19323TIP3    H279461   0.746   6.804   4.994
19324TIP3   OH279462   1.487   6.032   4.629
19324TIP3    H179463   1.466   5.955   4.683
19324TIP3    H279464   1.554   6.077   4.684
19325TIP3   OH279465   0.378   6.164   4.798
19325TIP3    H179466   0.440   6.233   4.832
19325TIP3    H279467   0.433   6.123   4.727
19326TIP3   OH279468   0.520   6.943   5.104
19326TIP3    H179469   0.515   7.034   5.068
19326TIP3    H279470   0.431   6.937   5.145
19327TIP3   OH279471   0.129   6.911   4.182
19327TIP3    H179472   0.103   6.939   4.093
19327TIP3    H279473   0.136   6.994   4.233
19328TIP3   OH279474   1.491   7.075   4.860
19328TIP3    H179475   1.393   7.080   4.871
19328TIP3    H279476   1.517   7.166   4.838
19329TIP3   OH279477   1.522   5.901   4.997
19329TIP3    H179478   1.448   5.964   4.990
19329TIP3    H279479   1.592   5.944   4.944
19330TIP3   OH279480   0.820   5.713   4.743
19330TIP3    H179481   0.807   5.616   4.737
19330TIP3    H279482   0.732   5.744   4.773
19331TIP3   OH279483   1.315   7.233   4.510
19331TIP3    H179484   1.366   7.169   4.458
19331TIP3    H279485   1.352   7.317   4.478
19332TIP3   OH279486   1.437   7.042   4.369
19332TIP3    H179487   1.406   6.973   4.308
19332TIP3    H279488   1.439   6.995   4.454
19333TIP3   OH279489   1.598   6.902   5.219
19333TIP3    H179490   1.613   6.837   5.146
19333TIP3    H279491   1.620   6.988   5.178
19334TIP3   OH279492   1.048   6.593   4.196
19334TIP3    H179493   0.978   6.649   4.159
19334TIP3    H279494   1.118   6.601   4.128
19335TIP3   OH279495   1.052   6.443   3.899
19335TIP3    H179496   1.126   6.446   3.961
19335TIP3    H279497   1.086   6.378   3.836
19336TIP3   OH279498   1.787   6.533   5.024
19336TIP3    H179499   1.720   6.605   5.029
19336TIP3    H279500   1.834   6.556   4.942
19337TIP3   OH279501   1.392   6.614   4.287
19337TIP3    H179502   1.317   6.638   4.347
19337TIP3    H279503   1.437   6.545   4.338
19338TIP3   OH279504   1.384   6.430   5.197
19338TIP3    H179505   1.386   6.511   5.253
19338TIP3    H279506   1.320   6.461   5.130
19339TIP3   OH279507   0.555   6.681   4.478
19339TIP3    H179508   0.520   6.640   4.395
19339TIP3    H279509   0.615   6.610   4.512
19340TIP3   OH279510   0.689   7.019   4.745
19340TIP3    H179511   0.684   6.963   4.667
19340TIP3    H279512   0.765   6.983   4.794
19341TIP3   OH279513   0.588   6.554   4.843
19341TIP3    H179514   0.644   6.566   4.764
19341TIP3    H279515   0.624   6.620   4.906
19342TIP3   OH279516   1.225   7.110   4.914
19342TIP3    H179517   1.196   7.173   4.978
19342TIP3    H279518   1.201   7.024   4.957
19343TIP3   OH279519   0.682   6.998   5.313
19343TIP3    H179520   0.642   7.073   5.363
19343TIP3    H279521   0.613   6.978   5.244
19344TIP3   OH279522   1.278   6.532   4.055
19344TIP3    H179523   1.336   6.549   4.134
19344TIP3    H279524   1.321   6.582   3.982
19345TIP3   OH279525   0.375   6.614   5.235
19345TIP3    H179526   0.380   6.682   5.305
19345TIP3    H279527   0.283   6.623   5.204
19346TIP3   OH279528   1.049   7.204   4.402
19346TIP3    H179529   1.098   7.236   4.478
19346TIP3    H279530   0.995   7.279   4.375
19347TIP3   OH279531   0.505   7.201   5.386
19347TIP3    H179532   0.498   7.189   5.290
19347TIP3    H279533   0.412   7.189   5.416
19348TIP3   OH279534   1.651   5.706   4.041
19348TIP3    H179535   1.557   5.720   4.068
19348TIP3    H279536   1.672   5.791   3.999
19349TIP3   OH279537   0.452   6.582   4.239
19349TIP3    H179538   0.423   6.661   4.188
19349TIP3    H279539   0.385   6.517   4.218
19350TIP3   OH279540   1.765   7.142   3.876
19350TIP3    H179541   1.775   7.237   3.894
19350TIP3    H279542   1.857   7.111   3.876
19351TIP3   OH279543   0.095   6.817   5.111
19351TIP3    H179544   0.027   6.819   5.041
19351TIP3    H279545   0.071   6.728   5.146
19352TIP3   OH279546   0.048   7.110   4.796
19352TIP3    H179547   0.139   7.084   4.809
19352TIP3    H279548   0.032   7.177   4.862
19353TIP3   OH279549   1.858   7.166   5.377
19353TIP3    H179550   1.847   7.070   5.373
19353TIP3    H279551   1.772   7.195   5.415
19354TIP3   OH279552   0.954   7.125   5.261
19354TIP3    H179553   0.963   7.205   5.312
19354TIP3    H279554   0.868   7.087   5.287
19355TIP3   OH279555   1.574   6.315   5.421
19355TIP3    H179556   1.529   6.363   5.350
19355TIP3    H279557   1.575   6.223   5.391
19356TIP3   OH279558   0.287   6.960   5.226
19356TIP3    H179559   0.309   6.918   5.312
19356TIP3    H279560   0.204   6.916   5.196
19357TIP3   OH279561   0.555   5.803   4.819
19357TIP3    H179562   0.465   5.793   4.782
19357TIP3    H279563   0.544   5.887   4.866
19358TIP3   OH279564   1.019   5.773   5.156
19358TIP3    H179565   1.058   5.731   5.234
19358TIP3    H279566   0.922   5.757   5.170
19359TIP3   OH279567   1.349   6.152   5.245
19359TIP3    H179568   1.293   6.135   5.324
19359TIP3    H279569   1.332   6.245   5.221
19360TIP3   OH279570   1.427   6.629   3.832
19360TIP3    H179571   1.423   6.619   3.733
19360TIP3    H279572   1.509   6.680   3.838
19361TIP3   OH279573   0.984   6.027   3.886
19361TIP3    H179574   0.953   6.023   3.978
19361TIP3    H279575   0.953   5.939   3.856
19362TIP3   OH279576   0.564   6.299   4.940
19362TIP3    H179577   0.492   6.297   5.006
19362TIP3    H279578   0.560   6.392   4.907
19363TIP3   OH279579   0.561   6.316   4.428
19363TIP3    H179580   0.468   6.287   4.417
19363TIP3    H279581   0.601   6.283   4.346
19364TIP3   OH279582   1.113   6.362   4.307
19364TIP3    H179583   1.073   6.445   4.272
19364TIP3    H279584   1.183   6.347   4.242
19365TIP3   OH279585   1.022   6.383   5.453
19365TIP3    H179586   0.966   6.308   5.484
19365TIP3    H279587   1.105   6.369   5.502
19366TIP3   OH279588   1.216   6.310   4.591
19366TIP3    H179589   1.190   6.367   4.516
19366TIP3    H279590   1.228   6.225   4.543
19367TIP3   OH279591   0.332   6.327   5.115
19367TIP3    H179592   0.332   6.368   5.203
19367TIP3    H279593   0.283   6.244   5.131
19368TIP3   OH279594   0.668   6.066   3.797
19368TIP3    H179595   0.623   6.024   3.873
19368TIP3    H279596   0.596   6.107   3.748
19369TIP3   OH279597   0.012   6.054   4.498
19369TIP3    H179598   0.061   6.033   4.579
19369TIP3    H279599   0.044   5.994   4.431
19370TIP3   OH279600   0.119   6.116   4.043
19370TIP3    H179601   0.172   6.176   3.987
19370TIP3    H279602   0.049   6.174   4.074
19371TIP3   OH279603   1.137   6.471   5.049
19371TIP3    H179604   1.174   6.403   4.989
19371TIP3    H279605   1.092   6.417   5.116
19372TIP3   OH279606   0.817   6.066   4.531
19372TIP3    H179607   0.724   6.068   4.561
19372TIP3    H279608   0.866   6.053   4.613
19373TIP3   OH279609   0.303   6.224   4.415
19373TIP3    H179610   0.213   6.238   4.380
19373TIP3    H279611   0.327   6.138   4.377
19374TIP3   OH279612   0.663   6.226   4.180
19374TIP3    H179613   0.759   6.238   4.197
19374TIP3    H279614   0.640   6.295   4.114
19375TIP3   OH279615   1.258   5.990   4.856
19375TIP3    H179616   1.189   5.997   4.925
19375TIP3    H279617   1.207   5.968   4.776
19376TIP3   OH279618   0.534   6.345   3.938
19376TIP3    H179619   0.480   6.307   3.866
19376TIP3    H279620   0.616   6.365   3.891
19377TIP3   OH279621   0.347   6.803   5.442
19377TIP3    H179622   0.418   6.826   5.504
19377TIP3    H279623   0.271   6.819   5.504
19378TIP3   OH279624   0.946   6.343   4.720
19378TIP3    H179625   1.005   6.289   4.666
19378TIP3    H279626   0.932   6.288   4.799
19379TIP3   OH279627   0.447   5.958   4.363
19379TIP3    H179628   0.416   5.866   4.360
19379TIP3    H279629   0.527   5.953   4.308
19380TIP3   OH279630   0.810   6.177   4.961
19380TIP3    H179631   0.727   6.227   4.971
19380TIP3    H279632   0.864   6.210   5.035
19381TIP3   OH279633   0.869   6.799   4.131
19381TIP3    H179634   0.789   6.751   4.098
19381TIP3    H279635   0.847   6.809   4.226
19382TIP3   OH279636   1.585   6.717   5.011
19382TIP3    H179637   1.643   6.765   4.950
19382TIP3    H279638   1.499   6.725   4.963
19383TIP3   OH279639   1.253   6.081   3.949
19383TIP3    H179640   1.157   6.095   3.935
19383TIP3    H279641   1.285   6.167   3.983
19384TIP3   OH279642   1.017   6.824   5.254
19384TIP3    H179643   0.983   6.781   5.334
19384TIP3    H279644   0.994   6.917   5.264
19385TIP3   OH279645   1.325   6.271   4.113
19385TIP3    H179646   1.415   6.257   4.151
19385TIP3    H279647   1.334   6.352   4.061
19386TIP3   OH279648   0.380   6.737   4.710
19386TIP3    H179649   0.450   6.730   4.643
19386TIP3    H279650   0.385   6.651   4.756
19387TIP3   OH279651   1.081   6.947   4.039
19387TIP3    H179652   1.044   7.032   4.069
19387TIP3    H279653   1.006   6.885   4.054
19388TIP3   OH279654   0.099   6.562   5.216
19388TIP3    H179655   0.109   6.533   5.309
19388TIP3    H279656   0.018   6.514   5.192
19389TIP3   OH279657   0.780   6.533   5.458
19389TIP3    H179658   0.750   6.508   5.369
19389TIP3    H279659   0.873   6.504   5.456
19390TIP3   OH279660   1.247   7.071   5.250
19390TIP3    H179661   1.153   7.083   5.225
19390TIP3    H279662   1.243   7.095   5.343
19391TIP3   OH279663   1.816   6.286   4.088
19391TIP3    H179664   1.759   6.255   4.016
19391TIP3    H279665   1.823   6.381   4.061
19392TIP3   OH279666   1.813   6.871   5.372
19392TIP3    H179667   1.726   6.894   5.332
19392TIP3    H279668   1.869   6.868   5.292
19393TIP3   OH279669   1.645   7.160   4.137
19393TIP3    H179670   1.607   7.078   4.163
19393TIP3    H279671   1.672   7.151   4.044
19394TIP3   OH279672   1.364   6.650   4.838
19394TIP3    H179673   1.269   6.628   4.829
19394TIP3    H279674   1.407   6.573   4.798
19395TIP3   OH279675   0.619   7.080   4.447
19395TIP3    H179676   0.665   7.162   4.426
19395TIP3    H279677   0.530   7.104   4.418
19396TIP3   OH279678   0.187   6.566   3.910
19396TIP3    H179679   0.252   6.632   3.945
19396TIP3    H279680   0.103   6.602   3.936
19397TIP3   OH279681   0.760   6.849   4.402
19397TIP3    H179682   0.730   6.942   4.411
19397TIP3    H279683   0.685   6.803   4.445
19398TIP3   OH279684   0.819   7.247   5.023
19398TIP3    H179685   0.844   7.340   5.012
19398TIP3    H279686   0.863   7.230   5.108
19399TIP3   OH279687   0.596  -0.006   4.335
19399TIP3    H179688   0.511   0.017   4.366
19399TIP3    H279689   0.645   0.071   4.373
19400TIP3   OH279690   1.160   6.871   5.006
19400TIP3    H179691   1.122   6.848   5.093
19400TIP3    H279692   1.220   6.797   4.988
19401TIP3   OH279693   1.389   6.973   3.914
19401TIP3    H179694   1.418   6.928   3.995
19401TIP3    H279695   1.293   6.958   3.921
19402TIP3   OH279696   1.431   7.324   5.256
19402TIP3    H179697   1.366   7.274   5.205
19402TIP3    H279698   1.454   7.395   5.193
19403TIP3   OH279699   0.243   6.052   5.190
19403TIP3    H179700   0.153   6.086   5.191
19403TIP3    H279701   0.232   5.967   5.237
19404TIP3   OH279702   1.467   6.835   4.137
19404TIP3    H179703   1.444   6.759   4.194
19404TIP3    H279704   1.562   6.844   4.157
19405TIP3   OH279705   0.209   7.230   5.035
19405TIP3    H179706   0.233   7.137   5.035
19405TIP3    H279707   0.228   7.261   5.123
19406TIP3   OH279708   0.797   7.081   3.758
19406TIP3    H179709   0.815   7.002   3.705
19406TIP3    H279710   0.763   7.040   3.841
19407TIP3   OH279711   0.680   7.026   4.004
19407TIP3    H179712   0.704   6.983   4.086
19407TIP3    H279713   0.685   7.121   4.033
19408TIP3   OH279714   0.331   6.758   4.054
19408TIP3    H179715   0.264   6.798   4.113
19408TIP3    H279716   0.384   6.837   4.028
19409TIP3   OH279717   1.116   6.028   5.086
19409TIP3    H179718   1.187   6.034   5.151
19409TIP3    H279719   1.077   5.940   5.105
19410TIP3   OH279720   1.192   5.987   4.196
19410TIP3    H179721   1.215   6.035   4.113
19410TIP3    H279722   1.249   6.031   4.260
19411TIP3   OH279723   0.962   7.202   4.078
19411TIP3    H179724   0.879   7.253   4.085
19411TIP3    H279725   1.011   7.256   4.014
19412TIP3   OH279726   0.914   6.162   4.278
19412TIP3    H179727   0.994   6.218   4.283
19412TIP3    H279728   0.888   6.149   4.371
19413TIP3   OH279729   0.968   6.263   5.196
19413TIP3    H179730   0.978   6.320   5.274
19413TIP3    H279731   1.034   6.194   5.207
19414TIP3   OH279732   1.000   5.868   4.369
19414TIP3    H179733   0.967   5.933   4.434
19414TIP3    H279734   1.068   5.923   4.323
19415TIP3   OH279735   0.693  -0.086   4.104
19415TIP3    H179736   0.705  -0.021   4.028
19415TIP3    H279737   0.672  -0.012   4.164
19416TIP3   OH279738   0.566   5.977   4.038
19416TIP3    H179739   0.560   6.068   4.076
19416TIP3    H279740   0.657   5.953   4.064
19417TIP3   OH279741   1.588   6.049   5.282
19417TIP3    H179742   1.495   6.081   5.269
19417TIP3    H279743   1.619   6.051   5.190
19418TIP3   OH279744   1.448   6.430   4.685
19418TIP3    H179745   1.366   6.386   4.656
19418TIP3    H279746   1.495   6.360   4.736
19419TIP3   OH279747   0.389   7.019   3.944
19419TIP3    H179748   0.453   7.087   3.972
19419TIP3    H279749   0.441   6.976   3.873
19420TIP3   OH279750   0.229   6.289   3.853
19420TIP3    H179751   0.224   6.383   3.878
19420TIP3    H279752   0.137   6.268   3.830
19421TIP3   OH279753   0.303   5.768   4.728
19421TIP3    H179754   0.284   5.770   4.632
19421TIP3    H279755   0.261   5.684   4.756
19422TIP3   OH279756   0.206   7.156   4.352
19422TIP3    H179757   0.120   7.201   4.343
19422TIP3    H279758   0.249   7.209   4.282
19423TIP3   OH279759   0.601   7.292   5.644
19423TIP3    H179760   0.684   7.255   5.672
19423TIP3    H279761   0.596   7.279   5.548
19424TIP3   OH279762   1.002   7.264   3.779
19424TIP3    H179763   0.932   7.199   3.800
19424TIP3    H279764   1.074   7.208   3.748
19425TIP3   OH279765   1.238   7.156   5.512
19425TIP3    H179766   1.212   7.064   5.530
19425TIP3    H279767   1.320   7.166   5.564
19426TIP3   OH279768   1.467   7.241   3.804
19426TIP3    H179769   1.491   7.157   3.844
19426TIP3    H279770   1.537   7.262   3.740
19427TIP3   OH279771   0.129   6.800   5.563
19427TIP3    H179772   0.134   6.704   5.545
19427TIP3    H279773   0.041   6.826   5.541
19428TIP3   OH279774   0.548   6.840   3.778
19428TIP3    H179775   0.560   6.761   3.834
19428TIP3    H279776   0.621   6.826   3.714
19429TIP3   OH279777   0.786   6.801   5.513
19429TIP3    H179778   0.749   6.829   5.427
19429TIP3    H279779   0.794   6.703   5.502
19430TIP3   OH279780   1.061   6.954   3.761
19430TIP3    H179781   1.059   6.956   3.857
19430TIP3    H279782   1.073   6.858   3.741
19431TIP3   OH279783   1.354   6.788   5.253
19431TIP3    H179784   1.432   6.847   5.240
19431TIP3    H279785   1.283   6.852   5.255
19432TIP3   OH279786   0.194   6.524   5.509
19432TIP3    H179787   0.245   6.440   5.500
19432TIP3    H279788   0.181   6.524   5.605
19433TIP3   OH279789   0.667   6.637   4.016
19433TIP3    H179790   0.618   6.584   4.081
19433TIP3    H279791   0.695   6.569   3.951
19434TIP3   OH279792   0.595   6.420   5.249
19434TIP3    H179793   0.534   6.491   5.277
19434TIP3    H279794   0.632   6.456   5.166
19435TIP3   OH279795   0.774   6.458   3.839
19435TIP3    H179796   0.758   6.449   3.743
19435TIP3    H279797   0.871   6.467   3.844
19436TIP3   OH279798   1.101   6.675   5.584
19436TIP3    H179799   1.196   6.672   5.569
19436TIP3    H279800   1.082   6.598   5.639
19437TIP3   OH279801   1.713   6.692   3.781
19437TIP3    H179802   1.686   6.654   3.697
19437TIP3    H279803   1.715   6.789   3.761
19438TIP3   OH279804   0.635   6.157   5.356
19438TIP3    H179805   0.645   6.086   5.291
19438TIP3    H279806   0.628   6.238   5.300
19439TIP3   OH279807   0.674   5.995   5.109
19439TIP3    H179808   0.725   6.041   5.038
19439TIP3    H279809   0.585   5.986   5.067
19440TIP3   OH279810   0.829   6.542   5.133
19440TIP3    H179811   0.904   6.526   5.074
19440TIP3    H279812   0.793   6.626   5.100
19441TIP3   OH279813   1.268   6.323   5.630
19441TIP3    H179814   1.292   6.229   5.625
19441TIP3    H279815   1.356   6.365   5.632
19442TIP3   OH279816   1.400   6.597   5.440
19442TIP3    H179817   1.378   6.673   5.383
19442TIP3    H279818   1.497   6.595   5.427
19443TIP3   OH279819   0.478   6.282   5.547
19443TIP3    H179820   0.402   6.225   5.527
19443TIP3    H279821   0.544   6.246   5.485
19444TIP3   OH279822   0.753   5.739   5.149
19444TIP3    H179823   0.738   5.836   5.138
19444TIP3    H279824   0.678   5.703   5.099
19445TIP3   OH279825   0.880   6.169   5.507
19445TIP3    H179826   0.853   6.151   5.598
19445TIP3    H279827   0.799   6.153   5.454
19446TIP3   OH279828   1.152   6.085   5.416
19446TIP3    H179829   1.055   6.091   5.427
19446TIP3    H279830   1.177   6.021   5.483
19447TIP3   OH279831   0.297   6.074   5.520
19447TIP3    H179832   0.316   6.000   5.458
19447TIP3    H279833   0.283   6.028   5.603
19448TIP3   OH279834   0.775   5.676   5.416
19448TIP3    H179835   0.844   5.608   5.414
19448TIP3    H279836   0.763   5.695   5.321
19449TIP3   OH279837   0.814   5.845   5.623
19449TIP3    H179838   0.796   5.789   5.544
19449TIP3    H279839   0.746   5.911   5.613
19450TIP3   OH279840   0.122   6.993   3.899
19450TIP3    H179841   0.219   6.999   3.915
19450TIP3    H279842   0.122   6.927   3.825
19451TIP3   OH279843   0.078   7.336   4.572
19451TIP3    H179844   0.036   7.251   4.594
19451TIP3    H279845   0.093   7.371   4.661
19452TIP3   OH279846   1.759   6.781   4.176
19452TIP3    H179847   1.845   6.824   4.194
19452TIP3    H279848   1.760   6.709   4.243
19453TIP3   OH279849   1.797   6.590   4.363
19453TIP3    H179850   1.723   6.540   4.403
19453TIP3    H279851   1.857   6.606   4.439
19454TIP3   OH279852   1.773   6.862   4.863
19454TIP3    H179853   1.855   6.826   4.826
19454TIP3    H279854   1.786   6.958   4.846
19455TIP3   OH279855   1.624   7.151   5.091
19455TIP3    H179856   1.558   7.188   5.151
19455TIP3    H279857   1.571   7.110   5.020
19456TIP3   OH279858   1.828   6.574   4.003
19456TIP3    H179859   1.772   6.610   3.931
19456TIP3    H279860   1.819   6.645   4.069
19457TIP3   OH279861   1.663   6.298   3.855
19457TIP3    H179862   1.671   6.365   3.786
19457TIP3    H279863   1.646   6.216   3.806
19458TIP3   OH279864   1.578   6.439   4.420
19458TIP3    H179865   1.563   6.343   4.417
19458TIP3    H279866   1.544   6.463   4.507
19459TIP3   OH279867   0.078   6.647   4.824
19459TIP3    H179868   0.097   6.641   4.728
19459TIP3    H279869   0.166   6.633   4.863
19460TIP3   OH279870   1.663   6.636   5.384
19460TIP3    H179871   1.722   6.562   5.406
19460TIP3    H279872   1.722   6.713   5.390
19461TIP3   OH279873   1.818   6.426   5.448
19461TIP3    H179874   1.727   6.388   5.439
19461TIP3    H279875   1.871   6.346   5.447
19462TIP3   OH279876   1.587   6.043   3.768
19462TIP3    H179877   1.647   6.001   3.833
19462TIP3    H279878   1.502   6.001   3.786
19463TIP3   OH279879   1.545   6.197   4.264
19463TIP3    H179880   1.576   6.105   4.278
19463TIP3    H279881   1.625   6.239   4.230
19464TIP3   OH279882   1.609   6.252   4.810
19464TIP3    H179883   1.705   6.276   4.808
19464TIP3    H279884   1.589   6.266   4.904
19465TIP3   OH279885   1.615   6.325   5.088
19465TIP3    H179886   1.528   6.354   5.123
19465TIP3    H279887   1.659   6.411   5.067
19466TIP3   OH279888   0.057   6.168   5.439
19466TIP3    H179889   0.148   6.151   5.466
19466TIP3    H279890   0.001   6.097   5.476
19467TIP3   OH279891   1.843   5.729   5.624
19467TIP3    H179892   1.877   5.662   5.562
19467TIP3    H279893   1.855   5.811   5.572
19468TIP3   OH279894   1.612   5.925   4.271
19468TIP3    H179895   1.632   5.880   4.355
19468TIP3    H279896   1.551   5.863   4.226
19469TIP3   OH279897   0.157   6.003   4.728
19469TIP3    H179898   0.209   5.924   4.754
19469TIP3    H279899   0.211   6.074   4.767
19470TIP3   OH279900   0.063   6.351   4.868
19470TIP3    H179901   0.059   6.315   4.776
19470TIP3    H279902   0.034   6.439   4.849
19471TIP3   OH279903   1.797   5.938   5.459
19471TIP3    H179904   1.702   5.966   5.453
19471TIP3    H279905   1.801   5.885   5.378
19472TIP3   OH279906   1.794   5.929   3.926
19472TIP3    H179907   1.836   5.858   3.874
19472TIP3    H279908   1.864   5.996   3.931
19473TIP3   OH279909   0.063   5.932   4.212
19473TIP3    H179910  -0.032   5.952   4.214
19473TIP3    H279911   0.090   5.998   4.147
19474TIP3   OH279912   7.378   5.797   5.077
19474TIP3    H179913   7.303   5.777   5.136
19474TIP3    H279914   7.325   5.855   5.019
19475TIP3   OH279915   0.241   7.120   5.485
19475TIP3    H179916   0.159   7.144   5.442
19475TIP3    H279917   0.219   7.115   5.580
19476TIP3   OH279918   0.539   7.220   5.117
19476TIP3    H179919   0.492   7.297   5.081
19476TIP3    H279920   0.627   7.224   5.077
19477TIP3   OH279921   1.695   5.749   5.243
19477TIP3    H179922   1.613   5.778   5.201
19477TIP3    H279923   1.714   5.669   5.189
19478TIP3   OH279924   0.430   7.267   4.655
19478TIP3    H179925   0.410   7.180   4.693
19478TIP3    H279926   0.506   7.290   4.714
19479TIP3   OH279927   0.646   7.276   4.774
19479TIP3    H179928   0.709   7.219   4.730
19479TIP3    H279929   0.689   7.314   4.852
19480TIP3   OH279930   1.036   5.892   4.672
19480TIP3    H179931   0.968   5.827   4.699
19480TIP3    H279932   1.091   5.840   4.613
19481TIP3   OH279933   1.549   5.698   4.681
19481TIP3    H179934   1.611   5.757   4.629
19481TIP3    H279935   1.462   5.733   4.656
19482TIP3   OH279936   1.718   5.820   4.509
19482TIP3    H179937   1.786   5.764   4.465
19482TIP3    H279938   1.765   5.905   4.518
19483TIP3   OH279939   0.270   5.754   4.457
19483TIP3    H179940   0.194   5.732   4.401
19483TIP3    H279941   0.322   5.671   4.450
19484TIP3   OH279942   0.188   5.741   4.043
19484TIP3    H179943   0.204   5.801   3.969
19484TIP3    H279944   0.106   5.777   4.082
19485TIP3   OH279945   0.722   5.747   4.435
19485TIP3    H179946   0.812   5.784   4.430
19485TIP3    H279947   0.716   5.726   4.528
19486TIP3   OH279948   1.289   5.750   4.599
19486TIP3    H179949   1.288   5.760   4.503
19486TIP3    H279950   1.253   5.658   4.612
19487TIP3   OH279951   1.419   5.753   4.167
19487TIP3    H179952   1.345   5.813   4.149
19487TIP3    H279953   1.374   5.667   4.187
19488TIP3   OH279954   0.141  -0.031   4.166
19488TIP3    H179955   0.089  -0.033   4.082
19488TIP3    H279956   0.152   0.062   4.166
19489TIP3   OH279957   0.335   5.926   3.878
19489TIP3    H179958   0.388   5.862   3.827
19489TIP3    H279959   0.399   5.954   3.945
19490TIP3   OH279960   0.837   5.951   4.121
19490TIP3    H179961   0.860   5.891   4.194
19490TIP3    H279962   0.840   6.037   4.169
19491TIP3   OH279963   0.259   5.812   5.404
19491TIP3    H179964   0.225   5.730   5.445
19491TIP3    H279965   0.352   5.806   5.437
19492TIP3   OH279966   0.461   5.744   5.560
19492TIP3    H179967   0.550   5.711   5.544
19492TIP3    H279968   0.423   5.667   5.606
19493TIP3   OH279969   1.304   5.676   5.580
19493TIP3    H179970   1.318   5.630   5.662
19493TIP3    H279971   1.395   5.675   5.542
19494TIP3   OH279972   1.617   7.276   5.458
19494TIP3    H179973   1.545   7.264   5.392
19494TIP3    H279974   1.619   7.373   5.460
19495TIP3   OH279975   3.066   6.667   4.445
19495TIP3    H179976   3.068   6.766   4.439
19495TIP3    H279977   2.995   6.644   4.382
19496TIP3   OH279978   2.953   6.595   4.793
19496TIP3    H179979   2.951   6.529   4.864
19496TIP3    H279980   2.920   6.546   4.716
19497TIP3   OH279981   2.189   6.561   4.949
19497TIP3    H179982   2.197   6.493   5.019
19497TIP3    H279983   2.263   6.619   4.969
19498TIP3   OH279984   3.323   6.888   4.622
19498TIP3    H179985   3.280   6.817   4.669
19498TIP3    H279986   3.324   6.960   4.687
19499TIP3   OH279987   2.284   7.005   4.802
19499TIP3    H179988   2.250   6.920   4.767
19499TIP3    H279989   2.379   6.985   4.806
19500TIP3   OH279990   1.946   6.364   4.346
19500TIP3    H179991   1.901   6.450   4.341
19500TIP3    H279992   1.889   6.309   4.291
19501TIP3   OH279993   2.016   6.585   4.560
19501TIP3    H179994   2.041   6.504   4.607
19501TIP3    H279995   2.088   6.594   4.495
19502TIP3   OH279996   2.790   6.834   4.838
19502TIP3    H179997   2.825   6.771   4.773
19502TIP3    H279998   2.870   6.851   4.892
19503TIP3   OH279999   3.655   5.998   4.914
19503TIP3    H180000   3.667   6.059   4.990
19503TIP3    H280001   3.706   6.045   4.847
19504TIP3   OH280002   3.108   6.281   4.870
19504TIP3    H180003   3.123   6.185   4.869
19504TIP3    H280004   3.097   6.296   4.774
19505TIP3   OH280005   2.420   6.090   4.593
19505TIP3    H180006   2.429   6.174   4.546
19505TIP3    H280007   2.378   6.033   4.525
19506TIP3   OH280008   3.193   6.099   4.430
19506TIP3    H180009   3.259   6.067   4.496
19506TIP3    H280010   3.249   6.155   4.374
19507TIP3   OH280011   2.082   6.330   4.667
19507TIP3    H180012   2.149   6.275   4.711
19507TIP3    H280013   2.091   6.300   4.576
19508TIP3   OH280014   2.598   6.486   4.595
19508TIP3    H180015   2.664   6.429   4.639
19508TIP3    H280016   2.545   6.420   4.548
19509TIP3   OH280017   3.696   6.142   5.142
19509TIP3    H180018   3.633   6.216   5.130
19509TIP3    H280019   3.699   6.131   5.237
19510TIP3   OH280020   2.308   5.978   4.996
19510TIP3    H180021   2.281   6.036   4.922
19510TIP3    H280022   2.240   6.003   5.064
19511TIP3   OH280023   3.041   6.928   4.352
19511TIP3    H180024   3.012   6.900   4.265
19511TIP3    H280025   3.010   7.021   4.357
19512TIP3   OH280026   2.561   6.744   5.023
19512TIP3    H180027   2.490   6.808   5.042
19512TIP3    H280028   2.632   6.804   4.994
19513TIP3   OH280029   3.372   6.032   4.629
19513TIP3    H180030   3.350   5.956   4.683
19513TIP3    H280031   3.439   6.078   4.683
19514TIP3   OH280032   2.264   6.167   4.798
19514TIP3    H180033   2.328   6.234   4.831
19514TIP3    H280034   2.317   6.123   4.727
19515TIP3   OH280035   2.405   6.943   5.104
19515TIP3    H180036   2.401   7.033   5.069
19515TIP3    H280037   2.316   6.938   5.146
19516TIP3   OH280038   2.014   6.910   4.184
19516TIP3    H180039   1.988   6.938   4.095
19516TIP3    H280040   2.022   6.994   4.233
19517TIP3   OH280041   3.377   7.074   4.860
19517TIP3    H180042   3.279   7.080   4.871
19517TIP3    H280043   3.403   7.165   4.839
19518TIP3   OH280044   3.407   5.902   4.998
19518TIP3    H180045   3.333   5.964   4.991
19518TIP3    H280046   3.477   5.945   4.945
19519TIP3   OH280047   2.706   5.713   4.744
19519TIP3    H180048   2.692   5.616   4.737
19519TIP3    H280049   2.618   5.744   4.773
19520TIP3   OH280050   3.201   7.233   4.510
19520TIP3    H180051   3.252   7.169   4.458
19520TIP3    H280052   3.238   7.317   4.478
19521TIP3   OH280053   3.322   7.042   4.369
19521TIP3    H180054   3.292   6.973   4.308
19521TIP3    H280055   3.325   6.995   4.454
19522TIP3   OH280056   3.484   6.902   5.218
19522TIP3    H180057   3.499   6.838   5.145
19522TIP3    H280058   3.505   6.988   5.177
19523TIP3   OH280059   2.934   6.593   4.196
19523TIP3    H180060   2.863   6.649   4.159
19523TIP3    H280061   3.004   6.601   4.128
19524TIP3   OH280062   2.940   6.446   3.897
19524TIP3    H180063   3.011   6.445   3.962
19524TIP3    H280064   2.971   6.377   3.836
19525TIP3   OH280065   3.672   6.533   5.024
19525TIP3    H180066   3.606   6.605   5.029
19525TIP3    H280067   3.720   6.556   4.942
19526TIP3   OH280068   3.277   6.614   4.287
19526TIP3    H180069   3.202   6.638   4.347
19526TIP3    H280070   3.323   6.545   4.338
19527TIP3   OH280071   3.269   6.430   5.198
19527TIP3    H180072   3.271   6.511   5.252
19527TIP3    H280073   3.206   6.460   5.129
19528TIP3   OH280074   2.439   6.680   4.478
19528TIP3    H180075   2.407   6.640   4.394
19528TIP3    H280076   2.500   6.610   4.512
19529TIP3   OH280077   2.574   7.019   4.746
19529TIP3    H180078   2.570   6.963   4.668
19529TIP3    H280079   2.650   6.983   4.794
19530TIP3   OH280080   2.473   6.554   4.843
19530TIP3    H180081   2.529   6.566   4.764
19530TIP3    H280082   2.510   6.620   4.906
19531TIP3   OH280083   3.111   7.110   4.914
19531TIP3    H180084   3.082   7.173   4.978
19531TIP3    H280085   3.086   7.024   4.957
19532TIP3   OH280086   2.567   6.999   5.313
19532TIP3    H180087   2.527   7.073   5.362
19532TIP3    H280088   2.498   6.977   5.245
19533TIP3   OH280089   3.164   6.532   4.055
19533TIP3    H180090   3.221   6.549   4.134
19533TIP3    H280091   3.208   6.582   3.982
19534TIP3   OH280092   2.258   6.610   5.238
19534TIP3    H180093   2.264   6.683   5.303
19534TIP3    H280094   2.168   6.625   5.203
19535TIP3   OH280095   2.934   7.204   4.402
19535TIP3    H180096   2.983   7.236   4.479
19535TIP3    H280097   2.880   7.279   4.377
19536TIP3   OH280098   2.389   7.204   5.386
19536TIP3    H180099   2.386   7.188   5.290
19536TIP3    H280100   2.296   7.188   5.413
19537TIP3   OH280101   3.536   5.706   4.042
19537TIP3    H180102   3.442   5.720   4.068
19537TIP3    H280103   3.558   5.791   3.999
19538TIP3   OH280104   2.337   6.583   4.240
19538TIP3    H180105   2.308   6.661   4.188
19538TIP3    H280106   2.271   6.517   4.218
19539TIP3   OH280107   3.650   7.142   3.876
19539TIP3    H180108   3.660   7.237   3.894
19539TIP3    H280109   3.743   7.111   3.876
19540TIP3   OH280110   1.947   6.825   5.124
19540TIP3    H180111   1.899   6.817   5.039
19540TIP3    H280112   1.950   6.731   5.149
19541TIP3   OH280113   1.923   7.101   4.805
19541TIP3    H180114   2.019   7.087   4.805
19541TIP3    H280115   1.913   7.179   4.861
19542TIP3   OH280116   3.745   7.167   5.378
19542TIP3    H180117   3.733   7.071   5.372
19542TIP3    H280118   3.658   7.195   5.414
19543TIP3   OH280119   2.839   7.127   5.259
19543TIP3    H180120   2.848   7.205   5.313
19543TIP3    H280121   2.754   7.086   5.288
19544TIP3   OH280122   3.463   6.314   5.421
19544TIP3    H180123   3.413   6.362   5.353
19544TIP3    H280124   3.459   6.223   5.390
19545TIP3   OH280125   2.174   6.955   5.224
19545TIP3    H180126   2.195   6.919   5.312
19545TIP3    H280127   2.087   6.916   5.201
19546TIP3   OH280128   2.440   5.802   4.820
19546TIP3    H180129   2.350   5.792   4.782
19546TIP3    H280130   2.429   5.887   4.866
19547TIP3   OH280131   2.904   5.771   5.158
19547TIP3    H180132   2.943   5.729   5.236
19547TIP3    H280133   2.807   5.757   5.171
19548TIP3   OH280134   3.235   6.153   5.245
19548TIP3    H180135   3.179   6.135   5.325
19548TIP3    H280136   3.216   6.245   5.221
19549TIP3   OH280137   3.309   6.636   3.829
19549TIP3    H180138   3.311   6.615   3.733
19549TIP3    H280139   3.396   6.679   3.839
19550TIP3   OH280140   2.870   6.027   3.886
19550TIP3    H180141   2.839   6.023   3.979
19550TIP3    H280142   2.839   5.939   3.856
19551TIP3   OH280143   2.449   6.299   4.939
19551TIP3    H180144   2.378   6.297   5.006
19551TIP3    H280145   2.447   6.392   4.907
19552TIP3   OH280146   2.446   6.315   4.428
19552TIP3    H180147   2.353   6.287   4.416
19552TIP3    H280148   2.486   6.283   4.345
19553TIP3   OH280149   2.999   6.362   4.308
19553TIP3    H180150   2.958   6.445   4.272
19553TIP3    H280151   3.068   6.347   4.242
19554TIP3   OH280152   2.906   6.382   5.449
19554TIP3    H180153   2.852   6.308   5.484
19554TIP3    H280154   2.987   6.370   5.502
19555TIP3   OH280155   3.101   6.310   4.591
19555TIP3    H180156   3.076   6.367   4.516
19555TIP3    H280157   3.114   6.225   4.543
19556TIP3   OH280158   2.214   6.328   5.114
19556TIP3    H180159   2.219   6.367   5.203
19556TIP3    H280160   2.169   6.244   5.130
19557TIP3   OH280161   2.553   6.066   3.797
19557TIP3    H180162   2.508   6.023   3.873
19557TIP3    H280163   2.481   6.107   3.748
19558TIP3   OH280164   1.879   6.039   4.508
19558TIP3    H180165   1.946   6.035   4.579
19558TIP3    H280166   1.925   5.999   4.431
19559TIP3   OH280167   2.007   6.110   4.046
19559TIP3    H180168   2.056   6.172   3.989
19559TIP3    H280169   1.937   6.171   4.079
19560TIP3   OH280170   3.023   6.471   5.049
19560TIP3    H180171   3.059   6.403   4.989
19560TIP3    H280172   2.978   6.417   5.116
19561TIP3   OH280173   2.702   6.066   4.531
19561TIP3    H180174   2.608   6.068   4.561
19561TIP3    H280175   2.752   6.053   4.614
19562TIP3   OH280176   2.184   6.224   4.417
19562TIP3    H180177   2.095   6.237   4.379
19562TIP3    H280178   2.213   6.140   4.378
19563TIP3   OH280179   2.549   6.226   4.180
19563TIP3    H180180   2.644   6.238   4.197
19563TIP3    H280181   2.526   6.295   4.114
19564TIP3   OH280182   3.144   5.989   4.855
19564TIP3    H180183   3.074   5.997   4.925
19564TIP3    H280184   3.093   5.968   4.776
19565TIP3   OH280185   2.418   6.345   3.939
19565TIP3    H180186   2.365   6.307   3.867
19565TIP3    H280187   2.501   6.365   3.892
19566TIP3   OH280188   2.232   6.798   5.445
19566TIP3    H180189   2.304   6.828   5.502
19566TIP3    H280190   2.154   6.820   5.501
19567TIP3   OH280191   2.832   6.343   4.720
19567TIP3    H180192   2.891   6.289   4.666
19567TIP3    H280193   2.818   6.289   4.799
19568TIP3   OH280194   2.333   5.957   4.364
19568TIP3    H180195   2.302   5.865   4.361
19568TIP3    H280196   2.411   5.953   4.308
19569TIP3   OH280197   2.696   6.177   4.961
19569TIP3    H180198   2.612   6.227   4.972
19569TIP3    H280199   2.750   6.210   5.036
19570TIP3   OH280200   2.754   6.798   4.131
19570TIP3    H180201   2.674   6.751   4.098
19570TIP3    H280202   2.733   6.809   4.226
19571TIP3   OH280203   3.470   6.717   5.011
19571TIP3    H180204   3.529   6.765   4.950
19571TIP3    H280205   3.385   6.725   4.964
19572TIP3   OH280206   3.138   6.081   3.949
19572TIP3    H180207   3.043   6.095   3.935
19572TIP3    H280208   3.171   6.167   3.983
19573TIP3   OH280209   2.904   6.825   5.254
19573TIP3    H180210   2.869   6.782   5.334
19573TIP3    H280211   2.880   6.917   5.265
19574TIP3   OH280212   3.211   6.271   4.113
19574TIP3    H180213   3.300   6.258   4.151
19574TIP3    H280214   3.220   6.352   4.061
19575TIP3   OH280215   2.265   6.736   4.711
19575TIP3    H180216   2.335   6.730   4.644
19575TIP3    H280217   2.271   6.650   4.756
19576TIP3   OH280218   2.966   6.946   4.036
19576TIP3    H180219   2.932   7.030   4.070
19576TIP3    H280220   2.892   6.885   4.055
19577TIP3   OH280221   1.965   6.577   5.239
19577TIP3    H180222   1.980   6.533   5.323
19577TIP3    H280223   1.902   6.517   5.194
19578TIP3   OH280224   2.664   6.529   5.458
19578TIP3    H180225   2.637   6.507   5.368
19578TIP3    H280226   2.759   6.506   5.455
19579TIP3   OH280227   3.131   7.068   5.239
19579TIP3    H180228   3.037   7.083   5.223
19579TIP3    H280229   3.131   7.092   5.336
19580TIP3   OH280230   3.702   6.286   4.088
19580TIP3    H180231   3.644   6.255   4.016
19580TIP3    H280232   3.709   6.381   4.061
19581TIP3   OH280233   3.700   6.869   5.371
19581TIP3    H180234   3.612   6.894   5.335
19581TIP3    H280235   3.755   6.868   5.291
19582TIP3   OH280236   3.530   7.160   4.137
19582TIP3    H180237   3.492   7.078   4.163
19582TIP3    H280238   3.558   7.150   4.044
19583TIP3   OH280239   3.249   6.650   4.838
19583TIP3    H180240   3.155   6.628   4.829
19583TIP3    H280241   3.293   6.573   4.798
19584TIP3   OH280242   2.504   7.081   4.446
19584TIP3    H180243   2.551   7.162   4.427
19584TIP3    H280244   2.414   7.105   4.418
19585TIP3   OH280245   2.078   6.567   3.906
19585TIP3    H180246   2.137   6.633   3.947
19585TIP3    H280247   1.990   6.600   3.932
19586TIP3   OH280248   2.646   6.849   4.402
19586TIP3    H180249   2.616   6.942   4.411
19586TIP3    H280250   2.571   6.803   4.446
19587TIP3   OH280251   2.704   7.247   5.021
19587TIP3    H180252   2.729   7.340   5.012
19587TIP3    H280253   2.749   7.229   5.106
19588TIP3   OH280254   2.482  -0.004   4.328
19588TIP3    H180255   2.398   0.015   4.367
19588TIP3    H280256   2.530   0.069   4.373
19589TIP3   OH280257   3.045   6.870   5.005
19589TIP3    H180258   3.007   6.848   5.093
19589TIP3    H280259   3.106   6.797   4.988
19590TIP3   OH280260   3.273   6.970   3.911
19590TIP3    H180261   3.304   6.929   3.995
19590TIP3    H280262   3.177   6.958   3.923
19591TIP3   OH280263   3.316   7.324   5.255
19591TIP3    H180264   3.252   7.273   5.205
19591TIP3    H280265   3.339   7.395   5.193
19592TIP3   OH280266   2.129   6.054   5.197
19592TIP3    H180267   2.037   6.086   5.187
19592TIP3    H280268   2.118   5.967   5.236
19593TIP3   OH280269   3.353   6.835   4.136
19593TIP3    H180270   3.329   6.760   4.193
19593TIP3    H280271   3.447   6.844   4.157
19594TIP3   OH280272   2.092   7.229   5.035
19594TIP3    H180273   2.118   7.136   5.036
19594TIP3    H280274   2.114   7.261   5.124
19595TIP3   OH280275   2.684   7.081   3.760
19595TIP3    H180276   2.698   7.002   3.704
19595TIP3    H280277   2.647   7.040   3.841
19596TIP3   OH280278   2.567   7.033   4.007
19596TIP3    H180279   2.590   6.983   4.086
19596TIP3    H280280   2.574   7.127   4.036
19597TIP3   OH280281   2.219   6.759   4.056
19597TIP3    H180282   2.148   6.798   4.111
19597TIP3    H280283   2.270   6.838   4.029
19598TIP3   OH280284   3.001   6.028   5.085
19598TIP3    H180285   3.072   6.034   5.151
19598TIP3    H280286   2.963   5.940   5.104
19599TIP3   OH280287   3.078   5.987   4.196
19599TIP3    H180288   3.101   6.035   4.113
19599TIP3    H280289   3.135   6.031   4.260
19600TIP3   OH280290   2.846   7.203   4.079
19600TIP3    H180291   2.764   7.253   4.085
19600TIP3    H280292   2.897   7.254   4.014
19601TIP3   OH280293   2.799   6.162   4.278
19601TIP3    H180294   2.879   6.218   4.283
19601TIP3    H280295   2.774   6.149   4.371
19602TIP3   OH280296   2.856   6.265   5.193
19602TIP3    H180297   2.863   6.320   5.273
19602TIP3    H280298   2.920   6.194   5.207
19603TIP3   OH280299   2.886   5.868   4.369
19603TIP3    H180300   2.853   5.933   4.434
19603TIP3    H280301   2.954   5.923   4.323
19604TIP3   OH280302   2.589  -0.033   4.078
19604TIP3    H180303   2.595   0.049   4.026
19604TIP3    H280304   2.557  -0.002   4.165
19605TIP3   OH280305   2.451   5.977   4.039
19605TIP3    H180306   2.446   6.068   4.076
19605TIP3    H280307   2.542   5.953   4.064
19606TIP3   OH280308   3.474   6.051   5.284
19606TIP3    H180309   3.381   6.081   5.270
19606TIP3    H280310   3.504   6.051   5.191
19607TIP3   OH280311   3.334   6.430   4.685
19607TIP3    H180312   3.252   6.386   4.656
19607TIP3    H280313   3.381   6.360   4.736
19608TIP3   OH280314   2.274   7.021   3.943
19608TIP3    H180315   2.339   7.087   3.973
19608TIP3    H280316   2.326   6.977   3.873
19609TIP3   OH280317   2.109   6.288   3.857
19609TIP3    H180318   2.109   6.384   3.877
19609TIP3    H280319   2.020   6.269   3.827
19610TIP3   OH280320   2.191   5.767   4.729
19610TIP3    H180321   2.169   5.770   4.633
19610TIP3    H280322   2.147   5.684   4.756
19611TIP3   OH280323   2.092   7.156   4.351
19611TIP3    H180324   2.004   7.201   4.343
19611TIP3    H280325   2.134   7.207   4.280
19612TIP3   OH280326   2.487   7.292   5.648
19612TIP3    H180327   2.571   7.255   5.672
19612TIP3    H280328   2.480   7.281   5.551
19613TIP3   OH280329   2.887   7.264   3.780
19613TIP3    H180330   2.817   7.199   3.800
19613TIP3    H280331   2.959   7.210   3.748
19614TIP3   OH280332   3.126   7.150   5.477
19614TIP3    H180333   3.092   7.069   5.521
19614TIP3    H280334   3.199   7.172   5.539
19615TIP3   OH280335   3.351   7.239   3.802
19615TIP3    H180336   3.378   7.158   3.846
19615TIP3    H280337   3.423   7.263   3.741
19616TIP3   OH280338   2.005   6.802   5.567
19616TIP3    H180339   2.010   6.710   5.544
19616TIP3    H280340   1.924   6.831   5.521
19617TIP3   OH280341   2.434   6.838   3.777
19617TIP3    H180342   2.445   6.760   3.834
19617TIP3    H280343   2.506   6.825   3.714
19618TIP3   OH280344   2.673   6.801   5.510
19618TIP3    H180345   2.633   6.829   5.427
19618TIP3    H280346   2.679   6.703   5.503
19619TIP3   OH280347   2.976   6.945   3.754
19619TIP3    H180348   2.946   6.957   3.846
19619TIP3    H280349   2.955   6.850   3.742
19620TIP3   OH280350   3.239   6.788   5.251
19620TIP3    H180351   3.317   6.847   5.242
19620TIP3    H280352   3.168   6.853   5.256
19621TIP3   OH280353   2.552   6.637   4.016
19621TIP3    H180354   2.504   6.585   4.081
19621TIP3    H280355   2.581   6.569   3.951
19622TIP3   OH280356   2.479   6.420   5.249
19622TIP3    H180357   2.420   6.493   5.273
19622TIP3    H280358   2.518   6.455   5.167
19623TIP3   OH280359   2.659   6.460   3.839
19623TIP3    H180360   2.643   6.449   3.743
19623TIP3    H280361   2.757   6.467   3.844
19624TIP3   OH280362   2.986   6.676   5.581
19624TIP3    H180363   3.082   6.673   5.573
19624TIP3    H280364   2.968   6.600   5.638
19625TIP3   OH280365   3.595   6.692   3.782
19625TIP3    H180366   3.573   6.653   3.696
19625TIP3    H280367   3.602   6.788   3.761
19626TIP3   OH280368   2.517   6.158   5.356
19626TIP3    H180369   2.530   6.087   5.291
19626TIP3    H280370   2.516   6.238   5.300
19627TIP3   OH280371   2.559   5.995   5.110
19627TIP3    H180372   2.611   6.041   5.040
19627TIP3    H280373   2.471   5.986   5.067
19628TIP3   OH280374   2.715   6.542   5.132
19628TIP3    H180375   2.790   6.526   5.074
19628TIP3    H280376   2.679   6.626   5.101
19629TIP3   OH280377   3.286   6.599   5.442
19629TIP3    H180378   3.263   6.672   5.381
19629TIP3    H280379   3.383   6.595   5.426
19630TIP3   OH280380   2.637   5.739   5.151
19630TIP3    H180381   2.623   5.836   5.137
19630TIP3    H280382   2.563   5.703   5.099
19631TIP3   OH280383   2.764   6.172   5.507
19631TIP3    H180384   2.738   6.155   5.599
19631TIP3    H280385   2.684   6.153   5.455
19632TIP3   OH280386   3.035   6.085   5.414
19632TIP3    H180387   2.940   6.090   5.430
19632TIP3    H280388   3.068   6.023   5.482
19633TIP3   OH280389   3.194   5.951   5.611
19633TIP3    H180390   3.189   5.853   5.614
19633TIP3    H280391   3.168   5.976   5.701
19634TIP3   OH280392   2.178   6.076   5.522
19634TIP3    H180393   2.201   6.003   5.460
19634TIP3    H280394   2.167   6.026   5.604
19635TIP3   OH280395   2.663   5.675   5.416
19635TIP3    H180396   2.731   5.605   5.412
19635TIP3    H280397   2.650   5.695   5.322
19636TIP3   OH280398   2.002   6.991   3.889
19636TIP3    H180399   2.098   6.997   3.913
19636TIP3    H280400   2.006   6.922   3.819
19637TIP3   OH280401   1.950   7.338   4.577
19637TIP3    H180402   1.921   7.249   4.597
19637TIP3    H280403   1.979   7.373   4.662
19638TIP3   OH280404   3.515   6.952   5.631
19638TIP3    H180405   3.427   6.944   5.673
19638TIP3    H280406   3.552   7.030   5.676
19639TIP3   OH280407   3.645   6.781   4.176
19639TIP3    H180408   3.731   6.824   4.194
19639TIP3    H280409   3.645   6.709   4.243
19640TIP3   OH280410   3.683   6.590   4.363
19640TIP3    H180411   3.608   6.540   4.403
19640TIP3    H280412   3.742   6.606   4.439
19641TIP3   OH280413   3.658   6.863   4.863
19641TIP3    H180414   3.741   6.826   4.826
19641TIP3    H280415   3.672   6.958   4.845
19642TIP3   OH280416   3.510   7.154   5.087
19642TIP3    H180417   3.445   7.187   5.150
19642TIP3    H280418   3.456   7.109   5.019
19643TIP3   OH280419   3.713   6.574   4.003
19643TIP3    H180420   3.657   6.610   3.931
19643TIP3    H280421   3.704   6.645   4.069
19644TIP3   OH280422   3.549   6.298   3.855
19644TIP3    H180423   3.556   6.365   3.786
19644TIP3    H280424   3.531   6.216   3.806
19645TIP3   OH280425   3.464   6.439   4.420
19645TIP3    H180426   3.449   6.343   4.417
19645TIP3    H280427   3.429   6.463   4.507
19646TIP3   OH280428   1.965   6.647   4.825
19646TIP3    H180429   1.984   6.639   4.729
19646TIP3    H280430   2.054   6.631   4.862
19647TIP3   OH280431   3.549   6.635   5.386
19647TIP3    H180432   3.610   6.561   5.402
19647TIP3    H280433   3.608   6.713   5.390
19648TIP3   OH280434   3.700   6.426   5.450
19648TIP3    H180435   3.611   6.386   5.436
19648TIP3    H280436   3.757   6.348   5.446
19649TIP3   OH280437   3.473   6.043   3.768
19649TIP3    H180438   3.533   6.001   3.833
19649TIP3    H280439   3.387   6.001   3.786
19650TIP3   OH280440   3.430   6.197   4.263
19650TIP3    H180441   3.462   6.105   4.278
19650TIP3    H280442   3.511   6.238   4.230
19651TIP3   OH280443   3.494   6.252   4.810
19651TIP3    H180444   3.590   6.276   4.808
19651TIP3    H280445   3.475   6.266   4.904
19652TIP3   OH280446   3.501   6.325   5.088
19652TIP3    H180447   3.414   6.354   5.122
19652TIP3    H280448   3.544   6.411   5.066
19653TIP3   OH280449   1.926   6.177   5.438
19653TIP3    H180450   2.018   6.155   5.457
19653TIP3    H280451   1.879   6.098   5.472
19654TIP3   OH280452   3.729   5.729   5.625
19654TIP3    H180453   3.762   5.662   5.562
19654TIP3    H280454   3.740   5.811   5.574
19655TIP3   OH280455   3.497   5.925   4.271
19655TIP3    H180456   3.515   5.882   4.355
19655TIP3    H280457   3.436   5.863   4.226
19656TIP3   OH280458   2.046   6.006   4.726
19656TIP3    H180459   2.093   5.925   4.753
19656TIP3    H280460   2.099   6.076   4.766
19657TIP3   OH280461   1.875   6.305   4.831
19657TIP3    H180462   1.931   6.282   4.753
19657TIP3    H280463   1.919   6.387   4.858
19658TIP3   OH280464   3.682   5.939   5.460
19658TIP3    H180465   3.588   5.964   5.451
19658TIP3    H280466   3.687   5.885   5.380
19659TIP3   OH280467   3.680   5.929   3.927
19659TIP3    H180468   3.722   5.858   3.874
19659TIP3    H280469   3.750   5.996   3.931
19660TIP3   OH280470   1.911   5.933   4.238
19660TIP3    H180471   1.817   5.951   4.223
19660TIP3    H280472   1.954   5.981   4.166
19661TIP3   OH280473   1.907   5.800   5.069
19661TIP3    H180474   1.839   5.779   5.135
19661TIP3    H280475   1.861   5.867   5.013
19662TIP3   OH280476   2.127   7.124   5.483
19662TIP3    H180477   2.042   7.139   5.438
19662TIP3    H280478   2.101   7.114   5.575
19663TIP3   OH280479   2.422   7.219   5.115
19663TIP3    H180480   2.379   7.298   5.081
19663TIP3    H280481   2.512   7.224   5.079
19664TIP3   OH280482   3.582   5.749   5.242
19664TIP3    H180483   3.498   5.779   5.201
19664TIP3    H280484   3.600   5.668   5.189
19665TIP3   OH280485   2.314   7.268   4.655
19665TIP3    H180486   2.296   7.180   4.692
19665TIP3    H280487   2.392   7.291   4.714
19666TIP3   OH280488   2.532   7.276   4.774
19666TIP3    H180489   2.594   7.218   4.730
19666TIP3    H280490   2.575   7.314   4.851
19667TIP3   OH280491   2.922   5.892   4.673
19667TIP3    H180492   2.854   5.827   4.699
19667TIP3    H280493   2.977   5.840   4.613
19668TIP3   OH280494   3.436   5.698   4.680
19668TIP3    H180495   3.495   5.758   4.629
19668TIP3    H280496   3.347   5.733   4.658
19669TIP3   OH280497   3.607   5.817   4.515
19669TIP3    H180498   3.669   5.766   4.458
19669TIP3    H280499   3.649   5.906   4.516
19670TIP3   OH280500   2.157   5.755   4.456
19670TIP3    H180501   2.078   5.733   4.404
19670TIP3    H280502   2.206   5.670   4.452
19671TIP3   OH280503   2.036   5.731   4.031
19671TIP3    H180504   2.084   5.796   3.975
19671TIP3    H280505   1.977   5.788   4.083
19672TIP3   OH280506   2.608   5.747   4.435
19672TIP3    H180507   2.698   5.784   4.430
19672TIP3    H280508   2.601   5.726   4.528
19673TIP3   OH280509   3.174   5.750   4.599
19673TIP3    H180510   3.173   5.760   4.503
19673TIP3    H280511   3.139   5.658   4.612
19674TIP3   OH280512   3.304   5.753   4.167
19674TIP3    H180513   3.230   5.813   4.149
19674TIP3    H280514   3.259   5.667   4.187
19675TIP3   OH280515   2.008  -0.039   4.163
19675TIP3    H180516   1.968  -0.031   4.074
19675TIP3    H280517   2.033   0.053   4.167
19676TIP3   OH280518   2.220   5.925   3.879
19676TIP3    H180519   2.272   5.863   3.827
19676TIP3    H280520   2.286   5.956   3.944
19677TIP3   OH280521   2.723   5.951   4.121
19677TIP3    H180522   2.746   5.891   4.194
19677TIP3    H280523   2.725   6.037   4.169
19678TIP3   OH280524   2.150   5.810   5.410
19678TIP3    H180525   2.113   5.728   5.447
19678TIP3    H280526   2.243   5.805   5.435
19679TIP3   OH280527   3.188   5.676   5.579
19679TIP3    H180528   3.197   5.630   5.666
19679TIP3    H280529   3.279   5.674   5.545
19680TIP3   OH280530   3.509   7.278   5.450
19680TIP3    H180531   3.431   7.265   5.393
19680TIP3    H280532   3.504   7.373   5.462
19681TIP3   OH280533   4.951   6.668   4.447
19681TIP3    H180534   4.953   6.766   4.439
19681TIP3    H280535   4.881   6.644   4.383
19682TIP3   OH280536   4.839   6.595   4.793
19682TIP3    H180537   4.837   6.529   4.864
19682TIP3    H280538   4.806   6.546   4.716
19683TIP3   OH280539   4.075   6.560   4.949
19683TIP3    H180540   4.083   6.493   5.020
19683TIP3    H280541   4.149   6.619   4.970
19684TIP3   OH280542   5.209   6.888   4.621
19684TIP3    H180543   5.165   6.817   4.669
19684TIP3    H280544   5.210   6.960   4.687
19685TIP3   OH280545   4.170   7.006   4.802
19685TIP3    H180546   4.136   6.920   4.768
19685TIP3    H280547   4.264   6.985   4.806
19686TIP3   OH280548   3.832   6.364   4.346
19686TIP3    H180549   3.787   6.450   4.341
19686TIP3    H280550   3.774   6.309   4.291
19687TIP3   OH280551   3.901   6.585   4.560
19687TIP3    H180552   3.927   6.504   4.607
19687TIP3    H280553   3.973   6.594   4.495
19688TIP3   OH280554   4.675   6.835   4.838
19688TIP3    H180555   4.710   6.771   4.773
19688TIP3    H280556   4.755   6.851   4.892
19689TIP3   OH280557   5.539   5.999   4.914
19689TIP3    H180558   5.553   6.060   4.990
19689TIP3    H280559   5.592   6.043   4.846
19690TIP3   OH280560   4.993   6.281   4.870
19690TIP3    H180561   5.009   6.185   4.869
19690TIP3    H280562   4.983   6.296   4.774
19691TIP3   OH280563   4.306   6.090   4.593
19691TIP3    H180564   4.314   6.174   4.546
19691TIP3    H280565   4.264   6.033   4.525
19692TIP3   OH280566   5.079   6.098   4.431
19692TIP3    H180567   5.146   6.067   4.496
19692TIP3    H280568   5.133   6.155   4.374
19693TIP3   OH280569   3.968   6.331   4.667
19693TIP3    H180570   4.035   6.275   4.711
19693TIP3    H280571   3.976   6.300   4.576
19694TIP3   OH280572   4.484   6.486   4.596
19694TIP3    H180573   4.549   6.428   4.639
19694TIP3    H280574   4.430   6.420   4.548
19695TIP3   OH280575   5.582   6.142   5.140
19695TIP3    H180576   5.518   6.216   5.131
19695TIP3    H280577   5.585   6.130   5.236
19696TIP3   OH280578   4.194   5.980   4.998
19696TIP3    H180579   4.167   6.036   4.922
19696TIP3    H280580   4.125   6.004   5.065
19697TIP3   OH280581   4.926   6.928   4.352
19697TIP3    H180582   4.898   6.899   4.265
19697TIP3    H280583   4.895   7.021   4.357
19698TIP3   OH280584   4.447   6.744   5.024
19698TIP3    H180585   4.375   6.808   5.041
19698TIP3    H280586   4.517   6.804   4.994
19699TIP3   OH280587   5.258   6.032   4.629
19699TIP3    H180588   5.237   5.955   4.683
19699TIP3    H280589   5.325   6.077   4.683
19700TIP3   OH280590   4.150   6.167   4.798
19700TIP3    H180591   4.214   6.234   4.831
19700TIP3    H280592   4.203   6.123   4.727
19701TIP3   OH280593   4.291   6.942   5.103
19701TIP3    H180594   4.287   7.034   5.069
19701TIP3    H280595   4.203   6.937   5.148
19702TIP3   OH280596   3.899   6.910   4.184
19702TIP3    H180597   3.873   6.938   4.095
19702TIP3    H280598   3.907   6.994   4.233
19703TIP3   OH280599   5.262   7.075   4.860
19703TIP3    H180600   5.165   7.080   4.871
19703TIP3    H280601   5.289   7.166   4.839
19704TIP3   OH280602   5.293   5.901   4.998
19704TIP3    H180603   5.220   5.964   4.990
19704TIP3    H280604   5.363   5.944   4.944
19705TIP3   OH280605   4.591   5.713   4.743
19705TIP3    H180606   4.578   5.616   4.737
19705TIP3    H280607   4.503   5.744   4.773
19706TIP3   OH280608   5.087   7.233   4.510
19706TIP3    H180609   5.137   7.169   4.458
19706TIP3    H280610   5.123   7.317   4.478
19707TIP3   OH280611   5.208   7.042   4.368
19707TIP3    H180612   5.177   6.973   4.308
19707TIP3    H280613   5.210   6.995   4.454
19708TIP3   OH280614   5.369   6.903   5.218
19708TIP3    H180615   5.384   6.837   5.146
19708TIP3    H280616   5.391   6.987   5.176
19709TIP3   OH280617   4.821   6.597   4.199
19709TIP3    H180618   4.749   6.647   4.157
19709TIP3    H280619   4.888   6.598   4.128
19710TIP3   OH280620   4.833   6.381   3.995
19710TIP3    H180621   4.901   6.449   3.976
19710TIP3    H280622   4.836   6.368   3.895
19711TIP3   OH280623   5.558   6.533   5.024
19711TIP3    H180624   5.491   6.605   5.029
19711TIP3    H280625   5.605   6.556   4.942
19712TIP3   OH280626   5.163   6.615   4.287
19712TIP3    H180627   5.088   6.638   4.347
19712TIP3    H280628   5.208   6.545   4.337
19713TIP3   OH280629   5.155   6.430   5.198
19713TIP3    H180630   5.158   6.510   5.254
19713TIP3    H280631   5.092   6.461   5.130
19714TIP3   OH280632   4.325   6.680   4.478
19714TIP3    H180633   4.292   6.640   4.394
19714TIP3    H280634   4.386   6.610   4.512
19715TIP3   OH280635   4.459   7.019   4.746
19715TIP3    H180636   4.455   6.964   4.668
19715TIP3    H280637   4.535   6.983   4.794
19716TIP3   OH280638   4.359   6.554   4.843
19716TIP3    H180639   4.415   6.566   4.764
19716TIP3    H280640   4.395   6.620   4.906
19717TIP3   OH280641   4.997   7.109   4.914
19717TIP3    H180642   4.967   7.173   4.977
19717TIP3    H280643   4.972   7.024   4.957
19718TIP3   OH280644   4.453   6.998   5.313
19718TIP3    H180645   4.413   7.073   5.362
19718TIP3    H280646   4.385   6.978   5.245
19719TIP3   OH280647   5.050   6.534   4.055
19719TIP3    H180648   5.107   6.549   4.133
19719TIP3    H280649   5.093   6.582   3.981
19720TIP3   OH280650   4.145   6.613   5.232
19720TIP3    H180651   4.150   6.680   5.303
19720TIP3    H280652   4.053   6.624   5.205
19721TIP3   OH280653   4.820   7.204   4.402
19721TIP3    H180654   4.869   7.236   4.478
19721TIP3    H280655   4.766   7.279   4.376
19722TIP3   OH280656   4.275   7.202   5.386
19722TIP3    H180657   4.272   7.188   5.290
19722TIP3    H280658   4.183   7.188   5.415
19723TIP3   OH280659   5.422   5.706   4.041
19723TIP3    H180660   5.328   5.720   4.068
19723TIP3    H280661   5.443   5.791   3.999
19724TIP3   OH280662   4.222   6.583   4.240
19724TIP3    H180663   4.194   6.661   4.188
19724TIP3    H280664   4.156   6.517   4.218
19725TIP3   OH280665   5.536   7.142   3.876
19725TIP3    H180666   5.546   7.237   3.894
19725TIP3    H280667   5.628   7.111   3.876
19726TIP3   OH280668   3.831   6.825   5.126
19726TIP3    H180669   3.785   6.817   5.041
19726TIP3    H280670   3.836   6.730   5.150
19727TIP3   OH280671   3.809   7.101   4.804
19727TIP3    H180672   3.904   7.087   4.805
19727TIP3    H280673   3.799   7.179   4.861
19728TIP3   OH280674   5.629   7.167   5.378
19728TIP3    H180675   5.620   7.071   5.371
19728TIP3    H280676   5.543   7.194   5.414
19729TIP3   OH280677   4.725   7.126   5.260
19729TIP3    H180678   4.733   7.205   5.313
19729TIP3    H280679   4.640   7.086   5.288
19730TIP3   OH280680   5.347   6.315   5.420
19730TIP3    H180681   5.299   6.362   5.350
19730TIP3    H280682   5.345   6.223   5.393
19731TIP3   OH280683   4.059   6.955   5.223
19731TIP3    H180684   4.081   6.918   5.311
19731TIP3    H280685   3.972   6.916   5.201
19732TIP3   OH280686   4.324   5.801   4.820
19732TIP3    H180687   4.235   5.792   4.782
19732TIP3    H280688   4.315   5.886   4.866
19733TIP3   OH280689   4.790   5.771   5.157
19733TIP3    H180690   4.829   5.730   5.235
19733TIP3    H280691   4.693   5.757   5.171
19734TIP3   OH280692   5.119   6.152   5.244
19734TIP3    H180693   5.065   6.135   5.325
19734TIP3    H280694   5.103   6.245   5.222
19735TIP3   OH280695   5.196   6.636   3.830
19735TIP3    H180696   5.195   6.615   3.733
19735TIP3    H280697   5.282   6.679   3.839
19736TIP3   OH280698   4.756   6.025   3.886
19736TIP3    H180699   4.726   6.024   3.979
19736TIP3    H280700   4.724   5.938   3.857
19737TIP3   OH280701   4.335   6.299   4.940
19737TIP3    H180702   4.264   6.297   5.006
19737TIP3    H280703   4.332   6.392   4.907
19738TIP3   OH280704   4.332   6.315   4.428
19738TIP3    H180705   4.239   6.287   4.416
19738TIP3    H280706   4.372   6.283   4.345
19739TIP3   OH280707   4.885   6.364   4.309
19739TIP3    H180708   4.844   6.444   4.270
19739TIP3    H280709   4.952   6.347   4.240
19740TIP3   OH280710   4.792   6.384   5.452
19740TIP3    H180711   4.737   6.307   5.483
19740TIP3    H280712   4.875   6.370   5.498
19741TIP3   OH280713   4.987   6.310   4.590
19741TIP3    H180714   4.961   6.367   4.515
19741TIP3    H280715   4.999   6.225   4.543
19742TIP3   OH280716   4.101   6.328   5.114
19742TIP3    H180717   4.104   6.368   5.202
19742TIP3    H280718   4.055   6.244   5.132
19743TIP3   OH280719   4.438   6.064   3.797
19743TIP3    H180720   4.394   6.023   3.874
19743TIP3    H280721   4.367   6.108   3.748
19744TIP3   OH280722   3.764   6.033   4.509
19744TIP3    H180723   3.832   6.038   4.579
19744TIP3    H280724   3.811   6.001   4.431
19745TIP3   OH280725   3.892   6.110   4.046
19745TIP3    H180726   3.942   6.172   3.989
19745TIP3    H280727   3.822   6.172   4.078
19746TIP3   OH280728   4.909   6.471   5.049
19746TIP3    H180729   4.945   6.403   4.989
19746TIP3    H280730   4.863   6.417   5.116
19747TIP3   OH280731   4.588   6.066   4.531
19747TIP3    H180732   4.494   6.068   4.561
19747TIP3    H280733   4.637   6.053   4.613
19748TIP3   OH280734   4.070   6.224   4.417
19748TIP3    H180735   3.981   6.237   4.379
19748TIP3    H280736   4.099   6.140   4.378
19749TIP3   OH280737   4.435   6.227   4.180
19749TIP3    H180738   4.530   6.239   4.196
19749TIP3    H280739   4.413   6.295   4.114
19750TIP3   OH280740   5.029   5.990   4.856
19750TIP3    H180741   4.960   5.997   4.925
19750TIP3    H280742   4.978   5.968   4.776
19751TIP3   OH280743   4.302   6.345   3.939
19751TIP3    H180744   4.250   6.307   3.867
19751TIP3    H280745   4.386   6.365   3.892
19752TIP3   OH280746   4.118   6.802   5.445
19752TIP3    H180747   4.189   6.828   5.506
19752TIP3    H280748   4.039   6.816   5.502
19753TIP3   OH280749   4.717   6.343   4.720
19753TIP3    H180750   4.776   6.289   4.666
19753TIP3    H280751   4.703   6.289   4.799
19754TIP3   OH280752   4.217   5.956   4.364
19754TIP3    H180753   4.189   5.864   4.360
19754TIP3    H280754   4.297   5.953   4.309
19755TIP3   OH280755   4.581   6.177   4.961
19755TIP3    H180756   4.498   6.227   4.971
19755TIP3    H280757   4.636   6.210   5.035
19756TIP3   OH280758   4.639   6.800   4.132
19756TIP3    H180759   4.561   6.751   4.098
19756TIP3    H280760   4.618   6.809   4.227
19757TIP3   OH280761   5.356   6.717   5.011
19757TIP3    H180762   5.414   6.765   4.950
19757TIP3    H280763   5.271   6.725   4.964
19758TIP3   OH280764   5.024   6.079   3.951
19758TIP3    H180765   4.929   6.096   3.934
19758TIP3    H280766   5.055   6.167   3.981
19759TIP3   OH280767   4.787   6.824   5.252
19759TIP3    H180768   4.754   6.781   5.333
19759TIP3    H280769   4.766   6.917   5.264
19760TIP3   OH280770   5.098   6.270   4.115
19760TIP3    H180771   5.188   6.258   4.151
19760TIP3    H280772   5.104   6.351   4.061
19761TIP3   OH280773   4.150   6.736   4.711
19761TIP3    H180774   4.221   6.730   4.644
19761TIP3    H280775   4.157   6.650   4.756
19762TIP3   OH280776   4.852   6.946   4.036
19762TIP3    H180777   4.817   7.031   4.070
19762TIP3    H280778   4.778   6.885   4.055
19763TIP3   OH280779   3.849   6.579   5.238
19763TIP3    H180780   3.869   6.534   5.322
19763TIP3    H280781   3.788   6.516   5.195
19764TIP3   OH280782   4.552   6.533   5.456
19764TIP3    H180783   4.521   6.507   5.368
19764TIP3    H280784   4.645   6.505   5.455
19765TIP3   OH280785   5.018   7.076   5.245
19765TIP3    H180786   4.924   7.082   5.225
19765TIP3    H280787   5.015   7.090   5.342
19766TIP3   OH280788   5.587   6.286   4.088
19766TIP3    H180789   5.530   6.255   4.016
19766TIP3    H280790   5.595   6.381   4.061
19767TIP3   OH280791   5.585   6.871   5.370
19767TIP3    H180792   5.497   6.894   5.333
19767TIP3    H280793   5.641   6.867   5.290
19768TIP3   OH280794   5.416   7.160   4.137
19768TIP3    H180795   5.378   7.077   4.163
19768TIP3    H280796   5.443   7.150   4.044
19769TIP3   OH280797   5.135   6.651   4.839
19769TIP3    H180798   5.041   6.628   4.829
19769TIP3    H280799   5.178   6.573   4.798
19770TIP3   OH280800   4.389   7.081   4.446
19770TIP3    H180801   4.437   7.162   4.427
19770TIP3    H280802   4.300   7.105   4.418
19771TIP3   OH280803   3.964   6.567   3.906
19771TIP3    H180804   4.023   6.633   3.947
19771TIP3    H280805   3.875   6.600   3.933
19772TIP3   OH280806   4.531   6.849   4.402
19772TIP3    H180807   4.501   6.942   4.411
19772TIP3    H280808   4.457   6.803   4.446
19773TIP3   OH280809   4.590   7.247   5.021
19773TIP3    H180810   4.614   7.340   5.011
19773TIP3    H280811   4.633   7.229   5.106
19774TIP3   OH280812   4.368  -0.004   4.327
19774TIP3    H180813   4.284   0.014   4.367
19774TIP3    H280814   4.416   0.069   4.373
19775TIP3   OH280815   4.931   6.871   5.007
19775TIP3    H180816   4.893   6.848   5.093
19775TIP3    H280817   4.992   6.797   4.988
19776TIP3   OH280818   5.159   6.970   3.911
19776TIP3    H180819   5.190   6.929   3.995
19776TIP3    H280820   5.063   6.958   3.922
19777TIP3   OH280821   5.192   7.332   5.258
19777TIP3    H180822   5.141   7.270   5.203
19777TIP3    H280823   5.228   7.393   5.190
19778TIP3   OH280824   4.015   6.053   5.195
19778TIP3    H180825   3.923   6.087   5.188
19778TIP3    H280826   4.002   5.966   5.236
19779TIP3   OH280827   5.238   6.835   4.136
19779TIP3    H180828   5.215   6.760   4.194
19779TIP3    H280829   5.333   6.844   4.157
19780TIP3   OH280830   3.977   7.229   5.036
19780TIP3    H180831   4.003   7.137   5.036
19780TIP3    H280832   4.000   7.261   5.124
19781TIP3   OH280833   4.569   7.080   3.759
19781TIP3    H180834   4.584   7.001   3.705
19781TIP3    H280835   4.533   7.040   3.841
19782TIP3   OH280836   4.453   7.033   4.007
19782TIP3    H180837   4.475   6.983   4.086
19782TIP3    H280838   4.460   7.127   4.036
19783TIP3   OH280839   4.105   6.759   4.056
19783TIP3    H180840   4.034   6.798   4.111
19783TIP3    H280841   4.156   6.838   4.029
19784TIP3   OH280842   4.887   6.029   5.085
19784TIP3    H180843   4.958   6.034   5.151
19784TIP3    H280844   4.849   5.941   5.105
19785TIP3   OH280845   4.964   5.987   4.195
19785TIP3    H180846   4.985   6.036   4.113
19785TIP3    H280847   5.020   6.031   4.260
19786TIP3   OH280848   4.732   7.203   4.079
19786TIP3    H180849   4.649   7.253   4.085
19786TIP3    H280850   4.783   7.254   4.014
19787TIP3   OH280851   4.685   6.162   4.278
19787TIP3    H180852   4.765   6.219   4.281
19787TIP3    H280853   4.659   6.150   4.372
19788TIP3   OH280854   4.739   6.263   5.196
19788TIP3    H180855   4.749   6.321   5.274
19788TIP3    H280856   4.806   6.194   5.206
19789TIP3   OH280857   4.771   5.869   4.369
19789TIP3    H180858   4.738   5.933   4.434
19789TIP3    H280859   4.839   5.923   4.322
19790TIP3   OH280860   4.475  -0.033   4.078
19790TIP3    H180861   4.481   0.049   4.026
19790TIP3    H280862   4.442  -0.002   4.165
19791TIP3   OH280863   4.337   5.978   4.039
19791TIP3    H180864   4.332   6.068   4.076
19791TIP3    H280865   4.428   5.954   4.064
19792TIP3   OH280866   5.360   6.051   5.283
19792TIP3    H180867   5.266   6.081   5.270
19792TIP3    H280868   5.389   6.051   5.190
19793TIP3   OH280869   5.219   6.430   4.685
19793TIP3    H180870   5.137   6.386   4.656
19793TIP3    H280871   5.266   6.360   4.736
19794TIP3   OH280872   4.160   7.021   3.943
19794TIP3    H180873   4.224   7.087   3.973
19794TIP3    H280874   4.212   6.977   3.873
19795TIP3   OH280875   3.995   6.288   3.857
19795TIP3    H180876   3.994   6.384   3.877
19795TIP3    H280877   3.906   6.269   3.827
19796TIP3   OH280878   4.072   5.768   4.729
19796TIP3    H180879   4.059   5.771   4.632
19796TIP3    H280880   4.037   5.682   4.758
19797TIP3   OH280881   3.977   7.156   4.351
19797TIP3    H180882   3.890   7.201   4.343
19797TIP3    H280883   4.019   7.207   4.280
19798TIP3   OH280884   4.772   7.266   3.780
19798TIP3    H180885   4.703   7.200   3.800
19798TIP3    H280886   4.844   7.211   3.748
19799TIP3   OH280887   5.014   7.141   5.501
19799TIP3    H180888   4.978   7.059   5.539
19799TIP3    H280889   5.084   7.160   5.565
19800TIP3   OH280890   5.236   7.239   3.803
19800TIP3    H180891   5.263   7.158   3.846
19800TIP3    H280892   5.308   7.263   3.741
19801TIP3   OH280893   3.887   6.802   5.571
19801TIP3    H180894   3.901   6.711   5.540
19801TIP3    H280895   3.810   6.830   5.517
19802TIP3   OH280896   4.320   6.838   3.777
19802TIP3    H180897   4.331   6.760   3.833
19802TIP3    H280898   4.393   6.824   3.714
19803TIP3   OH280899   4.557   6.800   5.511
19803TIP3    H180900   4.522   6.830   5.426
19803TIP3    H280901   4.565   6.702   5.503
19804TIP3   OH280902   4.859   6.956   3.757
19804TIP3    H180903   4.831   6.957   3.849
19804TIP3    H280904   4.844   6.857   3.740
19805TIP3   OH280905   5.125   6.788   5.250
19805TIP3    H180906   5.203   6.847   5.242
19805TIP3    H280907   5.053   6.853   5.256
19806TIP3   OH280908   3.975   6.524   5.513
19806TIP3    H180909   4.015   6.438   5.500
19806TIP3    H280910   3.947   6.522   5.605
19807TIP3   OH280911   4.438   6.638   4.017
19807TIP3    H180912   4.390   6.584   4.081
19807TIP3    H280913   4.468   6.569   3.951
19808TIP3   OH280914   4.366   6.420   5.248
19808TIP3    H180915   4.305   6.492   5.274
19808TIP3    H280916   4.403   6.456   5.166
19809TIP3   OH280917   4.539   6.459   3.840
19809TIP3    H180918   4.530   6.448   3.744
19809TIP3    H280919   4.639   6.466   3.842
19810TIP3   OH280920   4.871   6.674   5.579
19810TIP3    H180921   4.967   6.677   5.570
19810TIP3    H280922   4.854   6.601   5.641
19811TIP3   OH280923   5.481   6.692   3.782
19811TIP3    H180924   5.458   6.653   3.696
19811TIP3    H280925   5.488   6.788   3.761
19812TIP3   OH280926   4.403   6.159   5.356
19812TIP3    H180927   4.417   6.087   5.291
19812TIP3    H280928   4.401   6.239   5.299
19813TIP3   OH280929   4.444   5.995   5.108
19813TIP3    H180930   4.496   6.041   5.038
19813TIP3    H280931   4.356   5.987   5.065
19814TIP3   OH280932   4.600   6.542   5.133
19814TIP3    H180933   4.675   6.526   5.074
19814TIP3    H280934   4.565   6.626   5.100
19815TIP3   OH280935   5.171   6.598   5.441
19815TIP3    H180936   5.148   6.672   5.382
19815TIP3    H280937   5.268   6.595   5.428
19816TIP3   OH280938   4.248   6.280   5.550
19816TIP3    H180939   4.174   6.223   5.526
19816TIP3    H280940   4.316   6.247   5.487
19817TIP3   OH280941   4.524   5.739   5.150
19817TIP3    H180942   4.509   5.836   5.138
19817TIP3    H280943   4.449   5.703   5.099
19818TIP3   OH280944   4.651   6.171   5.508
19818TIP3    H180945   4.620   6.150   5.598
19818TIP3    H280946   4.571   6.151   5.456
19819TIP3   OH280947   4.922   6.086   5.416
19819TIP3    H180948   4.826   6.089   5.428
19819TIP3    H280949   4.951   6.023   5.484
19820TIP3   OH280950   5.082   5.948   5.610
19820TIP3    H180951   5.074   5.850   5.612
19820TIP3    H280952   5.055   5.977   5.701
19821TIP3   OH280953   4.064   6.075   5.521
19821TIP3    H180954   4.087   6.003   5.459
19821TIP3    H280955   4.055   6.027   5.603
19822TIP3   OH280956   4.546   5.675   5.418
19822TIP3    H180957   4.614   5.605   5.416
19822TIP3    H280958   4.534   5.695   5.323
19823TIP3   OH280959   4.588   5.845   5.620
19823TIP3    H180960   4.564   5.787   5.544
19823TIP3    H280961   4.518   5.913   5.620
19824TIP3   OH280962   3.888   6.991   3.889
19824TIP3    H180963   3.983   6.997   3.913
19824TIP3    H280964   3.892   6.922   3.819
19825TIP3   OH280965   3.836   7.338   4.577
19825TIP3    H180966   3.806   7.249   4.597
19825TIP3    H280967   3.865   7.373   4.662
19826TIP3   OH280968   5.403   6.951   5.633
19826TIP3    H180969   5.312   6.946   5.670
19826TIP3    H280970   5.434   7.033   5.671
19827TIP3   OH280971   5.531   6.781   4.176
19827TIP3    H180972   5.616   6.824   4.194
19827TIP3    H280973   5.531   6.709   4.243
19828TIP3   OH280974   5.568   6.590   4.363
19828TIP3    H180975   5.494   6.540   4.403
19828TIP3    H280976   5.628   6.606   4.439
19829TIP3   OH280977   5.544   6.863   4.863
19829TIP3    H180978   5.626   6.826   4.826
19829TIP3    H280979   5.558   6.958   4.846
19830TIP3   OH280980   5.395   7.155   5.090
19830TIP3    H180981   5.329   7.186   5.152
19830TIP3    H280982   5.342   7.110   5.021
19831TIP3   OH280983   5.599   6.574   4.003
19831TIP3    H180984   5.543   6.610   3.931
19831TIP3    H280985   5.590   6.645   4.069
19832TIP3   OH280986   5.434   6.298   3.855
19832TIP3    H180987   5.441   6.365   3.786
19832TIP3    H280988   5.416   6.216   3.806
19833TIP3   OH280989   5.349   6.439   4.420
19833TIP3    H180990   5.334   6.343   4.417
19833TIP3    H280991   5.315   6.463   4.507
19834TIP3   OH280992   3.850   6.647   4.825
19834TIP3    H180993   3.869   6.639   4.729
19834TIP3    H280994   3.939   6.631   4.862
19835TIP3   OH280995   5.435   6.635   5.384
19835TIP3    H180996   5.495   6.560   5.405
19835TIP3    H280997   5.494   6.713   5.389
19836TIP3   OH280998   5.586   6.427   5.448
19836TIP3    H180999   5.497   6.386   5.439
19836TIP3    H281000   5.643   6.348   5.446
19837TIP3   OH281001   5.359   6.044   3.768
19837TIP3    H181002   5.418   6.001   3.833
19837TIP3    H281003   5.273   6.001   3.785
19838TIP3   OH281004   5.317   6.197   4.266
19838TIP3    H181005   5.348   6.105   4.279
19838TIP3    H281006   5.396   6.238   4.229
19839TIP3   OH281007   5.380   6.252   4.810
19839TIP3    H181008   5.476   6.276   4.809
19839TIP3    H281009   5.360   6.266   4.904
19840TIP3   OH281010   5.387   6.325   5.088
19840TIP3    H181011   5.299   6.354   5.122
19840TIP3    H281012   5.430   6.411   5.066
19841TIP3   OH281013   3.811   6.177   5.440
19841TIP3    H181014   3.905   6.159   5.459
19841TIP3    H281015   3.766   6.096   5.471
19842TIP3   OH281016   5.611   5.727   5.621
19842TIP3    H181017   5.649   5.661   5.563
19842TIP3    H281018   5.626   5.812   5.575
19843TIP3   OH281019   5.383   5.925   4.271
19843TIP3    H181020   5.403   5.880   4.355
19843TIP3    H281021   5.322   5.863   4.226
19844TIP3   OH281022   3.931   6.004   4.725
19844TIP3    H181023   3.981   5.925   4.755
19844TIP3    H281024   3.983   6.076   4.766
19845TIP3   OH281025   3.761   6.305   4.831
19845TIP3    H181026   3.816   6.283   4.753
19845TIP3    H281027   3.805   6.388   4.858
19846TIP3   OH281028   5.567   5.938   5.460
19846TIP3    H181029   5.474   5.966   5.453
19846TIP3    H281030   5.571   5.885   5.379
19847TIP3   OH281031   5.566   5.930   3.926
19847TIP3    H181032   5.607   5.858   3.874
19847TIP3    H281033   5.636   5.996   3.931
19848TIP3   OH281034   3.798   5.931   4.239
19848TIP3    H181035   3.704   5.951   4.223
19848TIP3    H281036   3.840   5.980   4.167
19849TIP3   OH281037   3.792   5.798   5.066
19849TIP3    H181038   3.726   5.780   5.136
19849TIP3    H281039   3.746   5.868   5.014
19850TIP3   OH281040   4.011   7.122   5.483
19850TIP3    H181041   3.926   7.140   5.439
19850TIP3    H281042   3.987   7.111   5.576
19851TIP3   OH281043   4.308   7.220   5.116
19851TIP3    H181044   4.264   7.298   5.080
19851TIP3    H281045   4.398   7.224   5.078
19852TIP3   OH281046   5.467   5.749   5.242
19852TIP3    H181047   5.384   5.779   5.201
19852TIP3    H281048   5.485   5.668   5.189
19853TIP3   OH281049   4.200   7.268   4.655
19853TIP3    H181050   4.182   7.180   4.692
19853TIP3    H281051   4.277   7.291   4.714
19854TIP3   OH281052   4.417   7.276   4.774
19854TIP3    H181053   4.480   7.218   4.730
19854TIP3    H281054   4.460   7.314   4.851
19855TIP3   OH281055   4.807   5.892   4.672
19855TIP3    H181056   4.739   5.827   4.699
19855TIP3    H281057   4.863   5.840   4.613
19856TIP3   OH281058   5.321   5.698   4.681
19856TIP3    H181059   5.382   5.756   4.630
19856TIP3    H281060   5.233   5.733   4.656
19857TIP3   OH281061   5.489   5.820   4.510
19857TIP3    H181062   5.557   5.764   4.465
19857TIP3    H281063   5.537   5.905   4.518
19858TIP3   OH281064   4.038   5.751   4.463
19858TIP3    H181065   3.967   5.735   4.398
19858TIP3    H281066   4.094   5.671   4.450
19859TIP3   OH281067   3.922   5.731   4.031
19859TIP3    H181068   3.970   5.795   3.975
19859TIP3    H281069   3.862   5.789   4.080
19860TIP3   OH281070   4.493   5.747   4.435
19860TIP3    H181071   4.583   5.784   4.430
19860TIP3    H281072   4.487   5.726   4.528
19861TIP3   OH281073   5.060   5.750   4.599
19861TIP3    H181074   5.059   5.760   4.503
19861TIP3    H281075   5.024   5.658   4.612
19862TIP3   OH281076   5.190   5.753   4.167
19862TIP3    H181077   5.116   5.813   4.149
19862TIP3    H281078   5.145   5.667   4.187
19863TIP3   OH281079   3.894  -0.039   4.163
19863TIP3    H181080   3.853  -0.031   4.074
19863TIP3    H281081   3.919   0.053   4.167
19864TIP3   OH281082   4.105   5.925   3.879
19864TIP3    H181083   4.158   5.863   3.827
19864TIP3    H281084   4.172   5.956   3.944
19865TIP3   OH281085   4.608   5.951   4.121
19865TIP3    H181086   4.632   5.892   4.194
19865TIP3    H281087   4.611   6.037   4.169
19866TIP3   OH281088   4.035   5.810   5.411
19866TIP3    H181089   3.998   5.728   5.446
19866TIP3    H281090   4.128   5.805   5.436
19867TIP3   OH281091   5.074   5.675   5.577
19867TIP3    H181092   5.082   5.632   5.664
19867TIP3    H281093   5.166   5.674   5.543
19868TIP3   OH281094   5.390   7.275   5.453
19868TIP3    H181095   5.315   7.264   5.392
19868TIP3    H281096   5.392   7.371   5.467
19869TIP3   OH281097   6.837   6.667   4.445
19869TIP3    H181098   6.840   6.765   4.438
19869TIP3    H281099   6.766   6.644   4.382
19870TIP3   OH281100   6.725   6.595   4.793
19870TIP3    H181101   6.722   6.529   4.864
19870TIP3    H281102   6.692   6.546   4.716
19871TIP3   OH281103   5.960   6.560   4.949
19871TIP3    H181104   5.968   6.493   5.020
19871TIP3    H281105   6.034   6.619   4.970
19872TIP3   OH281106   7.095   6.888   4.622
19872TIP3    H181107   7.052   6.817   4.670
19872TIP3    H281108   7.099   6.958   4.688
19873TIP3   OH281109   6.055   7.005   4.802
19873TIP3    H181110   6.021   6.920   4.767
19873TIP3    H281111   6.150   6.985   4.806
19874TIP3   OH281112   5.717   6.364   4.346
19874TIP3    H181113   5.672   6.450   4.341
19874TIP3    H281114   5.660   6.309   4.291
19875TIP3   OH281115   5.787   6.585   4.560
19875TIP3    H181116   5.813   6.504   4.607
19875TIP3    H281117   5.859   6.594   4.495
19876TIP3   OH281118   6.561   6.834   4.838
19876TIP3    H181119   6.596   6.771   4.773
19876TIP3    H281120   6.641   6.851   4.892
19877TIP3   OH281121   6.878   6.281   4.869
19877TIP3    H181122   6.895   6.185   4.869
19877TIP3    H281123   6.868   6.296   4.773
19878TIP3   OH281124   6.191   6.090   4.593
19878TIP3    H181125   6.200   6.174   4.546
19878TIP3    H281126   6.150   6.033   4.525
19879TIP3   OH281127   6.965   6.101   4.431
19879TIP3    H181128   7.031   6.067   4.496
19879TIP3    H281129   7.020   6.154   4.373
19880TIP3   OH281130   5.853   6.330   4.667
19880TIP3    H181131   5.921   6.275   4.711
19880TIP3    H281132   5.862   6.300   4.576
19881TIP3   OH281133   6.369   6.486   4.596
19881TIP3    H181134   6.435   6.428   4.639
19881TIP3    H281135   6.316   6.420   4.548
19882TIP3   OH281136   6.080   5.980   4.998
19882TIP3    H181137   6.053   6.036   4.922
19882TIP3    H281138   6.011   6.004   5.065
19883TIP3   OH281139   6.810   6.927   4.353
19883TIP3    H181140   6.783   6.900   4.264
19883TIP3    H281141   6.781   7.020   4.357
19884TIP3   OH281142   6.333   6.744   5.024
19884TIP3    H181143   6.261   6.808   5.041
19884TIP3    H281144   6.403   6.804   4.994
19885TIP3   OH281145   7.129   6.031   4.635
19885TIP3    H181146   7.121   5.951   4.687
19885TIP3    H281147   7.203   6.077   4.680
19886TIP3   OH281148   6.036   6.167   4.798
19886TIP3    H181149   6.099   6.234   4.831
19886TIP3    H281150   6.089   6.123   4.727
19887TIP3   OH281151   6.177   6.943   5.104
19887TIP3    H181152   6.172   7.034   5.068
19887TIP3    H281153   6.087   6.937   5.147
19888TIP3   OH281154   5.785   6.910   4.184
19888TIP3    H181155   5.759   6.938   4.095
19888TIP3    H281156   5.793   6.994   4.233
19889TIP3   OH281157   7.142   7.071   4.866
19889TIP3    H181158   7.045   7.080   4.872
19889TIP3    H281159   7.173   7.160   4.840
19890TIP3   OH281160   7.170   5.908   4.988
19890TIP3    H181161   7.097   5.972   4.989
19890TIP3    H281162   7.241   5.953   4.942
19891TIP3   OH281163   6.477   5.713   4.744
19891TIP3    H181164   6.464   5.616   4.737
19891TIP3    H281165   6.389   5.744   4.773
19892TIP3   OH281166   6.974   7.233   4.510
19892TIP3    H181167   7.024   7.168   4.458
19892TIP3    H281168   7.010   7.317   4.478
19893TIP3   OH281169   7.093   7.041   4.368
19893TIP3    H181170   7.064   6.972   4.308
19893TIP3    H281171   7.097   6.994   4.453
19894TIP3   OH281172   7.228   6.914   5.210
19894TIP3    H181173   7.264   6.844   5.150
19894TIP3    H281174   7.275   6.992   5.173
19895TIP3   OH281175   6.704   6.593   4.195
19895TIP3    H181176   6.634   6.650   4.157
19895TIP3    H281177   6.775   6.601   4.128
19896TIP3   OH281178   6.711   6.446   3.897
19896TIP3    H181179   6.782   6.445   3.962
19896TIP3    H281180   6.743   6.378   3.837
19897TIP3   OH281181   7.047   6.615   4.286
19897TIP3    H181182   6.974   6.639   4.347
19897TIP3    H281183   7.094   6.546   4.339
19898TIP3   OH281184   7.038   6.429   5.197
19898TIP3    H181185   7.040   6.509   5.252
19898TIP3    H281186   6.977   6.461   5.128
19899TIP3   OH281187   6.210   6.680   4.478
19899TIP3    H181188   6.178   6.640   4.394
19899TIP3    H281189   6.271   6.610   4.512
19900TIP3   OH281190   6.344   7.019   4.746
19900TIP3    H181191   6.341   6.964   4.668
19900TIP3    H281192   6.421   6.983   4.794
19901TIP3   OH281193   6.244   6.554   4.843
19901TIP3    H181194   6.301   6.566   4.764
19901TIP3    H281195   6.281   6.620   4.906
19902TIP3   OH281196   6.880   7.110   4.914
19902TIP3    H181197   6.853   7.173   4.980
19902TIP3    H281198   6.858   7.024   4.957
19903TIP3   OH281199   6.338   6.998   5.315
19903TIP3    H181200   6.298   7.074   5.362
19903TIP3    H281201   6.271   6.978   5.245
19904TIP3   OH281202   6.936   6.531   4.054
19904TIP3    H181203   6.991   6.550   4.133
19904TIP3    H281204   6.977   6.582   3.981
19905TIP3   OH281205   6.031   6.613   5.232
19905TIP3    H181206   6.036   6.680   5.303
19905TIP3    H281207   5.938   6.624   5.207
19906TIP3   OH281208   6.706   7.204   4.402
19906TIP3    H181209   6.755   7.236   4.478
19906TIP3    H281210   6.652   7.279   4.376
19907TIP3   OH281211   6.160   7.203   5.388
19907TIP3    H181212   6.158   7.188   5.292
19907TIP3    H281213   6.067   7.189   5.414
19908TIP3   OH281214   7.283   5.701   4.028
19908TIP3    H181215   7.199   5.725   4.071
19908TIP3    H281216   7.320   5.784   3.998
19909TIP3   OH281217   6.108   6.583   4.240
19909TIP3    H181218   6.079   6.661   4.188
19909TIP3    H281219   6.042   6.517   4.218
19910TIP3   OH281220   5.717   6.824   5.126
19910TIP3    H181221   5.670   6.816   5.041
19910TIP3    H281222   5.722   6.730   5.150
19911TIP3   OH281223   5.695   7.101   4.805
19911TIP3    H181224   5.790   7.087   4.805
19911TIP3    H281225   5.685   7.179   4.862
19912TIP3   OH281226   6.610   7.126   5.259
19912TIP3    H181227   6.621   7.204   5.313
19912TIP3    H281228   6.525   7.087   5.289
19913TIP3   OH281229   7.207   6.327   5.426
19913TIP3    H181230   7.182   6.363   5.342
19913TIP3    H281231   7.236   6.236   5.399
19914TIP3   OH281232   5.944   6.957   5.225
19914TIP3    H181233   5.966   6.919   5.312
19914TIP3    H281234   5.859   6.916   5.201
19915TIP3   OH281235   6.211   5.802   4.820
19915TIP3    H181236   6.121   5.792   4.782
19915TIP3    H281237   6.200   5.887   4.866
19916TIP3   OH281238   6.675   5.771   5.156
19916TIP3    H181239   6.715   5.730   5.235
19916TIP3    H281240   6.578   5.757   5.170
19917TIP3   OH281241   7.005   6.152   5.244
19917TIP3    H181242   6.951   6.135   5.324
19917TIP3    H281243   6.988   6.245   5.222
19918TIP3   OH281244   7.081   6.633   3.828
19918TIP3    H181245   7.083   6.614   3.732
19918TIP3    H281246   7.164   6.679   3.838
19919TIP3   OH281247   6.641   6.026   3.884
19919TIP3    H181248   6.611   6.024   3.978
19919TIP3    H281249   6.609   5.938   3.858
19920TIP3   OH281250   6.221   6.299   4.940
19920TIP3    H181251   6.149   6.297   5.006
19920TIP3    H281252   6.218   6.392   4.907
19921TIP3   OH281253   6.217   6.315   4.428
19921TIP3    H181254   6.125   6.287   4.416
19921TIP3    H281255   6.257   6.283   4.345
19922TIP3   OH281256   6.771   6.362   4.308
19922TIP3    H181257   6.730   6.444   4.272
19922TIP3    H281258   6.841   6.346   4.242
19923TIP3   OH281259   6.677   6.384   5.452
19923TIP3    H181260   6.624   6.307   5.483
19923TIP3    H281261   6.760   6.370   5.502
19924TIP3   OH281262   6.873   6.311   4.591
19924TIP3    H181263   6.848   6.367   4.516
19924TIP3    H281264   6.884   6.226   4.545
19925TIP3   OH281265   5.986   6.327   5.114
19925TIP3    H181266   5.990   6.368   5.202
19925TIP3    H281267   5.940   6.244   5.132
19926TIP3   OH281268   6.325   6.066   3.797
19926TIP3    H181269   6.280   6.023   3.873
19926TIP3    H281270   6.252   6.106   3.748
19927TIP3   OH281271   5.650   6.039   4.508
19927TIP3    H181272   5.717   6.035   4.579
19927TIP3    H281273   5.696   5.999   4.431
19928TIP3   OH281274   5.778   6.110   4.046
19928TIP3    H181275   5.827   6.172   3.989
19928TIP3    H281276   5.708   6.171   4.079
19929TIP3   OH281277   6.795   6.470   5.049
19929TIP3    H181278   6.831   6.403   4.988
19929TIP3    H281279   6.749   6.417   5.116
19930TIP3   OH281280   6.473   6.066   4.531
19930TIP3    H181281   6.380   6.068   4.561
19930TIP3    H281282   6.523   6.053   4.613
19931TIP3   OH281283   5.956   6.224   4.417
19931TIP3    H181284   5.866   6.237   4.379
19931TIP3    H281285   5.984   6.140   4.378
19932TIP3   OH281286   6.320   6.226   4.179
19932TIP3    H181287   6.415   6.238   4.197
19932TIP3    H281288   6.297   6.295   4.114
19933TIP3   OH281289   6.913   5.988   4.855
19933TIP3    H181290   6.845   5.997   4.925
19933TIP3    H281291   6.862   5.969   4.775
19934TIP3   OH281292   6.189   6.345   3.939
19934TIP3    H181293   6.136   6.307   3.867
19934TIP3    H281294   6.272   6.365   3.892
19935TIP3   OH281295   6.004   6.801   5.444
19935TIP3    H181296   6.074   6.827   5.506
19935TIP3    H281297   5.925   6.815   5.501
19936TIP3   OH281298   6.603   6.343   4.720
19936TIP3    H181299   6.663   6.288   4.667
19936TIP3    H281300   6.589   6.289   4.799
19937TIP3   OH281301   6.104   5.957   4.364
19937TIP3    H181302   6.073   5.865   4.361
19937TIP3    H281303   6.183   5.953   4.308
19938TIP3   OH281304   6.467   6.177   4.961
19938TIP3    H181305   6.384   6.227   4.971
19938TIP3    H281306   6.521   6.210   5.035
19939TIP3   OH281307   6.525   6.799   4.131
19939TIP3    H181308   6.445   6.752   4.097
19939TIP3    H281309   6.504   6.809   4.226
19940TIP3   OH281310   7.231   6.720   5.012
19940TIP3    H181311   7.295   6.749   4.944
19940TIP3    H281312   7.149   6.723   4.959
19941TIP3   OH281313   6.909   6.080   3.947
19941TIP3    H181314   6.813   6.095   3.937
19941TIP3    H281315   6.939   6.166   3.983
19942TIP3   OH281316   6.673   6.824   5.254
19942TIP3    H181317   6.641   6.782   5.334
19942TIP3    H281318   6.653   6.917   5.265
19943TIP3   OH281319   6.981   6.271   4.110
19943TIP3    H181320   7.069   6.258   4.151
19943TIP3    H281321   6.989   6.354   4.061
19944TIP3   OH281322   6.036   6.736   4.711
19944TIP3    H181323   6.106   6.730   4.643
19944TIP3    H281324   6.042   6.650   4.756
19945TIP3   OH281325   6.736   6.946   4.036
19945TIP3    H181326   6.703   7.030   4.070
19945TIP3    H281327   6.661   6.886   4.055
19946TIP3   OH281328   5.735   6.579   5.238
19946TIP3    H181329   5.754   6.534   5.323
19946TIP3    H281330   5.673   6.516   5.195
19947TIP3   OH281331   6.435   6.532   5.456
19947TIP3    H181332   6.405   6.507   5.367
19947TIP3    H281333   6.529   6.505   5.455
19948TIP3   OH281334   6.903   7.071   5.247
19948TIP3    H181335   6.809   7.084   5.226
19948TIP3    H281336   6.899   7.094   5.343
19949TIP3   OH281337   7.283   7.157   4.130
19949TIP3    H181338   7.261   7.073   4.166
19949TIP3    H281339   7.328   7.147   4.046
19950TIP3   OH281340   7.016   6.649   4.840
19950TIP3    H181341   6.922   6.626   4.828
19950TIP3    H281342   7.063   6.573   4.798
19951TIP3   OH281343   6.275   7.081   4.446
19951TIP3    H181344   6.322   7.162   4.427
19951TIP3    H281345   6.185   7.105   4.418
19952TIP3   OH281346   5.849   6.567   3.906
19952TIP3    H181347   5.909   6.633   3.946
19952TIP3    H281348   5.761   6.600   3.933
19953TIP3   OH281349   6.417   6.849   4.402
19953TIP3    H181350   6.387   6.942   4.411
19953TIP3    H281351   6.342   6.803   4.446
19954TIP3   OH281352   6.475   7.247   5.022
19954TIP3    H181353   6.501   7.340   5.012
19954TIP3    H281354   6.520   7.230   5.107
19955TIP3   OH281355   6.253  -0.004   4.328
19955TIP3    H181356   6.169   0.015   4.367
19955TIP3    H281357   6.302   0.069   4.373
19956TIP3   OH281358   6.818   6.870   5.007
19956TIP3    H181359   6.778   6.848   5.093
19956TIP3    H281360   6.877   6.796   4.988
19957TIP3   OH281361   7.047   6.970   3.913
19957TIP3    H181362   7.074   6.928   3.997
19957TIP3    H281363   6.950   6.959   3.922
19958TIP3   OH281364   7.091   7.323   5.254
19958TIP3    H181365   7.023   7.276   5.206
19958TIP3    H281366   7.110   7.398   5.194
19959TIP3   OH281367   5.900   6.052   5.193
19959TIP3    H181368   5.809   6.087   5.189
19959TIP3    H281369   5.888   5.967   5.237
19960TIP3   OH281370   7.124   6.833   4.136
19960TIP3    H181371   7.099   6.757   4.195
19960TIP3    H281372   7.218   6.845   4.158
19961TIP3   OH281373   5.862   7.229   5.037
19961TIP3    H181374   5.889   7.137   5.037
19961TIP3    H281375   5.885   7.261   5.125
19962TIP3   OH281376   6.495   7.068   3.786
19962TIP3    H181377   6.468   7.013   3.710
19962TIP3    H281378   6.419   7.042   3.842
19963TIP3   OH281379   6.337   7.033   4.007
19963TIP3    H181380   6.361   6.983   4.086
19963TIP3    H281381   6.346   7.127   4.035
19964TIP3   OH281382   5.990   6.758   4.058
19964TIP3    H181383   5.919   6.798   4.112
19964TIP3    H281384   6.041   6.837   4.027
19965TIP3   OH281385   6.772   6.028   5.086
19965TIP3    H181386   6.844   6.034   5.150
19965TIP3    H281387   6.734   5.940   5.105
19966TIP3   OH281388   6.850   5.986   4.194
19966TIP3    H181389   6.873   6.035   4.113
19966TIP3    H281390   6.906   6.030   4.260
19967TIP3   OH281391   6.619   7.205   4.081
19967TIP3    H181392   6.534   7.252   4.083
19967TIP3    H281393   6.667   7.253   4.013
19968TIP3   OH281394   6.571   6.163   4.278
19968TIP3    H181395   6.650   6.219   4.283
19968TIP3    H281396   6.545   6.149   4.371
19969TIP3   OH281397   6.627   6.264   5.193
19969TIP3    H181398   6.635   6.321   5.273
19969TIP3    H281399   6.692   6.194   5.207
19970TIP3   OH281400   6.654   5.869   4.368
19970TIP3    H181401   6.625   5.933   4.434
19970TIP3    H281402   6.724   5.922   4.323
19971TIP3   OH281403   6.361  -0.032   4.079
19971TIP3    H181404   6.367   0.049   4.026
19971TIP3    H281405   6.328  -0.002   4.166
19972TIP3   OH281406   6.222   5.977   4.038
19972TIP3    H181407   6.217   6.068   4.076
19972TIP3    H281408   6.313   5.953   4.064
19973TIP3   OH281409   7.242   6.047   5.275
19973TIP3    H181410   7.150   6.081   5.269
19973TIP3    H281411   7.275   6.054   5.186
19974TIP3   OH281412   7.106   6.430   4.688
19974TIP3    H181413   7.024   6.387   4.656
19974TIP3    H281414   7.147   6.357   4.737
19975TIP3   OH281415   6.045   7.020   3.944
19975TIP3    H181416   6.110   7.087   3.971
19975TIP3    H281417   6.098   6.978   3.871
19976TIP3   OH281418   5.880   6.288   3.857
19976TIP3    H181419   5.880   6.384   3.877
19976TIP3    H281420   5.791   6.269   3.827
19977TIP3   OH281421   5.962   5.768   4.729
19977TIP3    H181422   5.940   5.770   4.633
19977TIP3    H281423   5.919   5.684   4.756
19978TIP3   OH281424   5.862   7.156   4.351
19978TIP3    H181425   5.775   7.201   4.343
19978TIP3    H281426   5.905   7.207   4.280
19979TIP3   OH281427   6.257   7.289   5.647
19979TIP3    H181428   6.344   7.259   5.671
19979TIP3    H281429   6.253   7.279   5.550
19980TIP3   OH281430   6.660   7.267   3.781
19980TIP3    H181431   6.590   7.200   3.799
19980TIP3    H281432   6.730   7.209   3.748
19981TIP3   OH281433   6.903   7.136   5.499
19981TIP3    H181434   6.863   7.059   5.541
19981TIP3    H281435   6.967   7.165   5.566
19982TIP3   OH281436   7.124   7.242   3.803
19982TIP3    H181437   7.146   7.158   3.845
19982TIP3    H281438   7.194   7.261   3.739
19983TIP3   OH281439   5.772   6.803   5.571
19983TIP3    H181440   5.786   6.711   5.541
19983TIP3    H281441   5.695   6.831   5.517
19984TIP3   OH281442   6.198   6.819   3.785
19984TIP3    H181443   6.223   6.748   3.840
19984TIP3    H281444   6.272   6.829   3.719
19985TIP3   OH281445   6.443   6.799   5.512
19985TIP3    H181446   6.407   6.829   5.426
19985TIP3    H281447   6.451   6.701   5.502
19986TIP3   OH281448   6.753   6.943   3.756
19986TIP3    H181449   6.715   6.959   3.844
19986TIP3    H281450   6.724   6.850   3.741
19987TIP3   OH281451   7.011   6.786   5.254
19987TIP3    H181452   7.084   6.848   5.235
19987TIP3    H281453   6.938   6.850   5.255
19988TIP3   OH281454   5.858   6.525   5.512
19988TIP3    H181455   5.899   6.439   5.500
19988TIP3    H281456   5.834   6.524   5.606
19989TIP3   OH281457   6.324   6.637   4.017
19989TIP3    H181458   6.275   6.584   4.082
19989TIP3    H281459   6.352   6.570   3.950
19990TIP3   OH281460   6.252   6.420   5.249
19990TIP3    H181461   6.191   6.491   5.275
19990TIP3    H281462   6.289   6.456   5.166
19991TIP3   OH281463   6.431   6.460   3.839
19991TIP3    H181464   6.413   6.450   3.744
19991TIP3    H281465   6.528   6.467   3.844
19992TIP3   OH281466   6.754   6.676   5.582
19992TIP3    H181467   6.850   6.676   5.571
19992TIP3    H281468   6.741   6.599   5.638
19993TIP3   OH281469   6.291   6.157   5.355
19993TIP3    H181470   6.302   6.086   5.290
19993TIP3    H281471   6.286   6.238   5.299
19994TIP3   OH281472   6.330   5.995   5.109
19994TIP3    H181473   6.382   6.041   5.039
19994TIP3    H281474   6.242   5.986   5.067
19995TIP3   OH281475   6.485   6.542   5.132
19995TIP3    H181476   6.561   6.526   5.074
19995TIP3    H281477   6.450   6.627   5.100
19996TIP3   OH281478   6.927   6.321   5.626
19996TIP3    H181479   6.948   6.227   5.622
19996TIP3    H281480   7.014   6.363   5.631
19997TIP3   OH281481   7.056   6.600   5.440
19997TIP3    H181482   7.032   6.672   5.380
19997TIP3    H281483   7.152   6.593   5.425
19998TIP3   OH281484   6.134   6.283   5.547
19998TIP3    H181485   6.059   6.223   5.529
19998TIP3    H281486   6.201   6.246   5.486
19999TIP3   OH281487   6.409   5.739   5.149
19999TIP3    H181488   6.394   5.836   5.137
19999TIP3    H281489   6.334   5.703   5.099
20000TIP3   OH281490   6.537   6.171   5.509
20000TIP3    H181491   6.509   6.150   5.599
20000TIP3    H281492   6.457   6.152   5.456
20001TIP3   OH281493   6.806   6.084   5.414
20001TIP3    H181494   6.711   6.091   5.430
20001TIP3    H281495   6.838   6.024   5.483
20002TIP3   OH281496   6.970   5.950   5.609
20002TIP3    H181497   6.961   5.853   5.613
20002TIP3    H281498   6.942   5.978   5.699
20003TIP3   OH281499   5.948   6.074   5.519
20003TIP3    H181500   5.972   6.001   5.458
20003TIP3    H281501   5.940   6.030   5.605
20004TIP3   OH281502   6.431   5.673   5.418
20004TIP3    H181503   6.502   5.607   5.415
20004TIP3    H281504   6.421   5.696   5.324
20005TIP3   OH281505   5.774   6.991   3.889
20005TIP3    H181506   5.869   6.997   3.912
20005TIP3    H281507   5.779   6.923   3.819
20006TIP3   OH281508   5.722   7.338   4.577
20006TIP3    H181509   5.692   7.249   4.597
20006TIP3    H281510   5.750   7.373   4.662
20007TIP3   OH281511   7.277   6.962   5.623
20007TIP3    H181512   7.198   6.948   5.678
20007TIP3    H281513   7.322   7.029   5.679
20008TIP3   OH281514   7.280   7.148   5.096
20008TIP3    H181515   7.213   7.190   5.152
20008TIP3    H281516   7.229   7.111   5.021
20009TIP3   OH281517   7.309   6.299   3.858
20009TIP3    H181518   7.326   6.363   3.788
20009TIP3    H281519   7.300   6.216   3.807
20010TIP3   OH281520   7.204   6.445   4.421
20010TIP3    H181521   7.217   6.349   4.424
20010TIP3    H281522   7.197   6.466   4.515
20011TIP3   OH281523   5.736   6.648   4.825
20011TIP3    H181524   5.755   6.639   4.729
20011TIP3    H281525   5.825   6.631   4.862
20012TIP3   OH281526  -0.030   6.645   5.416
20012TIP3    H181527   0.023   6.562   5.412
20012TIP3    H281528   0.038   6.704   5.383
20013TIP3   OH281529   7.245   6.044   3.769
20013TIP3    H181530   7.302   6.000   3.832
20013TIP3    H281531   7.160   6.001   3.786
20014TIP3   OH281532   7.201   6.195   4.257
20014TIP3    H181533   7.230   6.106   4.285
20014TIP3    H281534   7.281   6.234   4.224
20015TIP3   OH281535   7.228   6.204   4.801
20015TIP3    H181536   7.323   6.220   4.790
20015TIP3    H281537   7.231   6.253   4.886
20016TIP3   OH281538   7.270   6.325   5.096
20016TIP3    H181539   7.182   6.356   5.123
20016TIP3    H281540   7.312   6.405   5.061
20017TIP3   OH281541   5.696   6.177   5.438
20017TIP3    H181542   5.790   6.159   5.460
20017TIP3    H281543   5.651   6.097   5.472
20018TIP3   OH281544   7.191   5.907   4.322
20018TIP3    H181545   7.279   5.879   4.355
20018TIP3    H281546   7.196   5.858   4.236
20019TIP3   OH281547   5.817   6.006   4.726
20019TIP3    H181548   5.864   5.925   4.753
20019TIP3    H281549   5.870   6.076   4.766
20020TIP3   OH281550   5.646   6.305   4.831
20020TIP3    H181551   5.702   6.282   4.753
20020TIP3    H281552   5.690   6.387   4.858
20021TIP3   OH281553   5.683   5.933   4.238
20021TIP3    H181554   5.589   5.951   4.223
20021TIP3    H281555   5.726   5.981   4.166
20022TIP3   OH281556   5.678   5.800   5.069
20022TIP3    H181557   5.610   5.779   5.135
20022TIP3    H281558   5.632   5.867   5.013
20023TIP3   OH281559   5.898   7.123   5.484
20023TIP3    H181560   5.813   7.138   5.439
20023TIP3    H281561   5.872   7.112   5.576
20024TIP3   OH281562   6.194   7.219   5.116
20024TIP3    H181563   6.150   7.297   5.081
20024TIP3    H281564   6.283   7.224   5.077
20025TIP3   OH281565   6.085   7.268   4.655
20025TIP3    H181566   6.068   7.180   4.692
20025TIP3    H281567   6.163   7.291   4.714
20026TIP3   OH281568   6.303   7.276   4.774
20026TIP3    H181569   6.366   7.218   4.730
20026TIP3    H281570   6.346   7.314   4.851
20027TIP3   OH281571   6.693   5.892   4.672
20027TIP3    H181572   6.625   5.827   4.699
20027TIP3    H281573   6.749   5.840   4.613
20028TIP3   OH281574   7.208   5.698   4.682
20028TIP3    H181575   7.264   5.759   4.634
20028TIP3    H281576   7.119   5.732   4.659
20029TIP3   OH281577   5.929   5.755   4.456
20029TIP3    H181578   5.849   5.733   4.404
20029TIP3    H281579   5.977   5.670   4.452
20030TIP3   OH281580   5.808   5.731   4.031
20030TIP3    H181581   5.855   5.796   3.975
20030TIP3    H281582   5.748   5.788   4.083
20031TIP3   OH281583   6.379   5.747   4.435
20031TIP3    H181584   6.469   5.784   4.430
20031TIP3    H281585   6.372   5.726   4.528
20032TIP3   OH281586   6.948   5.748   4.598
20032TIP3    H181587   6.945   5.760   4.503
20032TIP3    H281588   6.910   5.658   4.611
20033TIP3   OH281589   7.070   5.748   4.162
20033TIP3    H181590   7.000   5.814   4.152
20033TIP3    H281591   7.026   5.665   4.189
20034TIP3   OH281592   5.779  -0.039   4.163
20034TIP3    H181593   5.739  -0.031   4.074
20034TIP3    H281594   5.805   0.053   4.167
20035TIP3   OH281595   5.991   5.925   3.879
20035TIP3    H181596   6.044   5.863   3.827
20035TIP3    H281597   6.057   5.956   3.944
20036TIP3   OH281598   6.494   5.951   4.121
20036TIP3    H181599   6.517   5.891   4.194
20036TIP3    H281600   6.497   6.037   4.169
20037TIP3   OH281601   5.921   5.807   5.407
20037TIP3    H181602   5.883   5.729   5.449
20037TIP3    H281603   6.013   5.806   5.436
20038TIP3   OH281604   6.961   5.679   5.578
20038TIP3    H181605   6.972   5.631   5.663
20038TIP3    H281606   7.052   5.673   5.545
20039TIP3   OH281607   7.277   7.277   5.453
20039TIP3    H181608   7.201   7.266   5.393
20039TIP3    H281609   7.274   7.373   5.463
20040TIP3   OH281610   1.419   0.983   5.707
20040TIP3    H181611   1.428   0.958   5.613
20040TIP3    H281612   1.507   1.013   5.730
20041TIP3   OH281613   0.671   0.412   5.689
20041TIP3    H181614   0.625   0.364   5.759
20041TIP3    H281615   0.601   0.445   5.631
20042TIP3   OH281616   0.327   1.103   5.934
20042TIP3    H181617   0.266   1.136   6.000
20042TIP3    H281618   0.386   1.178   5.917
20043TIP3   OH281619   0.541   1.174   5.657
20043TIP3    H181620   0.560   1.105   5.723
20043TIP3    H281621   0.621   1.168   5.601
20044TIP3   OH281622   1.085   1.285   5.635
20044TIP3    H181623   1.067   1.299   5.728
20044TIP3    H281624   1.068   1.189   5.628
20045TIP3   OH281625   0.121   1.337   5.778
20045TIP3    H181626   0.215   1.341   5.803
20045TIP3    H281627   0.123   1.267   5.710
20046TIP3   OH281628   1.664   0.642   5.739
20046TIP3    H181629   1.669   0.713   5.675
20046TIP3    H281630   1.642   0.564   5.691
20047TIP3   OH281631   0.198   0.025   5.875
20047TIP3    H181632   0.213   0.118   5.848
20047TIP3    H281633   0.137   0.071   5.942
20048TIP3   OH281634   0.322   1.765   5.711
20048TIP3    H181635   0.295   1.789   5.799
20048TIP3    H281636   0.400   1.709   5.725
20049TIP3   OH281637   3.196   1.763   5.830
20049TIP3    H181638   3.231   1.687   5.781
20049TIP3    H281639   3.191   1.735   5.922
20050TIP3   OH281640   3.718   1.754   5.817
20050TIP3    H181641   3.791   1.816   5.807
20050TIP3    H281642   3.649   1.813   5.855
20051TIP3   OH281643   2.679   1.423   5.643
20051TIP3    H181644   2.700   1.345   5.590
20051TIP3    H281645   2.653   1.379   5.726
20052TIP3   OH281646   2.884   1.609   5.656
20052TIP3    H181647   2.817   1.546   5.691
20052TIP3    H281648   2.958   1.552   5.636
20053TIP3   OH281649   3.341   1.586   5.680
20053TIP3    H181650   3.375   1.510   5.726
20053TIP3    H281651   3.417   1.612   5.623
20054TIP3   OH281652   2.661   0.802   5.725
20054TIP3    H181653   2.639   0.789   5.631
20054TIP3    H281654   2.756   0.809   5.726
20055TIP3   OH281655   3.679   0.272   5.806
20055TIP3    H181656   3.723   0.203   5.760
20055TIP3    H281657   3.746   0.341   5.817
20056TIP3   OH281658   2.224   0.269   5.760
20056TIP3    H181659   2.275   0.206   5.710
20056TIP3    H281660   2.282   0.299   5.830
20057TIP3   OH281661   5.050   0.875   5.944
20057TIP3    H181662   5.108   0.888   6.020
20057TIP3    H281663   5.089   0.922   5.871
20058TIP3   OH281664   5.374   0.041   5.822
20058TIP3    H181665   5.335   0.037   5.917
20058TIP3    H281666   5.453   0.085   5.854
20059TIP3   OH281667   5.075   1.759   5.828
20059TIP3    H181668   5.119   1.686   5.783
20059TIP3    H281669   5.080   1.734   5.922
20060TIP3   OH281670   4.441   0.413   5.684
20060TIP3    H181671   4.399   0.365   5.758
20060TIP3    H281672   4.367   0.448   5.634
20061TIP3   OH281673   3.890   0.459   5.928
20061TIP3    H181674   3.942   0.517   5.874
20061TIP3    H281675   3.819   0.509   5.968
20062TIP3   OH281676   4.575   1.422   5.645
20062TIP3    H181677   4.583   1.344   5.590
20062TIP3    H281678   4.532   1.381   5.725
20063TIP3   OH281679   4.470   1.380   5.890
20063TIP3    H181680   4.466   1.324   5.969
20063TIP3    H281681   4.451   1.467   5.925
20064TIP3   OH281682   4.771   1.609   5.661
20064TIP3    H181683   4.700   1.546   5.685
20064TIP3    H281684   4.844   1.552   5.633
20065TIP3   OH281685   4.860   1.287   5.641
20065TIP3    H181686   4.829   1.299   5.731
20065TIP3    H281687   4.837   1.193   5.627
20066TIP3   OH281688   4.546   0.797   5.725
20066TIP3    H181689   4.527   0.791   5.630
20066TIP3    H281690   4.640   0.812   5.729
20067TIP3   OH281691   5.356   0.385   5.655
20067TIP3    H181692   5.419   0.348   5.720
20067TIP3    H281693   5.273   0.341   5.676
20068TIP3   OH281694   5.569   0.277   5.805
20068TIP3    H181695   5.610   0.202   5.756
20068TIP3    H281696   5.638   0.342   5.813
20069TIP3   OH281697   7.267   0.053   5.823
20069TIP3    H181698   7.229   0.040   5.917
20069TIP3    H281699   7.335   0.117   5.856
20070TIP3   OH281700   6.324   0.408   5.680
20070TIP3    H181701   6.286   0.369   5.759
20070TIP3    H281702   6.252   0.451   5.634
20071TIP3   OH281703   5.843   0.911   5.793
20071TIP3    H181704   5.911   0.970   5.831
20071TIP3    H281705   5.760   0.947   5.822
20072TIP3   OH281706   6.457   1.424   5.649
20072TIP3    H181707   6.467   1.348   5.590
20072TIP3    H281708   6.419   1.380   5.726
20073TIP3   OH281709   6.613   1.542   5.962
20073TIP3    H181710   6.538   1.602   5.971
20073TIP3    H281711   6.669   1.600   5.907
20074TIP3   OH281712   5.879   0.632   5.747
20074TIP3    H181713   5.881   0.729   5.761
20074TIP3    H281714   5.791   0.611   5.716
20075TIP3   OH281715   6.655   1.609   5.658
20075TIP3    H181716   6.588   1.544   5.689
20075TIP3    H281717   6.732   1.556   5.635
20076TIP3   OH281718   7.110   1.582   5.676
20076TIP3    H181719   7.146   1.513   5.731
20076TIP3    H281720   7.189   1.613   5.627
20077TIP3   OH281721   6.212   1.185   5.668
20077TIP3    H181722   6.210   1.101   5.719
20077TIP3    H281723   6.277   1.166   5.600
20078TIP3   OH281724   6.429   0.806   5.723
20078TIP3    H181725   6.413   0.787   5.630
20078TIP3    H281726   6.525   0.806   5.729
20079TIP3   OH281727   7.277   0.648   5.731
20079TIP3    H181728   7.321   0.706   5.670
20079TIP3    H281729   7.290   0.558   5.693
20080TIP3   OH281730   7.259   0.388   5.704
20080TIP3    H181731   7.317   0.320   5.732
20080TIP3    H281732   7.175   0.347   5.670
20081TIP3   OH281733   5.993   0.271   5.766
20081TIP3    H181734   6.043   0.208   5.710
20081TIP3    H281735   6.059   0.299   5.830
20082TIP3   OH281736   6.688   1.785   5.852
20082TIP3    H181737   6.769   1.832   5.828
20082TIP3    H281738   6.661   1.751   5.766
20083TIP3   OH281739   5.980   1.767   5.711
20083TIP3    H181740   5.954   1.792   5.799
20083TIP3    H281741   6.058   1.709   5.724
20084TIP3   OH281742   1.056   2.673   5.779
20084TIP3    H181743   1.122   2.673   5.850
20084TIP3    H281744   1.087   2.605   5.719
20085TIP3   OH281745   1.279   2.757   5.944
20085TIP3    H181746   1.336   2.777   6.019
20085TIP3    H281747   1.318   2.809   5.872
20086TIP3   OH281748   0.671   2.291   5.683
20086TIP3    H181749   0.627   2.253   5.760
20086TIP3    H281750   0.602   2.333   5.631
20087TIP3   OH281751   1.834   3.645   5.819
20087TIP3    H181752   1.909   3.703   5.808
20087TIP3    H281753   1.765   3.700   5.857
20088TIP3   OH281754   0.781   3.319   5.639
20088TIP3    H181755   0.810   3.243   5.588
20088TIP3    H281756   0.759   3.276   5.726
20089TIP3   OH281757   0.693   3.273   5.887
20089TIP3    H181758   0.696   3.213   5.965
20089TIP3    H281759   0.683   3.359   5.926
20090TIP3   OH281760   0.561   3.069   5.670
20090TIP3    H181761   0.556   2.986   5.720
20090TIP3    H281762   0.613   3.049   5.594
20091TIP3   OH281763   1.827   2.805   5.886
20091TIP3    H181764   1.772   2.841   5.817
20091TIP3    H281765   1.823   2.871   5.957
20092TIP3   OH281766   1.657   2.532   5.734
20092TIP3    H181767   1.675   2.597   5.667
20092TIP3    H281768   1.649   2.444   5.691
20093TIP3   OH281769   1.587   2.274   5.659
20093TIP3    H181770   1.649   2.228   5.716
20093TIP3    H281771   1.505   2.224   5.671
20094TIP3   OH281772   3.531   1.935   5.921
20094TIP3    H181773   3.442   1.949   5.956
20094TIP3    H281774   3.556   2.022   5.885
20095TIP3   OH281775   2.557   2.302   5.688
20095TIP3    H181776   2.512   2.250   5.757
20095TIP3    H281777   2.484   2.332   5.631
20096TIP3   OH281778   3.719   3.640   5.814
20096TIP3    H181779   3.796   3.701   5.809
20096TIP3    H281780   3.653   3.697   5.854
20097TIP3   OH281781   2.689   3.310   5.646
20097TIP3    H181782   2.698   3.232   5.588
20097TIP3    H281783   2.646   3.270   5.725
20098TIP3   OH281784   2.583   3.264   5.890
20098TIP3    H181785   2.582   3.211   5.971
20098TIP3    H281786   2.566   3.353   5.923
20099TIP3   OH281787   2.451   2.209   5.923
20099TIP3    H181788   2.445   2.297   5.962
20099TIP3    H281789   2.540   2.178   5.948
20100TIP3   OH281790   2.281   3.246   5.834
20100TIP3    H181791   2.338   3.320   5.857
20100TIP3    H281792   2.327   3.208   5.759
20101TIP3   OH281793   3.337   3.470   5.676
20101TIP3    H181794   3.375   3.399   5.729
20101TIP3    H281795   3.417   3.497   5.625
20102TIP3   OH281796   2.433   3.064   5.663
20102TIP3    H181797   2.446   2.991   5.723
20102TIP3    H281798   2.507   3.055   5.600
20103TIP3   OH281799   2.978   3.177   5.640
20103TIP3    H181800   2.944   3.187   5.727
20103TIP3    H281801   2.954   3.084   5.625
20104TIP3   OH281802   2.006   3.212   5.778
20104TIP3    H181803   2.100   3.230   5.797
20104TIP3    H281804   2.006   3.153   5.702
20105TIP3   OH281805   3.550   2.530   5.743
20105TIP3    H181806   3.555   2.593   5.671
20105TIP3    H281807   3.532   2.447   5.695
20106TIP3   OH281808   3.471   2.272   5.657
20106TIP3    H181809   3.532   2.230   5.719
20106TIP3    H281810   3.387   2.227   5.672
20107TIP3   OH281811   3.680   2.157   5.810
20107TIP3    H181812   3.721   2.084   5.760
20107TIP3    H281813   3.748   2.224   5.816
20108TIP3   OH281814   2.226   3.694   5.732
20108TIP3    H181815   2.177   3.676   5.812
20108TIP3    H281816   2.272   3.605   5.722
20109TIP3   OH281817   4.823   2.668   5.783
20109TIP3    H181818   4.895   2.673   5.847
20109TIP3    H281819   4.860   2.606   5.719
20110TIP3   OH281820   5.195   2.865   5.710
20110TIP3    H181821   5.198   2.842   5.615
20110TIP3    H281822   5.283   2.902   5.727
20111TIP3   OH281823   4.441   2.291   5.682
20111TIP3    H181824   4.398   2.256   5.760
20111TIP3    H281825   4.370   2.337   5.634
20112TIP3   OH281826   4.304   2.568   5.825
20112TIP3    H181827   4.250   2.539   5.750
20112TIP3    H281828   4.385   2.598   5.780
20113TIP3   OH281829   3.961   2.797   5.789
20113TIP3    H181830   4.027   2.857   5.830
20113TIP3    H281831   3.877   2.827   5.821
20114TIP3   OH281832   4.571   3.310   5.643
20114TIP3    H181833   4.584   3.231   5.590
20114TIP3    H281834   4.533   3.268   5.722
20115TIP3   OH281835   3.993   2.517   5.743
20115TIP3    H181836   3.994   2.613   5.761
20115TIP3    H281837   3.905   2.494   5.715
20116TIP3   OH281838   4.774   3.495   5.663
20116TIP3    H181839   4.704   3.430   5.687
20116TIP3    H281840   4.846   3.437   5.636
20117TIP3   OH281841   4.862   3.173   5.641
20117TIP3    H181842   4.830   3.187   5.730
20117TIP3    H281843   4.839   3.078   5.628
20118TIP3   OH281844   4.545   2.677   5.723
20118TIP3    H181845   4.528   2.679   5.628
20118TIP3    H281846   4.639   2.700   5.730
20119TIP3   OH281847   5.482   2.923   5.668
20119TIP3    H181848   5.459   2.881   5.584
20119TIP3    H281849   5.489   3.018   5.648
20120TIP3   OH281850   4.542   3.755   5.823
20120TIP3    H181851   4.632   3.775   5.835
20120TIP3    H281852   4.504   3.819   5.762
20121TIP3   OH281853   5.598   2.807   5.884
20121TIP3    H181854   5.541   2.845   5.817
20121TIP3    H281855   5.595   2.869   5.959
20122TIP3   OH281856   5.429   2.530   5.739
20122TIP3    H181857   5.444   2.596   5.672
20122TIP3    H281858   5.418   2.446   5.693
20123TIP3   OH281859   5.359   2.273   5.654
20123TIP3    H181860   5.415   2.229   5.719
20123TIP3    H281861   5.276   2.228   5.673
20124TIP3   OH281862   4.087   3.646   5.709
20124TIP3    H181863   4.073   3.679   5.799
20124TIP3    H281864   4.172   3.599   5.729
20125TIP3   OH281865   6.710   2.675   5.778
20125TIP3    H181866   6.778   2.674   5.848
20125TIP3    H281867   6.743   2.605   5.721
20126TIP3   OH281868   6.935   2.756   5.942
20126TIP3    H181869   6.994   2.778   6.015
20126TIP3    H281870   6.979   2.807   5.871
20127TIP3   OH281871   6.966   3.649   5.829
20127TIP3    H181872   7.004   3.572   5.781
20127TIP3    H281873   6.966   3.619   5.920
20128TIP3   OH281874   7.081   2.863   5.708
20128TIP3    H181875   7.084   2.841   5.613
20128TIP3    H281876   7.167   2.905   5.727
20129TIP3   OH281877   6.636   2.253   5.769
20129TIP3    H181878   6.613   2.255   5.863
20129TIP3    H281879   6.609   2.163   5.743
20130TIP3   OH281880   6.324   2.293   5.681
20130TIP3    H181881   6.285   2.256   5.760
20130TIP3    H281882   6.254   2.336   5.632
20131TIP3   OH281883   6.190   2.570   5.822
20131TIP3    H181884   6.136   2.537   5.750
20131TIP3    H281885   6.271   2.593   5.777
20132TIP3   OH281886   6.734   3.177   5.918
20132TIP3    H181887   6.704   3.259   5.957
20132TIP3    H281888   6.665   3.113   5.940
20133TIP3   OH281889   5.850   2.800   5.785
20133TIP3    H181890   5.905   2.859   5.836
20133TIP3    H281891   5.762   2.825   5.822
20134TIP3   OH281892   7.042   3.203   5.802
20134TIP3    H181893   7.077   3.155   5.879
20134TIP3    H281894   6.948   3.183   5.808
20135TIP3   OH281895   6.457   3.310   5.647
20135TIP3    H181896   6.469   3.233   5.589
20135TIP3    H281897   6.418   3.267   5.726
20136TIP3   OH281898   6.349   3.263   5.891
20136TIP3    H181899   6.356   3.212   5.972
20136TIP3    H281900   6.340   3.354   5.923
20137TIP3   OH281901   6.046   3.254   5.828
20137TIP3    H181902   6.110   3.318   5.859
20137TIP3    H281903   6.097   3.205   5.760
20138TIP3   OH281904   6.657   3.495   5.660
20138TIP3    H181905   6.588   3.430   5.685
20138TIP3    H281906   6.731   3.438   5.634
20139TIP3   OH281907   7.114   3.475   5.685
20139TIP3    H181908   7.142   3.393   5.727
20139TIP3    H281909   7.187   3.494   5.622
20140TIP3   OH281910   6.207   3.067   5.666
20140TIP3    H181911   6.217   2.987   5.721
20140TIP3    H281912   6.278   3.053   5.599
20141TIP3   OH281913   6.744   3.175   5.638
20141TIP3    H181914   6.721   3.185   5.731
20141TIP3    H281915   6.727   3.078   5.626
20142TIP3   OH281916   6.419   3.754   5.826
20142TIP3    H181917   6.515   3.770   5.838
20142TIP3    H281918   6.397   3.822   5.762
20143TIP3   OH281919   5.776   3.220   5.771
20143TIP3    H181920   5.870   3.225   5.800
20143TIP3    H281921   5.778   3.148   5.705
20144TIP3   OH281922   7.283   2.537   5.721
20144TIP3    H181923   7.330   2.601   5.667
20144TIP3    H281924   7.302   2.449   5.686
20145TIP3   OH281925   7.242   2.272   5.658
20145TIP3    H181926   7.303   2.228   5.715
20145TIP3    H281927   7.159   2.225   5.670
20146TIP3   OH281928   6.685   3.682   5.849
20146TIP3    H181929   6.774   3.713   5.826
20146TIP3    H281930   6.662   3.633   5.767
20147TIP3   OH281931   1.052   4.554   5.782
20147TIP3    H181932   1.125   4.562   5.847
20147TIP3    H281933   1.089   4.491   5.719
20148TIP3   OH281934   1.279   4.642   5.941
20148TIP3    H181935   1.335   4.661   6.017
20148TIP3    H281936   1.321   4.695   5.870
20149TIP3   OH281937   1.646   3.819   5.922
20149TIP3    H181938   1.557   3.834   5.955
20149TIP3    H281939   1.671   3.906   5.887
20150TIP3   OH281940   1.762   5.260   5.758
20150TIP3    H181941   1.776   5.353   5.782
20150TIP3    H281942   1.852   5.227   5.762
20151TIP3   OH281943   1.423   4.748   5.710
20151TIP3    H181944   1.429   4.729   5.614
20151TIP3    H281945   1.507   4.794   5.729
20152TIP3   OH281946   0.976   4.141   5.769
20152TIP3    H181947   0.961   4.139   5.864
20152TIP3    H281948   0.963   4.049   5.743
20153TIP3   OH281949   0.117   4.228   5.932
20153TIP3    H181950   0.169   4.288   5.873
20153TIP3    H281951   0.047   4.286   5.963
20154TIP3   OH281952   0.533   4.457   5.826
20154TIP3    H181953   0.478   4.422   5.752
20154TIP3    H281954   0.613   4.480   5.778
20155TIP3   OH281955   1.251   4.198   5.834
20155TIP3    H181956   1.156   4.209   5.822
20155TIP3    H281957   1.285   4.282   5.868
20156TIP3   OH281958   1.067   5.065   5.906
20156TIP3    H181959   1.052   5.141   5.962
20156TIP3    H281960   1.008   4.998   5.943
20157TIP3   OH281961   0.188   4.684   5.793
20157TIP3    H181962   0.253   4.746   5.834
20157TIP3    H281963   0.103   4.717   5.823
20158TIP3   OH281964   1.385   5.083   5.796
20158TIP3    H181965   1.421   5.045   5.878
20158TIP3    H281966   1.290   5.069   5.811
20159TIP3   OH281967   1.833   5.526   5.820
20159TIP3    H181968   1.905   5.587   5.805
20159TIP3    H281969   1.763   5.584   5.855
20160TIP3   OH281970   0.801   5.197   5.646
20160TIP3    H181971   0.813   5.118   5.590
20160TIP3    H281972   0.761   5.155   5.725
20161TIP3   OH281973   0.691   5.148   5.891
20161TIP3    H181974   0.702   5.096   5.971
20161TIP3    H281975   0.684   5.239   5.921
20162TIP3   OH281976   0.326   4.874   5.939
20162TIP3    H181977   0.262   4.910   6.000
20162TIP3    H281978   0.384   4.949   5.917
20163TIP3   OH281979   0.224   4.402   5.761
20163TIP3    H181980   0.223   4.499   5.762
20163TIP3    H281981   0.143   4.383   5.714
20164TIP3   OH281982   1.457   5.360   5.675
20164TIP3    H181983   1.486   5.282   5.728
20164TIP3    H281984   1.536   5.379   5.623
20165TIP3   OH281985   0.546   4.949   5.663
20165TIP3    H181986   0.561   4.874   5.722
20165TIP3    H281987   0.620   4.940   5.602
20166TIP3   OH281988   1.088   5.062   5.639
20166TIP3    H181989   1.062   5.070   5.732
20166TIP3    H281990   1.070   4.966   5.627
20167TIP3   OH281991   0.665   4.753   5.899
20167TIP3    H181992   0.620   4.699   5.965
20167TIP3    H281993   0.694   4.683   5.837
20168TIP3   OH281994   0.774   4.572   5.723
20168TIP3    H181995   0.756   4.560   5.628
20168TIP3    H281996   0.871   4.582   5.729
20169TIP3   OH281997   0.127   5.111   5.779
20169TIP3    H181998   0.220   5.112   5.798
20169TIP3    H281999   0.121   5.040   5.711
20170TIP3   OH282000   1.668   4.414   5.742
20170TIP3    H182001   1.670   4.481   5.673
20170TIP3    H282002   1.645   4.332   5.696
20171TIP3   OH282003   1.588   4.156   5.653
20171TIP3    H182004   1.645   4.116   5.720
20171TIP3    H282005   1.502   4.116   5.673
20172TIP3   OH282006   1.797   4.043   5.813
20172TIP3    H182007   1.834   3.970   5.759
20172TIP3    H282008   1.865   4.110   5.810
20173TIP3   OH282009   0.336   4.033   5.769
20173TIP3    H182010   0.389   3.981   5.708
20173TIP3    H282011   0.399   4.075   5.828
20174TIP3   OH282012   0.320   5.533   5.710
20174TIP3    H182013   0.299   5.565   5.799
20174TIP3    H282014   0.401   5.482   5.728
20175TIP3   OH282015   3.650   5.256   5.762
20175TIP3    H182016   3.660   5.351   5.781
20175TIP3    H282017   3.743   5.228   5.760
20176TIP3   OH282018   3.191   5.532   5.827
20176TIP3    H182019   3.233   5.456   5.783
20176TIP3    H282020   3.194   5.507   5.921
20177TIP3   OH282021   2.861   4.140   5.769
20177TIP3    H182022   2.846   4.138   5.865
20177TIP3    H282023   2.839   4.049   5.744
20178TIP3   OH282024   3.702   4.405   5.971
20178TIP3    H182025   3.645   4.367   5.904
20178TIP3    H282026   3.709   4.496   5.943
20179TIP3   OH282027   3.274   5.079   5.799
20179TIP3    H182028   3.306   5.047   5.883
20179TIP3    H282029   3.177   5.074   5.809
20180TIP3   OH282030   3.720   5.525   5.821
20180TIP3    H182031   3.791   5.588   5.803
20180TIP3    H282032   3.649   5.585   5.854
20181TIP3   OH282033   2.581   5.420   5.963
20181TIP3    H182034   2.594   5.500   5.910
20181TIP3    H282035   2.559   5.454   6.051
20182TIP3   OH282036   2.279   5.139   5.830
20182TIP3    H182037   2.340   5.206   5.859
20182TIP3    H282038   2.324   5.089   5.760
20183TIP3   OH282039   2.113   4.405   5.748
20183TIP3    H182040   2.105   4.499   5.758
20183TIP3    H282041   2.025   4.380   5.716
20184TIP3   OH282042   2.882   5.378   5.658
20184TIP3    H182043   2.821   5.312   5.691
20184TIP3    H282044   2.961   5.325   5.637
20185TIP3   OH282045   3.341   5.358   5.681
20185TIP3    H182046   3.373   5.280   5.727
20185TIP3    H282047   3.417   5.382   5.626
20186TIP3   OH282048   2.436   4.953   5.666
20186TIP3    H182049   2.445   4.874   5.720
20186TIP3    H282050   2.507   4.939   5.600
20187TIP3   OH282051   2.980   5.058   5.643
20187TIP3    H182052   2.944   5.074   5.731
20187TIP3    H282053   2.951   4.967   5.628
20188TIP3   OH282054   2.547   4.747   5.893
20188TIP3    H182055   2.511   4.701   5.969
20188TIP3    H282056   2.585   4.682   5.835
20189TIP3   OH282057   3.601   4.809   5.669
20189TIP3    H182058   3.575   4.768   5.584
20189TIP3    H282059   3.601   4.904   5.645
20190TIP3   OH282060   3.471   4.154   5.654
20190TIP3    H182061   3.531   4.118   5.718
20190TIP3    H282062   3.385   4.115   5.674
20191TIP3   OH282063   2.036   3.850   5.920
20191TIP3    H182064   2.084   3.908   5.860
20191TIP3    H282065   1.975   3.905   5.968
20192TIP3   OH282066   2.207   5.532   5.711
20192TIP3    H182067   2.184   5.567   5.798
20192TIP3    H282068   2.285   5.478   5.729
20193TIP3   OH282069   5.083   5.534   5.829
20193TIP3    H182070   5.117   5.456   5.782
20193TIP3    H282071   5.076   5.506   5.921
20194TIP3   OH282072   4.302   4.461   5.823
20194TIP3    H182073   4.247   4.418   5.754
20194TIP3    H282074   4.385   4.483   5.779
20195TIP3   OH282075   3.960   4.683   5.794
20195TIP3    H182076   4.023   4.745   5.831
20195TIP3    H282077   3.874   4.718   5.818
20196TIP3   OH282078   4.343   4.096   5.918
20196TIP3    H182079   4.327   4.179   5.964
20196TIP3    H282080   4.426   4.068   5.953
20197TIP3   OH282081   3.997   4.403   5.736
20197TIP3    H182082   3.994   4.496   5.763
20197TIP3    H282083   3.906   4.380   5.717
20198TIP3   OH282084   4.768   5.380   5.653
20198TIP3    H182085   4.705   5.318   5.696
20198TIP3    H282086   4.845   5.325   5.637
20199TIP3   OH282087   5.224   5.355   5.677
20199TIP3    H182088   5.259   5.282   5.725
20199TIP3    H282089   5.301   5.385   5.624
20200TIP3   OH282090   4.317   4.950   5.661
20200TIP3    H182091   4.333   4.877   5.722
20200TIP3    H282092   4.394   4.940   5.602
20201TIP3   OH282093   4.548   4.567   5.723
20201TIP3    H182094   4.525   4.564   5.628
20201TIP3    H282095   4.641   4.587   5.725
20202TIP3   OH282096   5.477   4.810   5.665
20202TIP3    H182097   5.460   4.764   5.581
20202TIP3    H282098   5.493   4.901   5.642
20203TIP3   OH282099   3.889   5.106   5.775
20203TIP3    H182100   3.984   5.111   5.794
20203TIP3    H282101   3.890   5.037   5.704
20204TIP3   OH282102   5.360   4.142   5.643
20204TIP3    H182103   5.416   4.119   5.718
20204TIP3    H282104   5.273   4.112   5.671
20205TIP3   OH282105   4.801   5.563   5.852
20205TIP3    H182106   4.886   5.602   5.830
20205TIP3    H282107   4.773   5.520   5.769
20206TIP3   OH282108   4.085   5.526   5.712
20206TIP3    H182109   4.074   5.566   5.799
20206TIP3    H282110   4.174   5.485   5.724
20207TIP3   OH282111   6.710   4.557   5.781
20207TIP3    H182112   6.780   4.556   5.848
20207TIP3    H282113   6.744   4.491   5.719
20208TIP3   OH282114   7.304   3.821   5.919
20208TIP3    H182115   7.215   3.835   5.954
20208TIP3    H282116   7.328   3.907   5.886
20209TIP3   OH282117   6.642   4.139   5.771
20209TIP3    H182118   6.613   4.138   5.863
20209TIP3    H282119   6.611   4.051   5.741
20210TIP3   OH282120   6.326   4.178   5.684
20210TIP3    H182121   6.282   4.136   5.759
20210TIP3    H282122   6.255   4.222   5.635
20211TIP3   OH282123   6.912   4.198   5.835
20211TIP3    H182124   6.816   4.208   5.821
20211TIP3    H282125   6.939   4.285   5.867
20212TIP3   OH282126   6.048   5.138   5.828
20212TIP3    H182127   6.111   5.201   5.860
20212TIP3    H282128   6.099   5.088   5.762
20213TIP3   OH282129   6.207   4.956   5.664
20213TIP3    H182130   6.214   4.876   5.722
20213TIP3    H282131   6.278   4.937   5.601
20214TIP3   OH282132   6.433   4.564   5.722
20214TIP3    H182133   6.412   4.563   5.628
20214TIP3    H282134   6.527   4.584   5.728
20215TIP3   OH282135   7.302   4.417   5.742
20215TIP3    H182136   7.328   4.478   5.673
20215TIP3    H282137   7.302   4.332   5.695
20216TIP3   OH282138   7.245   4.157   5.656
20216TIP3    H182139   7.302   4.116   5.721
20216TIP3    H282140   7.159   4.115   5.672
20217TIP3   OH282141   5.977   5.535   5.712
20217TIP3    H182142   5.951   5.561   5.800
20217TIP3    H282143   6.053   5.479   5.728
20218TIP3   OH282144   1.051   6.442   5.782
20218TIP3    H182145   1.121   6.441   5.849
20218TIP3    H282146   1.089   6.377   5.721
20219TIP3   OH282147   1.652   5.705   5.926
20219TIP3    H182148   1.563   5.717   5.958
20219TIP3    H282149   1.677   5.790   5.887
20220TIP3   OH282150   1.766   7.148   5.756
20220TIP3    H182151   1.779   7.238   5.782
20220TIP3    H282152   1.854   7.110   5.762
20221TIP3   OH282153   0.986   6.022   5.771
20221TIP3    H182154   0.959   6.024   5.863
20221TIP3    H282155   0.952   5.936   5.742
20222TIP3   OH282156   0.121   6.118   5.932
20222TIP3    H182157   0.168   6.177   5.872
20222TIP3    H282158   0.045   6.167   5.965
20223TIP3   OH282159   0.190   6.567   5.793
20223TIP3    H182160   0.252   6.634   5.831
20223TIP3    H282161   0.105   6.601   5.822
20224TIP3   OH282162   0.798   7.078   5.645
20224TIP3    H182163   0.811   7.000   5.589
20224TIP3    H282164   0.761   7.038   5.727
20225TIP3   OH282165   0.691   7.027   5.887
20225TIP3    H182166   0.702   6.982   5.970
20225TIP3    H282167   0.685   7.123   5.914
20226TIP3   OH282168   0.330   6.761   5.943
20226TIP3    H182169   0.261   6.803   5.995
20226TIP3    H282170   0.378   6.840   5.910
20227TIP3   OH282171   0.929   7.176   5.962
20227TIP3    H182172   0.857   7.237   5.983
20227TIP3    H282173   0.982   7.257   5.957
20228TIP3   OH282174   0.656  -0.038   5.903
20228TIP3    H182175   0.701   0.047   5.895
20228TIP3    H282176   0.658  -0.021   6.003
20229TIP3   OH282177   0.398   7.014   5.835
20229TIP3    H182178   0.449   7.093   5.856
20229TIP3    H282179   0.443   6.979   5.757
20230TIP3   OH282180   0.231   6.289   5.742
20230TIP3    H182181   0.223   6.385   5.761
20230TIP3    H282182   0.139   6.267   5.718
20231TIP3   OH282183   0.985   7.251   5.632
20231TIP3    H182184   0.925   7.194   5.686
20231TIP3    H282185   1.069   7.203   5.630
20232TIP3   OH282186   1.453   7.244   5.681
20232TIP3    H182187   1.493   7.168   5.726
20232TIP3    H282188   1.529   7.267   5.624
20233TIP3   OH282189   0.550   6.839   5.664
20233TIP3    H182190   0.558   6.759   5.718
20233TIP3    H282191   0.621   6.825   5.599
20234TIP3   OH282192   0.775   6.454   5.726
20234TIP3    H182193   0.757   6.448   5.630
20234TIP3    H282194   0.871   6.467   5.729
20235TIP3   OH282195   1.661   6.301   5.737
20235TIP3    H182196   1.672   6.368   5.670
20235TIP3    H282197   1.646   6.217   5.692
20236TIP3   OH282198   1.591   6.037   5.644
20236TIP3    H182199   1.650   6.007   5.716
20236TIP3    H282200   1.506   6.004   5.674
20237TIP3   OH282201   1.792   5.931   5.811
20237TIP3    H182202   1.837   5.860   5.762
20237TIP3    H282203   1.865   5.996   5.820
20238TIP3   OH282204   0.167   5.733   5.906
20238TIP3    H182205   0.204   5.805   5.857
20238TIP3    H282206   0.099   5.777   5.964
20239TIP3   OH282207   3.538   5.706   5.926
20239TIP3    H182208   3.445   5.717   5.956
20239TIP3    H282209   3.553   5.791   5.885
20240TIP3   OH282210   3.650   7.144   5.756
20240TIP3    H182211   3.659   7.235   5.781
20240TIP3    H282212   3.741   7.109   5.761
20241TIP3   OH282213   3.310   6.639   5.710
20241TIP3    H182214   3.312   6.612   5.617
20241TIP3    H282215   3.398   6.676   5.725
20242TIP3   OH282216   2.964   6.948   5.918
20242TIP3    H182217   2.929   7.029   5.957
20242TIP3    H282218   2.892   6.887   5.937
20243TIP3   OH282219   3.289   6.940   5.803
20243TIP3    H182220   3.313   6.924   5.895
20243TIP3    H282221   3.191   6.947   5.810
20244TIP3   OH282222   2.220   6.763   5.941
20244TIP3    H182223   2.148   6.795   5.997
20244TIP3    H282224   2.271   6.840   5.916
20245TIP3   OH282225   2.815   7.193   5.975
20245TIP3    H182226   2.744   7.257   5.975
20245TIP3    H282227   2.873   7.247   5.919
20246TIP3   OH282228   2.569  -0.054   5.952
20246TIP3    H182229   2.587   0.031   5.907
20246TIP3    H282230   2.552  -0.014   6.039
20247TIP3   OH282231   2.456   5.978   5.921
20247TIP3    H182232   2.443   6.066   5.959
20247TIP3    H282233   2.544   5.955   5.950
20248TIP3   OH282234   2.872   7.262   5.654
20248TIP3    H182235   2.813   7.196   5.691
20248TIP3    H282236   2.953   7.214   5.634
20249TIP3   OH282237   3.354   7.225   5.637
20249TIP3    H182238   3.375   7.171   5.715
20249TIP3    H282239   3.435   7.272   5.617
20250TIP3   OH282240   2.972   6.941   5.639
20250TIP3    H182241   2.943   6.952   5.730
20250TIP3    H282242   2.953   6.845   5.626
20251TIP3   OH282243   2.555   6.635   5.902
20251TIP3    H182244   2.505   6.585   5.966
20251TIP3    H282245   2.581   6.569   5.834
20252TIP3   OH282246   2.660   6.457   5.723
20252TIP3    H182247   2.645   6.448   5.627
20252TIP3    H282248   2.756   6.468   5.729
20253TIP3   OH282249   3.601   6.690   5.668
20253TIP3    H182250   3.572   6.653   5.584
20253TIP3    H282251   3.604   6.786   5.649
20254TIP3   OH282252   3.555   6.299   5.741
20254TIP3    H182253   3.555   6.367   5.672
20254TIP3    H282254   3.528   6.220   5.695
20255TIP3   OH282255   4.826   6.440   5.778
20255TIP3    H182256   4.892   6.445   5.847
20255TIP3    H282257   4.858   6.374   5.718
20256TIP3   OH282258   4.441   6.066   5.683
20256TIP3    H182259   4.398   6.023   5.758
20256TIP3    H282260   4.368   6.107   5.636
20257TIP3   OH282261   4.300   6.349   5.820
20257TIP3    H182262   4.251   6.303   5.752
20257TIP3    H282263   4.388   6.365   5.781
20258TIP3   OH282264   5.027   6.085   5.832
20258TIP3    H182265   4.931   6.092   5.826
20258TIP3    H282266   5.057   6.168   5.868
20259TIP3   OH282267   4.843   6.950   5.908
20259TIP3    H182268   4.821   7.027   5.963
20259TIP3    H282269   4.783   6.882   5.945
20260TIP3   OH282270   5.158   6.962   5.795
20260TIP3    H182271   5.190   6.931   5.880
20260TIP3    H282272   5.062   6.958   5.808
20261TIP3   OH282273   4.159   7.021   5.824
20261TIP3    H182274   4.220   7.090   5.864
20261TIP3    H282275   4.216   6.980   5.758
20262TIP3   OH282276   4.320   6.837   5.666
20262TIP3    H182277   4.333   6.759   5.722
20262TIP3    H282278   4.392   6.826   5.600
20263TIP3   OH282279   4.861   6.945   5.640
20263TIP3    H182280   4.836   6.954   5.732
20263TIP3    H282281   4.840   6.850   5.627
20264TIP3   OH282282   4.545   6.455   5.725
20264TIP3    H182283   4.527   6.450   5.630
20264TIP3    H282284   4.641   6.469   5.730
20265TIP3   OH282285   5.489   6.693   5.668
20265TIP3    H182286   5.456   6.653   5.586
20265TIP3    H282287   5.486   6.788   5.646
20266TIP3   OH282288   3.891   6.998   5.770
20266TIP3    H182289   3.985   7.000   5.801
20266TIP3    H282290   3.892   6.922   5.708
20267TIP3   OH282291   5.601   6.578   5.889
20267TIP3    H182292   5.543   6.610   5.817
20267TIP3    H282293   5.591   6.644   5.958
20268TIP3   OH282294   5.431   6.300   5.742
20268TIP3    H182295   5.442   6.366   5.673
20268TIP3    H282296   5.419   6.217   5.693
20269TIP3   OH282297   5.358   6.040   5.655
20269TIP3    H182298   5.418   6.003   5.719
20269TIP3    H282299   5.272   6.000   5.673
20270TIP3   OH282300   7.083   6.635   5.707
20270TIP3    H182301   7.084   6.610   5.613
20270TIP3    H282302   7.166   6.677   5.726
20271TIP3   OH282303   6.188   6.345   5.826
20271TIP3    H182304   6.135   6.307   5.754
20271TIP3    H282305   6.271   6.365   5.779
20272TIP3   OH282306   6.911   6.083   5.833
20272TIP3    H182307   6.816   6.096   5.824
20272TIP3    H282308   6.938   6.169   5.868
20273TIP3   OH282309   5.850   6.568   5.791
20273TIP3    H182310   5.908   6.632   5.833
20273TIP3    H282311   5.761   6.598   5.820
20274TIP3   OH282312   6.454   7.080   5.644
20274TIP3    H182313   6.470   7.002   5.590
20274TIP3    H282314   6.422   7.038   5.725
20275TIP3   OH282315   6.350  -0.034   5.964
20275TIP3    H182316   6.366   0.046   5.913
20275TIP3    H282317   6.329  -0.000   6.052
20276TIP3   OH282318   6.045   7.023   5.828
20276TIP3    H182319   6.108   7.090   5.859
20276TIP3    H282320   6.097   6.976   5.760
20277TIP3   OH282321   5.882   6.289   5.742
20277TIP3    H182322   5.878   6.384   5.764
20277TIP3    H282323   5.792   6.267   5.717
20278TIP3   OH282324   6.657   7.263   5.661
20278TIP3    H182325   6.590   7.201   5.689
20278TIP3    H282326   6.733   7.210   5.636
20279TIP3   OH282327   7.115   7.228   5.674
20279TIP3    H182328   7.150   7.167   5.741
20279TIP3    H282329   7.194   7.266   5.632
20280TIP3   OH282330   6.207   6.839   5.666
20280TIP3    H182331   6.216   6.759   5.720
20280TIP3    H282332   6.277   6.824   5.599
20281TIP3   OH282333   6.747   6.946   5.640
20281TIP3    H182334   6.720   6.957   5.732
20281TIP3    H282335   6.727   6.851   5.627
20282TIP3   OH282336   6.318   6.639   5.898
20282TIP3    H182337   6.278   6.584   5.966
20282TIP3    H282338   6.352   6.569   5.837
20283TIP3   OH282339   6.430   6.460   5.723
20283TIP3    H182340   6.415   6.446   5.628
20283TIP3    H282341   6.527   6.467   5.730
20284TIP3   OH282342   5.775   6.991   5.774
20284TIP3    H182343   5.870   6.997   5.799
20284TIP3    H282344   5.777   6.921   5.705
20285TIP3   OH282345   7.315   6.300   5.742
20285TIP3    H182346   7.323   6.364   5.671
20285TIP3    H282347   7.298   6.215   5.695
20286TIP3   OH282348   7.245   6.044   5.656
20286TIP3    H182349   7.301   6.000   5.721
20286TIP3    H282350   7.159   6.000   5.671
   7.34166   7.34166  16.00000   0.00000   0.00000   0.00000   0.00000   0.00000   0.00000
